ITEM: TIMESTEP
2000
ITEM: NUMBER OF ATOMS
4000
ITEM: BOX BOUNDS pp pp pp
-0.48068 40.9807
0.0733891 40.4266
0.0685253 40.4315
ITEM: ATOMS mass type id x y z vx vy vz fx fy fz xrad yrad zrad vxrad vyrad vzrad fxrad fyrad fzrad 
26.982 1 811 9.96441 0.0984832 18.244 0.592808 -0.0899876 -1.80643 -0.199645 -0.586643 0.263833 -1.1506 -0.515031 -5.72112 -1.68759 -4.29416 -4.31096 -0.0045121 -0.0176052 -0.00208205 
26.982 1 3 1.60851 -0.000158036 1.91262 3.73574 -2.52818 2.81255 0.466463 0.0734194 0.192511 -3.27899 -8.18017 -3.03233 -3.78796 -7.60209 -3.12102 -0.00637523 -0.00844691 -0.00432857 
26.982 1 8 3.58684 2.10029 2.1171 -3.09009 1.09905 -0.564574 0.234889 0.0257324 -0.127867 0.522867 -6.99618 -5.07956 0.474424 -6.90836 -5.17045 0.000224751 -0.00964564 -0.00797516 
26.982 1 807 5.63709 0.00993178 18.2508 -4.28103 3.41261 1.25632 0.189197 0.165222 -0.245985 -0.597342 -0.855978 -5.18301 -0.523621 -4.61127 -3.31003 -0.00032742 -0.0162042 0.00134021 
26.982 1 43 1.73159 4.08474 2.10715 -0.493366 -2.74607 -6.91939 -0.38704 0.535314 -0.0671542 -2.72179 -3.76238 -6.11554 -3.73516 -3.54956 -7.3187 -0.00891241 -0.00273321 -0.0130715 
26.982 1 202 1.45425 2.13484 4.00044 -7.61711 5.68713 -3.50097 0.4484 -0.130604 0.135258 -3.39318 -6.49301 -4.38032 -3.46199 -6.39693 -4.62461 -0.00518554 -0.00896664 -0.00803732 
26.982 1 241 -0.536676 4.18522 4.03172 4.19031 0.931574 1.42016 0.230922 0.196754 0.0585284 -5.69119 -6.09882 -5.84447 -5.66179 -6.08769 -6.32433 -0.00762357 -0.00755336 -0.00982672 
26.982 1 245 3.68354 4.19428 4.12789 2.01709 -0.643166 3.96974 -0.239711 -0.0952452 0.169363 -0.394889 -1.7641 -1.53333 -0.469064 -1.74025 -1.5734 -0.0011877 -0.00173799 -0.00149937 
26.982 1 2825 24.4935 20.3537 16.4044 -3.53287 5.89599 2.98751 -0.626047 -0.359551 -0.381006 -3.01713 -3.79671 -7.64635 -2.82449 -0.257532 -6.92304 -0.00346997 0.00822128 -0.00777153 
26.982 1 2819 18.2194 20.1021 18.3123 -2.72075 -0.344635 -2.11615 -0.0201815 0.739307 -0.204939 -3.62685 -6.15419 -5.14021 -4.30744 -2.38061 -5.00828 -0.0073606 0.0090029 -0.00602609 
26.982 1 12 7.70314 2.05466 1.98489 -1.49825 -3.16231 -0.910985 0.183384 0.0978326 0.390193 -0.986086 -7.52116 -4.12879 -1.26536 -7.93504 -5.08097 -0.00195624 -0.0126571 -0.00958641 
26.982 1 47 5.78762 4.11182 2.22464 -2.27227 -1.75508 1.015 -0.237095 0.374848 -0.899358 -1.79148 -2.16148 -5.18605 -1.25347 -2.48161 -5.41292 -0.000653632 -0.00235114 -0.00920195 
26.982 1 49 7.9112 3.95352 -0.00373385 -1.96465 2.72179 -0.136955 -0.545833 0.415443 0.108796 -0.502704 -0.774558 -12.2352 -0.311431 -0.657747 -12.2225 -0.00138182 0.000281789 -0.0168919 
26.982 1 206 5.67741 2.09954 3.91965 -5.26379 -1.1633 -1.52976 -0.0438421 -0.154558 0.896883 -2.01502 -6.48071 -3.66247 -1.93682 -6.52223 -3.84606 -0.00285463 -0.0100144 -0.00395774 
26.982 1 209 7.67706 0.13218 4.06729 -0.505972 0.00831702 -1.58488 0.463126 -0.221417 0.0403563 -0.699231 -8.87134 -8.32816 -0.501689 -8.84051 -8.55597 0.000104058 -0.0126792 -0.0119351 
26.982 1 249 7.63097 4.01886 4.21508 1.99832 2.68232 -0.617535 0.585303 0.019421 0.0571996 -0.201278 -0.912491 -0.753215 -0.120923 -0.951383 -0.962302 0.000972023 -0.0015562 -0.00127273 
26.982 1 10 10.0382 2.04642 -0.0147518 -3.86724 1.89284 2.22913 -0.392823 0.116558 0.0947707 1.77456 -6.36565 -9.61636 0.523546 -6.16892 -9.50598 -0.00264034 -0.00845637 -0.0127786 
26.982 1 16 11.9299 2.21034 2.09259 -2.10298 -1.10715 -1.04394 0.230533 -0.32001 0.074485 2.57352 -9.02803 -6.05078 2.31739 -8.96452 -5.00231 0.0031297 -0.0126377 -0.00447133 
26.982 1 51 9.69347 3.94105 2.04351 1.41355 5.12211 -0.0234574 0.330121 0.3251 0.181973 0.439429 -0.966334 -3.99779 0.276856 -0.502474 -4.58104 9.99713e-05 0.000551037 -0.00713323 
26.982 1 53 11.8991 4.06051 -0.00236754 -0.0795093 2.17235 -1.19473 -0.176194 0.539004 0.111724 1.57729 -2.22909 -12.2022 0.94051 -1.45546 -12.1736 0.000661805 0.00129175 -0.0163574 
26.982 1 210 9.95548 1.98312 4.16078 0.98339 -0.59586 2.04207 -0.586813 -0.125693 -0.120138 0.73245 -5.10902 -3.53058 1.11788 -5.61091 -3.59098 0.00109158 -0.010427 -0.0063127 
26.982 1 1197 36.8449 16.2921 20.3279 0.390868 -3.97034 -1.6424 -0.244012 -0.356486 -0.248703 -2.93988 -1.43641 2.43397 -3.67461 -1.96685 2.37873 -0.00849776 -0.00472536 0.00232271 
26.982 1 253 11.725 4.1148 4.11511 -0.61495 0.227109 0.961626 0.974357 -0.193335 -0.128305 0.26507 -1.22845 -1.02014 0.211344 -1.38613 -1.07058 0.00156008 -0.00265801 -0.00205436 
26.982 1 20 16.0287 2.27094 2.33536 -2.53544 2.84417 -1.30085 0.387655 -0.834865 -0.766861 -3.67012 -9.17034 -4.4701 -3.13253 -9.18049 -3.92975 -0.00189212 -0.014551 -0.00616805 
26.982 1 55 14.0378 4.09413 2.14885 1.70443 1.18609 2.66299 -0.490589 0.254117 -0.190774 -0.211248 -3.8398 -5.22902 -0.297687 -3.76929 -5.17619 -0.00179967 -0.00418304 -0.00783933 
26.982 1 57 16.0447 4.05665 0.169086 -0.384456 0.218047 -3.32572 -0.0277415 0.309959 -0.217853 -2.27333 -3.25214 -12.2144 -2.20725 -3.11753 -12.1894 -0.00301617 -0.00340444 -0.0174306 
26.982 1 214 14.0714 2.1994 4.10814 2.15907 0.654779 -0.556375 -0.602858 -0.48692 0.323577 1.30643 -7.23026 -4.32757 0.886726 -7.70112 -4.18004 -0.00141129 -0.0137253 -0.0048418 
26.982 1 257 16.1363 4.09431 4.22338 -3.2026 0.43615 0.616428 0.098227 0.502572 -0.108656 -0.239008 -1.86168 -0.718348 -0.279301 -1.90967 -0.732082 0.000774144 -0.00128037 -0.00188736 
26.982 1 218 18.075 1.99507 4.3916 -3.50108 -1.60775 0.722646 0.464401 0.236802 -0.614154 -0.847437 -6.68572 -1.80037 -1.36686 -6.69811 -2.27944 -0.00222628 -0.00942421 -0.0063582 
26.982 1 18 18.0177 2.0319 0.192011 -3.35895 -0.326245 2.64855 0.219463 -0.133407 0.00819051 -2.05485 -5.20975 -10.6752 -1.07623 -5.60711 -10.2792 0.000992185 -0.00943321 -0.013095 
26.982 1 819 18.2838 0.0253826 18.2155 3.75043 5.94211 3.21237 0.0175582 -0.347806 -0.0500128 -0.125308 -0.525772 -4.58964 -1.66181 -4.27184 -3.19884 -0.00647098 -0.0178863 -0.000887998 
26.982 1 2813 12.0056 20.3319 16.0231 5.99685 -1.1142 -4.14298 0.282931 -0.7051 0.970156 -1.74873 -2.28784 -3.63236 -2.17071 0.0513755 -3.8283 -0.0039716 0.00654738 -0.00414132 
26.982 1 22 22.3611 2.00254 0.0304514 -2.58842 -4.62568 -1.93155 -0.261881 -0.0997711 0.546169 -0.440644 -4.0063 -10.19 -0.743953 -3.75923 -10.7858 -0.00235595 -0.00430664 -0.0150757 
26.982 1 24 20.0687 1.93674 2.17943 2.08824 5.16907 -4.27851 0.575511 0.231663 0.0959376 0.48593 -6.92269 -1.83186 -0.418394 -6.82708 -2.90696 -0.00191363 -0.0093342 -0.00664838 
26.982 1 59 18.1756 3.94209 2.10763 2.33633 2.10553 -1.14356 8.16182e-05 0.550656 0.325175 -0.265171 -1.35397 -3.09959 -0.214934 -1.51289 -3.14552 0.000430403 -0.00141574 -0.00397538 
26.982 1 61 20.2149 4.00143 0.0130378 -1.95945 0.0559962 -2.22527 0.174538 0.208783 0.376773 0.584803 0.482809 -12.2619 1.05231 0.570181 -12.3102 0.00311235 -0.000398484 -0.0164104 
26.982 1 63 22.2711 3.97958 2.02847 3.45767 2.38991 2.65802 -0.180258 -0.109693 0.384354 -0.0184611 -0.136117 -3.70935 0.117845 0.444757 -4.32103 -0.000370021 0.00152189 -0.00759164 
26.982 1 222 22.3551 2.20876 4.2077 1.12671 -0.690949 1.93894 -0.210012 -0.767079 -0.630023 -1.63244 -5.29383 -2.29346 -1.20521 -4.3075 -1.9625 -0.00066281 -0.00390362 -0.0035427 
26.982 1 261 20.1266 4.0967 4.29354 3.19856 -1.85283 -1.71186 -0.0131156 -0.189143 -0.666403 -0.0190236 -1.15171 -0.459586 -0.0491671 -0.954295 -0.554795 -0.000338745 -0.00106194 -0.00339054 
26.982 1 25 24.412 0.151956 0.233341 -3.35049 -1.7398 -2.29156 -0.100036 -0.437824 -0.452607 -0.332204 -8.43775 -7.16006 0.499927 -7.91082 -7.72043 0.00303413 -0.00998711 -0.0132596 
26.982 1 635 34.6866 0.107769 13.9872 2.52417 -0.986921 -3.21629 -0.0458372 -0.0168789 0.281476 1.28479 -0.363259 -7.24454 2.54343 -4.25325 -5.54087 0.00753059 -0.0175132 -0.00180842 
26.982 1 27 26.4404 0.116059 2.2005 -3.78673 3.20201 0.572024 0.304977 -0.658803 -0.228795 4.14922 -11.0444 -3.39211 4.14368 -10.4912 -3.93753 0.00695599 -0.0145932 -0.00722729 
26.982 1 28 24.5711 1.96783 2.22202 -0.293844 -4.77909 -0.952049 -1.10865 0.721663 0.00167885 -0.763207 -4.45502 -3.37551 0.286573 -3.78907 -4.05122 0.000927525 -0.00202089 -0.00743602 
26.982 1 65 24.4219 4.05263 0.262294 1.45919 -2.26812 -0.67335 -0.0567153 0.114376 -0.25519 0.526356 0.999237 -12.3698 1.07829 1.32507 -12.4242 0.00286697 0.00269289 -0.0173119 
26.982 1 67 26.4753 4.07954 2.18303 1.3458 1.39998 -2.57275 -0.029773 0.274481 0.197994 0.293438 -0.364792 -4.32119 0.252928 -0.320678 -5.38765 0.000821434 0.000702803 -0.0090214 
26.982 1 225 24.2236 0.0388185 4.17723 -2.45511 -3.00727 -2.86851 0.244694 0.00771009 0.160383 -1.18462 -8.95027 -5.41013 -0.45868 -8.89219 -5.04695 0.00143148 -0.0117976 -0.00515843 
26.982 1 226 26.454 2.06107 4.10442 4.66357 2.44096 8.40166 0.16712 0.283927 0.523409 2.24068 -4.61728 -1.38436 2.24492 -4.46458 -1.58314 0.0036788 -0.00429026 -0.00178173 
26.982 1 265 24.1759 4.25312 4.18728 -0.354661 3.09882 -0.692594 0.684025 -0.488213 0.00456938 -0.0469668 -0.478133 -0.5687 0.0827407 -0.322952 -0.725257 0.00189264 -0.000708347 -0.00153843 
26.982 1 30 30.6096 2.29771 0.0107219 -0.902933 1.25645 -1.2281 0.0439536 -0.342779 0.430503 0.535748 -7.85414 -9.90777 -0.032074 -7.30896 -10.5154 -0.00194758 -0.00708423 -0.0154663 
26.982 1 32 28.5436 2.01173 1.98763 3.3891 -1.17413 0.87867 0.478263 0.650382 0.815423 1.57864 -8.56775 -3.47291 0.388372 -7.94147 -4.08292 -0.00102473 -0.00851968 -0.00709492 
26.982 1 69 28.3542 4.22245 0.177827 -0.0172663 1.3615 1.93342 0.959344 0.116748 0.148629 -0.679573 -0.378003 -12.2392 -1.79918 -0.344791 -12.2915 -0.00393863 -8.19132e-05 -0.0160094 
26.982 1 71 30.7235 4.20372 2.23612 -3.02096 1.60105 0.502346 -0.520868 -0.114424 -0.376418 0.317998 -1.4299 -3.56642 -0.101854 -1.20417 -3.56584 -0.00314939 -0.00122411 -0.0054202 
26.982 1 230 30.7047 1.96714 4.07793 3.77398 2.53747 2.6708 -0.352157 0.534312 0.116432 -0.444499 -7.62016 -2.9479 -1.03215 -6.57007 -2.43025 -0.00462777 -0.00466878 -0.00183824 
26.982 1 269 28.4649 4.10412 4.20347 5.56631 -0.323343 2.17392 0.10852 0.0091869 -0.480504 0.157428 -1.37119 -0.638061 -0.0256742 -1.23497 -0.779881 -4.20216e-05 -0.00152996 -0.00331858 
26.982 1 35 34.7943 0.311258 2.1592 -3.86021 5.76752 2.76488 0.158696 -0.803028 -0.324187 -0.364899 -9.49098 -6.84802 0.903525 -10.0231 -6.32867 0.00523737 -0.0164391 -0.00784106 
26.982 1 36 32.6957 2.16185 2.01598 -4.04981 4.79363 0.111174 -0.0547336 -0.0309923 -0.0142931 0.21684 -7.93458 -5.3836 0.253194 -7.0444 -5.34388 -0.000595059 -0.00617855 -0.00776642 
26.982 1 73 32.8504 4.28729 0.0975776 1.17055 0.760785 -2.13545 -0.481948 -0.557169 0.0712665 3.69768 -0.770659 -12.2486 2.71753 -0.890845 -12.3792 0.000329747 -0.00235384 -0.0167439 
26.982 1 75 34.7913 4.05651 2.22599 0.419146 -1.28618 -1.32941 0.123044 0.367312 -0.367424 2.35051 -1.19673 -8.54173 2.56491 -1.2077 -7.53252 0.00409051 -0.000244614 -0.00788172 
26.982 1 234 34.7803 2.09561 4.15005 -1.64569 5.36659 -0.808996 0.125732 0.258235 0.178777 -0.650322 -4.47178 -2.74562 0.467664 -4.4747 -2.4601 0.00387927 -0.00523063 -0.0026212 
26.982 1 273 32.735 4.10429 4.18634 -2.76172 4.32299 -0.769235 -0.234245 0.213241 -0.0280352 0.215543 -1.25147 -1.07931 0.211981 -0.999859 -0.877595 -0.00100777 -0.000203129 -0.00103312 
26.982 1 4 41.1819 2.16386 1.93161 0.293272 -1.85829 -0.622511 -0.310937 0.0402425 0.0599604 -3.60417 -7.27391 -6.39303 -3.28646 -5.60117 -7.42941 -0.00465965 -0.00201907 -0.0139396 
26.982 1 40 36.9319 2.16528 2.06902 1.37197 -2.08264 0.583942 -0.0266212 -0.182914 -0.0872148 2.49225 -5.32099 -10.4314 3.09716 -5.69028 -9.47439 0.00573345 -0.00875163 -0.0109782 
26.982 1 79 38.9303 4.05952 2.02204 1.37894 3.92448 -0.813301 -0.0262113 0.296303 0.212989 -1.79882 -3.36045 -8.5164 -1.04439 -2.70746 -9.60084 0.000157843 -0.00171998 -0.016221 
26.982 1 961 -0.271681 16.354 16.3229 2.7434 1.77356 -2.88414 -0.385297 -0.349853 -0.0518532 -0.98191 -1.10187 -1.78438 -2.70583 -1.64196 -2.58576 -0.00896492 -0.00450257 -0.00615097 
26.982 1 238 39.0417 2.12667 4.16478 1.20964 2.30063 6.12918 -0.317234 -0.000170477 -0.439329 0.820207 -6.26477 -4.7442 -0.127631 -6.18737 -4.80897 -0.00320082 -0.00755908 -0.00817464 
26.982 1 277 36.929 3.98854 4.18369 2.35198 -1.47514 0.965509 -0.16233 0.413587 -0.165683 0.147488 -1.05298 -2.26609 0.30759 -1.2091 -2.22964 0.000590413 -0.000954082 -0.00404778 
26.982 1 631 30.5941 0.246862 14.1566 -3.56876 -0.571856 2.83767 -0.0193643 -0.858023 -0.280735 1.05698 -0.310051 -6.18736 -0.00508498 -4.21745 -5.49537 -0.00345492 -0.0180851 -0.00606633 
26.982 1 48 3.65848 6.1703 2.09444 3.85235 2.85342 -3.09098 0.112448 -0.108536 0.0862399 -2.08679 -0.701661 -5.80449 -2.66664 0.152848 -6.53235 -0.0045409 0.00279466 -0.0110539 
26.982 1 627 26.5299 0.0142115 14.0116 -0.630482 4.0737 -0.955345 0.140019 0.379818 0.281985 -1.70411 -0.338165 -6.59993 -1.41325 -4.23423 -6.4546 -0.00116401 -0.0161453 -0.00789786 
26.982 1 83 1.45757 8.10083 2.21456 1.00905 1.801 -3.23713 0.255905 0.334766 -0.48901 -6.00724 -0.567839 -5.05825 -6.08309 -1.04132 -6.68339 -0.0091088 -0.00219593 -0.0144532 
26.982 1 403 1.53816 0.0412025 10.0462 -0.144504 4.04517 -0.865636 0.134404 0.326347 0.281779 -7.37841 -1.97145 -2.87026 -7.05893 -4.20214 -1.69183 -0.00884777 -0.011748 0.000835296 
26.982 1 242 1.61142 6.26467 4.11564 4.24292 -3.61925 0.658303 -0.00367079 -0.783842 0.143193 -6.09656 1.56638 -3.65197 -6.14275 1.56145 -4.10115 -0.00873787 0.000279092 -0.00625192 
26.982 1 285 3.57817 8.23625 4.07652 1.54277 4.32446 -0.151326 0.143543 0.00825244 0.276086 -1.42748 0.0343239 -1.30203 -1.45098 0.0443977 -1.63911 -0.00148636 -0.000418266 -0.00275441 
26.982 1 46 5.75778 6.0407 -0.0182034 -0.303916 7.25468 -0.00384604 -0.0804925 0.254556 0.485896 -1.64377 0.0982849 -12.5275 -1.2009 1.09241 -12.5308 0.000659091 0.00430893 -0.0160678 
26.982 1 52 7.83763 6.07181 2.11311 -1.80808 -2.85731 -1.23714 -0.616074 -0.170847 -0.0363175 0.485673 0.975553 -4.5176 0.942932 1.28855 -5.52684 0.000876538 0.00282987 -0.0109685 
26.982 1 87 5.55278 8.20299 2.07777 3.73983 -0.517367 -2.43614 0.774131 -0.299079 0.187321 -0.292157 1.59884 -5.97832 -0.36278 1.10958 -6.5547 0.000337536 -0.00156494 -0.0105097 
26.982 1 603 1.41298 0.077099 14.2839 -5.99138 1.92198 2.97398 0.120597 -0.247968 -0.409055 -7.26623 -2.09558 -3.39331 -5.93959 -4.43323 -2.75564 -0.00517731 -0.012295 -0.00359962 
26.982 1 246 5.66816 6.08445 4.27189 -0.22194 -3.07269 -6.42663 0.244007 0.392572 -0.239757 -0.137774 -0.0360557 -0.714576 -0.0826453 0.0112742 -0.903631 0.000758326 0.00131478 -0.00206448 
26.982 1 289 7.81648 8.11873 4.01266 -1.09554 -1.4489 4.95415 -0.664807 -0.101252 0.396637 0.144151 0.169991 -1.09266 0.162705 0.0396519 -1.276 -0.00175509 -0.0010768 -0.00196819 
26.982 1 92 7.8061 10.2088 2.046 0.732 -1.03687 -4.70237 -0.189328 -0.153447 -0.0939335 0.238411 -0.573572 -6.91169 0.106775 -1.02131 -6.61657 -0.000883464 -0.00376607 -0.00890945 
26.982 1 286 5.68508 10.3192 4.03435 1.50703 -1.04872 -3.01632 0.12934 -0.663173 0.232299 -0.135916 0.0335415 -1.29453 -0.186036 0.030873 -1.3168 -0.000348025 -0.00218766 -0.00157094 
26.982 1 1021 20.3491 0.0670022 20.2328 1.58611 2.55291 1.48886 0.0414704 -0.35508 0.0723555 -0.00491333 -2.71034 -0.990993 0.197626 -5.71475 -0.264217 0.00116259 -0.0180003 0.00108906 
26.982 1 56 11.8171 5.9696 2.17907 -0.423536 1.83249 -7.56195 0.0391849 0.22092 -0.398282 -0.463008 2.31237 -5.98176 -1.03932 2.156 -6.45159 -0.00267157 0.00331583 -0.0107078 
26.982 1 91 9.68638 8.04407 2.19342 -4.42031 7.78696 -2.71039 0.657495 0.0176855 -0.491094 1.54631 1.37692 -7.89659 1.03042 0.249877 -8.33417 0.00133121 -0.00293867 -0.0138871 
26.982 1 250 9.79152 5.95327 4.17341 4.15301 3.53478 6.47014 -0.131339 0.332715 -0.0992949 0.155997 0.25141 -0.770892 0.108754 0.252466 -1.05287 -0.000747016 0.000834288 -0.00234059 
26.982 1 293 11.8679 7.93044 4.21989 3.17699 2.00562 1.2921 0.00444598 0.027197 -0.42322 -0.116388 0.172085 -1.59219 -0.193881 0.0669062 -1.5484 -0.000561183 0.000188209 -0.00339375 
26.982 1 54 13.8792 6.21055 0.168377 -4.09579 -4.64968 0.189966 0.0134482 -0.177413 -0.147075 -2.24847 1.99358 -12.6029 -2.47312 1.69066 -12.6073 -0.00428565 0.00140256 -0.0173102 
26.982 1 60 15.9482 6.10427 2.04208 0.712062 2.49366 -1.75693 0.513579 -0.152452 0.0429692 -0.225677 0.41074 -3.64521 -0.303071 0.207332 -3.52207 0.00119651 -0.000452334 -0.0052581 
26.982 1 95 13.9001 8.1327 2.32316 0.260596 -0.29923 0.713154 -0.0714501 -0.135973 -0.491822 -1.99923 2.09078 -7.04684 -2.13475 1.3291 -6.43105 -0.00355709 -0.000413818 -0.00796102 
26.982 1 97 16.0268 8.17768 0.118209 7.79352 -2.33434 -0.129986 0.235266 -0.591935 -0.242363 -0.160797 3.93507 -12.4869 -0.361847 2.61304 -12.5031 -0.000227113 -0.00180745 -0.0170807 
26.982 1 254 14.008 5.95486 4.22346 -2.69658 0.125865 1.9191 -0.272085 0.358615 -0.371855 -0.180104 0.0302108 -0.699352 -0.236787 -0.0199914 -0.697558 -0.000987868 0.00041249 -0.00209405 
26.982 1 297 15.987 7.96778 4.0172 4.67459 2.84163 0.0199934 0.548276 0.329905 0.349317 -0.0275891 0.374519 -0.959073 -0.0484211 0.240426 -0.730779 0.00210293 0.000770253 -0.000376098 
26.982 1 58 18.2959 5.97467 -0.00704811 1.86001 2.70491 -1.13934 -0.78065 0.333199 0.347874 1.63821 2.36066 -12.5372 1.38744 1.60008 -12.554 -0.000455472 0.000557868 -0.0168874 
26.982 1 2639 38.9113 20.2482 14.2661 -0.307973 -1.61529 1.50158 -0.163828 0.072229 -0.246888 2.94527 -4.6434 -6.05884 2.44656 -2.04895 -6.29438 0.00156288 0.00455567 -0.0093381 
26.982 1 64 20.1399 6.0239 2.07225 -0.796295 0.855158 -3.196 0.090892 -0.102928 0.366369 0.7819 2.24314 -5.39261 1.28064 1.61132 -5.30803 0.00281892 0.000455072 -0.00576888 
26.982 1 99 18.087 8.10188 1.97705 -0.990245 -0.499907 2.12919 0.172156 -0.173327 0.603033 1.66574 2.38141 -6.5932 1.30165 1.58219 -5.48388 0.00162425 -0.000650866 -0.00307387 
26.982 1 103 22.207 7.97415 2.24604 3.87908 0.207649 3.01911 0.00482648 0.710645 -0.170486 -0.0964957 2.30001 -9.08348 0.116899 1.59616 -8.5449 0.000474546 0.00144396 -0.00993047 
26.982 1 258 18.2088 6.03768 4.17878 4.6762 -3.1093 -3.30404 -0.24506 0.480534 -0.320951 0.157688 0.235525 -0.438214 0.140526 0.164733 -0.368882 9.93867e-05 0.00194875 -0.00229641 
26.982 1 262 22.2057 6.07593 4.16149 -1.2174 3.15391 -3.50867 -0.115247 -0.0743956 0.0701458 -0.0166641 0.420463 -0.99262 0.058189 0.353883 -1.09766 -1.89365e-05 0.000131144 -0.0021226 
26.982 1 301 20.254 8.14678 4.32292 -2.44505 -7.30446 2.90956 -0.346084 0.167572 -0.357237 0.181922 0.333842 -1.63264 0.243759 0.213977 -1.34399 -0.00105025 0.000837832 -0.00239593 
26.982 1 298 18.1237 10.2679 4.21755 3.86123 -5.61407 -0.248142 0.135691 -0.773491 0.0464977 0.164585 0.251277 -1.92142 0.167585 0.217576 -1.4155 0.000733605 -0.00190377 -0.000659682 
26.982 1 2637 36.8312 20.31 12.1402 2.92622 2.32184 2.78515 -0.065161 -0.377271 0.0253439 -2.37836 -5.52046 -7.2265 -2.60203 -2.0708 -7.58289 -0.00407123 0.00573861 -0.0112392 
26.982 1 68 24.3496 6.14489 2.19753 -2.2067 2.37977 -2.68745 0.118073 -0.133352 -0.00966127 -0.0693092 2.12553 -5.9804 0.0631929 1.49517 -6.48889 0.000791409 0.000144847 -0.0102975 
26.982 1 107 26.5823 8.13833 2.12785 -0.822626 -4.20973 -2.63136 -0.521105 0.526752 0.211151 -0.038659 0.0100157 -7.48444 0.377589 -0.611523 -7.50872 0.000634513 -0.00158631 -0.00960522 
26.982 1 266 26.3894 6.08754 4.16202 -2.16335 2.11824 0.6584 0.203292 0.288913 0.130037 0.0538555 0.27215 -0.942309 0.0412593 0.180553 -1.1793 0.000466165 0.000894589 -0.00180775 
26.982 1 305 24.3394 8.19538 4.05635 -0.744837 2.45506 -5.93933 0.22822 0.068686 0.391209 -0.152947 0.271043 -1.71275 -0.117101 0.1681 -1.62446 0.000882886 0.00080282 -0.0013439 
26.982 1 106 26.4333 10.1235 -0.0454713 -0.367003 -2.26552 1.50478 0.40186 -0.374755 0.710528 -2.55989 -0.980514 -12.5166 -2.00487 -0.98203 -12.5335 -0.00151437 -0.00169287 -0.0165638 
26.982 1 108 24.3258 10.111 2.01012 1.51683 2.31277 -0.647598 0.322198 0.00283082 0.455488 -2.29936 0.703563 -9.38236 -2.12363 0.878742 -8.78128 -0.002191 0.00145187 -0.00981058 
26.982 1 306 26.4081 10.1448 4.21994 1.23205 -5.41575 4.17491 -0.0124293 -0.0773869 -0.443122 -0.227437 -0.042971 -1.27545 -0.206637 -0.108309 -1.17561 -0.000901914 -0.000931121 -0.00219332 
26.982 1 70 30.7042 6.26622 0.00113444 -2.56437 6.37123 -1.63231 -0.484206 -0.452249 0.299521 0.067753 3.4635 -12.5349 -0.979031 2.95446 -12.5573 -0.00524238 0.00029589 -0.016682 
26.982 1 72 28.5986 6.37733 2.02716 -3.21778 -2.22168 -3.48276 0.139661 -1.24525 0.379923 -0.495616 2.22839 -5.76427 -1.09229 2.08344 -6.27838 -0.00283466 -0.000729749 -0.00988675 
26.982 1 111 30.586 8.29962 2.08699 4.0619 -2.46626 -2.3352 0.164951 0.0890619 -0.1359 -0.277944 -0.0387085 -6.7526 -0.914904 0.0176624 -6.29609 -0.00274935 0.000113776 -0.0073537 
26.982 1 270 30.6954 6.19428 4.16763 0.173172 4.59755 2.4995 -0.00123919 -0.222492 -0.200673 0.0987687 0.23765 -0.838424 -0.0449694 0.252745 -0.749007 -0.00038017 -0.000988324 -0.00170342 
26.982 1 309 28.6331 8.02506 4.15082 1.86961 -0.32623 -2.73278 -0.337085 0.751422 0.0859608 -0.00271066 0.0343313 -1.3006 -0.0598672 -0.0562877 -1.33818 -0.00143357 0.00116785 -0.00150963 
26.982 1 112 28.5194 10.308 2.05064 0.199289 -2.38213 3.93508 0.138312 -0.378666 0.127779 -0.369614 -1.86671 -5.62775 -0.237719 -1.87905 -5.65807 -0.000167706 -0.00312189 -0.00670276 
26.982 1 76 32.6647 6.25157 2.04763 -2.52556 -0.12446 3.01987 0.25573 -0.121773 0.156915 1.65456 1.28674 -6.48785 1.11358 0.883858 -5.44014 0.00071453 -0.000559453 -0.00430592 
26.982 1 115 34.8325 8.29588 2.11598 -2.47329 -1.38861 -2.08461 -0.533167 -0.0377947 -0.347024 -0.927969 -1.46952 -6.52841 -0.433884 -0.979818 -5.57859 -0.00073599 -0.000275649 -0.00600156 
26.982 1 274 34.8393 6.205 4.15745 0.27825 -3.54466 -0.511583 -0.184389 0.00240919 -0.625498 0.165945 -0.199495 -1.51179 0.216772 -0.206157 -1.21173 0.000117309 -0.000340297 -0.00307598 
26.982 1 313 32.6873 8.16783 3.95414 -0.479765 2.82188 -2.33795 0.196476 0.477768 0.421315 0.0347312 -0.0567683 -1.21685 -0.0208313 0.0182199 -0.948473 0.000275626 0.0012958 -0.000585563 
26.982 1 114 34.867 10.3098 0.124512 -4.07291 3.72599 2.43502 -0.105731 -0.276843 -0.0982701 0.37316 0.768616 -12.538 -0.16369 1.48646 -12.5416 -0.00219751 0.00249658 -0.0173784 
26.982 1 116 32.6562 10.4036 2.03237 -2.56176 1.03541 4.04685 0.573832 -0.984296 0.0311633 0.224574 -0.920325 -5.61651 0.0473444 0.264608 -5.59711 0.00117508 0.000831891 -0.00810627 
26.982 1 44 40.8773 6.17557 1.92507 1.08933 -1.04656 3.01727 0.314369 -0.0462937 0.324385 2.73272 -6.72314 -5.10616 2.80542 -6.17223 -6.73181 0.0046034 -0.00673757 -0.0140101 
26.982 1 281 40.875 7.88437 4.14209 1.57691 -7.16287 3.08753 -0.127032 0.839095 0.0153603 0.38827 -1.1861 -1.60386 0.417617 -1.25693 -2.0398 -0.000323908 -0.00033286 -0.00324021 
26.982 1 2631 30.4687 20.3116 14.2345 6.01123 0.855278 -3.26013 0.616297 0.174061 -0.00406256 -2.41257 -3.41165 -6.45693 -1.65069 -1.03429 -6.85819 0.000979746 0.00630012 -0.0114246 
26.982 1 80 36.7719 6.24096 1.97655 -4.30118 -0.843926 -0.880991 0.104372 -0.297426 0.481185 -0.338662 -2.54603 -7.63395 0.873405 -2.48616 -7.63826 0.00444923 -0.00471213 -0.00991304 
26.982 1 117 36.9925 8.2773 0.155289 -2.15604 0.26246 2.08517 -0.658135 -0.00272362 -0.177174 0.857841 -0.215501 -12.4759 2.27534 -0.429605 -12.5189 0.00570799 -0.00114535 -0.0182736 
26.982 1 119 38.9555 8.25692 1.97659 0.147056 0.903634 0.882214 0.163675 -0.0268673 0.482339 1.0319 0.961663 -6.79362 1.74227 0.351816 -7.82318 0.00516319 -0.000505428 -0.0126241 
26.982 1 278 38.8495 6.13984 3.92321 1.50873 2.52792 0.311945 -0.291048 -0.0302221 0.541481 2.51185 -2.70351 -1.65774 2.61305 -2.66491 -1.99154 0.00311194 -0.00321105 -0.00216198 
26.982 1 317 36.8056 8.25463 3.9663 3.67655 -2.90257 1.18249 0.30094 -0.309869 0.564917 0.103311 -0.22521 -1.13518 0.27052 -0.243327 -1.1026 0.00218686 -0.001407 -0.000346358 
26.982 1 120 36.8421 10.3041 2.16914 -5.60956 0.993386 0.529132 0.148619 -0.0751943 -0.301819 2.14537 1.47051 -7.34789 2.20954 1.04796 -6.81063 0.00323711 -0.00020171 -0.00749531 
26.982 1 318 38.8206 10.0964 4.27263 -0.832356 -0.673476 1.9532 0.389534 0.23931 -0.399133 0.834774 -0.242731 -2.23847 0.86473 -0.291576 -2.19268 0.00253345 -0.000492557 -0.0031782 
26.982 1 88 3.6956 10.2223 2.22428 -0.63043 2.20215 2.1802 -0.277625 0.288776 -0.528903 -2.32087 0.0413423 -7.67967 -2.5653 -0.0182584 -8.47119 -0.00460645 -0.00011102 -0.0143556 
26.982 1 2611 9.98971 20.266 14.3359 5.65591 0.0692634 -0.134511 -0.466188 -0.0966119 -0.649101 -3.04756 -5.84379 -2.50052 -2.80514 -1.99679 -2.89148 -0.00577353 0.00717571 -0.00631806 
26.982 1 123 1.64048 12.1824 2.21947 -1.09214 2.15939 1.49526 0.256986 0.224428 -0.507805 -6.24293 -3.8201 -6.7982 -4.60885 -2.86266 -8.46819 -0.00122473 -0.000679129 -0.0170986 
26.982 1 2609 7.86729 20.2938 12.1762 -4.45049 4.16909 -2.33026 -0.08255 0.36363 -0.0588546 -2.59328 -4.3556 -5.02222 -2.76845 -1.99864 -5.43603 -0.004436 0.00484926 -0.00901453 
26.982 1 128 3.82463 14.2232 1.90269 -0.0932254 -4.96019 4.84109 -0.21301 -0.0232806 0.0812356 -1.78122 -0.371698 -5.64977 -1.25674 -0.138881 -7.78442 -0.000784929 0.00105675 -0.0169914 
26.982 1 282 1.57659 10.2961 4.08441 2.60472 4.15127 1.99866 0.300816 -0.465954 0.503915 -7.23047 -0.792776 -3.92754 -6.16229 -1.31376 -3.68134 -0.00417481 -0.00421777 -0.00338617 
26.982 1 322 1.74173 14.1191 4.02807 -6.39785 -4.44845 2.99352 -0.185366 0.737141 0.129092 -5.25797 -1.99342 -3.49708 -3.99898 -1.45059 -3.28019 -0.00192038 0.00222173 -0.00441387 
26.982 1 325 3.75308 12.3135 4.30221 4.52493 -1.41251 0.325323 -0.339951 -0.550658 -0.408564 -1.31328 -0.480881 -1.40903 -1.03684 -0.295732 -1.77619 -0.00124428 -0.000485368 -0.00350031 
26.982 1 207 5.6861 0.0112416 6.09799 -8.23031 2.15056 -3.06548 -0.00538465 0.211313 -0.125907 1.48991 -0.401771 -4.80864 1.03217 -4.25435 -3.85961 -0.000102919 -0.0160089 -0.00312495 
26.982 1 127 5.74153 12.2254 2.0293 -2.45348 -7.95828 -3.83396 -0.330594 -0.200234 -0.291795 -0.630826 -1.26206 -5.98406 -1.21795 -0.091578 -6.72261 -0.00420845 0.00281592 -0.0123588 
26.982 1 129 7.74624 12.1015 0.0038371 -1.22276 -0.378314 2.1373 0.242881 0.0127191 -0.118789 -0.0524377 -2.19558 -12.5014 -0.311065 -0.106277 -12.5231 -0.0013732 0.00530656 -0.0180469 
26.982 1 132 7.81276 14.0115 2.08407 0.335864 0.59063 -4.81431 0.21686 0.546825 -0.23221 -0.0758775 0.161002 -4.82403 -0.196344 0.976733 -6.45817 -0.00019756 0.00565597 -0.0127133 
26.982 1 326 5.64333 14.133 4.15994 -2.12599 -0.612894 1.75005 0.553112 0.56259 -0.257791 -0.0707587 -0.0583566 -0.728641 -0.119453 0.0675805 -1.28328 0.000612845 0.00318883 -0.00386649 
26.982 1 329 7.73172 12.1205 4.01566 1.93553 -2.71076 -5.07143 0.833263 0.112302 0.115558 -0.0220247 -0.167218 -0.875676 -0.0814818 -0.0196761 -0.993118 0.00188228 0.00102908 -0.00113178 
26.982 1 96 11.8869 10.079 2.14274 0.946143 -3.62482 3.43413 0.370427 0.0496931 0.0603813 0.208409 -1.80837 -8.47034 -0.088141 -1.97503 -7.49321 -0.00015239 -0.00418394 -0.00850352 
26.982 1 407 5.68669 0.135318 10.1823 3.62025 1.7388 3.14727 -0.220869 -0.250836 0.0607292 2.36511 -0.335575 -4.04871 2.55589 -4.23364 -2.28251 0.00369257 -0.0168481 0.00214042 
26.982 1 131 9.96929 12.2011 1.89775 0.33107 -3.99604 -1.50744 -0.236992 -0.257659 0.401328 0.275572 -1.40598 -5.67968 0.0910848 -0.200929 -5.75929 -0.001017 0.0037033 -0.00857369 
26.982 1 133 12.0745 12.0237 0.0720101 2.98252 3.72201 -2.90164 -0.0355361 0.185793 -0.222653 1.65587 -1.73584 -12.5371 0.311465 -0.481352 -12.5575 -0.00232625 0.00274242 -0.0184906 
26.982 1 136 12.0342 14.0952 1.95365 -0.36143 1.86218 -2.30261 0.209761 -0.0869959 0.201541 1.39084 0.319758 -6.03806 0.194691 1.07542 -6.51702 -0.00285831 0.00417315 -0.0107156 
26.982 1 290 9.92186 10.1085 3.9416 2.73272 2.03531 5.30936 -0.427686 0.215582 0.540363 0.10684 -0.12242 -1.51408 0.0828626 -0.196726 -1.37003 -0.000838169 0.000316381 -0.000877129 
26.982 1 330 10.0551 13.9972 3.9398 2.87951 1.36512 -2.33032 -0.409579 0.49873 0.278079 0.0607867 -0.000560584 -0.708508 -0.00499166 0.112622 -1.08272 -0.00109284 0.00218737 -0.00163001 
26.982 1 333 11.9799 12.0267 4.06581 1.59906 -2.31429 2.68917 0.182162 0.293993 -0.149676 0.187109 -0.150322 -1.19623 0.0693331 -0.0618527 -1.0568 0.000427838 0.00126114 -0.000916655 
26.982 1 100 16.0753 10.1916 2.2004 -4.50638 -3.81946 2.12461 0.339541 -0.411102 0.0864711 0.206164 2.02678 -8.28843 0.0814715 1.40152 -6.64024 0.00110616 -0.000970925 -0.00387074 
26.982 1 135 14.0767 11.9531 1.95012 -1.35334 5.00057 2.41517 -0.167412 0.743925 0.533965 1.58069 -0.270369 -8.27124 0.965105 -0.0525728 -6.71169 -0.000716321 0.00224997 -0.00425839 
26.982 1 140 16.4097 14.1042 2.06831 -1.72305 -2.94622 -0.144136 -0.755859 0.453772 0.190355 0.865541 -1.65693 -8.80236 1.2125 -0.937455 -7.69843 0.0018134 0.0019492 -0.00723243 
26.982 1 294 14.1235 10.1751 4.16902 -3.56873 -2.90826 3.76432 -0.295079 -0.139125 -0.22661 -0.042047 0.162816 -1.68359 -0.100979 0.0683709 -1.25532 -0.000354942 -0.000142236 -0.000972454 
26.982 1 334 14.0539 14.1494 3.87006 -3.84457 -4.18985 -2.52068 0.356242 -0.475561 0.657414 0.153187 0.0119379 -1.53131 0.0516719 0.0848276 -1.32791 0.000629523 -0.000673362 -0.000266977 
26.982 1 337 16.1657 12.2518 4.26504 -1.18047 -0.55113 -0.986133 -0.273585 -0.115403 -0.206589 0.13156 0.113926 -1.94459 0.136077 0.127683 -1.45166 -0.000543048 0.000491896 -0.000568198 
26.982 1 104 20.2249 10.1119 2.15795 5.14983 5.17613 1.08788 0.11522 -0.0817144 0.12546 0.824079 0.711472 -10.3861 1.3704 0.559757 -8.75098 0.00333477 -0.000501233 -0.00677532 
26.982 1 139 18.2032 12.1396 2.23463 4.53379 1.17785 3.68477 0.394575 -0.157424 -0.0471509 0.392884 0.55853 -10.4744 0.447558 1.15666 -8.7836 0.00219798 0.00244968 -0.00684811 
26.982 1 143 22.4408 12.1902 2.07308 -1.0441 0.283846 -1.97433 -0.319977 -0.210359 0.161489 0.0980878 -0.28602 -11.1234 0.598611 -0.753048 -9.88716 0.00145357 -0.00343176 -0.00931888 
26.982 1 144 20.2567 13.9889 2.14183 3.01351 -3.3607 1.5822 -0.137132 0.419915 -0.017923 -0.00203941 0.106915 -11.0622 -0.460198 0.713537 -9.92803 -0.00238086 0.00355911 -0.00935661 