ITEM: TIMESTEP
5000
ITEM: NUMBER OF ATOMS
4000
ITEM: BOX BOUNDS pp pp pp
-1.09041 41.5904
0.271592 40.2284
0.270357 40.2296
ITEM: ATOMS mass type id x y z vx vy vz fx fy fz xrad yrad zrad vxrad vyrad vzrad fxrad fyrad fzrad 
26.982 1 3 1.06485 0.457026 2.32531 3.14636 -1.98593 -3.7996 -0.138209 -0.921645 0.137545 -19.4975 -48.8621 -26.2519 -8.15386 -20.2364 -11.9901 -0.00433287 -0.00914588 -0.0131349 
26.982 1 8 2.95233 2.31467 2.41169 -2.37869 0.0168321 4.65644 0.603796 0.232885 -0.149422 4.06298 -43.4003 -36.8468 2.46255 -17.3483 -15.6994 0.00114582 -0.00496847 -0.0160326 
26.982 1 43 0.936372 4.40923 2.32817 0.189486 7.50444 -3.39216 0.572452 -0.135442 0.320299 -23.8623 -20.7596 -45.3126 -11.0336 -7.99236 -15.9813 -0.0075947 -0.00751722 -0.0101531 
26.982 1 202 1.02961 2.21878 4.41975 -2.02509 -1.08523 4.23587 0.148919 0.197671 -0.0114323 -21.6283 -33.723 -28.0907 -10.4863 -11.0404 -10.7053 -0.00694478 -0.000388521 -0.00713585 
26.982 1 205 3.29785 0.314267 4.42707 -3.07609 -1.43423 1.35534 -0.147369 -0.271055 -0.186149 -2.46846 -9.97827 -14.6631 0.63624 -8.94002 -9.49471 0.00144273 -0.0117448 -0.0109888 
26.982 1 201 -0.989636 0.220311 4.43715 3.12424 -0.819382 -6.82976 0.0589706 -0.161657 -0.187577 -9.81903 -26.4571 -30.2295 -3.86679 -10.8487 -12.452 -0.00759489 -0.00387078 -0.0146612 
26.982 1 245 3.09073 4.30234 4.28756 -0.986092 0.062954 -0.807542 0.0791359 0.258531 0.144931 -2.98368 -10.0505 -10.4019 -1.36231 -3.58252 -3.86892 -0.00116265 -0.000339945 -0.00339259 
26.982 1 47 5.27938 4.2733 2.27612 -0.343739 -0.133087 0.318581 -0.283648 0.357583 -0.0683543 -5.12157 -16.1498 -36.2872 -0.421619 -6.85181 -14.8964 -0.00453794 -0.000716752 -0.0128177 
26.982 1 206 5.27226 2.38283 4.19727 -1.92652 0.654757 -4.13997 -0.130417 -0.411948 0.203477 -5.33506 -43.1921 -25.1614 0.216008 -17.2521 -10.3815 -0.00134396 -0.00633567 -0.00588484 
26.982 1 49 7.32403 4.26976 0.297324 -1.52677 4.25485 -3.1509 -0.0165725 -0.129154 -0.130354 -1.00311 -8.87663 -59.8633 -0.338849 -4.49126 -19.9505 -0.00635915 1.66816e-05 -0.0174773 
26.982 1 12 7.22018 2.20803 2.11178 -4.88783 -1.61599 2.69223 0.33677 0.109827 0.289559 -6.16937 -52.756 -33.1885 -2.61642 -21.5991 -14.2866 -0.00611867 -0.00644497 -0.00706474 
26.982 1 249 7.33785 4.32665 4.10818 6.10567 3.63248 4.20346 0.15833 0.31141 0.279617 -0.789187 -8.10197 -7.29428 -0.233415 -3.72961 -3.28879 0.000371765 0.00119069 -0.000862409 
26.982 1 51 9.47605 4.20381 2.04803 0.343201 -1.94238 -1.83072 0.0788279 0.431018 0.336237 -0.00706874 -7.65867 -31.8163 -0.260644 -4.20106 -13.8768 0.00439679 -0.000281038 -0.00709572 
26.982 1 210 9.40509 2.53448 4.2467 0.726642 -5.24997 2.69757 0.351693 -0.402201 -0.195114 -0.243426 -36.7244 -23.3551 -0.987637 -15.3473 -9.06758 0.00346027 -0.00577801 -0.00270582 
26.982 1 11 9.48351 0.289989 2.11728 -3.42238 -5.61777 -3.08597 0.0659894 -0.195381 0.624451 1.34131 -4.23861 -38.2579 0.399004 -5.52079 -15.0008 0.00605895 -0.0153054 -0.00325523 
26.982 1 10 9.29021 2.15166 0.257227 -2.13613 -2.1385 2.21612 0.651763 0.248473 -0.407861 -0.974535 -35.91 -55.2873 -1.13953 -13.4181 -21.6235 0.00627096 -0.00242842 -0.0167094 
26.982 1 9 7.37355 0.251047 0.100019 0.034708 0.77488 -0.211684 -0.351626 -0.289903 0.276821 -1.15564 -25.1766 -30.4251 -1.25122 -6.26068 -16.6777 -0.00604052 -0.00981002 -0.00955769 
26.982 1 209 7.35478 0.306041 4.11707 0.150521 -1.48816 0.193261 0.321236 0.0586543 0.0816642 -2.2374 -36.5927 -38.2176 -0.692339 -9.97626 -11.2838 -0.00178349 -0.0121549 -0.00873482 
26.982 1 16 11.4982 2.19983 2.11303 1.44632 -0.128813 -1.54424 0.2659 0.231293 0.586688 7.78847 -49.2132 -35.5965 2.62917 -18.6132 -15.4295 0.00914824 -0.00807866 -0.00888093 
26.982 1 253 11.7613 4.34107 4.12303 -0.469131 0.142472 2.75076 -0.327521 -0.15848 0.388814 0.834842 -7.38505 -7.68739 0.317459 -3.14188 -3.45484 0.000173606 -0.00320371 -0.0027591 
26.982 1 55 13.7158 4.4006 2.28512 -2.67296 -3.0299 -1.33566 0.45389 -0.380559 0.308763 -0.76675 -15.7502 -38.2587 -0.0784524 -5.72698 -17.1771 0.0010363 -0.00398277 -0.0161472 
26.982 1 214 13.891 2.31051 4.3019 1.21952 -0.850817 1.84388 -0.187179 0.0739239 -0.456712 5.27457 -40.6449 -23.7144 1.83209 -15.8346 -9.23995 -0.000679684 -0.0110997 -0.0102126 
26.982 1 20 15.9971 2.51698 2.27752 -3.01492 -0.962625 3.60124 -0.305662 -0.274565 -0.0134834 -14.7311 -50.9648 -30.2395 -5.16414 -19.6586 -13.3281 -0.00370715 -0.0112134 -0.0127179 
26.982 1 257 15.9105 4.42404 4.37139 0.265095 3.28069 -0.1052 0.0660734 -0.470484 -0.506412 -1.01802 -9.59227 -6.50008 -0.380815 -3.71762 -3.16917 -0.000262577 -0.00254642 -0.00571423 
26.982 1 218 17.9135 2.40457 4.41202 -2.88431 0.601722 -0.0596342 0.463337 -0.136124 -0.174511 -4.07641 -38.9767 -14.9689 -1.64158 -15.4808 -6.49872 -0.00216096 -0.00863245 -0.00762631 
26.982 1 18 18.4118 2.27291 0.261608 0.0719865 -0.712888 -1.41999 -0.53959 0.189036 -0.0541852 -4.26459 -30.0733 -65.6484 -1.41162 -11.7111 -26.3772 -0.00111504 -0.00440854 -0.0126075 
26.982 1 59 18.1733 4.10935 2.34101 -4.61296 -4.45845 -1.63688 0.268048 0.406305 -0.183583 1.0191 -6.41454 -28.1881 0.223799 -2.5282 -12.7991 0.00037102 0.000561889 -0.0138206 
26.982 1 261 20.3262 4.33696 4.34487 3.38295 -2.99802 2.87261 -0.262044 -0.158457 -0.174206 0.305317 -6.83442 -6.30454 0.135845 -2.85684 -2.94195 -0.000797716 -0.000482736 -0.00437464 
26.982 1 221 20.0966 0.380081 4.24322 -2.43008 5.65818 -0.629964 0.286783 -0.327705 0.18656 -6.67581 -23.4831 -22.358 -2.25643 -9.97836 -10.3353 -0.00469458 -0.0122349 -0.010225 
26.982 1 24 20.4256 2.1249 2.36894 -0.320431 -0.847273 0.0282534 -0.711729 0.619091 -0.665202 3.12981 -40.9631 -24.1816 1.48252 -16.0736 -11.6287 -0.00284232 -0.00455764 -0.0142157 
26.982 1 63 22.2 4.23677 2.26542 -2.61955 -0.711571 4.15944 0.396361 0.37286 0.245781 0.556925 -1.70226 -35.9038 0.470266 -1.9731 -15.883 0.00080008 0.000746475 -0.0170015 
26.982 1 222 22.3894 2.25216 4.14732 2.67105 -2.76781 4.91639 0.263199 0.0137266 0.470742 -5.33492 -32.4835 -17.2373 -1.1888 -13.2402 -7.32956 0.00130346 -0.00275003 -0.00450935 
26.982 1 23 22.29 0.129438 2.15992 -0.543778 -1.48155 -0.849396 0.558718 0.298436 0.0426438 -3.93063 -24.1532 -33.4653 -0.44439 -11.6232 -14.9357 0.0011532 -0.0122399 -0.012593 
26.982 1 28 24.361 2.27344 2.23277 5.37861 2.48279 -5.21449 0.438629 -0.458633 0.302861 -4.87767 -28.1437 -31.4676 -1.58904 -12.3137 -15.0412 0.00452805 -0.00543634 -0.0161975 
26.982 1 265 24.5787 4.29659 4.28541 0.60778 1.18268 -0.34608 -0.070861 -0.13373 -0.0635348 -0.269414 -4.04112 -7.28258 -0.0330397 -2.03245 -3.51973 0.000735358 -0.0011007 -0.00487389 
26.982 1 67 26.6122 4.22072 2.27624 5.51024 -0.967044 1.50532 0.221425 -0.00992584 0.319919 1.04917 -0.339246 -40.3346 1.10551 -0.489963 -19.0243 0.000180459 -0.00223175 -0.0168049 
26.982 1 226 26.7727 2.37159 4.30238 0.707532 -2.03344 4.82031 -0.303763 -0.393207 0.00407753 5.49469 -25.8261 -11.0748 0.335102 -9.89194 -5.33893 0.0015037 -0.00907164 -0.00761558 
26.982 1 32 28.7778 2.15334 2.30139 -1.15002 3.20224 -2.86246 0.216252 0.278947 0.0500735 1.03465 -35.9062 -31.5332 -0.46523 -11.1174 -16.5274 -0.00254799 -0.0106966 -0.0111563 
26.982 1 269 28.8599 4.30148 4.35596 2.90307 -1.39905 -0.970943 0.00879986 0.119521 -0.239205 -0.437959 -5.15762 -7.24732 -0.204491 -1.50284 -4.03692 -0.000390024 -0.00168498 -0.00443755 
26.982 1 225 24.4967 0.167588 4.29294 1.74184 -2.82944 0.428764 -0.103414 0.526871 -0.467751 -4.02403 -43.4497 -29.3637 -1.27084 -14.3457 -11.3145 0.00421457 -0.00979485 -0.0127378 
26.982 1 71 30.9725 4.16979 2.38339 7.00769 0.103411 -1.07462 -0.181264 0.193279 -0.280049 -2.8176 -2.90342 -31.1657 -1.30203 0.0851037 -17.0592 -0.00106759 0.000969483 -0.0140202 
26.982 1 230 30.9511 2.30217 4.32609 -5.0019 1.48634 0.943368 0.152964 -0.591924 -0.193717 -4.17456 -32.1467 -13.6844 -1.53124 -10.0018 -5.58253 -0.00216788 -0.00879335 -0.00676298 
26.982 1 233 33.3546 0.260588 4.25199 -3.64719 5.61498 2.45748 -0.619765 -0.00640972 -0.0225166 0.749659 -35.9742 -20.7191 -0.0231579 -17.7345 -10.0384 -0.00252487 -0.0108945 -0.0102944 
26.982 1 30 30.8326 2.32669 0.155026 5.67347 3.98372 4.15621 0.23691 -0.130126 0.383523 -3.61778 -30.2718 -65.8399 -2.0713 -8.15244 -23.5864 -0.000705133 -0.00381633 -0.0119556 
26.982 1 273 33.2141 4.24334 4.19632 6.06775 4.05337 0.481949 -0.18191 -0.0981173 0.250601 0.822114 -4.13556 -6.49173 0.0919854 -0.853736 -3.45148 -0.00056155 -0.00115359 -0.003403 
26.982 1 36 32.9971 2.1478 2.30275 1.11076 -1.55761 -1.09562 0.248348 0.275511 -0.0189307 0.462481 -32.8843 -33.0499 -0.743363 -9.62594 -15.3154 -0.000203868 -0.0066975 -0.01382 
26.982 1 35 35.3731 0.26453 2.36847 -4.07694 -2.07637 -0.0210957 0.100127 0.288115 -0.351983 5.68162 -64.6066 -36.0962 2.93194 -26.555 -14.4716 0.00330398 -0.0113642 -0.0108852 
26.982 1 75 35.3436 4.29197 2.26442 -3.33547 3.0973 0.591314 -0.236442 -0.199828 0.0807161 12.2532 -3.23548 -46.9863 2.44828 0.219949 -19.0624 -0.00308185 -0.00581017 -0.0105666 
26.982 1 234 35.3651 2.42192 4.36743 0.306154 1.17353 4.63487 -0.0164688 -0.438147 -0.193193 1.80354 -22.7692 -13.566 1.06966 -7.86566 -5.12345 0.00235211 -0.00629825 -0.0047384 
26.982 1 277 37.4515 4.37539 4.37146 -0.464684 0.149163 0.692674 -0.229604 -0.372765 -0.0493837 1.37884 -5.59182 -12.6291 0.46153 -1.90289 -4.57739 -0.000121048 -0.00310123 -0.00217769 
26.982 1 77 37.4349 4.3015 0.296396 3.57093 -0.80829 2.4726 -0.00804364 -0.268712 -0.353268 -0.378156 -1.84952 -3.97017 -1.0595 -0.972393 -6.62261 0.00226019 -0.00526122 -0.0173024 
26.982 1 40 37.4266 2.25081 2.35974 1.0317 -3.2586 -1.25584 0.110772 -0.0314941 -0.149928 17.0844 -29.6538 -54.8042 6.45501 -11.9264 -20.3142 0.00305086 -0.0119812 -0.00962858 
26.982 1 41 41.629 4.24947 0.57159 -2.44484 -2.46237 3.88034 -0.313473 0.190365 -0.987302 -12.6368 -20.2728 -34.9055 -6.16217 -8.48974 -14.6902 -0.00264089 -0.00352223 -0.0192742 
26.982 1 241 41.7045 4.34296 4.4835 0.832117 1.86021 3.46863 -0.0522538 0.00574526 -0.149201 -29.5261 -31.676 -35.0338 -8.56953 -9.70249 -11.1162 -0.000413694 -0.000691923 -0.00193096 
26.982 1 4 41.6854 2.32653 2.3936 -1.1871 5.07941 -0.551563 0.0140375 -0.129616 0.0813227 -20.9686 -36.2623 -41.6883 -9.07969 -14.6909 -15.0849 -0.00365885 -0.0103543 -0.0129321 
26.982 1 79 39.4285 4.20628 2.35864 -0.0456131 1.08927 -1.79684 0.0960071 0.00857545 -0.0528203 -6.39018 -15.6468 -53.212 -1.71755 -5.68198 -19.6048 -0.000162783 -0.00320336 -0.0104519 
26.982 1 238 39.8295 2.32513 4.44937 -0.563095 -0.41633 -1.49069 -0.752154 -0.245441 -0.160894 0.867421 -33.7155 -26.9942 0.589712 -12.9093 -10.0602 -0.00466478 -0.00893352 -0.00695405 
26.982 1 83 1.101 8.13424 2.33768 5.24831 0.00478063 5.71933 -0.180977 0.289187 -0.0303563 -33.0216 -7.31693 -44.2863 -12.5796 -3.81173 -16.7348 -0.00850519 -0.000572953 -0.00553166 
26.982 1 242 1.07043 6.41366 4.43328 2.99576 1.0062 1.26226 0.153676 -0.481103 -0.0218818 -33.5793 3.68964 -23.2797 -13.3712 -0.698693 -8.68149 -0.00811245 -0.00181448 -0.00278274 
26.982 1 285 3.11062 8.32588 4.42079 1.16199 -3.29514 2.60415 0.195902 -0.0559971 -0.320702 -6.98796 -0.347259 -9.34622 -2.26755 -0.321143 -3.13291 -0.000438825 -0.000492981 -0.00175925 
26.982 1 42 1.12211 6.20545 0.172851 6.08813 -1.62534 -1.16269 -0.174342 -0.158528 0.81338 -27.4183 -8.63362 -40.245 -12.0102 -2.9254 -17.766 -0.00515749 -0.004604 -0.0149645 
26.982 1 48 3.13946 6.26138 2.27085 -1.54345 6.45776 0.748992 0.0808374 -0.0595668 0.179452 -14.8365 -0.85081 -41.2085 -5.11798 -0.533009 -15.1222 0.00150769 -0.00409857 -0.00947409 
26.982 1 85 3.171 8.21809 0.160785 5.52056 -1.48107 -3.322 0.169255 0.2343 0.434292 -3.99716 6.68745 -40.6847 -1.4916 1.2148 -18.865 0.0017666 -0.00267331 -0.0167062 
26.982 1 44 -1.18682 6.18256 2.44457 2.88297 6.08023 2.66132 0.180409 0.30573 0.0320789 5.33954 -32.5097 -44.8965 1.26768 -11.8415 -18.1865 -0.013976 -0.00189916 -0.00486631 
26.982 1 87 5.0779 8.27974 2.24109 4.31314 -3.64002 -0.711821 0.398887 0.204529 0.224596 -1.71337 4.61194 -38.5292 -0.422144 0.81499 -13.8513 0.00100631 -0.00233849 -0.00728677 
26.982 1 246 5.2399 6.39386 4.4047 -6.63081 2.65402 -1.1815 -0.0680847 -0.342067 -0.480344 -0.53822 -0.261629 -5.6445 -0.114188 -0.218104 -2.13523 3.7169e-05 -0.000946949 -0.00327947 
26.982 1 52 7.41248 6.41423 2.19525 -1.7751 -2.57386 -0.78104 -0.146808 -0.377995 0.648916 3.63122 4.23826 -34.9648 0.944846 0.101138 -13.9443 -0.00322776 -0.000846213 -0.00553219 
26.982 1 289 7.33296 8.38369 4.29045 -1.88067 -3.42179 2.16382 0.189789 -0.353638 0.053875 0.863401 0.437701 -7.44494 0.263974 0.101607 -2.50515 0.000552811 -0.00150668 -0.001051 
26.982 1 89 7.43111 8.2615 0.328241 3.35351 2.36629 2.02928 -0.153045 0.363104 -0.116341 2.07984 9.59266 -41.1369 0.620398 2.20668 -19.0315 -0.000869791 0.00282505 -0.016757 
26.982 1 286 5.26151 10.4122 4.35974 3.81309 -1.06237 0.037329 -0.197432 -0.482719 -0.367604 -0.578389 -0.0208591 -6.96787 -0.0967906 0.0845353 -2.23647 -0.000377668 -0.00176913 -0.00204696 
26.982 1 88 3.07048 10.3969 2.32119 0.264965 -4.18149 -3.10596 0.109897 -0.425632 0.207858 -14.114 -2.7498 -46.4379 -4.72716 -0.86517 -15.9048 -0.0020924 -0.000783905 -0.00489986 
26.982 1 92 7.33878 10.3149 2.39899 -4.36709 3.10415 1.60691 0.110683 -0.209303 -0.273369 3.68405 -4.19658 -41.1798 1.63496 -0.467784 -15.1228 0.00294054 0.00162341 -0.010705 
26.982 1 91 9.59001 8.25568 2.30932 2.2527 0.458656 1.17306 -0.597858 0.197286 -0.33425 5.71062 4.30839 -48.7385 1.75723 1.43828 -17.1159 -0.00146518 0.00287397 -0.00775732 
26.982 1 250 9.63294 6.14741 4.27436 -1.61301 0.493026 0.503593 -0.462961 0.094216 0.151218 0.607512 0.968136 -6.46056 0.163958 0.122403 -2.44458 -0.00121532 0.000226573 -0.00022222 
26.982 1 50 9.36642 6.3303 0.15405 -0.0232648 2.41733 -2.71076 0.605507 -0.252714 0.161975 5.45264 7.44409 -55.31 1.42813 0.447299 -24.7957 0.00302144 -0.00167569 -0.0173547 
26.982 1 290 9.51573 10.3489 4.11397 -0.988666 3.40921 -1.83503 0.0435782 -0.245174 0.428076 0.736463 -0.494156 -9.07642 0.360981 0.0722075 -3.28582 -0.000115472 -0.000234934 -0.00160926 
26.982 1 93 11.6973 8.20038 0.180235 0.648402 -0.584083 1.09609 -0.133854 0.238703 0.348977 3.88836 0.861925 -12.944 3.45037 1.3163 -12.6899 0.00201621 -0.000236072 -0.0175491 
26.982 1 56 11.5503 6.40879 2.15255 -3.93897 -0.284472 2.52409 0.196424 -0.702849 0.0608094 -0.0415232 9.91206 -41.9161 1.20853 1.92928 -16.4947 0.00417302 -0.00507301 -0.0105086 
26.982 1 293 11.5818 8.21085 4.13044 -3.19007 0.401654 1.97105 0.228116 0.340825 0.680564 -0.389846 0.733626 -9.86602 0.0998365 0.35122 -3.59474 0.000173284 0.000584148 -0.000341375 
26.982 1 95 13.8616 8.34962 2.28622 -2.18558 2.7361 -1.02715 -0.302866 -0.107653 0.0463061 -7.72936 5.2726 -46.258 -0.876855 1.89123 -19.2717 0.00360454 -0.00332571 -0.0116083 
26.982 1 254 13.8022 6.31321 4.27916 2.40124 -0.371626 0.150015 -0.0872235 0.0932811 -0.159591 -0.649864 0.0857212 -6.74215 -0.0371134 -0.0352343 -3.1608 -0.000134789 -0.000668589 -0.00377057 
26.982 1 60 15.9938 6.2642 2.25576 -0.278676 -7.18016 -0.114088 -0.0262115 0.0251381 0.187887 -2.90109 2.26046 -32.7756 -1.4914 1.05094 -15.3715 0.000107823 -0.000407525 -0.0170234 
26.982 1 297 15.9901 8.32435 4.16284 2.98444 -2.81685 2.45805 0.123539 0.0620572 0.266223 -0.448127 1.28251 -7.04888 -0.165763 0.525356 -3.42306 0.000866102 0.000217601 -0.00319678 
26.982 1 294 13.756 10.1736 4.3109 -1.54423 -4.05976 -1.40411 0.0656685 0.157057 -0.190894 -0.210913 0.550131 -9.66569 0.110099 0.280766 -4.29299 0.000324468 0.000343412 -0.00237449 
26.982 1 94 13.6486 10.377 0.346018 1.05784 -2.18138 3.25943 0.34825 -0.275112 -0.330335 -5.08096 -4.29612 -37.5943 -1.39346 -1.32882 -13.4236 0.00339239 0.00107927 -0.0183345 
26.982 1 99 18.1941 8.29133 2.31016 -1.65534 5.83682 -1.9819 -0.482194 0.257862 -0.31371 2.57301 7.02595 -38.9013 -0.857093 2.89993 -16.4224 -0.00443651 0.000317896 -0.0147222 
26.982 1 258 18.0689 6.17649 4.18898 2.77202 -0.401881 3.63652 0.208915 0.318231 0.317103 0.451511 0.580733 -4.81527 -0.0117888 0.130323 -2.32317 8.33745e-05 0.000829634 -0.00373378 
26.982 1 301 20.2404 8.31965 4.33632 -2.73163 -3.39126 0.644137 -0.207337 -0.165075 -0.334674 0.694367 0.863014 -8.09383 0.0914018 0.320232 -3.00056 -0.00116456 -0.00147547 -0.00309909 
26.982 1 101 20.3238 8.3675 0.280596 0.510762 0.356151 6.32196 -0.419462 -0.043617 0.0783419 6.84791 -1.13 -50.3208 1.39066 1.48173 -25.2233 -0.00399346 -0.00276423 -0.0181401 
26.982 1 64 20.1804 6.49362 2.24344 0.0902159 0.947289 3.46834 0.217059 -0.90329 0.306278 4.91358 3.1198 -38.0077 1.32431 -0.319635 -15.1072 -0.000321751 -0.00568906 -0.013652 
26.982 1 103 22.2494 8.32828 2.26563 -2.2669 2.17029 3.80786 0.667769 0.115263 0.290395 0.400054 6.30333 -48.5076 0.338172 2.33088 -17.7615 0.00409336 -0.00355515 -0.0104044 
26.982 1 262 22.382 6.3034 4.25161 1.46176 3.95083 1.91416 0.0549008 -0.30582 -0.148438 0.226417 0.658554 -7.68447 0.168929 -0.00667902 -3.01228 0.000676302 -0.00120797 -0.00427933 
26.982 1 305 24.7503 8.17814 4.15152 -2.57891 5.21183 1.6389 -0.830101 0.246516 0.315191 -0.138533 0.712096 -9.1732 0.0673359 0.235103 -3.36864 -0.00168869 0.000392686 -0.00275798 
26.982 1 302 22.3003 10.3124 4.30159 -1.36044 1.40594 0.895875 0.591099 -0.00964074 -0.263926 -0.140058 0.572569 -11.2619 -0.0176508 0.244207 -4.1088 0.00258917 -0.000772018 -0.00210281 
26.982 1 102 22.3562 10.2178 0.246553 1.17383 0.495867 -5.61517 0.355788 0.65989 0.32824 2.51542 1.06397 -13.9742 0.988841 0.35518 -6.56139 -8.93428e-05 0.0004565 -0.0167046 
26.982 1 68 24.3929 6.19152 2.33436 12.728 6.14201 -3.90413 0.179872 0.139701 0.00570324 1.18942 2.45384 -43.2508 1.34423 -0.646695 -17.561 0.00047144 -0.001177 -0.0168966 
26.982 1 107 26.6433 8.24819 2.19749 -1.17483 0.213271 4.30073 0.33309 0.435469 -0.339714 4.77708 -3.98179 -47.2233 2.29693 -2.03441 -18.6516 5.88836e-05 -0.00381126 -0.0153222 
26.982 1 266 26.9029 6.4235 4.0809 0.522589 2.13801 1.56375 -0.556447 -0.70479 0.689025 0.537256 0.546242 -8.62206 0.323428 -0.0236106 -3.93173 -0.00102761 -0.00248275 -0.00341406 
26.982 1 108 24.5537 10.2386 2.10928 0.0784898 -4.7805 2.09895 -0.23719 -0.00385038 0.213843 -8.46912 6.28526 -50.9641 -2.43951 2.72733 -19.3901 -0.000291162 -0.00364506 -0.00881603 
26.982 1 309 28.9035 8.18957 4.28237 -7.12472 -2.1628 2.70655 0.075829 0.787492 -0.305811 -0.344174 -0.555994 -9.31274 -0.071237 -0.393485 -3.94995 0.000261173 0.00141822 -0.00398882 
26.982 1 72 28.8161 6.25749 2.18004 0.754407 4.07069 -1.00213 0.140977 0.0795638 0.361336 -4.86571 8.03823 -46.0107 -0.893358 0.982413 -20.9661 0.00107662 -0.00141722 -0.0169482 
26.982 1 111 30.9315 8.34523 2.15392 1.22392 1.32209 -3.85684 -0.017417 -0.397405 0.322996 -4.84363 -2.16617 -42.6147 -0.76187 -2.31664 -18.5558 -0.000549872 -0.00568266 -0.013785 
26.982 1 270 30.9987 6.29808 4.37577 -1.09824 -0.688312 -5.71537 -0.176678 -0.0231337 -0.645823 -0.42956 0.952629 -6.8117 -0.110314 0.148907 -3.79989 -0.000248872 -0.000647743 -0.00549141 
26.982 1 112 28.6954 10.336 2.27052 -0.930592 -2.62015 2.40019 0.382532 -0.168379 0.314539 -2.3026 -9.51452 -38.7471 -0.92122 -2.74072 -16.1239 0.000913114 -0.00137044 -0.0095391 
26.982 1 310 31.0438 10.1109 4.23294 5.8006 -5.27804 6.74337 -0.567187 0.636986 -0.0968387 0.247365 -0.256294 -6.19822 0.279564 -0.071313 -2.94061 -0.00141841 0.00139191 -0.00271745 
26.982 1 313 33.1513 8.31862 4.156 -2.83653 -2.05231 0.268845 0.0384906 -0.50093 0.198014 0.0417008 0.186982 -7.44917 0.0367943 0.00685274 -3.75627 -0.00021831 -0.00215134 -0.00277892 
26.982 1 116 32.978 10.2836 2.30125 1.24957 5.85942 -1.34989 0.362161 0.279147 -0.450046 4.21104 2.58525 -41.8591 2.56825 1.23839 -19.3253 0.000179492 -0.000384537 -0.0114294 
26.982 1 76 33.1501 6.19666 2.32789 3.7521 4.2551 1.75371 -0.140694 0.165146 -0.0528134 4.67815 4.3407 -39.4215 0.719898 1.04414 -19.0904 -0.00433809 -4.84111e-05 -0.0133836 
26.982 1 115 35.3413 8.24677 2.19238 4.10794 -3.17559 0.260687 -0.277789 0.0944797 -0.0680245 -4.1331 -1.72869 -40.4002 -2.63972 0.0290265 -18.2069 -0.00357325 -4.12719e-05 -0.0086567 
26.982 1 274 35.4015 6.34599 4.21822 -3.7542 -5.55713 1.42656 -0.401623 -0.206937 0.205773 0.751588 -0.720073 -8.24045 -0.0637707 -0.126839 -3.72266 -0.00148909 -0.000979012 -0.000938619 
26.982 1 117 37.5017 8.31958 0.271432 3.83793 0.656713 0.253839 -0.201859 -0.101305 0.00750049 3.19906 2.38531 -78.5012 -1.31928 1.5662 -31.5235 0.00603368 -0.000171905 -0.0174227 
26.982 1 80 37.3528 6.25749 2.17317 3.46559 0.310814 0.752502 0.355117 0.246934 0.358404 0.913355 -13.9176 -44.9809 -0.751808 -4.43275 -17.3737 0.00385185 -0.000175582 -0.0078678 
26.982 1 317 37.3804 8.29644 4.43321 -3.34732 2.24807 -1.99363 0.188895 -0.285835 -0.452578 0.673579 -0.792726 -6.93184 -0.0144674 -0.122606 -2.86099 0.000968178 -0.000681534 -0.00205141 
26.982 1 314 35.1647 10.2705 4.10799 0.346231 1.14858 -5.18748 0.0341135 0.34011 0.383209 0.158268 0.773518 -8.3112 -0.118402 0.263138 -3.97765 -0.000835792 0.00148948 -0.000716021 
26.982 1 74 35.1829 6.22036 0.272543 6.47667 1.28008 -0.861829 0.147814 0.197624 -0.153333 8.50743 -4.87298 -37.6572 2.46257 -1.62426 -13.5059 -0.00560362 -0.00141368 -0.0179058 
26.982 1 281 41.6362 8.12535 4.41296 -1.23437 -1.47363 -0.775335 -0.190244 0.614395 -0.492648 -10.402 -14.1175 -19.9604 -7.59844 -8.04725 -10.1605 -0.000257788 0.00103739 -0.00388567 
26.982 1 119 39.5093 8.18538 2.5394 -2.96037 1.66142 -1.01509 -0.00700469 -0.306524 -0.301703 8.31481 3.47857 -42.8784 2.97533 1.34252 -16.4108 0.00339639 0.000170436 -0.0133847 
26.982 1 278 39.48 6.12647 4.51066 -3.67893 -1.47486 -3.90598 -0.0325385 0.478681 -0.330386 14.0366 -14.5628 -10.5033 4.41341 -4.58653 -3.95092 0.000294522 0.000419252 -0.00279016 
26.982 1 318 39.4775 10.2778 4.22688 1.92828 0.110554 -0.188995 0.00418274 -0.0174886 0.553818 9.16483 -5.73913 -12.9216 4.652 -3.29238 -4.91516 0.00206809 -0.00187244 -0.00217883 
26.982 1 123 0.884591 12.24 2.23915 -7.71303 4.60608 -0.536966 0.611114 0.267604 0.602381 -30.8856 -15.7281 -46.2568 -12.5124 -3.6011 -17.1624 -0.00852783 -0.000337889 -0.0103534 
26.982 1 282 0.941175 10.18 4.43475 -0.807272 0.925628 -1.70953 0.080374 0.349489 -0.27568 -32.6231 -4.02968 -19.7723 -11.5488 -0.280098 -6.56038 -0.00897299 -0.00141249 -0.0062311 
26.982 1 322 1.01467 14.4174 4.32041 2.52966 4.02956 2.5962 0.29916 -0.431652 -0.162838 -23.7169 -8.66967 -16.7935 -8.82543 -3.47069 -5.88348 -0.00173178 -0.00223395 -0.00540081 
26.982 1 124 -1.12918 14.2544 2.44733 -2.10653 -6.42385 2.68229 0.255374 -0.218895 -0.806839 -31.6996 -17.2863 -45.1446 -17.6145 -7.20937 -17.1476 -0.0114079 -0.002269 -0.0147928 
26.982 1 82 0.964438 10.0827 0.380539 -5.55253 3.14568 0.71174 0.145358 0.251141 -0.068882 -31.9823 10.1709 -21.652 -13.1157 3.84262 -14.7734 -0.0108579 0.00153416 -0.0132125 
26.982 1 321 -1.26924 12.3496 4.40709 0.253461 -0.867149 0.667913 0.676515 -0.2143 0.10937 -16.3179 -13.979 -21.4614 -5.80632 -5.59263 -8.38299 -0.00582877 -0.00999185 -0.010012 
26.982 1 128 3.2443 14.4471 2.18933 1.27248 -1.22908 1.47854 0.178327 -0.453124 0.323178 -6.62095 -0.255378 -39.1773 -2.21292 0.32263 -15.4704 -0.00398764 0.00141257 -0.0113008 
26.982 1 86 5.31276 10.3826 0.370791 -1.59439 6.46216 -3.23134 -0.234641 -0.626923 -0.223676 -4.04214 -4.56237 -50.3361 -0.459301 -0.872051 -25.2355 0.00362575 0.000595599 -0.01729 
26.982 1 125 3.19377 12.2998 0.378679 -2.23046 1.17251 4.41034 -0.119317 0.220491 -0.274817 -9.79733 -12.0705 -54.9327 -3.61664 -1.70584 -24.6387 -0.00433968 0.0039451 -0.0170183 
26.982 1 325 2.95632 12.4327 4.29125 -0.207545 0.537325 0.604063 0.209562 -0.0282734 -0.375565 -5.684 -1.62258 -8.37641 -2.06024 -0.311954 -2.88199 -0.00145986 -0.000593193 -0.00334166 
26.982 1 127 5.35983 12.3215 2.29663 -0.957149 6.2344 1.23074 -0.276125 0.148382 0.181471 -2.5223 -1.04444 -36.7678 -0.0256139 0.908997 -14.1629 0.00117961 0.000333632 -0.00726137 
26.982 1 326 5.25139 14.3352 4.24826 4.91252 -3.13396 -5.19818 0.225258 0.266577 -0.333018 0.073224 0.390457 -6.40594 0.0722601 0.134848 -2.63477 0.000167722 0.000407779 -0.00213787 
26.982 1 126 5.55685 14.276 0.326496 -2.32973 -2.93069 4.78372 -0.450713 -0.0615768 -0.333455 4.33009 -0.173005 -52.0748 2.20862 -0.0326203 -19.3138 -0.00165897 -0.00115736 -0.0176459 
26.982 1 132 7.54558 14.2093 2.22001 -1.84437 0.227481 3.99947 0.0202311 0.203588 0.197946 2.31552 4.65099 -39.7299 0.543782 1.19485 -15.9943 0.00135452 -0.00258532 -0.00740536 
26.982 1 130 9.67697 14.3844 0.27976 4.24276 0.770276 4.75305 -0.208704 -0.083804 -0.0744768 3.13484 -5.72266 -40.977 1.73094 -2.99351 -18.9949 0.00300185 -0.00226281 -0.0171688 
26.982 1 329 7.38399 12.3153 4.33796 -4.31271 3.94568 -3.29601 0.3857 0.12481 -0.159311 0.321853 -0.0119047 -6.41691 0.185965 0.108091 -2.59337 0.00177511 0.000394475 -0.00248171 
26.982 1 131 9.64146 12.3633 2.24409 0.641148 -2.10761 -1.25547 -0.175901 0.141207 0.146077 3.67027 -1.61962 -41.7051 2.19823 -0.162111 -17.1771 -0.000212315 -0.00219927 -0.01246 
26.982 1 330 9.68611 14.3 4.30915 -3.8629 2.92771 -5.93288 -0.0577406 0.0466811 -0.0491682 0.21651 0.410362 -7.70007 0.124215 0.0521629 -3.16234 0.000727614 -0.00039773 -0.00186764 
26.982 1 333 11.6758 12.2232 4.25333 -3.24289 1.11662 3.3829 0.0114872 0.186759 0.0863412 0.500615 -0.384492 -8.65213 0.270567 -0.106815 -3.90968 -0.000477969 0.00101268 -0.0018316 
26.982 1 96 11.5407 10.2764 2.12858 1.51727 2.85329 8.70764 0.285331 -0.11667 0.299685 0.343815 -5.89721 -50.8417 1.29892 0.149402 -20.1409 -0.00230805 0.00285444 -0.0108307 
26.982 1 136 11.7688 14.5075 2.15706 -2.03587 4.09771 -1.48442 -0.278115 -0.502793 0.538824 -0.0570183 1.33717 -43.9274 0.328058 -0.996196 -18.2569 -0.00111174 -0.000819152 -0.0103803 
26.982 1 135 13.6163 12.2246 2.3185 0.778341 1.38297 3.29631 0.307361 0.365418 -0.0773027 4.21143 -2.53182 -47.8784 1.22775 -1.38747 -20.9145 0.000336883 0.00132512 -0.0101218 
26.982 1 334 13.7212 14.2701 4.33385 -5.27763 -1.84962 1.58456 0.175006 0.0463591 -0.143099 0.0978902 -0.263198 -8.5129 0.0220346 -0.320129 -3.6935 -0.000389225 0.000190226 -0.00212151 
26.982 1 100 15.899 10.497 2.19219 4.06361 -2.10468 1.9999 0.200173 -0.789574 0.185372 -0.293296 7.67521 -47.8968 -0.193275 2.6658 -21.1068 0.00410081 -0.00142014 -0.0145178 
26.982 1 337 15.7633 12.2162 4.19192 -2.53166 -3.25325 -0.973602 0.469491 0.158614 0.340629 0.448965 0.212945 -10.4578 0.0563025 -0.0817828 -4.62154 0.000872985 -0.000111934 -0.00329453 
26.982 1 134 14.0355 14.1704 0.27287 0.024602 0.24817 -0.709079 -0.497607 0.159591 0.13805 -6.75224 -0.401055 -47.2851 -2.15304 -1.8572 -19.8292 -0.000538414 -0.00327487 -0.0169018 
26.982 1 298 18.1746 10.3625 4.10924 0.880266 3.83046 0.757868 -0.664857 -0.180992 0.495145 0.175315 1.09116 -9.58096 -0.160173 0.41488 -4.09928 -0.00283833 -0.00108891 -0.00341936 
26.982 1 140 15.9951 14.3701 2.45773 4.01859 -1.33531 -1.0665 -0.16997 -0.176804 -0.251948 5.52402 -8.89669 -47.5858 1.40552 -3.57963 -19.5455 0.00195411 -0.0033659 -0.0106214 
26.982 1 139 18.1516 12.438 2.37608 0.827569 -0.190966 -0.610769 -0.215668 -0.299093 -0.573912 -1.36267 3.34241 -54.4335 -1.70226 0.0416915 -21.6565 -0.000883941 -0.000925279 -0.0173037 
26.982 1 144 20.2402 14.4677 2.38334 2.10151 -1.62782 -1.55591 -0.08207 -0.428798 -0.226843 -2.66118 3.372 -55.5476 -1.56783 0.4883 -19.4171 -0.00318276 -0.00498988 -0.0112722 
26.982 1 338 18.1712 14.1573 4.37325 2.27482 0.874447 -3.34407 -0.217432 0.513428 -0.232055 0.277422 -0.828536 -10.7402 -0.104756 -0.339486 -4.04051 -0.000864326 0.000896184 -0.00371965 
26.982 1 341 20.2938 12.2612 4.26021 3.50853 0.506293 3.35438 -0.118627 0.617822 0.307842 -0.0199788 0.186066 -11.2263 -0.12705 -0.0985132 -4.08256 -0.000409144 0.00160337 -0.00210523 
26.982 1 142 22.5283 14.2402 0.447225 1.84999 -1.57081 0.808002 -0.52705 0.141596 -0.718648 2.88135 3.0247 -50.2733 2.84115 0.921815 -25.1874 -0.000971003 -0.000135634 -0.0185206 
26.982 1 104 20.27 10.4065 2.37861 0.0804456 2.16231 0.69637 0.00509881 -0.382342 -0.618335 4.29236 3.8664 -50.7867 0.718971 1.87978 -19.353 -0.00318336 0.00171288 -0.0135402 
26.982 1 143 22.3774 12.388 2.46769 3.57778 2.36559 3.65402 0.162426 -0.404479 -0.429185 3.86774 -3.73264 -55.9195 1.62902 -2.20745 -20.5067 -0.00162739 -0.00163655 -0.00915789 
26.982 1 342 22.2786 14.4102 4.32049 -4.98557 0.159022 -1.7407 0.0466376 -0.544117 0.132558 0.276658 0.264391 -11.6741 0.29178 0.076105 -4.03246 0.000398459 -0.0015709 -0.000280518 
26.982 1 106 26.968 10.3681 0.214288 -1.59707 2.56363 3.06855 -0.725367 -0.551669 0.075512 -9.31733 -3.62822 -69.0435 -3.03284 -0.384935 -25.2378 0.00197402 -0.00282494 -0.017429 
26.982 1 148 24.4215 14.2916 2.2895 1.10048 -5.36257 3.79905 0.46171 0.0222208 0.313966 2.2919 -0.656766 -57.5094 2.58011 0.440938 -22.5421 0.00415858 0.00258222 -0.00960522 
26.982 1 345 24.5083 12.2392 4.26127 -0.684742 -0.0426486 1.1415 -0.144186 -0.180781 0.0438236 -0.754399 0.664832 -11.2834 -0.0870373 0.241722 -4.3257 -0.000195465 -0.000783787 -0.000674071 
26.982 1 306 26.6456 10.1285 4.25241 1.43982 -2.67596 1.97758 0.187988 0.181612 -0.181178 -0.813346 -0.284051 -7.97097 -0.235679 -0.0300227 -3.28371 0.000316834 0.000824083 -0.00221362 
26.982 1 147 26.5343 12.2696 2.30449 0.613687 -3.10249 2.12811 0.303921 -0.239974 -0.145122 -10.1511 8.37864 -46.9643 -2.82354 3.62096 -19.618 0.00245238 0.0018743 -0.00968062 
26.982 1 346 26.6334 14.1952 4.17911 -7.21002 -2.56071 -2.27324 -0.23906 0.323597 0.64889 -0.387805 0.67905 -11.1857 -0.0635268 0.261619 -4.8291 -0.000521533 0.0012566 -0.000857325 
26.982 1 145 24.6467 12.3128 0.219162 -7.58879 2.97279 -3.44306 -0.443386 -0.337186 0.233595 1.85796 -0.669763 -9.77305 1.35594 -0.325802 -7.23022 0.00225275 0.00145948 -0.0174963 
26.982 1 110 30.8747 10.4044 0.374494 -0.612155 2.97695 -1.16952 0.281074 -0.587613 -0.439131 2.32531 -6.99735 -78.6177 2.48501 -1.69233 -31.5807 -0.000130613 -0.00162879 -0.0182762 
26.982 1 152 28.6278 14.1813 2.36215 -3.66495 0.625488 -0.40772 0.513048 -0.0865146 -0.270697 -2.54368 13.4433 -53.0206 -1.11868 4.5884 -22.3886 -0.00162486 -0.0017722 -0.0107426 