ITEM: TIMESTEP
7000
ITEM: NUMBER OF ATOMS
4000
ITEM: BOX BOUNDS pp pp pp
-1.49689 41.9969
0.394211 40.1058
0.404524 40.0955
ITEM: ATOMS mass type id x y z vx vy vz fx fy fz xrad yrad zrad vxrad vyrad vzrad fxrad fyrad fzrad 
26.982 1 43 0.716778 4.33862 2.23807 -2.62727 0.931286 -5.54206 -0.152946 -0.259243 0.479232 -50.5755 -41.1587 -86.125 -15.1858 -11.2561 -24.8932 -0.00496298 0.000327567 -0.0113204 
26.982 1 202 0.531806 2.36224 4.45066 -2.90286 -6.68944 3.15807 0.0567472 0.206505 -0.498699 -46.925 -57.2352 -55.083 -13.9349 -13.4434 -16.0784 -0.00191637 -0.00536463 -0.00818643 
26.982 1 201 -1.66561 0.42987 4.45585 2.46918 4.36167 -1.49566 0.338613 -0.410562 -0.4535 -22.8304 -51.5206 -65.5231 -8.72007 -14.9556 -22.7493 -0.00504552 -0.00857022 -0.0151855 
26.982 1 241 -1.53899 4.42673 4.32302 1.32843 4.30752 2.20495 0.255552 -0.760538 0.555772 -49.0523 -53.3582 -61.1069 -12.1769 -12.474 -15.7607 -0.00707991 -0.00541612 -0.00695258 
26.982 1 4 -1.42066 2.35672 2.35782 0.838442 5.10185 -2.27885 -0.32818 0.00119001 0.00328461 -40.7702 -70.4322 -80.9376 -11.7907 -18.7789 -23.8247 -0.0105175 -0.0058018 -0.0113816 
26.982 1 2 0.597561 2.23843 0.292376 -2.26631 -2.41966 0.0162715 -0.0190682 0.186468 0.057717 -38.5352 -51.6595 -86.7433 -10.153 -16.2131 -25.2893 -0.00326378 -0.00684285 -0.0124125 
26.982 1 45 2.83074 4.22459 0.378656 -3.85529 3.11484 -1.61352 0.0774241 0.154325 0.13327 -7.89534 -21.8995 -75.0353 -1.14407 -6.17051 -22.8969 0.00163343 0.000104175 -0.0168306 
26.982 1 8 2.73501 2.23707 2.37541 0.862271 2.30826 6.21723 0.256994 0.660188 -0.235917 8.70167 -82.3845 -79.2469 2.29731 -22.4522 -25.8338 0.00209972 -0.0109229 -0.0115292 
26.982 1 245 2.7282 4.23097 4.29659 0.129451 0.597104 -4.75062 -0.238423 0.298622 -0.0250842 -6.36 -17.9855 -20.8263 -1.79636 -4.32634 -6.35688 -0.000895053 -0.000752406 -0.00335585 
26.982 1 205 2.85823 0.409088 4.27496 -0.271075 1.04752 2.26196 0.0627214 -0.273718 0.4346 -0.386103 -36.1472 -41.1707 1.08047 -17.3689 -17.2134 0.000560553 -0.0129325 -0.0122789 
26.982 1 47 4.97154 4.40259 2.2924 1.05326 -0.391213 3.90109 -0.141426 -0.646216 -0.0644794 -8.09437 -30.5896 -75.3812 -2.10327 -7.46572 -23.8125 -0.000782676 -0.00320291 -0.011823 
26.982 1 206 4.85956 2.48319 4.40156 1.36197 -1.56146 -2.99138 0.403474 -0.6967 -0.386525 -5.25937 -81.6539 -50.1164 -0.155473 -21.2791 -14.4918 0.0011991 -0.00853331 -0.00658679 
26.982 1 12 7.22747 2.3209 2.21243 -1.18672 4.91803 -1.70032 -0.467333 -0.0843851 0.0674145 -13.6615 -100.699 -68.1432 -4.73204 -26.3291 -20.6819 -0.00767129 -0.00689821 -0.00709602 
26.982 1 9 7.19854 0.286418 0.224786 -0.268484 -3.00924 6.13208 0.210459 0.332717 -0.176431 -6.54831 -44.6301 -71.0913 -4.0435 -13.2777 -24.0317 -0.00559714 -0.00957932 -0.00896864 
26.982 1 249 7.08087 4.21484 4.21031 1.2045 5.26684 3.90754 0.289232 0.112713 -0.0832938 -1.53669 -16.0844 -15.3023 -0.474425 -4.1814 -4.72995 0.000224696 -5.63285e-05 -0.00247988 
26.982 1 209 7.13911 0.449625 4.29833 1.46168 7.32955 -0.492935 -0.159627 0.0892511 0.244431 -4.54718 -65.227 -67.0193 -1.60179 -18.6761 -17.5112 -0.00340774 -0.0117949 -0.00838396 
26.982 1 49 7.18258 4.33074 0.253843 -0.875779 2.21625 0.50625 -0.0524957 -0.216771 0.17545 -4.50243 -18.3108 -112.408 -2.6292 -4.49574 -32.6214 -0.00297336 0.00217668 -0.0171025 
26.982 1 51 9.33599 4.06046 2.36521 -0.847634 -4.75559 -6.71228 -0.0404755 0.844529 -0.432325 1.4746 -17.4355 -65.9776 1.21218 -5.06528 -20.4438 -0.000522165 0.00393338 -0.00785915 
26.982 1 210 9.28511 2.29446 4.23875 -4.25076 -1.88642 -0.883336 0.171218 -0.204352 0.706815 -0.40927 -71.4984 -43.815 0.654231 -19.3578 -11.317 0.00225546 -0.00617633 -0.000118771 
26.982 1 11 9.37944 0.400759 2.24103 0.680468 3.57072 2.65677 -0.314617 -0.454942 0.193366 5.47144 -25.5986 -73.5916 3.40084 -15.925 -20.4257 0.00309562 -0.0173811 -0.00451712 
26.982 1 16 11.3794 2.13816 2.3813 7.32916 -0.674455 1.92834 0.565847 0.525174 -0.0231358 16.8564 -92.8865 -74.8423 5.37409 -25.0485 -23.1448 0.00278501 -0.00928378 -0.0050914 
26.982 1 253 11.5392 4.27002 4.34004 4.20514 -2.00425 3.57659 -0.0196416 -0.132099 0.223113 2.01922 -15.1793 -16.8 0.679126 -4.47279 -5.37566 0.000193304 -0.00115503 -0.00127409 
26.982 1 10 9.21568 2.35276 0.225934 2.75719 -1.68946 4.11873 0.178801 -0.3372 -0.0663897 -0.571288 -66.0233 -107.798 0.811171 -16.905 -30.7625 0.00191419 -0.00423074 -0.0169945 
26.982 1 53 11.3956 4.25676 0.381149 -0.610123 0.218732 -2.44243 0.203908 -0.265436 0.0204576 9.64946 -10.9174 -117.046 1.69177 -2.35808 -28.2094 -0.000159588 0.0025414 -0.0172735 
26.982 1 55 13.6286 4.26968 2.38066 -0.35111 4.72912 -1.01886 -0.0545047 -0.0131435 -0.155113 -0.760427 -29.845 -82.9055 0.388404 -8.01152 -26.2035 0.00306966 -0.000240617 -0.00880502 
26.982 1 214 13.6503 2.41115 4.3347 -0.183642 1.3654 0.0389316 0.0851803 -0.578376 -0.0422278 8.91545 -79.2982 -47.4142 1.45343 -21.9471 -13.7149 -0.00126882 -0.00761237 -0.00303794 
26.982 1 20 15.8458 2.41756 2.31318 -2.65675 3.17564 2.75684 -0.324705 -0.594917 0.107549 -26.7635 -97.957 -65.642 -5.50867 -26.5035 -22.4739 0.00515501 -0.00700345 -0.0134155 
26.982 1 15 13.6577 0.335182 2.32705 2.87268 -2.13726 -3.42338 0.622128 0.311984 0.242208 -1.87352 -29.3105 -99.3499 -1.47359 -10.8218 -28.0359 0.000161454 -0.0155085 -0.0060006 
26.982 1 14 13.5839 2.23298 0.413645 -2.95055 -2.92463 -1.84562 0.103024 0.101491 0.00799457 3.64115 -59.6966 -50.91 2.02558 -15.426 -15.3984 0.00380937 -0.00515859 -0.0158549 
26.982 1 257 15.9326 4.14013 4.35429 1.39098 -2.77023 2.49537 -0.156287 0.524035 0.280598 -1.93856 -18.3823 -15.5364 -0.330183 -4.83728 -5.73149 0.0011434 0.000104268 -0.00311952 
26.982 1 218 18.0653 2.50729 4.45121 -0.491846 3.29209 1.37203 0.0803127 -0.709043 0.126434 -8.27689 -75.6744 -32.2839 -1.94347 -20.747 -10.8947 0.00015128 -0.00663776 -0.00587675 
26.982 1 59 17.9829 4.30158 2.37254 3.48779 -4.23728 1.64265 0.371049 0.614343 0.396911 1.17337 -11.5964 -63.5021 0.109469 -3.02185 -22.9094 0.000935919 0.000338245 -0.0160554 
26.982 1 217 15.9573 0.244098 4.42941 1.3586 1.20153 -1.11741 -0.293207 0.110646 -0.270922 0.335827 -21.8592 -28.3593 0.0991443 -9.47733 -11.1191 0.00164416 -0.0108837 -0.0117103 
26.982 1 21 20.2332 0.417007 0.422677 1.39938 -0.715823 3.4741 -0.339851 -0.170125 -0.137057 7.10789 -60.6649 -61.0284 1.67727 -16.0532 -16.4885 0.000577271 -0.00555886 -0.0073009 
26.982 1 221 20.1281 0.369167 4.35656 -1.37337 -2.71719 2.37635 0.449521 0.211187 0.468084 -12.7572 -49.6014 -48.7307 -3.07317 -15.9078 -16.1626 0.00128624 -0.011699 -0.0113602 
26.982 1 261 20.2726 4.15481 4.4672 -1.69501 2.94064 3.38563 -0.148639 0.636254 0.0474027 0.568257 -13.397 -14.6604 0.189977 -3.82031 -5.4438 -0.000414459 0.000799211 -0.00401401 
26.982 1 24 20.0436 2.30361 2.37172 -0.257036 -4.81306 -1.21079 0.414616 0.257734 -0.0199531 6.1117 -78.1135 -55.6886 1.63168 -21.0738 -19.6733 0.000394361 -0.0050436 -0.0131593 
26.982 1 63 22.3093 4.27326 2.3673 1.90147 -4.27267 -2.39337 0.451202 0.100802 -0.154904 2.34194 -6.57091 -78.0904 1.27994 -3.16858 -26.1204 0.00107347 -0.00233356 -0.0163841 
26.982 1 222 22.3928 2.41274 4.3319 -0.14645 0.757027 2.09507 0.229894 -0.308217 -0.0864833 -7.37321 -63.4882 -35.7805 -0.467404 -18.6916 -11.6558 0.00354725 -0.00895181 -0.00792254 
26.982 1 28 24.6263 2.41898 2.3416 0.958861 1.84146 -2.06267 -0.320646 -0.318218 0.185935 -7.36555 -57.8723 -71.6262 -1.96736 -17.9104 -24.498 -0.00307123 -0.00829771 -0.0128772 
26.982 1 265 24.6687 4.39744 4.37278 -3.66735 -1.62024 1.61283 -0.0259999 -0.196758 0.292396 -0.176098 -9.06788 -17.2948 -0.0250684 -3.2177 -6.40526 -0.000321805 -0.00269194 -0.00292993 
26.982 1 67 26.6685 4.55054 2.39974 -3.95444 0.155186 2.31522 0.439687 -0.503662 -0.304593 3.14331 -2.08311 -89.7951 0.884748 -1.48194 -29.893 0.000529568 -0.00560166 -0.0135493 
26.982 1 226 26.789 2.40281 4.25944 3.59432 -0.212324 0.170671 -0.045198 0.324904 0.515778 6.66892 -51.1782 -26.2978 -0.15458 -14.98 -9.29412 -0.00322471 -0.00465919 -0.00393425 
26.982 1 269 28.9708 4.58246 4.4855 4.33951 0.170689 -0.701144 -0.0591852 -0.42547 -0.354016 -1.00142 -9.37496 -18.179 -0.259069 -2.54693 -6.76856 1.6315e-05 -0.00205066 -0.00421383 
26.982 1 27 26.7974 0.422244 2.4764 -0.464143 3.30474 3.35056 -0.165959 -0.257342 -0.595392 10.2847 -118.912 -61.6795 -1.70438 -30.1687 -20.2051 -0.00533203 -0.0115173 -0.00948956 
26.982 1 29 28.9979 0.492056 0.314264 -1.59928 -2.20647 2.68608 -0.306105 0.270666 0.156094 -7.33682 -69.6717 -84.1883 0.22282 -18.9841 -25.0169 0.00221995 -0.00436359 -0.00811464 
26.982 1 32 28.9709 2.48996 2.5715 0.284018 3.56902 -0.888759 -0.0802246 -0.149857 -0.228592 -0.12367 -64.1649 -72.9134 0.280872 -15.8445 -25.1021 0.00276488 -0.00383586 -0.0130987 
26.982 1 71 31.1281 4.3823 2.34814 3.03988 -1.75911 -2.43832 0.0413067 -0.0605087 0.542927 -6.57145 -3.61856 -74.8253 -2.67989 -1.39576 -26.5395 -0.00217866 -0.00330948 -0.012583 
26.982 1 230 31.0561 2.37758 4.54887 -6.12561 0.981748 -4.01273 0.0762186 0.0901267 -0.310657 -8.37867 -58.0768 -29.7104 -1.7508 -15.8877 -10.5126 0.00329064 -0.00812406 -0.00838557 
26.982 1 273 33.3556 4.34512 4.32461 1.1001 4.32885 -1.41054 -0.263703 -0.123831 0.158409 0.770304 -6.84602 -15.5472 -0.087306 -2.04078 -5.49583 -0.000863375 -0.00320096 -0.00306097 
26.982 1 229 28.8063 0.201831 4.40468 5.90532 2.94813 -0.667965 0.581568 0.454556 -0.122517 -2.46407 -47.685 -38.3019 0.179106 -17.5749 -13.9258 0.00402832 -0.0105545 -0.0102654 
26.982 1 36 33.3723 2.39679 2.25183 1.49351 3.27199 2.7033 0.0634122 0.271451 0.750272 -1.87398 -58.4287 -72.6265 -1.93796 -16.7918 -23.7998 -0.0028067 -0.0110797 -0.00930372 
26.982 1 73 33.2564 4.34032 0.395812 0.798475 4.58803 -1.43374 0.177735 0.595117 0.0765265 16.9742 -8.40576 -108.101 2.16187 -3.42054 -26.7797 9.94788e-05 -0.00150592 -0.0163761 
26.982 1 75 35.6966 4.33833 2.3032 -0.262172 -2.65339 -1.0042 -0.718071 0.0292097 0.19365 16.7275 -5.49459 -92.7186 2.78983 -2.01513 -27.043 0.000141679 -0.000763698 -0.0143989 
26.982 1 234 35.39 2.35246 4.45201 -2.30761 3.50216 1.1225 0.136263 -0.0252238 -0.221892 5.41088 -43.6998 -27.2886 1.63568 -13.0198 -8.6013 -0.00375343 -0.00567162 -0.00491104 
26.982 1 40 37.7063 2.4539 2.35626 -4.46043 0.921481 1.32399 -0.0516734 -0.326769 0.306643 30.4923 -60.6356 -102.366 6.00439 -17.5727 -27.7273 -0.00247307 -0.00396774 -0.0128164 
26.982 1 277 37.4873 4.23863 4.454 -4.16875 -5.49331 2.06601 0.28248 0.318877 -0.1011 2.46296 -10.8505 -23.6903 0.508262 -3.05269 -6.70115 -0.000185045 -2.53131e-05 -0.00370184 
26.982 1 35 35.5523 0.354581 2.32072 1.46864 2.251 0.245162 -0.00269993 0.319928 0.298864 11.9728 -124.992 -72.7983 2.21461 -33.6915 -22.2698 -0.00422868 -0.01101 -0.0104717 
26.982 1 79 39.8223 4.54237 2.35159 -0.944013 -0.76012 -1.99016 0.0731664 -0.761015 0.173271 -9.74565 -27.6869 -101.269 -1.64747 -5.42956 -28.9243 2.09808e-05 0.000977424 -0.0150145 
26.982 1 238 39.829 2.45386 4.35381 -3.53623 0.223696 -5.6225 -0.240037 -0.168216 -0.410641 0.221683 -64.9634 -51.0725 -0.799881 -17.3876 -13.439 -0.000734883 -0.00298319 -0.00505775 
26.982 1 39 39.8198 0.359803 2.50101 -0.414161 6.69625 0.88545 -0.123151 0.375383 0.036428 -11.594 -15.5716 -99.3774 -2.71071 -10.1519 -25.734 0.000630593 -0.0139734 -0.010991 
26.982 1 38 39.6658 2.38832 0.370021 -2.93256 2.30276 -0.406568 0.698336 0.0327358 0.222278 4.02101 -43.2728 -52.7422 0.85761 -11.243 -20.0992 -9.79855e-05 -0.00155383 -0.015673 
26.982 1 237 37.5012 0.264615 4.33319 -4.8916 -2.8639 5.45365 0.386671 0.309603 -0.276834 15.1825 -71.9055 -62.9705 3.09954 -19.4345 -16.4482 -0.00107936 -0.0102089 -0.00862602 
26.982 1 83 0.851392 8.36803 2.42241 -1.46401 -2.75063 -2.43833 -0.61504 -0.389659 -0.452228 -63.3875 -16.3771 -83.8375 -17.7282 -5.9565 -23.8146 -0.00909992 -0.00555612 -0.011319 
26.982 1 242 0.699843 6.35225 4.49033 -1.0863 5.65013 1.89732 -0.178858 -0.0932847 -0.533857 -65.5239 1.60243 -43.7112 -18.0771 -1.2064 -12.2879 -0.00551648 -0.000779064 -0.00738333 
26.982 1 281 -1.38465 8.29481 4.39894 -3.27438 2.05261 -2.91944 -0.0613314 0.315169 -0.577001 -27.8521 -32.3503 -44.4346 -11.154 -11.2375 -15.4954 -0.00708751 -0.00561772 -0.0116192 
26.982 1 88 2.9655 10.196 2.53179 -0.944689 6.911 -3.79404 0.0529817 0.438425 -0.534426 -24.5949 -5.24537 -83.8848 -5.78758 -1.79689 -21.6642 -0.00201999 0.000782976 -0.00580038 
26.982 1 285 2.85119 8.26235 4.4068 3.64027 3.662 -2.39926 0.159694 0.0445128 0.320304 -12.1259 -1.33929 -17.0546 -2.76027 -0.644243 -4.69543 0.000255912 0.000142846 -0.00116577 
26.982 1 48 2.72203 6.35094 2.46719 7.1869 1.90972 4.63847 0.248814 -0.353621 -0.315263 -24.5708 -3.80659 -79.9694 -5.00543 -1.78704 -23.6874 -0.00207599 -0.00100169 -0.0108558 
26.982 1 87 4.87766 8.14808 2.26876 -1.14597 2.46748 2.16539 0.169551 0.224203 0.337658 -2.38745 4.71283 -73.9553 -0.303548 -0.756953 -21.6905 0.000404997 -0.00229019 -0.00743603 
26.982 1 246 4.9314 6.04577 4.37103 -0.244194 1.78178 0.172096 -0.0159345 1.12179 -0.319296 -0.863007 -0.871596 -11.8142 -0.190447 -0.330971 -4.06208 0.000281604 0.00244819 -0.00242064 
26.982 1 289 7.0426 8.15136 4.2496 2.23368 0.820684 -0.611105 0.155414 0.023393 -0.0569473 1.32231 0.796341 -13.898 0.217391 0.158315 -4.0031 0.000380398 -0.000312922 -0.00132082 
26.982 1 286 5.17103 10.4058 4.45671 4.0502 6.31631 -6.07024 -0.486023 -0.598251 -0.225404 -0.527582 0.0699753 -12.7102 0.0743235 -0.0338577 -3.48652 -0.000689344 -0.00229376 -0.00103585 
26.982 1 85 2.87429 8.18951 0.24557 -1.59693 -0.0987341 -0.651635 0.168285 0.686199 0.578918 -6.86406 6.96427 -87.5951 -1.89136 -1.11857 -27.8056 -0.00199958 -0.00437678 -0.0170352 
26.982 1 52 6.98846 6.3035 2.05283 1.65639 6.73236 1.04704 0.486147 -0.0761398 0.725226 3.66453 4.88907 -69.4962 -0.455645 0.63944 -20.9927 0.00128018 -0.00071883 -0.00955153 
26.982 1 92 7.16861 10.3124 2.4392 1.54703 -4.52148 2.76392 0.128583 0.161916 0.289153 8.37038 -3.91278 -79.9975 2.61842 0.153703 -23.002 0.0011864 -0.00100386 -0.00401084 
26.982 1 91 9.29354 8.21658 2.33029 -2.46133 0.685621 5.2648 0.00791236 -0.232027 -0.0966568 8.87272 9.12754 -89.9792 1.74289 2.4426 -24.4827 0.00340032 -0.0033816 -0.0105124 
26.982 1 250 9.30721 6.12523 4.20157 -1.52667 -0.838869 -1.70498 -0.154739 0.229264 0.0197333 0.995405 1.17237 -12.5077 0.181513 0.138233 -3.76673 -0.000528968 0.00153985 -0.00273907 
26.982 1 290 9.3774 10.1769 4.20561 -3.83338 -2.89678 2.06843 -0.534473 0.323189 0.763782 1.42063 -0.00420387 -17.6366 0.381516 0.293753 -5.11059 -0.000547149 0.000111427 0.000231489 
26.982 1 293 11.5133 8.1746 4.31657 -3.24931 -3.38892 1.17465 -0.0991803 -0.0587148 0.0713851 -0.122526 1.57291 -18.4342 0.160499 0.483349 -5.11832 8.16576e-05 -0.000104132 -0.00279028 
26.982 1 89 7.16331 8.49781 0.506085 -3.0481 1.43432 1.78894 -0.294519 -0.371978 -0.726769 3.50394 14.1262 -88.475 0.925211 1.35287 -28.0432 0.00111092 -0.00537317 -0.0184511 
26.982 1 56 11.4205 6.11585 2.31121 -0.679341 2.79312 -1.57562 0.178577 0.576753 0.114307 3.85357 11.9915 -82.41 1.80106 1.15569 -23.9436 -0.00102261 0.00543579 -0.0105287 
26.982 1 95 13.6375 8.31368 2.59695 3.22298 -1.73259 1.32966 -0.101814 -0.2607 -0.246996 -7.50281 7.91229 -92.7185 0.638315 1.59088 -27.4009 0.000185097 0.00122187 -0.0136768 
26.982 1 254 13.7552 6.18832 4.45043 -1.96286 -2.10526 -4.23026 -0.21334 0.10372 -0.119778 -0.484379 -0.330968 -15.1392 0.167563 -0.201651 -5.03543 2.46571e-05 0.00122863 -0.00229134 
26.982 1 54 13.7054 6.25419 0.498539 1.14531 7.51441 -0.594586 -0.56818 -0.0851369 0.238837 -12.4363 12.9475 -97.8598 -0.812457 3.1876 -26.762 0.00330054 0.00433579 -0.0173452 
26.982 1 297 15.9108 8.35205 4.50523 -2.66081 2.54165 -0.810675 0.0236242 -0.106066 -0.00868041 -0.538216 2.21279 -16.2588 0.0102478 0.420397 -5.71111 0.000278114 -0.000973422 -0.00256287 
26.982 1 60 15.8054 6.26479 2.60162 1.74552 -4.29487 0.171688 0.204926 0.555776 0.0468671 -5.07312 4.64427 -74.3237 -0.192284 1.43124 -25.7218 0.00303166 0.000644361 -0.0135846 
26.982 1 99 17.8631 8.36711 2.39743 3.71421 -4.65475 0.471338 0.335191 -0.104088 -0.0338667 -0.469237 12.5251 -82.3426 -2.04103 2.12834 -26.6228 -0.000477389 -0.00453221 -0.0110747 
26.982 1 258 18.1255 6.41399 4.48073 3.03866 3.54554 1.98004 0.0820573 -0.371694 -0.142002 0.345811 0.796864 -12.0072 -0.0674657 0.0335601 -4.82041 0.00062722 -0.00118312 -0.0035165 
26.982 1 298 18.0209 10.4342 4.46206 0.927153 -1.18652 -0.675845 0.202347 -0.254252 -0.456871 -0.207333 1.88205 -20.1923 -0.186994 0.301722 -6.23905 0.00107696 -0.00154718 -0.0025105 
26.982 1 100 15.8314 10.3452 2.33112 5.17726 -1.60293 2.11769 -0.125448 -0.317751 0.334959 1.21263 12.1395 -99.6027 0.858602 1.18072 -30.0361 -0.00319209 -0.00547694 -0.00980201 
26.982 1 98 17.9899 10.3448 0.428324 0.287318 1.20902 5.72615 0.091475 -0.801078 -0.697706 -5.27967 0.0645743 -63.8007 -1.25079 -0.393839 -16.5564 0.00175911 -0.00345402 -0.0176793 
26.982 1 301 20.252 8.38275 4.37922 -2.03552 0.644226 0.412177 -0.284539 -0.232979 -0.172603 0.700336 1.45143 -16.0329 -0.0348618 0.256247 -4.96469 -0.000598038 -0.00126141 -0.00332568 
26.982 1 64 20.3021 6.1206 2.57423 -3.56732 -3.71052 1.3693 -0.204685 0.498605 -0.264946 6.98659 1.52944 -77.8283 0.74558 -1.25631 -24.7138 -0.000807788 -0.000705282 -0.0128911 
26.982 1 103 22.5226 8.14876 2.49368 3.61481 2.00558 -6.65767 -0.39725 0.219477 -0.155163 2.21609 9.33826 -92.4803 1.57322 1.32244 -26.6943 0.000262967 0.000598985 -0.0141139 
26.982 1 262 22.5957 6.13449 4.48223 1.87024 -2.95317 1.2558 -0.396481 0.458916 -0.2663 0.72367 0.3458 -16.0311 0.321429 -0.267711 -5.32553 -0.000703642 0.000967557 -0.00368424 
26.982 1 305 24.7393 8.42752 4.47077 2.75283 -3.45208 5.55925 -0.161646 -0.520538 0.223055 0.168712 0.829905 -18.1283 0.184507 0.014306 -5.69759 -0.000377955 -0.0013644 -0.00229337 
26.982 1 101 20.2227 8.09333 0.465747 3.39633 -2.99952 -1.93583 -0.104519 0.689711 0.13653 8.50722 0.383276 -110.058 1.24449 0.0703509 -34.2646 0.00219178 -0.00248982 -0.0156541 
26.982 1 68 24.6396 6.45188 2.347 -1.72053 -2.82921 -4.02273 -0.38035 -0.143682 0.200287 4.49044 0.627683 -89.82 1.54301 -1.03491 -28.615 -0.00426056 -0.00141159 -0.0127651 
26.982 1 107 26.7497 8.37775 2.37119 -2.48252 1.18489 -0.841244 0.154826 0.159698 0.0798533 9.39704 -9.62295 -95.0519 1.81808 -2.53375 -28.9012 -0.00247438 0.00273137 -0.0106843 
26.982 1 266 26.7909 6.33927 4.35365 1.69852 0.0260269 -2.8285 -0.00593321 0.453247 0.563116 1.12314 0.310107 -19.2424 0.239185 -0.185125 -6.45746 -0.000382053 0.000627041 -0.000447105 
26.982 1 309 28.9431 8.49456 4.20206 -2.10204 -3.34524 -3.68531 0.0253171 -0.999134 0.765647 -0.540113 -1.48697 -19.6552 -0.182071 -0.462958 -6.1615 -0.000461159 -0.00269249 -0.000842112 
26.982 1 66 26.5243 6.49374 0.404965 3.05476 -0.78784 -3.22835 0.751223 -0.415763 -0.323402 3.76469 12.0268 -64.7583 0.511377 1.04668 -16.7312 -0.00238087 -0.0025381 -0.0178851 
26.982 1 109 28.8502 8.45185 0.426228 3.2231 6.0666 -4.18067 0.20783 -0.0157473 0.367456 0.70762 -5.03539 -15.5245 0.00274397 -2.00637 -9.45761 -0.000683791 -0.000178114 -0.0173603 
26.982 1 72 28.9941 6.3383 2.27591 -1.33375 -1.99736 2.6849 -0.317036 0.231627 0.364869 -7.3222 9.56809 -99.3277 -1.30966 0.176772 -31.4937 0.00215351 -0.00355149 -0.011465 
26.982 1 111 31.3053 8.34776 2.53923 -0.117877 -3.81311 1.69379 -0.29017 0.230094 -0.155891 -7.41361 -7.87897 -88.8942 -1.9112 -3.27639 -26.8693 -0.00119575 -0.00324306 -0.00880631 
26.982 1 270 31.1745 6.41699 4.44264 -1.46737 4.37283 -2.19531 -0.113745 -0.244263 -0.499985 -0.927261 1.1802 -16.6217 -0.380512 0.0246379 -5.83671 -0.000572607 -0.00169882 -0.00372869 
26.982 1 313 33.4239 8.47173 4.44804 1.35717 -2.14309 2.06289 -0.12413 -0.22026 0.0171488 -0.200241 0.122194 -16.4732 -0.215289 -0.118458 -5.03059 -0.000119907 -0.00101987 -0.00133968 
26.982 1 76 33.2701 6.30676 2.41688 0.201285 -2.70508 5.01082 0.417392 0.163498 -0.16995 4.42089 5.9773 -85.7922 -0.41578 0.474698 -26.6472 0.00070155 -0.00124925 -0.0104311 
26.982 1 113 33.3582 8.46849 0.465525 6.11998 1.60142 -7.96551 -0.186771 -0.458007 0.26812 -0.0447652 8.35137 -67.7568 -0.65385 1.08719 -20.534 -0.000685226 -0.00605531 -0.0180712 
26.982 1 310 30.9403 10.4499 4.51981 0.354112 -0.218728 -3.57269 0.792954 -0.527251 -0.189476 0.597611 -0.45331 -13.8256 0.00739895 -0.10077 -4.53706 0.0012261 -0.00116276 -0.00105402 
26.982 1 116 33.4421 10.3047 2.50906 5.37028 -2.37456 -1.9935 -0.274563 0.497712 -0.145359 8.25236 4.86742 -87.5372 1.55783 1.11625 -25.436 -0.00091922 0.000725306 -0.00542348 
26.982 1 110 31.14 10.3926 0.568878 -1.93158 -2.88646 0.56202 -0.015263 -0.159458 -0.365111 6.91126 -10.9099 -151.166 1.59582 -1.79811 -40.7129 -0.00316344 0.000881227 -0.0178026 
26.982 1 115 35.4108 8.39624 2.40253 -1.57303 -0.666987 -1.3402 0.147506 -0.426044 0.0176348 -10.4876 -1.96545 -82.2352 -3.10961 -0.815375 -23.6782 0.000650982 -0.00552169 -0.00806114 
26.982 1 274 35.4109 6.26164 4.47898 -3.01727 -0.120987 -1.84155 0.106677 0.499114 -0.523468 0.520315 -1.17754 -16.8433 -0.0653703 -0.392193 -5.04306 0.000134448 2.16181e-05 -0.00370268 
26.982 1 317 37.5255 8.34095 4.20189 2.64668 1.77019 1.43288 0.326307 -0.0794586 0.667205 1.1398 -1.10224 -13.8371 0.510806 -0.266863 -4.15672 0.000977643 -0.00160555 -0.000837055 
26.982 1 114 35.4876 10.4504 0.462624 -2.03517 0.0297674 -2.3905 0.0804443 -0.165107 0.128264 -2.37915 9.05257 -92.7954 -0.714187 2.01835 -26.811 0.00102038 -0.00102725 -0.0177024 
26.982 1 117 37.6774 8.37652 0.582545 4.8108 -1.03635 0.133661 -0.112737 -0.10331 -0.46299 4.73212 5.28912 -154.472 2.6463 0.718321 -44.4635 0.00378762 -0.00427126 -0.01854 
26.982 1 80 37.6789 6.33912 2.50578 -1.95125 0.426605 0.88641 -0.00256055 -0.0700824 -0.0328193 1.60461 -23.8943 -86.6367 1.24537 -6.05129 -25.1421 0.00105199 -0.00358335 -0.0127717 
26.982 1 314 35.5668 10.3938 4.51189 0.206345 0.412538 1.4093 -0.0044627 0.0689978 -0.0579462 -0.140164 1.35734 -17.202 -0.0747821 0.338125 -4.85509 0.000253789 0.000440613 -5.32297e-05 
26.982 1 120 37.5987 10.3501 2.46046 0.989942 0.283537 -0.126212 0.285581 0.151779 -0.0243346 11.9662 15.4423 -88.9443 3.84319 3.52778 -24.9209 0.0035748 -0.000467376 -0.00737723 
26.982 1 84 41.8631 10.4061 2.22943 1.30918 -0.125704 0.899051 0.835957 -0.398178 0.311106 -63.5078 -23.0483 -104.257 -18.6367 -6.45029 -28.5516 0.00322235 -0.0079298 -0.011888 
26.982 1 44 42.1004 6.22232 2.52427 -5.21074 -1.69918 -4.69224 0.0180648 0.877886 -0.84291 2.10828 -59.4485 -86.7929 -1.50713 -16.0075 -25.0562 0.00386168 -0.00784648 -0.0133592 
26.982 1 119 39.8258 8.43975 2.42047 -0.891332 0.771829 3.78448 0.101316 -0.638867 -0.138157 16.7247 6.00898 -85.5509 5.4454 0.921239 -26.4147 0.00406189 -0.00393805 -0.013687 
26.982 1 278 39.9219 6.22023 4.44974 0.212679 1.6456 3.24005 -0.43767 0.65035 -0.339641 24.3207 -24.778 -20.6511 6.38113 -6.13888 -6.43094 0.00339021 -0.0026404 -0.00514999 
26.982 1 318 40.0552 10.2193 4.32152 -2.80346 -2.21665 -1.32842 -0.369924 0.388442 0.455325 20.1133 -13.5976 -25.2619 6.72571 -4.97114 -7.39562 0.00390684 -0.00314256 -0.00227641 
26.982 1 123 0.59969 12.4189 2.2666 -1.51801 3.51908 0.268578 0.333199 -0.217361 0.100415 -61.4537 -23.9324 -88.1664 -18.3023 -5.15359 -23.8644 -0.00923121 -0.00441113 -0.00451996 
26.982 1 282 0.714644 10.2915 4.19866 -0.387602 -0.718709 2.09115 -0.169494 0.420861 0.516838 -60.673 -5.81344 -36.1791 -16.4064 -0.810153 -9.87226 -0.00918875 0.00356839 -0.00353835 
26.982 1 322 0.567896 14.3943 4.28103 0.796918 0.342063 -0.989361 0.576593 -0.484609 0.083833 -44.0261 -15.5198 -31.0218 -11.9779 -3.67728 -8.11975 -0.00414575 -0.00447424 -0.0026729 
26.982 1 124 -1.4784 14.3102 2.35187 -1.0501 -2.21401 -1.12357 0.0375991 -0.258003 -0.271799 -75.9545 -32.9524 -87.3258 -27.1446 -8.85966 -24.0306 -0.0142393 -0.00424701 -0.00870066 
26.982 1 325 2.78949 12.3552 4.35917 -9.44489 1.711 -0.578409 -0.198072 0.00426298 0.00702821 -10.3209 -2.28625 -15.3011 -2.67479 -0.342362 -3.97808 -0.00340194 -0.000145691 -0.000649912 
26.982 1 122 0.761497 14.4111 0.385074 2.47029 0.0438422 -3.38224 -0.0132666 -0.0447981 0.138933 -67.8645 -11.1704 -87.7111 -17.633 -1.25449 -25.7617 -0.00515938 0.00376334 -0.0162636 
26.982 1 128 2.97079 14.3329 2.25231 3.82589 -2.63655 -1.48637 -0.749724 -0.0114605 0.329163 -12.9075 2.64669 -77.3913 -3.65652 2.65803 -22.3074 -0.00397703 0.00326665 -0.00785151 
26.982 1 82 0.796316 10.3229 0.45366 2.28186 -1.26976 3.93596 -0.100922 -0.132765 0.182201 -65.1519 17.5122 -58.777 -19.9585 2.98232 -22.1729 -0.0101773 -0.00154979 -0.0138366 
26.982 1 125 2.96238 12.3542 0.510076 -0.787023 -1.65073 -2.35157 -0.100442 -0.427729 -0.243923 -18.8149 -14.8551 -116.92 -5.0548 -1.6685 -37.3496 -0.00256852 -0.00043041 -0.0168755 
26.982 1 127 5.09737 12.2381 2.52662 -0.879476 -6.34769 3.68453 -0.454646 0.0409306 -0.558062 -0.859416 0.225741 -71.2549 1.32396 0.318943 -19.9702 -0.00125539 -0.000262652 -0.00541265 
26.982 1 326 4.82495 14.3182 4.19776 1.91374 3.08891 0.195556 0.522635 -0.13429 0.908501 0.137752 0.640705 -12.7415 0.00933373 0.19279 -3.68787 7.29691e-05 0.000214293 0.00134774 
26.982 1 126 5.09566 14.2523 0.461132 -3.62787 2.64602 6.0509 -0.247981 0.0777101 -0.450528 8.49108 0.21402 -103.463 1.76195 0.99021 -32.097 -0.00230116 0.00386606 -0.0193318 
26.982 1 132 7.09338 14.3074 2.27061 0.615385 1.33401 -2.90834 0.514507 -0.388266 0.783926 4.60796 5.30127 -78.6107 1.98854 -0.00668225 -22.7755 0.00391595 6.81581e-05 -0.006275 
26.982 1 329 7.06531 12.4247 4.33925 -1.81843 -3.40261 1.44369 0.580767 -0.195147 -0.0587413 1.00802 -0.00390469 -13.3632 0.445033 -0.0254738 -4.16226 0.00204098 -0.000672197 -0.000473884 
26.982 1 129 7.1882 12.3144 0.490639 0.435902 0.82534 4.48865 0.215687 0.0411118 -0.229279 7.38291 0.354679 -119.377 2.06661 1.44802 -28.5944 0.0035194 0.00214445 -0.0181641 
26.982 1 86 5.06254 10.372 0.479624 -0.175392 0.150934 -4.07908 -0.25 -0.263217 -0.235427 -3.36437 -5.82212 -110.08 0.562879 -0.868967 -34.2443 -0.00109265 -0.00179265 -0.0178098 
26.982 1 131 9.4777 12.5256 2.5041 -2.10931 -5.07338 1.92517 -0.478025 -0.797945 -0.199296 8.20108 -2.95899 -85.8715 2.36985 -0.39193 -26.3081 -0.000413325 0.000839036 -0.00853927 
26.982 1 330 9.46077 14.2678 4.42894 -0.296407 -3.11538 2.80914 -0.37057 0.339612 -0.131102 0.657476 0.309418 -15.8025 0.279785 -0.0957065 -4.91313 -0.000777394 0.000374649 -0.00205729 
26.982 1 333 11.5221 12.3094 4.55473 1.50913 2.70867 -6.43027 0.269438 -0.438876 -0.563167 0.814766 -0.600018 -18.4651 0.0809599 -0.115116 -5.72716 0.000963595 -0.00176 -0.00206983 
26.982 1 90 9.21978 10.3725 0.459454 5.65289 0.0412137 3.46193 0.225095 0.15184 0.297258 4.91356 -2.73976 -74.8525 2.54864 0.0684911 -22.7165 0.00445366 -0.00244906 -0.0175515 
26.982 1 294 13.7957 10.2133 4.51983 2.42133 4.37688 -2.39879 -0.262648 0.411393 -0.276285 0.0989919 1.15568 -19.811 0.152264 0.219528 -5.90477 -0.000829762 -1.73909e-05 -0.0032559 
26.982 1 96 11.3375 10.28 2.51819 1.4233 -5.59954 1.05766 0.675007 0.0438351 -0.333729 1.48655 -3.91049 -99.17 0.584409 0.924692 -28.1621 0.00418188 -0.0031057 -0.0107778 
26.982 1 136 11.7085 14.2609 2.5354 4.33178 -5.69159 -0.117079 -0.331401 -0.0532152 -0.513358 -0.396404 -0.948169 -89.0685 -1.00996 -1.29255 -26.3272 -0.00274973 -0.000615041 -0.00811512 
26.982 1 135 13.6722 12.1899 2.39173 0.166739 3.74939 -0.872647 -0.136219 -0.203171 0.260006 6.22495 -5.59303 -96.9598 0.607054 -2.18249 -27.75 -0.00156318 -0.00518985 -0.0076994 
26.982 1 334 13.8033 14.2313 4.2671 -3.05191 1.48125 -3.7521 -0.0775514 0.0637587 0.459926 0.0397023 -1.00975 -17.2554 -0.126033 -0.394136 -4.8863 -0.00018319 -0.000272672 0.000727172 
26.982 1 134 13.7133 14.1934 0.565526 1.062 7.69856 -3.96458 0.0712041 0.0821134 -0.11091 -12.8207 -5.06511 -99.6846 -3.79174 -2.47 -32.5811 -0.00138056 -0.00111866 -0.0181875 
26.982 1 140 15.8786 14.1914 2.46523 4.35334 -1.31615 0.18922 0.157946 0.287264 -0.323956 9.50235 -17.3199 -93.7814 2.20732 -4.25726 -25.7449 0.00128164 0.000308759 -0.00533459 
26.982 1 137 15.7369 12.1539 0.322654 -2.07088 -1.35185 3.94904 0.0781268 0.17919 -0.132782 6.16939 5.78857 -41.8313 1.2471 -0.210421 -14.5968 -0.00245852 -0.00345398 -0.0177178 
26.982 1 133 11.4153 12.1863 0.451935 6.48247 3.10058 -1.58334 0.272621 0.131671 0.402429 2.99632 -3.87739 -79.6418 0.348883 -0.771689 -17.2207 0.00102969 -0.00121472 -0.0175278 
26.982 1 337 15.8998 12.257 4.30043 1.49137 0.940762 0.674811 0.0159336 0.0921119 0.33228 0.8066 -0.133625 -21.587 0.220943 -0.296158 -6.19829 0.000273528 -0.000406085 -0.000261341 
26.982 1 139 18.0175 12.2077 2.22676 3.21014 3.83152 2.99356 0.0902866 0.348065 0.782175 -4.23051 2.46405 -107.839 -0.634601 -0.935469 -30.4477 0.00390703 0.000275137 -0.00669435 
26.982 1 338 18.0694 14.258 4.44417 -1.58571 -0.337894 0.584585 -0.117793 -0.0473755 -0.182147 0.0639611 -1.85081 -20.4765 -0.0265023 -0.581022 -5.46493 0.000169914 6.13605e-05 -0.00169443 
26.982 1 341 20.2185 12.359 4.46508 7.13601 -0.37924 -2.70269 0.186786 -0.200526 -0.48405 -0.547257 -0.141861 -21.3424 -0.211318 -0.207697 -6.02549 0.00120517 -0.00094634 -0.00441696 
26.982 1 138 17.8587 14.2009 0.416119 -2.20104 0.20113 3.31266 0.0109604 0.193046 -0.171242 -5.17278 -0.463086 -44.265 -0.91418 -0.415437 -18.9472 0.00523622 0.000825002 -0.0176466 
26.982 1 144 20.0883 14.2241 2.34263 -1.4442 -0.673295 7.12158 0.407786 0.113829 0.353104 -7.2432 2.03708 -101.771 -2.30669 -1.26457 -26.8852 0.00272823 -0.000224039 -0.0110981 
26.982 1 104 20.2067 10.3448 2.38778 -1.32807 3.18501 -1.86676 -0.022892 -0.100962 -0.0747124 3.80072 8.61885 -98.2798 -0.188739 2.78575 -28.1721 0.00360881 0.000298304 -0.0109356 
26.982 1 302 22.34 10.2132 4.35139 1.88787 -2.36562 -2.96329 0.130294 0.856502 -0.402462 -0.311421 0.927674 -20.8608 -0.0555618 0.148148 -5.81048 0.000185355 0.00171376 -0.00457783 
26.982 1 142 22.3369 14.2938 0.185955 1.62452 3.23496 0.415901 0.501585 0.114806 0.343206 8.14306 4.21539 -113.427 2.55159 0.240022 -37.9951 0.00119381 7.41353e-06 -0.0154843 