ITEM: TIMESTEP
6000
ITEM: NUMBER OF ATOMS
4000
ITEM: BOX BOUNDS pp pp pp
-1.29365 41.7936
0.330622 40.1694
0.350053 40.1499
ITEM: ATOMS mass type id x y z vx vy vz fx fy fz xrad yrad zrad vxrad vyrad vzrad fxrad fyrad fzrad 
26.982 1 3 0.869025 0.528758 2.14985 -0.434869 1.9559 0.422431 -0.180288 -1.01202 0.141715 -28.3352 -70.6397 -40.6389 -9.61198 -23.3657 -16.7686 -0.00603488 -0.010199 -0.0140748 
26.982 1 8 3.01377 2.1917 2.19969 0.942706 -3.3853 -1.60361 0.414554 0.318153 0.246942 6.62341 -61.8126 -55.4897 2.35954 -19.3495 -21.4359 -0.0025876 -0.00271586 -0.0141031 
26.982 1 43 0.906648 4.31445 2.12404 0.562926 1.01917 0.55886 -0.153987 -0.082336 0.533976 -36.2156 -30.0279 -63.3939 -13.5259 -10.46 -20.3585 -0.00504829 -0.0055995 -0.0133707 
26.982 1 202 0.937099 2.18745 4.13374 4.52314 0.132335 -0.417913 -0.11275 0.522965 0.472207 -33.3914 -44.9004 -40.2485 -12.8718 -11.5102 -13.5464 -0.00456785 -0.00234638 -0.00643124 
26.982 1 201 -1.23321 0.541431 4.2067 -2.05191 -1.91052 -2.56132 -0.292715 -0.399106 -0.062889 -15.0602 -38.0093 -45.2833 -6.60425 -12.351 -17.672 -0.00889889 -0.00628289 -0.013705 
26.982 1 245 2.89511 4.17456 4.27985 -1.16233 2.55761 2.59282 0.314681 0.426012 -0.225068 -4.55991 -13.8647 -14.9935 -1.74773 -3.9829 -5.26298 7.77651e-05 0.00138107 -0.00376505 
26.982 1 241 -1.33934 4.10766 4.25532 2.33199 -4.04159 -3.36805 0.268656 0.119869 -0.370556 -38.2726 -41.6653 -46.7355 -9.37962 -10.6338 -12.7528 -0.00752746 -0.00589419 -0.0108758 
26.982 1 205 3.00989 0.263805 4.22193 -0.0603783 -0.924365 6.92311 -0.146813 0.257892 0.229127 -1.47787 -20.9585 -26.1342 1.15957 -13.0586 -13.2401 -0.00124017 -0.0118413 -0.00719433 
26.982 1 47 5.21346 4.26652 2.24609 -6.97161 2.70497 -2.86595 -0.247172 -0.1567 0.205331 -6.14674 -23.3917 -53.6358 -1.59607 -7.31814 -19.6715 -0.00309093 0.00242761 -0.0109584 
26.982 1 206 4.95453 2.28999 4.31366 3.87667 0.876601 2.47125 0.395033 0.0992648 -0.262528 -5.21281 -61.5336 -36.7528 0.036832 -19.2617 -12.5549 0.000471875 -0.00226324 -0.00315054 
26.982 1 249 7.25516 4.3671 4.23585 4.20173 -1.24736 3.54114 -0.170091 -0.530534 0.100902 -1.12146 -12.0052 -10.9411 -0.381989 -4.00624 -3.9856 -0.00054047 -0.00144985 -0.00132211 
26.982 1 209 7.25854 0.294398 4.32476 0.282136 -5.58234 2.59006 0.282789 -0.235159 -0.268717 -3.24352 -48.7284 -51.1072 -1.20853 -14.3258 -14.4002 0.00075023 -0.0123549 -0.00806603 
26.982 1 7 5.13529 0.0677216 2.36746 -0.638098 4.92724 2.32363 0.104366 0.602963 -0.44574 -2.8578 0.848436 -63.025 -2.59579 -0.80758 -22.8148 0.000530979 -0.0146164 -0.0103053 
26.982 1 6 5.10682 2.21326 0.278982 0.496263 2.45423 2.10639 0.207015 0.116983 0.481108 -11.6873 -33.5004 -54.2301 -2.77801 -12.939 -18.0708 -0.00179166 -0.00411503 -0.0163681 
26.982 1 49 7.36582 4.36132 0.36752 -1.42898 0.996239 -3.62204 -0.309241 0.109085 0.10943 -2.33113 -13.554 -82.9642 -1.93844 -4.8302 -26.2829 -0.000800772 -0.000985063 -0.0177405 
26.982 1 12 7.14136 2.26288 2.37968 -6.22579 4.8208 1.63172 0.253397 0.0137418 -0.170649 -9.67722 -75.5277 -48.948 -3.90772 -23.9632 -17.4326 0.00250867 -0.00589267 -0.0103771 
26.982 1 51 9.39982 4.30515 2.31092 -2.19597 1.32201 1.96095 0.232048 -0.310935 0.23576 0.305901 -12.1691 -47.1429 0.873926 -4.95417 -17.0055 0.00322923 -0.00463125 -0.0102221 
26.982 1 210 9.43948 2.15077 4.37005 -2.95541 1.28295 1.50212 -0.17253 0.675672 -0.235797 -0.660052 -53.2073 -32.9635 -0.0216736 -17.425 -10.2189 0.000517107 -0.00181003 -0.00376842 
26.982 1 11 9.44118 0.499594 2.21039 2.13724 1.06641 -2.8314 -0.146704 -0.515497 0.367801 2.78605 -12.4252 -54.251 2.21478 -10.7191 -17.5458 0.00127726 -0.0121451 -0.0137446 
26.982 1 16 11.5535 2.28534 2.47023 1.19894 0.100739 -2.01092 0.172334 0.329109 -0.116485 11.6698 -69.5399 -52.9593 4.85189 -21.8747 -19.718 0.00345992 -0.00567997 -0.016105 
26.982 1 253 11.5223 4.33974 4.44989 0.0574585 -0.279465 -1.32147 0.0432383 -0.215849 -0.211819 1.34855 -10.9789 -11.7291 0.651642 -3.93473 -4.61387 -0.000266502 -0.00189156 -0.00316682 
26.982 1 55 13.6943 4.34642 2.4122 1.43921 -4.79843 -4.70875 -0.0345055 -0.453076 -0.251972 -0.719213 -22.0875 -58.3362 -0.022487 -7.08443 -22.6839 -0.00207614 -0.00601833 -0.0119972 
26.982 1 214 13.7442 2.2404 4.33344 -2.39426 -1.34935 1.72743 -0.329857 0.233942 -0.24755 7.15406 -58.5153 -34.3683 1.90064 -19.585 -12.0275 -0.00142057 -0.00536198 -0.00829424 
26.982 1 257 15.8826 4.46923 4.29903 -2.2703 0.978967 -1.44977 -0.00101323 -0.423233 0.0686219 -1.47853 -13.7288 -10.433 -0.51844 -4.45685 -4.56998 0.000332306 -0.00141639 -0.00236777 
26.982 1 213 11.5714 0.116154 4.25586 0.342341 -0.440223 -0.852552 0.200404 0.372895 0.122185 -0.78374 -49.0772 -50.8731 -0.0982561 -13.7685 -15.4121 0.00294443 -0.0119295 -0.0111832 
26.982 1 20 15.8896 2.35891 2.6661 -0.278465 -4.34672 1.67303 0.133965 0.0981904 -0.895106 -20.4862 -72.7252 -45.6385 -6.33901 -23.7026 -17.5912 -0.00268798 -0.00819973 -0.0142416 
26.982 1 218 18.014 2.29768 4.57898 -2.53341 1.14378 3.75665 0.120638 0.351902 -0.472795 -6.23081 -56.0469 -22.6646 -2.32557 -18.4895 -8.68569 0.00285152 -0.0048116 -0.00416228 
26.982 1 59 18.115 4.1641 2.33522 2.40251 4.28611 2.29769 -0.0773305 0.297394 0.202176 1.14316 -8.88945 -43.4796 0.0379506 -2.47817 -17.6033 -0.000901916 -0.000777631 -0.0104818 
26.982 1 217 15.954 0.313999 4.27704 3.59469 1.22814 2.5405 0.0501622 -0.512607 0.279142 0.475249 -14.5117 -19.1262 -0.0504174 -5.23875 -7.3511 -0.00150118 -0.0134825 -0.0101621 
26.982 1 19 17.998 0.269101 2.43077 2.85962 -3.08444 0.694537 0.0131048 0.024436 -0.225646 2.64167 -60.7979 -37.0059 1.00573 -18.784 -15.4468 0.000327323 -0.0120388 -0.00844019 
26.982 1 57 16.1567 4.17122 0.449281 0.395552 -4.83874 -6.19323 -0.685923 0.047484 0.0500485 -11.5962 -12.5357 -91.7236 -2.70841 -3.50326 -25.618 0.000440897 -0.00340986 -0.0174049 
26.982 1 21 20.2618 0.278755 0.475512 -0.23541 -0.967674 0.0731072 0.0859651 0.166823 -0.259153 5.47876 -45.6846 -45.8758 1.57312 -13.5408 -13.7309 0.000704528 -0.00929842 -0.00804206 
26.982 1 261 20.1116 4.3398 4.35696 2.1341 0.736785 5.30111 -0.07846 -0.285578 -0.178169 0.418272 -9.83799 -9.94411 0.117549 -3.23116 -4.1978 -0.000164592 -0.00220725 -0.00262566 
26.982 1 24 20.1937 2.28824 2.41946 -4.49803 -0.0563736 0.11143 -0.036573 -0.189827 -0.0931535 4.56657 -58.1384 -38.2738 1.45655 -18.5066 -15.9528 0.000254146 -0.010186 -0.00509697 
26.982 1 63 22.2303 4.23199 2.33979 -2.98793 0.069737 -2.07742 0.493577 0.259681 0.258801 1.16895 -3.82732 -54.7751 0.863042 -2.35396 -21.2915 0.00331993 -0.00148072 -0.00714271 
26.982 1 222 22.2842 2.30056 4.36348 2.66046 -3.06085 -1.78303 0.186588 -0.081725 -0.115375 -6.48851 -46.4307 -25.4759 -1.09213 -15.1736 -9.17797 0.0011337 -0.0113722 -0.00581556 
26.982 1 28 24.6229 2.37026 2.34854 4.8902 -4.27406 1.04532 -0.628202 0.0101964 -0.18931 -5.94689 -41.5445 -49.4527 -0.913044 -14.6879 -20.3486 -0.00434927 -0.009653 -0.00732622 
26.982 1 61 20.2162 4.32093 0.37253 4.87837 1.97534 1.52016 -0.146497 -0.131614 -0.391196 5.74204 -0.985668 -72.8699 1.04048 -1.03067 -20.085 -0.00427489 5.14774e-05 -0.0176732 
26.982 1 22 22.474 2.379 0.339235 -1.22205 4.08996 -1.86808 -0.410672 -0.22877 0.142815 0.119133 -35.8481 -79.7455 1.95144 -13.091 -23.3984 0.00382152 -0.00648047 -0.0129471 
26.982 1 265 24.4901 4.30748 4.25898 6.26001 -2.07482 6.10111 -0.316636 0.25151 0.146578 -0.234723 -6.24637 -11.6189 0.114247 -2.44473 -5.04557 -0.00104673 -0.00095583 -0.00268143 
26.982 1 67 26.6244 4.21606 2.23983 -3.00246 1.76807 7.41495 0.31271 0.321107 0.0306892 2.1381 -1.17399 -62.4166 1.07959 -0.859678 -24.913 0.00112341 0.00357052 -0.0131699 
26.982 1 226 26.5375 2.51814 4.41719 -1.68601 7.02463 4.57799 0.713835 -0.273733 -0.0667663 6.29406 -37.2827 -17.8039 0.885817 -12.8055 -7.80841 -0.00104828 -0.00711649 -0.00316653 
26.982 1 32 28.8954 2.51179 2.44093 -2.6325 2.81358 -1.32587 -0.156907 -0.405046 -0.0475229 0.117803 -48.9798 -50.1425 -0.896342 -14.512 -20.662 0.00414451 -0.00435776 -0.0113838 
26.982 1 269 28.8546 4.37299 4.42156 -1.67883 -4.63889 -1.65896 0.0110187 0.0533217 -0.0946534 -0.693697 -7.0446 -12.0552 -0.310644 -2.16396 -5.528 -0.000426018 -0.000572189 -0.0032746 
26.982 1 27 26.7995 0.61278 2.20586 0.12953 1.24348 0.168031 -0.0686107 -0.464887 0.673733 10.9787 -90.9597 -42.9175 0.276863 -25.4417 -17.6098 -0.00391328 -0.0155129 -0.00355758 
26.982 1 26 26.5423 2.42703 0.204977 2.65579 1.53776 -4.86975 0.434416 0.276879 -0.261817 -1.72158 -29.1739 -74.786 -2.64717 -9.42969 -22.096 -0.00177182 0.000640294 -0.0160688 
26.982 1 71 31.0805 4.30161 2.32746 -0.0911708 2.35983 -0.88294 0.0259968 0.0201082 0.31645 -4.30216 -2.76416 -50.74 -1.79034 -0.121067 -21.8967 -0.00285178 -0.00554726 -0.0103198 
26.982 1 230 31.0699 2.38634 4.4084 4.27911 -0.777912 -2.95296 -0.0101054 -0.0699671 -0.191234 -6.23298 -43.7184 -20.4786 -2.35429 -12.9842 -8.00898 0.000307184 -0.00663204 -0.00735712 
26.982 1 233 33.2102 0.446334 4.26381 6.51433 -3.23196 4.77972 -0.267552 -0.290932 0.398505 0.310527 -55.8604 -32.6593 -0.61749 -22.0654 -13.9898 0.000955768 -0.0131812 -0.0114529 
26.982 1 273 33.2983 4.40154 4.44736 -0.174374 0.448149 -3.47207 -0.144894 -0.122376 -0.55913 0.823186 -5.19151 -10.5602 -0.0341036 -1.28132 -4.58917 0.000482427 -0.00180267 -0.00322117 
26.982 1 229 28.9584 0.510177 4.37151 -3.6598 -5.43131 -1.57522 -0.423527 -0.212788 -0.154923 -2.17133 -32.1956 -26.1052 -0.684739 -13.3648 -10.5206 0.000767728 -0.0125088 -0.00953113 
26.982 1 29 28.696 0.517036 0.225334 -0.535359 1.73233 -2.13618 0.634791 -0.110856 0.135259 -7.02245 -51.764 -60.9387 -1.06697 -16.5997 -21.5071 0.00572 -0.00771154 -0.00938878 
26.982 1 73 33.2337 4.47451 0.368527 -2.27479 1.86661 0.462242 0.253771 -0.333799 -0.10872 14.7213 -5.47893 -84.4507 2.56888 -2.19238 -20.5441 -0.00218546 -0.00600869 -0.016749 
26.982 1 36 33.2035 2.39864 2.43478 -0.770963 -0.592574 2.50515 -0.0606988 0.366148 -0.447955 -0.380193 -43.7585 -50.7761 -1.05569 -12.4754 -19.9381 -0.0019307 -0.0114031 -0.0115136 
26.982 1 75 35.4973 4.34486 2.2226 -1.33748 1.45675 -0.216656 -0.404538 0.311266 0.0558669 14.3088 -3.81501 -68.0712 1.9882 -1.25704 -22.8323 0.00129622 -0.00199405 -0.00761664 
26.982 1 234 35.3037 2.48327 4.3027 -0.876187 -1.42826 2.59005 0.292106 0.034016 0.397489 3.35604 -31.8375 -19.5272 2.01055 -10.4373 -6.849 0.00292848 -0.00959372 -0.00475296 
26.982 1 40 37.5387 2.49398 2.22403 0.484326 3.58403 8.24655 -0.0485036 -0.329097 0.302228 23.9767 -43.7684 -77.0158 6.9615 -15.8831 -23.7283 -0.00286864 -0.00624882 -0.00449866 
26.982 1 37 37.4955 0.326632 0.284638 -1.6705 2.26156 3.26326 0.432137 0.181464 0.0164801 7.96944 -58.1492 -49.8829 0.934673 -15.546 -19.0356 -0.00348701 -0.0106736 -0.00808062 
26.982 1 34 35.44 2.2871 0.329938 3.35858 0.0175413 0.484583 -0.198866 0.543893 0.0371424 13.3097 -17.9203 -71.8564 2.08191 -6.65349 -24.8557 -0.00280729 -0.00612585 -0.0126199 
26.982 1 277 37.4482 4.41143 4.35927 -2.40073 2.10367 4.19278 0.470696 -0.284742 -0.0800613 1.90788 -7.91586 -17.6475 0.557737 -2.71078 -5.46514 0.00106944 -0.00224456 -0.00252267 
26.982 1 4 41.8306 2.26892 2.01145 0.0620508 1.09346 4.70186 -0.0652281 0.65857 0.380425 -30.5552 -52.5847 -59.1876 -9.74737 -17.374 -19.7445 0.00256573 0.00135352 -0.0100555 
26.982 1 79 39.6035 4.384 2.18916 -4.14391 -2.05663 -0.154926 0.102354 -0.0578609 0.356033 -8.08998 -21.8146 -74.9101 -1.68923 -6.30274 -23.9176 0.000126876 0.00277187 -0.0119755 
26.982 1 238 39.6192 2.33847 4.21159 -4.66439 4.76103 -4.06172 -0.121137 0.247966 0.11454 0.961095 -48.2319 -38.2834 -0.442182 -15.8788 -12.2419 -0.00363516 -0.00528769 -0.0020659 
26.982 1 1 41.7832 0.294532 0.2333 6.20934 0.109704 -1.15386 -0.114258 0.0810416 0.0254269 -24.5154 -26.1668 -73.1353 -6.96114 -9.14265 -24.7457 0.00284521 -0.00920568 -0.0122602 
26.982 1 39 39.5718 0.555666 2.21576 -0.882471 0.115477 3.51242 0.0827753 -0.746926 -0.117662 -8.8851 -8.097 -75.3554 -2.36482 -4.79886 -22.9634 -0.00334293 -0.0155828 -0.00197655 
26.982 1 38 39.6932 2.47417 0.21993 -0.047122 3.64312 3.4138 0.278279 -0.497194 0.123317 3.09396 -32.2093 -35.6361 0.925374 -11.2506 -14.1539 -1.62833e-05 0.00303634 -0.0171753 
26.982 1 83 1.00964 8.28531 2.27784 -0.81954 -2.72792 -0.0283268 -0.478929 -0.147398 -0.243144 -47.0628 -11.4225 -62.1125 -15.2591 -4.37079 -19.4449 -0.00474189 -0.001132 -0.0131061 
26.982 1 242 0.795994 6.30439 4.2357 -6.35884 0.382286 -0.0719267 -0.0853712 -0.412218 0.0611799 -48.4347 2.76561 -32.5416 -16.1388 -1.07005 -10.0467 -0.00548925 -0.00131228 -0.00537902 
26.982 1 285 2.89041 8.04256 4.40685 -3.49254 4.91952 2.74397 0.40089 0.485286 -0.331647 -9.45862 -0.777738 -12.723 -2.60778 -0.494875 -3.77934 0.00081695 0.000379083 -0.00334805 
26.982 1 42 0.959853 6.40465 0.323932 -5.04667 -0.913743 -2.15315 0.260364 0.00958561 -0.189632 -40.2963 -12.3724 -60.8827 -13.7112 -4.25527 -23.411 -0.00448912 0.000166302 -0.0147431 
26.982 1 281 -1.33809 8.23023 4.1638 -0.205201 0.0798962 1.99252 0.0777693 0.347372 0.0929625 -18.1189 -22.3415 -30.763 -8.32904 -8.78067 -11.8836 -0.00884834 -0.00616223 -0.00971383 
26.982 1 84 -1.28119 10.3049 2.10994 -1.63871 -2.84488 -7.894 0.186478 -0.32082 0.384561 -45.0227 -17.8583 -77.7273 -17.2796 -4.38015 -24.2842 -0.0110178 -0.0023579 -0.0127097 
26.982 1 48 3.07193 6.17874 2.19758 -0.0126949 -2.92355 1.0516 0.0103994 0.246806 0.299785 -19.7836 -2.12187 -58.3033 -4.77278 -1.68558 -19.329 0.00180539 0.000860996 -0.0134026 
26.982 1 87 5.22425 8.33056 2.39386 5.06398 -0.517085 -1.14509 -0.25643 -0.210556 -0.0621443 -2.07066 4.93168 -53.9684 -0.285055 0.0301958 -17.5659 -0.000236197 -0.000239409 -0.0161132 
26.982 1 246 5.1427 6.22848 4.24805 -2.2952 1.45449 2.19098 -0.114241 -0.0764234 0.138389 -0.673898 -0.577627 -8.21918 -0.16439 -0.305529 -3.05921 -0.000686717 0.000144951 -0.0025134 
26.982 1 52 7.33409 6.38483 2.37095 2.36426 1.20531 6.16187 0.0378879 -0.20756 0.0239398 4.06748 4.28703 -50.3949 -0.0617637 0.271912 -17.1336 -0.00293737 0.00348319 -0.0112274 
26.982 1 289 7.3546 8.4068 4.32427 -5.86315 -2.9017 7.28764 0.0850791 -0.202857 0.359353 1.13048 0.585099 -10.2273 0.231191 0.19259 -3.16873 -0.000251727 3.97797e-05 -0.00184997 
26.982 1 92 7.38894 10.2998 2.41086 1.2734 -0.582483 -5.61396 -0.117897 0.0674755 -0.271243 5.84499 -4.18247 -58.2854 2.50703 0.326026 -19.4795 -0.000449696 0.000463927 -0.0160047 
26.982 1 91 9.51263 8.42518 2.36717 -2.1069 -5.74624 -0.408778 -0.271697 -0.228036 -0.289295 7.48537 6.32688 -67.462 1.56448 2.60576 -20.5046 -0.00398081 0.00195937 -0.0113567 
26.982 1 250 9.44685 6.25881 4.27749 6.29682 0.0949243 -3.16494 0.0133781 0.346669 0.0200888 0.808026 1.06785 -9.16103 0.207341 0.114348 -2.97782 -0.000149616 0.000630499 -0.00136791 
26.982 1 50 9.47857 6.24596 0.369235 1.25341 0.789621 0.87903 0.0249588 0.330265 0.059558 7.35392 7.61821 -83.3112 2.13743 0.0428252 -31.2042 -0.000551373 0.000596545 -0.0172702 
26.982 1 290 9.64495 10.3371 4.44364 -1.73034 -0.561824 -2.21405 -0.380481 -0.279126 0.21338 1.09596 -0.320983 -12.8473 0.338185 0.286025 -4.30009 -0.00104992 0.000318973 -0.00186048 
26.982 1 93 11.5106 8.31922 0.395594 -0.230181 0.15358 -0.149448 0.338489 0.107458 0.0536866 7.52798 2.23387 -28.7924 3.55118 1.59498 -19.0076 -0.00228575 0.00249131 -0.0175293 
26.982 1 56 11.6661 6.27748 2.31964 -3.155 -0.793772 -0.489168 -0.308513 -0.0236048 -0.166973 1.79417 11.2882 -60.3914 2.1932 0.837762 -20.2978 -0.000314129 -0.00295506 -0.00877051 
26.982 1 293 11.49 8.24177 4.28555 4.36646 7.00982 -1.7868 0.626503 0.0961636 0.159064 -0.251295 1.11452 -13.8019 0.139237 0.441265 -4.25018 0.0013712 0.00069044 -0.00109922 
26.982 1 95 13.7812 8.54601 2.2211 -0.99988 0.595964 1.11394 -0.390866 -0.645774 0.385481 -8.03633 6.6719 -67.6297 0.225363 1.09311 -23.2296 0.00242928 -0.00214411 -0.00811887 
26.982 1 254 13.6127 6.26618 4.29985 3.02588 0.975654 2.38617 0.282321 0.21023 -0.0337298 -0.616098 -0.0673025 -10.5197 0.106514 -0.243237 -4.26737 0.000361745 0.000486953 -0.00204103 
26.982 1 297 15.8242 8.32318 4.31955 -2.56781 2.95905 0.865743 -0.00480964 -0.167391 -0.0355324 -0.560837 1.77209 -11.1086 -0.0536858 0.472579 -4.62695 0.000272549 -0.000252648 -0.00275062 
26.982 1 294 13.8204 10.3375 4.53811 -2.8383 3.8908 -3.14789 -0.231218 -0.164842 -0.349224 -0.0561124 0.864775 -14.375 0.146104 0.335681 -5.08457 -0.000893105 -0.000165539 -0.00144595 
26.982 1 94 13.5915 10.5209 0.302166 -3.44529 -1.71644 -2.93496 0.296487 -0.263849 -0.144695 -5.92802 -5.40415 -54.183 -0.52989 -0.974629 -19.7521 -0.00109394 -0.000203789 -0.0181077 
26.982 1 96 11.5971 10.3123 2.4214 -5.58558 5.59393 -1.94506 0.138498 0.120946 -0.188321 1.25038 -5.25684 -73.0054 0.427518 1.21026 -24.1556 -0.00250368 0.00270084 -0.00992452 
26.982 1 54 13.6722 6.15321 0.256973 -1.5089 4.74187 -6.51181 0.385826 0.63084 0.512098 -11.1456 10.3073 -74.2906 -1.59704 2.56357 -20.3979 0.000829944 -0.00157544 -0.0170342 
26.982 1 60 15.7237 6.24724 2.22929 -5.55332 0.598458 1.1674 0.167884 0.295134 0.0698734 -4.36133 3.26105 -51.1121 -1.25588 1.12523 -20.9639 0.00297739 0.00276399 -0.0111083 
26.982 1 99 17.7483 8.17957 2.32782 0.285764 1.9879 -6.85362 0.729419 0.400067 -0.0295005 1.24326 9.87304 -57.9504 -1.60221 2.84604 -21.7956 0.00249767 0.000811322 -0.0156738 
26.982 1 258 18.1022 6.27898 4.25398 4.68676 -2.27157 0.190052 -0.247961 0.169062 -0.0700575 0.408611 0.69234 -7.80998 -0.0553113 0.103267 -3.60023 -0.000228075 0.0011798 -0.00422006 
26.982 1 298 18.0704 10.1587 4.40454 0.36285 -0.0199001 -3.55889 -0.0330302 0.169776 -0.356664 -0.0242317 1.52159 -14.3307 -0.20464 0.421586 -5.37997 0.000204332 -0.000208538 -0.00437486 
26.982 1 301 20.1737 8.35739 4.38402 -3.31374 -1.95664 2.14688 0.184632 -0.605632 -0.166026 0.745652 1.17015 -11.5524 -0.014495 0.2933 -3.94419 0.000357263 -0.00164334 -0.0039671 
26.982 1 64 20.2188 6.23164 2.30023 6.88031 -3.01406 -1.06004 -0.215418 0.4004 0.212723 6.20756 2.31568 -55.6306 1.08516 -0.903281 -19.9765 -0.00330817 0.00530279 -0.0100681 
26.982 1 103 22.4291 8.08615 2.44827 2.71672 0.296722 1.53113 -0.281259 0.699034 0.149585 1.09938 8.01212 -68.3533 0.914745 1.33497 -21.911 -0.000269221 0.00213115 -0.00960552 
26.982 1 262 22.4512 6.31129 4.43487 -1.99098 0.557361 1.66421 -0.0790615 0.484129 -0.39287 0.438759 0.548736 -11.3494 0.249164 -0.179297 -4.18799 0.000258752 0.00154665 -0.00218909 
26.982 1 102 22.4198 10.1541 0.473245 -3.01031 3.62362 1.64656 -0.0866362 0.0563227 0.137102 3.29592 1.14606 -23.6552 0.467901 -0.277772 -12.8478 -0.0023835 -0.00210008 -0.0168955 
26.982 1 108 24.4107 10.2781 2.52147 -0.901705 -5.05974 5.62771 0.507005 0.0289472 -0.3065 -10.7858 8.44652 -72.0061 -2.00832 1.55064 -22.8353 0.00339023 -0.00306973 -0.0108604 
26.982 1 62 22.4051 6.3332 0.442016 -1.73297 -1.39209 7.4644 -0.0721442 -0.306832 -0.481725 0.493537 10.3469 -59.4066 0.568475 1.32783 -19.7039 0.00270934 0.00272309 -0.0175822 
26.982 1 305 24.5987 8.27613 4.58187 -3.25963 -3.22063 6.80399 -0.00662528 0.0421491 -0.212032 -0.0376622 0.828249 -13.0804 0.156003 0.0267116 -4.43397 0.000429783 -0.000268772 -0.00288883 
26.982 1 68 24.64 6.29565 2.3213 2.12005 1.20006 -4.89539 -0.240615 -0.048074 0.168454 2.59487 1.58299 -63.8328 1.71473 -0.969518 -23.4419 0.00262869 0.00137073 -0.013618 
26.982 1 107 26.6543 8.32358 2.53563 -1.20523 -4.72732 -0.281225 -0.12198 -0.0938466 -0.413458 7.11879 -6.6682 -68.43 2.42937 -3.12059 -23.9668 0.00011849 -0.000163138 -0.0163381 
26.982 1 266 26.6658 6.14789 4.23924 3.53059 0.223909 1.28609 0.117366 0.187136 0.436825 0.846944 0.449738 -13.284 0.310506 -0.138542 -5.36819 0.000234782 0.00130306 -0.00319238 
26.982 1 72 28.8882 6.24673 2.30941 0.219291 -2.96759 -0.402166 -0.188825 0.0557404 0.313039 -5.82712 8.89529 -70.0162 -1.23623 0.833668 -26.899 -0.00411659 0.00143424 -0.0135388 
26.982 1 112 28.6288 10.2647 2.3791 10.6163 -1.14894 -0.171614 0.599565 0.166471 0.0197916 -3.20638 -12.3694 -57.0547 -0.898039 -2.98301 -20.806 0.000815488 -0.000453896 -0.015663 
26.982 1 306 26.7864 10.3292 4.44747 -2.57962 2.01226 -3.08208 -0.223232 -0.0938049 0.163253 -1.00904 -0.336627 -11.6576 -0.135507 -0.114392 -4.17158 0.000192372 -0.000713476 -0.00267704 
26.982 1 309 28.7808 8.20669 4.43055 -2.23255 0.761608 2.76991 0.543238 0.299836 -0.278204 -0.394893 -1.01971 -13.8895 -0.0715332 -0.500367 -5.22077 0.000753682 0.00159174 -0.00375818 
26.982 1 111 30.983 8.26366 2.31767 3.23761 3.1015 -7.2431 -0.238631 -0.158698 0.398342 -5.71563 -5.0183 -63.6641 -1.19162 -2.96776 -23.3959 -0.00500929 0.00455129 -0.00992647 
26.982 1 270 31.0913 6.31316 4.2939 -0.243765 -3.13492 -1.73322 -0.279635 0.12989 0.0229137 -0.595589 1.08139 -11.2593 -0.233086 0.125807 -4.98106 -0.00135035 0.0012511 -0.00210941 
26.982 1 70 31.0031 6.28979 0.409958 0.685728 1.72276 -0.40251 -0.0280354 0.393306 -0.129043 -11.9877 16.0064 -85.2947 -3.87952 3.21394 -20.6067 -0.00704697 0.000510363 -0.0184089 
26.982 1 313 33.3331 8.23382 4.48969 3.55472 -1.66854 3.64879 -0.166861 0.0749219 -0.738943 -0.00652482 0.159568 -11.6842 -0.136253 -0.0342416 -4.60257 -0.000411516 0.00126244 -0.00217491 
26.982 1 76 33.0907 6.33026 2.31147 -1.1134 -0.959974 3.44485 0.583843 0.0132492 0.466074 4.80391 5.27301 -60.969 -0.293792 0.845305 -23.457 0.000772797 -0.000175903 -0.00429465 
26.982 1 115 35.4206 8.17643 2.34 -2.30866 -3.34399 1.07892 -0.400388 0.23337 0.0860094 -7.26637 -1.73097 -60.0589 -3.39107 -0.0167009 -20.9514 -0.000463145 0.000917869 -0.00484877 
26.982 1 274 35.5078 6.25785 4.39536 0.178518 -0.167982 -0.617941 -0.42012 0.27911 -0.162112 0.613767 -0.885412 -12.269 -0.162048 -0.226144 -4.27566 -0.000486628 0.000434381 -0.00120504 
26.982 1 317 37.5629 8.3616 4.25492 -0.248225 -2.05048 -4.9679 0.0766053 -0.07057 0.44883 0.768074 -0.922969 -10.0636 0.212101 -0.142185 -3.42561 0.0012498 -0.000886578 -0.000251274 
26.982 1 74 35.4486 6.37226 0.234775 -4.25884 1.36499 1.32639 0.04511 -0.0609985 0.117286 10.1206 -6.79814 -54.3317 1.32764 -2.27549 -19.8414 0.00353752 -0.00241146 -0.0173118 
26.982 1 114 35.299 10.3117 0.476749 2.36555 -3.87775 -1.8682 -0.100401 -0.120789 -0.439452 -1.43367 7.06102 -69.1926 -1.38412 1.74364 -20.4308 0.00208799 0.00280909 -0.0176002 
26.982 1 113 33.2271 8.2784 0.431384 2.38642 -2.88557 0.34987 0.035165 0.0940998 -0.318654 0.476578 6.51687 -50.4175 -0.108595 1.91778 -14.1633 -0.00348421 0.00312425 -0.0176202 
26.982 1 44 41.6961 6.17055 2.26329 5.14814 -5.63717 -4.71709 0.369268 0.363072 0.52011 4.19152 -44.9274 -64.094 -2.5103 -13.1924 -20.5811 0.00317891 -0.00483426 -0.0112391 
26.982 1 117 37.6157 8.45637 0.41892 1.7221 2.28372 -0.256116 -0.429772 -0.0171033 -0.353113 2.89539 3.97386 -113.265 0.78391 1.60456 -38.0157 0.00625114 0.000712363 -0.0182877 
26.982 1 80 37.5617 6.42887 2.33445 2.47795 -1.07254 -0.601084 -0.0768004 -0.621777 -0.228554 0.672744 -18.4838 -63.9036 0.356732 -4.85067 -20.597 0.00364124 -0.00370549 -0.00996144 
26.982 1 119 39.536 8.29068 2.36942 4.70468 -1.47028 -2.14655 0.625105 0.378402 -0.143088 11.9142 4.84827 -61.7151 4.21616 1.35161 -21.3051 0.00492997 0.000353372 -0.0125953 
26.982 1 278 39.7593 6.23037 4.31597 1.86834 0.394234 3.49215 -0.500812 0.117495 0.066611 18.6535 -19.2503 -14.9614 4.99242 -4.95671 -5.00601 0.0028318 -0.00258271 -0.002285 
26.982 1 123 0.94572 12.2813 2.32267 -2.65841 -1.61443 2.14058 -0.409767 -0.203428 -0.271609 -44.9069 -19.3647 -65.411 -15.2979 -3.90072 -21.1569 -0.00532601 -0.00422592 -0.011326 
26.982 1 282 0.806819 10.1727 4.2529 0.976225 -1.23723 0.14366 -0.142397 0.258536 -0.107358 -45.6561 -4.76275 -27.1787 -14.1325 -1.06858 -8.1981 -0.0035016 -0.000615643 -0.00428606 
26.982 1 322 0.838358 14.1718 4.40325 -1.0306 1.10467 -4.57145 0.176018 1.07209 -0.544063 -33.0569 -12.1958 -23.3935 -10.0073 -3.38501 -7.20434 -0.00485861 0.00494398 -0.00318225 
26.982 1 124 -1.26824 14.3764 2.29711 -3.28519 1.28749 -0.0222015 0.163773 -0.60257 0.191971 -51.4252 -24.782 -64.7248 -21.9743 -7.72939 -21.4622 -0.0132236 -0.00172037 -0.00368277 
26.982 1 321 -1.14665 12.3834 4.21403 -2.79884 3.10732 -7.18125 -0.472517 -0.217246 -0.0352981 -23.5571 -20.9541 -31.5923 -8.67923 -8.08758 -11.6874 -0.00853759 -0.00478224 -0.00670532 
26.982 1 325 2.93329 12.2944 4.20749 -1.84372 -1.59566 1.53462 0.118936 -0.211297 0.308599 -7.89302 -1.92858 -11.5349 -2.31591 -0.31471 -3.45556 0.000105213 -0.000929656 -0.00134359 
26.982 1 122 0.936148 14.1445 0.232292 -0.965196 0.435578 7.23148 -0.161439 0.511053 0.294437 -51.1537 -9.41549 -64.9517 -16.0817 -1.95637 -19.7696 -0.0030262 0.000778875 -0.01626 
26.982 1 286 4.97039 10.3658 4.23301 0.373244 -2.30341 0.483017 0.481003 -0.338913 0.36082 -0.595117 0.0822522 -9.43128 0.0604754 0.0530999 -2.82978 0.00144216 -0.00208898 -0.00227058 
26.982 1 88 2.98662 10.1332 2.35412 6.05642 0.0979052 -1.32802 0.14441 0.269166 -0.289296 -19.1681 -3.63143 -63.4122 -5.24304 -1.14729 -18.5765 8.05703e-05 -0.0028348 -0.0142418 
26.982 1 128 2.93331 14.2167 2.23017 -5.29512 1.35 1.85251 0.175895 0.479474 0.405009 -9.47917 0.633379 -56.61 -3.29438 1.45377 -19.2433 -3.68333e-05 0.00456702 -0.00767696 
26.982 1 125 3.04641 12.3681 0.293296 -2.32587 1.22225 1.01822 0.264175 -0.37911 0.171812 -14.0519 -13.183 -82.7421 -4.62222 -1.12586 -31.0008 0.000658604 -0.00649596 -0.0181363 
26.982 1 127 5.12428 12.0981 2.15284 4.22564 5.55029 3.98155 -0.0151561 0.185037 0.158141 -2.0977 -0.115287 -52.3666 0.92867 0.716879 -17.28 0.00435905 -0.00355762 -0.0122501 
26.982 1 326 5.09416 14.0211 4.20885 1.71637 1.89082 2.12271 0.0484856 0.282727 0.0970591 0.11035 0.506188 -9.28456 0.03203 0.121009 -3.16232 0.000660259 0.000404059 -0.00195342 
26.982 1 126 5.15121 14.4121 0.584026 3.53145 -1.92018 1.35311 0.0104437 -0.142207 -0.325472 6.41657 -0.140193 -74.5803 2.12255 0.0763512 -25.7014 0.00101965 0.000700192 -0.0179114 
26.982 1 132 7.2464 14.2414 2.52023 2.54705 -1.96336 -5.11915 0.360384 -0.109574 -0.201795 3.04679 5.34279 -57.336 1.07788 0.195201 -19.4373 0.00377341 -0.00280591 -0.0110987 
26.982 1 329 7.44003 12.2209 4.39787 2.1907 -2.04032 2.50882 -0.298005 -0.0685553 -0.0312336 0.594779 0.0329942 -9.4204 0.369451 -0.0110792 -3.49638 -0.000148571 -0.000370175 -0.00337725 
26.982 1 131 9.51368 12.181 2.47581 0.956736 -0.539809 0.442232 -0.117389 0.550836 -0.457182 5.92351 -2.22927 -61.2768 2.28056 -0.885493 -22.1836 -0.00128922 0.00184002 -0.0165597 
26.982 1 330 9.51812 14.3851 4.36743 6.36636 1.08905 -2.86482 -0.232521 -0.165435 0.0301352 0.391621 0.397436 -11.2533 0.238074 -0.0645299 -4.04278 -0.00061297 -0.000229253 -0.00325543 
26.982 1 333 11.6091 12.3883 4.38585 2.89828 -5.91617 0.926525 0.228045 -0.42094 0.258581 0.728788 -0.510576 -13.0746 0.156089 -0.127895 -4.9511 1.99115e-05 -0.00082428 -0.00162297 
26.982 1 136 11.611 14.2269 2.32679 2.51893 6.12142 -1.84905 -0.0963898 0.319602 0.0727977 0.175428 0.246542 -64.2961 -0.055712 -1.14032 -22.6667 -0.00402375 0.000625138 -0.0139748 
26.982 1 135 13.714 12.183 2.44288 -6.04904 -2.0166 1.90967 0.0412373 0.218231 0.0449094 5.48599 -3.96627 -70.7526 1.08249 -1.43915 -24.6669 -0.00254119 0.00138659 -0.00700771 
26.982 1 334 13.692 14.2766 4.27898 -4.32526 3.29566 -2.96582 0.262621 0.0503355 0.246112 0.116347 -0.634244 -12.5694 -0.0369541 -0.377668 -4.42155 0.000787922 4.06217e-05 -0.000952606 
26.982 1 134 13.7627 14.2232 0.304731 -3.33799 -1.36008 4.09481 0.0535227 0.223503 -0.0325103 -9.27857 -2.75184 -70.3031 -3.03557 -2.47847 -26.2055 -0.00408143 0.00299484 -0.0171178 
26.982 1 140 15.7806 14.3688 2.44174 1.73786 4.20397 2.64798 0.332361 0.083706 -0.0687194 7.37096 -13.1116 -69.1184 2.11308 -4.41735 -23.352 0.000304673 0.00280573 -0.00741895 
26.982 1 100 15.8703 10.3054 2.28566 -2.65883 0.959826 2.21796 0.25017 -0.190466 -0.0387935 0.0599909 10.3195 -71.5739 0.932232 2.40634 -26.0482 0.00414431 -0.003702 -0.0112608 
26.982 1 337 16.1731 12.102 4.15306 0.0760801 -3.6343 -2.26975 -0.619008 0.667896 0.728636 0.583404 0.0851795 -15.6516 0.196112 -0.177366 -5.66973 -0.000862352 0.00158697 -0.000379036 
26.982 1 139 18.1322 12.4014 2.33702 -1.10329 1.96148 -0.909654 -0.000232558 -0.653526 0.182629 -3.10312 3.26444 -78.9659 -1.59269 -0.383176 -27.0982 0.0026822 -0.00498319 -0.0102888 
26.982 1 338 18.1181 14.176 4.47061 -5.4996 -4.64208 -2.58252 0.0889346 0.356583 -0.440489 0.164173 -1.29055 -15.2738 -0.127855 -0.553384 -4.95925 -0.000355915 0.000402973 -0.00251723 
26.982 1 341 20.1934 12.1912 4.33023 0.343486 3.09568 0.195208 0.2126 0.509367 0.161939 -0.248853 0.0689935 -15.8185 -0.3055 -0.159817 -5.07307 0.000495575 0.000776104 -0.0024728 
26.982 1 104 20.1797 10.2667 2.47802 -3.97952 -1.80556 -1.41844 0.0926744 -0.253555 -0.496465 4.40078 6.13043 -72.2344 -0.497896 2.44499 -23.7085 -0.0024581 -0.00213348 -0.0148194 
26.982 1 137 15.8353 12.3721 0.573922 2.61379 5.0115 -0.17419 0.212509 -0.0150575 -0.627949 4.71916 5.32351 -30.3831 1.26851 1.02877 -8.31173 0.00317993 -0.00276534 -0.0177138 
26.982 1 138 18.092 14.1389 0.400102 -1.68762 3.10974 0.405792 -0.210254 0.43232 -0.401913 -3.36625 -0.113343 -28.4602 -2.1956 -0.181212 -12.6765 -0.000403194 -0.00176211 -0.0176545 
26.982 1 302 22.4702 10.2771 4.35652 -0.314859 -0.330395 2.56799 -0.247318 -0.0764171 -0.129258 -0.199091 0.782691 -15.6627 -0.108313 0.16644 -4.71201 -0.000349394 -0.000736645 -0.00253335 
26.982 1 144 20.21 14.3016 2.39793 3.13266 1.28829 -0.283673 0.0650842 -0.419734 -0.125511 -4.76859 3.2112 -76.9136 -2.47862 -0.800379 -23.162 -9.69992e-05 -0.00417375 -0.00702327 
26.982 1 142 22.4714 14.1947 0.340726 2.39736 1.27741 3.85767 -0.164029 -0.382407 -0.195329 5.72729 3.8962 -78.6479 2.64701 0.635737 -31.5974 -0.00268548 -0.00405438 -0.0172851 
26.982 1 143 22.3284 12.3506 2.36241 -7.31362 3.01138 -1.41204 0.175587 -0.219791 -0.0540743 5.01568 -5.93883 -77.9151 0.641586 -2.28673 -23.4948 -0.00214854 -0.00227517 -0.00821402 
26.982 1 342 22.4627 14.3377 4.35757 -0.174107 -2.90886 0.307819 -0.213077 0.112366 -0.0245432 0.588066 0.328459 -15.9946 0.284153 0.0334275 -4.55845 -0.000665007 -0.00018188 -0.000431388 