ITEM: TIMESTEP
3000
ITEM: NUMBER OF ATOMS
4000
ITEM: BOX BOUNDS pp pp pp
-0.683922 41.1839
0.14758 40.3524
0.133494 40.3665
ITEM: ATOMS mass type id x y z vx vy vz fx fy fz xrad yrad zrad vxrad vyrad vzrad fxrad fyrad fzrad 
26.982 1 3 1.33645 0.203295 2.25427 2.52414 2.0556 5.705 0.29905 -0.268914 -0.454496 -7.41008 -17.3561 -7.84472 -4.34241 -10.7776 -6.63602 -0.00449912 -0.0149726 -0.00805367 
26.982 1 8 3.5036 2.1028 2.24527 0.478707 -4.50038 0.104954 0.185528 -0.0500817 -0.463155 0.844651 -15.6035 -12.1161 0.166385 -10.3055 -8.97177 0.00464917 -0.0100253 -0.0109124 
26.982 1 43 1.42472 4.3958 2.15279 3.09014 0.366072 0.859872 0.0236837 -0.418744 0.0657885 -7.37005 -8.13767 -16.2554 -5.48554 -5.22419 -12.9766 -0.00907843 -0.00327972 -0.00572496 
26.982 1 202 1.47876 2.13316 4.00734 -0.234014 1.9761 -0.662438 -0.417161 0.351727 0.225652 -7.27291 -14.033 -10.4081 -4.23065 -8.57144 -7.42702 -0.00843124 -0.00291794 -0.00367153 
26.982 1 241 41.1516 4.28452 3.94626 1.08635 0.113789 1.36098 0.306493 -0.356747 0.783598 -12.6859 -13.5361 -13.9026 -8.26735 -8.72285 -9.74521 -0.000188741 -0.0012786 -0.00140247 
26.982 1 201 41.0626 0.263582 4.26483 -0.482624 0.404613 -2.53354 0.370191 -0.373681 -0.923743 -2.88856 -7.44569 -8.50784 -3.39384 -6.25287 -8.68858 -0.000292833 -0.0112171 -0.0092222 
26.982 1 245 3.48877 4.20523 4.13041 -0.316357 2.73941 -0.885282 0.283608 -0.26696 0.119054 -0.974666 -3.90353 -3.74002 -0.685459 -2.54659 -2.85925 -0.000510453 -0.00231924 -0.00139143 
26.982 1 47 5.74304 3.94459 2.23895 0.785811 -8.23784 0.385941 -0.14005 0.270761 -0.331574 -3.14571 -5.15236 -12.4541 -1.47411 -3.51224 -9.14686 0.000800046 -0.0066983 -0.00841676 
26.982 1 206 5.55513 2.16912 4.22669 -3.4248 1.30671 0.702236 0.299163 -0.227596 0.0188648 -3.95278 -15.0593 -8.59464 -1.86645 -10.6835 -6.02846 0.00482522 -0.0095463 -0.00597101 
26.982 1 815 13.9881 0.237995 18.1516 2.33235 -8.75494 2.31956 -0.200355 -0.502958 0.0846945 2.93671 -24.1447 0.351746 1.38781 -11.3716 -2.96479 -0.000621424 -0.0191218 -0.000181689 
26.982 1 12 7.82349 2.05828 2.01542 2.4374 0.293924 -1.31957 -0.338656 -0.170868 0.319903 -2.4994 -17.6731 -10.5938 -1.72748 -12.4336 -7.8117 0.000228865 -0.0160149 -0.00932573 
26.982 1 249 7.85093 4.06456 4.10457 -0.46542 -1.87085 4.75335 -0.200481 -0.30868 0.343672 -0.377307 -2.29556 -2.15171 -0.241085 -1.85454 -1.8222 2.0564e-05 -0.004372 -0.00119343 
26.982 1 2835 34.8909 20.3089 18.2711 -0.14385 3.61965 3.4112 -0.146855 -0.180563 0.061536 -2.15639 -3.32745 -9.87302 -3.14038 -5.89443 -5.99749 -0.00417395 0.00624467 -0.00470458 
26.982 1 16 11.7535 2.18255 1.97442 0.292847 -0.410282 2.89709 0.46777 -0.379597 0.394196 4.43949 -19.3003 -11.9281 1.27464 -11.4638 -6.80456 0.00182934 -0.0102546 -0.0153275 
26.982 1 51 9.87807 4.0773 2.1466 -2.5697 0.208829 -0.127598 -0.219939 0.164786 0.291987 0.233817 -1.67501 -9.95499 -0.723216 -1.01249 -7.35686 0.00306788 -0.00568358 -0.0101122 
26.982 1 2833 33.0059 20.161 16.1041 0.148495 0.31582 0.483618 -0.575024 0.458718 0.675927 -8.7015 -1.7321 -13.168 -5.80651 -4.2784 -8.18585 -0.00411526 0.00862232 -0.00913416 
26.982 1 210 9.82704 1.9749 4.27775 3.9841 0.631121 0.118816 -0.0830448 0.527209 -0.451065 1.3389 -12.338 -8.03507 -0.0529857 -8.8817 -5.40744 -0.00315107 -0.00839433 -0.00770808 
26.982 1 1161 -0.600856 16.3324 20.0686 -4.31978 4.58737 -1.89182 -0.104934 -0.577171 0.450011 -3.40388 -7.72703 -7.03851 -2.43249 -5.22383 -5.1954 -0.011431 -0.00708245 0.000521449 
26.982 1 253 12.0644 3.92181 4.26432 1.76375 -0.265466 0.0503995 -0.69862 0.428288 -0.349853 0.422761 -2.72442 -2.32197 0.103962 -1.57694 -1.53963 -0.000182495 -0.00207391 -0.00425849 
26.982 1 20 16.0838 2.07224 1.92642 1.23899 0.483015 7.29176 -0.308115 0.333008 1.0335 -6.68067 -19.6186 -9.7189 -2.80383 -11.5654 -6.67508 -0.00491439 -0.0104184 -0.00879312 
26.982 1 55 13.8228 4.23868 1.99936 -1.89689 1.08356 2.74491 0.620914 -0.538778 0.446148 -0.443986 -7.25801 -11.838 -0.140359 -2.88013 -8.12098 0.00120411 -0.00390755 -0.0162096 
26.982 1 2827 26.5995 20.2521 18.248 -1.13987 2.50769 1.70977 0.230728 0.363065 -0.239075 -7.66068 -3.5316 -12.9815 -6.54861 -5.99841 -7.97761 -0.00666965 0.00793018 -0.00701466 
26.982 1 214 14.0505 2.30055 4.08686 5.21344 -4.32225 1.58168 0.219559 -0.846133 -0.0408399 2.15957 -15.7735 -8.9157 0.850226 -9.18597 -4.93409 0.00274419 -0.0106517 -0.00728018 
26.982 1 257 16.1808 4.0083 4.17889 -2.35074 2.7131 -1.53355 0.0529292 0.267515 -0.0985159 -0.451866 -3.83042 -1.72997 -0.141308 -1.97402 -1.33192 -2.27686e-05 -0.0027115 -0.00372461 
26.982 1 213 11.8039 0.163281 4.01724 -4.32788 -0.905836 -0.488293 0.738506 -0.0412424 0.485935 0.934648 -12.8434 -13.3411 -0.717683 -8.53998 -7.77136 0.00159409 -0.0122369 -0.0126643 
26.982 1 1000 36.9117 18.2869 18.2677 -2.62119 2.68433 -3.60397 0.20397 -0.188236 0.150067 -1.03388 10.9887 -2.00468 -2.64139 7.04187 0.175074 -0.000377972 0.000183285 0.000372893 
26.982 1 999 38.9591 16.2271 18.2193 -0.6195 1.35998 0.985714 0.559482 0.1414 0.152529 4.24283 -0.618195 -3.28497 3.71658 -0.498546 -3.00095 0.00441837 -0.00112631 -0.00275882 
26.982 1 2829 28.3785 20.2127 16.0592 2.95441 -0.966661 -0.966486 1.02455 0.373741 0.362632 0.488638 12.5448 -10.7746 -1.03244 4.12 -6.71748 0.00119811 0.00485463 -0.00387058 
26.982 1 218 18.2208 2.10319 4.19163 1.62702 0.159634 -0.487763 -0.0562917 0.0254328 -0.302109 -1.7414 -14.5545 -4.62102 -0.301428 -8.98516 -3.32869 -0.00387143 -0.00840182 -0.00657135 
26.982 1 18 18.0435 2.15994 0.198021 -5.83319 1.14033 0.609914 0.709554 -0.0668046 -0.425105 -2.54831 -11.7394 -23.7653 0.105169 -7.34408 -15.9587 -0.00216658 -0.00369009 -0.0132275 
26.982 1 59 18.2589 4.09123 2.12039 -1.6896 -1.48656 4.68808 -0.185228 0.236891 0.280757 0.00017605 -2.6253 -8.00958 0.78235 -0.953167 -6.80812 -0.00052865 -0.0023357 -0.00904813 
26.982 1 998 38.9734 18.2066 16.3695 -2.77539 9.4588 -0.205186 0.309992 0.250353 -0.584437 2.59676 1.82001 -5.1306 2.49459 0.231927 -2.90446 0.000548482 0.005642 -0.00697448 
26.982 1 2821 20.3053 20.2227 16.2087 4.68651 1.96238 0.802418 -0.132272 -0.184627 0.0936479 1.76977 10.3939 -10.3787 -0.30555 4.07821 -6.1649 -0.0061413 0.00606339 -0.00655156 
26.982 1 24 20.4221 2.1912 2.26624 -4.56508 -0.903377 2.61311 -0.286212 0.128603 -0.262756 0.536252 -15.3773 -6.13009 0.64982 -10.0896 -5.7344 0.00206712 -0.00598506 -0.0108449 
26.982 1 63 22.3368 4.26406 2.01626 -0.197628 0.608381 3.49053 0.0863208 -0.515121 0.531697 0.109578 0.37112 -10.2468 0.13488 0.49845 -8.86416 0.00051104 -0.00626129 -0.012338 
26.982 1 222 22.3777 2.30296 4.24936 -4.91076 0.890346 2.73745 0.161692 -0.189998 -0.381126 -2.8533 -11.4185 -5.21811 -1.23985 -8.10498 -3.97092 0.000216597 -0.00551019 -0.00698242 
26.982 1 261 20.2886 4.39087 4.16656 0.0854661 -1.90525 0.443861 -0.181262 -0.460326 0.246667 0.0118707 -2.42871 -1.49065 0.132545 -1.62498 -1.55861 -0.00089608 -0.00208659 -0.00210755 
26.982 1 28 24.4093 2.13131 2.16698 4.0331 -3.1377 -1.06313 -0.0283073 0.433612 -0.177416 -0.932345 -9.61101 -8.85252 -0.810989 -6.6579 -6.95007 -0.00509313 -0.00568184 -0.0128392 
26.982 1 27 26.4724 0.255412 2.17891 2.56837 -0.49627 0.978882 0.423477 -0.218776 0.320215 7.39184 -24.193 -8.22437 2.05582 -15.8868 -5.70741 -0.000405746 -0.0145211 -0.00927222 
26.982 1 67 26.3992 4.22738 2.15416 3.92878 -7.84912 1.62065 0.203265 -0.577592 0.0385135 0.424025 -0.367133 -11.9884 0.0100909 0.367944 -9.98896 -0.000450565 -0.00321862 -0.0110089 
26.982 1 226 26.5028 2.43737 4.45889 3.87191 6.18446 -4.06553 0.145664 -0.291992 -1.06109 3.98936 -10.0819 -3.48546 1.13325 -6.43531 -2.5848 -0.000526677 -0.00394235 -0.00529383 
26.982 1 265 24.4376 4.3079 4.23941 -1.15782 0.436074 0.171501 -0.116795 -0.338181 -0.113594 -0.0165417 -1.10796 -1.83007 -0.0420232 -0.962764 -1.82388 -0.000844278 -0.00192883 -0.00308939 
26.982 1 26 26.5697 2.15718 0.248809 -4.75657 0.950952 -1.41416 -0.0252002 0.209622 -0.196818 2.08344 -9.16118 -19.4369 -0.188821 -4.46607 -12.9258 -0.0006672 -0.00281801 -0.0166787 
26.982 1 30 30.8486 2.16776 0.0910562 -1.35121 2.65813 -2.30064 -0.440217 0.247559 0.587615 -0.0182449 -15.3863 -23.4247 -1.09588 -7.54126 -16.5374 -0.00344436 0.000973815 -0.0160303 
26.982 1 32 28.7322 2.28068 2.27018 0.968343 1.3874 0.345917 -0.506444 -0.399186 -0.419135 1.63407 -16.8357 -8.90701 -0.219123 -8.37088 -6.8108 -0.00204854 -0.00463286 -0.0120285 
26.982 1 71 30.7356 4.24867 2.15077 -2.00329 -1.97958 -3.07144 0.297486 0.0296025 -0.256683 -0.35428 -2.58541 -8.38622 -1.27683 -1.0726 -6.18963 0.000968019 0.00284535 -0.015024 
26.982 1 230 30.7118 2.39026 4.18929 -6.62409 -3.93813 0.875803 0.344681 -0.246713 0.0884621 -1.58426 -14.7869 -5.63697 -1.21096 -7.68902 -2.94371 0.0004721 -0.00338434 -0.00258219 
26.982 1 269 28.662 4.23372 4.11029 -4.27923 4.54472 -0.659382 -0.0230583 0.178721 0.529287 0.0027576 -2.61597 -1.82675 -0.290859 -1.22243 -1.60902 -0.000488142 -0.00014086 -0.00178781 
26.982 1 36 32.7636 2.4014 2.2681 -2.47122 -2.4567 -0.0609439 0.220969 -0.569501 -0.288974 0.476423 -15.6887 -11.6213 0.256355 -8.34123 -7.10479 0.000725588 -0.00156849 -0.00934988 
26.982 1 2805 3.5095 20.1906 16.0557 -1.24552 -2.00673 -4.98929 -0.148197 0.379986 0.605851 -2.10632 -11.2624 -8.43279 -1.20119 -8.70625 -6.03756 0.00111999 0.00838474 -0.0061668 
26.982 1 273 32.9226 4.38319 4.19307 -2.06293 3.21025 -1.33953 -0.133005 -0.409474 -0.0404113 0.436798 -2.30558 -2.03754 0.226351 -1.07864 -1.0782 0.000441499 -0.0011031 -0.00318623 
26.982 1 229 28.6588 0.203147 4.29507 -0.576336 -2.37392 4.275 -0.127714 0.275312 -0.642921 -0.180311 -2.47389 -4.08418 -0.432141 -4.33631 -3.65114 -0.000789097 -0.0115241 -0.00890114 
26.982 1 31 30.7036 0.26251 2.3237 2.94244 2.27594 -0.865257 0.255439 -0.00602303 -0.27837 -3.62233 -12.2806 -11.82 -2.04442 -11.7007 -7.11605 -0.00200234 -0.0154163 -0.00856571 
26.982 1 997 37.1356 16.2364 16.083 4.93248 -3.30175 -1.53937 -0.321217 -0.30106 0.537369 0.166347 -0.000137624 -0.260886 0.218657 0.00830099 -0.197832 -0.000337284 -0.000336679 0.000666975 
26.982 1 33 32.8241 0.262535 0.146954 -2.54656 -2.14805 -1.23315 0.32084 -0.174857 0.439254 3.62844 -7.86891 -20.4523 0.934513 -7.71612 -12.4415 -8.30329e-05 -0.0105935 -0.0112633 
26.982 1 35 34.9149 0.209205 2.18968 7.67863 -3.61532 2.7584 -0.0636758 0.0596419 -0.113563 0.868028 -22.3495 -14.0363 1.51174 -15.6766 -8.0017 0.00256621 -0.0141535 -0.00735483 
26.982 1 75 34.8844 4.26341 2.02437 2.43767 0.344237 6.68872 0.352145 -0.0368557 0.333962 5.49635 -2.5068 -17.3485 3.70361 -1.34295 -10.1174 0.000796676 0.00241393 -0.0140244 
26.982 1 234 34.9878 2.33743 4.07337 -2.59408 0.987789 1.21818 -0.0582734 -0.0811186 0.369995 -0.00568193 -9.55698 -5.50311 0.764522 -5.61401 -3.05387 0.000951855 -0.00280061 -0.00181958 
26.982 1 34 34.9101 2.17862 0.145666 1.01324 -0.754394 0.602723 0.346986 -0.0286101 0.141785 3.38491 -5.64558 -12.1819 3.03237 -3.29835 -11.9521 0.00407602 0.000775517 -0.0159063 
26.982 1 233 32.8289 0.383235 4.28915 -2.48317 -4.1051 -3.71692 0.0672333 -0.339543 -0.828917 0.440993 -9.17194 -6.16077 0.184376 -9.01735 -4.98166 0.000669162 -0.0113802 -0.00741449 
26.982 1 237 36.9965 0.242788 4.12762 -0.106617 -1.81128 -4.27433 -0.076656 -0.219713 -0.0238194 3.18871 -12.5156 -12.4953 2.11461 -8.32729 -7.76898 -6.47181e-05 -0.0113592 -0.00703238 
26.982 1 4 -0.661547 2.12851 2.03899 -3.74178 -1.68518 -2.55085 -0.169192 0.460776 0.341893 -6.83696 -14.3475 -15.7906 -3.13207 -8.67249 -11.2799 -0.0140861 -0.00280881 -0.00473515 
26.982 1 40 37.0952 2.34528 2.22228 1.60806 -2.13205 -5.43502 -0.105419 -0.247341 -0.414953 6.24589 -11.8316 -21.3149 4.34477 -7.17757 -12.2655 0.00252441 -0.00360697 -0.0137374 
26.982 1 79 39.1761 4.39984 2.08609 -2.65857 2.24985 0.509161 -0.128087 -0.725755 0.169923 -3.08355 -6.42977 -19.7073 -1.6084 -3.4144 -12.614 -0.000429138 -0.00515411 -0.013404 
26.982 1 238 39.1199 2.27262 4.19388 0.786234 -1.31775 2.823 0.047722 -0.384119 -0.56192 0.652459 -13.5703 -10.5116 -0.144364 -8.36484 -6.65778 6.22816e-05 -0.00316781 -0.00504761 
26.982 1 277 37.1631 4.31358 4.11764 0.0365597 -2.00575 -3.50411 -0.481559 -0.443047 0.197137 0.520773 -2.3998 -4.85865 0.414845 -1.4345 -2.94571 -0.000925542 -0.00183632 -0.00249453 
26.982 1 2801 41.0966 20.2398 16.2861 3.37268 0.962772 -0.741919 -0.22506 0.0384441 -0.469528 -13.9553 -1.48889 -12.5307 -10.2123 -2.36095 -10.1911 -0.0067799 0.00199025 -0.00851784 
26.982 1 2803 1.26949 20.1593 18.0308 -0.968246 -0.849353 -0.986537 0.690701 0.482064 0.835562 -13.5037 -17.388 -6.86824 -9.30868 -10.8848 -3.57274 -0.00832842 0.0090862 -0.00608047 
26.982 1 637 37.1075 0.261957 12.0307 0.290183 2.80293 3.13988 -0.111755 -0.651747 0.23427 1.30713 -10.6963 -6.5887 0.509214 -4.08711 -3.88798 -0.000407462 -0.0136426 -0.0111436 
26.982 1 83 1.4688 8.08539 2.31068 -2.37013 -3.04778 -3.5494 0.159757 0.137523 -0.31401 -12.7135 -1.85554 -14.6048 -7.22126 -1.50648 -12.4492 -0.00903584 -0.00317537 -0.00812446 
26.982 1 242 1.62393 6.24221 4.29001 -1.35777 -0.711926 4.02994 -0.466562 -0.24233 -0.323243 -12.8753 3.08142 -8.62288 -7.30903 1.37459 -5.79046 -0.00878252 -0.00300053 -0.00478482 
26.982 1 44 41.1197 6.3053 2.18437 4.03145 -0.741363 0.361214 0.304542 0.178593 -0.0363638 3.96111 -13.4856 -14.3118 -0.602748 -7.24208 -11.6629 0.00439036 -0.00452178 -0.0109271 
26.982 1 281 -0.669458 8.31975 4.19544 -2.20423 -0.672387 -0.474746 0.058421 -0.402699 -0.240671 -0.321089 -3.09214 -4.79948 -2.07705 -2.65818 -4.4621 -0.0090918 -0.00952749 -0.0101466 
26.982 1 48 3.73258 6.06928 2.22917 0.478996 6.68199 1.66485 -0.461501 0.0946221 -0.305133 -5.45465 -0.532627 -14.8062 -4.00205 0.107121 -11.513 -0.00277503 -0.000836508 -0.00602124 
26.982 1 285 3.65007 8.06181 4.14186 2.70239 -2.7327 1.89058 -0.279445 0.572231 0.11653 -3.02269 0.0191362 -3.49187 -1.67909 -0.0676563 -2.72199 -0.00109265 0.00194097 -0.000529158 
26.982 1 46 5.62139 6.06722 0.141457 -1.25349 -0.657598 -1.85642 0.452729 0.0102639 0.216497 -3.04354 1.30416 -28.2185 -1.65357 1.21064 -18.8538 0.000761835 -0.00150239 -0.0178032 
26.982 1 52 7.71828 6.02079 2.32432 -3.45662 -2.1619 3.83515 0.0249685 0.382844 -0.467923 1.48558 2.42008 -12.022 0.970371 1.52707 -9.44592 0.000685682 -0.000390661 -0.00559076 
26.982 1 87 5.55254 8.08792 2.23521 4.5371 1.99459 -0.278599 0.47796 0.114306 -0.142647 -0.731884 2.61889 -14.4573 -0.534092 0.924774 -10.3803 0.00122965 0.00110969 -0.0048811 
26.982 1 86 5.52003 10.0603 0.289478 -5.56347 3.68898 4.16353 0.15108 0.600084 -0.193123 -2.39304 -1.59719 -12.557 -1.60772 -2.31451 -12.5664 0.00232193 0.00335389 -0.0187753 
26.982 1 246 5.67669 6.07526 4.16089 2.12544 1.33819 -2.82467 0.19903 -0.0548507 0.114427 -0.257614 -0.0287705 -1.97927 -0.147045 -0.00429601 -1.64558 0.00124121 -0.000585817 -0.00023456 
26.982 1 289 7.78888 8.17678 4.12257 0.204288 0.240605 3.56263 -0.100235 -0.367539 -0.16193 0.353124 0.22122 -2.82572 0.246893 0.0609913 -2.16644 0.00018088 -0.000212158 -0.000794197 
26.982 1 286 5.61383 10.1071 4.11579 -2.53392 0.200948 2.43525 0.00638525 0.161795 0.287469 -0.31985 -0.00422794 -2.87338 -0.175882 -0.108691 -1.82779 0.000206924 0.000984006 0.000290738 
26.982 1 56 11.8585 6.07941 2.27882 0.98524 3.08614 -1.01106 -0.159923 0.100663 0.0347842 -1.25484 5.1022 -14.3572 -0.384648 3.42474 -10.321 0.00282322 -0.00290204 -0.00969768 
26.982 1 91 9.87295 8.10604 2.09852 7.50578 0.539458 0.673907 -0.191035 0.202275 0.413434 2.64654 1.94428 -18.6165 1.20979 1.03669 -13.1061 0.000865391 0.00122022 -0.00499844 
26.982 1 250 9.84049 6.09813 4.29024 -1.43249 0.440933 -1.57249 0.0568535 0.19915 -0.509579 0.254539 0.558682 -2.19893 0.0908124 0.371395 -1.76869 0.000348309 3.64189e-05 -0.00198558 
26.982 1 293 11.878 8.1083 4.29056 -0.619466 -2.66834 0.323558 -0.128345 -0.536201 -0.772761 -0.323346 0.276537 -3.65053 -0.193466 0.148768 -2.5887 0.000136219 -0.00136523 -0.00334845 
26.982 1 50 9.63609 6.11447 0.227673 1.50275 2.94059 3.7272 0.357209 -0.160049 -0.117116 2.51171 4.50095 -18.4089 0.581826 2.87157 -12.1168 0.00460045 -0.00358944 -0.017867 
26.982 1 95 13.7902 8.08631 2.04096 -0.94725 -2.63935 1.21928 0.572784 -0.0149811 0.441514 -4.19512 3.10758 -15.7767 -2.17451 0.657784 -11.149 0.00180294 7.82021e-05 -0.0106626 
26.982 1 254 14.1335 5.93941 4.23295 0.624678 1.5757 6.00178 -0.141666 0.451095 -0.244704 -0.395328 0.0749461 -1.80978 -0.167272 0.136823 -1.55891 0.000813901 0.000782029 -0.00355801 
26.982 1 427 26.6615 0.0944132 10.2539 2.65659 -4.54674 5.00685 -0.33248 0.291037 0.226449 3.84739 -11.5146 -5.44105 0.841184 -2.61192 -5.18848 0.00179709 -0.0157849 0.00278028 
26.982 1 96 11.8336 10.2006 2.33068 -0.270148 -1.45301 -1.27477 -0.194915 -0.119175 -0.788263 -0.259825 -3.86981 -18.3358 -0.853368 -2.09942 -12.381 0.00241121 0.00206307 -0.0122907 
26.982 1 100 15.9997 10.1584 2.15496 -1.7624 -7.5122 1.21584 -0.0605663 0.533542 -0.0692169 0.155655 3.31547 -16.7403 -0.184752 1.13145 -10.4299 -0.000250804 0.0045832 -0.013496 
26.982 1 294 13.8664 10.0773 4.04289 8.48268 -0.199024 -0.418666 0.631416 0.413426 0.223654 -0.163488 0.223255 -3.33241 -0.117701 0.0284392 -2.09096 0.00178903 0.00180482 -0.00321685 
26.982 1 625 24.5346 0.188369 12.3409 -2.86545 1.50284 2.85427 -0.0152284 0.0663455 -0.665916 -1.49248 -10.713 -8.38576 -0.651102 -4.11539 -4.30691 -0.00147231 -0.0117219 -0.00968233 
26.982 1 60 16.0603 6.08188 2.17298 0.182697 1.82276 3.91973 -0.134031 0.0560627 -0.0986613 -0.549073 1.04773 -9.28909 -0.340458 1.12909 -7.96565 -0.00321407 -0.00310299 -0.0102656 
26.982 1 297 16.0944 8.29163 4.05843 1.17507 -1.23678 2.89918 -0.451012 -0.819672 -0.0270354 -0.112715 0.592922 -2.12221 -0.106841 0.198072 -1.65934 -0.00148385 -0.00175023 -0.00272848 
26.982 1 99 18.099 8.20784 2.13389 -1.01886 4.11348 0.873219 0.151204 -0.129848 0.112869 2.55477 3.46991 -13.8454 0.395071 0.564788 -9.14384 9.87941e-05 0.00306455 -0.00886822 
26.982 1 258 18.0269 6.22627 4.20906 -2.47834 1.57445 0.371925 0.348534 -0.245147 -0.0292115 0.304513 0.397794 -1.22526 0.13905 0.17029 -1.27288 0.000301994 -0.00132522 -0.00126431 
26.982 1 301 20.0181 8.27603 4.05292 -3.1942 -2.34043 -0.336869 0.589519 -0.280042 0.331783 0.396509 0.463374 -3.23343 0.165582 0.0244462 -1.86811 0.00105166 -0.000384777 -0.000861962 
26.982 1 298 18.1186 10.2763 4.19436 4.27902 -7.74194 -2.35707 -0.00774808 -0.0300252 -0.375824 0.262376 0.439323 -3.56246 0.0168776 0.115788 -1.89024 7.7674e-05 0.000771677 -0.00421685 
26.982 1 101 20.1986 8.12631 0.158531 1.06923 4.9032 -5.7952 0.106721 0.191568 -0.103759 3.21815 -0.887234 -12.5757 1.98994 -2.0396 -12.548 -0.00018659 0.00506188 -0.0174432 
26.982 1 64 20.3999 6.20316 2.17254 1.749 6.40189 -4.70635 -0.578918 0.170942 -0.166324 2.14084 3.37992 -12.9006 1.36813 0.613539 -9.81348 -0.00119712 -0.00229018 -0.0076659 
26.982 1 103 22.3428 8.26159 2.14624 -2.34895 2.6088 7.00439 -0.0980186 -0.15355 0.0402029 0.0693055 3.33437 -19.1915 0.190344 0.40789 -11.6095 -0.000528576 0.00274498 -0.00756008 
26.982 1 262 22.3041 6.27154 4.23079 0.722772 0.52085 -0.118172 -0.0297542 0.0157131 -0.114067 0.0561087 0.656739 -2.5567 0.0653414 0.128685 -2.05057 -0.000658636 0.000182686 -0.0013418 
26.982 1 105 24.5001 8.26909 0.262404 -4.60545 2.60826 2.82964 -0.0514384 -0.410292 -0.186456 -0.767349 -1.77139 -12.4579 -0.25375 -2.47948 -12.4972 0.00151618 0.00331673 -0.0177882 
26.982 1 302 22.3789 10.2742 4.1397 2.22303 -5.04852 4.59606 -0.0984403 0.0919011 0.128964 -0.135373 0.218462 -4.62774 0.0579061 0.0854421 -2.44319 4.92841e-05 0.00082587 -0.00162722 
26.982 1 621 20.2356 0.0682387 12.4461 4.02733 -7.38379 3.16907 0.261741 0.490001 -0.796326 2.29096 -10.6861 -9.58594 0.956426 -4.11907 -4.83942 -0.000725451 -0.0110406 -0.0134153 
26.982 1 68 24.414 6.15243 2.25883 0.560526 0.399631 -1.27566 -0.0788534 0.42087 -0.227948 0.0806497 3.12256 -14.792 0.232445 0.433192 -11.1606 -0.000370073 -0.00128223 -0.00849405 
26.982 1 107 26.7231 8.2149 2.30947 3.0419 -1.15595 0.379098 -0.786918 -0.465442 -0.673005 0.729912 -1.22172 -16.9308 1.19447 -1.84103 -11.3962 0.000718648 0.00150181 -0.0109742 
26.982 1 266 26.6521 6.08721 4.15 -3.66306 -0.303686 -3.73461 -0.211067 0.47882 0.382193 0.110269 0.398633 -2.64185 0.0655325 0.0912149 -2.23955 -0.000132361 0.0020805 5.93396e-05 
26.982 1 305 24.5089 8.15683 4.19874 -1.05243 1.2557 1.15844 -0.107047 0.312222 -0.055471 -0.226076 0.372714 -3.64328 -0.023753 0.0465184 -2.21524 0.000259354 0.00137474 -0.00125172 
26.982 1 605 3.35601 0.220046 11.989 1.65511 -4.24834 -3.36626 -0.0624509 -0.0628345 0.492899 -3.03843 0.398178 -3.54856 -1.75226 0.185018 -2.36387 -0.00167664 -0.0124963 -0.00509177 
26.982 1 306 26.6126 10.1308 4.06761 -1.7135 3.96294 -1.19323 -0.351818 0.36314 0.319506 -0.441453 -0.149304 -2.72864 -0.227091 -0.110735 -1.72716 -0.00146504 0.00111725 -0.00197699 
26.982 1 72 28.6315 6.00708 2.1089 -5.47535 -1.02727 -1.92815 0.175861 0.71819 0.0725151 -2.18157 4.34319 -14.2822 -2.25625 2.09016 -10.8625 0.00311288 0.00113456 -0.014871 
26.982 1 407 5.47008 0.221533 10.1667 0.716995 -1.58485 4.09828 0.362188 -0.585642 -0.256497 5.04855 -4.20595 -7.08163 2.72611 -3.10901 -3.94421 0.00434209 -0.0178542 -0.00511858 
26.982 1 111 30.7709 8.06452 2.13716 -1.89652 -3.174 1.19001 -0.0199097 0.320895 -0.383576 -1.73393 -0.00093909 -14.4616 -1.97399 0.0265034 -9.181 0.000421931 -0.00171486 -0.015785 
26.982 1 270 30.8137 6.21347 4.08917 0.615794 2.49564 3.49906 -0.0543719 -0.165631 0.17992 -0.0581357 0.494575 -1.80237 -0.270284 0.271944 -1.20406 -0.000218501 -0.000399824 -0.00376098 
26.982 1 309 28.7773 8.1918 4.07276 -2.31652 1.30713 -2.54619 -0.291877 -0.188388 0.270246 -0.112126 -0.0960417 -3.03201 -0.162841 -0.197881 -2.1465 -0.000994688 0.00018661 -0.00220168 
26.982 1 112 28.543 10.1027 2.01409 -2.67616 -3.56127 1.09735 0.634732 0.193215 0.17841 -0.644307 -4.13701 -12.7619 -0.329583 -2.66012 -8.67094 -0.000322754 0.00103478 -0.0145647 
26.982 1 76 33.0188 6.2798 2.25428 0.374049 -2.6058 1.07094 -0.378022 -0.0760962 -0.688624 2.74321 2.22101 -12.8349 1.05868 0.98222 -7.3389 -0.000626643 -0.000208859 -0.0171896 
26.982 1 603 1.28332 0.137277 14.2899 -2.71805 -2.62354 -1.81395 0.0420024 0.128836 -0.171288 -15.171 -6.76592 -7.31982 -9.99329 -4.70047 -5.16973 -0.0083695 -0.0116521 0.000446206 
26.982 1 2435 34.7317 20.2684 10.1848 -2.12842 2.30412 -3.06778 0.528587 0.199317 0.0096685 -4.96541 1.18989 -10.2672 -2.10583 -3.56368 -7.17179 -0.00263691 0.0118769 -0.00837032 
26.982 1 115 34.9913 8.20653 2.12729 1.83837 3.04507 0.717218 0.212021 -0.00253398 -0.0957332 -1.29208 -1.93027 -13.4457 -0.310135 0.123268 -8.37566 -0.00155017 0.000566445 -0.0143803 
26.982 1 274 34.9516 6.33134 4.27392 4.10204 0.485184 -0.494594 0.122204 -0.081743 -0.639619 0.438989 -0.378954 -2.86108 0.339796 -0.174791 -1.5095 0.000581313 -0.000413183 -0.00405426 
26.982 1 313 32.8474 8.24854 4.16886 1.06182 3.31198 1.03997 -0.039791 -0.346432 -0.207475 0.0131193 0.0175442 -2.33687 -0.0143332 0.16027 -1.30387 5.67995e-05 -0.000164703 -0.00361762 
26.982 1 117 37.0388 8.21447 0.0798712 -3.10772 -2.13789 -3.58299 0.0297108 0.132218 0.267043 2.89263 -0.197252 -28.1424 1.52744 0.562938 -18.8247 -0.00294103 0.00199087 -0.0174112 
26.982 1 120 37.0646 10.3066 1.94565 -2.38211 -3.64315 0.172573 -0.114971 -0.151912 0.614305 4.14284 3.04758 -15.9274 1.65853 2.18033 -10.4424 -0.000315859 0.00253744 -0.0131216 
26.982 1 80 36.9907 6.22585 2.28055 4.28723 -1.88808 2.70521 0.192878 0.329775 -0.457975 0.701628 -5.52273 -16.6426 1.07625 -3.48156 -10.3371 -0.00185457 -0.00147048 -0.0118862 
26.982 1 119 39.1923 8.37706 2.0172 -4.5231 0.660908 0.630081 -0.201652 -0.259179 0.189368 2.97784 1.31179 -15.7864 2.06357 0.371909 -9.99354 0.00208678 0.00177385 -0.0120113 
26.982 1 278 39.1642 6.25038 4.36044 2.65837 -1.22608 -0.308188 0.508824 -0.0796511 -0.445274 5.75018 -6.00011 -3.90388 3.8282 -3.91849 -2.47085 0.00187815 -0.00103912 -0.00291283 
26.982 1 317 37.3308 8.26885 4.13655 0.207315 -4.52148 1.45371 -0.64515 0.199965 -0.133201 0.385495 -0.455056 -2.43367 0.265788 -0.238639 -1.48263 -0.00139392 0.00086499 -0.00232971 
26.982 1 2431 30.7698 20.2306 10.0153 -1.96635 7.00013 -7.87094 -0.287458 0.134445 0.872625 -7.34711 10.2539 -9.28607 -5.33739 2.64939 -7.09327 0.00214672 0.0109831 -0.00721142 
26.982 1 78 39.0622 6.15822 0.155979 -1.9123 0.0172887 -0.382543 0.205351 0.620248 -0.400215 -0.0693117 -6.53863 -17.6267 -0.152176 -3.52304 -11.6353 0.00199441 -0.00294638 -0.0174548 
26.982 1 88 3.36061 10.3079 2.11854 2.28609 0.486664 -6.29063 0.508656 -0.663107 0.621868 -5.55939 -0.556076 -18.1739 -3.87051 -1.23932 -12.4214 -0.000460999 -0.000990597 -0.00428101 
26.982 1 123 1.49081 12.2821 2.34414 -3.10169 1.65031 3.06761 -0.376987 -0.0877544 -0.0754276 -11.7866 -7.30171 -17.363 -6.60409 -4.14236 -12.4711 -0.00853292 -0.00137073 -0.00423619 
26.982 1 128 3.54363 14.1686 2.2759 0.330875 -2.14796 -1.17856 0.213402 0.330669 0.168056 -3.15537 -0.36967 -14.7157 -1.50815 0.116538 -10.069 0.000407868 -1.06074e-05 -0.00437149 
26.982 1 282 1.48063 10.0692 4.3097 0.57244 3.31301 1.32203 0.085875 0.513465 -0.577208 -13.939 -2.30335 -8.29065 -7.20936 -1.60199 -5.01342 -0.00482371 0.00331704 -0.00291535 
26.982 1 322 1.30102 14.0438 4.45219 -2.04946 -3.29011 2.74423 0.828517 0.202056 -0.548873 -9.74352 -3.4614 -7.21368 -5.02907 -1.53191 -4.08868 -0.00436447 -0.00377907 -0.0024033 
26.982 1 84 -0.455439 10.2352 2.21767 -4.18252 -5.94762 -3.06911 -0.338621 0.194907 -0.0912259 -4.38746 -7.04045 -22.3824 -6.73568 -4.05588 -14.3631 -0.0158688 0.00081157 -0.0075799 
26.982 1 124 -0.553332 14.2382 2.32476 -2.47221 2.3616 -1.17005 -0.265541 -0.264458 -0.00762605 -5.52261 -6.04946 -17.5566 -7.98211 -3.34505 -11.6668 -0.0156904 -0.00766629 -0.0051048 
26.982 1 321 41.1104 12.2531 4.26166 -1.9989 -2.27284 1.61575 0.349757 -0.545091 -0.405646 -5.30625 -4.71197 -7.60724 -5.52445 -3.80315 -5.89124 0.000436579 -0.00375636 -0.00321022 
26.982 1 122 1.4492 14.3651 0.329202 0.21042 0.299951 -3.00896 -0.0502501 -0.437958 -0.395521 -14.3187 -2.83854 -15.1738 -8.6605 -1.72234 -10.8676 -0.00511411 -0.00390013 -0.0175503 
26.982 1 125 3.48368 12.2982 0.389128 1.46791 -3.31686 -4.79526 0.256029 0.0775443 -0.94384 -3.62154 -5.94312 -18.1769 -2.83291 -3.48006 -12.1313 -0.000167208 -0.000225572 -0.0186643 
26.982 1 325 3.68953 12.0991 4.24507 -3.97771 -0.955294 -0.508143 -0.414003 0.290224 -0.059275 -2.43449 -0.831742 -3.42438 -1.21751 -0.417677 -2.19273 -0.000914383 0.000561376 -0.000708775 
26.982 1 127 5.75009 12.2474 2.1875 1.32025 2.51211 -0.29206 -0.860792 -0.229083 0.095908 -1.8383 -1.33382 -13.8478 -1.09209 -0.171477 -8.89004 0.00110635 -0.000121888 -0.00680066 
26.982 1 326 5.53492 14.3617 4.29115 3.96676 0.166411 -1.69038 0.289427 -0.432241 -0.36228 -0.109769 0.0888369 -2.26443 0.0302083 0.223179 -1.71516 0.000913399 -0.00103488 -0.00130559 
26.982 1 126 5.6794 14.2442 0.166386 -1.57869 -0.727132 0.293947 -0.430027 0.105037 -0.12696 0.361192 -0.54627 -18.3569 1.20136 0.870808 -12.1141 0.00165637 -0.00252488 -0.0178912 
26.982 1 92 7.53068 10.2712 2.10832 -2.37612 4.08865 3.57635 0.619498 -0.511285 0.118936 0.875894 -2.09943 -15.4072 1.24223 -1.97716 -10.4176 0.00182114 0.00167447 -0.0076535 
26.982 1 2629 28.7121 20.1715 12.1818 1.27642 2.27908 0.889645 -0.250378 0.248018 0.0994722 -7.93002 -2.20426 -14.8313 -5.46903 -5.27998 -10.3804 -0.00654755 0.00641363 -0.00679662 
26.982 1 132 7.52883 14.1235 2.08718 3.16602 2.73792 -3.98782 0.782972 0.696586 0.450666 0.321994 1.78171 -13.3252 1.08207 2.21757 -10.4847 0.00155645 -0.00144821 -0.00712015 
26.982 1 329 7.78416 12.1404 4.20476 3.64609 -4.81443 6.40791 -0.454873 0.109717 0.100429 -0.0137917 -0.136368 -2.15691 0.124523 0.0183647 -1.56597 -0.000860774 0.000402711 -0.000713515 
26.982 1 131 9.64838 12.13 2.17987 0.190048 2.01831 -1.5296 0.30424 0.0465136 -0.148484 0.796855 -1.46883 -13.7806 1.02776 -0.0241955 -10.5763 0.000705615 -0.000468809 -0.0103968 
26.982 1 290 9.7957 10.1396 4.18645 3.10134 1.46669 3.768 0.0742101 -0.178556 -0.370505 0.220164 -0.35038 -3.3887 0.171605 -0.234334 -2.39187 0.00010922 -0.000328996 -0.00260495 
26.982 1 330 9.6433 14.1596 4.18827 -1.49057 0.213198 0.636279 0.292437 -0.0406705 -0.197991 0.0731875 0.188896 -2.37424 0.0553703 0.238157 -2.23394 0.000624232 0.000226496 -0.000956364 
26.982 1 134 13.8252 14.3047 0.164929 -1.3895 -3.63784 -3.86236 0.23003 -0.0933606 -0.13271 -2.3917 1.92834 -12.6454 -2.5812 0.634242 -12.554 0.00165533 -0.00743624 -0.0176844 
26.982 1 136 11.7214 14.1009 2.04457 1.89899 -0.431081 -3.93866 0.392437 0.310329 0.279635 0.995973 1.50965 -14.937 -0.940814 1.17023 -11.3395 0.00138621 -0.00345313 -0.00775292 
26.982 1 333 11.8009 12.3559 4.04878 0.248286 1.09159 0.879103 -0.122931 -0.596007 0.569965 0.230625 -0.190184 -2.73644 0.0241723 -0.0303916 -2.05861 0.000253158 -0.00101668 -0.00141052 
26.982 1 135 13.9924 12.2177 2.15018 -5.1297 -5.00012 -3.74585 -0.145089 -0.184565 0.171405 2.36402 -0.398072 -16.7954 0.592874 -0.235448 -10.5078 0.00150033 -0.00364062 -0.0132354 
26.982 1 140 16.0074 14.1417 2.14287 0.420941 -1.28106 2.67023 0.216972 -0.0766231 0.137919 2.08876 -2.99721 -17.9042 1.17214 -1.85807 -10.5399 0.00372517 -0.004357 -0.0108461 
26.982 1 334 13.7944 14.1073 4.18188 -4.80641 3.9045 -2.14823 0.393711 0.699154 -0.229334 0.138207 0.0925786 -3.15402 -0.0993711 0.0452475 -1.93406 0.000442365 0.000811964 -0.00179272 
26.982 1 337 16.1464 12.2363 4.35278 -0.779094 -2.39701 2.70249 -0.468966 -0.130878 -0.558684 0.236695 0.2143 -3.71679 0.0725684 0.0306219 -2.1291 -0.000868775 -0.000728841 -0.00427667 
26.982 1 2627 26.4796 19.9911 14.1226 -0.928726 -0.789367 -0.459663 0.14462 0.570977 -0.0805283 -2.57039 7.11445 -10.7608 -3.33141 0.608529 -7.17728 -0.00612627 0.0093566 -0.00981923 
26.982 1 139 18.1798 12.2254 2.04342 2.8484 0.385739 1.11942 -0.407947 -0.350801 0.286257 0.378835 1.76862 -20.6035 -0.517514 1.17924 -11.5239 -0.000995751 -0.000632666 -0.0159323 
26.982 1 144 20.1518 14.2421 2.13768 0.632914 2.29822 4.50225 0.118394 0.11233 0.123216 -0.423793 1.38871 -22.482 -0.333504 1.81924 -12.9018 -0.00235172 -0.00271805 -0.0109447 