ITEM: TIMESTEP
0
ITEM: NUMBER OF ATOMS
4000
ITEM: BOX BOUNDS pp pp pp
-0.0741961 40.5742
-0.0741961 40.5742
-0.0741961 40.5742
ITEM: ATOMS mass type id x y z vx vy vz fx fy fz xrad yrad zrad vxrad vyrad vzrad fxrad fyrad fzrad 
26.982 1 2 1.84279 1.96013 0.159566 -4.40886 -0.206818 -0.10658 0.168987 -0.487847 -0.0965376 0 0 0 0 0 0 -0.00238188 -0.00729143 -0.0125846 
26.982 1 3 1.90381 -0.0710752 2.04086 -0.0691833 -1.2563 0.00319794 0.0916005 0.14849 -0.243939 0 0 0 0 0 0 -0.0035625 -0.0124921 -0.00378563 
26.982 1 8 4.10222 1.9018 2.05726 -5.05544 2.3936 2.67156 -0.445749 0.0804966 0.0675409 0 0 0 0 0 0 -0.000507909 -0.0104455 -0.00663778 
26.982 1 41 0.0102806 4.14768 0.0301089 -3.7193 1.60988 1.59203 -0.647501 -0.653433 0.128937 0 0 0 0 0 0 -0.00713479 -0.00959218 -0.0112783 
26.982 1 43 1.97574 3.92847 2.08793 2.37999 -2.71938 -3.24979 0.0913035 0.25276 -0.263818 0 0 0 0 0 0 -0.00188033 -0.00517849 -0.00712422 
26.982 1 202 1.86518 1.98838 3.98681 -3.58102 2.2695 -3.40085 0.0996936 -0.209673 0.414685 0 0 0 0 0 0 -0.0045236 -0.00953045 -0.00414744 
26.982 1 241 -0.0601434 4.16922 3.9824 0.346566 0.606118 1.60057 -0.675819 -0.673272 0.200727 0 0 0 0 0 0 -0.00856031 -0.00963409 -0.00602626 
26.982 1 245 3.94115 3.96309 4.06306 -2.20953 -0.759472 -0.638866 0.12886 0.00712196 0.167489 0 0 0 0 0 0 -0.000225341 -0.00243267 -0.00102021 
26.982 1 6 6.01071 1.78979 0.0834621 -0.685484 1.06193 2.2978 0.237111 0.444087 -0.472348 0 0 0 0 0 0 -0.00558383 -0.00587023 -0.0136268 
26.982 1 9 8.11103 0.0103845 -0.0335538 2.77792 -2.11972 -1.37678 0.0515996 -0.369402 0.172573 0 0 0 0 0 0 0.00013806 -0.012623 -0.00763407 
26.982 1 12 8.02682 1.84917 2.02225 5.14237 -2.32989 -2.53927 0.0749105 0.332826 -0.0766684 0 0 0 0 0 0 -0.000782835 -0.00913384 -0.00484017 
26.982 1 47 6.02059 3.89637 2.04378 0.801321 0.484882 -6.57004 -0.125908 0.19486 -0.0287845 0 0 0 0 0 0 -0.00348934 -0.00210552 -0.00729648 
26.982 1 49 8.12749 4.01082 0.202628 2.91376 2.30372 3.06506 -0.150904 -0.139568 -0.380263 0 0 0 0 0 0 -0.00113954 -0.00155023 -0.0176284 
26.982 1 206 6.10545 1.95933 4.1405 0.260483 5.31447 -2.48121 -0.516289 -0.182394 -0.251831 0 0 0 0 0 0 -0.00428884 -0.00837848 -0.00469564 
26.982 1 209 8.00547 -0.0708663 3.971 6.6893 -3.07184 1.18193 0.37372 -0.260114 0.199858 0 0 0 0 0 0 -0.000446752 -0.0130997 -0.0101524 
26.982 1 249 7.93792 4.04851 4.04165 0.0397483 1.80142 -0.63612 0.23924 -0.155895 -0.00626392 0 0 0 0 0 0 -9.06855e-05 -0.00162877 -0.000595987 
26.982 1 10 10.1796 1.92565 0.0678928 -0.035861 1.64922 3.68394 0.00153841 0.382435 -0.2428 0 0 0 0 0 0 0.00375552 -0.008331 -0.0136652 
26.982 1 16 12.2977 1.90923 2.00166 -4.85792 3.98359 1.26559 -0.142433 -0.00102855 -0.0396799 0 0 0 0 0 0 0.00333885 -0.0130344 -0.00956939 
26.982 1 51 10.165 4.01916 2.12866 3.40008 6.16038 6.60716 -0.313777 -0.00576978 -0.516277 0 0 0 0 0 0 -6.97647e-05 -0.00209157 -0.00597814 
26.982 1 53 12.3492 3.87042 0.136636 3.2433 5.72722 -3.30084 -0.678517 0.505286 -0.567918 0 0 0 0 0 0 0.00122157 -0.00404932 -0.0177921 
26.982 1 210 10.0713 1.99206 3.79089 -1.34837 -1.37542 -0.286317 0.102147 -0.20714 0.910145 0 0 0 0 0 0 0.000980011 -0.00742776 -0.00305135 
26.982 1 213 12.0705 0.058965 4.04706 -0.236843 -0.421457 1.93659 -0.114144 -0.0378922 -0.0880382 0 0 0 0 0 0 0.000685166 -0.0126424 -0.0124714 
26.982 1 253 12.1055 4.13983 4.07406 3.37527 1.72418 1.98682 0.265306 -0.922954 0.64958 0 0 0 0 0 0 0.000597976 -0.00288828 0.000339613 
26.982 1 20 16.1789 2.08933 1.90137 0.232513 -2.67679 2.7192 -0.234941 -0.430905 0.325959 0 0 0 0 0 0 -0.00559101 -0.0123218 -0.00631385 
26.982 1 55 14.1497 3.96613 2.1551 -8.56106 0.929045 -2.71039 0.195466 0.0774157 0.0159766 0 0 0 0 0 0 0.000404101 -0.00486201 -0.00642181 
26.982 1 57 15.9947 4.0855 0.0528034 0.0775179 2.08154 -1.07782 0.368339 -0.0825265 -0.245173 0 0 0 0 0 0 -0.00192557 -0.00465085 -0.0177462 
26.982 1 214 14.28 1.8797 4.12115 5.17597 3.63084 1.61106 -0.0347436 0.466285 -0.617023 0 0 0 0 0 0 0.00288263 -0.00828996 -0.0072634 
26.982 1 257 16.2558 4.25579 4.04209 0.830671 1.43448 -2.66193 -0.0600983 -0.997819 0.0376834 0 0 0 0 0 0 -0.000359492 -0.00468465 -0.000780224 
26.982 1 218 17.9521 1.9486 4.22096 1.84875 -5.38085 -0.437185 0.588326 0.402678 -0.678102 0 0 0 0 0 0 0.00053721 -0.00792759 -0.00341452 
26.982 1 18 18.2268 1.9223 0.0683529 0.0689733 3.3987 1.59878 -0.0600162 -0.0950955 -0.584195 0 0 0 0 0 0 -0.00469067 -0.00663859 -0.0167407 
26.982 1 19 18.1256 0.0201022 1.99142 -2.89732 -2.21774 4.83985 0.347352 -0.495204 0.0997547 0 0 0 0 0 0 -0.00343236 -0.0165009 -0.000581012 
26.982 1 21 20.1792 -0.0710199 -0.0334818 4.72363 -0.221462 4.18941 0.0420491 0.0144757 0.0732476 0 0 0 0 0 0 0.00172534 -0.0128316 -0.00826043 
26.982 1 22 22.1996 2.04933 -0.0530067 -1.73983 -4.28913 1.47936 0.0793315 -0.321707 0.190515 0 0 0 0 0 0 -0.000280197 -0.00661476 -0.014538 
26.982 1 24 20.3682 1.85448 2.07235 -0.788486 -6.77603 -1.21236 -0.507594 0.190731 -0.0689389 0 0 0 0 0 0 0.00105343 -0.0110909 0.000184474 
26.982 1 59 18.4271 3.76149 1.94837 -4.38744 -1.3457 1.57883 -0.888939 0.497184 0.929545 0 0 0 0 0 0 -0.00278332 -0.00214978 -0.00244259 
26.982 1 61 20.155 3.95443 0.0468585 0.658882 -4.07334 4.29125 0.510867 0.053634 -0.776312 0 0 0 0 0 0 0.00075481 0.000977343 -0.0186798 
26.982 1 63 22.2385 4.0472 1.9419 -2.1414 1.52368 2.75038 -0.210581 -0.232712 0.409174 0 0 0 0 0 0 -0.000463601 -0.00134631 -0.0035892 
26.982 1 222 22.0924 1.98138 4.07004 -8.09486 -3.20614 0.130067 0.89686 0.284106 -0.126976 0 0 0 0 0 0 -0.00140085 -0.008314 -0.00337286 
26.982 1 261 20.2796 4.22846 4.11387 -2.87309 0.633149 -0.188487 -0.131596 -0.992566 -0.479899 0 0 0 0 0 0 -0.0006647 -0.0046021 -0.00109034 
26.982 1 25 24.3251 0.148251 0.0811522 -0.714858 2.32856 -5.48332 0.177179 0.182307 -0.495637 0 0 0 0 0 0 -0.00143372 -0.0133761 -0.0103295 
26.982 1 26 26.429 2.24908 -0.043041 -1.20871 0.164411 1.26105 -0.289297 -0.492436 0.0287465 0 0 0 0 0 0 0.00247607 -0.00724469 -0.0159758 
26.982 1 27 26.3267 0.0925264 1.93987 3.86676 0.660012 2.79788 0.311223 0.445667 0.357505 0 0 0 0 0 0 0.00670201 -0.015902 -0.00415286 
26.982 1 28 24.2094 2.10774 1.98366 3.89313 -1.68851 -0.0353843 0.0712039 -0.226905 0.233364 0 0 0 0 0 0 -0.00144355 -0.0072336 -0.00326336 
26.982 1 65 24.2276 3.9969 -0.0174481 -1.41701 3.67109 0.505021 0.402791 0.148117 -0.0288766 0 0 0 0 0 0 0.000591718 0.00107525 -0.0175604 
26.982 1 67 26.4352 3.94388 2.12804 2.57016 -1.91261 -2.77839 -0.28368 -0.0593458 -0.217211 0 0 0 0 0 0 -0.000186389 -0.00149049 -0.00427519 
26.982 1 225 24.3597 0.0835513 3.96893 3.87394 -1.2516 -0.435426 -0.385967 -0.403805 0.0193096 0 0 0 0 0 0 -0.00296986 -0.0136158 -0.00794023 
26.982 1 226 26.1453 2.03354 4.10892 5.08513 1.92981 2.41828 0.706465 0.254256 -0.408689 0 0 0 0 0 0 0.0046411 -0.00539543 -0.00289318 
26.982 1 265 24.1604 4.06729 3.99018 -0.182125 1.94553 0.24266 0.185357 -0.0430233 0.37796 0 0 0 0 0 0 0.000634566 -0.000766914 0.00073827 
26.982 1 30 30.3392 2.14047 0.0241989 -1.45208 3.39187 -2.21474 0.29279 -0.621641 -0.0950549 0 0 0 0 0 0 0.00194994 -0.0125176 -0.0138716 
26.982 1 32 28.5436 2.02209 1.97598 -2.19982 0.476964 -2.08713 -0.496277 -0.216272 0.481715 0 0 0 0 0 0 0.00196876 -0.0139 -0.00271129 
26.982 1 69 28.4782 4.12557 0.0120201 -5.85134 2.37999 -3.52782 -0.216045 -0.247749 -0.14161 0 0 0 0 0 0 0.000218637 -0.000748886 -0.0173575 
26.982 1 71 30.4536 4.12918 2.06634 -4.35373 -2.52721 0.0182513 -0.102624 -0.180261 -0.118793 0 0 0 0 0 0 0.00083675 -0.00243888 -0.00452062 
26.982 1 230 30.4874 1.98973 4.12457 -1.0621 3.86067 4.37593 -0.524127 -0.248692 -0.145524 0 0 0 0 0 0 -0.000910144 -0.0123458 -0.00452874 
26.982 1 269 28.3906 3.97537 4.12926 -1.19937 -0.61454 0.181423 0.137557 -0.316796 -0.202152 0 0 0 0 0 0 0.000812912 -0.00366517 -0.000655961 
26.982 1 35 34.4374 -0.0353128 2.05899 2.55846 2.49888 0.974594 0.174906 -0.0404147 -0.325191 0 0 0 0 0 0 -0.00247626 -0.0130678 -0.0112867 
26.982 1 36 32.4182 1.99673 1.95676 -3.22957 -4.82087 0.950143 -0.0456675 0.140159 0.276924 0 0 0 0 0 0 9.99494e-05 -0.0122202 -0.00745218 
26.982 1 73 32.4541 3.97698 -0.0642122 2.11376 2.69203 -2.94631 0.144083 0.570333 0.138762 0 0 0 0 0 0 0.00700809 -0.000832765 -0.0170838 
26.982 1 75 34.4423 4.03421 1.96097 0.136572 -1.27461 -3.26954 -0.258831 0.0763409 -0.124986 0 0 0 0 0 0 0.00197034 -0.00125716 -0.0128883 
26.982 1 234 34.4225 1.96088 3.99824 -1.66338 -1.55602 -0.371888 -0.314354 0.33421 0.274132 0 0 0 0 0 0 -0.00334148 -0.00545435 -0.00310619 
26.982 1 273 32.2701 4.02807 4.10894 -0.422922 0.424859 -1.1735 0.707386 -0.00807363 -0.177947 0 0 0 0 0 0 0.00212703 -0.00211624 -0.00159926 
26.982 1 4 40.4324 2.02725 2.0065 2.92717 -4.94033 2.10804 0.29113 -0.350788 -0.0334087 0 0 0 0 0 0 -0.00474963 -0.0135419 -0.0077072 
26.982 1 40 36.421 2.05906 2.02166 3.55783 2.39443 -3.72409 0.197244 -0.455809 -0.620075 0 0 0 0 0 0 0.00291554 -0.00818387 -0.0165912 
26.982 1 79 38.5635 3.88996 1.93285 4.092 5.87411 1.98298 -0.267782 0.546005 0.15615 0 0 0 0 0 0 -0.00390846 -0.00536767 -0.0107249 
26.982 1 237 36.3011 0.0126973 4.02366 0.318718 4.05213 -1.89098 0.626063 -0.267172 0.147809 0 0 0 0 0 0 0.00397676 -0.0123354 -0.00963973 
26.982 1 238 38.5516 2.0335 4.03704 -0.367727 2.56344 -1.41732 -0.187235 -0.156688 -0.263836 0 0 0 0 0 0 0.00209822 -0.00917769 -0.006249 
26.982 1 277 36.4314 3.90348 3.87784 -0.810362 -6.34411 -3.64977 0.127311 0.488707 0.724 0 0 0 0 0 0 0.000379542 -0.0002417 -0.00164939 
26.982 1 42 2.03876 5.83378 -0.0598913 -0.659116 0.752605 -4.58658 0.348317 0.944838 0.451145 0 0 0 0 0 0 -0.000882871 -0.000791752 -0.0135382 
26.982 1 48 3.99238 5.97222 2.04181 0.421469 5.51413 -1.78719 -0.235425 0.0233281 -0.0919271 0 0 0 0 0 0 -0.00246152 -0.00122732 -0.00672999 
26.982 1 81 0.0418889 7.90899 -0.0699944 1.22464 -1.70984 1.39688 -0.0795927 0.0436115 -0.174043 0 0 0 0 0 0 -0.00858061 0.00083663 -0.00983563 
26.982 1 83 1.87218 7.96263 1.91275 -3.3023 -3.8676 -3.20965 0.417514 0.180679 0.337021 0 0 0 0 0 0 -0.0070028 0.00015715 -0.00391305 
26.982 1 85 4.10479 8.02699 -0.0368649 -0.722093 -1.31988 -0.371233 -0.041433 -0.139759 0.0929227 0 0 0 0 0 0 -0.00100161 0.00415845 -0.0163216 
26.982 1 242 1.80494 5.92588 4.10531 -3.0908 -4.11908 2.48682 0.991643 0.751993 -0.220528 0 0 0 0 0 0 -0.00588138 0.00418636 -0.0047695 
26.982 1 285 3.86708 8.03579 4.0023 4.93762 -1.68147 -2.6477 -0.147209 0.108883 0.0294029 0 0 0 0 0 0 -0.00284321 0.000258495 -0.00157232 
26.982 1 46 6.03889 5.99526 0.159907 1.09198 -0.666886 1.12313 -0.0537952 0.0484499 -0.57677 0 0 0 0 0 0 -0.00248074 -0.00146239 -0.0180306 
26.982 1 52 7.96329 6.07241 2.15704 -4.03336 -5.09173 4.41381 0.493119 -0.163204 -0.192353 0 0 0 0 0 0 0.0012367 0.000697037 -0.00545375 
26.982 1 87 6.04801 8.12906 2.10121 0.153894 1.28871 3.37498 -0.355217 0.151957 -0.486853 0 0 0 0 0 0 -0.00164341 0.00340351 -0.0076991 
26.982 1 89 8.10873 8.04116 0.0352069 -0.989009 -2.67139 -1.5835 0.0810601 -0.177322 -0.579599 0 0 0 0 0 0 0.00104471 0.00399137 -0.0180396 
26.982 1 246 5.92794 6.10121 4.03499 -0.823893 -2.85236 -0.629795 0.0704166 -0.271645 0.198762 0 0 0 0 0 0 -0.000861445 -0.000245064 -8.15109e-06 
26.982 1 289 8.06236 8.10676 3.95079 3.73039 1.10981 0.441284 0.366412 -0.159086 0.425137 0 0 0 0 0 0 0.00123177 0.00068947 -0.000430953 
26.982 1 92 8.23902 9.92441 1.82663 -3.47402 2.37535 0.584631 -0.195039 0.633137 0.492088 0 0 0 0 0 0 -0.00015693 0.00197841 -0.00940163 
26.982 1 286 6.06587 10.0195 4.12332 0.931189 0.0573339 -0.464992 -0.36468 0.470903 -0.597401 0 0 0 0 0 0 -0.000608101 0.00175594 -0.00269329 
26.982 1 50 10.0983 5.98555 0.105549 -2.0175 -2.82146 -3.6927 0.277759 0.161469 -0.192247 0 0 0 0 0 0 0.00299638 0.00389475 -0.0174858 
26.982 1 56 12.0726 5.94597 2.233 -4.75092 -4.76023 -2.02278 0.125747 0.586944 -0.836192 0 0 0 0 0 0 -0.000119914 0.00356461 -0.00830092 
26.982 1 91 10.2679 8.05867 2.17272 -0.585353 -2.17962 1.54483 -0.224207 0.0172841 -0.396003 0 0 0 0 0 0 0.00194124 0.00258845 -0.0100708 
26.982 1 250 10.0699 5.89749 4.19947 -4.65804 3.31625 0.593271 -0.0216406 0.682929 -0.204163 0 0 0 0 0 0 1.13763e-05 0.00222277 -0.00048431 
26.982 1 293 12.2587 8.08417 4.07578 -0.601668 1.0985 -6.5304 -0.262905 -0.0735719 0.0373662 0 0 0 0 0 0 -0.000844307 0.000195756 -0.00196067 
26.982 1 54 13.9703 6.10849 0.0531747 -0.186484 -3.81802 6.81383 0.475672 -0.41651 -0.122674 0 0 0 0 0 0 -0.00254328 0.00339063 -0.0177761 
26.982 1 60 16.2153 5.99795 1.9964 0.510374 2.02697 1.94083 -0.19015 0.245176 -0.246948 0 0 0 0 0 0 -0.000982858 0.00113963 -0.00616275 
26.982 1 95 13.957 8.11807 1.79083 -1.06877 -7.48049 -3.54697 0.599715 0.0876587 0.682346 0 0 0 0 0 0 -0.00162581 0.00382494 -0.0110605 
26.982 1 97 16.2059 8.07515 0.0066312 5.7536 3.58018 0.942887 -0.158995 -0.0858812 -0.335874 0 0 0 0 0 0 -0.000415344 0.00654221 -0.0183509 
26.982 1 254 14.2178 6.15626 3.92973 -7.1811 1.48022 -1.00332 -0.113477 -0.105115 0.380346 0 0 0 0 0 0 -0.000816595 0.000518448 -0.000196408 
26.982 1 297 16.1967 8.09481 3.92659 2.79863 -6.40724 0.44192 -0.142023 0.0623839 0.00444866 0 0 0 0 0 0 -0.000924584 0.00120779 -0.00177822 
26.982 1 58 18.1571 5.93916 0.0318735 -3.14661 6.55005 -1.37446 0.0601101 -0.0672546 -0.159355 0 0 0 0 0 0 0.0023644 0.00405694 -0.0185399 
26.982 1 62 22.3301 6.00686 0.0966464 -5.91397 -2.54139 -1.19189 -0.411265 0.345651 -0.497949 0 0 0 0 0 0 -0.000890342 0.00819157 -0.0189693 
26.982 1 64 20.1406 5.94645 2.00198 -0.454859 1.80148 -3.8137 0.188396 0.398867 -0.455973 0 0 0 0 0 0 0.000573131 0.00457079 -0.00896844 
26.982 1 99 18.1419 8.11143 1.8687 -1.94841 -4.96438 -5.49844 0.397068 -0.094829 0.152483 0 0 0 0 0 0 0.00361281 0.00427476 -0.0111295 
26.982 1 103 22.0787 8.05073 2.03319 -3.44051 -2.26646 -0.0217901 0.413114 0.359578 -0.62986 0 0 0 0 0 0 0.000944311 0.00494321 -0.0143376 
26.982 1 258 18.2431 6.05971 3.89116 1.15881 -2.71003 -0.890798 -0.254193 0.252719 0.17457 0 0 0 0 0 0 -0.00130359 0.000866467 -0.000957222 
26.982 1 262 22.1607 6.12699 3.93255 -0.661582 -2.98146 0.0363689 0.405215 -0.18819 0.135669 0 0 0 0 0 0 0.00203909 6.96031e-05 -0.00112123 
26.982 1 301 20.1507 8.08127 3.91679 -1.22559 3.4912 -4.8447 0.0415862 0.327401 0.0611567 0 0 0 0 0 0 0.00012774 0.0026098 -0.00284948 
26.982 1 298 18.2752 10.0813 4.03142 -4.43933 6.12548 -4.2854 -0.149211 0.253089 -0.0261752 0 0 0 0 0 0 -0.000112013 0.0017565 -0.00233953 
26.982 1 66 26.2981 5.81354 0.0144195 -0.544661 -3.73382 -5.06995 -0.0736091 0.663336 -0.161974 0 0 0 0 0 0 -0.00099197 0.00693755 -0.0175991 
26.982 1 68 24.2484 6.03686 2.0366 2.33149 -1.41106 -0.43853 0.472569 0.279622 -0.0584072 0 0 0 0 0 0 0.00180679 0.00480591 -0.00745896 
26.982 1 107 26.4402 8.08895 2.01637 -2.70622 -2.83884 1.88679 -0.550013 -0.691748 -0.294008 0 0 0 0 0 0 -0.00245433 -0.00105335 -0.0103607 
26.982 1 266 26.565 5.97707 3.89205 0.0186019 -3.2266 0.936807 -0.889498 0.403449 0.591166 0 0 0 0 0 0 -0.00237302 0.00139446 9.65798e-05 
26.982 1 305 24.2151 8.10034 3.99209 2.53187 3.50182 0.737047 0.401962 -0.236058 -0.376279 0 0 0 0 0 0 0.00109717 -0.000395472 -0.00370615 
26.982 1 106 26.3907 9.90632 0.0422564 -3.85877 -0.48188 -4.78353 -0.680955 0.576073 -0.417944 0 0 0 0 0 0 -0.00526923 -0.00192952 -0.0187662 
26.982 1 108 24.2083 10.0239 1.95556 -6.3077 4.62369 -2.7065 0.103027 0.0276006 -0.249138 0 0 0 0 0 0 -0.00337924 5.26018e-05 -0.0147937 
26.982 1 306 26.3503 9.94634 3.87537 -8.65526 0.946598 1.63796 -0.0217198 0.486273 0.359593 0 0 0 0 0 0 -0.00041865 0.000700151 -0.00133175 
26.982 1 70 30.4548 6.05586 -0.0351112 -8.59156 3.24601 2.39321 -0.194376 -0.0342713 -0.173863 0 0 0 0 0 0 0.00240132 0.00561617 -0.0181255 
26.982 1 72 28.3163 6.06316 1.89638 -2.45752 -4.8956 -2.79623 0.381429 -0.0412174 0.146062 0 0 0 0 0 0 0.000559444 0.00303626 -0.00725409 
26.982 1 111 30.2392 7.9881 1.92092 -0.80085 -0.11742 4.7882 0.69961 0.154355 0.195787 0 0 0 0 0 0 0.00168502 0.000227129 -0.00987003 
26.982 1 270 30.3446 5.98277 4.12479 -3.79826 1.77869 3.39331 0.0183465 0.497116 -0.144185 0 0 0 0 0 0 0.000453524 0.00174215 -0.0006875 
26.982 1 309 28.5128 8.08177 4.04288 -3.80201 -6.15807 -2.21807 -0.208638 -0.417655 0.0113098 0 0 0 0 0 0 0.000270097 -0.000798485 -0.000389832 
26.982 1 112 28.3699 10.0648 2.02277 1.38559 -0.40998 -4.25161 -0.0423949 -0.0666036 -0.0926365 0 0 0 0 0 0 -0.000659201 -0.00261079 -0.00745373 
26.982 1 76 32.4494 6.08451 1.98925 3.92908 2.07004 6.54179 -0.0321302 -0.22157 -0.13582 0 0 0 0 0 0 0.00299617 0.00204576 -0.0105685 
26.982 1 115 34.4932 7.93925 2.10034 -0.101594 -5.13977 -5.69171 0.139136 0.164584 -0.39281 0 0 0 0 0 0 -0.000930509 -0.00236752 -0.0103106 
26.982 1 274 34.3613 5.96351 4.10366 -6.85209 0.894614 1.21534 0.394551 0.128834 -0.231729 0 0 0 0 0 0 0.000879501 7.72567e-05 -0.00224544 
26.982 1 313 32.3848 8.06032 3.90329 -1.77863 -0.219575 0.987894 -0.173772 0.159156 0.462206 0 0 0 0 0 0 -0.000817964 0.000202188 -0.000940015 
26.982 1 114 34.4849 10.0856 0.0997894 -1.166 -0.0631272 3.08808 0.172001 -0.36819 -0.63794 0 0 0 0 0 0 0.00106615 -0.00121646 -0.0196969 
26.982 1 116 32.5195 10.0607 1.90383 -5.92993 -6.39963 -0.944529 -0.393663 -0.287517 0.226269 0 0 0 0 0 0 -0.000481218 -0.00413963 -0.00752348 
26.982 1 44 40.4959 6.04848 2.00606 -3.88205 0.814442 -3.10059 0.0831234 -0.0392572 0.00437564 0 0 0 0 0 0 0.00385965 -0.0102248 -0.00434051 
26.982 1 281 40.567 8.00512 4.0332 -0.446009 2.70916 1.43986 -0.120391 0.511051 -0.434813 0 0 0 0 0 0 0.000612631 -0.00120244 -0.00227592 
26.982 1 78 38.5089 5.97822 0.0183285 0.544466 -3.00956 -0.733423 0.372609 0.227889 -0.134544 0 0 0 0 0 0 -0.000329159 -0.00641869 -0.017283 
26.982 1 80 36.4857 5.9097 1.92232 3.96237 5.24039 -1.22981 -0.12265 0.450043 0.148318 0 0 0 0 0 0 -0.00234929 -0.00215669 -0.0105029 
26.982 1 117 36.532 8.04982 -0.0423762 1.16262 2.19884 3.21417 -0.0537789 -0.0430063 0.169543 0 0 0 0 0 0 -0.00156424 -0.000455505 -0.0177524 
26.982 1 119 38.6169 8.14643 1.8016 0.731595 -3.87582 -0.936507 -0.259783 -0.519384 0.653294 0 0 0 0 0 0 -0.000257072 0.00133786 -0.00771784 
26.982 1 278 38.3346 6.03906 3.94358 -5.46554 2.15329 0.24783 0.443754 0.177239 -0.00153331 0 0 0 0 0 0 0.00369998 -0.00285739 -0.00161356 
26.982 1 317 36.5303 8.08851 4.1226 5.70264 3.02331 -1.82297 -0.148748 0.0757133 -0.73566 0 0 0 0 0 0 3.20941e-05 -0.000908261 -0.00358465 
26.982 1 120 36.5533 10.0216 1.86773 3.92484 1.86377 -2.36678 0.0488985 -0.00254955 0.458878 0 0 0 0 0 0 0.00306925 0.00200019 -0.0102923 
26.982 1 318 38.5816 10.0323 3.94069 6.42207 3.905 -1.48202 -0.371362 -0.0101609 -0.012952 0 0 0 0 0 0 0.000387352 -0.00078456 -0.00333819 
26.982 1 88 3.95227 10.1842 1.92859 -1.8919 -0.425993 2.94619 0.271204 -0.652634 0.607653 0 0 0 0 0 0 -0.00221114 -0.00273844 -0.00805614 
26.982 1 122 1.85311 13.9775 0.146518 -1.71254 -2.95362 0.328494 0.0510437 0.426733 -0.367724 0 0 0 0 0 0 -0.0128907 -0.000669746 -0.0144946 
26.982 1 123 1.89534 12.0311 2.11093 0.203437 -3.88972 2.17591 -0.0543176 0.258312 -0.691617 0 0 0 0 0 0 -0.0109827 -0.00657657 -0.00789992 
26.982 1 125 3.89074 11.9982 -0.0222529 -3.63593 3.38308 -0.717165 0.315868 0.438021 -0.0655059 0 0 0 0 0 0 -0.00256448 -0.00531748 -0.0178909 
26.982 1 128 3.78788 14.2228 2.02476 0.377409 -1.94053 3.5639 0.654151 -0.533467 0.229604 0 0 0 0 0 0 -0.00254518 -0.00124177 -0.00449294 
26.982 1 282 1.8574 10.2087 3.94266 5.35104 -0.285665 1.32493 0.386095 -0.842077 0.387396 0 0 0 0 0 0 -0.0107182 -0.00308534 -0.00502041 
26.982 1 322 1.91441 13.9974 4.12649 -1.61732 -9.50146 1.21167 -0.247863 0.629883 -0.396102 0 0 0 0 0 0 -0.0093398 -0.00162294 -0.00603395 
26.982 1 325 3.93561 12.2186 4.1072 -0.653714 9.43943 -1.08746 0.113173 -0.670191 -0.571864 0 0 0 0 0 0 -0.000498351 -0.00308468 -0.00213788 
26.982 1 126 5.89291 14.0792 0.0771341 -4.75956 -1.53706 -2.04265 0.335648 0.00411503 -0.680682 0 0 0 0 0 0 0.000355129 -0.00126485 -0.018552 
26.982 1 127 5.8352 12.2094 1.90135 1.01029 -0.269165 -2.30544 0.240164 -0.631652 0.680647 0 0 0 0 0 0 0.00118819 -0.00560703 -0.00566324 
26.982 1 129 7.99335 12.0083 -0.0545715 4.24118 0.701209 2.73216 0.686349 0.850469 0.0993256 0 0 0 0 0 0 0.00086412 -0.00496882 -0.0172772 
26.982 1 132 7.87292 14.1037 1.95486 3.20833 -2.29623 -7.41469 0.65005 0.138128 0.0838481 0 0 0 0 0 0 0.00226278 -0.000743557 -0.00423367 
26.982 1 326 5.98525 14.1369 4.02413 -1.50545 0.112733 1.30519 0.120358 0.116986 0.241937 0 0 0 0 0 0 0.00123013 -0.000325752 0.00104033 
26.982 1 329 8.01441 12.105 3.80586 -1.10264 2.88666 2.66411 -0.22355 -0.26849 0.768861 0 0 0 0 0 0 -0.00085134 -0.00100984 0.00028056 
26.982 1 96 12.1857 10.2225 1.85328 -4.01502 0.0874847 2.27665 -0.0913609 -0.213584 0.31707 0 0 0 0 0 0 -0.000564584 -0.00238066 -0.0131217 
26.982 1 130 10.0815 14.2709 0.0770317 -3.64896 2.53235 -2.29297 -0.0530466 -0.381888 -0.234361 0 0 0 0 0 0 0.00179873 -0.00202575 -0.0167651 
26.982 1 131 10.0119 12.0715 2.03524 3.88584 -0.365191 0.399392 0.352019 0.265824 -0.432346 0 0 0 0 0 0 0.000953046 -0.00231668 -0.00879025 
26.982 1 133 12.3116 12.1403 -0.0642336 -4.87955 1.89768 4.3348 -0.23728 0.447566 -0.014225 0 0 0 0 0 0 0.00279621 -0.00233761 -0.0176621 
26.982 1 136 12.1633 14.114 2.0006 -5.72931 -1.93664 -1.87222 -0.0437999 0.0938021 -0.011613 0 0 0 0 0 0 0.00251335 -0.00031653 -0.00790757 
26.982 1 290 10.2451 10.185 4.15085 -4.23658 -5.50658 2.34952 -0.392141 -0.504236 -0.554158 0 0 0 0 0 0 -0.00139576 -0.00131075 -0.00300815 
26.982 1 330 10.1541 14.0855 4.11806 1.02122 1.68508 -0.326171 -0.28357 -0.0188474 -0.167153 0 0 0 0 0 0 -0.000756117 -0.000488194 -0.00100373 
26.982 1 333 12.0864 12.1446 4.00943 -1.16563 -0.8443 4.27204 0.288243 0.107825 -0.0361871 0 0 0 0 0 0 0.000336755 0.000240061 -0.00208322 
26.982 1 100 16.211 10.0883 1.93825 -4.79685 -3.58399 4.58512 -0.166864 0.173821 -0.104507 0 0 0 0 0 0 0.000123325 0.0038966 -0.0134148 
26.982 1 135 14.2646 12.1778 2.02776 3.38005 3.30368 1.02486 -0.0980026 -0.110496 -0.535185 0 0 0 0 0 0 0.00238523 -0.000291288 -0.0138774 
26.982 1 140 16.3154 14.231 1.86995 0.523977 -4.16461 3.26845 0.0211484 -0.43041 0.332235 0 0 0 0 0 0 0.00070034 -0.00392785 -0.0138463 
26.982 1 294 14.0955 10.1567 3.88389 0.930489 -5.30112 -2.87876 0.320856 -0.261752 0.253401 0 0 0 0 0 0 0.000918528 -0.000666642 -0.00250422 
26.982 1 334 14.4059 14.1236 3.93491 -2.16896 -1.61069 4.0819 -0.596124 0.287571 0.287164 0 0 0 0 0 0 -0.00151918 0.000829096 -0.00209658 
26.982 1 337 16.2015 12.0839 3.96347 0.344729 -3.19607 -6.16114 0.217696 -0.430423 0.141958 0 0 0 0 0 0 0.00108108 -0.00140607 -0.00254514 
26.982 1 104 20.1456 10.1037 1.81365 1.30206 -0.17683 1.30873 0.469935 0.07935 0.141744 0 0 0 0 0 0 0.00154472 0.00191653 -0.0166593 
26.982 1 139 18.1873 12.1443 1.92027 1.04787 -2.37389 -0.473344 0.230412 -0.0990143 -0.100394 0 0 0 0 0 0 0.00109661 -0.000309411 -0.0167154 
26.982 1 143 22.3975 12.1843 1.79969 0.991311 -1.29718 -3.20856 -0.42584 -0.455484 0.386797 0 0 0 0 0 0 -0.00196043 -0.00127622 -0.0168036 
26.982 1 144 20.3459 14.1427 1.91655 0.213122 -2.06601 2.37502 -0.236826 0.13906 0.0994833 0 0 0 0 0 0 -0.000215993 -0.000548922 -0.0161746 
26.982 1 302 22.288 10.1292 4.06168 4.9941 3.51342 1.41821 0.0946912 -0.0218008 -0.598098 0 0 0 0 0 0 -0.000709297 0.00101982 -0.00447982 
26.982 1 338 18.2607 13.9197 4.02704 2.33768 0.229113 -0.029509 0.294894 0.319376 -0.283105 0 0 0 0 0 0 0.00145432 -0.000239932 -0.00385018 
26.982 1 341 20.3394 12.0965 3.8928 -0.316636 5.50754 2.54596 0.0937572 0.095063 0.163366 0 0 0 0 0 0 0.000455559 0.00016587 -0.00365018 
26.982 1 342 22.4453 14.2095 3.901 5.33842 -1.46897 -0.446219 -0.36683 -0.0180021 0.134998 0 0 0 0 0 0 -0.00173585 -5.67262e-05 -0.00361264 
26.982 1 147 26.3475 12.1788 1.85283 3.01149 3.37346 5.43286 -0.491067 -0.389338 -0.041251 0 0 0 0 0 0 -0.00531264 0.00218558 -0.0118734 
26.982 1 148 24.234 14.1433 1.89614 -4.74872 -0.75608 0.781806 0.63723 -0.00488272 -0.32075 0 0 0 0 0 0 -1.52261e-05 0.000105566 -0.016901 
26.982 1 345 24.4945 12.0179 3.90356 2.74547 -5.5028 -0.0616453 -0.323245 0.26199 -0.110528 0 0 0 0 0 0 -0.00155829 0.000622864 -0.00351874 
26.982 1 346 26.3329 14.1606 3.86333 -4.70416 0.451257 -1.03516 0.0965053 -0.270251 0.0148058 0 0 0 0 0 0 8.47446e-05 -0.000544886 -0.00266598 
26.982 1 110 30.4614 10.1665 0.0503233 -3.33128 -3.47506 0.34314 -0.13808 -0.48615 -0.21318 0 0 0 0 0 0 0.000937462 -0.00604324 -0.0186583 
26.982 1 149 28.3215 11.8543 0.0224095 -3.27901 2.0926 -0.808591 -0.111968 0.926017 -0.423218 0 0 0 0 0 0 -0.00313309 0.00332159 -0.0196621 
26.982 1 150 30.3149 14.2949 -0.0603823 0.354458 2.83936 -5.23137 0.165727 -0.613043 0.0516146 0 0 0 0 0 0 -0.0024503 0.00301732 -0.0175321 
26.982 1 151 30.3517 12.1015 1.95515 0.956202 -2.18631 1.46054 0.302242 0.644664 0.027364 0 0 0 0 0 0 0.00093984 0.0025446 -0.00474367 
26.982 1 152 28.2463 14.0901 1.73962 -2.38356 -0.543112 1.14136 0.613259 0.364881 0.401312 0 0 0 0 0 0 -0.00180113 0.00447504 -0.0108169 
26.982 1 310 30.3714 10.1472 3.81697 5.10006 -0.534597 -0.638219 0.450341 -0.292407 0.59134 0 0 0 0 0 0 0.00172597 -0.00093647 0.00106694 
26.982 1 349 28.3118 12.1525 3.84039 -5.34987 1.69081 -2.18781 0.101378 0.063519 0.451711 0 0 0 0 0 0 0.000677453 0.00117274 0.000574414 
26.982 1 350 30.5654 14.2225 3.98853 -3.02032 -1.76486 -1.84172 -0.310215 -0.292417 -0.196354 0 0 0 0 0 0 -0.000854933 -0.000398944 -0.001231 
26.982 1 153 32.4439 12.1303 0.0555197 -0.148443 -0.369641 -1.91687 -0.265161 0.359484 0.229502 0 0 0 0 0 0 0.00320496 0.00300051 -0.018343 
26.982 1 155 34.5298 12.0323 1.85836 0.625416 1.44566 3.37678 0.12845 0.543309 0.355465 0 0 0 0 0 0 0.00311614 0.00401028 -0.0106323 
26.982 1 156 32.5196 14.2603 1.97946 -2.402 -2.19577 -0.335186 -0.239412 -0.39754 -0.0956017 0 0 0 0 0 0 0.00201735 0.000189501 -0.00816404 
26.982 1 314 34.523 10.1406 3.9117 0.841214 -3.7426 3.72335 0.102863 -0.314319 -0.0070748 0 0 0 0 0 0 -4.98005e-05 -0.000828616 -0.00184402 
26.982 1 353 32.5612 12.0399 3.8317 1.72139 -0.664115 -3.5717 -0.259217 0.385912 0.457591 0 0 0 0 0 0 -0.000617984 0.00123055 0.000523261 
26.982 1 354 34.6482 14.1164 3.88496 -2.00828 4.58845 -0.959005 -0.58512 0.0150264 0.416176 0 0 0 0 0 0 -0.00160235 0.000252109 -0.00134309 
26.982 1 84 40.4989 10.1185 1.88068 0.694869 -0.431342 2.84985 0.521052 -0.123996 -0.0868837 0 0 0 0 0 0 0.00515346 -0.0049237 -0.016307 
26.982 1 124 40.4711 13.939 2.14905 -0.902532 3.45365 1.9672 0.333483 0.510188 -0.314325 0 0 0 0 0 0 0.00491148 -0.00295646 -0.0108024 
26.982 1 321 40.438 11.9561 4.04216 0.900073 1.48675 3.34201 0.257218 0.743554 -0.00104797 0 0 0 0 0 0 0.000826356 0.000464841 -0.00229643 
26.982 1 158 38.5616 14.1727 0.0741333 4.29135 1.6142 -0.856978 0.18302 0.291178 -0.0835272 0 0 0 0 0 0 -0.000408275 0.000770875 -0.0184298 
26.982 1 159 38.517 12.0604 1.95797 1.8581 1.07613 0.52226 -0.0683991 0.00243637 0.00183214 0 0 0 0 0 0 0.000124815 -0.00219416 -0.0144291 
26.982 1 160 36.488 14.1059 1.94057 1.86894 -5.0434 3.33176 0.28665 0.263009 -0.455327 0 0 0 0 0 0 -0.000759643 0.00116134 -0.0151153 
26.982 1 357 36.5526 12.1812 3.87643 -10.885 -5.08507 0.53877 0.162107 -0.542448 0.296507 0 0 0 0 0 0 0.000144388 -0.00103933 -0.00221121 
26.982 1 358 38.4822 14.195 4.0578 2.60032 -2.60696 -6.47057 0.281454 -0.292108 -0.157038 0 0 0 0 0 0 0.0013102 -0.000850653 -0.00297531 
26.982 1 163 1.94826 16.0643 1.9886 4.58644 0.544752 5.17819 -0.335066 0.483366 -0.0648538 0 0 0 0 0 0 -0.00983354 0.000885212 -0.010128 
26.982 1 164 0.0715882 18.1764 1.84935 -1.9349 4.87741 0.0632319 -0.280713 -0.0340899 0.147665 0 0 0 0 0 0 -0.0128887 -0.000999598 -0.0130137 
26.982 1 165 4.02248 16.053 -0.0141634 0.453755 1.64264 3.13751 -0.569589 0.378494 -0.120538 0 0 0 0 0 0 -0.00528275 0.00460057 -0.0175893 
26.982 1 168 3.93553 18.4297 1.79392 -2.55105 -0.874514 3.42138 0.34205 -0.456439 0.392328 0 0 0 0 0 0 -0.00323212 0.00352776 -0.0120359 
26.982 1 361 -0.00116127 16.0888 4.1137 3.62613 0.826149 -4.40717 0.204675 0.24468 -0.492966 0 0 0 0 0 0 -0.00774632 -0.00648817 -0.0106283 
26.982 1 362 2.05652 18.1174 3.90363 0.733086 -0.460989 -3.39594 -0.3268 0.38518 0.11165 0 0 0 0 0 0 -0.00424324 0.00405037 -0.00662861 
26.982 1 365 4.01159 16.2937 3.95622 4.37771 0.90726 -3.97878 0.0123214 -0.344271 0.129862 0 0 0 0 0 0 -0.000747425 -0.000168978 -0.000977274 
26.982 1 2201 0.144448 20.1496 3.89597 6.2968 2.12723 2.37183 -0.472462 0.296768 0.164221 0 0 0 0 0 0 -0.00871084 0.0030679 -0.013361 
26.982 1 166 6.03898 18.0387 0.00909083 -1.75449 -4.41781 3.25298 0.219014 0.66149 0.0503121 0 0 0 0 0 0 -0.00198817 0.00866033 -0.0169085 
26.982 1 167 5.99614 16.1135 2.07895 1.97398 -1.50397 -1.07039 0.00470789 0.323692 -0.068242 0 0 0 0 0 0 -5.53215e-05 0.00197301 -0.00429761 
26.982 1 169 7.96888 16.1602 -0.00380127 1.09703 5.14341 0.818924 0.399708 -0.0266978 -0.0887166 0 0 0 0 0 0 0.00123983 0.00112632 -0.0173472 
26.982 1 172 8.00271 18.2619 2.06174 1.9296 3.02005 -0.648324 0.220051 -0.319375 -0.556126 0 0 0 0 0 0 -0.0032804 0.00739486 -0.00874113 
26.982 1 366 6.03373 18.3387 3.80294 1.0659 0.109056 2.55079 -0.34143 -0.398266 0.297022 0 0 0 0 0 0 -0.00437558 0.006958 -0.00455881 
26.982 1 369 8.15481 16.1575 4.14271 6.6535 1.02123 -2.76602 -0.607093 -0.363146 -0.0216202 0 0 0 0 0 0 -0.00136121 -0.0012783 -0.000429854 
26.982 1 170 10.0512 18.2817 0.0235757 0.065339 0.854188 4.51759 -0.158229 -0.667939 0.156749 0 0 0 0 0 0 -0.00325335 0.00300094 -0.0160082 
26.982 1 171 9.97712 16.1341 2.17523 1.80901 4.75565 4.75609 0.341687 0.126433 -0.538527 0 0 0 0 0 0 0.00132151 0.000341881 -0.00597576 
26.982 1 173 12.2623 16.3012 0.170995 1.55964 1.42422 -1.16323 -0.567878 -0.318596 -0.171956 0 0 0 0 0 0 0.00434935 -0.000454396 -0.0175962 
26.982 1 176 12.1811 18.2269 2.0745 -3.66776 4.18047 2.38368 -0.415418 -0.243883 -0.172948 0 0 0 0 0 0 -0.00182785 0.00387827 -0.00760788 
26.982 1 370 9.92952 18.179 4.05482 -1.62657 -2.66942 -4.09927 0.829305 0.142864 -0.0152296 0 0 0 0 0 0 -0.00137267 0.00875346 -0.00407715 