ITEM: TIMESTEP
1000
ITEM: NUMBER OF ATOMS
4000
ITEM: BOX BOUNDS pp pp pp
-0.277438 40.7774
0.000817676 40.4992
-0.00890966 40.5089
ITEM: ATOMS mass type id x y z vx vy vz fx fy fz xrad yrad zrad vxrad vyrad vzrad fxrad fyrad fzrad 
26.982 1 811 9.96545 0.159496 18.2523 0.0364583 0.207108 -2.67309 -0.181996 -0.72821 -0.328136 -0.152292 0.816953 -1.7794 -0.320476 1.61769 -3.55971 -0.00416202 -0.0176625 -0.00197638 
26.982 1 3 1.66644 0.217642 1.87845 3.14082 -2.91339 -1.80699 0.246687 -0.206096 0.383278 -0.691059 -2.18872 -0.74043 -1.39038 -4.37615 -1.48813 -0.0075244 -0.00952462 -0.00490637 
26.982 1 8 3.86717 2.15598 1.91096 -3.25295 0.358288 -0.48543 -0.30344 -0.554459 0.607976 0.145285 -1.77589 -1.23742 0.276584 -3.53921 -2.48643 0.000455542 -0.00943483 -0.00609985 
26.982 1 807 5.85843 0.0584712 18.114 3.75056 -2.95419 -0.490909 -0.0592561 -0.529539 0.708808 -0.175999 0.734494 -1.76158 -0.324943 1.43318 -3.53723 0.000664188 -0.0185615 0.00170888 
26.982 1 43 1.53931 3.87594 1.86893 3.56138 7.37609 -1.4903 0.603872 0.526902 0.342896 -0.424042 -0.9924 -1.23486 -0.84333 -1.98316 -2.46127 -0.00825921 -0.00413527 -0.0120554 
26.982 1 202 1.82502 1.87458 4.04356 -1.52254 4.98581 -0.0192875 -0.162938 0.932874 -0.423833 -0.832986 -1.64031 -1.0369 -1.64677 -3.26336 -2.08224 -0.00448697 -0.0071303 -0.00667187 
26.982 1 241 -0.207282 4.14601 3.9724 0.714128 -1.33186 -3.80769 -0.361766 -0.0894208 -0.172076 -1.42823 -1.52976 -1.34593 -2.82795 -3.0504 -2.67649 -0.00797869 -0.0080915 -0.00926202 
26.982 1 245 3.77053 4.26204 3.97766 -1.75686 -2.10187 -2.03001 -0.0504499 -0.869296 -0.112712 -0.0774717 -0.446797 -0.367977 -0.161015 -0.889076 -0.750585 -0.00161255 -0.00376958 -0.00246888 
26.982 1 2825 24.3331 20.1671 16.2411 2.0225 -1.26923 -0.561155 -0.110339 -0.0750335 -0.0115141 -0.803355 -1.83057 -2.09145 -1.6187 -3.65857 -4.17261 -0.00283047 0.00922098 -0.00661738 
26.982 1 2819 18.1077 20.1399 18.1139 1.01488 2.16268 3.68171 0.0766906 0.0740823 0.227474 -0.730759 -2.47804 -1.32311 -1.46886 -4.95965 -2.62659 -0.00699308 0.00738226 -0.00504972 
26.982 1 12 7.83093 2.00503 2.02216 -1.55902 3.97932 1.98702 0.20885 0.438192 0.28676 -0.176735 -1.7814 -0.801163 -0.361398 -3.55786 -1.58788 -0.00265188 -0.0112463 -0.00907056 
26.982 1 47 5.85477 3.99374 1.98969 0.129658 1.34346 3.77119 -0.00085521 0.317202 -0.0996196 -0.59088 -0.462415 -1.23837 -1.16123 -0.911395 -2.46928 0.000205152 -0.00388657 -0.00893199 
26.982 1 49 8.01324 4.09971 0.0290416 -1.80974 2.82131 4.65373 -0.114079 0.0889264 0.11014 -0.182767 -0.231315 -3.05909 -0.332722 -0.421933 -6.1216 -0.000188063 5.21947e-05 -0.017083 
26.982 1 206 5.7031 2.06929 4.07709 1.21406 -3.04115 0.344237 0.276184 0.126439 -0.120397 -0.53086 -1.61215 -0.874317 -1.04794 -3.22094 -1.73944 -0.00170869 -0.00934006 -0.00582883 
26.982 1 209 7.92376 0.0192282 4.05252 -2.9437 1.63654 -5.21045 -0.184793 -0.0530371 0.26413 -0.233468 -2.22538 -2.0338 -0.435661 -4.44502 -4.05936 -0.00125406 -0.0127203 -0.0120857 
26.982 1 249 7.52577 4.23066 4.15358 1.01265 -2.64017 1.50337 1.38906 -0.917883 -0.35135 -0.0710297 -0.223979 -0.136818 -0.130316 -0.435642 -0.27029 0.00311172 -0.00341168 -0.00254267 
26.982 1 10 9.87637 2.08677 0.082808 -0.291447 2.19788 -2.10136 0.657539 0.18604 0.167941 0.753491 -1.64189 -2.43099 1.49865 -3.28948 -4.85791 -0.00152416 -0.00836201 -0.0133691 
26.982 1 16 11.9636 1.96487 2.03412 -6.26511 -4.302 2.58273 0.0427045 0.489614 -0.0138171 0.708765 -2.27849 -1.77328 1.40897 -4.5667 -3.53241 0.00236531 -0.0111115 -0.0039883 
26.982 1 51 10.0152 4.14644 2.15419 2.8645 3.48852 5.15146 -0.31121 -0.267134 -0.0916626 0.154572 -0.359762 -0.848776 0.300238 -0.703091 -1.70242 -0.00058655 -0.000248286 -0.00722619 
26.982 1 53 12.0301 4.11364 0.0651812 0.397315 1.19837 0.916027 0.128575 -0.284321 -0.224219 0.55098 -0.752237 -3.05933 1.11279 -1.47323 -6.12702 -0.000681392 -0.000151071 -0.0169205 
26.982 1 210 9.86657 1.85939 3.90797 -2.67595 0.617256 6.59032 0.279264 0.707434 0.295542 0.0866553 -1.15256 -0.872134 0.169477 -2.31273 -1.70233 0.00323363 -0.00775937 -0.00557864 
26.982 1 1197 36.8971 16.2941 20.2142 0.686207 -4.70707 -0.566217 -0.449622 0.00401696 0.0944259 -0.557043 -0.231764 0.620734 -1.1002 -0.454087 1.22319 -0.00837017 -0.00395367 0.00345748 
26.982 1 253 11.9622 4.09723 4.07724 -0.526113 0.198803 0.742871 0.234014 -0.250976 -0.123925 0.0815632 -0.268739 -0.240137 0.153096 -0.528074 -0.47728 0.000352104 -0.00352898 -0.00177847 
26.982 1 20 16.0956 2.06215 2.01088 -3.30193 -0.282043 0.792685 -0.0854653 -0.235999 0.0701792 -1.05517 -2.29052 -1.25966 -2.09709 -4.58617 -2.49144 -0.00290189 -0.0124803 -0.0033972 
26.982 1 55 14.1553 4.01995 1.93945 1.62227 2.24887 1.10154 -0.30863 0.0248058 0.147989 -0.0199734 -0.981706 -1.32161 -0.0603176 -1.93644 -2.64256 -0.00239052 -0.00530663 -0.00680611 
26.982 1 57 16.1789 4.0659 0.00261437 -1.02614 -0.736211 1.18902 0.0265596 -0.145568 0.305423 -0.586967 -0.849354 -3.05675 -1.161 -1.67341 -6.12455 -0.00303419 -0.00373938 -0.0172415 
26.982 1 214 13.9377 2.00876 4.00362 -7.00978 2.73802 2.3613 0.126291 0.442465 0.294832 0.430775 -1.68649 -1.12137 0.861907 -3.37991 -2.23153 -0.000151294 -0.0112645 -0.0044412 
26.982 1 257 16.1125 4.0267 4.01551 -1.47172 -1.80031 0.865922 0.205947 -0.139691 0.159036 -0.0524688 -0.456751 -0.177713 -0.102106 -0.884306 -0.349842 -0.000358708 -0.00343491 -0.000256302 
26.982 1 218 18.116 2.06717 3.94087 -4.43013 6.37988 -5.02289 -0.166098 -0.298615 0.532847 -0.0747044 -1.66373 -0.328338 -0.16115 -3.31835 -0.671102 -0.00356204 -0.00946822 -0.00295979 
26.982 1 18 18.0522 2.00097 -0.00743618 2.61211 -2.38941 -2.7029 0.272243 -0.142754 0.285524 -0.762507 -1.20181 -2.76991 -1.49988 -2.39492 -5.54645 0.00174382 -0.00936483 -0.013165 
26.982 1 819 18.3035 0.0315739 18.3577 -5.98032 -0.582392 1.44484 -0.334966 -0.233035 -0.655125 0.359134 0.802963 -1.4834 0.700468 1.61336 -2.99204 -0.00763926 -0.0171827 -0.00089225 
26.982 1 2813 12.0688 20.1848 16.1019 3.79432 -0.483942 4.03762 -0.581782 0.630832 -0.0643976 -0.328883 -1.15279 -0.857673 -0.63815 -2.31391 -1.73319 -0.00572627 0.00757769 -0.00630682 
26.982 1 22 22.2917 2.18259 0.120817 -3.84829 7.15898 2.10883 -0.0958079 -0.509749 -0.664478 -0.0336985 -1.06259 -2.39978 -0.0921136 -2.1289 -4.80669 -0.00184941 -0.00538399 -0.0174858 
26.982 1 24 20.0801 1.9768 2.12146 1.50723 -2.33128 -2.5831 0.431708 -0.0409419 -0.539881 0.34437 -1.75892 -0.181575 0.696736 -3.50325 -0.395819 -0.00230923 -0.00990758 -0.00821745 
26.982 1 59 18.2466 4.13219 2.13222 1.59143 -1.14716 1.43995 -0.147476 -0.331979 0.135463 -0.0783129 -0.300075 -0.763849 -0.153809 -0.579867 -1.52633 -0.000692175 -0.00240798 -0.00388251 
26.982 1 61 20.1469 3.94046 0.0597749 0.19713 -0.361842 -2.79838 0.495121 -0.0404369 -0.128359 0.0222509 0.0973182 -3.05384 0.0600225 0.215776 -6.11124 0.00319558 0.000249584 -0.0177914 
26.982 1 63 22.3905 4.01509 2.0003 3.80676 -0.459806 0.950541 -0.188185 0.177993 0.172562 -0.0337987 -0.176846 -0.770191 -0.0680178 -0.341722 -1.54632 2.90974e-06 0.00134195 -0.00753422 
26.982 1 222 22.2374 1.986 4.04511 -0.814497 2.83825 -1.37149 0.453367 -0.0776454 -0.0147174 -0.509402 -1.56961 -0.656554 -1.03332 -3.13855 -1.31057 0.000686889 -0.00382146 -0.00136088 
26.982 1 261 20.424 4.05141 3.99174 -3.91616 -0.0340505 0.296508 -0.62783 -0.0342442 0.295315 0.00838638 -0.337011 -0.0963627 -0.00136516 -0.670842 -0.189915 -0.00170707 -0.000854404 -8.18795e-05 
26.982 1 25 24.4128 0.0136301 0.0685639 1.456 -6.28989 4.28606 -0.0281744 0.192428 -0.154106 -0.292015 -2.24182 -1.64686 -0.576296 -4.48914 -3.30991 0.00234025 -0.00974383 -0.0129891 
26.982 1 635 34.6523 0.140038 14.2533 -3.24275 -1.45417 -1.33134 -0.400839 -0.256365 -0.060598 0.0114254 0.889267 -2.24263 0.017233 1.74719 -4.47776 0.00560442 -0.0169134 -0.00384131 
26.982 1 27 26.4831 0.0349217 1.96404 0.271945 1.38436 -1.77752 -0.270697 -0.269269 0.0519793 1.03047 -2.90547 -0.71062 2.08025 -5.79683 -1.42731 0.00558831 -0.0133754 -0.00660718 
26.982 1 28 24.3824 1.99557 1.9129 -0.352808 -0.109132 3.76691 0.102433 0.226186 0.43561 -0.460339 -1.29013 -0.66993 -0.895696 -2.55697 -1.34034 0.00393929 -0.00311789 -0.00713362 
26.982 1 65 24.4205 4.18073 0.03335 -4.37233 3.73782 1.76107 -0.203114 -0.280827 -0.27576 -0.00389418 0.168689 -3.07766 -0.0127656 0.360596 -6.15936 0.00345633 0.00205554 -0.0187494 
26.982 1 67 26.2748 4.18353 2.0726 -4.15702 4.23905 -3.03545 0.498054 -0.297657 -0.126358 0.0828656 -0.0924519 -0.813895 0.157854 -0.194599 -1.63002 0.00259725 -0.00108513 -0.0105883 
26.982 1 225 24.3681 0.0766023 4.02279 1.31931 0.550109 4.78648 -0.189008 -0.15729 -0.10197 -0.479724 -2.24623 -1.45103 -0.954572 -4.50812 -2.87639 0.000974158 -0.0123815 -0.00555563 
26.982 1 226 26.3836 2.01786 4.03933 -2.61086 0.411437 0.618089 -0.0864311 0.175326 -0.155022 0.556057 -1.19326 -0.299294 1.11724 -2.38634 -0.583315 0.0032907 -0.00529885 -0.00308939 
26.982 1 265 24.379 4.11911 4.01451 -1.22113 -1.50751 1.13918 -0.0115014 -0.0914181 -0.0708237 -0.0480116 -0.161843 -0.104691 -0.0898888 -0.311095 -0.200864 0.000941522 -0.000500856 -0.00124064 
26.982 1 30 30.5681 2.14083 -0.00838409 1.41288 0.154376 0.1503 0.000111301 -0.415997 -0.0806685 0.287255 -2.09361 -2.33022 0.55519 -4.20426 -4.65184 -0.00203041 -0.00905861 -0.0157014 
26.982 1 32 28.358 1.96117 2.00836 -4.67235 -2.2264 -2.28972 0.437937 0.580492 -0.0274692 0.691543 -2.29535 -0.713326 1.36003 -4.60784 -1.44165 -0.00171984 -0.00728984 -0.00774851 
26.982 1 69 28.6905 4.1416 -0.000289174 -3.20122 -1.49454 -2.30825 -0.97941 -0.262557 -0.0205202 0.116567 -0.0997921 -3.05096 0.200141 -0.194307 -6.10007 -0.00742797 -0.000839285 -0.0162478 
26.982 1 71 30.5052 4.14551 2.0471 -1.48772 4.08167 -1.42698 -0.0744238 -0.140947 0.25608 0.191515 -0.412763 -0.892791 0.363135 -0.826069 -1.79003 -0.0019873 -0.00143279 -0.00413877 
26.982 1 230 30.441 2.18251 3.98273 0.828612 -1.59981 -1.49806 -0.130884 -0.163569 0.208763 0.0344114 -2.16934 -0.86567 0.0867702 -4.32972 -1.73459 -0.00333063 -0.00529361 -0.00126197 
26.982 1 269 28.315 4.23436 4.16086 -7.26631 -1.01023 0.357667 0.27263 -0.430689 -0.493926 0.090615 -0.37752 -0.128763 0.150388 -0.746694 -0.241129 0.000307662 -0.0022199 -0.00257311 
26.982 1 35 34.5226 0.0583326 2.02854 2.22937 2.47887 6.66607 0.403081 -0.289592 -0.0081243 -0.409772 -2.23628 -1.8393 -0.813711 -4.4863 -3.67018 0.00503458 -0.0166739 -0.00808742 
26.982 1 36 32.5692 1.96757 2.07616 -1.75648 -1.3454 -3.80656 -0.16928 0.718802 -0.271267 0.0500864 -2.20852 -1.36258 0.0769915 -4.42414 -2.73049 -0.0003144 -0.00536881 -0.00777737 
26.982 1 73 32.5067 4.15196 0.0327528 -4.23133 -1.98311 -3.59065 0.0473001 -0.38271 0.140031 1.1741 -0.164472 -3.02859 2.33179 -0.332818 -6.08531 0.00123372 -0.00168938 -0.01704 
26.982 1 75 34.6293 4.09937 2.07894 1.6181 3.07713 3.07209 -0.144351 -0.310251 -0.197197 0.527712 -0.303177 -2.38793 1.07254 -0.582098 -4.77747 0.00348348 -0.0020123 -0.00749306 
26.982 1 234 34.594 2.00812 4.0366 -0.842069 4.41772 -0.0354647 -0.17615 0.038788 -0.00694784 -0.434511 -1.11981 -0.76555 -0.877531 -2.22663 -1.52008 0.00287782 -0.0052323 -0.00197841 
26.982 1 273 32.5526 4.10318 4.08019 3.47517 1.94797 0.500904 -0.213456 -0.0516771 0.00624687 0.0587372 -0.378519 -0.326993 0.115762 -0.751472 -0.657882 -0.00061919 -0.00064811 0.0001954 
26.982 1 4 40.5897 2.10953 1.92413 -1.61453 7.20313 -3.9039 0.105844 -0.234687 0.201841 -0.971227 -2.23356 -1.34702 -1.949 -4.46232 -2.68576 -0.00411788 -0.00387105 -0.0119181 
26.982 1 40 36.4985 1.95415 1.98137 5.35691 2.72796 3.626 0.517558 0.294404 0.136932 0.467823 -1.23965 -2.84385 0.95938 -2.4707 -5.69255 0.00783 -0.00839422 -0.0103216 
26.982 1 79 38.7012 4.09581 1.93875 1.23305 0.85834 0.0138058 -0.158087 -0.0691034 0.0418252 -0.639909 -1.00348 -1.85775 -1.25993 -1.98727 -3.73639 -0.000276663 -0.00209139 -0.0156244 
26.982 1 961 -0.200244 16.3043 16.3339 -0.459905 -0.273306 0.0636912 -0.0151193 0.0540788 -0.460641 0.19389 -0.14203 -0.250853 0.372484 -0.273948 -0.490368 -0.00801818 -0.00390611 -0.00644639 
26.982 1 238 38.674 2.01387 4.00505 -0.0857176 1.06259 3.74008 0.073613 0.0251823 -0.136538 0.441261 -1.59089 -1.16384 0.881607 -3.17484 -2.35587 -0.00234771 -0.00790684 -0.00665978 
26.982 1 277 36.7986 3.91029 4.05854 -2.58865 7.86888 0.416127 -0.507732 0.532392 -0.177717 -0.00550773 -0.22182 -0.579865 -0.0121022 -0.44692 -1.16334 0.000278719 -0.000911125 -0.00269069 
26.982 1 631 30.5745 0.0459911 14.1037 -2.07091 -1.61353 -2.21899 -0.0952418 0.0438561 0.592444 0.529258 0.903525 -1.71871 1.04154 1.78066 -3.42465 -0.00367205 -0.0174768 -0.00389858 
26.982 1 48 3.78096 6.06514 2.01965 -5.9738 -1.46643 6.43318 -0.0579152 0.219528 -0.45588 -0.373937 -0.385267 -1.27341 -0.764037 -0.7742 -2.54613 -0.00513436 0.00267168 -0.011666 
26.982 1 627 26.3332 0.0729348 14.2932 1.68924 1.91324 -1.89356 0.164319 0.177556 -0.0354962 -0.501648 0.897383 -1.68788 -0.983443 1.76941 -3.35954 -0.000234731 -0.0163364 -0.008224 
26.982 1 83 1.83179 8.14842 1.91326 1.1157 -1.16225 -1.4709 -0.213475 0.00793322 -0.243588 -1.48751 -0.0199103 -0.85502 -2.9511 -0.0609601 -1.73569 -0.00859918 -0.00222701 -0.0142796 
26.982 1 403 1.50114 0.0213302 9.97216 -3.01704 -4.73314 0.154698 0.535833 -0.238615 0.100141 -1.93212 0.0662474 -0.997372 -3.84305 0.107632 -2.02949 -0.00961849 -0.0121409 0.000705684 
26.982 1 242 1.7147 6.28048 3.85039 -8.18554 -6.18649 0.812066 -0.0844041 -0.433388 0.190109 -1.50523 0.394482 -0.797397 -3.01983 0.744788 -1.60267 -0.00972826 0.00151986 -0.00695926 
26.982 1 285 3.87105 8.24611 3.99029 0.325671 -7.6416 -0.734859 -0.175832 -0.385252 -0.152234 -0.351943 0.00913909 -0.241944 -0.687067 -0.00576562 -0.492018 -0.00233387 -0.00132003 -0.00361047 
26.982 1 46 5.92274 6.13153 0.180072 -0.976444 1.52152 -4.22243 -0.208168 -0.240165 -0.541429 -0.525386 -0.223147 -3.1302 -1.04643 -0.431554 -6.26207 -0.000902677 0.00394784 -0.0181364 
26.982 1 52 7.96391 6.04325 2.01837 -1.33267 -1.60291 -0.183241 0.125247 0.160643 -0.000235847 0.0084265 0.171246 -0.892146 0.011629 0.324067 -1.77088 0.00310211 0.00272038 -0.0103287 
26.982 1 87 5.88665 8.16843 2.09645 -0.0274256 1.48585 2.6647 -0.111772 -0.156323 -0.361024 -0.0601078 0.518947 -1.35626 -0.108103 1.0402 -2.70784 -0.00105682 -0.000459672 -0.0111977 
26.982 1 603 1.64085 0.0517553 14.1555 1.45399 -3.89036 1.87847 0.313966 -0.701397 0.158119 -2.15311 0.0662388 -1.00747 -4.29321 0.102445 -2.00788 -0.00549784 -0.0134281 -0.00212195 
26.982 1 246 5.83395 6.11269 4.09958 -2.857 -3.86897 -0.446825 -0.399516 0.497435 -0.128541 -0.0534723 -0.011628 -0.139169 -0.0998057 -0.0494133 -0.276833 -0.000402657 0.000729446 -0.00160458 
26.982 1 289 7.83842 8.0068 3.96916 0.0798015 -0.983858 3.41448 0.202931 0.115573 0.307919 0.0247444 0.0737803 -0.230892 0.0780198 0.142934 -0.444991 0.000583571 -0.00017767 -0.00200068 
26.982 1 92 7.91724 10.0553 2.15945 3.03474 0.51027 -0.841782 0.206157 0.201079 -0.531752 0.0865085 -0.033056 -1.80886 0.188237 -0.0738062 -3.60483 0.000193247 -0.00173104 -0.00900192 
26.982 1 286 5.97816 10.2644 4.02989 -2.57464 0.878081 -0.56887 -0.502865 -0.485743 0.0122187 -0.0292496 0.0117993 -0.324234 -0.0451929 0.0126141 -0.647534 -0.000813378 -0.000620626 -0.00161808 
26.982 1 1021 20.2458 0.0762329 20.1722 -3.93422 2.939 -1.36149 -0.105804 -0.109821 0.616433 -0.0500759 0.0759065 -0.426553 -0.106138 0.146801 -0.851718 0.000794872 -0.0169485 0.00307479 
26.982 1 56 12.1384 6.10269 1.99848 2.5405 2.27608 2.22223 -0.0704622 -0.386958 -0.0272025 0.0321878 0.609252 -1.38646 0.0609591 1.23423 -2.74729 -0.00365513 0.00120228 -0.0105888 
26.982 1 91 10.1067 8.13218 1.80826 0.554444 -6.32084 -5.07013 -0.476171 -0.361179 0.513739 0.505429 0.630186 -1.87627 1.03561 1.25146 -3.72268 -0.000764163 -0.00415666 -0.0132558 
26.982 1 250 9.89574 6.20556 4.11152 -0.541578 8.77488 -0.517008 0.100627 -0.694737 -0.36056 0.0553233 0.0582322 -0.123809 0.0964502 0.157253 -0.242717 0.000138773 -0.00143313 -0.00278108 
26.982 1 293 12.067 7.75904 4.04935 -2.27978 0.247203 -0.109815 0.0292494 0.70915 0.357098 -0.00170801 0.077841 -0.405445 -0.0299604 0.153313 -0.819187 -0.00108136 0.000886716 -0.000873302 
26.982 1 54 14.2667 6.15058 0.0608181 6.52948 -1.65014 -6.03226 -0.331233 -0.101745 -0.245157 -0.502662 0.568879 -3.15153 -1.0025 1.14833 -6.29242 -0.00492822 0.00102485 -0.0185152 
26.982 1 60 16.1914 6.1386 2.00678 -3.07309 -1.83591 5.41592 0.166427 -0.239644 0.26316 -0.0415285 0.154168 -0.944423 -0.0642797 0.317434 -1.87553 -4.59359e-05 -0.000624784 -0.00415794 
26.982 1 95 14.0498 8.10475 2.12115 2.21657 -3.24297 -2.82048 0.410808 0.178019 -0.0816126 -0.459205 0.716027 -1.92283 -0.926627 1.4062 -3.82246 -0.00284118 0.000887081 -0.00785291 
26.982 1 97 16.1756 8.16662 0.146029 1.0361 -0.692503 3.04198 0.215958 -0.00930325 -0.45874 0.00432259 1.31318 -3.11963 0.0474433 2.63242 -6.22389 -0.000111385 5.80902e-05 -0.0183723 
26.982 1 254 14.2793 5.99733 3.97781 1.72327 -6.0693 0.477481 -0.392613 0.0568143 0.0384507 -0.0258815 0.0151884 -0.173714 -0.0673537 0.0350508 -0.347449 -0.00102547 -0.000917004 -0.000927129 
26.982 1 297 16.2617 8.09281 4.07474 0.695872 -3.23092 -1.58873 0.419785 -0.198484 -0.374914 0.00142607 0.132479 -0.298102 0.0109904 0.22969 -0.60002 0.00129363 -0.000682239 -0.00157022 
26.982 1 58 18.2631 5.85744 0.162648 0.744775 -2.19882 -1.19742 -0.0624266 1.08277 -0.412165 0.466107 0.768657 -3.13088 0.966431 1.57505 -6.25117 0.0018641 0.00278315 -0.0180258 
26.982 1 2639 38.6767 20.1749 14.0987 3.75021 -5.01843 -0.73636 0.314516 0.617066 0.434915 0.861317 -1.81578 -1.45857 1.72125 -3.61079 -2.90339 0.00250231 0.00620536 -0.00757435 
26.982 1 64 20.4244 6.02103 2.05376 -1.32628 1.59704 -4.20077 -0.548537 0.155456 -0.243703 0.0671221 0.720092 -1.3611 0.136076 1.45226 -2.73963 0.00147259 0.00152923 -0.00874644 
26.982 1 99 18.1699 8.11295 2.05864 0.863417 -0.293717 1.86495 0.49647 -0.145145 0.205331 0.510094 0.796021 -1.91855 1.00671 1.57287 -3.85332 0.00256745 -0.000503005 -0.00458926 
26.982 1 103 22.3124 8.02784 2.09698 4.4635 3.5937 -0.103867 -0.280141 0.896434 -0.423933 -0.0707561 0.746917 -2.40318 -0.149141 1.50118 -4.81143 -0.000346597 0.00299347 -0.0109865 
26.982 1 258 18.3004 6.07161 4.15395 -6.26015 -0.15885 -0.0835781 -0.0947273 -0.0631174 -0.278954 0.0474338 0.0785558 -0.130558 0.0762879 0.156179 -0.261058 0.000143131 -0.000263702 -0.00137451 
26.982 1 262 22.2992 6.1043 4.0375 -4.492 3.59337 -1.28265 0.20939 -0.174951 0.272755 -0.022145 0.127148 -0.225535 -0.0468588 0.260565 -0.444093 0.000752458 -1.96134e-05 -0.000692605 
26.982 1 301 20.3055 8.00188 4.06586 -0.176189 -0.512109 -1.81133 -0.25933 0.404085 0.153929 0.0314551 0.10969 -0.480986 0.0535051 0.226564 -0.975991 -0.000249515 0.00126036 -0.00108529 
26.982 1 298 18.2395 10.1822 4.20057 0.0391482 -0.886106 -1.94802 0.195259 -0.368264 -0.421678 0.0410926 0.0610158 -0.614344 0.0855856 0.138693 -1.21675 0.00149044 -0.000374437 -0.00159711 
26.982 1 2637 36.7753 20.2211 12.136 -8.01527 -2.86044 3.5315 -0.626715 0.454539 0.206539 -0.54124 -2.24194 -1.7101 -1.06571 -4.47971 -3.42701 -0.00548794 0.00736081 -0.0111094 
26.982 1 68 24.1901 6.15395 1.93375 -2.14837 -0.184494 -1.00163 0.564078 -0.212562 0.396052 -0.0577485 0.689749 -1.36199 -0.109619 1.38441 -2.74123 0.00204475 7.73244e-05 -0.009967 
26.982 1 107 26.4088 8.14566 2.11153 1.57902 -3.27005 3.86653 -0.227873 -0.00663162 -0.252247 -0.113163 0.159047 -1.85837 -0.234015 0.28178 -3.72775 0.000946237 -0.00297366 -0.0102999 
26.982 1 266 26.3921 6.24945 4.07429 -5.15722 -1.70751 0.312737 -0.404687 -0.0149733 0.308855 0.0126342 0.100675 -0.182855 0.0208049 0.170406 -0.355789 -0.00107311 -0.000439591 -0.00104605 
26.982 1 305 24.1826 8.16375 4.02644 6.69896 -2.84637 6.35764 0.806442 -0.229766 0.273565 -0.0567953 0.0906699 -0.452715 -0.0857841 0.190423 -0.888703 0.00173613 -4.23497e-05 -0.00124852 
26.982 1 106 26.4515 10.2008 0.068596 3.88 -1.27173 2.72422 -0.380287 -0.141466 -0.292017 -0.783775 -0.23859 -3.12227 -1.56429 -0.487286 -6.27072 -0.0017432 -0.00200949 -0.0188001 
26.982 1 108 24.4924 10.1878 2.02645 -0.570407 -1.16508 -0.963916 -0.564121 -0.28309 0.142889 -0.612852 0.130069 -2.50063 -1.2529 0.256689 -4.99082 -0.00419054 0.00135858 -0.0102422 
26.982 1 306 26.4788 10.0173 4.15043 -2.52078 1.37824 3.06519 -0.27075 0.130327 -0.169887 -0.0595109 0.00195561 -0.344715 -0.140717 0.00734841 -0.665786 -0.000685486 -0.00013294 -0.00118419 
26.982 1 70 30.4628 6.14613 0.135443 4.77057 3.20627 -1.54974 0.00975401 0.317434 -0.119503 0.286953 0.996005 -3.12599 0.552751 1.99423 -6.27561 -0.00379922 0.00324257 -0.0174048 
26.982 1 72 28.2874 6.1606 2.09164 2.28948 0.744832 0.762932 0.522498 -0.130193 -0.251681 0.0256199 0.59515 -1.31467 0.0364661 1.18948 -2.64464 -0.00197226 0.000999466 -0.0106855 
26.982 1 111 30.4376 8.22748 1.88213 1.70558 -5.25308 -4.87697 0.109993 -0.158484 0.47682 0.0879512 -0.0176934 -1.79821 0.179767 -0.0733945 -3.60625 -0.00287681 -0.000601335 -0.00724301 
26.982 1 270 30.4995 6.22321 3.93155 -0.911369 2.68319 2.45247 0.142959 -0.113002 0.226634 0.0630867 0.0624758 -0.228751 0.116774 0.134123 -0.458486 0.000134867 -0.000466535 -0.000536996 
26.982 1 309 28.6059 8.25794 4.06002 2.13361 -0.107868 -0.51043 -0.169535 0.0469875 0.0059358 0.0170037 0.0361536 -0.315178 0.026959 0.0445606 -0.632228 0.000176958 -0.000331506 -0.0012628 
26.982 1 112 28.3437 10.2111 1.96808 0.521741 -4.67521 3.92058 0.51542 -0.188072 0.202648 -0.121702 -0.469854 -1.39413 -0.245865 -0.953326 -2.79995 0.00116937 -0.00285505 -0.00799506 
26.982 1 76 32.6404 6.14323 2.09476 -1.45933 3.18034 8.39639 -0.393136 -0.115546 -0.233645 0.540761 0.412173 -1.87798 1.11409 0.863767 -3.77623 -0.00083462 -0.000232827 -0.00448147 
26.982 1 115 34.6176 8.06535 1.91235 4.28316 -4.62663 2.11483 0.139259 0.391819 0.488651 -0.356368 -0.493276 -1.86481 -0.705961 -0.988781 -3.75741 0.00187617 0.000855156 -0.00385743 
26.982 1 274 34.6172 6.04769 4.11058 4.2118 0.735163 2.28458 0.307548 0.388203 -0.0934902 0.0362857 -0.0526902 -0.450384 0.0550217 -0.103036 -0.923243 0.00157644 0.000605087 -0.000127211 
26.982 1 313 32.6336 8.09394 3.98239 0.267051 4.80215 0.786835 -0.20493 0.397684 0.102042 0.0222498 -0.0300488 -0.368265 0.0384615 -0.0562685 -0.738592 -0.000688593 0.000741046 -0.000255367 
26.982 1 114 34.518 10.1925 0.0961766 2.43294 3.10578 -7.60086 0.604408 -0.102768 -0.252283 0.221755 0.0167799 -3.13351 0.454537 0.0234664 -6.27939 -0.000637605 0.00498459 -0.0173798 
26.982 1 116 32.6001 10.2969 2.06272 -0.682774 0.165951 1.49313 0.0325598 -0.458574 0.0955427 0.0985805 -0.52335 -1.41467 0.193994 -1.05378 -2.81448 7.35896e-05 0.00266812 -0.00719961 
26.982 1 44 40.7112 6.05905 1.73189 -9.02211 3.62686 -1.05284 0.22622 0.269425 0.328052 0.678972 -1.81099 -0.865807 1.29816 -3.65137 -1.74782 0.004953 -0.00598553 -0.0136082 
26.982 1 281 40.7063 8.09132 3.96062 -4.47549 -5.5283 3.23367 0.118418 0.233292 -0.231834 0.0873057 -0.281206 -0.282411 0.165567 -0.568605 -0.585078 0.000914134 -0.00125182 -0.00500326 
26.982 1 2631 30.4873 20.2513 14.028 -5.05374 2.23578 -2.7393 0.376018 -0.060268 0.825521 -0.790847 -1.44293 -1.51076 -1.58323 -2.8865 -3.02993 2.23198e-05 0.00543858 -0.00860314 
26.982 1 80 36.5489 5.98206 1.89998 0.387287 2.57026 3.96168 0.251366 0.268026 0.159175 -0.38719 -0.658948 -1.90548 -0.763732 -1.29413 -3.83336 0.00497336 -0.00259985 -0.0103267 
26.982 1 117 36.6601 8.3085 0.0662961 2.90817 -0.614418 0.111833 -0.286586 -0.710456 -0.307358 -0.140299 -0.00439012 -3.11206 -0.284554 -0.00629404 -6.21924 0.00647818 -0.00130226 -0.0179998 
26.982 1 119 38.7341 8.05905 1.90465 -0.00330342 -1.31548 -3.20053 0.0790601 0.313893 -0.156668 0.0825701 0.40001 -1.43318 0.159466 0.770972 -2.8818 0.00411685 -0.000546736 -0.0137154 
26.982 1 278 38.6112 6.1734 3.83777 -4.67436 -0.243501 -3.45714 0.234241 -0.519315 0.181966 0.603523 -0.680065 -0.320666 1.20982 -1.36938 -0.678072 0.0037762 -0.00425907 -0.00380437 
26.982 1 317 36.6893 8.22659 3.89594 1.76754 4.43839 0.711402 -0.302885 -0.0987286 0.142721 -0.00864212 -0.0586691 -0.283718 -0.00890421 -0.0931011 -0.596773 -0.000332924 -0.000504283 -0.00129211 
26.982 1 120 36.8425 10.3013 1.9595 2.57509 3.78581 -1.75427 -0.872784 -0.155339 0.433862 0.526069 0.477433 -1.96919 1.04975 0.964705 -3.93699 0.00176562 -0.000140887 -0.00774479 
26.982 1 318 38.694 10.2542 3.96014 -0.102564 -4.41508 -0.520529 0.577144 -0.391015 0.351322 0.197713 -0.052682 -0.564333 0.397155 -0.0992 -1.15005 0.00243691 -0.00126366 -0.00240427 
26.982 1 88 3.79672 10.0935 1.93994 -3.00837 4.62567 -0.51872 0.142829 0.269464 -0.127833 -0.520951 0.0194166 -1.71541 -1.04905 0.0446699 -3.44946 -0.00399957 5.40279e-05 -0.0147459 
26.982 1 2611 9.82329 20.2123 13.9706 2.51963 3.67707 -1.01743 0.717744 0.042625 0.746349 -0.82384 -2.41878 -0.529255 -1.61567 -4.8444 -1.03662 -0.000689835 0.00976641 -0.00340294 
26.982 1 123 1.82144 12.145 2.05896 1.40493 0.573945 -1.06958 -0.303046 -0.0654233 -0.402919 -1.97753 -1.19507 -1.27526 -3.93596 -2.38803 -2.56764 -0.00367794 -0.000901618 -0.016269 
26.982 1 2609 7.8839 20.1357 12.154 3.01467 2.76046 -0.769021 -0.0987317 0.121784 -0.461604 -0.59982 -1.67419 -1.14368 -1.20743 -3.36984 -2.3145 -0.00417853 0.00506781 -0.00958456 
26.982 1 128 3.90805 14.1456 1.84588 -1.63291 1.6022 4.19506 -0.0549286 -0.00579252 0.0587739 -0.579568 -0.154386 -0.881708 -1.16582 -0.306574 -1.75733 -0.0014769 0.00045966 -0.0179034 
26.982 1 282 1.7396 10.1739 4.0915 3.38549 -5.51532 -0.726364 -0.0666134 -0.198572 -0.231486 -2.07155 -0.067731 -1.04466 -4.13592 -0.137021 -2.09087 -0.00644507 -0.0031481 -0.00559031 
26.982 1 322 2.09984 14.1087 4.05042 -3.56616 6.58208 0.393855 -1.01426 0.0152664 0.0408221 -1.62743 -0.63887 -0.930172 -3.25844 -1.26583 -1.84066 -0.00474321 0.000285913 -0.0036525 
26.982 1 325 3.83095 12.0219 3.96834 2.47519 2.62246 0.0814057 0.366635 0.18201 0.202076 -0.393923 -0.178426 -0.263645 -0.793412 -0.315061 -0.526737 -6.83849e-05 0.000869665 -0.00297615 
26.982 1 207 5.7068 0.0932948 6.00109 0.149328 -3.41628 5.21744 0.639512 0.0376341 0.669178 0.481199 0.864812 -1.43875 0.969091 1.72857 -2.89292 0.000231262 -0.0166049 -0.00230908 
26.982 1 127 5.88628 12.1958 1.89095 2.55946 -5.15169 2.05153 0.0984252 -0.0162354 0.107828 -0.01611 -0.617513 -1.31978 -0.0294247 -1.2411 -2.62488 -0.00274927 0.00262145 -0.0114576 
26.982 1 129 8.07625 12.2627 0.081449 0.607006 0.881689 -0.899437 -0.387357 0.114674 -0.0583131 0.0490583 -1.08027 -3.1219 0.103847 -2.14928 -6.24994 -0.000713428 0.00536964 -0.0175195 
26.982 1 132 7.91435 14.3061 1.95407 1.8053 0.85714 -0.467377 0.184666 -0.585833 0.069707 0.00436413 -0.159175 -0.802753 0.0218813 -0.315517 -1.60266 0.000658658 0.00184228 -0.0129132 
26.982 1 326 5.8799 14.1596 3.85839 0.879412 4.64022 -5.02421 0.178211 -0.350647 0.442332 -0.00691844 -0.047795 -0.0425291 -0.0269033 -0.0805636 -0.0880708 0.000528291 -3.35555e-05 -0.00241753 
26.982 1 329 7.93151 12.0925 4.11441 1.71894 -1.82847 0.5775 0.309705 0.276441 -0.14011 0.00208346 -0.0836872 -0.200106 0.0218599 -0.17936 -0.377894 0.000844855 0.00146218 -0.001467 
26.982 1 96 12.0199 9.95744 2.26258 5.27138 3.56683 3.36733 0.487335 0.441083 -0.494203 0.135605 -0.407298 -2.36362 0.251776 -0.849131 -4.69878 0.000326715 -0.00105674 -0.00880211 
26.982 1 407 5.84649 0.198191 10.052 1.27018 1.16223 1.89268 -0.0559142 -0.943416 0.633349 0.540053 0.885987 -1.45121 1.09993 1.77986 -2.89047 0.00375983 -0.0183713 0.00236083 
26.982 1 131 9.99155 12.0641 2.25822 1.8237 -2.77187 4.29904 0.0490647 0.315148 -0.593628 0.110529 -0.645487 -1.40391 0.244499 -1.3191 -2.81539 -0.000227241 0.00321136 -0.00863697 
26.982 1 133 12.2111 12.0612 0.0491545 0.955535 6.34578 0.502305 -0.629863 -0.0240484 0.325564 0.761092 -0.748743 -3.13383 1.50844 -1.48258 -6.26858 -0.00433037 0.00168976 -0.0164524 
26.982 1 136 12.0177 14.287 1.97491 -2.04939 -3.67596 3.16816 -0.0420649 -0.567858 0.0880631 0.651892 -0.103735 -1.38871 1.29868 -0.221897 -2.78991 -0.00357877 0.00211187 -0.0113285 
26.982 1 290 9.97045 9.98455 4.08488 -1.65317 -2.77665 2.93028 -0.103048 -0.249803 0.183552 0.0334751 -0.0114093 -0.417236 0.0682548 -0.056359 -0.818306 -0.000532645 -0.000648751 -0.000207821 
26.982 1 330 10.1926 14.1794 3.92408 -0.957837 2.50837 4.15159 -0.857136 -0.227511 0.37586 0.0368127 -0.0296742 -0.0855584 0.0680387 -0.0441144 -0.164561 -0.00287737 -0.000102515 -0.00213207 
26.982 1 333 12.1285 12.0935 3.9744 0.237751 0.113688 -0.467259 0.0402876 0.18924 0.216821 0.0820048 -0.0562088 -0.33663 0.149945 -0.133705 -0.668102 0.000124517 0.000521293 -0.00111063 
26.982 1 100 16.2289 10.1238 2.13729 1.03421 0.585953 -0.45618 -0.268645 0.241812 0.0365035 0.0781808 0.661818 -2.48186 0.181982 1.31302 -4.97162 -0.000686795 0.00113224 -0.00490455 
26.982 1 135 14.1858 12.1823 2.14571 0.0445171 4.79518 -2.82096 -0.115083 -0.247085 -0.252933 0.549107 -0.12691 -2.45589 1.12245 -0.217054 -4.91018 -0.000688504 -0.000261575 -0.00552444 
26.982 1 140 16.1354 14.1964 2.1593 4.0121 -0.72931 1.42497 -0.260182 -0.262241 -0.281845 0.1271 -0.597162 -2.47693 0.270282 -1.20078 -4.94321 0.00162559 -0.000474477 -0.00789876 
26.982 1 294 14.2853 10.0875 4.18245 0.533667 -1.50072 3.09406 -0.187265 0.119645 -0.752441 0.00464464 0.0708958 -0.526407 0.0120779 0.103591 -1.04109 -0.00118811 0.000535558 -0.00251963 
26.982 1 334 13.9832 14.2189 4.134 2.55554 -4.13048 -1.64636 0.260494 -0.0361222 -0.132816 0.065222 -0.0163706 -0.440597 0.149519 -0.0469808 -0.877149 0.00056492 0.000288213 -0.00109873 
26.982 1 337 16.0816 12.1221 4.16641 0.699874 -0.75526 -6.4354 0.235181 0.172443 -0.200153 0.0337802 0.028622 -0.610345 0.0691893 0.0486443 -1.22931 0.000489442 0.0011595 -0.00106804 
26.982 1 104 20.3114 10.1769 2.1772 -1.39385 0.712894 -0.677223 0.125352 -0.133599 -0.0396564 0.0725012 0.217435 -3.00504 0.144959 0.443953 -6.0056 0.00344201 -0.00053704 -0.00715086 
26.982 1 139 18.2839 12.2372 2.27463 3.59387 -0.545498 -4.76292 -0.387031 -0.210478 -0.752115 0.0904074 -0.0123968 -3.04709 0.185566 -0.0024815 -6.08267 -0.000303677 0.00263181 -0.00875991 