ITEM: TIMESTEP
4000
ITEM: NUMBER OF ATOMS
4000
ITEM: BOX BOUNDS pp pp pp
-0.887164 41.3872
0.205005 40.295
0.204095 40.2959
ITEM: ATOMS mass type id x y z vx vy vz fx fy fz xrad yrad zrad vxrad vyrad vzrad fxrad fyrad fzrad 
26.982 1 3 1.11916 0.230089 2.26772 0.0628211 -8.00954 -0.647767 0.267038 0.143199 -0.0652854 -12.4657 -30.7035 -15.7762 -5.78397 -15.9319 -9.20862 -0.00657604 -0.0115184 -0.00549488 
26.982 1 8 3.24695 2.26206 2.09205 1.55607 3.05024 2.67974 -0.00664409 -0.28042 0.537261 1.86774 -27.6996 -22.893 1.87114 -13.8914 -12.5712 0.000724863 -0.00919666 -0.00606153 
26.982 1 43 0.960996 4.1648 2.34787 0.144655 -0.669075 -1.9761 0.680212 0.029566 -0.18401 -14.2197 -13.7761 -30.1408 -8.23307 -6.04963 -14.7717 -0.00668946 -0.00525337 -0.00176899 
26.982 1 202 1.07274 2.32769 4.52692 -2.82304 -3.15812 -4.63697 0.406969 -0.468569 -1.07632 -12.8486 -23.2314 -18.4451 -6.91721 -9.83073 -8.66197 -0.00846563 -0.0040325 -0.00791627 
26.982 1 245 3.24489 4.21415 4.29585 -2.6864 -0.226489 2.63222 0.0654476 -0.123807 -0.224016 -1.81004 -6.71477 -6.84298 -0.983935 -3.07587 -3.34029 -0.00102788 -0.00126887 -0.0022391 
26.982 1 2 1.15257 2.15199 0.243768 3.26348 2.46539 0.604083 -0.00232049 0.0504206 -0.220631 -13.3249 -14.398 -27.0718 -6.80789 -7.9817 -14.6018 -0.0047824 -0.00758788 -0.0121232 
26.982 1 205 3.30865 0.378779 4.29509 6.43474 1.48016 1.58234 -0.34225 -0.602094 -0.27713 -2.72631 -3.16908 -6.95954 -0.150283 -4.65269 -5.92736 0.00158934 -0.0124358 -0.0100876 
26.982 1 41 -0.853433 4.28036 0.246199 -5.89699 -1.94094 2.12876 -0.233497 -0.17892 -0.27379 -7.62 -13.1571 -22.2343 -3.62803 -5.532 -10.9948 -0.00829532 -0.00834637 -0.00931213 
26.982 1 47 5.64224 4.04562 2.24309 1.00292 2.9611 -0.652908 -0.522118 0.594056 0.148348 -4.47178 -9.80988 -23.0019 -1.17314 -5.80295 -11.946 0.00145109 -0.00151038 -0.00676104 
26.982 1 206 5.27694 2.10701 4.22478 -6.28371 0.524306 -3.67704 0.486171 0.3682 -0.13526 -5.20154 -27.4421 -15.8066 -0.660692 -14.1096 -8.40572 0.00326492 -0.00828907 -0.00598483 
26.982 1 45 3.45259 4.23226 0.32734 -2.9983 -2.01732 -2.95112 -0.321611 0.0215734 -0.270983 -4.182 -5.81914 -20.1088 -1.36852 -3.98352 -13.1369 -4.9053e-05 -0.0013335 -0.0157734 
26.982 1 6 5.4877 2.11682 0.250856 -2.33779 0.559552 0.340237 -0.269717 0.241685 -0.174535 -7.74377 -13.3787 -24.564 -2.29321 -6.8155 -10.9838 0.00241534 -0.00912504 -0.0133639 
26.982 1 12 7.58147 2.18705 2.26508 -6.0754 -0.951421 -2.88103 -0.0580858 0.0436328 0.202946 -4.1455 -32.8901 -20.2794 -1.58901 -17.9982 -11.5405 -0.00256766 -0.0104162 -0.00691282 
26.982 1 249 7.63123 4.2237 4.27608 3.6753 1.98345 -3.49074 -0.17456 0.00206837 0.0368679 -0.588287 -4.71163 -4.3527 -0.173464 -2.96933 -2.5684 -0.00039267 -0.00185155 -0.00171479 
26.982 1 51 9.64223 4.1589 2.30317 -0.143188 0.343468 7.44797 0.357545 0.128396 -0.0771949 0.0727532 -3.85932 -19.261 0.354663 -3.35424 -11.2362 -0.00122032 -0.00215441 -0.00727902 
26.982 1 210 9.65205 2.14755 4.30801 -2.64886 1.3711 -1.7339 0.35141 0.253292 0.0739103 0.816188 -22.8779 -14.7833 -0.97369 -12.2247 -8.07003 0.000584307 -0.00799895 -0.00257279 
26.982 1 11 9.62866 0.250667 2.24783 1.49347 -2.66468 -0.922439 0.429318 0.017731 -0.236998 1.08694 -1.49557 -24.1896 0.404489 0.00803727 -13.1745 -0.000336627 -0.0155086 -0.00434278 
26.982 1 53 11.7601 4.30732 0.281334 0.924889 1.37857 1.70943 0.0251453 -0.460062 -0.137138 4.09632 -3.84568 -45.8805 1.32166 -1.04625 -18.5692 0.00126086 -0.00471578 -0.0171291 
26.982 1 10 9.619 2.23783 0.292468 0.31048 2.18338 -2.66793 0.212464 -0.121976 -0.281529 0.149092 -23.5319 -36.5236 -0.750248 -11.2202 -15.9116 -0.00158349 -0.00586686 -0.015893 
26.982 1 16 11.8863 2.23512 2.17599 -6.60254 -5.66252 -0.105432 -0.325528 0.0912339 0.235186 5.82316 -32.4394 -21.6659 1.50057 -14.8677 -12.5996 0.00165769 -0.010038 -0.00673766 
26.982 1 15 13.9373 0.222031 2.20538 3.10117 -2.23337 -1.16127 0.377776 -0.0201269 -0.133961 0.334737 -6.01425 -33.1924 -0.486473 -4.28752 -16.0246 -4.69795e-05 -0.0127661 -0.00751594 
26.982 1 253 11.8587 4.23878 4.24807 -1.08651 2.4494 3.61754 -0.155149 -0.1746 -0.146228 0.587265 -4.66223 -4.55352 0.232854 -2.30198 -2.88975 -1.46109e-06 -0.00224469 -0.00164538 
26.982 1 55 13.9397 4.08899 2.18663 1.79037 -0.108904 1.95701 0.2183 0.409554 0.173385 -0.614769 -10.7664 -22.8955 -0.189467 -4.14741 -13.9461 0.000534278 -0.00411246 -0.00713244 
26.982 1 214 14.0712 2.05502 4.23011 -1.38249 4.78136 2.15616 -0.119671 0.156426 -0.246206 3.47249 -26.5703 -15.288 1.78556 -12.431 -7.78316 -0.000353756 -0.00804491 -0.00422345 
26.982 1 20 16.201 2.16646 2.08251 1.72389 -3.6648 -5.76077 -0.218538 0.228432 0.443598 -10.1207 -33.2715 -18.3718 -4.07067 -15.7554 -10.5906 -0.0034701 -0.00984192 -0.00742415 
26.982 1 257 16.162 4.17267 4.16543 -3.11642 -5.82271 3.29279 -0.415073 0.157951 -0.0983757 -0.674506 -6.27582 -3.68867 -0.31483 -2.9358 -2.57097 -0.00202145 -0.00150399 -0.0018321 
26.982 1 19 18.2564 0.260796 2.27783 -0.0836096 4.80333 -0.990297 0.367632 0.0327929 -0.0872708 0.328362 -28.3549 -13.8635 1.29268 -12.0095 -8.91061 1.94871e-05 -0.0156432 -0.00492337 
26.982 1 218 18.2106 2.30483 4.30748 -2.19486 2.3542 2.73862 0.28852 -0.586341 -0.774051 -2.60375 -25.135 -9.05131 -1.42916 -12.2081 -5.51914 0.000167316 -0.00901816 -0.00455815 
26.982 1 18 18.3353 2.2804 0.258925 1.63965 2.35727 -0.963048 -0.272049 0.0380012 -0.188425 -3.03015 -19.7603 -42.0719 -1.05898 -8.75461 -20.6754 -0.00124358 -0.00856519 -0.01615 
26.982 1 59 18.2557 4.2884 2.29469 2.00117 -3.13736 1.55315 -0.0681512 -0.132548 -0.45771 0.644101 -4.10506 -16.7106 0.499387 -2.0166 -10.5698 -0.00103231 -0.00147764 -0.00581418 
26.982 1 57 16.0838 4.35354 0.198714 2.77157 0.662795 -0.734719 0.181326 -0.195166 0.103447 -6.32142 -7.22045 -45.9209 -1.9664 -1.63638 -18.5336 -0.00224252 -0.00337045 -0.0168496 
26.982 1 24 20.4303 2.29456 2.22993 0.877698 -4.24883 -4.08287 -0.301833 -0.299087 0.0334088 1.62159 -26.6173 -13.7891 1.51405 -12.4277 -9.56622 -0.00070934 -0.0103122 -0.0042684 
26.982 1 63 22.5028 4.23611 2.26731 3.63847 0.136084 0.961516 0.0226933 -0.0974936 -0.0854971 0.236425 -0.0415352 -21.4609 0.166497 -1.31584 -13.5395 0.00118806 -0.0020881 -0.00470997 
26.982 1 222 22.4643 2.25205 4.27143 0.85334 -0.782209 -0.716326 0.199218 -0.26272 -0.0124109 -4.10839 -20.6033 -10.4185 -1.26877 -10.2949 -6.42715 0.00067282 -0.00925694 -0.00224471 
26.982 1 261 20.3496 4.17335 4.29992 0.459371 0.985866 0.642703 -0.030909 0.0653078 -0.496404 0.152165 -4.31384 -3.58907 0.156865 -2.14036 -2.61274 -9.62595e-07 -0.00149135 -0.00180353 
26.982 1 23 22.3815 0.319649 2.14501 1.00944 -1.02438 -1.09912 0.195509 -0.42267 -0.0245509 -3.408 -15.2083 -19.7918 -0.593676 -6.10598 -12.7946 -0.000187612 -0.0167092 -0.0042354 
26.982 1 61 20.3262 4.27152 0.297729 5.56892 4.49337 -3.03814 -0.044786 -0.0917749 -0.438111 3.10609 0.556614 -38.0226 1.35934 -0.234128 -13.0699 -0.000554521 -0.00235488 -0.0172498 
26.982 1 22 22.5407 2.25293 0.170267 3.50076 4.93085 -3.11569 -0.274429 -0.194821 0.505545 -1.56605 -15.0193 -39.0566 0.155208 -7.44204 -15.882 0.00107483 -0.00787912 -0.0161968 
26.982 1 28 24.5823 1.99888 2.22237 -5.98256 -3.41302 -0.135835 -0.114865 0.4503 0.0829439 -2.7186 -17.412 -18.2413 -2.71795 -8.97491 -11.8236 0.002262 -0.00926046 -0.00698207 
26.982 1 27 26.7188 0.283569 2.16684 -2.38396 -3.93928 0.763455 0.00560533 -0.480119 -0.0216166 9.16649 -42.8013 -15.8012 1.47945 -21.3353 -9.44657 -0.00192094 -0.0134079 -0.011144 
26.982 1 67 26.7095 4.04431 2.22697 -0.0770606 1.77748 -1.52397 -0.270439 0.518016 0.0736665 0.427418 -0.136562 -23.9455 0.0326132 0.0905285 -13.9259 0.00237649 -0.000383943 -0.0131258 
26.982 1 226 26.8285 2.05213 4.24241 4.31684 0.367679 -4.1102 -0.53886 0.579296 -0.137671 4.99823 -17.1236 -6.62723 0.894696 -7.66359 -3.71377 -0.00348936 -0.0043306 -0.0040441 
26.982 1 265 24.6738 4.12601 4.18992 -1.31543 -3.67126 2.89459 0.0609523 0.0260146 0.157362 -0.144535 -2.29388 -4.16388 -0.225068 -1.40103 -2.84601 0.00103855 -0.00193038 -0.000991574 
26.982 1 65 24.6678 4.20813 0.312816 4.96175 -0.396924 0.907277 -0.432768 0.224619 -0.0901779 2.67734 2.43401 -38.3911 1.07188 0.134094 -13.1915 0.00636512 -0.00168563 -0.0173721 
26.982 1 32 28.7519 2.29614 2.07933 -0.991791 2.90236 0.133518 0.41231 -0.475215 0.100207 1.36755 -25.772 -17.7279 -0.314488 -9.49892 -10.8396 0.000983066 -0.00365956 -0.0167641 
26.982 1 71 30.9099 4.18695 2.1501 -0.049483 -0.260613 2.74608 -0.0341142 0.237739 0.0167055 -1.58293 -3.02244 -17.0274 -1.19364 0.191274 -11.1131 0.000305701 0.000392461 -0.0164083 
26.982 1 230 30.8259 2.03959 4.23071 -2.508 -2.12506 1.7842 0.00219019 0.633509 0.234026 -2.83114 -22.9544 -9.02992 -1.29559 -8.66568 -3.84131 2.03466e-05 -0.00196354 -0.00371125 
26.982 1 269 28.8303 4.20406 4.05357 0.110618 3.72693 -2.94077 0.192937 0.0966738 0.413675 -0.24128 -3.83409 -3.93658 -0.201449 -1.20411 -2.64296 0.00114556 0.000354491 -0.00327653 
26.982 1 273 32.8851 4.40611 4.20707 -3.399 1.99156 1.833 0.197073 -0.738931 -0.0444725 0.66989 -3.29059 -3.67196 0.233868 -0.869898 -2.19437 -0.000765476 -0.00139184 -0.00344239 
26.982 1 229 28.7706 0.188469 4.15841 -5.26469 -5.26547 -0.143633 0.0224075 -0.0906399 -0.0575667 -0.645545 -8.9902 -8.99617 -0.513908 -8.71365 -6.15865 -0.000109993 -0.0123816 -0.00815832 
26.982 1 31 30.9354 0.372088 2.11949 2.49386 2.97929 -0.676598 -0.0449993 -0.531386 -0.000234414 -6.18027 -26.7167 -20.2729 -3.0592 -17.1695 -9.8204 -1.84847e-05 -0.0124725 -0.0135138 
26.982 1 36 32.9649 2.26547 2.33324 -2.36868 -0.657257 4.88398 0.209761 0.0561111 -0.179068 0.750886 -24.0026 -20.279 0.270931 -8.29891 -10.2411 -0.00220616 -0.00314713 -0.0134223 
26.982 1 35 35.1173 0.261065 2.22817 3.06922 0.735702 0.483095 -0.274752 0.00383225 0.0188336 2.94655 -40.7243 -23.4455 2.65237 -21.0977 -10.8179 7.81474e-05 -0.0149728 -0.0101819 
26.982 1 75 35.0621 4.24419 2.32928 1.04809 -0.386512 -2.95612 0.210528 -0.115081 -0.213641 9.19509 -3.33376 -29.9232 3.72061 -0.294387 -15.0255 -0.00282368 0.00143309 -0.0112849 
26.982 1 234 34.9717 2.26663 4.36841 -0.386954 3.36212 2.48895 0.0814547 0.132496 -0.221535 0.848825 -15.6356 -9.03075 0.9532 -6.53362 -3.99408 6.83058e-05 -0.0026797 -0.00281999 
26.982 1 34 35.0698 2.24349 0.233866 -0.450253 4.47666 -0.410439 0.273287 0.198153 0.0927335 7.09274 -8.71991 -27.1765 4.38276 -2.85644 -18.0345 -0.00392213 -0.00414259 -0.016021 
26.982 1 233 33.0425 0.2754 4.36021 -1.39398 -0.315042 3.74459 -0.331353 -0.387995 -0.283585 0.627585 -20.393 -12.2053 0.172175 -13.4321 -7.09735 -0.00070009 -0.0123688 -0.00823972 
26.982 1 237 36.9651 0.310272 4.20144 2.12146 -2.14196 -0.639352 0.651873 -0.154959 0.131683 5.40163 -22.9907 -21.6016 2.32814 -12.6308 -10.4653 0.00465419 -0.0122954 -0.0080294 
26.982 1 277 37.133 4.20926 4.19788 -1.37009 -1.91334 -1.01014 0.27589 0.101504 0.109617 0.941112 -3.89531 -8.34479 0.432278 -1.56279 -4.02666 0.00111426 -0.00109782 -0.00137178 
26.982 1 77 37.2596 4.10266 0.292734 10.4846 4.73157 -1.64788 -0.0870506 0.665848 -0.328385 0.261909 -1.03523 -0.412266 0.0956769 -0.877815 -0.497165 -0.00379059 0.00131338 -0.0171641 
26.982 1 241 41.2868 4.22306 4.31365 -0.0887265 3.96874 -3.3432 -0.0918029 0.316633 -0.21125 -21.0286 -22.3455 -24.141 -8.43901 -8.89024 -10.7363 -0.000848244 -0.00147457 -0.00111717 
26.982 1 4 41.2989 2.06595 2.14927 3.77281 6.51916 3.26789 0.247749 0.18398 0.087224 -12.4264 -23.7572 -27.8885 -8.0099 -10.1695 -12.8987 -0.00213461 -0.0125324 -0.0044768 
26.982 1 40 37.2364 2.32204 2.24905 1.05977 2.36833 -1.25768 -0.015918 -0.567995 0.0350393 11.1441 -19.5844 -36.0844 5.47238 -8.33576 -17.2428 0.00221712 -0.00993366 -0.00707075 
26.982 1 79 39.3661 4.37966 2.17824 1.80506 -4.94431 5.34963 -0.193397 -0.204115 0.259182 -4.70904 -10.4743 -34.7914 -1.64097 -4.67608 -17.5117 -0.000867608 -0.00274336 -0.00433932 
26.982 1 238 39.465 2.21257 4.10143 0.169516 0.847555 -2.25572 -0.940635 -0.1184 0.163661 0.511429 -22.5052 -17.9188 -0.137254 -9.51013 -8.16614 0.000159817 -0.00970563 -0.00390959 
26.982 1 38 39.3789 2.1547 0.197568 -1.23142 -1.36694 -2.15415 -0.286197 0.120882 0.00569396 1.62315 -11.7307 -12.3567 0.647181 -7.17825 -8.17034 -0.000712817 -0.0109097 -0.0133105 
26.982 1 83 1.17075 8.1347 2.32297 1.26614 0.87219 -4.88856 0.448782 0.376109 -0.337385 -21.565 -3.98151 -28.3779 -10.4591 -2.77065 -15.1117 -0.00445847 -0.00256554 -0.00504537 
26.982 1 242 1.09238 6.21615 4.26399 0.688573 -0.219571 2.67862 0.431577 -0.208849 0.0961608 -21.7124 3.93379 -15.2126 -10.378 0.338788 -7.38127 -0.00701132 -0.00400831 -0.00391699 
26.982 1 281 -0.850843 8.19364 4.23558 -1.36891 -2.64093 -0.690292 -0.220604 0.572379 0.227545 -3.88483 -7.17488 -10.8995 -5.07772 -5.52068 -7.74562 -0.00951138 -0.00645149 -0.00659045 
26.982 1 285 3.14047 8.31251 4.33766 0.145936 -1.18366 1.01379 0.491109 -0.0550472 -0.455203 -4.86954 -0.0962216 -6.32303 -2.00245 -0.195999 -2.92398 -0.00026631 -0.000577758 -0.00184015 
26.982 1 42 1.2326 6.16146 0.201521 0.29541 0.472182 -0.0225594 0.339969 -0.0280985 0.438186 -16.3732 -6.04953 -25.0596 -10.016 -2.39173 -12.725 -0.00307973 -0.000646124 -0.0128937 
26.982 1 81 -0.73887 8.15387 0.317961 2.94976 4.50916 -8.01143 -0.202872 0.679214 -0.197149 -14.7229 -7.94273 -27.3179 -5.04698 -3.53157 -13.163 -0.00907821 -0.00438915 -0.0105878 
26.982 1 48 3.42859 6.22365 2.38216 -2.97121 1.40942 1.6184 -0.23919 0.0545537 -0.380176 -9.84101 -0.564097 -27.1792 -4.77928 -0.160336 -13.2192 -0.00115751 -0.000772908 -0.00532895 
26.982 1 46 5.52411 6.19467 0.296595 1.37706 0.712378 1.66794 0.187058 0.244754 0.191397 -4.65715 2.23225 -50.2423 -1.5873 0.644757 -25.2001 0.00182497 -0.00165675 -0.0164957 
26.982 1 87 5.61223 8.39827 2.32365 2.50779 -0.154136 1.44137 -0.363451 -0.571118 -0.14236 -1.24787 3.62008 -25.6617 -0.491998 1.07068 -12.0078 -0.00131285 -0.0029252 -0.00478953 
26.982 1 246 5.45251 6.26621 4.25203 -1.79021 0.306771 1.8524 0.297192 -0.265225 -0.435091 -0.416099 -0.0849976 -3.70504 -0.167987 -0.113304 -1.80638 0.000629494 -0.0005718 -0.002582 
26.982 1 85 3.35726 8.3931 0.417713 -3.81034 -5.16604 -4.25781 0.161791 -0.711232 -0.206533 -2.48271 5.28299 -24.9378 -1.46911 1.41711 -12.6342 6.00696e-05 -0.00183306 -0.0165491 
26.982 1 52 7.68971 6.15606 2.25524 3.50337 -2.75938 1.83428 -0.395952 0.163025 0.129065 2.53438 3.72498 -22.3714 1.13116 1.06853 -11.2523 -0.0015106 -0.00236903 -0.00677525 
26.982 1 289 7.61762 8.30746 4.27282 -3.84787 -0.145098 0.352607 0.116066 -0.19308 0.289576 0.601095 0.327697 -5.06065 0.252382 0.134959 -2.2977 0.000690909 -0.000754608 0.000546801 
26.982 1 56 11.7793 6.25037 2.20889 1.13474 2.36109 -2.73103 0.106611 -0.113637 0.379508 -1.00847 7.83344 -26.6634 0.862015 2.09268 -14.267 0.000682027 -0.000612053 -0.0032735 
26.982 1 91 9.65526 8.23118 2.25644 0.904025 0.313536 -0.669042 0.467585 0.178521 0.192167 4.03441 3.0602 -32.708 1.58535 1.18931 -15.0812 0.00145954 0.000303128 -0.00375576 
26.982 1 250 9.68284 6.19997 4.29712 0.892746 3.53941 -1.02621 0.111658 0.277856 -0.102934 0.417896 0.832579 -4.16148 0.22587 0.195458 -2.16421 0.000431527 0.000905785 -0.000900319 
26.982 1 50 9.69392 6.33404 0.256185 -4.52759 1.88221 -1.97319 0.291995 -0.325137 0.116077 3.83612 6.59249 -33.6849 2.02496 1.33548 -18.447 -0.00195838 -0.00285721 -0.0177231 
26.982 1 290 9.93931 10.2236 4.26711 -3.04393 3.52239 1.55505 -0.380652 -0.207951 0.159078 0.425581 -0.496325 -6.02819 0.238699 -0.0518332 -2.88002 0.000253686 -0.000892164 0.000201836 
26.982 1 89 7.62714 8.27021 0.41003 1.39778 -0.452676 -2.87272 0.00462497 -0.00183436 -0.578395 1.47655 7.29495 -25.2643 0.562431 2.48742 -12.7131 -0.000255631 -0.00172202 -0.0178488 
26.982 1 293 11.9244 8.21667 4.18521 -0.0757077 -2.64312 -1.96442 0.00679556 -0.0910201 0.23104 -0.439209 0.447922 -6.51152 -0.0396766 0.193689 -3.14021 0.000570443 -0.000209304 0.000276018 
26.982 1 95 14.05 8.21375 2.11629 4.01901 -3.42804 -1.95545 0.00101217 0.338375 0.543266 -6.29411 3.79992 -28.9954 -2.00864 0.747219 -15.2925 0.00340029 0.00476365 -0.00916736 
26.982 1 254 14.1163 6.28532 4.25103 4.3449 2.17998 5.62607 -0.625428 -0.402858 -0.140688 -0.550011 0.112601 -3.90241 -0.145116 -0.0491246 -2.60135 -0.00193261 -0.000710741 -0.000923982 
26.982 1 60 15.9821 6.26816 2.16336 -0.236873 6.52201 0.839256 0.385916 -0.324041 -0.0964308 -1.44158 1.61664 -19.2785 -1.42819 0.0540218 -12.0063 0.000389862 0.00227228 -0.00840151 
26.982 1 93 11.909 8.3358 0.374404 -4.53204 1.45224 0.819382 -0.432876 -0.148057 -0.595388 1.02769 0.0947234 -3.38147 2.14793 0.0819582 -6.42602 0.00253254 0.00370428 -0.0180504 
26.982 1 54 13.853 6.28285 0.253213 0.325766 -3.02619 -4.05773 0.542699 -0.54377 0.283214 -7.41237 5.44145 -38.8712 -2.57737 1.71247 -13.3149 0.00291214 0.00155967 -0.0177932 
26.982 1 297 16.2056 8.13189 4.1343 2.48606 0.495867 0.413481 -0.367013 0.837794 -0.00639843 -0.262536 0.841199 -4.15095 -0.184156 0.305447 -2.39557 -0.00138412 0.0028818 -0.00277942 
26.982 1 99 18.151 8.44618 2.16582 1.27936 -3.59174 0.941405 0.0943375 -0.460836 0.0785972 2.88578 4.62011 -24.5958 0.246108 1.73096 -12.3585 -0.00341274 0.00241544 -0.0114383 
26.982 1 258 18.1941 6.24475 4.12687 -1.53138 1.00685 0.732148 0.205985 0.0916583 0.240827 0.419861 0.488924 -2.78561 0.0802019 0.0487599 -1.84154 0.000109338 0.000503521 -0.00077525 
26.982 1 298 18.1537 10.2552 4.28229 1.35087 3.62616 -1.43556 -0.130432 0.173131 -0.343799 0.263714 0.701338 -6.02505 -0.00622171 0.380535 -3.01888 -0.00121193 0.000351957 -0.00384654 
26.982 1 58 18.2449 6.34059 0.199282 0.252772 -2.01369 -1.36712 -0.28834 -0.382818 0.0409684 4.22121 4.79992 -41.8751 0.96628 0.141841 -19.4776 -0.0039465 0.0030098 -0.0169009 
26.982 1 301 20.2377 8.35758 4.1498 -4.70622 -4.26631 0.485838 -0.0538099 -0.216416 0.14555 0.558551 0.581367 -5.38886 0.154696 0.191552 -2.44729 -0.000656865 -0.00082495 -0.000789247 
26.982 1 101 20.2877 8.15557 0.285445 1.18356 1.64995 3.69766 0.266035 0.399233 -0.50078 5.15728 -1.98064 -28.278 1.90863 -0.16255 -18.8514 -0.000184059 0.00626202 -0.0180899 
26.982 1 64 20.3597 6.30498 2.23035 0.873669 1.24041 1.60845 -0.0985457 -0.259243 0.421112 3.5381 3.42951 -24.2368 1.43953 -0.454695 -12.8425 -0.000578235 5.55893e-05 -0.00409073 
26.982 1 103 22.4314 8.27008 2.36855 -2.28165 -1.05997 -4.33196 -0.369694 -0.445335 -0.676463 0.217949 4.26623 -32.3598 0.121805 1.4281 -14.7043 -0.000278193 0.00120318 -0.00843866 
26.982 1 262 22.5932 6.22725 4.19781 -1.12278 -1.40082 0.862153 -0.124844 0.131705 0.0237432 0.115802 0.67943 -4.90955 0.0625697 -0.0590312 -2.65076 0.000534967 0.000370971 -0.000497831 
26.982 1 105 24.3473 8.19782 0.359276 -0.749454 2.82807 0.848457 -0.0182429 0.131634 -0.585346 -0.839613 -3.50858 -28.1115 0.135073 -1.01628 -18.7938 0.000452641 0.00107036 -0.0186207 
26.982 1 305 24.4474 8.3292 4.23151 5.15495 -0.0608839 3.57808 0.42406 -0.20993 0.100057 -0.197545 0.491364 -6.13652 0.0800727 0.182284 -2.78933 0.00173629 -0.00114501 -0.000925076 
26.982 1 62 22.3311 6.12411 0.216378 3.26328 2.25692 -3.06349 0.357301 0.25125 -0.133236 -0.095473 8.18553 -25.2534 -0.00205012 0.77847 -12.7026 0.00237401 0.00158908 -0.0176128 
26.982 1 68 24.6319 6.19562 2.23905 -4.25145 -1.2146 3.85005 -0.00187132 0.00822786 0.0912525 0.336404 3.05141 -27.5248 0.285814 -0.55583 -14.303 0.00383724 -0.000323271 -0.00754367 
26.982 1 107 26.5536 8.37406 2.20348 -8.00383 3.00904 -1.30837 0.024726 -0.632448 0.564293 2.48204 -2.55765 -30.3251 2.27558 -0.868453 -15.3837 0.000153496 -0.00432656 -0.00651856 
26.982 1 266 26.8481 6.15601 4.09419 -0.610962 3.6619 -2.70947 -0.41888 0.247048 0.102041 0.258144 0.506964 -5.22257 0.212766 0.134815 -2.96347 -0.000376965 0.000713053 -0.00279972 
26.982 1 309 28.6526 8.24436 4.31773 -2.3505 6.95687 -1.24277 0.303957 0.0501596 -0.52128 -0.256804 -0.282508 -5.73554 -0.125776 -0.150422 -3.27853 0.0010127 -0.00115794 -0.0028791 
26.982 1 106 26.5646 10.1713 0.327796 10.1303 -0.630575 -4.51708 -0.118279 0.472823 -0.655102 -6.63944 -3.02538 -46.9705 -2.04754 -1.06406 -18.9081 -0.00408119 0.00320229 -0.0181643 
26.982 1 109 28.6054 8.3077 0.19931 -1.40224 -1.08041 -1.50944 0.22372 -0.143373 -0.229609 -0.0503298 0.112158 -0.107702 -0.0258298 0.00957737 -0.116497 0.000889927 -0.00670765 -0.0172889 
26.982 1 72 28.8328 6.27957 2.01293 -0.238137 -0.670031 0.184466 -0.150165 -0.267028 0.278287 -3.86669 6.50934 -27.6499 -1.1397 2.20567 -15.8911 0.000415795 -0.00434971 -0.0128886 
26.982 1 111 30.742 8.21378 2.13375 -2.82666 -1.14649 -4.93076 0.108136 0.00594809 0.223731 -3.63622 -0.490046 -26.2317 -1.82287 -1.01648 -14.3428 0.00379032 -0.00405427 -0.0100377 
26.982 1 270 30.9613 6.23988 4.17688 -5.75255 0.781762 -2.48448 -0.495785 0.165937 -0.0748765 -0.289724 0.758811 -3.66247 -0.202542 0.272455 -2.52354 -0.000772557 0.000303912 -0.00367972 
26.982 1 313 32.9175 8.27018 4.12808 1.52162 2.8322 -0.703733 0.139393 -0.211943 0.349831 0.00497094 0.143139 -4.27583 0.00892894 0.0989425 -2.58358 0.000441678 -0.000627459 -0.00216432 
26.982 1 116 32.9149 10.1569 2.14458 0.228065 -5.87039 -2.98188 -0.0391778 0.108287 -0.238646 1.9823 1.33472 -24.9215 1.75359 1.24841 -14.4286 0.00270906 -0.000784622 -0.0146461 
26.982 1 110 30.6237 10.2094 0.240488 4.34956 4.34521 1.65578 0.432346 -0.0406629 -0.28545 0.726777 -5.3926 -50.2371 0.409227 -1.57228 -25.1857 0.00715698 -2.20345e-05 -0.0173984 
26.982 1 76 33.2177 6.2161 2.11637 1.82662 2.44051 -1.29312 -0.654696 0.281954 0.327887 3.76541 3.26657 -23.1632 1.00939 1.11483 -13.3266 -0.00214509 0.000329029 -0.0163237 
26.982 1 115 35.0754 8.19107 2.08516 -0.490655 -3.50245 -2.88824 0.0106162 0.427842 0.442619 -2.12124 -1.80581 -24.3969 -1.33634 0.114438 -13.5351 -0.00402513 0.000522844 -0.0128784 
26.982 1 274 35.0686 6.31849 4.37121 -2.0271 3.97101 3.22662 -0.108071 0.203115 -0.453637 0.696409 -0.569217 -4.98624 0.186524 -0.186831 -2.72419 -0.00112573 0.00154955 -0.00285437 
26.982 1 120 37.0996 10.2044 2.30081 4.50584 0.444774 0.394367 -0.0566764 0.410397 0.0239236 5.83301 5.65631 -28.8301 1.72813 3.00012 -15.3485 -0.00262956 0.00128844 -0.00702379 
26.982 1 44 41.3334 6.33395 2.24007 1.2102 -2.82412 1.83311 0.0320917 -0.59134 0.148732 3.98439 -21.8008 -27.9461 0.643399 -9.37632 -15.5977 0.0042492 -0.00879974 -0.00715877 
26.982 1 117 37.3065 8.32451 0.388005 3.90843 -3.54927 -0.467507 -0.454184 -0.325239 -0.460045 3.89723 0.844475 -50.1476 0.475938 1.50543 -25.1806 -0.00665844 -0.000657721 -0.0185379 
26.982 1 80 37.1588 6.31798 2.39587 -2.19439 0.843414 -1.113 0.120921 -0.345669 -0.423912 1.33863 -9.48555 -29.0636 0.199886 -4.42966 -14.466 -0.00318195 -0.00110186 -0.00863419 
26.982 1 119 39.3464 8.23161 2.27625 -4.14676 -0.240442 -4.02239 -0.00223698 0.331645 -0.121981 5.44877 2.16519 -27.8252 2.86962 1.32301 -14.0622 0.00036254 0.000723372 -0.0055573 
26.982 1 278 39.2423 6.45965 4.35975 -2.83599 -0.878366 5.69583 0.248812 -0.875417 -0.400093 9.75146 -10.1066 -6.85271 4.1609 -4.30954 -3.41074 0.000927575 -0.00258891 -0.00149468 
26.982 1 317 37.2559 8.29179 4.25411 -1.62154 -2.04858 0.711198 -0.67446 0.340188 0.193677 0.609792 -0.643164 -4.34582 0.189225 -0.164754 -2.33481 -0.0027264 0.00105643 -2.72714e-05 
26.982 1 78 39.2244 6.31932 0.182053 4.35797 0.597151 -3.25531 -0.0342267 -0.341557 0.0900513 0.215246 -10.6795 -32.3509 0.714532 -4.73885 -17.8215 0.00130387 -0.00297912 -0.0175467 
26.982 1 123 1.23655 12.2893 2.2033 4.04565 4.1711 -3.96285 0.239034 -0.0910207 -0.107285 -19.8662 -11.695 -30.6614 -9.55044 -4.58383 -14.1318 -0.0070499 0.00173146 -0.00813072 
26.982 1 128 3.3399 14.2506 2.19292 1.12678 -2.60782 -1.9453 -0.102847 -0.414542 0.24978 -4.73207 -0.348124 -25.5891 -1.65845 -0.0628441 -11.7023 -0.00168191 -0.000189034 -0.00980773 
26.982 1 282 1.03467 10.327 4.14354 2.26928 0.490862 6.48687 0.727503 -0.322523 0.420304 -22.2312 -3.54973 -13.6745 -9.35997 -0.894302 -5.73739 -0.00600403 0.00247067 -0.000652105 
26.982 1 322 1.19764 14.1329 4.27752 -1.42437 1.55328 -2.78401 -0.100518 0.0318293 -0.160144 -15.7455 -5.55605 -11.559 -6.98092 -2.62595 -4.58629 -0.00651352 -0.00301552 -0.00354056 
26.982 1 84 -0.864566 10.3311 2.12837 1.71586 2.08921 -1.95761 -0.213935 -0.361129 0.105256 -13.8105 -11.0247 -38.0578 -12.108 -3.91706 -17.0013 -0.0151201 0.00354814 -0.00510877 
26.982 1 124 -0.723582 14.2488 2.01318 5.18833 -7.29067 -0.30354 -0.606838 0.123608 0.57293 -16.2033 -10.6858 -30.015 -13.3593 -5.92925 -13.254 -0.0122634 -0.00381576 -0.0102102 
26.982 1 82 1.2998 10.3004 0.20625 0.72873 1.23147 0.0103497 -0.0822923 -0.0870826 0.102375 -20.1244 6.91066 -9.6858 -10.8204 2.55042 -9.06415 -0.00505153 0.00311706 -0.0157092 
26.982 1 86 5.63575 10.3461 0.252557 0.420266 -1.88112 0.669255 -0.272576 -0.0698531 -0.205482 -3.45804 -3.4433 -28.278 -0.572458 -1.35974 -18.8793 -0.00118965 0.000115404 -0.0179992 
26.982 1 286 5.48857 10.2373 4.31555 0.586571 -2.77445 -1.40833 0.192946 0.0210559 0.218672 -0.462009 -0.0633358 -4.82543 -0.112022 -0.0299308 -2.0681 0.00061998 -0.000739857 6.29389e-05 
26.982 1 88 3.46978 10.265 2.32672 -1.08282 0.864852 -1.94225 -0.488343 0.0480154 -0.0215479 -9.63546 -1.75796 -31.4389 -4.27918 -1.16339 -14.1215 -0.0024671 2.11268e-05 -0.0048525 
26.982 1 125 3.48235 12.3239 0.253429 -0.6918 -1.6933 -0.0461387 -0.252469 -0.223668 -0.152384 -6.53453 -9.48406 -33.4207 -3.00751 -3.56546 -18.3575 -0.0013318 0.00435602 -0.017191 
26.982 1 325 3.33351 12.2203 4.28622 -5.21433 3.43652 -2.86987 -0.278579 -0.0483106 -0.142892 -3.83941 -1.24945 -5.73035 -1.61796 -0.415726 -2.41839 -0.0023968 -0.000619282 -0.00185951 
26.982 1 127 5.48568 12.1605 2.32839 -1.87088 -1.16778 -2.93635 0.173007 0.350195 -0.0122033 -2.41004 -1.486 -23.9843 -0.0680576 -0.131113 -11.4143 3.91824e-05 0.00385212 -0.00717292 
26.982 1 326 5.26951 14.2016 4.29321 -1.7916 -0.742945 -0.625268 0.527418 -0.465539 0.0552645 -0.0284755 0.251076 -4.10417 0.124739 0.132005 -1.96254 0.00119901 -0.000612545 -0.00209663 
26.982 1 132 7.57935 14.2226 2.41526 3.08015 0.115056 0.0609803 -0.0319406 -0.020227 -0.0963896 1.48155 3.42149 -25.1459 1.24112 1.10425 -13.1883 -0.00202256 0.00172731 -0.00734803 
26.982 1 130 9.72238 14.1447 0.282578 -3.77779 3.22223 -0.824512 0.433631 0.015678 0.21797 1.94655 -2.98064 -25.1445 0.626879 -2.55111 -12.682 0.00398022 -0.000101937 -0.0169349 
26.982 1 92 7.72842 10.2834 2.25938 3.85973 -2.46604 -2.38818 -0.130311 0.00843565 0.418871 2.2119 -3.50184 -27.1797 1.43032 -0.819264 -13.1208 0.000300319 -4.70063e-05 -0.00318464 
26.982 1 329 7.62145 12.2015 4.35048 2.1248 2.62416 3.46758 -0.238093 -0.0221709 -0.187358 0.133797 -0.0928763 -4.05299 0.20094 0.0584917 -2.20347 -0.000466401 -5.88387e-05 -0.000765037 
26.982 1 131 9.65487 12.2851 2.44438 -1.37715 -1.67253 -0.105896 0.478973 0.00613466 -0.344872 1.89941 -1.54534 -26.1368 1.17775 -0.103785 -14.1512 0.0038192 0.000401567 -0.00674751 
26.982 1 330 9.78761 14.3342 4.17874 5.27923 -2.32151 1.75268 -0.112464 0.120636 0.377868 0.125098 0.34711 -4.81762 0.0486396 0.082991 -2.64073 0.000184899 0.000632278 -0.000758077 
26.982 1 90 9.74897 10.4944 0.333116 -0.272857 0.364663 -3.08528 0.361637 -0.801443 -0.179321 0.059563 -4.26316 -19.9468 0.434292 -0.21081 -13.188 0.00507283 0.00112903 -0.0176453 
26.982 1 129 7.66715 12.2305 0.363945 -4.45495 1.45399 -4.39013 -0.205878 0.185125 -0.219532 2.66884 -2.151 -46.9962 1.94414 0.0472168 -18.9393 -0.0024076 0.00375128 -0.0178422 
26.982 1 96 11.9884 10.2628 2.14237 2.58605 2.85511 1.52333 -0.282635 0.212232 0.295273 -0.569701 -5.45099 -32.6417 0.24481 -1.0585 -16.2413 0.00302765 0.00357669 -0.0102201 
26.982 1 294 13.9874 10.351 4.14236 -1.51615 4.64501 -0.347738 0.287248 -0.568337 0.253394 -0.254999 0.314689 -5.93613 -0.0446925 0.169735 -3.11475 0.00126705 -0.00199636 -0.00214845 
26.982 1 136 11.9543 14.3173 2.25744 4.63579 0.0362431 -5.28028 -0.746061 -0.075914 -0.155561 0.0982536 1.98997 -27.6941 -0.833016 -0.184776 -14.1964 0.0015587 -0.00241928 -0.0116558 
26.982 1 333 11.89 12.2174 4.24706 -2.29744 -0.88343 -0.35614 -0.319272 0.168971 -0.0710024 0.287536 -0.264098 -5.23123 0.100128 -0.11703 -2.92437 -0.000367098 -0.000336028 -0.00223022 
26.982 1 135 13.8515 12.3397 2.23977 -1.34308 -2.07075 7.49099 0.450945 -0.280286 -0.275836 3.12724 -1.17081 -29.6651 0.914312 -1.32276 -15.2602 0.00160474 -0.000937941 -0.0168403 
26.982 1 140 15.8569 14.3407 2.2478 1.72274 1.53826 1.63929 0.288687 -0.113548 -0.168525 3.81452 -5.55747 -30.4519 2.26994 -3.23413 -14.565 -0.00236693 -0.000936616 -0.0136823 
26.982 1 334 13.8695 14.2881 4.24613 5.40259 0.131739 6.68794 0.0234842 0.270507 0.13309 0.0861252 2.71117e-05 -5.37266 -0.0116566 -0.203296 -2.50192 0.000423405 2.80011e-05 -0.00205741 
26.982 1 100 16.1082 10.3693 2.16654 -3.37114 -2.92414 -2.42994 -0.154029 -0.364485 0.197515 -0.0240698 5.11232 -29.6285 -0.189407 2.40296 -15.3389 -0.0016913 0.000128369 -0.0155011 
26.982 1 337 16.0074 12.2837 4.20824 -3.25894 -6.23536 2.65768 0.127201 0.140773 0.0550686 0.358571 0.250463 -6.46153 0.147742 0.00536336 -3.3354 -1.39229e-05 -0.000480296 -0.00321351 
26.982 1 139 18.1749 12.242 2.18629 -0.978148 0.516615 -3.43251 -0.545436 -0.0503606 0.301703 -0.151118 2.87208 -35.0461 -0.550769 1.02226 -17.3329 -0.00448006 -0.00255796 -0.0102603 
26.982 1 144 20.0558 14.2149 2.32971 1.83862 -1.44431 4.10185 0.24603 0.149301 -0.35225 -1.26764 2.67466 -37.4378 -1.3323 0.773917 -16.9955 0.000186653 -0.000105845 -0.00721192 
26.982 1 338 18.0655 14.3118 4.29297 1.07868 5.68332 1.60791 -0.246187 0.110125 -0.379089 0.308884 -0.527542 -7.06328 0.0728968 -0.267412 -3.34663 -0.00135388 0.000566002 -0.00245753 
26.982 1 341 20.141 12.2086 4.23801 -5.8374 1.54 0.491029 0.244216 -0.0420051 -0.180695 0.0781913 0.218612 -7.47964 -0.106263 0.0618606 -3.45539 0.000438767 -0.000130072 -0.00258978 
26.982 1 138 17.8438 14.402 0.296204 0.0979308 -3.4777 -1.84077 -0.00891692 0.0120184 0.0521659 0.0318143 -0.00708369 -8.29721 -0.0153265 0.0304036 -5.75152 -0.00603334 -0.000582053 -0.0180982 