
# ----------------------- ATOM DEFINITION ----------------------------
lattice		fcc ${latparam}
lattice		fcc 4.05
Lattice spacing in x,y,z = 4.05 4.05 4.05
region		whole block 0 10 0 10 0 10
create_box	1 whole
Created orthogonal box = (0 0 0) to (40.5 40.5 40.5)
  1 by 2 by 2 MPI processor grid
lattice 	fcc ${latparam} orient x 1 0 0 orient y 0 1 0 orient z 0 0 1
lattice 	fcc 4.05 orient x 1 0 0 orient y 0 1 0 orient z 0 0 1
Lattice spacing in x,y,z = 4.05 4.05 4.05
create_atoms	1 region whole
Created 4000 atoms

# ------------------------ FORCE FIELDS ------------------------------

#****************USE THIS TO TEST******************
pair_style	eam/rad
pair_coeff 		* * Al99.PC0.5.eam.alloy.rad.txt Al # pc = 0.5   error generating


# to test with error = 0 use this potential
# pair_coeff	* * Al99.eam.alloy.005pcrad_NULL_noerror Al

#****************USE THIS TO RUN REFRENCE***********
# pair_style	eam/alloy
# pair_coeff	* * Al99.eam.alloy Al

# ------------------------- SETTINGS ---------------------------------
compute csym all centro/atom fcc
compute peratom all pe/atom

######################################
# EQUILIBRATION
reset_timestep	0
timestep	0.001 # default
# timestep	0.0001 # tiny time step
velocity all create 300 12345 mom yes rot no
fix 1 all npt temp 300 300 1 iso 0 0 1 drag 1

# Set thermo output
thermo 50
# thermo 1 # debug mode

# thermo_style custom step lx ly lz press pxx pyy pzz pe temp
# IMPLEMENTATION HERE

# VERSION add rad variables .v1 .v2
# thermo_style custom step lx ly lz press pxx pyy pzz pxxrad pyyrad pzzrad pe temp

# VERSION ublb separation .v3
thermo_style custom step lx ly lz press pxx pxxrad pyy pyyrad pzz pzzrad pe temp

# Run for at least 10 picosecond (assuming 1 fs timestep)
run 	20000 # default
Memory usage per processor = 5.63763 Mbytes
Step Lx Ly Lz Press Pxx Pxxrad Pyy Pyyrad Pzz Pzzrad PotEng Temp 
       0         40.5         40.5         40.5    2496.1233    2446.9902    4213.8298    2534.6541    4213.8298    2506.7256    4213.8298       -13440          300 
      50      40.5611      40.5611      40.5611    907.43706    837.10986    4230.3428    946.43161    4232.1957    938.76971    4232.3899   -13338.819    103.27149 
     100    40.636867    40.636867    40.636867   -4611.4186   -4606.0751    4152.2663   -4633.2987    4151.3629   -4594.8821    4151.8107   -13373.529    171.80729 
     150    40.566371    40.566371    40.566371    544.64066    509.57779    4208.1166    622.24374    4206.4739    502.10046    4208.9147   -13348.908    124.16109 
     200    40.511722    40.511722    40.511722    3547.2897    3643.2596    4250.8625    3485.9867    4252.5626    3512.6228     4251.722   -13355.216     137.9072 
     250    40.565785    40.565785    40.565785    166.93066    90.523527    4207.6567    218.10474    4205.5625    192.16371    4206.0851   -13359.502    146.72328 
     300    40.611235    40.611235    40.611235   -2466.5664   -2412.8394    4175.4291   -2483.9007    4175.0554   -2502.9592    4176.2985   -13360.111    149.21075 
     350    40.571353    40.571353    40.571353   -408.34084   -482.42607    4200.5568   -346.38838    4201.3353   -396.20806    4199.8593   -13367.339    163.76556 
     400    40.532306    40.532306    40.532306    2225.5431    2279.8069    4232.7623    2296.6157    4234.4514    2100.2067    4235.6439   -13359.854    150.41108 
     450    40.566044    40.566044    40.566044    2.0377845   -40.092854    4206.1958   -31.888362    4205.6997     78.09457    4205.8817    -13363.08    157.36643 
     500    40.595966    40.595966    40.595966   -1611.3461   -1655.3283    4185.9797   -1479.2164    4186.3783   -1699.4934    4185.0474   -13359.404    151.32857 
     550    40.570848    40.570848    40.570848   -161.85418   -150.03728    4203.3597   -167.20465    4203.2153   -168.32062    4202.1673   -13360.736    154.75593 
     600    40.545092    40.545092    40.545092    1385.8336    1414.2998    4222.6938    1433.0694    4223.7092    1310.1316    4221.0791   -13361.915    158.16074 
     650    40.566235    40.566235    40.566235    212.56633    184.02753    4210.0361    245.48283    4210.6795    208.18862    4212.0298   -13358.104    151.74194 
     700    40.589999    40.589999    40.589999   -1217.4105   -1343.5854    4191.2008   -1126.2179    4189.0565   -1182.4283    4190.9498   -13360.206    156.93263 
     750    40.572933    40.572933    40.572933   -250.38158   -286.45411    4201.1409   -263.19279    4203.2182   -201.49783    4201.2393   -13360.538    158.57849 
     800    40.551356    40.551356    40.551356    1208.6566    1078.2928    4221.8539    1322.2307     4222.785    1225.4462    4221.7646   -13357.161    153.20685 
     850    40.567647    40.567647    40.567647     35.88215    27.354765    4205.0718    95.437303    4204.5541   -15.145617    4205.0638   -13362.171    163.91834 
     900    40.586566    40.586566    40.586566   -905.95525   -936.83022    4193.7056   -840.20578    4192.6022   -940.82976    4192.4278   -13360.501    161.82509 
     950    40.575685    40.575685    40.575685   -242.27646    -258.0676    4203.5335   -191.53537     4203.461    -277.2264    4204.4008   -13355.043     152.3172 
    1000    40.557624    40.557624    40.557624    865.78368    854.28577    4212.9733     838.0004    4212.1592    905.06486    4214.0163   -13361.124    165.23426 
    1050    40.567354    40.567354    40.567354    296.20892     232.8234     4211.857     412.4804    4212.3868    243.32297     4211.931   -13352.949    150.47937 
    1100    40.584443    40.584443    40.584443   -762.38408   -853.89575    4194.2854   -674.30507     4193.608   -758.95143    4192.4005   -13360.466    166.16585 
    1150    40.575983    40.575983    40.575983    -142.2806   -201.77341    4204.9654   -30.014093    4201.6628    -195.0543    4201.3751    -13353.75    154.27323 
    1200    40.562401    40.562401    40.562401    595.06575    539.95132    4213.4234    625.63845    4210.6801    619.60749    4210.8491    -13359.83    167.17798 
    1250    40.569413    40.569413    40.569413    166.79261    92.903564    4209.2012    250.18713    4209.2757    157.28713    4209.5639   -13356.017    160.90148 
    1300    40.581899    40.581899    40.581899   -560.61752   -582.11355    4195.8028   -449.93781    4198.8325   -649.80119    4199.6054   -13357.596    165.08945 
    1350    40.575948    40.575948    40.575948    -187.6128   -340.24911    4202.2704   -119.43237    4202.2694   -103.15693    4202.2852   -13356.829    164.72703 
    1400    40.566127    40.566127    40.566127    565.86425    499.12344    4212.1739    641.64272    4210.8247    556.82658    4213.0485   -13354.386    161.14085 
    1450    40.572988    40.572988    40.572988    -8.561472    -54.13345    4204.5844   -9.1404528    4204.9165    37.589487    4202.9676   -13356.765    166.86433 
    1500    40.579794    40.579794    40.579794   -267.41446   -332.77441     4201.662   -176.15609    4200.6018   -293.31287      4201.04   -13353.672    162.03422 
    1550    40.576834    40.576834    40.576834   -220.87916   -335.60203    4201.2575   -207.98546    4202.3491   -119.05001    4200.6657    -13357.33    170.23169 
    1600     40.56902     40.56902     40.56902    377.81634    358.40758    4210.8495    458.79305     4210.209    316.24838    4210.7715   -13352.705    162.42694 
    1650    40.573333    40.573333    40.573333    121.60248    65.830518    4204.5932    161.88969    4205.1645    137.08722    4205.7041     -13355.4    168.76756 
    1700    40.580701    40.580701    40.580701   -351.25931   -404.48696    4202.1535   -356.71365    4200.9015   -292.57732    4202.4633   -13352.169    163.67705 
    1750    40.576849    40.576849    40.576849   -32.167301   -50.678233    4202.4015   -63.920617    4201.8154    18.096946    4202.1532   -13355.552    171.33506 
    1800    40.570697    40.570697    40.570697    303.86959    205.87186     4210.163    337.67696    4208.1416    368.05996    4209.7113   -13351.254    164.18628 
    1850    40.573832    40.573832    40.573832    241.25661    160.65476    4205.0434    291.81867    4206.6203    271.29639    4205.1466   -13351.989    166.73526 
    1900    40.582525    40.582525    40.582525   -408.49907   -517.11515    4198.6332    -372.3218    4196.6053   -336.06028    4197.2192    -13355.88     175.4205 
    1950    40.579035    40.579035    40.579035   -121.18037    -78.31077    4205.3943   -80.564036     4206.123    -204.6663    4204.4842   -13350.032    165.23107 
    2000     40.57151     40.57151     40.57151    262.28188    197.36064    4207.5176    289.69509     4205.918     299.7899    4205.0494   -13356.433    178.77171 
    2050     40.57415     40.57415     40.57415    291.00696    438.91963    4205.7864    282.96388    4208.2264    151.13737     4208.514   -13349.034    165.59547 
    2100    40.583714    40.583714    40.583714   -349.64824   -571.69905    4200.3322   -278.61218    4200.6542   -198.63349    4196.7291    -13352.82     174.0797 
    2150    40.580896    40.580896    40.580896   -115.46102   -185.78203    4205.0478   -83.935203    4203.5484   -76.665824    4205.3729   -13348.342    166.55152 
    2200    40.573232    40.573232    40.573232    266.96923    327.53375    4206.6934    145.53519    4205.3154    327.83874    4204.7988   -13352.358    175.46306 
    2250    40.574827    40.574827    40.574827    151.21048    253.25725    4206.3363    168.12758    4204.7528    32.246605     4207.297   -13351.993    175.91954 
    2300    40.582519    40.582519    40.582519   -229.92012   -262.55007    4202.7583   -227.80284     4200.843   -199.40745    4199.4485   -13351.098    175.32277 
    2350    40.582472    40.582472    40.582472   -261.47493   -230.22332    4199.4456   -223.18601    4197.9614   -331.01546    4200.5611   -13351.015     176.3209 
    2400    40.575117    40.575117    40.575117    304.99838    318.71288    4206.3334    230.82389    4209.5088    365.45835     4208.566    -13348.88    173.33846 
    2450    40.576041    40.576041    40.576041    115.98281   -49.519186    4207.2484    231.81908    4206.8615    165.64854    4205.3761   -13349.774    176.22576 
    2500    40.581993    40.581993    40.581993    -86.32248   -223.14465       4202.6   -50.962736    4201.3733    15.139951    4203.2459   -13348.601    175.08643 
    2550    40.583873    40.583873    40.583873   -280.78867    -329.5054    4199.3578   -351.60669    4198.0804   -161.25393    4200.5026   -13350.803    180.51146 
    2600    40.577203    40.577203    40.577203    317.49535    231.68198    4209.3648    393.67729    4205.6181    327.12677    4207.0477    -13345.69    171.77884 
    2650    40.578933    40.578933    40.578933    13.030925    144.96731    4205.1926   -44.713472    4205.7538   -61.161069    4204.9254   -13350.912    183.01571 
    2700    40.583518    40.583518    40.583518   -174.83865   -293.93299    4203.7773   -111.84152    4201.4522   -118.74145    4202.3699   -13346.798    176.21518 
    2750    40.582481    40.582481    40.582481   -39.748764   -65.184794    4202.4933    -87.13603    4201.1387    33.074533    4202.5867   -13348.669    180.97912 
    2800    40.578705    40.578705    40.578705    108.86451   -19.945463    4206.1181    191.66526    4205.8505    154.87373    4207.2992   -13346.376    177.70923 
    2850    40.579322    40.579322    40.579322    124.53218    81.912131    4205.3548    124.60452    4204.4996     167.0799    4206.1006   -13349.584    185.05983 
    2900    40.584645    40.584645    40.584645   -69.825092    -152.5521     4202.493   -33.708358    4201.4865   -23.214815    4202.1897   -13345.868     179.0187 
    2950    40.585359    40.585359    40.585359   -182.56258   -154.04171    4199.5082   -313.08375    4199.9857   -80.562296     4201.956   -13345.484    179.44392 
    3000    40.580393    40.580393    40.580393    103.06038     17.74205    4205.6746    199.86076    4203.5072    91.578338    4206.4537   -13349.988    189.30398 
    3050    40.580507    40.580507    40.580507    62.168107    44.094515    4206.8408    20.509683    4207.2285    121.90012    4204.6653   -13345.218    181.21565 
    3100    40.584708    40.584708    40.584708   -107.42179   -223.08689    4203.3392   -59.455111    4203.9478   -39.723375    4203.3567   -13347.434     186.6605 
    3150    40.585857    40.585857    40.585857   -139.90607   -193.02274    4201.7235   -102.84206    4202.2928    -123.8534    4201.3132   -13344.327    181.78994 
    3200    40.582817    40.582817    40.582817    56.136466   -25.815173    4202.5724    83.857537    4202.8697    110.36703    4203.0327   -13346.758    187.66531 
    3250    40.582883    40.582883    40.582883    202.40337    154.08445    4205.6051    136.98617    4203.9703    316.13948    4205.7925   -13343.925    183.32635 
    3300    40.587578    40.587578    40.587578    -209.4339   -371.94849     4200.812   -87.698913    4198.2568   -168.65429    4199.2481   -13345.062    186.68197 
    3350    40.586577    40.586577    40.586577   -9.0566859   -69.573038    4201.8643   -16.305688    4201.4261    58.708669    4201.3775    -13343.41    184.64018 
    3400    40.584833    40.584833    40.584833    -4.464904   -169.79656    4202.8838    46.672382    4202.3484    109.72947    4201.5067   -13346.346    191.46455 
    3450    40.585451    40.585451    40.585451    9.8032381   -98.559471    4202.2817    71.647379      4203.18    56.321806    4200.3957   -13344.024    188.12534 
    3500    40.587697    40.587697    40.587697   -73.255431   -198.59139    4201.3217   -60.277768    4199.0564    39.102863    4198.6486   -13344.644    190.47515 
    3550    40.586958    40.586958    40.586958    -56.96485   -70.538578    4203.9312    6.9900731    4201.0228   -107.34605     4201.735   -13342.497     187.4769 
    3600    40.585183    40.585183    40.585183    109.67337    96.750394    4205.6475    58.529928    4206.6353    173.73977    4202.7304   -13342.391    188.41229 
    3650    40.586887    40.586887    40.586887   -3.9723187   -11.668849    4202.8958   -45.333257    4201.9347    45.085149    4201.7525   -13342.044    188.88701 
    3700    40.588496    40.588496    40.588496   -27.142131   -83.336603    4199.0241   -12.131481    4200.6872    14.041689    4199.4971   -13342.511    190.95338 
    3750    40.588371    40.588371    40.588371   -6.0911329    43.936973    4198.6308   -56.088694    4199.4992   -6.1216783    4198.6788   -13342.317    191.72699 
    3800    40.587518    40.587518    40.587518    21.179747   -96.321442    4202.5319    156.68462    4202.5338    3.1760619    4201.2057    -13342.31    192.86572 
    3850    40.588168    40.588168    40.588168    103.71552    51.378646    4201.5214    75.437151    4202.6506    184.33078    4202.5618   -13339.435    188.43341 
    3900    40.590071    40.590071    40.590071   -61.991803    41.084916    4200.7595   -163.63867    4201.0259   -63.421652    4199.5639   -13340.244    191.15887 
    3950     40.58905     40.58905     40.58905    26.629811   -116.89505     4201.554    111.68117    4201.6943    85.103306    4201.5004   -13340.459    192.71663 
    4000     40.58814     40.58814     40.58814    64.030856    18.996702    4202.8337    37.882754    4204.1373    135.21311    4201.1946   -13340.476    193.89746 
    4050     40.58928     40.58928     40.58928    51.730888    26.058107     4201.479    48.279046    4202.8618    80.855511    4200.2134   -13339.217    192.61086 
    4100    40.591447    40.591447    40.591447    -69.41407   -80.629256    4199.0115   -72.506139    4200.1671   -55.106814    4198.0889   -13342.948    200.98044 
    4150    40.591167    40.591167    40.591167     -59.3496   -170.66274    4203.3217   -23.297654    4202.1286    15.911595    4199.7561    -13338.58    193.66416 
    4200    40.589402    40.589402    40.589402    126.45049    102.31182    4205.2211    28.361074    4203.8816    248.67858    4202.0146   -13337.074    191.89142 
    4250    40.590375    40.590375    40.590375   -5.8786185    -95.14102    4200.2637    71.464313    4201.2197    6.0408519    4200.2595   -13339.822    198.35283 
    4300    40.592312    40.592312    40.592312   -99.932489   -134.35608    4198.7601   -92.003546    4200.5126   -73.437843    4198.3723   -13339.728    199.31371 
    4350    40.591432    40.591432    40.591432    30.669897   -17.453823    4200.7191    116.38325     4200.331   -6.9197307    4200.7109   -13337.239    195.64072 
    4400    40.590868    40.590868    40.590868    6.1809803   -68.690877    4199.5276    32.701826     4199.762    54.531992    4199.8946   -13340.043     202.2069 
    4450    40.592123    40.592123    40.592123   -2.7294806    31.335042    4200.2419   -35.521345    4201.0939   -4.0021387    4200.2635   -13337.875    199.15199 
    4500    40.593642    40.593642    40.593642   -65.462705    36.313648    4199.7463   -97.154892     4199.131   -135.54687    4198.9469    -13337.41     199.3838 
    4550    40.592338    40.592338    40.592338   -64.277171   -161.69941    4199.6855   -86.840811    4201.1083    55.708711    4199.7108   -13338.207    202.07086 
    4600    40.590278    40.590278    40.590278     249.1077    320.61637    4201.9183    284.38178    4203.4129    142.32493    4204.2524   -13335.472    197.91016 
    4650    40.594313    40.594313    40.594313   -36.483052   -43.388388    4197.5443     7.304162    4199.2359   -73.364929    4197.7916   -13336.259    200.57068 
    4700    40.596271    40.596271    40.596271   -162.12355   -160.59482    4196.2017   -175.19352    4198.6616   -150.58232    4197.5982   -13336.155    201.50807 
    4750    40.592916    40.592916    40.592916    73.064448    98.496599    4200.8184    218.68878    4201.5518   -97.992039    4198.7233   -13336.665     203.6226 
    4800    40.592243    40.592243    40.592243    93.558524    177.60258    4198.8341   -87.323114    4202.5954    190.39611    4198.9369   -13336.604    204.63746 
    4850    40.595451    40.595451    40.595451    4.2171739   -108.36622    4198.2671    56.758562    4198.4782    64.259175    4199.7535   -13334.982    202.63372 
    4900     40.59738     40.59738     40.59738   -207.49532   -38.513481    4195.5441   -236.77389    4197.9421   -347.19859    4198.7355   -13335.657    205.06988 
    4950    40.592949    40.592949    40.592949    160.16595    79.901741       4200.9    153.84852    4200.9376    246.74758    4203.5697   -13333.532    202.08895 
    5000    40.593071    40.593071    40.593071    183.41074     268.5787    4200.7293     243.1868    4200.6423    38.466717    4202.0736   -13334.242    204.58527 
    5050    40.598517    40.598517    40.598517   -115.69735   -166.07939    4194.3453     -169.547    4199.4533   -11.465649    4196.3904   -13334.019    205.27643 
    5100     40.59878     40.59878     40.59878   -111.70343    -8.370906    4197.1679   -166.12906    4197.4482   -160.61033    4195.9009   -13332.452    203.37832 
    5150    40.594255    40.594255    40.594255    96.931121    101.97383    4199.2419    87.628943    4198.9476    101.19059    4199.3742   -13334.964    209.35602 
    5200    40.594043    40.594043    40.594043    196.29774    273.67141    4199.4553    221.69784    4198.2032    93.523963    4199.7406   -13335.021    210.58986 
    5250     40.59947     40.59947     40.59947   -89.380203   -116.97376    4194.8851   -109.49403    4198.3096    -41.67282    4196.1531   -13330.257    202.50162 
    5300    40.599859    40.599859    40.599859   -145.25531   -136.63669    4195.3985   -209.45351    4196.2743   -89.675735    4195.7251   -13332.957    208.84095 
    5350    40.595213    40.595213    40.595213    222.90062    257.82359    4198.4317    316.73027    4200.5008    94.147998    4199.7402   -13332.065    208.23568 
    5400    40.596174    40.596174    40.596174    152.99394    182.46696    4198.2919    168.26953    4200.0776    108.24535    4199.1547   -13331.528    208.31029 
    5450    40.601169    40.601169    40.601169   -137.60144   -286.80303    4196.7616   -30.046473    4196.8565   -95.954809    4196.0415   -13330.969    208.33875 
    5500    40.601195    40.601195    40.601195   -223.23281   -155.64611    4194.5034   -294.77355     4195.301   -219.27877    4194.8676   -13333.433    214.21786 
    5550    40.595615    40.595615    40.595615    182.19163    236.97313    4198.9402    219.29512    4198.9737    90.306631    4198.1736   -13332.625    213.77091 
    5600     40.59647     40.59647     40.59647    157.71549    95.081188    4198.4189    126.56426    4200.5807    251.50101    4200.1275    -13331.02    211.77575 
    5650    40.602086    40.602086    40.602086   -122.48126   -162.13077    4196.9834   -127.35932    4197.4925   -77.953682    4197.9444   -13328.959    208.89658 
    5700    40.602031    40.602031    40.602031   -129.57349   -144.97713    4193.6451    -92.19506    4193.8648   -151.54828    4195.8916   -13330.973    213.90323 
    5750    40.597351    40.597351    40.597351    249.95841     130.2933    4198.6719    256.42866    4198.8312    363.15327    4198.9812   -13329.355    211.87752 
    5800    40.599001    40.599001    40.599001    81.368288    70.461749    4197.8847    220.52608    4196.6121   -46.882963    4198.7323    -13329.51    213.28364 
    5850    40.603186    40.603186    40.603186   -204.96413   -200.81552    4194.9258   -191.63639    4197.1436   -222.44049    4194.9925   -13330.974    217.21937 
    5900    40.602446    40.602446    40.602446   -126.97389   -248.41884    4197.4259   -16.958909    4197.3675   -115.54392    4196.7527    -13329.54    215.52932 
    5950    40.598403    40.598403    40.598403     257.9828    272.70332    4199.1792    348.64877    4198.8751    152.59632    4199.6979   -13327.614    212.91421 
    6000     40.60021     40.60021     40.60021    86.846298    101.33594    4196.8651   -18.435667    4200.3937    177.63862    4198.1177   -13327.324    213.44455 
    6050     40.60381     40.60381     40.60381     -147.965   -193.76594    4194.6239   -73.546053    4193.7768   -176.58301    4194.7085   -13330.172    220.05867 
    6100    40.602318    40.602318    40.602318    -26.95951    24.115571    4196.7322    -126.5007    4197.8676    21.506596    4197.9743   -13327.624    216.21915 
    6150    40.600005    40.600005    40.600005    91.858136   -57.062472    4197.2728     204.7372    4197.2764    127.89968    4197.6416   -13329.971    221.84627 
    6200    40.601871    40.601871    40.601871     18.81411    18.213485    4197.1284    68.835547    4197.8734   -30.606703    4198.7614   -13326.581     216.3745 
    6250    40.604737    40.604737    40.604737   -124.00793   -72.865587    4193.0168   -231.27249    4194.7688   -67.885715    4196.1772    -13327.32    218.88695 
    6300    40.603226    40.603226    40.603226    38.479186    -71.27144    4195.7508     210.4996    4194.1898   -23.790601         4195   -13327.339     220.0188 
    6350    40.602348    40.602348    40.602348    53.655171    168.57174    4195.9758   -65.580559    4196.9792    57.974335    4195.9391   -13327.803    222.00053 
    6400    40.604389    40.604389    40.604389   -55.165601   -243.02272    4196.7993    81.803234    4197.4412   -4.2773159    4195.8367    -13327.19    221.89227 
    6450    40.605242    40.605242    40.605242   -103.23012   -18.394609    4194.5898   -201.09066    4196.5459   -90.205083    4198.8316   -13326.925    222.45568 
    6500    40.603815    40.603815    40.603815    39.068389   -146.98714    4197.4649     -28.4868    4195.8819    292.67911    4197.9503   -13326.809    223.30103 
    6550     40.60387     40.60387     40.60387    22.403565    29.280286     4197.379    75.786435    4196.7977   -37.856025    4197.6268   -13324.708    220.30764 
    6600     40.60543     40.60543     40.60543    36.934272   -27.131059    4195.0294    31.251669    4197.4715     106.6822    4193.9992   -13325.152    222.24729 
    6650    40.606492    40.606492    40.606492    27.935899   -38.026677    4195.1937    291.58289    4194.6659   -169.74852    4195.5833   -13323.272    219.68455 
    6700    40.605902    40.605902    40.605902   -2.8302171   -32.479587    4193.9031   -15.290284    4194.2912    39.279221    4194.4502   -13325.483    225.03079 
    6750    40.605041    40.605041    40.605041    116.28823    11.166754    4195.8491    118.66357    4197.0294    219.03438    4197.0847     -13324.7    224.58162 
    6800    40.606317    40.606317    40.606317   -94.135085   -116.06994    4194.0666   -53.083775     4197.615   -113.25154    4197.5683   -13324.612    225.46738 
    6850    40.606909    40.606909    40.606909   -131.72414   -177.87527    4193.5047   -112.67255    4196.7778   -104.62461    4195.1754   -13327.361    231.83937 
    6900    40.606457    40.606457    40.606457    38.770044   -42.543621     4195.705    139.77117    4196.0351    19.082584    4194.2986    -13323.81    226.02987 
    6950    40.607088    40.607088    40.607088    -35.87355   -57.864929    4192.6529   -99.363756    4194.3271    49.608035    4192.7473   -13325.976    231.28561 
    7000    40.607798    40.607798    40.607798   -21.517973   -27.074967    4196.6583    68.888779    4197.3116   -106.36773    4195.9879   -13321.758    224.17335 
    7050    40.608361    40.608361    40.608361   -85.333283   -62.294957    4193.7145   -78.471956    4195.7632   -115.23294    4194.0438   -13324.227    229.99186 
    7100    40.607551    40.607551    40.607551  -0.32340728   -15.680349    4192.7609    51.728357    4195.0932    -37.01823    4195.0436   -13323.223    229.10019 
    7150     40.60782     40.60782     40.60782    20.921777    45.317835    4193.3392   -55.509065    4194.9529    72.956561      4195.01   -13323.207    230.11782 
    7200    40.609482    40.609482    40.609482   -77.821672   -101.91746    4191.2288    4.9611119    4192.9954   -136.50867    4195.7309   -13323.495    231.72021 
    7250    40.609913    40.609913    40.609913    50.433017   0.56460385      4192.44    75.008988    4193.2624     75.72546    4193.7281   -13321.183    228.29296 
    7300     40.60956     40.60956     40.60956    -69.90714   -13.571925    4192.6114   -179.09254    4196.2958   -17.056953    4194.3745   -13321.826    230.56804 
    7350    40.608273    40.608273    40.608273    147.86894    124.22491    4195.9758    181.66507    4198.1449    137.71684    4195.3834   -13319.822    227.72576 
    7400     40.61072     40.61072     40.61072   -38.902497   -22.541514    4194.2795   -63.916036    4194.6225   -30.249939    4193.8667   -13321.343    231.69891 
    7450      40.6122      40.6122      40.6122   -125.41163   -226.57028    4189.3752    -33.61997    4190.1392   -116.04465    4189.9041   -13322.895    235.72868 
    7500    40.610108    40.610108    40.610108   0.23229987   -85.457416    4192.9786    5.8911509    4193.8008    80.263165    4192.4904   -13321.055    233.20319 
    7550    40.608593    40.608593    40.608593    216.78304    152.03962    4196.1952    265.65517    4196.2796    232.65434    4196.6229   -13319.725    231.64868 
    7600    40.612333    40.612333    40.612333   -46.447022   -71.347699    4191.0375    11.081953    4191.7946    -79.07532    4191.2106    -13319.66    232.54909 
    7650    40.614101    40.614101    40.614101    8.5688691   -63.097679    4190.1221    126.74828    4192.5565   -37.943999    4192.6529   -13317.293     228.9811 
    7700    40.612387    40.612387    40.612387   -98.768505   -57.973541    4189.3761   -144.42907    4193.9459   -93.902904    4192.1954   -13319.588    234.44054 
    7750    40.607968    40.607968    40.607968    199.50031    202.77634    4195.8135    254.41477    4196.7403    141.30983     4193.307   -13320.441    237.10839 
    7800    40.611213    40.611213    40.611213    10.113906    81.539417    4191.2486    -64.43268    4195.9707     13.23498    4193.8732   -13320.135    237.51591 
    7850    40.615802    40.615802    40.615802    -190.8177   -123.93483    4189.2563   -155.49397     4192.942   -293.02431      4191.62   -13316.958    232.37563 
    7900    40.614071    40.614071    40.614071   -62.814506    -179.3342     4189.775   -47.023971    4192.5892    37.914647    4192.3988   -13319.654    238.59408 
    7950    40.610522    40.610522    40.610522     61.91862    100.38714    4194.9526    136.28653    4195.6457   -50.917809    4194.1987   -13320.447    241.13365 
    8000    40.612416    40.612416    40.612416    54.480615    36.677358    4195.6937    96.889371    4195.5059    29.875117    4193.8188   -13318.108    237.59574 
    8050    40.616739    40.616739    40.616739   -201.42892   -220.49972    4188.5461   -266.56184    4190.7799   -117.22521    4190.2579   -13317.484     237.3978 
    8100    40.613917    40.613917    40.613917   -29.516087   -62.473189    4192.0857    8.6103831    4192.6335   -34.685456    4190.5554   -13318.824    240.98117 
    8150    40.611079    40.611079    40.611079    233.41268     250.2191    4194.6934    199.26147    4196.3165    250.75748    4194.8013   -13316.499    237.46563 
    8200    40.615557    40.615557    40.615557   -73.482497   -143.76325    4189.6004    121.83238    4190.4786   -198.51662    4189.9238   -13318.206    241.75524 
    8250    40.618041    40.618041    40.618041   -99.554299    28.475224    4191.0049   -164.46411    4193.0112   -162.67401    4189.7076    -13314.28    235.13872 
    8300    40.614975    40.614975    40.614975    28.031927   -144.03934    4191.5936    205.83186    4192.8409    22.303256    4191.5875   -13316.211    239.85171 
    8350    40.611951    40.611951    40.611951    171.74974    263.70158    4193.2363    140.68604    4194.4217    110.86162    4195.8987   -13316.616    241.61323 
    8400    40.614453    40.614453    40.614453    143.17086  -0.11537715    4193.5109    138.95256    4195.1757     290.6754    4192.2538   -13313.361    236.28983 
    8450    40.618979    40.618979    40.618979   -283.99859   -222.64095    4188.4757   -181.34927    4190.6486   -448.00554    4191.0121   -13317.732     245.7156 
    8500    40.615661    40.615661    40.615661   -29.771671   -69.689884    4191.7647    -99.93417    4192.9005    80.309039     4191.161    -13315.56    242.47643 
    8550     40.61192     40.61192     40.61192    275.83701    274.34212    4194.2328    321.67168    4195.7358    231.49724    4193.8414   -13315.123     242.6027 
    8600    40.616597    40.616597    40.616597   -150.21221    -307.5939    4191.6387    22.330695    4191.9804   -165.37342    4189.0451   -13317.089    247.35868 
    8650     40.61938     40.61938     40.61938   -70.949903   -188.44591    4189.3863   -23.889919    4190.5706  -0.51388247     4189.187   -13313.832    242.01927 
    8700    40.618511    40.618511    40.618511   -118.97868   -41.616921    4190.3105   -90.616415    4191.9467   -224.70272    4189.7883   -13314.804    244.84642 
    8750    40.615356    40.615356    40.615356    184.70792    24.093517    4192.6002    267.47839    4193.6384    262.55184     4191.203   -13312.664    241.65958 
    8800     40.61578     40.61578     40.61578    49.124551    51.019324    4192.9945    85.170428    4195.5756    11.183902    4193.4319   -13313.827    244.86054 
    8850    40.617841    40.617841    40.617841   -30.004023   -14.969104    4191.6281    14.218623    4191.4565   -89.261589     4190.957    -13314.23    246.57563 
    8900    40.618905    40.618905    40.618905   -196.67237   -69.287145    4190.1651   -267.14581    4190.7632   -253.58416    4188.8643   -13315.482    249.94202 
    8950    40.616633    40.616633    40.616633    113.56155     17.70615    4194.0587    205.62112    4191.5707    117.35737    4191.9125   -13312.174    244.47327 
    9000    40.617981    40.617981    40.617981   -5.3782871   -96.290796    4190.7663    102.10605    4192.0716   -21.950111    4189.5466   -13315.903    252.62496 
    9050    40.620148    40.620148    40.620148   -48.644761    26.770246    4188.7212   -95.187336    4190.5118   -77.517195    4192.0793   -13311.498    245.02404 
    9100    40.620057    40.620057    40.620057   -49.592958   -174.28861    4189.3704   -33.121107    4189.1016    58.630846    4189.0077   -13312.283    247.47347 
    9150     40.61758     40.61758     40.61758    150.26405    225.47259    4190.8477    101.73932    4192.8084    123.58025    4192.4697   -13310.095    244.16108 
    9200     40.61774     40.61774     40.61774    72.268147    41.329583    4191.7512    38.217779    4190.7307    137.25708      4191.59   -13311.689    248.16871 
    9250    40.619622    40.619622    40.619622   -84.083887   -149.79255    4189.2151    -69.87264    4189.7277   -32.586469    4189.1914   -13311.349    248.42467 
    9300    40.619538    40.619538    40.619538    119.50181    125.80622    4189.3574     23.83651     4191.257    208.86271    4190.4755   -13311.853    250.31265 
    9350    40.620623    40.620623    40.620623   -23.026387   -212.93313    4190.0683    47.062092    4191.7783    96.791877    4189.8856   -13310.946    249.45277 
    9400    40.621651    40.621651    40.621651   -110.30374    55.349363    4189.7395   -308.53971    4189.9424   -77.720873    4189.5639    -13310.94    250.34293 
    9450    40.620796    40.620796    40.620796    119.80518    22.147835    4191.4394    168.09362    4193.2971    169.17409    4191.2795   -13308.678    246.86507 
    9500    40.621436    40.621436    40.621436   -77.654363   -94.095478    4188.8109   -169.62014    4189.3082    30.752526    4189.0022   -13312.361    254.89143 
    9550    40.620956    40.620956    40.620956    80.176844   -81.439503    4189.4816    171.10941    4190.0773    150.86063    4190.2087   -13310.642     252.4677 
    9600    40.623082    40.623082    40.623082   -100.37971   -50.707541    4188.0025   -83.798674    4189.3348   -166.63292     4189.184   -13311.014    254.06807 
    9650     40.62368     40.62368     40.62368   -96.708169   -111.18675    4188.9718   -146.71085    4189.2253   -32.226906    4186.6828   -13309.976    252.94982 
    9700    40.621786    40.621786    40.621786    25.766695   -101.68196    4188.7918    193.85198    4188.6395   -14.869939    4190.2734   -13311.217    256.23031 
    9750    40.621617    40.621617    40.621617    63.783347    45.223363     4190.358    18.202269    4193.3047    127.92441    4189.1468   -13309.015    252.84887 
    9800    40.623567    40.623567    40.623567    30.108544   -256.64207    4190.8543    218.38384    4188.2644    128.58387    4187.4119   -13308.817     253.3361 
    9850    40.625018    40.625018    40.625018   -209.09391   -204.87145    4186.6384   -333.00963    4189.1663   -89.400642    4185.1292    -13310.94    258.31262 
    9900    40.622237    40.622237    40.622237    148.31384    127.49748    4190.4228    211.31408    4191.3036    106.12996    4192.0822   -13307.278    252.08567 
    9950    40.623383    40.623383    40.623383     1.582774    69.834119     4188.072   -163.62004    4188.0217    98.534248     4186.593   -13310.401     258.9926 
   10000     40.62607     40.62607     40.62607   -49.067764   -32.888182    4186.5936    31.781308    4186.8969   -146.09642    4188.2722   -13306.221    251.76572 
   10050    40.625601    40.625601    40.625601   -111.26613   -260.75667    4186.4766   -93.751589    4188.1715    20.709871    4186.1953   -13309.037    258.07207 
   10100     40.62165     40.62165     40.62165    194.77386    28.814092    4191.2298    505.48434    4190.9777    50.023147    4189.1936   -13308.396    257.68142 
   10150    40.623957    40.623957    40.623957    148.65111    67.804204    4189.5418    36.673761    4191.0695    341.47535    4189.0222   -13305.783    253.47093 
   10200    40.629076    40.629076    40.629076   -266.31898   -507.92354    4185.1666   -161.58297    4184.0192   -129.45043    4184.0883     -13308.7    259.95316 
   10250    40.626239    40.626239    40.626239    139.51768    308.09578    4187.8435    15.774635    4187.3469    94.682613     4190.126    -13303.86    251.42496 
   10300    40.624167    40.624167    40.624167     -32.4434   -82.799664    4190.5935   -62.479318    4188.7822    47.948784    4186.5457   -13309.107    262.41275 
   10350    40.623612    40.623612    40.623612     175.4361    204.33298    4190.7218      258.726    4190.6602     63.24931     4188.108   -13305.282     255.8423 
   10400    40.627102    40.627102    40.627102   -209.12009   -222.42107    4185.4503   -245.20351    4187.8505   -159.73569    4184.4007   -13309.194    264.24465 
   10450    40.626953    40.626953    40.626953   -37.296466   -132.87675    4185.6625     82.48944    4186.1684   -61.502083    4188.5369   -13306.088    259.05202 
   10500    40.625844    40.625844    40.625844     3.606221    -58.26973    4187.6358   -86.758565    4189.2487    155.84696    4187.8402   -13306.912    261.45961 
   10550    40.625595    40.625595    40.625595    111.78184    112.94411    4189.6037    309.47861    4190.3191   -87.077194    4188.5812    -13304.68    257.95671 
   10600    40.628278    40.628278    40.628278   -8.4171661     70.80722    4187.7651   -24.293744    4186.8349   -71.764974    4186.3522    -13304.87    259.13252 
   10650    40.629525    40.629525    40.629525    -76.00165    29.818683    4184.6576    -84.45566    4184.2016   -173.36797    4184.4303   -13304.625    259.46901 
   10700    40.627011    40.627011    40.627011    47.009139   -16.427123     4186.064    162.61651    4184.9819   -5.1619706    4185.8445   -13306.004    262.94252 
   10750    40.625683    40.625683    40.625683    101.81504    128.92511    4190.4726    169.09554    4190.1463    7.4244807    4190.3423   -13304.619    261.05812 
   10800    40.628883    40.628883    40.628883   -57.759356   -232.59692    4187.5224   -42.288746    4187.0227     101.6076    4185.1708   -13305.472    263.48864 
   10850    40.630171    40.630171    40.630171   -214.60569     -342.753     4184.933   -101.34117    4186.0397    -199.7229     4182.363   -13305.818    264.95585 
   10900    40.625775    40.625775    40.625775    151.63751    78.462207    4189.9757    158.15176    4189.2037    218.29857    4187.6662   -13303.888    262.00642 
   10950    40.625825    40.625825    40.625825    156.99311    351.87784    4187.7556    28.857647    4188.4714    90.243849    4188.2957   -13304.334    263.65212 
   11000    40.629465    40.629465    40.629465   -4.6147152   -257.73613     4185.401    122.77483    4184.9271    121.11715    4185.7783   -13303.002    261.85318 
   11050    40.631044    40.631044    40.631044   -216.10871   -397.60634    4184.8065   -158.54736    4184.9343   -92.172443    4184.9347   -13305.477     267.4096 
   11100    40.628304    40.628304    40.628304   -8.2088922    -27.43093    4186.2329   -7.8096948    4186.9934    10.613949    4185.9895   -13304.539    266.35772 
   11150    40.626833    40.626833    40.626833    47.524497   -24.750529    4186.7889    171.35739    4188.2195   -4.0333658    4185.9353   -13304.416    266.89007 
   11200    40.628827    40.628827    40.628827    66.135866   -26.759252    4185.9277    -54.27607    4187.8964    279.44292    4185.3599   -13302.796     264.5124 
   11250    40.631237    40.631237    40.631237   -205.72997   -313.74178    4184.5593   -196.51809    4184.9031   -106.93004    4183.4341   -13303.694    267.01032 
   11300    40.627988    40.627988    40.627988    145.36804    303.85977    4187.7273    46.112924    4189.2036    86.131426    4188.4557   -13301.625    263.75624 
   11350    40.627598    40.627598    40.627598    123.42655    49.406004    4188.7983     151.7312    4188.7888    169.14245    4185.1381     -13302.5    266.19717 
   11400    40.631013    40.631013    40.631013   -77.358293   -166.48749     4183.821    -50.58186    4186.1519   -15.005531    4184.9807   -13302.024    266.01716 
   11450    40.632363    40.632363    40.632363   -19.472944    -90.11872     4182.823   -33.678407    4185.6916    65.378293    4182.7708    -13300.91    264.60553 
   11500    40.630696    40.630696    40.630696   -3.0508462   -160.00149    4184.9384    48.513397    4184.8386    102.33555    4183.4793   -13301.475    266.43476 
   11550    40.628804    40.628804    40.628804    126.34517    150.27522    4185.4118    126.02328     4185.786    102.73703    4187.0073   -13302.117    268.41079 
   11600    40.630261    40.630261    40.630261    73.233627   -189.57979    4187.3335    117.34552    4185.4657    291.93515    4184.6479   -13300.928    266.82904 
   11650    40.634013    40.634013    40.634013   -181.24677   -102.18677    4179.9641   -93.849952    4181.8233   -347.70358    4183.0328   -13302.663    270.90194 
   11700    40.633111    40.633111    40.633111   -58.957529   -187.11382     4184.042   -111.76711    4186.5337    122.00834    4183.4964   -13300.459     267.3539 
   11750    40.630416    40.630416    40.630416    24.711564   -45.483729    4185.5329    126.59345    4186.0814   -6.9750275    4184.6361   -13302.282    271.58763 
   11800     40.63046     40.63046     40.63046    26.762155   -93.700409    4183.6726     19.32279    4185.1937    154.66408    4183.8401   -13302.153    272.05155 
   11850    40.633042    40.633042    40.633042   -87.038853   -104.27361    4183.3547    -134.4311    4184.8714   -22.411855     4184.576   -13300.574    269.69782 
   11900    40.633192    40.633192    40.633192   -79.570443    23.165684    4181.2945   -28.753296    4184.4372   -233.12372    4184.8443   -13299.843    268.98867 
   11950    40.631173    40.631173    40.631173    118.26227     10.00073    4186.9875    122.41582    4183.8312    222.37025     4183.433   -13301.134    272.18158 
   12000    40.632786    40.632786    40.632786   -78.056303    59.459661    4183.8182   -129.93546      4184.44   -163.69311    4182.8201   -13301.306    273.20595 
   12050    40.633253    40.633253    40.633253   -112.85073   -227.21485    4182.3813   -134.45662    4182.8304    23.119281    4183.2933   -13301.911    275.06268 
   12100    40.631762    40.631762    40.631762    74.823908    125.98572    4185.0837   -51.757588    4185.8279     150.2436    4184.1506   -13300.219    272.47072 
   12150    40.632564    40.632564    40.632564    51.699905    67.557455    4183.6197    36.367176    4183.5133    51.175083    4184.0746   -13299.354    271.46837 
   12200    40.635215    40.635215    40.635215   -52.400902   -178.48675    4182.5608   -65.642467    4182.0737    86.926515    4182.6442   -13298.614    270.70756 
   12250    40.635432    40.635432    40.635432   -130.77979   -126.65134    4181.6673   -32.035334    4182.3875   -233.65269    4181.2175   -13301.017    276.02303 
   12300    40.632938    40.632938    40.632938    135.49607    51.613656    4185.1396    68.905016     4184.602    285.96953    4184.0757   -13298.193     271.2239 
   12350      40.6338      40.6338      40.6338    110.79204   -4.0624609    4182.8908    156.24311    4182.0079    180.19546     4183.222   -13298.862    273.17917 
   12400    40.636491    40.636491    40.636491   -84.226133   -156.34843    4181.5109   -53.223318    4180.4402   -43.106656    4181.1383   -13298.516    273.16508 
   12450     40.63608     40.63608     40.63608   -105.43112   -113.94969    4183.2486    31.671273    4183.7908   -234.01495    4181.7573   -13299.057    274.85802 
   12500     40.63349     40.63349     40.63349    73.301941   -126.24504     4182.535     99.61075     4185.339    246.54011    4182.0447   -13299.132    275.65091 
   12550    40.634765    40.634765    40.634765    108.36807    158.23465     4182.983    4.7940989     4183.769    162.07545     4183.214   -13297.624     273.3763 
   12600    40.638009    40.638009    40.638009   -209.13169   -344.18259    4181.2822   -95.649934    4181.7852   -187.56254    4182.0219   -13298.598     275.8979 
   12650    40.635318    40.635318    40.635318    42.289504    47.830192    4183.3949   -45.030418    4182.6609    124.06874    4184.0441   -13299.196    277.68473 
   12700    40.634776    40.634776    40.634776    50.474438   -38.278257    4183.8679    52.429299    4184.0157    137.27227    4182.6143    -13298.83    277.60061 
   12750    40.637413    40.637413    40.637413   -54.674044    116.52329    4182.5159   -89.556189    4180.9626   -190.98924    4180.4672   -13297.222    275.11887 
   12800    40.637637    40.637637    40.637637    17.392318    -212.4068    4185.7666    113.15086    4182.4365     151.4329    4180.1403   -13296.433    274.21775 
   12850    40.636444    40.636444    40.636444   -3.2089293    27.118558    4184.8894   -64.830864    4185.0976    28.085518    4183.7508   -13296.615    275.18459 
   12900    40.635496    40.635496    40.635496    112.85919   -16.130395     4182.714    171.77843    4182.8128    182.92953    4183.5481   -13296.632    275.83382 
   12950     40.63761     40.63761     40.63761    70.575063    60.800672    4181.0329    54.946595    4180.2946    95.977923    4183.3884   -13296.897    276.95357 
   13000    40.639634    40.639634    40.639634   -170.17992   -259.99103    4178.9691   -351.17303    4179.6284    100.62431     4179.149   -13298.108    279.90085 
   13050    40.637291    40.637291    40.637291   -3.4885987   -69.042692    4182.9054    144.65744    4181.1955   -86.080541    4182.4099    -13297.37    279.07051 
   13100    40.635236    40.635236    40.635236    285.64911    315.25233    4186.7012    260.62272    4186.5479    281.07229    4183.3344   -13293.252    271.69647 
   13150    40.639057    40.639057    40.639057   -181.74363   -167.99126    4180.4168   -151.01727    4182.2425   -226.22236    4179.0263   -13298.159     281.7789 
   13200     40.63981     40.63981     40.63981    56.183701   -181.40784    4181.2381    247.79395    4181.2948      102.165    4179.7591   -13294.232    274.76961 
   13250    40.638489    40.638489    40.638489   -86.426982   -235.51017    4181.4045   -189.17544    4182.5803    165.40466    4183.1416   -13297.241    281.17201 
   13300    40.635856    40.635856    40.635856    92.943918    58.114107    4183.7708    243.30267    4183.5998    -22.58502    4184.8617   -13296.341    280.00382 
   13350    40.637821    40.637821    40.637821   -11.807637   -71.060899    4183.1805   -55.137929    4182.1622    90.775916     4180.746   -13297.248    282.32932 
   13400    40.640089    40.640089    40.640089   -244.51189   -222.86359    4182.6723   -325.95106    4179.8578     -184.721    4180.4367   -13296.377    281.21349 
   13450    40.637708    40.637708    40.637708    224.67057    299.08332    4184.0969    228.42859    4182.2885     146.4998    4181.3115   -13293.736    276.66879 
   13500    40.638508    40.638508    40.638508   -35.183139   -224.25489    4183.2255   -23.668273    4180.9009    142.37375     4179.139    -13294.82     279.3269 
   13550    40.638004    40.638004    40.638004   -29.545736   -110.31045     4182.282    48.517033    4181.6522   -26.843796    4180.9829   -13296.986    284.07303 
   13600    40.637313    40.637313    40.637313    2.9985382    -20.30025    4181.6478   -156.28401    4185.8316    185.57988    4180.9315   -13296.215    283.12797 
   13650    40.638396    40.638396    40.638396   -14.068008   -114.53994    4182.0602    18.101605    4183.3381    54.234306    4183.0461   -13294.578    280.50422 
   13700     40.63977     40.63977     40.63977   -24.028045   -31.566892    4181.5369   -88.182613     4182.752     47.66537    4183.3428   -13294.035    279.99381 
   13750     40.63924     40.63924     40.63924    52.050265    -17.10691    4181.6378   -89.977532    4183.7271    263.23524    4181.1658   -13293.941    280.34795 
   13800    40.638391    40.638391    40.638391    110.32958    153.57904    4182.7066  -0.92167679    4182.6979    178.33139    4183.8409   -13292.726    278.53424 
   13850    40.638572    40.638572    40.638572     76.64713   -45.554201    4182.9342    116.22915    4181.4216    159.26645    4182.8644   -13294.325    282.15374 
   13900    40.640473    40.640473    40.640473     9.791836   -57.548615    4180.6654    19.475116    4180.2956    67.449007    4179.8309   -13293.875     281.8037 
   13950    40.642547    40.642547    40.642547   -155.24301   -131.91731    4178.7133   -131.80256    4180.2183   -202.00915    4179.4283   -13295.158    284.80494 
   14000     40.64039     40.64039     40.64039   -35.655012   -332.61646    4183.0168     52.87647    4182.1799    172.77495    4181.7173   -13293.769    282.62806 
   14050    40.638549    40.638549    40.638549    49.507167    87.248983    4182.5166    4.9390984    4181.3709    56.333419     4182.956   -13295.744    286.96311 
   14100    40.639947    40.639947    40.639947      2.72087    13.003139    4182.8024   -31.598315    4181.2301    26.757785    4180.8637   -13294.216    284.51509 
   14150    40.641101    40.641101    40.641101    30.233658   -3.9348283    4180.6673    187.21131    4179.6397   -92.575504    4178.7304   -13291.686    280.12516 
   14200    40.641083    40.641083    40.641083   -50.158484   -149.02153    4181.2845   -41.156181    4180.7687    39.702255    4180.1938   -13294.162    285.40899 
   14250    40.641189    40.641189    40.641189    22.345014    12.646576    4180.7401   -142.41608    4182.2803    196.80455    4181.7613   -13294.206    285.98202 
   14300    40.641404    40.641404    40.641404    104.07924    43.143855    4180.7497    68.220708    4184.1533    200.87317    4181.5461   -13290.024    278.38251 
   14350    40.641892    40.641892    40.641892    -1.845087   -72.708735     4182.041   -198.09654    4180.2699    265.27002      4180.57   -13293.086    284.79306 
   14400    40.641417    40.641417    40.641417   -36.180675   -153.97295    4182.1701   -44.451724    4177.0965    89.882649     4180.199   -13295.188     289.3449 
   14450    40.640686    40.640686    40.640686    108.74009    143.41713    4183.3686    101.92335    4183.6556    80.879783    4178.8127   -13291.498    282.67855 
   14500    40.643262    40.643262    40.643262   -14.583012    32.320591    4180.7084   -48.607513    4181.5744   -27.462113      4180.21   -13292.327    284.74998 
   14550    40.642986    40.642986    40.642986   -37.790055   -226.65181    4180.8259     65.67136    4180.7271     47.61028    4179.4966   -13292.161    284.89494 
   14600    40.640718    40.640718    40.640718    64.243243    64.196799    4183.9553   -6.1570565     4183.174    134.68999    4182.7648   -13292.745    286.48662 
   14650    40.641474    40.641474    40.641474    18.583595    65.058129    4182.8195   -126.14258    4183.2994    116.83524    4181.4425   -13292.072    285.64295 
   14700    40.643283    40.643283    40.643283   -80.770125     20.17634    4182.0914   -145.49623     4179.983   -116.99048    4180.3861   -13293.395    288.65391 
   14750      40.6432      40.6432      40.6432    18.825638    12.131751    4181.6921   -5.8742923    4180.0206    50.219456    4180.0837    -13291.05    284.57408 
   14800    40.641828    40.641828    40.641828    59.688144     13.38137     4179.346   -6.9829497    4182.8301    172.66601    4180.6648   -13291.847    286.56654 
   14850    40.641895    40.641895    40.641895    66.260735    -31.36407    4180.8787    59.560317     4181.981    170.58596    4181.4388   -13291.946     287.1986 
   14900    40.644253    40.644253    40.644253    -137.8918   -28.810621    4177.9733   -283.00416    4180.0904   -101.86061    4178.4465   -13293.074    289.82247 
   14950    40.643903    40.643903    40.643903   -25.902299   -149.35746    4179.8813   -19.989706    4177.4719     91.64027    4179.6873   -13291.409    287.03537 
   15000    40.641649    40.641649    40.641649     121.2001    369.62337    4179.9171   -105.35529    4181.6231    99.332208    4180.2672    -13291.13    286.92694 
   15050    40.640804    40.640804    40.640804    124.25808    130.95532    4182.6947    266.91166     4181.851   -25.092751    4183.4778   -13290.189    285.52842 
   15100    40.643721    40.643721    40.643721    68.421529    56.283599    4180.3737    34.445267    4181.3607    114.53572    4179.1465    -13289.81    285.21211 
   15150    40.646227    40.646227    40.646227   -260.38134   -424.20211    4177.0113   -211.45708    4178.7742   -145.48484    4177.2928   -13291.683    289.25668 
   15200    40.641762    40.641762    40.641762    130.30459    204.55067     4181.748    116.31639    4182.3236    70.046715    4183.7965   -13290.562    287.49797 
   15250    40.641099    40.641099    40.641099    98.566659     46.09651     4181.273    79.674937    4182.1197    169.92853    4180.8506   -13292.078    290.84329 
   15300    40.644544    40.644544    40.644544   -118.84699    75.931577    4177.6484   -140.47862    4180.1004   -291.99393    4179.8291   -13292.477    292.02294 
   15350    40.645904    40.645904    40.645904   -177.19528   -169.86276    4177.7987   -274.56886    4179.1656   -87.154236    4180.5293   -13291.589    290.70199 
   15400    40.643297    40.643297    40.643297    83.933268    152.76898    4180.8045      41.9908    4181.5154    57.040018    4183.2199   -13289.785    287.61095 
   15450    40.643212    40.643212    40.643212   -47.128333    -3.393349    4179.6866   -127.31612    4179.9813   -10.675524     4176.653   -13293.994    296.15045 
   15500    40.644556    40.644556    40.644556   -10.913815    130.34848    4179.7904   -50.513648    4179.7009   -112.57628    4182.0055   -13289.964    288.73837 
   15550    40.645592    40.645592    40.645592   -114.97909   -134.85099    4180.3693   -47.571431    4178.4718   -162.51484    4179.7835   -13290.329    289.82883 
   15600    40.643746    40.643746    40.643746    55.880874    222.32778    4178.5827   -81.345277    4180.6151    26.660114    4179.1213   -13290.832    291.18802 
   15650    40.643304    40.643304    40.643304    147.72957    187.86622    4182.5377    99.284361     4182.029    156.03812    4180.3061   -13288.079    286.24089 
   15700    40.645435    40.645435    40.645435   -95.613541    108.29415    4178.2924   -140.73087    4178.5476    -254.4039    4178.1231   -13291.127    292.51058 
   15750    40.645221    40.645221    40.645221   -119.59063   -210.43333    4177.3142     -83.1876    4177.9384   -65.150955    4181.7706    -13290.72    292.09127 
   15800     40.64282     40.64282     40.64282    128.44945    151.43527     4178.558   -10.250141     4181.365    244.16322     4181.338   -13290.004    291.06987 
   15850    40.643562    40.643562    40.643562    255.12946    184.87633    4183.0799    204.18276    4184.0972    376.32928    4180.6941    -13286.28     284.2209 
   15900    40.648933    40.648933    40.648933   -203.49251    -85.01199     4177.172   -224.27456    4176.7059   -301.19097    4177.4165   -13289.703    291.20079 
   15950    40.647235    40.647235    40.647235   -177.93799   -277.47371    4176.9748   -130.23204    4175.4274   -126.10822    4177.3071   -13291.204    294.46058 
   16000    40.641642    40.641642    40.641642    253.28201    245.03511    4181.9957    116.57843    4181.8836    398.23248    4180.6249   -13290.572    293.59034 
   16050     40.64468     40.64468     40.64468    44.585677   -2.5265583    4178.3558    193.21688    4180.9156   -56.933291    4180.6425   -13289.491    291.84188 
   16100    40.648092    40.648092    40.648092   -96.521565   -56.646929    4177.5669   -213.35102    4178.6023   -19.566745    4178.1981   -13287.606    288.53645 
   16150    40.646183    40.646183    40.646183   -124.85479    -223.7641    4178.0915    -140.8099    4180.2032   -9.9903647    4177.2923   -13291.657    296.70436 
   16200    40.643683    40.643683    40.643683    260.25256    311.88632    4180.5577    121.74351     4181.865    347.12785    4180.4485   -13286.817    287.67145 
   16250    40.647248    40.647248    40.647248   -64.881933    27.348632    4177.9936   -187.98853    4177.6518   -34.005901    4176.6786   -13289.246    292.70305 
   16300    40.647707    40.647707    40.647707   -300.11993   -413.03993    4176.5502   -163.64314    4175.1133    -323.6767    4176.1984   -13292.628    299.56755 
   16350    40.643982    40.643982    40.643982     184.8353    291.46572    4178.6962    92.583257    4181.6668    170.45693    4178.5066   -13288.662    292.21654 
   16400    40.646359    40.646359    40.646359   -120.05301   -36.129501     4176.545   -117.08587    4179.0886   -206.94367    4177.6982   -13290.463    296.02097 
   16450    40.646194    40.646194    40.646194     131.3871    117.35014    4175.5502    123.33839    4179.7169    153.47277    4177.5168   -13286.527    288.71751 
   16500    40.645997    40.645997    40.645997    19.115891    199.68744    4178.0083   -44.688078    4179.6064   -97.651693    4176.2829   -13287.923    291.72469 
   16550    40.645018    40.645018    40.645018      139.161    245.82592    4179.6657    67.598466    4181.2544     104.0586    4180.9245   -13286.999    290.23117 
   16600    40.646961    40.646961    40.646961   -47.628543   -26.188985    4178.3208   -115.06211    4178.2656   -1.6345282    4178.5546   -13288.658    293.73898 
   16650    40.647639    40.647639    40.647639   -163.65753   -132.37627    4177.0934   -199.92358    4178.1814   -158.67272    4178.1162   -13289.088    294.86789 
   16700    40.644928    40.644928    40.644928    90.328838    3.7104478    4179.2421    156.31857    4177.9163     110.9575    4178.2253   -13289.441    295.84883 
   16750    40.645008    40.645008    40.645008    66.487621    308.01568    4180.4892   -9.2102034    4180.7949   -99.342608    4180.1676   -13287.397    292.18604 
   16800    40.646982    40.646982    40.646982   -28.647079    -1.732685    4178.1605   -113.97574    4178.8465    29.767187     4176.891   -13288.147    293.92404 
   16850    40.647575    40.647575    40.647575   -113.98103   -112.42947     4177.871   -158.39772      4177.72   -71.115905    4177.3506   -13289.385     296.6021 
   16900     40.64558     40.64558     40.64558    185.06392    171.88758    4180.2224    257.47412    4180.5465    125.83005    4179.0739   -13286.361    291.02729 
   16950    40.646624    40.646624    40.646624   -8.3386466    105.91063     4177.186   -153.59331    4179.9506    22.666735    4178.0303   -13288.359    295.16891 
   17000    40.647892    40.647892    40.647892     -84.9798   -202.79434    4177.0921   -84.437064    4177.9945    32.292003    4179.2714   -13288.971    296.61817 
   17050    40.647433    40.647433    40.647433   -41.121248    62.970544    4178.7882    -258.0537    4180.0929    71.719408    4177.7526   -13287.587    294.20613 
   17100    40.646208    40.646208    40.646208    51.590538   -157.36983    4180.9303    181.58593    4178.9045    130.55551    4178.7974   -13288.503    296.24409 
   17150     40.64691     40.64691     40.64691   -65.900093    88.764333    4176.7699   -136.20971    4180.2737    -150.2549    4177.5373   -13288.567    296.63092 
   17200    40.647071    40.647071    40.647071   -5.7301942    85.350031    4179.7081   -56.817588    4179.1744   -45.723026    4177.8849   -13287.799    295.40475 
   17250    40.647511    40.647511    40.647511    -25.19417   -189.67004    4177.2562    87.685232    4178.0891    26.402299    4178.7863   -13287.151     294.4074 
   17300    40.646197    40.646197    40.646197    51.128973   -28.626207    4178.9468   -66.967949     4182.203    248.98108    4179.8448   -13286.795    293.97096 
   17350    40.645704    40.645704    40.645704     25.76403    133.32117    4178.2645   -41.976564    4178.4669    -14.05252    4181.1408   -13287.693    295.95127 
   17400    40.646821    40.646821    40.646821    88.993293   -51.853742    4177.4328    109.37425    4179.7114    209.45937    4177.7525   -13287.471    295.76596 
   17450    40.649304    40.649304    40.649304    -91.48287    7.8513218     4174.993   -111.95574    4178.3457   -170.34419    4177.9905   -13287.294    295.65469 
   17500     40.64965     40.64965     40.64965   -125.92975   -340.24098    4174.7935    26.244848    4177.8676   -63.793135    4177.2281   -13288.019    297.29323 
   17550    40.646417    40.646417    40.646417    4.3014998   -46.704835    4178.2705   -108.84987    4179.3446     168.4592    4177.1431   -13288.223    297.92335 
   17600    40.644359    40.644359    40.644359    139.68143    106.22348    4180.6227    162.31823    4180.2838    150.50258    4179.7377   -13287.957    297.64168 
   17650    40.647422    40.647422    40.647422    14.878034    216.79361    4179.1902   -132.52787    4180.2173   -39.631644    4178.8265   -13285.756    293.60247 
   17700    40.650624    40.650624    40.650624   -138.79927   -55.326369    4175.0797   -197.14582    4177.3149   -163.92561    4176.0019   -13288.721    299.56013 
   17750    40.649172    40.649172    40.649172   -36.150917    61.241998    4177.0245    19.197546      4178.97    -188.8923    4178.3949    -13286.87    296.19526 
   17800    40.646619    40.646619    40.646619    134.11957     266.8086     4179.667    61.829198    4182.2048    73.720902    4179.5268   -13285.681    294.11104 
   17850    40.648224    40.648224    40.648224   -10.097739   -112.46807    4178.6708   -4.1572798     4178.399    86.332135    4176.7189   -13287.112    297.09284 
   17900    40.649757    40.649757    40.649757   -213.19533    -135.9982    4176.0662   -465.20502    4175.7768   -38.382757    4175.6825   -13288.333    299.66476 
   17950    40.646153    40.646153    40.646153     133.7404    157.47713     4178.853    242.56937    4178.6021    1.1747135    4178.8314   -13286.412    296.14748 
   18000    40.646559    40.646559    40.646559    169.63043    205.26381    4179.4217    36.418296    4179.3503    267.20919    4176.8764   -13287.075    297.62351 
   18050    40.652159    40.652159    40.652159   -295.84138   -172.97238    4173.1324   -283.00239    4175.5269   -431.54937    4174.6461    -13288.39     300.3592 
   18100    40.650501    40.650501    40.650501    -73.75406   -73.999733    4177.7029    -130.0967    4178.1822   -17.165743    4176.6612   -13285.795    295.52623 
   18150    40.646245    40.646245    40.646245    96.166344    155.87866    4180.5749   -60.233594    4180.3177    192.85397    4177.2925   -13287.652    299.30984 
   18200    40.646927    40.646927    40.646927    175.47057    206.98394    4179.5266     341.3466     4179.044   -21.918825    4178.3726   -13285.156    294.66771 
   18250    40.652093    40.652093    40.652093   -179.84718   -56.152416    4174.1683   -468.95038    4175.2107   -14.438737     4175.143   -13286.688    297.81787 
   18300     40.65108     40.65108     40.65108   -146.48119   -204.13115     4175.991   -120.05816    4176.3676   -115.25425    4176.6348   -13286.354    297.34563 
   18350    40.647339    40.647339    40.647339    152.34576    345.38026    4177.7168    116.05076    4181.9801   -4.3937254    4177.5108   -13287.164    299.08915 
   18400    40.648314    40.648314    40.648314    39.840227    111.98087     4177.153    -97.70683    4181.7735    105.24664    4176.5225   -13284.387    293.89244 
   18450    40.649518    40.649518    40.649518   -43.171992   -2.8361551    4175.2754     129.5971    4178.2547   -256.27692     4176.195   -13286.612    298.36329 
   18500    40.648505    40.648505    40.648505    101.24795    218.24174    4178.3208    15.561833    4179.2769     69.94029    4176.6714    -13284.19    293.83806 
   18550    40.648958    40.648958    40.648958   -52.247421   -4.6820598    4177.6644   -196.79381    4175.3669    44.733607    4176.6552   -13288.345    302.03487 
   18600    40.649113    40.649113    40.649113   -56.733612   -3.5033343    4178.0956   -90.042583    4177.6851    -76.65492    4176.6718   -13286.397    298.41916 
   18650    40.648364    40.648364    40.648364    68.655145    224.00438    4178.7722   -188.23487    4179.5817    170.19593    4178.0506   -13286.073    297.94127 
   18700    40.650336    40.650336    40.650336   -80.376999   -141.46978    4176.4854   -13.513316    4177.3266     -86.1479    4176.0032   -13285.705    297.38366 
   18750    40.650298    40.650298    40.650298   -128.58808   -83.145517    4175.6565    -205.1903    4176.9692   -97.428425     4172.774   -13287.988     301.9554 
   18800    40.646816    40.646816    40.646816    138.77851    312.50042    4179.2791    83.938646    4180.7678     19.89647    4178.9109   -13284.734    295.80138 
   18850    40.648234    40.648234    40.648234    30.728254   -38.662071    4178.9148   -7.3471006    4179.0048    138.19393    4177.7688   -13286.842    300.01921 
   18900    40.650992    40.650992    40.650992    -42.95928    148.55719    4175.3962   -127.39375    4175.8659   -150.04128    4177.0318   -13285.424    297.41421 
   18950    40.650288    40.650288    40.650288   -100.85335    -181.3983    4177.4584    62.860203    4176.0355   -184.02196     4175.568   -13286.265    299.17496 
   19000    40.647024    40.647024    40.647024    214.95262    284.83887    4178.9641    51.056801    4180.4246    308.96218    4176.7786   -13285.026    296.90714 
   19050    40.649705    40.649705    40.649705   -81.133724   -129.00732    4177.0596    75.547217     4175.099   -189.94107    4174.7936   -13286.857    300.57186 
   19100    40.651126    40.651126    40.651126   -101.32617   -31.477654    4176.2419   -154.66723    4176.6935   -117.83362    4174.0494    -13287.34    301.62988 
   19150    40.650514    40.650514    40.650514   -61.937819   -59.029845    4177.1924   -54.942506    4175.6232   -71.841107    4173.8933    -13286.17    299.48627 
   19200    40.648958    40.648958    40.648958   -40.202422     28.23678    4176.1759   -47.031317    4178.7657   -101.81273    4175.2994   -13287.908    302.96654 
   19250    40.648297    40.648297    40.648297    193.92933    110.86583    4178.8981    160.24061    4179.2771    310.68154    4176.6951   -13283.866     295.2575 
   19300    40.653967    40.653967    40.653967   -319.65063   -433.94692    4171.8488   -265.61363    4172.5083   -259.39133    4172.2407   -13288.426    304.19497 
   19350    40.650697    40.650697    40.650697   -50.380578    75.039162    4176.0416    -108.3705    4176.1304   -117.81039    4177.0648   -13284.214    296.15027 
   19400    40.645481    40.645481    40.645481    233.31821   -13.523612    4182.5316    276.96417    4179.9321    436.51408    4179.5079   -13286.245    300.18916 
   19450    40.648108    40.648108    40.648108    86.601651    177.74298    4177.5807     85.95445    4179.3216   -3.8924808    4178.1545   -13284.204    296.34544 
   19500    40.652051    40.652051    40.652051   -87.655979    -108.3931     4174.774   -28.882256    4175.8902   -125.69258     4174.678   -13283.979    296.00928 
   19550    40.652947    40.652947    40.652947   -162.69022   -207.64374    4175.0507   -247.02321    4174.6386   -33.403704    4172.7067   -13286.868    301.69673 
   19600    40.648603    40.648603    40.648603    123.89806     187.6444    4177.0492    253.36595    4178.0582   -69.316182    4176.1418   -13284.234    296.69118 
   19650    40.646314    40.646314    40.646314    152.06679    299.51493     4179.604    114.99572    4180.1902    41.689733    4179.1328    -13285.08    298.41695 
   19700    40.648757    40.648757    40.648757   -6.5061867   -21.901854    4178.7621    105.41324    4177.2664   -103.02995    4177.5711   -13285.998    300.27426 
   19750    40.650718    40.650718    40.650718   -105.49055   -89.223316    4175.8062   -108.47253    4175.2629   -118.77579    4174.9033   -13285.718     299.8116 
   19800    40.650581    40.650581    40.650581  -0.49329861    115.55627     4176.399    120.12138    4175.7388   -237.15754     4175.373   -13285.414    299.30153 
   19850    40.649939    40.649939    40.649939   -90.391231   -73.085082    4175.2901   -203.69606    4176.4089    5.6074539    4175.8636   -13286.062    300.63334 
   19900    40.648117    40.648117    40.648117    37.872772    145.97849    4177.5081    105.26909    4179.0057   -137.62926    4176.1726   -13286.943    302.41409 
   19950    40.648134    40.648134    40.648134   -71.534231   -120.29811    4177.3829   -29.231516    4177.8675   -65.073071    4176.5775    -13286.23    301.10262 
   20000    40.648392    40.648392    40.648392    206.27109     236.8314    4175.6339    298.12899    4177.4238    83.852874    4176.9595   -13283.071    295.05319 
Loop time of 920.776 on 4 procs for 20000 steps with 4000 atoms

Pair  time (%) = 854.244 (92.7743)
Neigh time (%) = 0 (0)
Comm  time (%) = 47.8127 (5.19265)
Outpt time (%) = 0.0597559 (0.00648973)
Other time (%) = 18.6599 (2.02654)

Nlocal:    1000 ave 1000 max 1000 min
Histogram: 4 0 0 0 0 0 0 0 0 0
Nghost:    4235 ave 4235 max 4235 min
Histogram: 4 0 0 0 0 0 0 0 0 0
Neighs:    70000 ave 72653 max 67302 min
Histogram: 1 0 1 0 0 0 0 1 0 1
FullNghs:  0 ave 0 max 0 min
Histogram: 4 0 0 0 0 0 0 0 0 0

Total # of neighbors = 280000
Ave neighs/atom = 70
Neighbor list builds = 0
Dangerous builds = 0
# run 	200000

# Use this if debug
# run 	1000
# run 200
unfix 1

# Store final cell length for strain calculations
variable tmp equal "lx"
variable L0 equal ${tmp}
variable L0 equal 40.6483922577475
print "Initial Length, L0: ${L0}"
Initial Length, L0: 40.6483922577475

######################################
# DEFORMATION
reset_timestep	0
set atom * xrad 0 yrad 0 zrad 0 vxrad 0 vyrad 0 vzrad 0
  4000 settings made for xrad
  4000 settings made for yrad
  4000 settings made for zrad
  4000 settings made for vxrad
  4000 settings made for vyrad
  4000 settings made for vzrad
fix		1 all npt temp 300 300 1 y 0 0 1 z 0 0 1 drag 1

variable srate equal 1.0e10
# variable srate equal 1.0e9 # tiny time step

variable srate1 equal "v_srate / 1.0e12"
fix		2 all deform 1 x erate ${srate1} units box remap x
fix		2 all deform 1 x erate 0.01 units box remap x

# Output strain and stress info to file
# for units metal, pressure is in [bars] = 100 [kPa] = 1/10000 [GPa]
# p2, p3, p4 are in GPa
variable strain equal "(lx - v_L0)/v_L0"
variable p1 equal "v_strain"
variable p2 equal "-pxx/10000"
variable p3 equal "-pyy/10000"
variable p4 equal "-pzz/10000"

# fix def1 all print 100 "${p1} ${p2} ${p3} ${p4}" file Al99.eam_rad.alloy.def1.txt screen no
# IMPLEMENTATION HERE
variable p5 equal "-pxxrad/10000"

# VERSION add rad variables
variable p6 equal "-pyyrad/10000"
variable p7 equal "-pzzrad/10000"

# VERSION ublb coupled/decoupled scheme
# variable p6 equal "-pxxub/10000"
# variable p7 equal "-pxxlb/10000"

fix def1 all print 20 "${p1} ${p2} ${p3} ${p4} ${p5} ${p6} ${p7}" file Al99.eam_rad.alloy.def1.txt screen no

# Use cfg for AtomEye
# dump 		1 all cfg 250 dump.tensile_*.cfg mass type xs ys zs c_csym c_peratom fx fy fz
# dump_modify 1 element Al

# print output to a text file every n timesteps
dump		2 all custom 50 dump.xyz_rvf_rad.tensile_*.txt mass type id x y z vx vy vz fx fy fz xrad yrad zrad vxrad vyrad vzrad fxrad fyrad fzrad # use for rad developement
# dump		2 all custom 50 dump.xyz_rvf_rad.tensile_*.txt mass type id x y z vx vy vz fx fy fz xrad yrad zrad vxrad vyrad vzrad fxrad fyrad fzrad xub yub zub vxub vyub vzub fxub fyub fzub xlb ylb zlb vxlb vylb vzlb fxlb fylb fzlb # use for ublb developement

# Display thermo
thermo 	50
# thermo 1
# thermo_style	custom step v_strain temp v_p2 v_p3 v_p4 ke pe press

# IMPLEMENTATION HERE
thermo_style	custom step v_strain temp v_p2 v_p3 v_p4 v_p5 v_p6 v_p7 ke pe press
run	20000
Memory usage per processor = 7.05217 Mbytes
Step strain Temp p2 p3 p4 p5 p6 p7 KinEng PotEng Press 
       0            0    295.05319  -0.02368314 -0.029812899 -0.0083852874  -0.41756339  -0.41774238  -0.41769595    152.51633   -13283.071    206.27109 
      50       0.0005    305.27076  0.076385928  0.026700653   0.02544381  -0.41717861  -0.41718194  -0.41714143    157.79791   -13288.296   -428.43464 
     100        0.001    295.42717   0.06301276   0.02872752  0.009142002   -0.4172137  -0.41727184          nan    152.70965   -13283.145   -336.27427 
     150       0.0015    303.35582   0.10391563  0.021016666 -0.016979124  -0.41725256  -0.41735341  -0.41724583    156.80806   -13287.176    -359.8439 
     200        0.002    301.05276   0.11977248 -0.063221078 0.0076251495  -0.41704633  -0.41756447          nan    155.61758   -13285.908   -213.92183 
     250       0.0025    295.64903   0.15045177 -0.011141413 -0.017034305  -0.41653663  -0.41727824  -0.41697327    152.82433   -13283.033   -407.58686 
     300        0.003    297.59578   0.20177241  0.017257887  0.043740917  -0.41626999  -0.41669483          nan    153.83063   -13283.947   -875.90403 
     350       0.0035    297.90159   0.21457242  0.016962525  0.013201642  -0.41598388  -0.41696921  -0.41705337     153.9887   -13284.012   -815.78861 
     400        0.004     302.2837   0.23780181 -0.012340809 -0.030440108  -0.41632929  -0.41728497          nan    156.25386   -13286.167   -650.06963 
     450       0.0045    301.24938   0.28630656 0.0061301808 -0.035861067  -0.41622635  -0.41704408  -0.41719528    155.71922   -13285.519   -855.25223 
     500        0.005    296.61352   0.31253741 0.0079158149  0.014220882  -0.41551355  -0.41681781          nan    153.32289   -13283.004   -1115.5803 
     550       0.0055    304.12293   0.37536467  0.015063377  0.046358205  -0.41517912  -0.41641598  -0.41617965    157.20458   -13286.755   -1455.9542 
     600        0.006    295.36034   0.37703246 -0.0086069583 -0.0076705015  -0.41549541  -0.41682547          nan     152.6751   -13282.091   -1202.5167 
     650       0.0065    302.92334   0.41996667 -0.011519301 -0.00041694971  -0.41527772  -0.41651007  -0.41646384     156.5845   -13285.854   -1360.1014 
     700        0.007    298.20205   0.43576674 -0.025363065 -0.014081269  -0.41523504  -0.41655054          nan    154.14402   -13283.265   -1321.0747 
     750       0.0075    295.82411   0.48498769  0.015544159  0.011999991  -0.41476557  -0.41632796  -0.41623863    152.91483   -13281.879   -1708.4395 
     800        0.008    302.13311   0.52029438  0.027130983  0.018111419  -0.41446828   -0.4159633          nan    156.17602   -13284.977   -1885.1226 
     850       0.0085    301.09945   0.55422916  0.003843732 -0.016729839   -0.4145325  -0.41620879  -0.41610245    155.64172    -13284.27   -1804.4768 
     900        0.009    300.31698   0.57208332 0.0015430849 -0.0065144422  -0.41443112  -0.41626098          nan    155.23725   -13283.688   -1890.3732 
     950       0.0095    301.07859    0.6263659 0.0012301972 -0.0057598621  -0.41407306  -0.41621156  -0.41591068    155.63093   -13283.895   -2072.7874 
    1000         0.01    301.50988   0.65335757 0.0023734946  0.040408462   -0.4138746  -0.41568316          nan    155.85387   -13283.925   -2320.4651 
    1050       0.0105    297.02491   0.66836506 0.0044850551 -0.0080675322  -0.41377464  -0.41596357  -0.41564244    153.53554   -13281.404    -2215.942 
    1100        0.011    299.92421   0.69534003    0.0050105 0.0089962338  -0.41381284  -0.41598487          nan    155.03422   -13282.701   -2364.4892 
    1150       0.0115    300.93967   0.72842287 -0.0066764886 -0.023511094  -0.41388033  -0.41608232  -0.41580051    155.55912   -13283.011    -2327.451 
    1200        0.012    298.11516   0.74283245 0.0023225495 -0.0056781198  -0.41372382  -0.41561347          nan     154.0991   -13281.331   -2464.9229 
    1250       0.0125    296.09534   0.80074317 -0.00015762297  0.016038089  -0.41338492  -0.41553656  -0.41541316    153.05503    -13280.06   -2722.0788 
    1300        0.013    300.38579   0.81874177 -0.0076835348  0.011580456  -0.41337091  -0.41558752          nan    155.27282   -13282.048    -2742.129 
    1350       0.0135    294.35458   0.84512009 -0.031162971 -0.024399982  -0.41321756  -0.41570235  -0.41563391    152.15522   -13278.691   -2631.8571 
    1400        0.014    298.92375   0.91345678 0.0073932019  -0.01098955  -0.41293469  -0.41525711          nan    154.51707   -13280.801   -3032.8681 
    1450       0.0145    299.86146   0.92245658  0.044193515  0.026805922  -0.41259771   -0.4149819  -0.41490445    155.00178   -13281.031     -3311.52 
    1500        0.015    297.04973   0.96477228 -0.0038140823 0.0042775993  -0.41278238  -0.41513419          nan    153.54837   -13279.319   -3217.4527 
    1550       0.0155    301.32705   0.97107154 -0.017055583 -0.023224235  -0.41276352  -0.41530102  -0.41526776    155.75936   -13281.256   -3102.6391 
    1600        0.016    300.47997    1.0189589 -0.0051068267 -0.018145599  -0.41281384  -0.41531774          nan     155.3215   -13280.543   -3319.0216 
    1650       0.0165    298.70423    1.0694414  0.016005424  0.029115908  -0.41221358  -0.41470456   -0.4147771     154.4036    -13279.34    -3715.209 
    1700        0.017     299.1915    1.1279416  0.018829441  0.025145113  -0.41198083  -0.41452589          nan    154.65547   -13279.296   -3906.3871 
    1750       0.0175    302.96186    1.1236282 0.0049706753 -0.0038490882  -0.41226409  -0.41474346  -0.41456092    156.60442   -13280.943   -3749.1659 
    1800        0.018    297.54899    1.1340796 -0.038355047 -0.0038681782   -0.4121637  -0.41486999          nan    153.80644   -13277.838   -3639.5214 
    1850       0.0185    300.18284     1.202559  0.024060562 -0.025380846  -0.41189905  -0.41462005  -0.41423201    155.16791   -13278.883   -4004.1291 
    1900        0.019      301.905    1.2428105  0.013249417  0.042858646  -0.41148974  -0.41400231          nan    156.05811   -13279.452   -4329.7287 
    1950       0.0195    297.56463    1.2595106  0.020898741 0.0060602864  -0.41162726  -0.41443546  -0.41410741    153.81452   -13276.881   -4288.2322 
    2000         0.02    301.39312     1.287643 -0.020410125 0.0014033429  -0.41176908  -0.41436495          nan    155.79352   -13278.523   -4228.7873 
    2050       0.0205    297.39065    1.3212022  -0.02259175 -0.028835303  -0.41167219  -0.41452616  -0.41430169     153.7246   -13276.109   -4232.5839 
    2100        0.021    296.57933    1.3530512  0.024545494   0.01259576  -0.41123564  -0.41384206          nan    153.30522    -13275.34    -4633.975 
    2150       0.0215    301.86389      1.42285  0.014651572  0.018754474  -0.41128348  -0.41411877  -0.41396627    156.03686   -13277.716    -4854.187 
    2200        0.022     300.8428     1.412048 0.0012920287 -0.0021998856  -0.41140346  -0.41429575          nan    155.50905   -13276.825   -4703.8004 
    2250       0.0225    299.02725    1.4321461 -0.0040392456  -0.02995493  -0.41125775  -0.41430091  -0.41418392    154.57057   -13275.515   -4660.5065 
    2300        0.023    297.44991    1.4709187 0.0051088264 -0.0080936701  -0.41100229  -0.41385907          nan    153.75522   -13274.321   -4893.1129 
    2350       0.0235    299.76275    1.5253658  0.011264959  0.029684555  -0.41079059   -0.4136645  -0.41368692    154.95076   -13275.137   -5221.0509 
    2400        0.024    297.54615     1.539138 -0.0043798112  0.014949503  -0.41079282  -0.41390091          nan    153.80497   -13273.602   -5165.6921 
    2450       0.0245    299.17032    1.5501475 -0.023600856 -0.029707099   -0.4109914  -0.41416624  -0.41362934    154.64453   -13274.046    -4989.465 
    2500        0.025    297.21842    1.5902559  -0.03311447 0.0058390706  -0.41078986  -0.41399166          nan    153.63556    -13272.64   -5209.9351 
    2550       0.0255    301.31341    1.6512509  0.029887397  0.021011691  -0.41044106   -0.4135505   -0.4131765    155.75231   -13274.349   -5673.8333 
    2600        0.026    296.45283    1.6611498 -0.012557481  0.027613457    -0.410361  -0.41341218          nan    153.23982   -13271.422   -5587.3527 
    2650       0.0265    301.29272    1.6973705  0.028162696 -0.018934186  -0.41051372  -0.41358959  -0.41313587    155.74162   -13273.502   -5688.6633 
[...]
   13800        0.138    291.25069    7.7123916  0.021712303 -0.0064641626   -0.3868702  -0.39096049          nan    150.55078   -13025.096   -25758.799 
   13850       0.1385    288.55819    7.6958233 -0.022898302 -0.084094538  -0.38684064   -0.3912451  -0.39130765      149.159   -13022.024   -25296.101 
   13900        0.139    292.21313    7.7793834 -0.018596694  0.033121535  -0.38630867  -0.39046046          nan    151.04827   -13022.219   -25979.694 
   13950       0.1395    292.80851    7.7626524   0.03200342  0.059693509  -0.38587903  -0.39025341  -0.39010442    151.35603   -13020.818   -26181.164 
   14000         0.14    290.78192    7.7739784 -0.018391636 0.00024523942  -0.38588894  -0.39050131          nan    150.30847   -13018.072   -25852.773 
   14050       0.1405    292.55995    7.8008559 -0.054400551  0.010070867  -0.38609789  -0.39048915  -0.39037831    151.22755   -13017.273   -25855.087 
   14100        0.141    290.98435    7.8449078 0.0028284285 -0.032554213  -0.38575176  -0.39021823          nan    150.41311   -13014.743   -26050.607 
   14150       0.1415    296.18122    7.8575383  0.043051585  0.037247456  -0.38548698  -0.38978388  -0.39013897    153.09942   -13015.707   -26459.458 
   14200        0.142    294.12159    7.8437331  -0.02390802 -0.0041379011  -0.38536524  -0.38959667          nan    152.03478   -13012.916   -26052.291 
   14250       0.1425    287.19968    7.7478812 -0.033567345 -0.002019977  -0.38515655  -0.38928392   -0.3895057    148.45677   -13007.631   -25707.646 
   14300        0.143    293.71432    7.8738105  0.019746234  0.023631537  -0.38489505  -0.38885143          nan    151.82426   -13009.286   -26390.628 
   14350       0.1435     291.4975    7.9045649 0.0057878559  0.018934398  -0.38457439  -0.38863574  -0.38928145    150.67836   -13006.402   -26430.957 
   14400        0.144     294.6357    7.8741604 -0.046018615 0.00047032948  -0.38470595  -0.38873973          nan    152.30053   -13006.298   -26095.374 
   14450       0.1445    292.14967    7.8781755 0.0080106477 -0.008594513  -0.38437765  -0.38826864   -0.3893536    151.01547   -13003.285   -26258.639 
   14500        0.145     290.8319    7.8916896  0.021238627 -0.0060794099  -0.38389686  -0.38777219          nan     150.3343   -13000.867   -26356.163 
   14550       0.1455     289.7379     7.878053  0.036487353 -0.022518208   -0.3836894  -0.38726395   -0.3886604     149.7688   -12998.563    -26306.74 
   14600        0.146    291.05198    7.8755564 0.0084610282 -0.023920782  -0.38350243  -0.38728342          nan    150.44807    -12997.51   -26200.322 
   14650       0.1465    290.14168    7.8880396  0.011861846  -0.01807914  -0.38330356  -0.38709891  -0.38796584    149.97752   -12995.301   -26272.741 
   14700        0.147    289.85403    7.8562697  0.029594156 -0.0032762703  -0.38301595  -0.38666451          nan    149.82883   -12993.412   -26275.292 
   14750       0.1475    284.83157    7.7802611 0.0071037338 -0.022309076  -0.38279594  -0.38669154  -0.38740355    147.23266   -12989.101   -25883.519 
   14800        0.148    295.22257    7.7739472  0.010271893 -0.036002251   -0.3827271  -0.38689265          nan    152.60389   -12992.754    -25827.39 
   14850       0.1485    291.85515    7.6392409 -0.022401768 0.0090253166  -0.38235889  -0.38660847  -0.38650846    150.86323    -12989.31   -25419.548 
   14900        0.149    295.96817    7.5426105  0.010334563   0.05186927  -0.38193259  -0.38619713          nan     152.9893   -12989.735   -25349.381 
   14950       0.1495    295.25224    7.4039377  0.010039178 -0.001891253   -0.3819055  -0.38605903  -0.38557955    152.61922   -12987.716   -24706.952 
   15000         0.15    304.02056    7.2650055 -0.071123596  0.034185168  -0.38205137  -0.38634953          nan    157.15167   -12990.627   -24093.557 
   15050       0.1505    309.56698    7.1267705 -0.049078844  0.019062772  -0.38156159  -0.38584575  -0.38541504    160.01867   -12991.928   -23655.848 
   15100        0.151    306.69809     6.911152 -0.068385816   0.01273007  -0.38061746  -0.38502067          nan    158.53572   -12988.961   -22851.654 
   15150       0.1515    319.26741    6.7401749  0.038975677  0.063540545  -0.37977018  -0.38422745  -0.38395883    165.03294   -12994.037    -22808.97 
   15200        0.152    319.28619    6.4117552  0.048372635 0.0019629842   -0.3794318  -0.38368856          nan    165.04264   -12992.724   -21540.303 
   15250       0.1525     335.4747    6.0896801  0.031858152 -0.071686451  -0.37978827  -0.38393496  -0.38452752    173.41067   -12999.863   -20166.173 
   15300        0.153    337.88645    5.7313163 -0.0086257228 -0.056823532  -0.37939479  -0.38381544          nan    174.65733   -13000.039   -18886.224 
   15350       0.1535    334.72084    5.3875431  0.072478331  -0.03801648  -0.37860026  -0.38322639  -0.38366832    173.02099   -12997.514    -18073.35 
   15400        0.154     342.0304    5.0719578  0.057930295  0.068710984  -0.37841202  -0.38314252          nan    176.79939   -13000.538   -17328.664 
   15450       0.1545     346.5106    4.7211677  0.004679539 -0.010202206  -0.37887104  -0.38388006   -0.3837859    179.11525   -13002.263   -15718.817 
   15500        0.155    347.72231    4.3780797 -0.065055253 -0.0039264244  -0.37927882  -0.38450734          nan     179.7416   -13002.419    -14363.66 
   15550       0.1555    345.72085    4.1566868 -0.078497099  0.058041973  -0.37898785  -0.38423392  -0.38388431    178.70702   -13001.037   -13787.439 
   15600        0.156    352.91346    4.0470676 -0.00032413902   0.11750658  -0.37879584  -0.38380594          nan    182.42496   -13004.544   -13880.834 
   15650       0.1565    355.30306    3.9546563  -0.03687998  0.018411789  -0.37920102  -0.38379197  -0.38406366    183.66017   -13005.686   -13120.627 
   15700        0.157    353.64653    3.7956129  0.017236398 -0.020414122  -0.37971568  -0.38394541          nan     182.8039   -13004.714   -12641.451 
   15750       0.1575    361.69497    3.7141687   0.06307154  0.023943058  -0.38009447   -0.3840588  -0.38464012    186.96422   -13008.807   -12670.611 
   15800        0.158    360.52666    3.6251051   0.01936415 -0.059177906  -0.38094196  -0.38491082          nan    186.36031   -13008.159   -11950.971 
   15850       0.1585    364.75668    3.6227972  0.032174451 -0.079266508  -0.38131561  -0.38504683  -0.38538139    188.54686   -13010.272   -11919.017 
   15900        0.159    362.85533    3.5756819 -0.044065223  0.017372756  -0.38108969  -0.38474957          nan    187.56403   -13009.253   -11829.965 
   15950       0.1595    363.19391    3.5803512 -0.013534165  0.076080543  -0.38057911  -0.38418979  -0.38452056    187.73904   -13009.373   -12142.992 
   16000         0.16    359.91317    3.4550027  0.011224552  0.079797756  -0.38061301  -0.38421177          nan    186.04319   -13007.653   -11820.083 
   16050       0.1605    360.95119    3.4214138 -0.010860946  0.021842636  -0.38125111  -0.38490741   -0.3850031    186.57975   -13008.178   -11441.318 
   16100        0.161    364.10444    3.3476955 -0.043325111 -0.037770807  -0.38202367  -0.38519001          nan    188.20971   -13009.804   -10888.665 
   16150       0.1615    368.76526    3.2747162 -0.028793028 0.0003051527  -0.38186153  -0.38496768  -0.38562054    190.61894   -13012.249   -10820.761 
   16200        0.162    368.50231    3.3067163  0.061524771 -0.056567645  -0.38133125   -0.3846624          nan    190.48302   -13012.162   -11038.911 
   16250       0.1625     360.1726    3.3071438  0.061398264 -0.051713849  -0.38100567  -0.38408237  -0.38497383    186.17729   -13007.922   -11056.094 
   16300        0.163    363.11155    3.2374907  0.042433084  0.043106488  -0.38112126   -0.3842522          nan    187.69647   -13009.558   -11076.768 
   16350       0.1635    362.59563    3.1608747 -0.039909799 -0.011993331  -0.38200751  -0.38515228  -0.38612519    187.42979   -13009.419   -10363.239 
   16400        0.164    368.58005    3.1163309 -0.054304993  -0.06283763  -0.38238102  -0.38547995          nan     190.5232   -13012.631   -9997.2944 
   16450       0.1645    372.76075    3.1361261  0.029011491  0.050938188  -0.38186184   -0.3847927  -0.38584417    192.68425   -13014.936   -10720.253 
   16500        0.165    363.92767    3.0526071   0.04346032  0.049082515  -0.38166951  -0.38463718          nan    188.11833   -13010.527   -10483.833 
   16550       0.1655    375.26214    3.0226861  0.042125017  0.027289623  -0.38217751  -0.38492822  -0.38566991    193.97725   -13016.577   -10307.003 
   16600        0.166    371.62968    2.9128993 -0.031234485 -0.049523321  -0.38287636  -0.38570222          nan    192.09959   -13014.888   -9440.4717 
   16650       0.1665    367.44987    2.7947826 -0.066465404  0.023118567  -0.38291791  -0.38563375  -0.38597973      189.939    -13012.95   -9171.4525 
   16700        0.167    375.99725    2.7648834 0.0035489738  0.063080841  -0.38257234  -0.38541366          nan    194.35723   -13017.633   -9438.3774 
   16750       0.1675    371.57801    2.6312173  0.039958914 0.0070719807  -0.38283806  -0.38529562  -0.38571535    192.07288   -13015.646   -8927.4941 
   16800        0.168    374.14634    2.5423812 -0.004835991 -0.015992686  -0.38335912  -0.38568866          nan    193.40048   -13017.298    -8405.175 
   16850       0.1685      381.124     2.481223 -0.040733142  0.049126321  -0.38364861  -0.38593024  -0.38649384    197.00731   -13021.273   -8298.7207 
   16900        0.169    377.06017    2.3996955  0.025391186 -0.063563393   -0.3840096  -0.38621384          nan    194.90667    -13019.55   -7871.7444 
   16950       0.1695     383.5371    2.2911985   0.09374905 -0.029740813  -0.38422713  -0.38620021  -0.38655023    198.25467   -13023.327   -7850.6892 
   17000         0.17    379.69442    2.2146934  0.060914119 0.0058934643  -0.38474008  -0.38674319          nan    196.26834   -13021.827   -7605.0034 
   17050       0.1705    383.21702    2.0259605 -0.057646675 -0.0090487664  -0.38578789  -0.38793678  -0.38797399    198.08922   -13024.158   -6530.8835 
   17100        0.171    382.15449    1.9527077 -0.078602414 -0.0060991189  -0.38625494  -0.38843619          nan    197.53998   -13024.114   -6226.6871 
   17150       0.1715    390.65633    1.8887578 -0.029227298  0.061931236  -0.38601268  -0.38829112  -0.38796818    201.93468   -13029.068   -6404.8723 
   17200        0.172    392.76807    1.8357501 -0.0016333964  0.068984594  -0.38585149  -0.38828577          nan    203.02626   -13030.769    -6343.671 
   17250       0.1725    389.99611    1.7162119 -0.054745577  0.099005688  -0.38636201  -0.38859232  -0.38837867     201.5934   -13030.018   -5868.2401 
   17300        0.173    387.15937    1.5332674 -0.020325244 -0.0051990511  -0.38687785  -0.38907986          nan    200.12706   -13029.259   -5025.8105 
   17350       0.1735    385.15763    1.5110376 -0.036093519  -0.10308301  -0.38720041  -0.38927977   -0.3898697    199.09234   -13028.855   -4572.8701 
   17400        0.174    390.57938    1.5910174 -0.0060414409  0.025585585  -0.38660207  -0.38855283          nan     201.8949   -13032.353   -5368.5386 
   17450       0.1745     384.1063    1.5527367  0.056312722  0.040261646  -0.38629235  -0.38811034  -0.38892166    198.54889   -13029.683   -5497.7035 
   17500        0.175    391.28815    1.4632812  0.087926805 0.0058239707  -0.38693024  -0.38862983          nan    202.26127   -13034.099   -5190.1067 
   17550       0.1755    395.84288    1.4590561   0.07744611 -0.087129541  -0.38813608  -0.38978383  -0.39065813    204.61566   -13037.179   -4831.2421 
   17600        0.176    395.75652    1.4574467 0.0016722445  -0.12201378  -0.38870755  -0.39046533          nan    204.57102   -13037.887   -4457.0171 
   17650       0.1765    392.83818    1.4650782 -0.018908973 -0.037848887  -0.38824406  -0.38999808  -0.39053267     203.0625   -13037.153   -4694.4012 
   17700        0.177    398.90382    1.6160879  0.095692735  0.055333214  -0.38718662  -0.38930321          nan     206.1979   -13041.051   -5890.3797 
   17750       0.1775    402.05164    1.6190144  0.041591843   0.12626917  -0.38767314   -0.3897905  -0.38979304    207.82504   -13043.454   -5956.2515 
   17800        0.178    406.51766    1.3685035  -0.06015576  0.045226521  -0.38945872  -0.39161457          nan    210.13358   -13046.554   -4511.9142 
   17850       0.1785    403.12593    1.2814832  -0.15996605 -0.069381455  -0.39025129  -0.39269546  -0.39237795    208.38036   -13045.607   -3507.1191 
   17900        0.179    403.86429     1.362311 -0.033662106  0.028568733  -0.38941982  -0.39162468          nan    208.76202   -13046.859   -4524.0589 
   17950       0.1795    404.93553    1.4269753  0.056394132   0.13666424  -0.38845735  -0.39065096  -0.39057497    209.31576   -13048.273   -5400.1122 
   18000         0.18    407.81479    1.3546732   0.13564015  0.061893527  -0.38899071  -0.39127546          nan    210.80408   -13050.677   -5174.0228 
   18050       0.1805      411.591    1.2389993 -0.010407261  -0.05374392  -0.39070316  -0.39291922  -0.39320248    212.75605   -13053.548   -3916.1603 
   18100        0.181    409.64188    1.1754713 -0.057073209  -0.20378237   -0.3916977  -0.39385001          nan    211.74852   -13053.432   -3048.7192 
   18150       0.1815    411.17805    1.2158507  0.009822922 -0.056779603  -0.39089508  -0.39283406    -0.393472    212.54259   -13055.232   -3896.3133 
   18200        0.182    405.70759    1.2827927   0.11026115  0.084096093  -0.38969215  -0.39144834          nan    209.71484   -13053.351   -4923.8331 
   18250       0.1825    414.08035    1.3014939  0.063108558   0.13471345  -0.39000253  -0.39172066  -0.39218936    214.04282   -13058.655   -4997.7197 
   18300        0.183    411.14037    1.1682992   -0.1015738 -0.025194645  -0.39165675  -0.39333607          nan    212.52311   -13058.092   -3471.7692 
   18350       0.1835    407.68327    1.1290221  -0.11180324 -0.074161023  -0.39214243  -0.39381993  -0.39451713    210.73609   -13057.243   -3143.5262 
   18400        0.184    413.40339    1.1873292  0.031672072  0.061322204  -0.39112795  -0.39282552          nan    213.69289   -13061.185    -4267.745 
   18450       0.1845    409.51187    1.1821528   0.13072436  0.020107133  -0.39123401   -0.3926024  -0.39324316    211.68132   -13060.176   -4443.2809 
   18500        0.185     411.4069    1.0979031  0.067985641 -0.036154967  -0.39219472  -0.39359018          nan    212.66088    -13062.21   -3765.7792 
   18550       0.1855    418.28181    1.0097126  0.017648244  -0.09057091  -0.39367393  -0.39515812  -0.39535344     216.2146   -13066.824   -3122.6331 
   18600        0.186    415.78492   0.95073773 -0.074940763 -0.031755127  -0.39401323  -0.39563655          nan    214.92393   -13066.586   -2813.4728 
   18650       0.1865     414.6891   0.96743062 -0.014297429 -0.011833429  -0.39351828  -0.39478529   -0.3950858    214.35749   -13067.087   -3137.6659 
   18700        0.187    407.15103    1.0483484  0.025364924   0.10177936  -0.39288492  -0.39432117          nan    210.46097   -13064.222   -3918.3091 
   18750       0.1875    417.02863    1.0167717 -0.039711883  0.048223459  -0.39301925  -0.39454687  -0.39446598    215.56682   -13070.375    -3417.611 
   18800        0.188    414.42847    0.9619183 -0.049335527  0.018947268  -0.39356676  -0.39498498          nan    214.22277   -13070.102   -3105.1001 
   18850       0.1885    418.13968   0.91723668  0.036316617 -0.062688048  -0.39373597   -0.3953365  -0.39576112    216.14113   -13073.089   -2969.5508 
   18900        0.189    413.13697   0.95666965   0.08651165 -0.061218342  -0.39368897  -0.39503718          nan    213.55518   -13071.573   -3273.2099 
   18950       0.1895    414.62588    1.0968674  0.075894004 0.0045338374  -0.39343796  -0.39507981   -0.3955249    214.32481   -13073.424   -3924.3174 
   19000         0.19    404.68701    1.0785285 -0.049953746 -0.010254662  -0.39362799  -0.39553197          nan     209.1873   -13069.318   -3394.4004 
   19050       0.1905     417.9898     1.167389 -0.037750638  0.063169018  -0.39349368  -0.39530998  -0.39547723    216.06366   -13077.205   -3976.0246 
   19100        0.191    408.74635    1.0938976 -0.044617618   0.05119539  -0.39360839  -0.39553038          nan    211.28562   -13073.469   -3668.2512 
   19150       0.1915    412.61364    1.1561929 -0.026460128 0.0098700505  -0.39368206  -0.39567329  -0.39589297    213.28466   -13076.513   -3798.6761 
   19200        0.192    424.29872    1.2267294  0.020991878 -0.00087700265  -0.39355343  -0.39552755          nan    219.32481   -13083.591   -4156.1477 
   19250       0.1925    413.85043    1.2587886  0.057799821 -0.079879113  -0.39365206  -0.39554955  -0.39635572    213.92397   -13079.232   -4122.3643 
   19300        0.193    416.40341    1.3043736   0.12121524 -0.057169341  -0.39370885   -0.3951806          nan    215.24364   -13081.596   -4561.3984 
   19350       0.1935    414.41568    1.3480591  0.039266983 -0.089024876  -0.39372101  -0.39556489  -0.39626169    214.21615   -13081.651   -4327.6707 
   19400        0.194    416.73492     1.305128  0.022209319  0.052278979  -0.39363518  -0.39560527          nan      215.415   -13083.883   -4598.7209 
   19450       0.1945    411.51137    1.2689652 -0.046798522  0.060517901   -0.3938695  -0.39600805  -0.39583887    212.71489   -13082.152   -4275.6152 
   19500        0.195    409.75983    1.1540679 -0.038616738  0.067029986  -0.39431531   -0.3964207          nan    211.80949   -13082.239   -3941.6039 
   19550       0.1955    408.79631    1.1350381 -0.013343913 -0.052341632  -0.39483649  -0.39677135  -0.39669776    211.31144   -13082.765   -3564.5086 
   19600        0.196    410.44065    1.2025847 -0.046174651 -0.028864944  -0.39457824  -0.39657611          nan    212.16142   -13084.609   -3758.4838 
   19650       0.1965    406.29645    1.2361511 0.0033384422  0.048176759  -0.39401958  -0.39616204   -0.3959338    210.01923   -13083.467   -4292.2212 
   19700        0.197    411.18681     1.194101  0.066357446  0.078022778  -0.39385182  -0.39590704          nan    212.54712   -13087.005    -4461.604 
   19750       0.1975    412.89506    1.1645585  0.025107153  -0.01793132  -0.39483909  -0.39679069  -0.39688583    213.43013   -13088.926    -3905.781 
   19800        0.198    404.05349    1.0724971  -0.11986189  -0.12866493   -0.3957177  -0.39772844          nan    208.85982   -13085.358   -2746.5677 
   19850       0.1985    406.43138    1.1333225  0.031244558 -0.083534394   -0.3947559  -0.39690119  -0.39708366    210.08898   -13087.618   -3603.4424 
   19900        0.199    412.73965    1.2414044   0.13286855   0.08738096  -0.39347732  -0.39560831          nan     213.3498   -13091.886   -4872.1798 
   19950       0.1995    410.58819    1.2056831   0.02645145   0.11659084  -0.39416401  -0.39631181  -0.39650739    212.23768   -13091.811   -4495.7512 
   20000          0.2    410.43872    1.1150869 -0.084432827 -0.058750672  -0.39562009  -0.39816444          nan    212.16042    -13092.73   -3239.6782 
Loop time of 1061.16 on 4 procs for 20000 steps with 4000 atoms

Pair  time (%) = 990.444 (93.3359)
Neigh time (%) = 0.464832 (0.0438041)
Comm  time (%) = 42.7707 (4.03055)
Outpt time (%) = 7.94643 (0.748843)
Other time (%) = 19.5353 (1.84094)

Nlocal:    1000 ave 1012 max 982 min
Histogram: 1 0 0 0 0 1 0 0 1 1
Nghost:    3723.25 ave 3736 max 3709 min
Histogram: 1 0 0 1 0 0 0 1 0 1
Neighs:    68902.8 ave 71691 max 65731 min
Histogram: 1 0 0 1 0 0 0 1 0 1
FullNghs:  0 ave 0 max 0 min
Histogram: 4 0 0 0 0 0 0 0 0 0

Total # of neighbors = 275611
Ave neighs/atom = 68.9027
Neighbor list builds = 85
Dangerous builds = 0

######################################
# SIMULATION DONE
print "All done"
All done
