LAMMPS (28 Jun 2014)
# Input file for uniaxial tensile loading of single crystal aluminum
# Mark Tschopp, November 2010

# ------------------------ INITIALIZATION ----------------------------
units 		metal
dimension	3
boundary	p	p	p
atom_style	atomic
variable latparam equal 4.05

# ----------------------- ATOM DEFINITION ----------------------------
lattice		fcc ${latparam}
lattice		fcc 4.05
Lattice spacing in x,y,z = 4.05 4.05 4.05
region		whole block 0 10 0 10 0 10
create_box	1 whole
Created orthogonal box = (0 0 0) to (40.5 40.5 40.5)
  1 by 2 by 2 MPI processor grid
lattice 	fcc ${latparam} orient x 1 0 0 orient y 0 1 0 orient z 0 0 1
lattice 	fcc 4.05 orient x 1 0 0 orient y 0 1 0 orient z 0 0 1
Lattice spacing in x,y,z = 4.05 4.05 4.05
create_atoms	1 region whole
Created 4000 atoms

# ------------------------ FORCE FIELDS ------------------------------
pair_style	eam/alloy
pair_coeff	* * Al99.eam.alloy Al

# ------------------------- SETTINGS ---------------------------------
compute csym all centro/atom fcc
compute peratom all pe/atom

######################################
# EQUILIBRATION
reset_timestep	0
timestep 0.001
velocity all create 300 12345 mom yes rot no
fix 1 all npt temp 300 300 1 iso 0 0 1 drag 1

# Set thermo output
thermo 50
thermo_style custom step lx ly lz press pxx pyy pzz pe temp

# Run for at least 10 picosecond (assuming 1 fs timestep)
run 20000
Memory usage per processor = 3.04301 Mbytes
Step Lx Ly Lz Press Pxx Pyy Pzz PotEng Temp 
       0         40.5         40.5         40.5    2496.1233    2446.9902    2534.6541    2506.7256       -13440          300 
      50      40.5611      40.5611      40.5611    907.43706    837.10986    946.43161    938.76971   -13338.819    103.27149 
     100    40.636867    40.636867    40.636867   -4611.4186   -4606.0751   -4633.2987   -4594.8821   -13373.529    171.80729 
     150    40.566371    40.566371    40.566371    544.64066    509.57779    622.24374    502.10046   -13348.908    124.16109 
     200    40.511722    40.511722    40.511722    3547.2897    3643.2596    3485.9867    3512.6228   -13355.216     137.9072 
     250    40.565785    40.565785    40.565785    166.93066    90.523527    218.10474    192.16371   -13359.502    146.72328 
     300    40.611235    40.611235    40.611235   -2466.5664   -2412.8394   -2483.9007   -2502.9592   -13360.111    149.21075 
     350    40.571353    40.571353    40.571353   -408.34084   -482.42607   -346.38838   -396.20806   -13367.339    163.76556 
     400    40.532306    40.532306    40.532306    2225.5431    2279.8069    2296.6157    2100.2067   -13359.854    150.41108 
     450    40.566044    40.566044    40.566044    2.0377845   -40.092854   -31.888362     78.09457    -13363.08    157.36643 
     500    40.595966    40.595966    40.595966   -1611.3461   -1655.3283   -1479.2164   -1699.4934   -13359.404    151.32857 
     550    40.570848    40.570848    40.570848   -161.85418   -150.03728   -167.20465   -168.32062   -13360.736    154.75593 
     600    40.545092    40.545092    40.545092    1385.8336    1414.2998    1433.0694    1310.1316   -13361.915    158.16074 
     650    40.566235    40.566235    40.566235    212.56633    184.02753    245.48283    208.18862   -13358.104    151.74194 
     700    40.589999    40.589999    40.589999   -1217.4105   -1343.5854   -1126.2179   -1182.4283   -13360.206    156.93263 
     750    40.572933    40.572933    40.572933   -250.38158   -286.45411   -263.19279   -201.49783   -13360.538    158.57849 
     800    40.551356    40.551356    40.551356    1208.6566    1078.2928    1322.2307    1225.4462   -13357.161    153.20685 
     850    40.567647    40.567647    40.567647     35.88215    27.354765    95.437303   -15.145617   -13362.171    163.91834 
     900    40.586566    40.586566    40.586566   -905.95525   -936.83022   -840.20578   -940.82976   -13360.501    161.82509 
     950    40.575685    40.575685    40.575685   -242.27646    -258.0676   -191.53537    -277.2264   -13355.043     152.3172 
    1000    40.557624    40.557624    40.557624    865.78368    854.28577     838.0004    905.06486   -13361.124    165.23426 
    1050    40.567354    40.567354    40.567354    296.20892     232.8234     412.4804    243.32297   -13352.949    150.47937 
    1100    40.584443    40.584443    40.584443   -762.38408   -853.89575   -674.30507   -758.95143   -13360.466    166.16585 
    1150    40.575983    40.575983    40.575983    -142.2806   -201.77341   -30.014093    -195.0543    -13353.75    154.27323 
    1200    40.562401    40.562401    40.562401    595.06575    539.95132    625.63845    619.60749    -13359.83    167.17798 
    1250    40.569413    40.569413    40.569413    166.79261    92.903564    250.18713    157.28713   -13356.017    160.90148 
    1300    40.581899    40.581899    40.581899   -560.61752   -582.11355   -449.93781   -649.80119   -13357.596    165.08945 
    1350    40.575948    40.575948    40.575948    -187.6128   -340.24911   -119.43237   -103.15693   -13356.829    164.72703 
    1400    40.566127    40.566127    40.566127    565.86425    499.12344    641.64272    556.82658   -13354.386    161.14085 
    1450    40.572988    40.572988    40.572988    -8.561472    -54.13345   -9.1404528    37.589487   -13356.765    166.86433 
    1500    40.579794    40.579794    40.579794   -267.41446   -332.77441   -176.15609   -293.31287   -13353.672    162.03422 
    1550    40.576834    40.576834    40.576834   -220.87916   -335.60203   -207.98546   -119.05001    -13357.33    170.23169 
    1600     40.56902     40.56902     40.56902    377.81634    358.40758    458.79305    316.24838   -13352.705    162.42694 
    1650    40.573333    40.573333    40.573333    121.60248    65.830518    161.88969    137.08722     -13355.4    168.76756 
    1700    40.580701    40.580701    40.580701   -351.25931   -404.48696   -356.71365   -292.57732   -13352.169    163.67705 
    1750    40.576849    40.576849    40.576849   -32.167301   -50.678233   -63.920617    18.096946   -13355.552    171.33506 
    1800    40.570697    40.570697    40.570697    303.86959    205.87186    337.67696    368.05996   -13351.254    164.18628 
    1850    40.573832    40.573832    40.573832    241.25661    160.65476    291.81867    271.29639   -13351.989    166.73526 
    1900    40.582525    40.582525    40.582525   -408.49907   -517.11515    -372.3218   -336.06028    -13355.88     175.4205 
    1950    40.579035    40.579035    40.579035   -121.18037    -78.31077   -80.564036    -204.6663   -13350.032    165.23107 
    2000     40.57151     40.57151     40.57151    262.28188    197.36064    289.69509     299.7899   -13356.433    178.77171 
    2050     40.57415     40.57415     40.57415    291.00696    438.91963    282.96388    151.13737   -13349.034    165.59547 
    2100    40.583714    40.583714    40.583714   -349.64824   -571.69905   -278.61218   -198.63349    -13352.82     174.0797 
    2150    40.580896    40.580896    40.580896   -115.46102   -185.78203   -83.935203   -76.665824   -13348.342    166.55152 
    2200    40.573232    40.573232    40.573232    266.96923    327.53375    145.53519    327.83874   -13352.358    175.46306 
    2250    40.574827    40.574827    40.574827    151.21048    253.25725    168.12758    32.246605   -13351.993    175.91954 
    2300    40.582519    40.582519    40.582519   -229.92012   -262.55007   -227.80284   -199.40745   -13351.098    175.32277 
    2350    40.582472    40.582472    40.582472   -261.47493   -230.22332   -223.18601   -331.01546   -13351.015     176.3209 
    2400    40.575117    40.575117    40.575117    304.99838    318.71288    230.82389    365.45835    -13348.88    173.33846 
    2450    40.576041    40.576041    40.576041    115.98281   -49.519186    231.81908    165.64854   -13349.774    176.22576 
    2500    40.581993    40.581993    40.581993    -86.32248   -223.14465   -50.962736    15.139951   -13348.601    175.08643 
    2550    40.583873    40.583873    40.583873   -280.78867    -329.5054   -351.60669   -161.25393   -13350.803    180.51146 
    2600    40.577203    40.577203    40.577203    317.49535    231.68198    393.67729    327.12677    -13345.69    171.77884 
    2650    40.578933    40.578933    40.578933    13.030925    144.96731   -44.713472   -61.161069   -13350.912    183.01571 
    2700    40.583518    40.583518    40.583518   -174.83865   -293.93299   -111.84152   -118.74145   -13346.798    176.21518 
    2750    40.582481    40.582481    40.582481   -39.748764   -65.184794    -87.13603    33.074533   -13348.669    180.97912 
    2800    40.578705    40.578705    40.578705    108.86451   -19.945463    191.66526    154.87373   -13346.376    177.70923 
    2850    40.579322    40.579322    40.579322    124.53218    81.912131    124.60452     167.0799   -13349.584    185.05983 
    2900    40.584645    40.584645    40.584645   -69.825092    -152.5521   -33.708358   -23.214815   -13345.868     179.0187 
    2950    40.585359    40.585359    40.585359   -182.56258   -154.04171   -313.08375   -80.562296   -13345.484    179.44392 
    3000    40.580393    40.580393    40.580393    103.06038     17.74205    199.86076    91.578338   -13349.988    189.30398 
    3050    40.580507    40.580507    40.580507    62.168107    44.094515    20.509683    121.90012   -13345.218    181.21565 
    3100    40.584708    40.584708    40.584708   -107.42179   -223.08689   -59.455111   -39.723375   -13347.434     186.6605 
    3150    40.585857    40.585857    40.585857   -139.90607   -193.02274   -102.84206    -123.8534   -13344.327    181.78994 
    3200    40.582817    40.582817    40.582817    56.136466   -25.815173    83.857537    110.36703   -13346.758    187.66531 
    3250    40.582883    40.582883    40.582883    202.40337    154.08445    136.98617    316.13948   -13343.925    183.32635 
    3300    40.587578    40.587578    40.587578    -209.4339   -371.94849   -87.698913   -168.65429   -13345.062    186.68197 
    3350    40.586577    40.586577    40.586577   -9.0566859   -69.573038   -16.305688    58.708669    -13343.41    184.64018 
    3400    40.584833    40.584833    40.584833    -4.464904   -169.79656    46.672382    109.72947   -13346.346    191.46455 
    3450    40.585451    40.585451    40.585451    9.8032381   -98.559471    71.647379    56.321806   -13344.024    188.12534 
    3500    40.587697    40.587697    40.587697   -73.255431   -198.59139   -60.277768    39.102863   -13344.644    190.47515 
    3550    40.586958    40.586958    40.586958    -56.96485   -70.538578    6.9900731   -107.34605   -13342.497     187.4769 
    3600    40.585183    40.585183    40.585183    109.67337    96.750394    58.529928    173.73977   -13342.391    188.41229 
    3650    40.586887    40.586887    40.586887   -3.9723187   -11.668849   -45.333257    45.085149   -13342.044    188.88701 
    3700    40.588496    40.588496    40.588496   -27.142131   -83.336603   -12.131481    14.041689   -13342.511    190.95338 
    3750    40.588371    40.588371    40.588371   -6.0911329    43.936973   -56.088694   -6.1216783   -13342.317    191.72699 
    3800    40.587518    40.587518    40.587518    21.179747   -96.321442    156.68462    3.1760619    -13342.31    192.86572 
    3850    40.588168    40.588168    40.588168    103.71552    51.378646    75.437151    184.33078   -13339.435    188.43341 
    3900    40.590071    40.590071    40.590071   -61.991803    41.084916   -163.63867   -63.421652   -13340.244    191.15887 
    3950     40.58905     40.58905     40.58905    26.629811   -116.89505    111.68117    85.103306   -13340.459    192.71663 
    4000     40.58814     40.58814     40.58814    64.030856    18.996702    37.882754    135.21311   -13340.476    193.89746 
    4050     40.58928     40.58928     40.58928    51.730888    26.058107    48.279046    80.855511   -13339.217    192.61086 
    4100    40.591447    40.591447    40.591447    -69.41407   -80.629256   -72.506139   -55.106814   -13342.948    200.98044 
    4150    40.591167    40.591167    40.591167     -59.3496   -170.66274   -23.297654    15.911595    -13338.58    193.66416 
    4200    40.589402    40.589402    40.589402    126.45049    102.31182    28.361074    248.67858   -13337.074    191.89142 
    4250    40.590375    40.590375    40.590375   -5.8786185    -95.14102    71.464313    6.0408519   -13339.822    198.35283 
    4300    40.592312    40.592312    40.592312   -99.932489   -134.35608   -92.003546   -73.437843   -13339.728    199.31371 
    4350    40.591432    40.591432    40.591432    30.669897   -17.453823    116.38325   -6.9197307   -13337.239    195.64072 
    4400    40.590868    40.590868    40.590868    6.1809803   -68.690877    32.701826    54.531992   -13340.043     202.2069 
    4450    40.592123    40.592123    40.592123   -2.7294806    31.335042   -35.521345   -4.0021387   -13337.875    199.15199 
    4500    40.593642    40.593642    40.593642   -65.462705    36.313648   -97.154892   -135.54687    -13337.41     199.3838 
    4550    40.592338    40.592338    40.592338   -64.277171   -161.69941   -86.840811    55.708711   -13338.207    202.07086 
    4600    40.590278    40.590278    40.590278     249.1077    320.61637    284.38178    142.32493   -13335.472    197.91016 
    4650    40.594313    40.594313    40.594313   -36.483052   -43.388388     7.304162   -73.364929   -13336.259    200.57068 
    4700    40.596271    40.596271    40.596271   -162.12355   -160.59482   -175.19352   -150.58232   -13336.155    201.50807 
    4750    40.592916    40.592916    40.592916    73.064448    98.496599    218.68878   -97.992039   -13336.665     203.6226 
    4800    40.592243    40.592243    40.592243    93.558524    177.60258   -87.323114    190.39611   -13336.604    204.63746 
    4850    40.595451    40.595451    40.595451    4.2171739   -108.36622    56.758562    64.259175   -13334.982    202.63372 
    4900     40.59738     40.59738     40.59738   -207.49532   -38.513481   -236.77389   -347.19859   -13335.657    205.06988 
    4950    40.592949    40.592949    40.592949    160.16595    79.901741    153.84852    246.74758   -13333.532    202.08895 
    5000    40.593071    40.593071    40.593071    183.41074     268.5787     243.1868    38.466717   -13334.242    204.58527 
    5050    40.598517    40.598517    40.598517   -115.69735   -166.07939     -169.547   -11.465649   -13334.019    205.27643 
    5100     40.59878     40.59878     40.59878   -111.70343    -8.370906   -166.12906   -160.61033   -13332.452    203.37832 
    5150    40.594255    40.594255    40.594255    96.931121    101.97383    87.628943    101.19059   -13334.964    209.35602 
    5200    40.594043    40.594043    40.594043    196.29774    273.67141    221.69784    93.523963   -13335.021    210.58986 
    5250     40.59947     40.59947     40.59947   -89.380203   -116.97376   -109.49403    -41.67282   -13330.257    202.50162 
    5300    40.599859    40.599859    40.599859   -145.25531   -136.63669   -209.45351   -89.675735   -13332.957    208.84095 
    5350    40.595213    40.595213    40.595213    222.90062    257.82359    316.73027    94.147998   -13332.065    208.23568 
    5400    40.596174    40.596174    40.596174    152.99394    182.46696    168.26953    108.24535   -13331.528    208.31029 
    5450    40.601169    40.601169    40.601169   -137.60144   -286.80303   -30.046473   -95.954809   -13330.969    208.33875 
    5500    40.601195    40.601195    40.601195   -223.23281   -155.64611   -294.77355   -219.27877   -13333.433    214.21786 
    5550    40.595615    40.595615    40.595615    182.19163    236.97313    219.29512    90.306631   -13332.625    213.77091 
    5600     40.59647     40.59647     40.59647    157.71549    95.081188    126.56426    251.50101    -13331.02    211.77575 
    5650    40.602086    40.602086    40.602086   -122.48126   -162.13077   -127.35932   -77.953682   -13328.959    208.89658 
    5700    40.602031    40.602031    40.602031   -129.57349   -144.97713    -92.19506   -151.54828   -13330.973    213.90323 
    5750    40.597351    40.597351    40.597351    249.95841     130.2933    256.42866    363.15327   -13329.355    211.87752 
    5800    40.599001    40.599001    40.599001    81.368288    70.461749    220.52608   -46.882963    -13329.51    213.28364 
    5850    40.603186    40.603186    40.603186   -204.96413   -200.81552   -191.63639   -222.44049   -13330.974    217.21937 
    5900    40.602446    40.602446    40.602446   -126.97389   -248.41884   -16.958909   -115.54392    -13329.54    215.52932 
    5950    40.598403    40.598403    40.598403     257.9828    272.70332    348.64877    152.59632   -13327.614    212.91421 
    6000     40.60021     40.60021     40.60021    86.846298    101.33594   -18.435667    177.63862   -13327.324    213.44455 
    6050     40.60381     40.60381     40.60381     -147.965   -193.76594   -73.546053   -176.58301   -13330.172    220.05867 
    6100    40.602318    40.602318    40.602318    -26.95951    24.115571    -126.5007    21.506596   -13327.624    216.21915 
    6150    40.600005    40.600005    40.600005    91.858136   -57.062472     204.7372    127.89968   -13329.971    221.84627 
    6200    40.601871    40.601871    40.601871     18.81411    18.213485    68.835547   -30.606703   -13326.581     216.3745 
    6250    40.604737    40.604737    40.604737   -124.00793   -72.865587   -231.27249   -67.885715    -13327.32    218.88695 
    6300    40.603226    40.603226    40.603226    38.479186    -71.27144     210.4996   -23.790601   -13327.339     220.0188 
    6350    40.602348    40.602348    40.602348    53.655171    168.57174   -65.580559    57.974335   -13327.803    222.00053 
    6400    40.604389    40.604389    40.604389   -55.165601   -243.02272    81.803234   -4.2773159    -13327.19    221.89227 
    6450    40.605242    40.605242    40.605242   -103.23012   -18.394609   -201.09066   -90.205083   -13326.925    222.45568 
    6500    40.603815    40.603815    40.603815    39.068389   -146.98714     -28.4868    292.67911   -13326.809    223.30103 
    6550     40.60387     40.60387     40.60387    22.403565    29.280286    75.786435   -37.856025   -13324.708    220.30764 
    6600     40.60543     40.60543     40.60543    36.934272   -27.131059    31.251669     106.6822   -13325.152    222.24729 
    6650    40.606492    40.606492    40.606492    27.935899   -38.026677    291.58289   -169.74852   -13323.272    219.68455 
    6700    40.605902    40.605902    40.605902   -2.8302171   -32.479587   -15.290284    39.279221   -13325.483    225.03079 
    6750    40.605041    40.605041    40.605041    116.28823    11.166754    118.66357    219.03438     -13324.7    224.58162 
    6800    40.606317    40.606317    40.606317   -94.135085   -116.06994   -53.083775   -113.25154   -13324.612    225.46738 
    6850    40.606909    40.606909    40.606909   -131.72414   -177.87527   -112.67255   -104.62461   -13327.361    231.83937 
    6900    40.606457    40.606457    40.606457    38.770044   -42.543621    139.77117    19.082584    -13323.81    226.02987 
    6950    40.607088    40.607088    40.607088    -35.87355   -57.864929   -99.363756    49.608035   -13325.976    231.28561 
    7000    40.607798    40.607798    40.607798   -21.517973   -27.074967    68.888779   -106.36773   -13321.758    224.17335 
    7050    40.608361    40.608361    40.608361   -85.333283   -62.294957   -78.471956   -115.23294   -13324.227    229.99186 
    7100    40.607551    40.607551    40.607551  -0.32340728   -15.680349    51.728357    -37.01823   -13323.223    229.10019 
    7150     40.60782     40.60782     40.60782    20.921777    45.317835   -55.509065    72.956561   -13323.207    230.11782 
    7200    40.609482    40.609482    40.609482   -77.821672   -101.91746    4.9611119   -136.50867   -13323.495    231.72021 
    7250    40.609913    40.609913    40.609913    50.433017   0.56460385    75.008988     75.72546   -13321.183    228.29296 
    7300     40.60956     40.60956     40.60956    -69.90714   -13.571925   -179.09254   -17.056953   -13321.826    230.56804 
    7350    40.608273    40.608273    40.608273    147.86894    124.22491    181.66507    137.71684   -13319.822    227.72576 
    7400     40.61072     40.61072     40.61072   -38.902497   -22.541514   -63.916036   -30.249939   -13321.343    231.69891 
    7450      40.6122      40.6122      40.6122   -125.41163   -226.57028    -33.61997   -116.04465   -13322.895    235.72868 
    7500    40.610108    40.610108    40.610108   0.23229987   -85.457416    5.8911509    80.263165   -13321.055    233.20319 
    7550    40.608593    40.608593    40.608593    216.78304    152.03962    265.65517    232.65434   -13319.725    231.64868 
    7600    40.612333    40.612333    40.612333   -46.447022   -71.347699    11.081953    -79.07532    -13319.66    232.54909 
    7650    40.614101    40.614101    40.614101    8.5688691   -63.097679    126.74828   -37.943999   -13317.293     228.9811 
    7700    40.612387    40.612387    40.612387   -98.768505   -57.973541   -144.42907   -93.902904   -13319.588    234.44054 
    7750    40.607968    40.607968    40.607968    199.50031    202.77634    254.41477    141.30983   -13320.441    237.10839 
    7800    40.611213    40.611213    40.611213    10.113906    81.539417    -64.43268     13.23498   -13320.135    237.51591 
    7850    40.615802    40.615802    40.615802    -190.8177   -123.93483   -155.49397   -293.02431   -13316.958    232.37563 
    7900    40.614071    40.614071    40.614071   -62.814506    -179.3342   -47.023971    37.914647   -13319.654    238.59408 
    7950    40.610522    40.610522    40.610522     61.91862    100.38714    136.28653   -50.917809   -13320.447    241.13365 
    8000    40.612416    40.612416    40.612416    54.480615    36.677358    96.889371    29.875117   -13318.108    237.59574 
    8050    40.616739    40.616739    40.616739   -201.42892   -220.49972   -266.56184   -117.22521   -13317.484     237.3978 
    8100    40.613917    40.613917    40.613917   -29.516087   -62.473189    8.6103831   -34.685456   -13318.824    240.98117 
    8150    40.611079    40.611079    40.611079    233.41268     250.2191    199.26147    250.75748   -13316.499    237.46563 
    8200    40.615557    40.615557    40.615557   -73.482497   -143.76325    121.83238   -198.51662   -13318.206    241.75524 
    8250    40.618041    40.618041    40.618041   -99.554299    28.475224   -164.46411   -162.67401    -13314.28    235.13872 
    8300    40.614975    40.614975    40.614975    28.031927   -144.03934    205.83186    22.303256   -13316.211    239.85171 
    8350    40.611951    40.611951    40.611951    171.74974    263.70158    140.68604    110.86162   -13316.616    241.61323 
    8400    40.614453    40.614453    40.614453    143.17086  -0.11537715    138.95256     290.6754   -13313.361    236.28983 
    8450    40.618979    40.618979    40.618979   -283.99859   -222.64095   -181.34927   -448.00554   -13317.732     245.7156 
    8500    40.615661    40.615661    40.615661   -29.771671   -69.689884    -99.93417    80.309039    -13315.56    242.47643 
    8550     40.61192     40.61192     40.61192    275.83701    274.34212    321.67168    231.49724   -13315.123     242.6027 
    8600    40.616597    40.616597    40.616597   -150.21221    -307.5939    22.330695   -165.37342   -13317.089    247.35868 
    8650     40.61938     40.61938     40.61938   -70.949903   -188.44591   -23.889919  -0.51388247   -13313.832    242.01927 
    8700    40.618511    40.618511    40.618511   -118.97868   -41.616921   -90.616415   -224.70272   -13314.804    244.84642 
    8750    40.615356    40.615356    40.615356    184.70792    24.093517    267.47839    262.55184   -13312.664    241.65958 
    8800     40.61578     40.61578     40.61578    49.124551    51.019324    85.170428    11.183902   -13313.827    244.86054 
    8850    40.617841    40.617841    40.617841   -30.004023   -14.969104    14.218623   -89.261589    -13314.23    246.57563 
    8900    40.618905    40.618905    40.618905   -196.67237   -69.287145   -267.14581   -253.58416   -13315.482    249.94202 
    8950    40.616633    40.616633    40.616633    113.56155     17.70615    205.62112    117.35737   -13312.174    244.47327 
    9000    40.617981    40.617981    40.617981   -5.3782871   -96.290796    102.10605   -21.950111   -13315.903    252.62496 
    9050    40.620148    40.620148    40.620148   -48.644761    26.770246   -95.187336   -77.517195   -13311.498    245.02404 
    9100    40.620057    40.620057    40.620057   -49.592958   -174.28861   -33.121107    58.630846   -13312.283    247.47347 
    9150     40.61758     40.61758     40.61758    150.26405    225.47259    101.73932    123.58025   -13310.095    244.16108 
    9200     40.61774     40.61774     40.61774    72.268147    41.329583    38.217779    137.25708   -13311.689    248.16871 
    9250    40.619622    40.619622    40.619622   -84.083887   -149.79255    -69.87264   -32.586469   -13311.349    248.42467 
    9300    40.619538    40.619538    40.619538    119.50181    125.80622     23.83651    208.86271   -13311.853    250.31265 
    9350    40.620623    40.620623    40.620623   -23.026387   -212.93313    47.062092    96.791877   -13310.946    249.45277 
    9400    40.621651    40.621651    40.621651   -110.30374    55.349363   -308.53971   -77.720873    -13310.94    250.34293 
    9450    40.620796    40.620796    40.620796    119.80518    22.147835    168.09362    169.17409   -13308.678    246.86507 
    9500    40.621436    40.621436    40.621436   -77.654363   -94.095478   -169.62014    30.752526   -13312.361    254.89143 
    9550    40.620956    40.620956    40.620956    80.176844   -81.439503    171.10941    150.86063   -13310.642     252.4677 
    9600    40.623082    40.623082    40.623082   -100.37971   -50.707541   -83.798674   -166.63292   -13311.014    254.06807 
    9650     40.62368     40.62368     40.62368   -96.708169   -111.18675   -146.71085   -32.226906   -13309.976    252.94982 
    9700    40.621786    40.621786    40.621786    25.766695   -101.68196    193.85198   -14.869939   -13311.217    256.23031 
    9750    40.621617    40.621617    40.621617    63.783347    45.223363    18.202269    127.92441   -13309.015    252.84887 
    9800    40.623567    40.623567    40.623567    30.108544   -256.64207    218.38384    128.58387   -13308.817     253.3361 
    9850    40.625018    40.625018    40.625018   -209.09391   -204.87145   -333.00963   -89.400642    -13310.94    258.31262 
    9900    40.622237    40.622237    40.622237    148.31384    127.49748    211.31408    106.12996   -13307.278    252.08567 
    9950    40.623383    40.623383    40.623383     1.582774    69.834119   -163.62004    98.534248   -13310.401     258.9926 
   10000     40.62607     40.62607     40.62607   -49.067764   -32.888182    31.781308   -146.09642   -13306.221    251.76572 
   10050    40.625601    40.625601    40.625601   -111.26613   -260.75667   -93.751589    20.709871   -13309.037    258.07207 
   10100     40.62165     40.62165     40.62165    194.77386    28.814092    505.48434    50.023147   -13308.396    257.68142 
   10150    40.623957    40.623957    40.623957    148.65111    67.804204    36.673761    341.47535   -13305.783    253.47093 
   10200    40.629076    40.629076    40.629076   -266.31898   -507.92354   -161.58297   -129.45043     -13308.7    259.95316 
   10250    40.626239    40.626239    40.626239    139.51768    308.09578    15.774635    94.682613    -13303.86    251.42496 
   10300    40.624167    40.624167    40.624167     -32.4434   -82.799664   -62.479318    47.948784   -13309.107    262.41275 
   10350    40.623612    40.623612    40.623612     175.4361    204.33298      258.726     63.24931   -13305.282     255.8423 
   10400    40.627102    40.627102    40.627102   -209.12009   -222.42107   -245.20351   -159.73569   -13309.194    264.24465 
   10450    40.626953    40.626953    40.626953   -37.296466   -132.87675     82.48944   -61.502083   -13306.088    259.05202 
   10500    40.625844    40.625844    40.625844     3.606221    -58.26973   -86.758565    155.84696   -13306.912    261.45961 
   10550    40.625595    40.625595    40.625595    111.78184    112.94411    309.47861   -87.077194    -13304.68    257.95671 
   10600    40.628278    40.628278    40.628278   -8.4171661     70.80722   -24.293744   -71.764974    -13304.87    259.13252 
   10650    40.629525    40.629525    40.629525    -76.00165    29.818683    -84.45566   -173.36797   -13304.625    259.46901 
   10700    40.627011    40.627011    40.627011    47.009139   -16.427123    162.61651   -5.1619706   -13306.004    262.94252 
   10750    40.625683    40.625683    40.625683    101.81504    128.92511    169.09554    7.4244807   -13304.619    261.05812 
   10800    40.628883    40.628883    40.628883   -57.759356   -232.59692   -42.288746     101.6076   -13305.472    263.48864 
   10850    40.630171    40.630171    40.630171   -214.60569     -342.753   -101.34117    -199.7229   -13305.818    264.95585 
   10900    40.625775    40.625775    40.625775    151.63751    78.462207    158.15176    218.29857   -13303.888    262.00642 
   10950    40.625825    40.625825    40.625825    156.99311    351.87784    28.857647    90.243849   -13304.334    263.65212 
   11000    40.629465    40.629465    40.629465   -4.6147152   -257.73613    122.77483    121.11715   -13303.002    261.85318 
   11050    40.631044    40.631044    40.631044   -216.10871   -397.60634   -158.54736   -92.172443   -13305.477     267.4096 
   11100    40.628304    40.628304    40.628304   -8.2088922    -27.43093   -7.8096948    10.613949   -13304.539    266.35772 
   11150    40.626833    40.626833    40.626833    47.524497   -24.750529    171.35739   -4.0333658   -13304.416    266.89007 
   11200    40.628827    40.628827    40.628827    66.135866   -26.759252    -54.27607    279.44292   -13302.796     264.5124 
   11250    40.631237    40.631237    40.631237   -205.72997   -313.74178   -196.51809   -106.93004   -13303.694    267.01032 
   11300    40.627988    40.627988    40.627988    145.36804    303.85977    46.112924    86.131426   -13301.625    263.75624 
   11350    40.627598    40.627598    40.627598    123.42655    49.406004     151.7312    169.14245     -13302.5    266.19717 
   11400    40.631013    40.631013    40.631013   -77.358293   -166.48749    -50.58186   -15.005531   -13302.024    266.01716 
   11450    40.632363    40.632363    40.632363   -19.472944    -90.11872   -33.678407    65.378293    -13300.91    264.60553 
   11500    40.630696    40.630696    40.630696   -3.0508462   -160.00149    48.513397    102.33555   -13301.475    266.43476 
   11550    40.628804    40.628804    40.628804    126.34517    150.27522    126.02328    102.73703   -13302.117    268.41079 
   11600    40.630261    40.630261    40.630261    73.233627   -189.57979    117.34552    291.93515   -13300.928    266.82904 
   11650    40.634013    40.634013    40.634013   -181.24677   -102.18677   -93.849952   -347.70358   -13302.663    270.90194 
   11700    40.633111    40.633111    40.633111   -58.957529   -187.11382   -111.76711    122.00834   -13300.459     267.3539 
   11750    40.630416    40.630416    40.630416    24.711564   -45.483729    126.59345   -6.9750275   -13302.282    271.58763 
   11800     40.63046     40.63046     40.63046    26.762155   -93.700409     19.32279    154.66408   -13302.153    272.05155 
   11850    40.633042    40.633042    40.633042   -87.038853   -104.27361    -134.4311   -22.411855   -13300.574    269.69782 
   11900    40.633192    40.633192    40.633192   -79.570443    23.165684   -28.753296   -233.12372   -13299.843    268.98867 
   11950    40.631173    40.631173    40.631173    118.26227     10.00073    122.41582    222.37025   -13301.134    272.18158 
   12000    40.632786    40.632786    40.632786   -78.056303    59.459661   -129.93546   -163.69311   -13301.306    273.20595 
   12050    40.633253    40.633253    40.633253   -112.85073   -227.21485   -134.45662    23.119281   -13301.911    275.06268 
   12100    40.631762    40.631762    40.631762    74.823908    125.98572   -51.757588     150.2436   -13300.219    272.47072 
   12150    40.632564    40.632564    40.632564    51.699905    67.557455    36.367176    51.175083   -13299.354    271.46837 
   12200    40.635215    40.635215    40.635215   -52.400902   -178.48675   -65.642467    86.926515   -13298.614    270.70756 
   12250    40.635432    40.635432    40.635432   -130.77979   -126.65134   -32.035334   -233.65269   -13301.017    276.02303 
   12300    40.632938    40.632938    40.632938    135.49607    51.613656    68.905016    285.96953   -13298.193     271.2239 
   12350      40.6338      40.6338      40.6338    110.79204   -4.0624609    156.24311    180.19546   -13298.862    273.17917 
   12400    40.636491    40.636491    40.636491   -84.226133   -156.34843   -53.223318   -43.106656   -13298.516    273.16508 
   12450     40.63608     40.63608     40.63608   -105.43112   -113.94969    31.671273   -234.01495   -13299.057    274.85802 
   12500     40.63349     40.63349     40.63349    73.301941   -126.24504     99.61075    246.54011   -13299.132    275.65091 
   12550    40.634765    40.634765    40.634765    108.36807    158.23465    4.7940989    162.07545   -13297.624     273.3763 
   12600    40.638009    40.638009    40.638009   -209.13169   -344.18259   -95.649934   -187.56254   -13298.598     275.8979 
   12650    40.635318    40.635318    40.635318    42.289504    47.830192   -45.030418    124.06874   -13299.196    277.68473 
   12700    40.634776    40.634776    40.634776    50.474438   -38.278257    52.429299    137.27227    -13298.83    277.60061 
   12750    40.637413    40.637413    40.637413   -54.674044    116.52329   -89.556189   -190.98924   -13297.222    275.11887 
   12800    40.637637    40.637637    40.637637    17.392318    -212.4068    113.15086     151.4329   -13296.433    274.21775 
   12850    40.636444    40.636444    40.636444   -3.2089293    27.118558   -64.830864    28.085518   -13296.615    275.18459 
   12900    40.635496    40.635496    40.635496    112.85919   -16.130395    171.77843    182.92953   -13296.632    275.83382 
   12950     40.63761     40.63761     40.63761    70.575063    60.800672    54.946595    95.977923   -13296.897    276.95357 
   13000    40.639634    40.639634    40.639634   -170.17992   -259.99103   -351.17303    100.62431   -13298.108    279.90085 
   13050    40.637291    40.637291    40.637291   -3.4885987   -69.042692    144.65744   -86.080541    -13297.37    279.07051 
   13100    40.635236    40.635236    40.635236    285.64911    315.25233    260.62272    281.07229   -13293.252    271.69647 
   13150    40.639057    40.639057    40.639057   -181.74363   -167.99126   -151.01727   -226.22236   -13298.159     281.7789 
   13200     40.63981     40.63981     40.63981    56.183701   -181.40784    247.79395      102.165   -13294.232    274.76961 
   13250    40.638489    40.638489    40.638489   -86.426982   -235.51017   -189.17544    165.40466   -13297.241    281.17201 
   13300    40.635856    40.635856    40.635856    92.943918    58.114107    243.30267    -22.58502   -13296.341    280.00382 
   13350    40.637821    40.637821    40.637821   -11.807637   -71.060899   -55.137929    90.775916   -13297.248    282.32932 
   13400    40.640089    40.640089    40.640089   -244.51189   -222.86359   -325.95106     -184.721   -13296.377    281.21349 
   13450    40.637708    40.637708    40.637708    224.67057    299.08332    228.42859     146.4998   -13293.736    276.66879 
   13500    40.638508    40.638508    40.638508   -35.183139   -224.25489   -23.668273    142.37375    -13294.82     279.3269 
   13550    40.638004    40.638004    40.638004   -29.545736   -110.31045    48.517033   -26.843796   -13296.986    284.07303 
   13600    40.637313    40.637313    40.637313    2.9985382    -20.30025   -156.28401    185.57988   -13296.215    283.12797 
   13650    40.638396    40.638396    40.638396   -14.068008   -114.53994    18.101605    54.234306   -13294.578    280.50422 
   13700     40.63977     40.63977     40.63977   -24.028045   -31.566892   -88.182613     47.66537   -13294.035    279.99381 
   13750     40.63924     40.63924     40.63924    52.050265    -17.10691   -89.977532    263.23524   -13293.941    280.34795 
   13800    40.638391    40.638391    40.638391    110.32958    153.57904  -0.92167679    178.33139   -13292.726    278.53424 
   13850    40.638572    40.638572    40.638572     76.64713   -45.554201    116.22915    159.26645   -13294.325    282.15374 
   13900    40.640473    40.640473    40.640473     9.791836   -57.548615    19.475116    67.449007   -13293.875     281.8037 
   13950    40.642547    40.642547    40.642547   -155.24301   -131.91731   -131.80256   -202.00915   -13295.158    284.80494 
   14000     40.64039     40.64039     40.64039   -35.655012   -332.61646     52.87647    172.77495   -13293.769    282.62806 
   14050    40.638549    40.638549    40.638549    49.507167    87.248983    4.9390984    56.333419   -13295.744    286.96311 
   14100    40.639947    40.639947    40.639947      2.72087    13.003139   -31.598315    26.757785   -13294.216    284.51509 
   14150    40.641101    40.641101    40.641101    30.233658   -3.9348283    187.21131   -92.575504   -13291.686    280.12516 
   14200    40.641083    40.641083    40.641083   -50.158484   -149.02153   -41.156181    39.702255   -13294.162    285.40899 
   14250    40.641189    40.641189    40.641189    22.345014    12.646576   -142.41608    196.80455   -13294.206    285.98202 
   14300    40.641404    40.641404    40.641404    104.07924    43.143855    68.220708    200.87317   -13290.024    278.38251 
   14350    40.641892    40.641892    40.641892    -1.845087   -72.708735   -198.09654    265.27002   -13293.086    284.79306 
   14400    40.641417    40.641417    40.641417   -36.180675   -153.97295   -44.451724    89.882649   -13295.188     289.3449 
   14450    40.640686    40.640686    40.640686    108.74009    143.41713    101.92335    80.879783   -13291.498    282.67855 
   14500    40.643262    40.643262    40.643262   -14.583012    32.320591   -48.607513   -27.462113   -13292.327    284.74998 
   14550    40.642986    40.642986    40.642986   -37.790055   -226.65181     65.67136     47.61028   -13292.161    284.89494 
   14600    40.640718    40.640718    40.640718    64.243243    64.196799   -6.1570565    134.68999   -13292.745    286.48662 
   14650    40.641474    40.641474    40.641474    18.583595    65.058129   -126.14258    116.83524   -13292.072    285.64295 
   14700    40.643283    40.643283    40.643283   -80.770125     20.17634   -145.49623   -116.99048   -13293.395    288.65391 
   14750      40.6432      40.6432      40.6432    18.825638    12.131751   -5.8742923    50.219456    -13291.05    284.57408 
   14800    40.641828    40.641828    40.641828    59.688144     13.38137   -6.9829497    172.66601   -13291.847    286.56654 
   14850    40.641895    40.641895    40.641895    66.260735    -31.36407    59.560317    170.58596   -13291.946     287.1986 
   14900    40.644253    40.644253    40.644253    -137.8918   -28.810621   -283.00416   -101.86061   -13293.074    289.82247 
   14950    40.643903    40.643903    40.643903   -25.902299   -149.35746   -19.989706     91.64027   -13291.409    287.03537 
   15000    40.641649    40.641649    40.641649     121.2001    369.62337   -105.35529    99.332208    -13291.13    286.92694 
   15050    40.640804    40.640804    40.640804    124.25808    130.95532    266.91166   -25.092751   -13290.189    285.52842 
   15100    40.643721    40.643721    40.643721    68.421529    56.283599    34.445267    114.53572    -13289.81    285.21211 
   15150    40.646227    40.646227    40.646227   -260.38134   -424.20211   -211.45708   -145.48484   -13291.683    289.25668 
   15200    40.641762    40.641762    40.641762    130.30459    204.55067    116.31639    70.046715   -13290.562    287.49797 
   15250    40.641099    40.641099    40.641099    98.566659     46.09651    79.674937    169.92853   -13292.078    290.84329 
   15300    40.644544    40.644544    40.644544   -118.84699    75.931577   -140.47862   -291.99393   -13292.477    292.02294 
   15350    40.645904    40.645904    40.645904   -177.19528   -169.86276   -274.56886   -87.154236   -13291.589    290.70199 
   15400    40.643297    40.643297    40.643297    83.933268    152.76898      41.9908    57.040018   -13289.785    287.61095 
   15450    40.643212    40.643212    40.643212   -47.128333    -3.393349   -127.31612   -10.675524   -13293.994    296.15045 
   15500    40.644556    40.644556    40.644556   -10.913815    130.34848   -50.513648   -112.57628   -13289.964    288.73837 
   15550    40.645592    40.645592    40.645592   -114.97909   -134.85099   -47.571431   -162.51484   -13290.329    289.82883 
   15600    40.643746    40.643746    40.643746    55.880874    222.32778   -81.345277    26.660114   -13290.832    291.18802 
   15650    40.643304    40.643304    40.643304    147.72957    187.86622    99.284361    156.03812   -13288.079    286.24089 
   15700    40.645435    40.645435    40.645435   -95.613541    108.29415   -140.73087    -254.4039   -13291.127    292.51058 
   15750    40.645221    40.645221    40.645221   -119.59063   -210.43333     -83.1876   -65.150955    -13290.72    292.09127 
   15800     40.64282     40.64282     40.64282    128.44945    151.43527   -10.250141    244.16322   -13290.004    291.06987 
   15850    40.643562    40.643562    40.643562    255.12946    184.87633    204.18276    376.32928    -13286.28     284.2209 
   15900    40.648933    40.648933    40.648933   -203.49251    -85.01199   -224.27456   -301.19097   -13289.703    291.20079 
   15950    40.647235    40.647235    40.647235   -177.93799   -277.47371   -130.23204   -126.10822   -13291.204    294.46058 
   16000    40.641642    40.641642    40.641642    253.28201    245.03511    116.57843    398.23248   -13290.572    293.59034 
   16050     40.64468     40.64468     40.64468    44.585677   -2.5265583    193.21688   -56.933291   -13289.491    291.84188 
   16100    40.648092    40.648092    40.648092   -96.521565   -56.646929   -213.35102   -19.566745   -13287.606    288.53645 
   16150    40.646183    40.646183    40.646183   -124.85479    -223.7641    -140.8099   -9.9903647   -13291.657    296.70436 
   16200    40.643683    40.643683    40.643683    260.25256    311.88632    121.74351    347.12785   -13286.817    287.67145 
   16250    40.647248    40.647248    40.647248   -64.881933    27.348632   -187.98853   -34.005901   -13289.246    292.70305 
   16300    40.647707    40.647707    40.647707   -300.11993   -413.03993   -163.64314    -323.6767   -13292.628    299.56755 
   16350    40.643982    40.643982    40.643982     184.8353    291.46572    92.583257    170.45693   -13288.662    292.21654 
   16400    40.646359    40.646359    40.646359   -120.05301   -36.129501   -117.08587   -206.94367   -13290.463    296.02097 
   16450    40.646194    40.646194    40.646194     131.3871    117.35014    123.33839    153.47277   -13286.527    288.71751 
   16500    40.645997    40.645997    40.645997    19.115891    199.68744   -44.688078   -97.651693   -13287.923    291.72469 
   16550    40.645018    40.645018    40.645018      139.161    245.82592    67.598466     104.0586   -13286.999    290.23117 
   16600    40.646961    40.646961    40.646961   -47.628543   -26.188985   -115.06211   -1.6345282   -13288.658    293.73898 
   16650    40.647639    40.647639    40.647639   -163.65753   -132.37627   -199.92358   -158.67272   -13289.088    294.86789 
   16700    40.644928    40.644928    40.644928    90.328838    3.7104478    156.31857     110.9575   -13289.441    295.84883 
   16750    40.645008    40.645008    40.645008    66.487621    308.01568   -9.2102034   -99.342608   -13287.397    292.18604 
   16800    40.646982    40.646982    40.646982   -28.647079    -1.732685   -113.97574    29.767187   -13288.147    293.92404 
   16850    40.647575    40.647575    40.647575   -113.98103   -112.42947   -158.39772   -71.115905   -13289.385     296.6021 
   16900     40.64558     40.64558     40.64558    185.06392    171.88758    257.47412    125.83005   -13286.361    291.02729 
   16950    40.646624    40.646624    40.646624   -8.3386466    105.91063   -153.59331    22.666735   -13288.359    295.16891 
   17000    40.647892    40.647892    40.647892     -84.9798   -202.79434   -84.437064    32.292003   -13288.971    296.61817 
   17050    40.647433    40.647433    40.647433   -41.121248    62.970544    -258.0537    71.719408   -13287.587    294.20613 
   17100    40.646208    40.646208    40.646208    51.590538   -157.36983    181.58593    130.55551   -13288.503    296.24409 
   17150     40.64691     40.64691     40.64691   -65.900093    88.764333   -136.20971    -150.2549   -13288.567    296.63092 
   17200    40.647071    40.647071    40.647071   -5.7301942    85.350031   -56.817588   -45.723026   -13287.799    295.40475 
   17250    40.647511    40.647511    40.647511    -25.19417   -189.67004    87.685232    26.402299   -13287.151     294.4074 
   17300    40.646197    40.646197    40.646197    51.128973   -28.626207   -66.967949    248.98108   -13286.795    293.97096 
   17350    40.645704    40.645704    40.645704     25.76403    133.32117   -41.976564    -14.05252   -13287.693    295.95127 
   17400    40.646821    40.646821    40.646821    88.993293   -51.853742    109.37425    209.45937   -13287.471    295.76596 
   17450    40.649304    40.649304    40.649304    -91.48287    7.8513218   -111.95574   -170.34419   -13287.294    295.65469 
   17500     40.64965     40.64965     40.64965   -125.92975   -340.24098    26.244848   -63.793135   -13288.019    297.29323 
   17550    40.646417    40.646417    40.646417    4.3014998   -46.704835   -108.84987     168.4592   -13288.223    297.92335 
   17600    40.644359    40.644359    40.644359    139.68143    106.22348    162.31823    150.50258   -13287.957    297.64168 
   17650    40.647422    40.647422    40.647422    14.878034    216.79361   -132.52787   -39.631644   -13285.756    293.60247 
   17700    40.650624    40.650624    40.650624   -138.79927   -55.326369   -197.14582   -163.92561   -13288.721    299.56013 
   17750    40.649172    40.649172    40.649172   -36.150917    61.241998    19.197546    -188.8923    -13286.87    296.19526 
   17800    40.646619    40.646619    40.646619    134.11957     266.8086    61.829198    73.720902   -13285.681    294.11104 
   17850    40.648224    40.648224    40.648224   -10.097739   -112.46807   -4.1572798    86.332135   -13287.112    297.09284 
   17900    40.649757    40.649757    40.649757   -213.19533    -135.9982   -465.20502   -38.382757   -13288.333    299.66476 
   17950    40.646153    40.646153    40.646153     133.7404    157.47713    242.56937    1.1747135   -13286.412    296.14748 
   18000    40.646559    40.646559    40.646559    169.63043    205.26381    36.418296    267.20919   -13287.075    297.62351 
   18050    40.652159    40.652159    40.652159   -295.84138   -172.97238   -283.00239   -431.54937    -13288.39     300.3592 
   18100    40.650501    40.650501    40.650501    -73.75406   -73.999733    -130.0967   -17.165743   -13285.795    295.52623 
   18150    40.646245    40.646245    40.646245    96.166344    155.87866   -60.233594    192.85397   -13287.652    299.30984 
   18200    40.646927    40.646927    40.646927    175.47057    206.98394     341.3466   -21.918825   -13285.156    294.66771 
   18250    40.652093    40.652093    40.652093   -179.84718   -56.152416   -468.95038   -14.438737   -13286.688    297.81787 
   18300     40.65108     40.65108     40.65108   -146.48119   -204.13115   -120.05816   -115.25425   -13286.354    297.34563 
   18350    40.647339    40.647339    40.647339    152.34576    345.38026    116.05076   -4.3937254   -13287.164    299.08915 
   18400    40.648314    40.648314    40.648314    39.840227    111.98087    -97.70683    105.24664   -13284.387    293.89244 
   18450    40.649518    40.649518    40.649518   -43.171992   -2.8361551     129.5971   -256.27692   -13286.612    298.36329 
   18500    40.648505    40.648505    40.648505    101.24795    218.24174    15.561833     69.94029    -13284.19    293.83806 
   18550    40.648958    40.648958    40.648958   -52.247421   -4.6820598   -196.79381    44.733607   -13288.345    302.03487 
   18600    40.649113    40.649113    40.649113   -56.733612   -3.5033343   -90.042583    -76.65492   -13286.397    298.41916 
   18650    40.648364    40.648364    40.648364    68.655145    224.00438   -188.23487    170.19593   -13286.073    297.94127 
   18700    40.650336    40.650336    40.650336   -80.376999   -141.46978   -13.513316     -86.1479   -13285.705    297.38366 
   18750    40.650298    40.650298    40.650298   -128.58808   -83.145517    -205.1903   -97.428425   -13287.988     301.9554 
   18800    40.646816    40.646816    40.646816    138.77851    312.50042    83.938646     19.89647   -13284.734    295.80138 
   18850    40.648234    40.648234    40.648234    30.728254   -38.662071   -7.3471006    138.19393   -13286.842    300.01921 
   18900    40.650992    40.650992    40.650992    -42.95928    148.55719   -127.39375   -150.04128   -13285.424    297.41421 
   18950    40.650288    40.650288    40.650288   -100.85335    -181.3983    62.860203   -184.02196   -13286.265    299.17496 
   19000    40.647024    40.647024    40.647024    214.95262    284.83887    51.056801    308.96218   -13285.026    296.90714 
   19050    40.649705    40.649705    40.649705   -81.133724   -129.00732    75.547217   -189.94107   -13286.857    300.57186 
   19100    40.651126    40.651126    40.651126   -101.32617   -31.477654   -154.66723   -117.83362    -13287.34    301.62988 
   19150    40.650514    40.650514    40.650514   -61.937819   -59.029845   -54.942506   -71.841107    -13286.17    299.48627 
   19200    40.648958    40.648958    40.648958   -40.202422     28.23678   -47.031317   -101.81273   -13287.908    302.96654 
   19250    40.648297    40.648297    40.648297    193.92933    110.86583    160.24061    310.68154   -13283.866     295.2575 
   19300    40.653967    40.653967    40.653967   -319.65063   -433.94692   -265.61363   -259.39133   -13288.426    304.19497 
   19350    40.650697    40.650697    40.650697   -50.380578    75.039162    -108.3705   -117.81039   -13284.214    296.15027 
   19400    40.645481    40.645481    40.645481    233.31821   -13.523612    276.96417    436.51408   -13286.245    300.18916 
   19450    40.648108    40.648108    40.648108    86.601651    177.74298     85.95445   -3.8924808   -13284.204    296.34544 
   19500    40.652051    40.652051    40.652051   -87.655979    -108.3931   -28.882256   -125.69258   -13283.979    296.00928 
   19550    40.652947    40.652947    40.652947   -162.69022   -207.64374   -247.02321   -33.403704   -13286.868    301.69673 
   19600    40.648603    40.648603    40.648603    123.89806     187.6444    253.36595   -69.316182   -13284.234    296.69118 
   19650    40.646314    40.646314    40.646314    152.06679    299.51493    114.99572    41.689733    -13285.08    298.41695 
   19700    40.648757    40.648757    40.648757   -6.5061867   -21.901854    105.41324   -103.02995   -13285.998    300.27426 
   19750    40.650718    40.650718    40.650718   -105.49055   -89.223316   -108.47253   -118.77579   -13285.718     299.8116 
   19800    40.650581    40.650581    40.650581  -0.49329861    115.55627    120.12138   -237.15754   -13285.414    299.30153 
   19850    40.649939    40.649939    40.649939   -90.391231   -73.085082   -203.69606    5.6074539   -13286.062    300.63334 
   19900    40.648117    40.648117    40.648117    37.872772    145.97849    105.26909   -137.62926   -13286.943    302.41409 
   19950    40.648134    40.648134    40.648134   -71.534231   -120.29811   -29.231516   -65.073071    -13286.23    301.10262 
   20000    40.648392    40.648392    40.648392    206.27109     236.8314    298.12899    83.852874   -13283.071    295.05319 
Loop time of 210.082 on 4 procs for 20000 steps with 4000 atoms

Pair  time (%) = 188.306 (89.6345)
Neigh time (%) = 0 (0)
Comm  time (%) = 15.6357 (7.44269)
Outpt time (%) = 0.0465668 (0.022166)
Other time (%) = 6.09374 (2.90065)

Nlocal:    1000 ave 1000 max 1000 min
Histogram: 4 0 0 0 0 0 0 0 0 0
Nghost:    4235 ave 4235 max 4235 min
Histogram: 4 0 0 0 0 0 0 0 0 0
Neighs:    70000 ave 72653 max 67302 min
Histogram: 1 0 1 0 0 0 0 1 0 1
FullNghs:  0 ave 0 max 0 min
Histogram: 4 0 0 0 0 0 0 0 0 0

Total # of neighbors = 280000
Ave neighs/atom = 70
Neighbor list builds = 0
Dangerous builds = 0
unfix 1

# Store final cell length for strain calculations
variable tmp equal "lx"
variable L0 equal ${tmp}
variable L0 equal 40.6483922577475
print "Initial Length, L0: ${L0}"
Initial Length, L0: 40.6483922577475

######################################
# DEFORMATION
reset_timestep	0

fix		1 all npt temp 300 300 1 y 0 0 1 z 0 0 1 drag 1
variable srate equal 1.0e10
variable srate1 equal "v_srate / 1.0e12"
fix		2 all deform 1 x erate ${srate1} units box remap x
fix		2 all deform 1 x erate 0.01 units box remap x

# Output strain and stress info to file
# for units metal, pressure is in [bars] = 100 [kPa] = 1/10000 [GPa]
# p2, p3, p4 are in GPa
variable strain equal "(lx - v_L0)/v_L0"
variable p1 equal "v_strain"
variable p2 equal "-pxx/10000"
variable p3 equal "-pyy/10000"
variable p4 equal "-pzz/10000"
fix def1 all print 20 "${p1} ${p2} ${p3} ${p4}" file Original-10x10x10.Al99.eam.alloy.def1.txt screen no

# Use cfg for AtomEye
#dump 		1 all cfg 250 dump.tensile_*.cfg id type xs ys zs c_csym c_peratom fx fy fz
#dump_modify 1 element Al

# Display thermo
thermo 	50
thermo_style	custom step v_strain temp v_p2 v_p3 v_p4 ke pe press

run		20000
Memory usage per processor = 3.04301 Mbytes
Step strain Temp p2 p3 p4 KinEng PotEng Press 
       0            0    295.05319  -0.02368314 -0.029812899 -0.0083852874    152.51633   -13283.071    206.27109 
      50       0.0005    305.27076  0.076385928  0.026700653   0.02544381    157.79791   -13288.296   -428.43464 
     100        0.001    295.42717   0.06301276   0.02872752  0.009142002    152.70965   -13283.145   -336.27427 
     150       0.0015    303.35582   0.10391563  0.021016666 -0.016979124    156.80806   -13287.176    -359.8439 
     200        0.002    301.05276   0.11977248 -0.063221078 0.0076251495    155.61758   -13285.908   -213.92183 
     250       0.0025    295.64903   0.15045177 -0.011141413 -0.017034305    152.82433   -13283.033   -407.58686 
     300        0.003    297.59578   0.20177241  0.017257887  0.043740917    153.83063   -13283.947   -875.90403 
     350       0.0035    297.90159   0.21457242  0.016962525  0.013201642     153.9887   -13284.012   -815.78861 
     400        0.004     302.2837   0.23780181 -0.012340809 -0.030440108    156.25386   -13286.167   -650.06963 
     450       0.0045    301.24938   0.28630656 0.0061301808 -0.035861067    155.71922   -13285.519   -855.25223 
     500        0.005    296.61352   0.31253741 0.0079158149  0.014220882    153.32289   -13283.004   -1115.5803 
     550       0.0055    304.12293   0.37536467  0.015063377  0.046358205    157.20458   -13286.755   -1455.9542 
     600        0.006    295.36034   0.37703246 -0.0086069583 -0.0076705015     152.6751   -13282.091   -1202.5167 
     650       0.0065    302.92334   0.41996667 -0.011519301 -0.00041694971     156.5845   -13285.854   -1360.1014 
     700        0.007    298.20205   0.43576674 -0.025363065 -0.014081269    154.14402   -13283.265   -1321.0747 
     750       0.0075    295.82411   0.48498769  0.015544159  0.011999991    152.91483   -13281.879   -1708.4395 
     800        0.008    302.13311   0.52029438  0.027130983  0.018111419    156.17602   -13284.977   -1885.1226 
     850       0.0085    301.09945   0.55422916  0.003843732 -0.016729839    155.64172    -13284.27   -1804.4768 
     900        0.009    300.31698   0.57208332 0.0015430849 -0.0065144422    155.23725   -13283.688   -1890.3732 
     950       0.0095    301.07859    0.6263659 0.0012301972 -0.0057598621    155.63093   -13283.895   -2072.7874 
    1000         0.01    301.50988   0.65335757 0.0023734946  0.040408462    155.85387   -13283.925   -2320.4651 
    1050       0.0105    297.02491   0.66836506 0.0044850551 -0.0080675322    153.53554   -13281.404    -2215.942 
    1100        0.011    299.92421   0.69534003    0.0050105 0.0089962338    155.03422   -13282.701   -2364.4892 
    1150       0.0115    300.93967   0.72842287 -0.0066764886 -0.023511094    155.55912   -13283.011    -2327.451 
    1200        0.012    298.11516   0.74283245 0.0023225495 -0.0056781198     154.0991   -13281.331   -2464.9229 
    1250       0.0125    296.09534   0.80074317 -0.00015762297  0.016038089    153.05503    -13280.06   -2722.0788 
    1300        0.013    300.38579   0.81874177 -0.0076835348  0.011580456    155.27282   -13282.048    -2742.129 
    1350       0.0135    294.35458   0.84512009 -0.031162971 -0.024399982    152.15522   -13278.691   -2631.8571 
    1400        0.014    298.92375   0.91345678 0.0073932019  -0.01098955    154.51707   -13280.801   -3032.8681 
    1450       0.0145    299.86146   0.92245658  0.044193515  0.026805922    155.00178   -13281.031     -3311.52 
    1500        0.015    297.04973   0.96477228 -0.0038140823 0.0042775993    153.54837   -13279.319   -3217.4527 
    1550       0.0155    301.32705   0.97107154 -0.017055583 -0.023224235    155.75936   -13281.256   -3102.6391 
    1600        0.016    300.47997    1.0189589 -0.0051068267 -0.018145599     155.3215   -13280.543   -3319.0216 
    1650       0.0165    298.70423    1.0694414  0.016005424  0.029115908     154.4036    -13279.34    -3715.209 
    1700        0.017     299.1915    1.1279416  0.018829441  0.025145113    154.65547   -13279.296   -3906.3871 
    1750       0.0175    302.96186    1.1236282 0.0049706753 -0.0038490882    156.60442   -13280.943   -3749.1659 
    1800        0.018    297.54899    1.1340796 -0.038355047 -0.0038681782    153.80644   -13277.838   -3639.5214 
    1850       0.0185    300.18284     1.202559  0.024060562 -0.025380846    155.16791   -13278.883   -4004.1291 
    1900        0.019      301.905    1.2428105  0.013249417  0.042858646    156.05811   -13279.452   -4329.7287 
    1950       0.0195    297.56463    1.2595106  0.020898741 0.0060602864    153.81452   -13276.881   -4288.2322 
    2000         0.02    301.39312     1.287643 -0.020410125 0.0014033429    155.79352   -13278.523   -4228.7873 
    2050       0.0205    297.39065    1.3212022  -0.02259175 -0.028835303     153.7246   -13276.109   -4232.5839 
    2100        0.021    296.57933    1.3530512  0.024545494   0.01259576    153.30522    -13275.34    -4633.975 
    2150       0.0215    301.86389      1.42285  0.014651572  0.018754474    156.03686   -13277.716    -4854.187 
    2200        0.022     300.8428     1.412048 0.0012920287 -0.0021998856    155.50905   -13276.825   -4703.8004 
    2250       0.0225    299.02725    1.4321461 -0.0040392456  -0.02995493    154.57057   -13275.515   -4660.5065 
    2300        0.023    297.44991    1.4709187 0.0051088264 -0.0080936701    153.75522   -13274.321   -4893.1129 
    2350       0.0235    299.76275    1.5253658  0.011264959  0.029684555    154.95076   -13275.137   -5221.0509 
    2400        0.024    297.54615     1.539138 -0.0043798112  0.014949503    153.80497   -13273.602   -5165.6921 
    2450       0.0245    299.17032    1.5501475 -0.023600856 -0.029707099    154.64453   -13274.046    -4989.465 
    2500        0.025    297.21842    1.5902559  -0.03311447 0.0058390706    153.63556    -13272.64   -5209.9351 
    2550       0.0255    301.31341    1.6512509  0.029887397  0.021011691    155.75231   -13274.349   -5673.8333 
    2600        0.026    296.45283    1.6611498 -0.012557481  0.027613457    153.23982   -13271.422   -5587.3527 
    2650       0.0265    301.29272    1.6973705  0.028162696 -0.018934186    155.74162   -13273.502   -5688.6633 
    2700        0.027    299.01917     1.704902 -0.037149708 -0.012826785    154.56639   -13271.892   -5516.4185 
    2750       0.0275    294.81053    1.7458347  0.026329128 -0.033596017     152.3909   -13269.282   -5795.2259 
    2800        0.028    307.06192    1.8364285  0.012779723  0.029960898    158.72378   -13275.167   -6263.8972 
    2850       0.0285     294.3924    1.8029528  0.036267881 -0.0075944043    152.17476   -13268.171   -6105.4209 
    2900        0.029    298.82632    1.8278992 -0.034723123  0.023443073    154.46671   -13270.005   -6055.3973 
    2950       0.0295      295.566    1.8545584 -0.026736901 -0.049688918    152.78141   -13267.857   -5927.1085 
    3000         0.03    297.08106     1.903764 -0.032824072 -0.0045135911    153.56456   -13268.172    -6221.421 
    3050       0.0305    296.51612    1.9797658 0.0079111261  0.035459186    153.27254   -13267.398    -6743.787 
    3100        0.031    296.18725    1.9856293  0.045357593  0.027168871    153.10254   -13266.743   -6860.5192 
    3150       0.0315    305.23717    1.9950752 -0.030633714 0.0012006404    157.78055   -13270.935   -6552.1403 
    3200        0.032    295.69797    2.0031751 -0.018824519 -0.066757497    152.84963   -13265.506   -6391.9768 
    3250       0.0325    300.14851    2.0592877  0.025645712 0.0078527845    155.15016   -13267.304   -6975.9538 
    3300        0.033    296.99658    2.1116954  0.034580846    0.0282224    153.52089   -13265.162   -7248.3287 
    3350       0.0335     300.9741    2.1355972  -0.00194848   0.02416816    155.57692   -13266.702   -7192.7229 
    3400        0.034     297.6866    2.1059411 -0.041805527 -0.046066095    153.87757    -13264.48   -6726.8982 
    3450       0.0345    305.14294    2.2052616 -0.011940045 0.0022416296    157.73184   -13267.806   -7318.5441 
    3500        0.035    295.38726     2.223179  0.016391681   0.03626556    152.68902   -13262.223   -7586.1207 
    3550       0.0355    295.53308    2.2537383  0.041900871  0.017738718     152.7644   -13261.752   -7711.2595 
    3600        0.036     298.1314    2.2553092 -0.011210393 -0.017247276    154.10749   -13262.551   -7422.8383 
    3650       0.0365    299.82169    2.2443079 -0.026787324 -0.039316009    154.98122   -13262.866    -7260.682 
    3700        0.037    293.53766    2.2946792 -0.032415349 -0.021033441    151.73294   -13259.067   -7470.7681 
    3750       0.0375    304.54477    2.3932302  0.043720903  0.040664473    157.42264   -13264.189   -8258.7187 
    3800        0.038    297.10803    2.4218171  0.029756495  0.023019365     153.5785   -13259.769   -8248.6431 
    3850       0.0385    298.24456    2.3861613 -0.006913458 -0.0015322537    154.16599   -13259.786   -7925.7187 
    3900        0.039    302.84281    2.4471813 -0.017592294 -0.041187509    156.54288   -13261.573   -7961.3383 
    3950       0.0395    301.19288     2.471888 0.0021618945  0.011346936    155.69001    -13260.13    -8284.656 
    4000         0.04    298.66148    2.5445055  0.033778704  0.037010058     154.3815   -13258.223   -8717.6477 
    4050       0.0405    297.97772    2.5277443  0.013332919  0.024530863    154.02806   -13257.265   -8552.0271 
    4100        0.041     302.9923    2.5885304 -0.024936895 -0.024123607    156.62015   -13259.242   -8464.8997 
    4150       0.0415    296.99519    2.5535912 -0.017797498 -0.017132526    153.52017   -13255.525   -8395.5373 
    4200        0.042    295.23504    2.6238895  0.028754394 -0.016571959    152.61033   -13253.997   -8786.9064 
    4250       0.0425    302.11298    2.6842481 0.0047643994  0.050599111    156.16562   -13256.917   -9132.0387 
    4300        0.043    292.17189    2.6621029 -0.015119507 -0.015965121    151.02696   -13251.148   -8770.0609 
    4350       0.0435    301.60128    2.7150595 -0.013027187 -0.014672073    155.90112   -13255.379   -8957.8675 
    4400        0.044    297.74582     2.746018 -0.027389178  0.012197353    153.90818   -13252.736    -9102.754 
    4450       0.0445     299.6204    2.8079968  0.027318502 -0.0039871917    154.87718   -13253.053   -9437.7603 
    4500        0.045    297.25924    2.8030405 0.0045777665  0.022483889    153.65667   -13251.169   -9433.6738 
    4550       0.0455    301.51407    2.8767196 -0.017022271  0.011794475    155.85604   -13252.696   -9571.6395 
    4600        0.046    301.74444    2.8724511  0.051709911 -0.012316009    155.97512   -13252.132   -9706.1501 
    4650       0.0465    297.56196     2.893493 -0.033975508 -0.0070609477    153.81315   -13249.291   -9508.1884 
    4700        0.047    294.13308    2.9169228 0.0035917204 -0.016751448    152.04072   -13246.829   -9679.2102 
    4750       0.0475    298.42928    2.9773057 0.0060356317   0.01925135    154.26147   -13248.352   -10008.642 
    4800        0.048    298.80154    2.9959196  0.023732365 -0.010879241     154.4539   -13247.847   -10029.242 
    4850       0.0485    303.41324    3.0075982 -0.0061712832 -0.00089613758    156.83774   -13249.529   -10001.769 
    4900        0.049     299.3143    3.0417348  -0.00253436 -0.024125699    154.71895     -13246.7   -10050.249 
    4950       0.0495    294.04119    3.0613838  0.010504683 0.0046723634    151.99322   -13243.265   -10255.203 
    5000         0.05    301.19171    3.1276593  0.022999585  0.055372935     155.6894   -13246.234   -10686.773 
    5050       0.0505    295.91312    3.1357774 -0.015370639 -0.017314394    152.96084   -13242.779   -10343.641 
    5100        0.051    297.45326    3.1539132 -0.046322016 -0.021357721    153.75696   -13242.832   -10287.445 
    5150       0.0515     295.7443    3.2072085 -0.033164799 0.0018664753    152.87358   -13241.205   -10586.367 
    5200        0.052     296.9309    3.2386035  0.015271508  0.030084288    153.48694   -13241.069   -10946.531 
    5250       0.0525    295.50977    3.2522843  0.017965414  0.012543572    152.75235   -13239.588   -10942.644 
    5300        0.053     299.0554    3.2934108 -0.012045692 -0.015707021    154.58512   -13240.659   -10885.527 
    5350       0.0535     299.2832    3.3094777 -0.0038038389 -0.045896569    154.70288   -13240.006   -10865.924 
    5400        0.054    297.35019    3.3424285  0.023086269 -0.013865812    153.70368   -13238.234   -11172.163 
    5450       0.0545    298.78331    3.3878316  0.052570017  0.015137087    154.44447   -13238.204   -11518.462 
    5500        0.055    295.07703    3.3868832 -0.0067934096 -0.020396087    152.52866   -13235.514   -11198.979 
    5550       0.0555    296.79754    3.4000931 -0.037028038 -0.020119574    153.41801   -13235.615   -11143.152 
    5600        0.056    301.39711    3.4653804 0.0050087383  0.030795595    155.79558   -13237.193   -11670.616 
    5650       0.0565    295.10996     3.491335 -0.0064952873  0.019791512    152.54568   -13233.142   -11682.104 
    5700        0.057    302.33822    3.5320459 -0.017306053  0.045758238    156.28205   -13236.066   -11868.327 
    5750       0.0575    301.11689    3.5515934   0.01056928 0.0028727941    155.65073   -13234.627   -11883.452 
    5800        0.058    298.87619     3.591932 -0.019896206 -0.024690391    154.49249   -13232.644   -11824.485 
    5850       0.0585    299.44899    3.6082841 0.0004748079  0.021221611    154.78857   -13232.114   -12099.935 
    5900        0.059    296.27359    3.6642386  0.046351765 -0.0065678213    153.14717    -13229.64   -12346.742 
    5950       0.0595    294.10251    3.6656502 -0.0064134516 -0.025371359    152.02492   -13227.675   -12112.885 
    6000         0.06    293.90218    3.6869601 -0.0017507995  -0.04876057    151.92136   -13226.729   -12121.496 
    6050       0.0605    295.60619    3.7556568  0.020033197 -0.021706878    152.80219   -13226.759   -12513.277 
    6100        0.061    296.81875    3.7567425  0.016832321  0.029340039    153.42897   -13226.535   -12676.383 
    6150       0.0615    300.85331     3.776203   -0.0267741  0.028058624    155.51448   -13227.754   -12591.625 
    6200        0.062    297.62806    3.7838742 -0.0063994282 -0.035517066    153.84731    -13225.22   -12473.192 
    6250       0.0625    299.09081    3.8577525 -0.046720242   0.04491885    154.60343   -13225.105    -12853.17 
    6300        0.063    297.01891    3.8793894  0.018329749 0.0075551163    153.53244   -13223.153   -13017.581 
    6350       0.0635    297.51843    3.9156791  0.032127764  0.018982227    153.79065   -13222.521    -13222.63 
    6400        0.064     300.0686    3.9586014 -0.0013725591 -0.016584533    155.10886   -13222.943   -13135.481 
    6450       0.0645    298.98999    3.9488134 -0.019015711 -0.031036943    154.55131   -13221.485   -12995.869 
    6500        0.065    295.19391    3.9941886 0.0059989835 -0.040263996    152.58907   -13218.621   -13199.745 
    6550       0.0655    301.09898    4.0687854  0.017064476  0.031499443    155.64147   -13220.759   -13724.498 
    6600        0.066    299.49308    4.0866957  0.048690053  0.032767488    154.81136   -13219.011   -13893.844 
    6650       0.0665    296.30754    4.0446828 -0.028069799 0.0080488296    153.16472   -13216.446    -13415.54 
    6700        0.067     296.5412     4.065192 -0.063238046 -0.020974964     153.2855   -13215.643    -13269.93 
    6750       0.0675    299.62322     4.148748 0.00097620029  0.009074635    154.87864   -13216.308   -13862.663 
    6800        0.068    300.76649    4.2125262  0.022616033  0.039164622     155.4696   -13215.952   -14247.689 
    6850       0.0685    297.19101    4.1881577  0.040235042 0.0050452335     153.6214   -13213.161    -14111.46 
    6900        0.069    293.70756    4.1907655 -0.026125956 -0.042331676    151.82076   -13210.412   -13741.026 
    6950       0.0695    296.83448    4.2553369 -0.022821403 -0.046623065    153.43711   -13211.066   -13952.975 
    7000         0.07    293.12083     4.295548   0.00484267 -0.018741935    151.51747   -13208.187   -14272.162 
    7050       0.0705    299.38225    4.3539465  0.064458816   0.06586315    154.75407   -13210.448   -14947.562 
    7100        0.071    297.85468    4.3449056 0.0095985868 -0.0097755489    153.96446   -13208.696   -14482.429 
    7150       0.0715     303.8638    4.3509306 -0.053497584 -0.017918449    157.07064   -13210.815   -14265.048 
    7200        0.072    295.98076    4.3983491 -0.031275506 -0.043523316    152.99581    -13205.76   -14411.834 
    7250       0.0725    297.89557    4.4537102  0.018672295  0.057821183    153.98559   -13205.753   -15100.679 
    7300        0.073    301.10811    4.5039814   0.06372501  0.041003865    155.64619    -13206.42   -15362.367 
    7350       0.0735    299.85611    4.4591378 -0.022374935  0.011252791    154.99902   -13204.777   -14826.719 
    7400        0.074    301.75346    4.4805148 -0.055810604 -0.037184991    155.97978   -13204.754   -14625.064 
    7450       0.0745    293.86488    4.5391231  -0.01962499  -0.02934878    151.90208   -13199.673   -14967.164 
    7500        0.075    297.72557     4.609548  0.061511101  0.045419079    153.89772   -13200.642   -15721.594 
    7550       0.0755    294.81197    4.5856025  0.035894362  0.026284155    152.39165   -13198.123   -15492.603 
    7600        0.076    299.26835    4.5825482 -0.035549121 -0.023023699     154.6952   -13199.404   -15079.918 
    7650       0.0765    300.56299    4.6266498 -0.036358873 -0.054277528    155.36441   -13199.036   -15120.045 
    7700        0.077    293.38467     4.690091  0.020642148 0.0045046244    151.65386    -13194.29   -15717.459 
    7750       0.0775    299.87955    4.7328839   0.05065798  0.038671721    155.01113   -13196.601   -16074.045 
    7800        0.078    298.85473    4.7378086 -0.003919178  0.033909117    154.48139   -13195.025   -15892.662 
    7850       0.0785    295.12705    4.7277529 -0.059033236 -0.057102648    152.55451   -13192.039   -15372.057 
    7900        0.079    301.68056    4.8239052  0.018820017 0.0003996034     155.9421   -13194.362    -16143.75 
    7950       0.0795    293.03364    4.8260302 0.0029928673  0.010982885     151.4724   -13188.819   -16133.353 
    8000         0.08    297.51119    4.8405086   0.03297672  0.019940971     153.7869   -13190.066   -16311.421 
    8050       0.0805    299.34164    4.8436061 -0.028174289 -0.00098157978    154.73308   -13189.936   -16048.168 
    8100        0.081    296.56636    4.8506139 -0.051407067 -0.016973168    153.29851   -13187.422   -15940.779 
    8150       0.0815    297.38541    4.9434532 -0.016144964  0.029839807    153.72188   -13186.764   -16523.827 
    8200        0.082    300.24269    4.9801962  0.057729169  0.055111674    155.19884   -13187.148    -16976.79 
    8250       0.0825    295.74677    4.9761855 0.0038144273 -0.018230996    152.87485   -13183.721    -16539.23 
    8300        0.083    296.28784    4.9888579 -0.013314461 -0.072836902    153.15454   -13182.888   -16342.355 
    8350       0.0835    301.84692    5.0460235  0.012438532  0.018952911    156.02809    -13184.65   -16924.717 
    8400        0.084    301.63377     5.087587   0.04468856 0.0087819677    155.91791   -13183.421   -17136.858 
    8450       0.0845     294.4379    5.0713813  0.030857022 -0.051251245    152.19828   -13178.588   -16836.624 
    8500        0.085    294.95823    5.1054048 -0.036500546 0.0040642006    152.46725   -13177.738   -16909.895 
    8550       0.0855    299.59421     5.145155  0.013872156  0.020283314    154.86364   -13178.998   -17264.368 
    8600        0.086    293.09655    5.1623223 0.0081498692 -0.0074220347    151.50492   -13174.502   -17210.167 
    8650       0.0865    298.64801    5.1895849  -0.05194524  0.016822551    154.37454   -13176.224   -17181.541 
    8700        0.087    302.10535     5.260905 -0.0071423212  0.020998762    156.16168   -13176.863   -17582.538 
    8750       0.0875    302.82582    5.2617446  0.047847579   0.05461382     156.5341   -13176.075   -17880.687 
    8800        0.088    296.71453    5.2534156 -0.0074919516 -0.026456729     153.3751   -13171.765   -17398.223 
    8850       0.0885    299.53281    5.3070394 -0.010963604 -0.016542276     154.8319   -13172.047   -17598.445 
    8900        0.089     297.5505    5.3549116  0.012822587 0.0011849929    153.80722   -13169.847   -17896.397 
    8950       0.0895    297.27859    5.3721665  0.017151839  0.016023063    153.66667   -13168.527   -18017.805 
    9000         0.09    299.90818    5.4014734  0.033859091 0.0093173659    155.02593   -13168.706   -18148.833 
    9050       0.0905    298.93558    5.4223407 -0.038824449 -0.0043375622    154.52318   -13167.007   -17930.595 
    9100        0.091    293.90307    5.4294858 -0.0043172206 -0.033675289    151.92182   -13163.212   -17971.644 
    9150       0.0915    296.22094    5.4910122 0.0093248717  0.015374456    153.11995   -13163.209   -18385.705 
    9200        0.092    299.64819    5.5197664 0.0087843688  0.049321316    154.89154   -13163.771   -18592.907 
    9250       0.0925    295.67641    5.5301254 0.00050088898 -0.019589529    152.83848   -13160.511   -18370.123 
    9300        0.093    296.57934    5.5279826 0.0029019445 -0.026274498    153.30522   -13159.759     -18348.7 
    9350       0.0935    292.77811    5.5709958 -0.053120211 -0.019618969    151.34032   -13156.574   -18327.522 
    9400        0.094    296.71532    5.5990418  0.019557138  0.016629825    153.37551   -13157.384   -18784.096 
    9450       0.0945    296.66009    5.6509973  0.022452465  0.014395761    153.34696   -13156.123   -18959.485 
    9500        0.095    299.53035    5.6705357 0.0061389212 -0.0056646993    154.83063   -13156.369   -18903.366 
    9550       0.0955    299.17434    5.7077539 -0.007840524 -0.033374533     154.6466   -13154.936   -18888.463 
    9600        0.096    293.60882    5.7020511 0.0034854801 0.0011863367    151.76972   -13150.811    -19022.41 
    9650       0.0965    296.67567    5.7380248  0.013016304  0.041505575    153.35501   -13151.141   -19308.489 
    9700        0.097    301.96286    5.7698878 0.0024852429   0.01257853    156.08802   -13152.613   -19283.172 
    9750       0.0975    298.05251    5.7840203 -0.032961543  -0.01904069    154.06672   -13149.323   -19106.727 
    9800        0.098    299.52193    5.8441253 0.0096543151 0.0063679754    154.82627   -13148.811   -19533.825 
    9850       0.0985    295.40622    5.8625812  0.026940766  0.016118551    152.69882   -13145.401   -19685.468 
    9900        0.099    295.44308    5.8711818  -0.01153101  0.027269711    152.71787   -13144.138   -19623.068 
    9950       0.0995     295.5608    5.9077567 -0.0013494789 -0.051515011    152.77872   -13142.906   -19516.307 
   10000          0.1    300.72513    5.9633603 0.0068624964 0.0081389887    155.44822   -13144.275   -19927.873 
   10050       0.1005    292.57979      5.94416 -0.026930837  0.017811467    151.23781   -13138.764   -19783.469 
   10100        0.101    297.00876    6.0026343  0.012510813 0.0036878069    153.52719   -13139.746   -20062.776 
   10150       0.1015    291.81813    6.0003924 0.0042061328 -0.013705162    150.84409   -13135.751   -19969.645 
   10200        0.102    300.12322    6.0297349  0.024842133 -0.015853109    155.13709   -13138.727    -20129.08 
   10250       0.1025    297.81456    6.0666693 -0.014541823 -0.024748096    153.94372   -13136.214   -20091.264 
   10300        0.103    299.29435    6.1030296  0.019831197  0.010751677    154.70864   -13135.651   -20445.375 
   10350       0.1035    295.33145    6.0989471  0.030078218  0.023459219    152.66017   -13132.272   -20508.282 
   10400        0.104    293.07747    6.1222272 -0.011560171  0.006666539    151.49506   -13129.771   -20391.112 
   10450       0.1045    300.34789     6.191339 -0.017136703  -0.02320947    155.25322   -13132.177   -20503.309 
   10500        0.105    296.79888    6.1910305 -0.023793835 -0.027123346     153.4187   -13128.991   -20467.044 
   10550       0.1055     292.5469    6.1730262 0.00072707002  0.015396531     151.2208   -13125.449   -20630.499 
   10600        0.106    299.76657    6.2546043   0.06431193  0.029646855    154.95273   -13127.825   -21161.877 
   10650       0.1065    297.45185     6.277285   0.01138457  0.010921436    153.75623   -13125.263   -20998.637 
   10700        0.107    299.28575    6.3159878 -0.058843209 0.0088751701    154.70419   -13124.827   -20886.733 
   10750       0.1075     298.0767    6.3270774 -0.031686949 -0.025891406    154.07922   -13122.819    -20898.33 
   10800        0.108    292.71521    6.3511692 0.0050384992 0.0068728816    151.30781   -13118.674   -21210.269 
   10850       0.1085    296.83076    6.4044451   0.06074091  0.060444734    153.43518   -13119.403   -21752.103 
   10900        0.109     298.8772    6.4305164 -0.00089408056  0.022392896    154.49301   -13119.066   -21506.717 
   10950       0.1095    295.12866     6.393375  -0.08414463 -0.033452319    152.55535   -13115.719    -20919.26 
   11000         0.11    299.97893    6.4676754 -0.019035911 -0.028130303    155.06251   -13116.826   -21401.697 
   11050       0.1105    289.50242    6.4626257  0.034956017  0.021953147    149.64708   -13110.002   -21731.783 
   11100        0.111     299.5863    6.5498947  0.091887315  0.056198958    154.85955    -13113.79   -22326.603 
   11150       0.1115    300.30372    6.5695839  0.012700448  -0.03492997    155.23039   -13112.738   -21824.515 
   11200        0.112     296.1484    6.5058518 -0.090590539 -0.080866067    153.08246    -13109.15   -21114.651 
[...]
   11600        0.116    293.55793    6.7404774 -0.021520116 -0.039617234    151.74342    -13096.17   -22264.467 
   11650       0.1165    298.22774    6.7737658 -0.017291172 -0.029387786    154.15729   -13097.105   -22423.623 
   11700        0.117    296.00123    6.8133094 -0.020591757  0.018094833    153.00639   -13094.472   -22702.708 
   11750       0.1175     296.1151     6.872634  0.038751678  0.057192917    153.06525   -13093.035   -23228.595 
   11800        0.118    294.37801    6.8536084  0.021129618 -0.022425111    152.16733   -13090.646   -22841.043 
   11850       0.1185    294.66098    6.8435772 -0.043910959 -0.046590327     152.3136   -13089.293   -22510.253 
   11900        0.119    292.33603    6.8547663 -0.0061264443   0.01318044     151.1118   -13086.595   -22872.734 
   11950       0.1195    296.14747     6.928381  0.012201845  0.022338204    153.08198   -13087.055   -23209.737 
   12000         0.12    291.96554     6.947103 0.0022161909 0.0015750599    150.92029   -13083.376   -23169.648 
   12050       0.1205    295.37195    6.9820576 -0.019543024 -0.017361287    152.68111   -13083.618   -23150.511 
   12100        0.121    294.02049    6.9783208 -0.028391655 -0.024847618    151.98252   -13081.395   -23083.605 
   12150       0.1215    292.80837    7.0032141  0.039808476 -0.030484769    151.35596   -13079.244   -23375.126 
   12200        0.122    295.82714    7.0244468  0.044592407    0.0127764     152.9164   -13079.277   -23606.052 
   12250       0.1225    293.54326    7.0317968 -0.013403551  0.014881979    151.73583   -13076.562   -23444.251 
   12300        0.123    298.01628    7.0698692 -0.0021911564 -0.017788043    154.04799   -13077.332   -23499.633 
   12350       0.1235    292.19043    7.0693825 -0.022211471 -0.0085847926    151.03654   -13072.774   -23461.954 
   12400        0.124    294.43138    7.1635638 -0.00014925726  0.012730141    152.19491   -13072.373   -23920.482 
   12450       0.1245    292.51001    7.1576025  0.052895143   0.01253419    151.20174   -13069.808   -24076.773 
   12500        0.125    293.71105     7.158247 -0.059450622  0.019443144    151.82256   -13068.865   -23727.465 
   12550       0.1255    291.99985    7.1194733 -0.078024247 -0.024814821    150.93803   -13066.416   -23388.781 
   12600        0.126    295.59709    7.2102443  0.022693333 0.0097608152    152.79748   -13066.711   -24142.328 
   12650       0.1265    296.16157    7.3019053  0.066144777   0.06661142    153.08927   -13065.406   -24782.205 
   12700        0.127    293.71738    7.2596443  0.022766107 -0.0046522066    151.82584   -13062.553   -24259.194 
   12750       0.1275    295.41318    7.2782509 -0.037356356 -0.050102771    152.70242   -13061.825   -23969.306 
   12800        0.128    294.48612    7.2646706 -0.026622324 -0.027744471    152.22321   -13059.747   -24034.346 
   12850       0.1285      293.107    7.3210107  0.059263117 0.0040787351    151.51033    -13057.44   -24614.509 
   12900        0.129    292.68474    7.3768856  0.051843994  0.012094012    151.29206   -13055.618   -24802.745 
   12950       0.1295    293.22202    7.4087713 -0.011929759 -0.036885372    151.56978   -13054.283   -24533.187 
   13000         0.13    298.82119    7.4376398 -0.029892625 -0.0014980496    154.46405   -13055.545   -24687.497 
   13050       0.1305    292.29786     7.400189 -0.034660802 -0.013053373    151.09207   -13050.546   -24508.249 
   13100        0.131    288.95533    7.4334339 0.0014185076  0.064310785    149.36428   -13047.194   -24997.211 
   13150       0.1315    296.49634    7.5050561  0.035734148  0.037700166    153.26231   -13049.456   -25261.635 
   13200        0.132      289.056    7.4317655  -0.04521195   -0.0264279    149.41632   -13043.972   -24533.752 
   13250       0.1325    301.37855    7.5567074 -0.024150184 -0.012293893    155.78598   -13048.693   -25067.544 
   13300        0.133    291.78828    7.5752073   -0.0170231  0.028215689    150.82867   -13042.088       -25288 
   13350       0.1335    289.48282    7.5764554 0.0037026621 0.0091534155    149.63695   -13039.242   -25297.705 
   13400        0.134    298.65123    7.6275136  0.036511732  0.028248571     154.3762   -13042.323   -25640.913 
   13450       0.1345    293.60653    7.5939243 -0.013293402 -0.056647229    151.76854   -13038.043   -25079.946 
   13500        0.135    290.77694    7.5446938 -0.035204153  -0.02024705    150.30589   -13034.928   -24964.142 
   13550       0.1355    293.22653    7.5881659  0.078418417  0.043680427    151.57211   -13034.535   -25700.882 
   13600        0.136    294.35019    7.6506164   0.03122526  0.016618964    152.15294   -13033.454   -25661.535 
   13650       0.1365    288.29495    7.6712496 -0.071272174 -0.068432518    149.02292    -13028.64    -25105.15 
   13700        0.137    296.81931    7.7330051 -0.0013165403 0.0083366643    153.42926   -13031.354   -25800.084 
   13750       0.1375    295.52647    7.7524241   0.01595603  0.049652472    152.76098   -13028.995   -26060.109 
   13800        0.138    291.25069    7.7123916  0.021712303 -0.0064641626    150.55078   -13025.096   -25758.799 
   13850       0.1385    288.55819    7.6958233 -0.022898302 -0.084094538      149.159   -13022.024   -25296.101 
   13900        0.139    292.21313    7.7793834 -0.018596694  0.033121535    151.04827   -13022.219   -25979.694 
   13950       0.1395    292.80851    7.7626524   0.03200342  0.059693509    151.35603   -13020.818   -26181.164 
   14000         0.14    290.78192    7.7739784 -0.018391636 0.00024523942    150.30847   -13018.072   -25852.773 
   14050       0.1405    292.55995    7.8008559 -0.054400551  0.010070867    151.22755   -13017.273   -25855.087 
   14100        0.141    290.98435    7.8449078 0.0028284285 -0.032554213    150.41311   -13014.743   -26050.607 
   14150       0.1415    296.18122    7.8575383  0.043051585  0.037247456    153.09942   -13015.707   -26459.458 
   14200        0.142    294.12159    7.8437331  -0.02390802 -0.0041379011    152.03478   -13012.916   -26052.291 
   14250       0.1425    287.19968    7.7478812 -0.033567345 -0.002019977    148.45677   -13007.631   -25707.646 
   14300        0.143    293.71432    7.8738105  0.019746234  0.023631537    151.82426   -13009.286   -26390.628 
   14350       0.1435     291.4975    7.9045649 0.0057878559  0.018934398    150.67836   -13006.402   -26430.957 
   14400        0.144     294.6357    7.8741604 -0.046018615 0.00047032948    152.30053   -13006.298   -26095.374 
   14450       0.1445    292.14967    7.8781755 0.0080106477 -0.008594513    151.01547   -13003.285   -26258.639 
   14500        0.145     290.8319    7.8916896  0.021238627 -0.0060794099     150.3343   -13000.867   -26356.163 
   14550       0.1455     289.7379     7.878053  0.036487353 -0.022518208     149.7688   -12998.563    -26306.74 
   14600        0.146    291.05198    7.8755564 0.0084610282 -0.023920782    150.44807    -12997.51   -26200.322 
   14650       0.1465    290.14168    7.8880396  0.011861846  -0.01807914    149.97752   -12995.301   -26272.741 
   14700        0.147    289.85403    7.8562697  0.029594156 -0.0032762703    149.82883   -12993.412   -26275.292 
   14750       0.1475    284.83157    7.7802611 0.0071037338 -0.022309076    147.23266   -12989.101   -25883.519 
   14800        0.148    295.22257    7.7739472  0.010271893 -0.036002251    152.60389   -12992.754    -25827.39 
   14850       0.1485    291.85515    7.6392409 -0.022401768 0.0090253166    150.86323    -12989.31   -25419.548 
   14900        0.149    295.96817    7.5426105  0.010334563   0.05186927     152.9893   -12989.735   -25349.381 
   14950       0.1495    295.25224    7.4039377  0.010039178 -0.001891253    152.61922   -12987.716   -24706.952 
   15000         0.15    304.02056    7.2650055 -0.071123596  0.034185168    157.15167   -12990.627   -24093.557 
   15050       0.1505    309.56698    7.1267705 -0.049078844  0.019062772    160.01867   -12991.928   -23655.848 
   15100        0.151    306.69809     6.911152 -0.068385816   0.01273007    158.53572   -12988.961   -22851.654 
   15150       0.1515    319.26741    6.7401749  0.038975677  0.063540545    165.03294   -12994.037    -22808.97 
   15200        0.152    319.28619    6.4117552  0.048372635 0.0019629842    165.04264   -12992.724   -21540.303 
   15250       0.1525     335.4747    6.0896801  0.031858152 -0.071686451    173.41067   -12999.863   -20166.173 
   15300        0.153    337.88645    5.7313163 -0.0086257228 -0.056823532    174.65733   -13000.039   -18886.224 
   15350       0.1535    334.72084    5.3875431  0.072478331  -0.03801648    173.02099   -12997.514    -18073.35 
   15400        0.154     342.0304    5.0719578  0.057930295  0.068710984    176.79939   -13000.538   -17328.664 
   15450       0.1545     346.5106    4.7211677  0.004679539 -0.010202206    179.11525   -13002.263   -15718.817 
   15500        0.155    347.72231    4.3780797 -0.065055253 -0.0039264244     179.7416   -13002.419    -14363.66 
   15550       0.1555    345.72085    4.1566868 -0.078497099  0.058041973    178.70702   -13001.037   -13787.439 
   15600        0.156    352.91346    4.0470676 -0.00032413902   0.11750658    182.42496   -13004.544   -13880.834 
   15650       0.1565    355.30306    3.9546563  -0.03687998  0.018411789    183.66017   -13005.686   -13120.627 
   15700        0.157    353.64653    3.7956129  0.017236398 -0.020414122     182.8039   -13004.714   -12641.451 
   15750       0.1575    361.69497    3.7141687   0.06307154  0.023943058    186.96422   -13008.807   -12670.611 
   15800        0.158    360.52666    3.6251051   0.01936415 -0.059177906    186.36031   -13008.159   -11950.971 
   15850       0.1585    364.75668    3.6227972  0.032174451 -0.079266508    188.54686   -13010.272   -11919.017 
   15900        0.159    362.85533    3.5756819 -0.044065223  0.017372756    187.56403   -13009.253   -11829.965 
   15950       0.1595    363.19391    3.5803512 -0.013534165  0.076080543    187.73904   -13009.373   -12142.992 
   16000         0.16    359.91317    3.4550027  0.011224552  0.079797756    186.04319   -13007.653   -11820.083 
   16050       0.1605    360.95119    3.4214138 -0.010860946  0.021842636    186.57975   -13008.178   -11441.318 
   16100        0.161    364.10444    3.3476955 -0.043325111 -0.037770807    188.20971   -13009.804   -10888.665 
   16150       0.1615    368.76526    3.2747162 -0.028793028 0.0003051527    190.61894   -13012.249   -10820.761 
   16200        0.162    368.50231    3.3067163  0.061524771 -0.056567645    190.48302   -13012.162   -11038.911 
   16250       0.1625     360.1726    3.3071438  0.061398264 -0.051713849    186.17729   -13007.922   -11056.094 
   16300        0.163    363.11155    3.2374907  0.042433084  0.043106488    187.69647   -13009.558   -11076.768 
   16350       0.1635    362.59563    3.1608747 -0.039909799 -0.011993331    187.42979   -13009.419   -10363.239 
   16400        0.164    368.58005    3.1163309 -0.054304993  -0.06283763     190.5232   -13012.631   -9997.2944 
   16450       0.1645    372.76075    3.1361261  0.029011491  0.050938188    192.68425   -13014.936   -10720.253 
   16500        0.165    363.92767    3.0526071   0.04346032  0.049082515    188.11833   -13010.527   -10483.833 
   16550       0.1655    375.26214    3.0226861  0.042125017  0.027289623    193.97725   -13016.577   -10307.003 
   16600        0.166    371.62968    2.9128993 -0.031234485 -0.049523321    192.09959   -13014.888   -9440.4717 
   16650       0.1665    367.44987    2.7947826 -0.066465404  0.023118567      189.939    -13012.95   -9171.4525 
   16700        0.167    375.99725    2.7648834 0.0035489738  0.063080841    194.35723   -13017.633   -9438.3774 
   16750       0.1675    371.57801    2.6312173  0.039958914 0.0070719807    192.07288   -13015.646   -8927.4941 
   16800        0.168    374.14634    2.5423812 -0.004835991 -0.015992686    193.40048   -13017.298    -8405.175 
   16850       0.1685      381.124     2.481223 -0.040733142  0.049126321    197.00731   -13021.273   -8298.7207 
   16900        0.169    377.06017    2.3996955  0.025391186 -0.063563393    194.90667    -13019.55   -7871.7444 
   16950       0.1695     383.5371    2.2911985   0.09374905 -0.029740813    198.25467   -13023.327   -7850.6892 
   17000         0.17    379.69442    2.2146934  0.060914119 0.0058934643    196.26834   -13021.827   -7605.0034 
   17050       0.1705    383.21702    2.0259605 -0.057646675 -0.0090487664    198.08922   -13024.158   -6530.8835 
   17100        0.171    382.15449    1.9527077 -0.078602414 -0.0060991189    197.53998   -13024.114   -6226.6871 
   17150       0.1715    390.65633    1.8887578 -0.029227298  0.061931236    201.93468   -13029.068   -6404.8723 
   17200        0.172    392.76807    1.8357501 -0.0016333964  0.068984594    203.02626   -13030.769    -6343.671 
   17250       0.1725    389.99611    1.7162119 -0.054745577  0.099005688     201.5934   -13030.018   -5868.2401 
   17300        0.173    387.15937    1.5332674 -0.020325244 -0.0051990511    200.12706   -13029.259   -5025.8105 
   17350       0.1735    385.15763    1.5110376 -0.036093519  -0.10308301    199.09234   -13028.855   -4572.8701 
   17400        0.174    390.57938    1.5910174 -0.0060414409  0.025585585     201.8949   -13032.353   -5368.5386 
   17450       0.1745     384.1063    1.5527367  0.056312722  0.040261646    198.54889   -13029.683   -5497.7035 
   17500        0.175    391.28815    1.4632812  0.087926805 0.0058239707    202.26127   -13034.099   -5190.1067 
   17550       0.1755    395.84288    1.4590561   0.07744611 -0.087129541    204.61566   -13037.179   -4831.2421 
   17600        0.176    395.75652    1.4574467 0.0016722445  -0.12201378    204.57102   -13037.887   -4457.0171 
   17650       0.1765    392.83818    1.4650782 -0.018908973 -0.037848887     203.0625   -13037.153   -4694.4012 
   17700        0.177    398.90382    1.6160879  0.095692735  0.055333214     206.1979   -13041.051   -5890.3797 
   17750       0.1775    402.05164    1.6190144  0.041591843   0.12626917    207.82504   -13043.454   -5956.2515 
   17800        0.178    406.51766    1.3685035  -0.06015576  0.045226521    210.13358   -13046.554   -4511.9142 
   17850       0.1785    403.12593    1.2814832  -0.15996605 -0.069381455    208.38036   -13045.607   -3507.1191 
   17900        0.179    403.86429     1.362311 -0.033662106  0.028568733    208.76202   -13046.859   -4524.0589 
   17950       0.1795    404.93553    1.4269753  0.056394132   0.13666424    209.31576   -13048.273   -5400.1122 
   18000         0.18    407.81479    1.3546732   0.13564015  0.061893527    210.80408   -13050.677   -5174.0228 
   18050       0.1805      411.591    1.2389993 -0.010407261  -0.05374392    212.75605   -13053.548   -3916.1603 
   18100        0.181    409.64188    1.1754713 -0.057073209  -0.20378237    211.74852   -13053.432   -3048.7192 
   18150       0.1815    411.17805    1.2158507  0.009822922 -0.056779603    212.54259   -13055.232   -3896.3133 
   18200        0.182    405.70759    1.2827927   0.11026115  0.084096093    209.71484   -13053.351   -4923.8331 
   18250       0.1825    414.08035    1.3014939  0.063108558   0.13471345    214.04282   -13058.655   -4997.7197 
   18300        0.183    411.14037    1.1682992   -0.1015738 -0.025194645    212.52311   -13058.092   -3471.7692 
   18350       0.1835    407.68327    1.1290221  -0.11180324 -0.074161023    210.73609   -13057.243   -3143.5262 
   18400        0.184    413.40339    1.1873292  0.031672072  0.061322204    213.69289   -13061.185    -4267.745 
   18450       0.1845    409.51187    1.1821528   0.13072436  0.020107133    211.68132   -13060.176   -4443.2809 
   18500        0.185     411.4069    1.0979031  0.067985641 -0.036154967    212.66088    -13062.21   -3765.7792 
   18550       0.1855    418.28181    1.0097126  0.017648244  -0.09057091     216.2146   -13066.824   -3122.6331 
   18600        0.186    415.78492   0.95073773 -0.074940763 -0.031755127    214.92393   -13066.586   -2813.4728 
   18650       0.1865     414.6891   0.96743062 -0.014297429 -0.011833429    214.35749   -13067.087   -3137.6659 
   18700        0.187    407.15103    1.0483484  0.025364924   0.10177936    210.46097   -13064.222   -3918.3091 
   18750       0.1875    417.02863    1.0167717 -0.039711883  0.048223459    215.56682   -13070.375    -3417.611 
   18800        0.188    414.42847    0.9619183 -0.049335527  0.018947268    214.22277   -13070.102   -3105.1001 
   18850       0.1885    418.13968   0.91723668  0.036316617 -0.062688048    216.14113   -13073.089   -2969.5508 
   18900        0.189    413.13697   0.95666965   0.08651165 -0.061218342    213.55518   -13071.573   -3273.2099 
   18950       0.1895    414.62588    1.0968674  0.075894004 0.0045338374    214.32481   -13073.424   -3924.3174 
   19000         0.19    404.68701    1.0785285 -0.049953746 -0.010254662     209.1873   -13069.318   -3394.4004 
   19050       0.1905     417.9898     1.167389 -0.037750638  0.063169018    216.06366   -13077.205   -3976.0246 
   19100        0.191    408.74635    1.0938976 -0.044617618   0.05119539    211.28562   -13073.469   -3668.2512 
   19150       0.1915    412.61364    1.1561929 -0.026460128 0.0098700505    213.28466   -13076.513   -3798.6761 
   19200        0.192    424.29872    1.2267294  0.020991878 -0.00087700265    219.32481   -13083.591   -4156.1477 
   19250       0.1925    413.85043    1.2587886  0.057799821 -0.079879113    213.92397   -13079.232   -4122.3643 
   19300        0.193    416.40341    1.3043736   0.12121524 -0.057169341    215.24364   -13081.596   -4561.3984 
   19350       0.1935    414.41568    1.3480591  0.039266983 -0.089024876    214.21615   -13081.651   -4327.6707 
   19400        0.194    416.73492     1.305128  0.022209319  0.052278979      215.415   -13083.883   -4598.7209 
   19450       0.1945    411.51137    1.2689652 -0.046798522  0.060517901    212.71489   -13082.152   -4275.6152 
   19500        0.195    409.75983    1.1540679 -0.038616738  0.067029986    211.80949   -13082.239   -3941.6039 
   19550       0.1955    408.79631    1.1350381 -0.013343913 -0.052341632    211.31144   -13082.765   -3564.5086 
   19600        0.196    410.44065    1.2025847 -0.046174651 -0.028864944    212.16142   -13084.609   -3758.4838 
   19650       0.1965    406.29645    1.2361511 0.0033384422  0.048176759    210.01923   -13083.467   -4292.2212 
   19700        0.197    411.18681     1.194101  0.066357446  0.078022778    212.54712   -13087.005    -4461.604 
   19750       0.1975    412.89506    1.1645585  0.025107153  -0.01793132    213.43013   -13088.926    -3905.781 
   19800        0.198    404.05349    1.0724971  -0.11986189  -0.12866493    208.85982   -13085.358   -2746.5677 
   19850       0.1985    406.43138    1.1333225  0.031244558 -0.083534394    210.08898   -13087.618   -3603.4424 
   19900        0.199    412.73965    1.2414044   0.13286855   0.08738096     213.3498   -13091.886   -4872.1798 
   19950       0.1995    410.58819    1.2056831   0.02645145   0.11659084    212.23768   -13091.811   -4495.7512 
   20000          0.2    410.43872    1.1150869 -0.084432827 -0.058750672    212.16042    -13092.73   -3239.6782 
Loop time of 257.859 on 4 procs for 20000 steps with 4000 atoms

Pair  time (%) = 232.692 (90.2401)
Neigh time (%) = 0.48288 (0.187265)
Comm  time (%) = 17.9213 (6.95004)
Outpt time (%) = 0.0637562 (0.0247252)
Other time (%) = 6.69877 (2.59785)

Nlocal:    1000 ave 1012 max 982 min
Histogram: 1 0 0 0 0 1 0 0 1 1
Nghost:    3723.25 ave 3736 max 3709 min
Histogram: 1 0 0 1 0 0 0 1 0 1
Neighs:    68902.8 ave 71691 max 65731 min
Histogram: 1 0 0 1 0 0 0 1 0 1
FullNghs:  0 ave 0 max 0 min
Histogram: 4 0 0 0 0 0 0 0 0 0

Total # of neighbors = 275611
Ave neighs/atom = 68.9027
Neighbor list builds = 85
Dangerous builds = 0

######################################
# SIMULATION DONE
print "All done"
All done
