LAMMPS (28 Jun 2014)
# Input file for uniaxial tensile loading of single crystal aluminum
# Mark Tschopp, November 2010

# ------------------------ INITIALIZATION ----------------------------
units 		metal
dimension	3
boundary	p	p	p
atom_style	atomic
variable latparam equal 4.05

# ----------------------- ATOM DEFINITION ----------------------------
lattice		fcc ${latparam}
lattice		fcc 4.05
Lattice spacing in x,y,z = 4.05 4.05 4.05
region		whole block 0 10 0 10 0 10
create_box	1 whole
Created orthogonal box = (0 0 0) to (40.5 40.5 40.5)
  1 by 2 by 2 MPI processor grid
lattice 	fcc ${latparam} orient x 1 0 0 orient y 0 1 0 orient z 0 0 1
lattice 	fcc 4.05 orient x 1 0 0 orient y 0 1 0 orient z 0 0 1
Lattice spacing in x,y,z = 4.05 4.05 4.05
create_atoms	1 region whole
Created 4000 atoms

# ------------------------ FORCE FIELDS ------------------------------
pair_style	eam/alloy
pair_coeff	* * Al99.ZeroFRho.PosRhoR.NegPhiR.eam.alloy Al

# ------------------------- SETTINGS ---------------------------------
compute csym all centro/atom fcc
compute peratom all pe/atom

######################################
# EQUILIBRATION
reset_timestep	0
timestep 0.001
velocity all create 300 12345 mom yes rot no
fix 1 all npt temp 300 300 1 iso 0 0 1 drag 1

# Set thermo output
thermo 1000
thermo_style custom step lx ly lz press pxx pyy pzz pe temp

# Run for at least 10 picosecond (assuming 1 fs timestep)
run 20000
Memory usage per processor = 3.04301 Mbytes
Step Lx Ly Lz Press Pxx Pyy Pzz PotEng Temp 
       0         40.5         40.5         40.5    2192.3321    2143.1989    2230.8629    2202.9344   -13449.904          300 
    1000    40.552753    40.552753    40.552753    857.52945    845.98439    829.68966    896.91429   -13371.007    165.27929 
    2000    40.566529    40.566529    40.566529    258.46142    190.90242    287.68815    296.79369   -13366.369     178.9198 
    3000    40.575443    40.575443    40.575443    96.731329    12.077015    191.82475    86.292227   -13359.873    189.34722 
    4000    40.583142    40.583142    40.583142    70.337636    22.280809    47.109644    141.62246   -13350.241    193.70529 
    5000    40.588158    40.588158    40.588158    175.76369    273.49424    234.48095    19.315877   -13344.138    204.63984 
    6000    40.595244    40.595244    40.595244    84.642303    81.510417   -13.103788    185.52028   -13337.239    213.52878 
    7000    40.603045    40.603045    40.603045   -35.837981   -58.227599     64.40564   -113.69198    -13331.57    224.04669 
    8000    40.608135    40.608135    40.608135   -14.003189   -66.892302     20.98705    3.8956856   -13328.874    239.30762 
    9000     40.61289     40.61289     40.61289    -17.96017   -73.049293    96.065323   -76.896541   -13325.983    252.99746 
   10000    40.621114    40.621114    40.621114   -74.429996   -54.104229    -48.02571   -121.16005    -13316.45    252.41244 
   11000    40.626084    40.626084    40.626084   -108.33873   -462.07069    136.26077   0.79372487   -13313.078    262.19206 
   12000    40.627211    40.627211    40.627211   -10.061671    92.954808   -30.467924   -92.671896   -13310.996    272.77903 
   13000    40.633027    40.633027    40.633027   -29.952804   -138.72042    -213.7304    262.59241   -13307.414    278.68855 
   14000    40.633533    40.633533    40.633533    135.03438    -109.0546    144.00594    370.15181   -13303.193     281.6178 
   15000    40.637559    40.637559    40.637559    178.24547    233.15935    122.35455    179.22252   -13299.938    284.70781 
   16000    40.637838    40.637838    40.637838    211.94592    383.37648    122.33817    130.12311   -13298.319    289.27307 
   17000    40.640098    40.640098    40.640098    104.02251    88.636725    151.23382    72.196973   -13299.369     297.4462 
   18000     40.64118     40.64118     40.64118    120.12113    70.449153    325.27182   -35.357583   -13297.309    298.12079 
   19000    40.648426    40.648426    40.648426   -257.24918   -298.45292   -362.48939   -110.80523     -13296.4    299.56789 
   20000    40.646427    40.646427    40.646427   -24.048692   -99.205872     84.99805   -57.938252    -13295.25    299.20805 
Loop time of 280.135 on 4 procs for 20000 steps with 4000 atoms

Pair  time (%) = 220.374 (78.6671)
Neigh time (%) = 0 (0)
Comm  time (%) = 42.9015 (15.3146)
Outpt time (%) = 0.00288439 (0.00102964)
Other time (%) = 16.8564 (6.01724)

Nlocal:    1000 ave 1000 max 1000 min
Histogram: 4 0 0 0 0 0 0 0 0 0
Nghost:    4235 ave 4235 max 4235 min
Histogram: 4 0 0 0 0 0 0 0 0 0
Neighs:    70000 ave 72653 max 67302 min
Histogram: 1 0 1 0 0 0 0 1 0 1
FullNghs:  0 ave 0 max 0 min
Histogram: 4 0 0 0 0 0 0 0 0 0

Total # of neighbors = 280000
Ave neighs/atom = 70
Neighbor list builds = 0
Dangerous builds = 0
unfix 1

# Store final cell length for strain calculations
variable tmp equal "lx"
variable L0 equal ${tmp}
variable L0 equal 40.6464267945167
print "Initial Length, L0: ${L0}"
Initial Length, L0: 40.6464267945167

######################################
# DEFORMATION
reset_timestep	0

fix		1 all npt temp 300 300 1 y 0 0 1 z 0 0 1 drag 1
variable srate equal 1.0e10
variable srate1 equal "v_srate / 1.0e12"
fix		2 all deform 1 x erate ${srate1} units box remap x
fix		2 all deform 1 x erate 0.01 units box remap x

# Output strain and stress info to file
# for units metal, pressure is in [bars] = 100 [kPa] = 1/10000 [GPa]
# p2, p3, p4 are in GPa
variable strain equal "(lx - v_L0)/v_L0"
variable p1 equal "v_strain"
variable p2 equal "-pxx/10000"
variable p3 equal "-pyy/10000"
variable p4 equal "-pzz/10000"
fix def1 all print 20 "${p1} ${p2} ${p3} ${p4}" file  Al99.ZeroFRho.PosRhoR.NegPhiR.eam.alloy.def1.txt screen no

# Use cfg for AtomEye
#dump 		1 all cfg 250 dump.tensile_*.cfg id type xs ys zs c_csym c_peratom fx fy fz
#dump_modify 1 element Al

# Display thermo
thermo 	1000
thermo_style	custom step v_strain temp v_p2 v_p3 v_p4 ke pe press

run		20000
Memory usage per processor = 3.04301 Mbytes
Step strain Temp p2 p3 p4 KinEng PotEng Press 
       0 6.9924251e-16    299.20805 0.0099205872 -0.008499805 0.0057938252    154.66403    -13295.25   -24.048692 
    1000         0.01     296.2642   0.63803586  0.021804173 -0.020445549    153.14232   -13291.133   -2131.3149 
    2000         0.02    301.74979    1.2835453 -0.043472801 -0.018844441    155.97788   -13288.598   -4070.7601 
    3000         0.03    296.47888    1.8977404 -0.016333947 -0.044814746    153.25329   -13277.776   -6121.9723 
    4000         0.04    300.75576    2.5032063 -0.00014126045 -0.013353829    155.46406   -13269.259   -8299.0373 
    5000         0.05    292.24051    3.1281496  0.016375651  0.019029101    151.06243   -13251.577   -10545.181 
    6000         0.06    299.39546     3.755939 -0.0021352589   0.01849361     154.7609   -13239.563   -12574.324 
    7000         0.07    298.65327    4.2812791 0.0034463505 -0.012750113    154.37725   -13221.054   -14239.918 
    8000         0.08    299.37118    4.8010178 -0.011224746 -0.046166717    154.74835   -13200.997   -15812.088 
    9000         0.09    298.20705    5.3789817 -0.021016484  0.029086293     154.1466   -13177.745   -17956.838 
   10000          0.1     295.1549    5.9173091 -0.012370177 -0.0031541784    152.56891   -13151.247   -19672.616 
   11000         0.11    299.15702      6.47265 -0.0023794462  0.016173702    154.63765   -13126.152   -21621.481 
   12000         0.12    294.39119     6.992054  0.027435309 0.0063316362    152.17414   -13094.382   -23419.403 
   13000         0.13    291.51097    7.3577245 -0.00044059266 -0.025809765    150.68532   -13061.494   -24438.247 
   14000         0.14    295.78864    7.8092943  0.001273519  0.014532256     152.8965   -13030.389   -26083.667 
   15000         0.15    297.50305    7.3803839  0.030327656  0.066484467    153.78269   -12996.814   -24923.987 
   16000         0.16     392.3548    2.0825843 -0.039152954  -0.05567097    202.81264   -13037.013   -6625.8679 
   17000         0.17    406.43187    1.6304175   0.10517309  -0.05518849    210.08924   -13057.564   -5601.3403 
   18000         0.18    414.61795    1.6233439  0.061874566   0.08231331    214.32071   -13080.061   -5891.7725 
   19000         0.19    413.58579    1.2291162 -0.0024950788  0.029492371    213.78718   -13099.493   -4187.0451 
   20000          0.2     407.8337    1.1794839  0.043899803 -0.033566034    210.81386   -13116.902    -3966.059 
Loop time of 407.23 on 4 procs for 20000 steps with 4000 atoms

Pair  time (%) = 299.149 (73.4594)
Neigh time (%) = 0.566523 (0.139116)
Comm  time (%) = 74.3812 (18.2651)
Outpt time (%) = 0.0429549 (0.0105481)
Other time (%) = 33.0906 (8.12577)

Nlocal:    1000 ave 1006 max 997 min
Histogram: 2 0 0 1 0 0 0 0 0 1
Nghost:    3756 ave 3772 max 3738 min
Histogram: 1 0 0 0 1 0 1 0 0 1
Neighs:    69129 ave 70636 max 67863 min
Histogram: 2 0 0 0 0 0 0 1 0 1
FullNghs:  0 ave 0 max 0 min
Histogram: 4 0 0 0 0 0 0 0 0 0

Total # of neighbors = 276516
Ave neighs/atom = 69.129
Neighbor list builds = 87
Dangerous builds = 0

######################################
# SIMULATION DONE
print "All done"
All done
