LAMMPS (28 Jun 2014)
# Input file for uniaxial tensile loading of single crystal aluminum
# Mark Tschopp, November 2010

# ------------------------ INITIALIZATION ----------------------------
units 		metal
dimension	3
boundary	p	p	p
atom_style	atomic
variable latparam equal 4.05

# ----------------------- ATOM DEFINITION ----------------------------
lattice		fcc ${latparam}
lattice		fcc 4.05
Lattice spacing in x,y,z = 4.05 4.05 4.05
region		whole block 0 10 0 10 0 10
create_box	1 whole
Created orthogonal box = (0 0 0) to (40.5 40.5 40.5)
  1 by 2 by 2 MPI processor grid
lattice 	fcc ${latparam} orient x 1 0 0 orient y 0 1 0 orient z 0 0 1
lattice 	fcc 4.05 orient x 1 0 0 orient y 0 1 0 orient z 0 0 1
Lattice spacing in x,y,z = 4.05 4.05 4.05
create_atoms	1 region whole
Created 4000 atoms

# ------------------------ FORCE FIELDS ------------------------------
pair_style	eam/alloy
pair_coeff	* * Al99.PosFRho.NegRhoR.NegPhiR.eam.alloy Al

# ------------------------- SETTINGS ---------------------------------
compute csym all centro/atom fcc
compute peratom all pe/atom

######################################
# EQUILIBRATION
reset_timestep	0
timestep 0.001
velocity all create 300 12345 mom yes rot no
fix 1 all npt temp 300 300 1 iso 0 0 1 drag 1

# Set thermo output
thermo 1000
thermo_style custom step lx ly lz press pxx pyy pzz pe temp

# Run for at least 10 picosecond (assuming 1 fs timestep)
run 20000
Memory usage per processor = 3.04301 Mbytes
Step Lx Ly Lz Press Pxx Pyy Pzz PotEng Temp 
       0         40.5         40.5         40.5    2154.6883    2105.5551    2193.2191    2165.2906   -13445.584          300 
    1000    40.552185    40.552185    40.552185    856.59245    845.16839    828.68446    895.92451   -13366.678    165.27799 
    2000     40.56595     40.56595     40.56595     257.6725    189.44556    287.94822     295.6237   -13362.051     178.9407 
    3000    40.574868    40.574868    40.574868    96.441366    11.704134     191.0162    86.603763   -13355.523    189.30559 
    4000    40.582581    40.582581    40.582581    71.356053    22.553446    48.024459    143.49025   -13345.895     193.6703 
    5000    40.587639    40.587639    40.587639    171.05189    271.94358      229.891    11.321092    -13339.81    204.63999 
    6000    40.594712    40.594712    40.594712    82.274292    74.223336      -11.785    184.38454   -13332.917    213.54066 
    7000    40.602518    40.602518    40.602518   -38.870811   -64.157645    61.584636   -114.03942   -13327.194    223.95307 
    8000    40.607731    40.607731    40.607731   -29.831517   -83.274628     1.487569   -7.7074927   -13324.725    239.65082 
    9000    40.612333    40.612333    40.612333   -18.217927   -65.852458    99.436067   -88.237389   -13321.566    252.82323 
   10000    40.620634    40.620634    40.620634   -85.679487   -67.246664   -61.328112   -128.46369   -13312.242    252.64116 
   11000    40.625866    40.625866    40.625866   -122.60716   -471.86038    132.68226   -28.643366   -13308.729    262.14936 
   12000    40.626605    40.626605    40.626605    7.0352214    107.68049   -13.553118   -73.021711    -13306.83    273.08726 
   13000    40.632153    40.632153    40.632153   -29.497515   -154.21995   -167.57471    233.30211   -13303.282    279.06018 
   14000    40.633017    40.633017    40.633017    110.97829   -116.64874     153.7276    295.85602   -13299.176    282.21694 
   15000    40.637055    40.637055    40.637055    170.32903    137.92385    105.46741    267.59582   -13295.734    284.94833 
   16000    40.636746    40.636746    40.636746    132.53929    297.26326     143.8734   -43.518778   -13295.872    292.92517 
   17000    40.640448    40.640448    40.640448     61.18265    134.82728    112.54663   -63.825952    -13296.25    299.81125 
   18000    40.642362    40.642362    40.642362   -1.5792418   -19.926623    105.11115   -89.922255   -13293.887    299.85362 
   19000    40.644306    40.644306    40.644306   -85.860842    38.323052   -248.31342    -47.59216   -13293.922    303.14974 
   20000     40.64623     40.64623     40.64623   -104.29782   -190.89688    -220.5339    98.537323   -13291.495    300.32947 
Loop time of 303.954 on 4 procs for 20000 steps with 4000 atoms

Pair  time (%) = 230.207 (75.7374)
Neigh time (%) = 0 (0)
Comm  time (%) = 52.0538 (17.1255)
Outpt time (%) = 0.00366217 (0.00120484)
Other time (%) = 21.6899 (7.1359)

Nlocal:    1000 ave 1000 max 1000 min
Histogram: 4 0 0 0 0 0 0 0 0 0
Nghost:    4235 ave 4235 max 4235 min
Histogram: 4 0 0 0 0 0 0 0 0 0
Neighs:    70000 ave 72653 max 67302 min
Histogram: 1 0 1 0 0 0 0 1 0 1
FullNghs:  0 ave 0 max 0 min
Histogram: 4 0 0 0 0 0 0 0 0 0

Total # of neighbors = 280000
Ave neighs/atom = 70
Neighbor list builds = 0
Dangerous builds = 0
unfix 1

# Store final cell length for strain calculations
variable tmp equal "lx"
variable L0 equal ${tmp}
variable L0 equal 40.6462300458827
print "Initial Length, L0: ${L0}"
Initial Length, L0: 40.6462300458827

######################################
# DEFORMATION
reset_timestep	0

fix		1 all npt temp 300 300 1 y 0 0 1 z 0 0 1 drag 1
variable srate equal 1.0e10
variable srate1 equal "v_srate / 1.0e12"
fix		2 all deform 1 x erate ${srate1} units box remap x
fix		2 all deform 1 x erate 0.01 units box remap x

# Output strain and stress info to file
# for units metal, pressure is in [bars] = 100 [kPa] = 1/10000 [GPa]
# p2, p3, p4 are in GPa
variable strain equal "(lx - v_L0)/v_L0"
variable p1 equal "v_strain"
variable p2 equal "-pxx/10000"
variable p3 equal "-pyy/10000"
variable p4 equal "-pzz/10000"
fix def1 all print 20 "${p1} ${p2} ${p3} ${p4}" file  Al99.PosFRho.NegRhoR.NegPhiR.eam.alloy.def1.txt screen no

# Use cfg for AtomEye
#dump 		1 all cfg 250 dump.tensile_*.cfg id type xs ys zs c_csym c_peratom fx fy fz
#dump_modify 1 element Al

# Display thermo
thermo 	1000
thermo_style	custom step v_strain temp v_p2 v_p3 v_p4 ke pe press

run		20000
Memory usage per processor = 3.04301 Mbytes
Step strain Temp p2 p3 p4 KinEng PotEng Press 
       0 6.9924589e-16    300.32947  0.019089688   0.02205339 -0.0098537323    155.24371   -13291.495   -104.29782 
    1000         0.01    298.03431   0.64102162  0.030958124  0.012586573    154.05731    -13287.76   -2281.8877 
    2000         0.02    298.96984    1.2841002 -0.024161754 0.0042209934    154.54089   -13282.801   -4213.8649 
    3000         0.03    300.01297    1.9089637 -0.018769401  0.014298754     155.0801   -13275.273   -6348.3101 
    4000         0.04    304.15922    2.5426178  0.018985927  0.033712536    157.22334   -13266.715   -8651.0541 
    5000         0.05    299.27128    3.1066102 0.0097585682 -0.020165819    154.69671   -13250.909   -10320.676 
    6000         0.06    296.42521    3.6991219 -0.0026412609 -0.033343786    153.22555   -13233.644   -12210.456 
    7000         0.07    300.19806    4.2922392 -0.00082706926  0.014604477    155.17578    -13217.49   -14353.389 
    8000         0.08    296.92715    4.8456513 -0.006519499  0.018949637      153.485   -13195.402   -16193.605 
    9000         0.09     296.5235    5.3864562  -0.01659124 -0.00093328412    153.27635   -13172.491   -17896.439 
   10000          0.1    296.62697    5.9281185 -0.014018566 -0.0090281498    153.32984   -13147.669   -19683.572 
   11000         0.11    293.46006    6.4201332 -0.032827725 -0.017732742    151.69283   -13118.912   -21231.909 
   12000         0.12    295.31361    6.9520162 -0.014445726 -0.044584619    152.65095   -13090.489   -22976.619 
   13000         0.13    300.24149    7.4221115  0.037466805 0.0039731459    155.19822   -13061.665   -24878.505 
   14000         0.14    293.08395    7.8110421  0.048787747     0.014998    151.49841   -13024.674   -26249.426 
   15000         0.15    289.95943     8.042097   0.01392833 -0.042094134    149.88331    -12988.08   -26713.104 
   16000         0.16    381.79598    3.4483865  0.029191175 -0.043034276    197.35466   -13007.743   -11448.478 
   17000         0.17    418.67523    1.6370792 -0.043105816  0.087441637    216.41797   -13038.359   -5604.7169 
   18000         0.18    408.43543    1.5150618  0.069697702 -0.0069452098    211.12489   -13051.973   -5259.3809 
   19000         0.19     399.0139    1.9173179 -0.023170417  0.031749675     206.2548   -13063.911   -6419.6573 
   20000          0.2    384.00146    1.9590617  0.018735407 -0.054972421     198.4947   -13069.754   -6409.4155 
Loop time of 296.935 on 4 procs for 20000 steps with 4000 atoms

Pair  time (%) = 256.525 (86.391)
Neigh time (%) = 0.462809 (0.155862)
Comm  time (%) = 30.2374 (10.1832)
Outpt time (%) = 0.00274849 (0.00092562)
Other time (%) = 9.70685 (3.26902)

Nlocal:    1000 ave 1006 max 996 min
Histogram: 1 1 0 0 0 1 0 0 0 1
Nghost:    3737.5 ave 3755 max 3723 min
Histogram: 1 0 0 1 1 0 0 0 0 1
Neighs:    68849.2 ave 70343 max 67199 min
Histogram: 1 0 1 0 0 0 0 0 1 1
FullNghs:  0 ave 0 max 0 min
Histogram: 4 0 0 0 0 0 0 0 0 0

Total # of neighbors = 275397
Ave neighs/atom = 68.8492
Neighbor list builds = 79
Dangerous builds = 0

######################################
# SIMULATION DONE
print "All done"
All done
