
# ----------------------- ATOM DEFINITION ----------------------------
lattice		fcc ${latparam}
lattice		fcc 4.05
Lattice spacing in x,y,z = 4.05 4.05 4.05
region		whole block 0 10 0 10 0 10
create_box	1 whole
Created orthogonal box = (0 0 0) to (40.5 40.5 40.5)
  1 by 2 by 2 MPI processor grid
lattice 	fcc ${latparam} orient x 1 0 0 orient y 0 1 0 orient z 0 0 1
lattice 	fcc 4.05 orient x 1 0 0 orient y 0 1 0 orient z 0 0 1
Lattice spacing in x,y,z = 4.05 4.05 4.05
create_atoms	1 region whole
Created 4000 atoms

# ------------------------ FORCE FIELDS ------------------------------

#****************USE THIS TO TEST******************
pair_style	eam/rad
pair_coeff 		* * Al99.PC0.05.eam.alloy.rad.txt Al # pc = 0.5   error generating

# to test with error = 0 use this potential
# pair_coeff	* * Al99.eam.alloy.005pcrad_NULL_noerror Al

#****************USE THIS TO RUN REFRENCE***********
# pair_style	eam/alloy
# pair_coeff	* * Al99.eam.alloy Al

# ------------------------- SETTINGS ---------------------------------
compute csym all centro/atom fcc
compute peratom all pe/atom

######################################
# EQUILIBRATION
reset_timestep	0
timestep	0.001 # default
# timestep	0.0001 # tiny time step
velocity all create 300 12345 mom yes rot no
fix 1 all npt temp 300 300 1 iso 0 0 1 drag 1

# Set thermo output
thermo 50
# thermo 1 # debug mode

# thermo_style custom step lx ly lz press pxx pyy pzz pe temp
# IMPLEMENTATION HERE

# VERSION add rad variables .v1 .v2
# thermo_style custom step lx ly lz press pxx pyy pzz pxxrad pyyrad pzzrad pe temp

# VERSION ublb separation .v3
thermo_style custom step lx ly lz press pxx pxxrad pyy pyyrad pzz pzzrad pe temp

# Run for at least 10 picosecond (assuming 1 fs timestep)
run 	20000 # default
Memory usage per processor = 5.63763 Mbytes
Step Lx Ly Lz Press Pxx Pxxrad Pyy Pyyrad Pzz Pzzrad PotEng Temp 
       0         40.5         40.5         40.5    2496.1233    2446.9902    242.99145    2534.6541    242.99145    2506.7256     485.9829       -13440          300 
      50      40.5611      40.5611      40.5611    907.43706    837.10986    318.16965    946.43161    127.58431    938.76971    485.11082   -13338.819    103.27149 
     100    40.636867    40.636867    40.636867   -4611.4186   -4606.0751    696.03459   -4633.2987     166.0307   -4594.8821    477.07462   -13373.529    171.80729 
     150    40.566371    40.566371    40.566371    544.64066    509.57779    212.46946    622.24374    157.19046    502.10046    483.42748   -13348.908    124.16109 
     200    40.511722    40.511722    40.511722    3547.2897    3643.2596   -109.58798    3485.9867    597.35858    3512.6228    488.21779   -13355.216     137.9072 
     250    40.565785    40.565785    40.565785    166.93066    90.523527    323.83278    218.10474    180.05683    192.16371    483.29345   -13359.502    146.72328 
     300    40.611235    40.611235    40.611235   -2466.5664   -2412.8394    110.97884   -2483.9007   -12.717382   -2502.9592     479.6236   -13360.111    149.21075 
     350    40.571353    40.571353    40.571353   -408.34084   -482.42607    282.20752   -346.38838     191.2351   -396.20806     482.5716   -13367.339    163.76556 
     400    40.532306    40.532306    40.532306    2225.5431    2279.8069    409.94797    2296.6157    211.54628    2100.2067    486.35093   -13359.854    150.41108 
     450    40.566044    40.566044    40.566044    2.0377845   -40.092854    157.75432   -31.888362    346.94307     78.09457    483.21555    -13363.08    157.36643 
     500    40.595966    40.595966    40.595966   -1611.3461   -1655.3283    447.90743   -1479.2164    88.872285   -1699.4934    480.77961   -13359.404    151.32857 
     550    40.570848    40.570848    40.570848   -161.85418   -150.03728    412.62087   -167.20465    400.54629   -168.32062    482.78612   -13360.736    154.75593 
     600    40.545092    40.545092    40.545092    1385.8336    1414.2998    403.44569    1433.0694    77.262121    1310.1316    484.93086   -13361.915    158.16074 
     650    40.566235    40.566235    40.566235    212.56633    184.02753    386.59913    245.48283    428.79459    208.18862    483.59211   -13358.104    151.74194 
     700    40.589999    40.589999    40.589999   -1217.4105   -1343.5854    11.869727   -1126.2179    228.46332   -1182.4283    481.38664   -13360.206    156.93263 
     750    40.572933    40.572933    40.572933   -250.38158   -286.45411    500.08735   -263.19279    516.73388   -201.49783    482.63508   -13360.538    158.57849 
     800    40.551356    40.551356    40.551356    1208.6566    1078.2928    417.72278    1322.2307    397.61017    1225.4462    484.80532   -13357.161    153.20685 
     850    40.567647    40.567647    40.567647     35.88215    27.354765    260.45149    95.437303    281.62605   -15.145617    483.07974   -13362.171    163.91834 
     900    40.586566    40.586566    40.586566   -905.95525   -936.83022    357.27896   -840.20578    130.02689   -940.82976    481.58708   -13360.501    161.82509 
     950    40.575685    40.575685    40.575685   -242.27646    -258.0676    429.23398   -191.53537   -16.324712    -277.2264    482.74165   -13355.043     152.3172 
    1000    40.557624    40.557624    40.557624    865.78368    854.28577    442.19015     838.0004    76.299464    905.06486    484.05583   -13361.124    165.23426 
    1050    40.567354    40.567354    40.567354    296.20892     232.8234    353.73092     412.4804    260.04208    243.32297    483.56603   -13352.949    150.47937 
    1100    40.584443    40.584443    40.584443   -762.38408   -853.89575    33.815707   -674.30507    49.809389   -758.95143    481.60778   -13360.466    166.16585 
    1150    40.575983    40.575983    40.575983    -142.2806   -201.77341    233.18043   -30.014093    396.65511    -195.0543    482.56689    -13353.75    154.27323 
    1200    40.562401    40.562401    40.562401    595.06575    539.95132    518.72734    625.63845   -21.280226    619.60749    483.68124    -13359.83    167.17798 
    1250    40.569413    40.569413    40.569413    166.79261    92.903564    194.83268    250.18713    91.633703    157.28713    483.27168   -13356.017    160.90148 
    1300    40.581899    40.581899    40.581899   -560.61752   -582.11355    316.27877   -449.93781    154.05984   -649.80119    482.21789   -13357.596    165.08945 
    1350    40.575948    40.575948    40.575948    -187.6128   -340.24911    42.144152   -119.43237    8.4038531   -103.15693     482.6362   -13356.829    164.72703 
    1400    40.566127    40.566127    40.566127    565.86425    499.12344    296.72286    641.64272    102.92824    556.82658    483.65309   -13354.386    161.14085 
    1450    40.572988    40.572988    40.572988    -8.561472    -54.13345    466.21123   -9.1404528    532.34769    37.589487    482.77901   -13356.765    166.86433 
    1500    40.579794    40.579794    40.579794   -267.41446   -332.77441     46.18898   -176.15609    127.84602   -293.31287    482.41218   -13353.672    162.03422 
    1550    40.576834    40.576834    40.576834   -220.87916   -335.60203    642.91619   -207.98546     182.2416   -119.05001    482.49966    -13357.33    170.23169 
    1600     40.56902     40.56902     40.56902    377.81634    358.40758    330.67957    458.79305     136.9044    316.24838    483.36745   -13352.705    162.42694 
    1650    40.573333    40.573333    40.573333    121.60248    65.830518    430.33823    161.88969    371.81674    137.08722    482.97592     -13355.4    168.76756 
    1700    40.580701    40.580701    40.580701   -351.25931   -404.48696   -9.8737198   -356.71365    498.76114   -292.57732    482.42116   -13352.169    163.67705 
    1750    40.576849    40.576849    40.576849   -32.167301   -50.678233   -67.574207   -63.920617    277.01456    18.096946    482.57569   -13355.552    171.33506 
    1800    40.570697    40.570697    40.570697    303.86959    205.87186    55.525243    337.67696    177.56471    368.05996    483.35797   -13351.254    164.18628 
    1850    40.573832    40.573832    40.573832    241.25661    160.65476    163.21462    291.81867    155.75748    271.29639    482.94426   -13351.989    166.73526 
    1900    40.582525    40.582525    40.582525   -408.49907   -517.11515    153.17103    -372.3218    468.00041   -336.06028    482.07288    -13355.88     175.4205 
    1950    40.579035    40.579035    40.579035   -121.18037    -78.31077     312.2459   -80.564036    610.70797    -204.6663    482.61306   -13350.032    165.23107 
    2000     40.57151     40.57151     40.57151    262.28188    197.36064    173.53285    289.69509    221.02559     299.7899    482.93296   -13356.433    178.77171 
    2050     40.57415     40.57415     40.57415    291.00696    438.91963    393.29551    282.96388    270.16723    151.13737    483.11983   -13349.034    165.59547 
    2100    40.583714    40.583714    40.583714   -349.64824   -571.69905    173.75208   -278.61218    400.12549   -198.63349    481.98023    -13352.82     174.0797 
    2150    40.580896    40.580896    40.580896   -115.46102   -185.78203    339.24544   -83.935203    177.80793   -76.665824     482.7233   -13348.342    166.55152 
    2200    40.573232    40.573232    40.573232    266.96923    327.53375    154.33637    145.53519     377.4321    327.83874    482.87626   -13352.358    175.46306 
    2250    40.574827    40.574827    40.574827    151.21048    253.25725    506.10237    168.12758    286.37907    32.246605    482.92337   -13351.993    175.91954 
    2300    40.582519    40.582519    40.582519   -229.92012   -262.55007   -70.268129   -227.80284    417.26643   -199.40745    482.18537   -13351.098    175.32277 
    2350    40.582472    40.582472    40.582472   -261.47493   -230.22332    385.54686   -223.18601    356.43745   -331.01546     482.2365   -13351.015     176.3209 
    2400    40.575117    40.575117    40.575117    304.99838    318.71288    361.70731    230.82389    302.23489    365.45835    483.07437    -13348.88    173.33846 
    2450    40.576041    40.576041    40.576041    115.98281   -49.519186    140.06284    231.81908    191.00423    165.64854    482.83437   -13349.774    176.22576 
    2500    40.581993    40.581993    40.581993    -86.32248   -223.14465    307.35251   -50.962736    187.28421    15.139951    482.52054   -13348.601    175.08643 
    2550    40.583873    40.583873    40.583873   -280.78867    -329.5054    62.126813   -351.60669    350.94634   -161.25393    482.20895   -13350.803    180.51146 
    2600    40.577203    40.577203    40.577203    317.49535    231.68198    4.2237485    393.67729    321.10924    327.12677    482.92079    -13345.69    171.77884 
    2650    40.578933    40.578933    40.578933    13.030925    144.96731    309.75988   -44.713472    11.777995   -61.161069    482.66585   -13350.912    183.01571 
    2700    40.583518    40.583518    40.583518   -174.83865   -293.93299    30.365091   -111.84152    108.61494   -118.74145    482.41845   -13346.798    176.21518 
    2750    40.582481    40.582481    40.582481   -39.748764   -65.184794    170.72839    -87.13603    333.98188    33.074533    482.45881   -13348.669    180.97912 
    2800    40.578705    40.578705    40.578705    108.86451   -19.945463    583.49661    191.66526    176.89784    154.87373    482.86355   -13346.376    177.70923 
    2850    40.579322    40.579322    40.579322    124.53218    81.912131    511.54886    124.60452    338.32887     167.0799    482.78161   -13349.584    185.05983 
    2900    40.584645    40.584645    40.584645   -69.825092    -152.5521    482.32809   -33.708358    392.89099   -23.214815    482.36089   -13345.868     179.0187 
    2950    40.585359    40.585359    40.585359   -182.56258   -154.04171    103.63866   -313.08375   -37.753924   -80.562296    482.29217   -13345.484    179.44392 
    3000    40.580393    40.580393    40.580393    103.06038     17.74205     167.3423    199.86076    279.82333    91.578338    482.67738   -13349.988    189.30398 
    3050    40.580507    40.580507    40.580507    62.168107    44.094515    190.53105    20.509683    9.6768625    121.90012    482.60674   -13345.218    181.21565 
    3100    40.584708    40.584708    40.584708   -107.42179   -223.08689    360.85328   -59.455111    455.64911   -39.723375    482.39778   -13347.434     186.6605 
    3150    40.585857    40.585857    40.585857   -139.90607   -193.02274    345.26746   -102.84206    118.54368    -123.8534     482.1991   -13344.327    181.78994 
    3200    40.582817    40.582817    40.582817    56.136466   -25.815173    264.60529    83.857537     148.4117    110.36703    482.42351   -13346.758    187.66531 
    3250    40.582883    40.582883    40.582883    202.40337    154.08445    303.44222    136.98617    265.09688    316.13948    482.60349   -13343.925    183.32635 
    3300    40.587578    40.587578    40.587578    -209.4339   -371.94849    726.85014   -87.698913    304.24043   -168.65429    481.99873   -13345.062    186.68197 
    3350    40.586577    40.586577    40.586577   -9.0566859   -69.573038       83.252   -16.305688    424.63587    58.708669    482.20897    -13343.41    184.64018 
    3400    40.584833    40.584833    40.584833    -4.464904   -169.79656    343.72329    46.672382    199.26028    109.72947     482.2733   -13346.346    191.46455 
    3450    40.585451    40.585451    40.585451    9.8032381   -98.559471    274.57052    71.647379    437.71808    56.321806    482.15295   -13344.024    188.12534 
    3500    40.587697    40.587697    40.587697   -73.255431   -198.59139    82.280114   -60.277768    233.21705    39.102863    481.97823   -13344.644    190.47515 
    3550    40.586958    40.586958    40.586958    -56.96485   -70.538578    130.69223    6.9900731    -92.12482   -107.34605    482.23403   -13342.497     187.4769 
    3600    40.585183    40.585183    40.585183    109.67337    96.750394    574.07428    58.529928    372.21444    173.73977    482.43321   -13342.391    188.41229 
    3650    40.586887    40.586887    40.586887   -3.9723187   -11.668849   -2.2488983   -45.333257   -27.818488    45.085149    482.19591   -13342.044    188.88701 
    3700    40.588496    40.588496    40.588496   -27.142131   -83.336603    50.975243   -12.131481    281.51058    14.041689    482.03609   -13342.511    190.95338 
    3750    40.588371    40.588371    40.588371   -6.0911329    43.936973    297.91868   -56.088694    522.60007   -6.1216783    481.95622   -13342.317    191.72699 
    3800    40.587518    40.587518    40.587518    21.179747   -96.321442    536.49079    156.68462    303.45463    3.1760619    482.18629    -13342.31    192.86572 
    3850    40.588168    40.588168    40.588168    103.71552    51.378646    292.62439    75.437151    468.25461    184.33078    482.26236   -13339.435    188.43341 
    3900    40.590071    40.590071    40.590071   -61.991803    41.084916     19.16558   -163.63867    453.88306   -63.421652    481.96137   -13340.244    191.15887 
    3950     40.58905     40.58905     40.58905    26.629811   -116.89505    456.16832    111.68117   -10.880589    85.103306    482.19439   -13340.459    192.71663 
    4000     40.58814     40.58814     40.58814    64.030856    18.996702    440.40575    37.882754    -51.87586    135.21311    482.16655   -13340.476    193.89746 
    4050     40.58928     40.58928     40.58928    51.730888    26.058107    331.30039    48.279046    561.39315    80.855511    482.04729   -13339.217    192.61086 
    4100    40.591447    40.591447    40.591447    -69.41407   -80.629256    57.098006   -72.506139    481.83473   -55.106814     481.8204   -13342.948    200.98044 
    4150    40.591167    40.591167    40.591167     -59.3496   -170.66274    203.32477   -23.297654    455.73124    15.911595    481.90829    -13338.58    193.66416 
    4200    40.589402    40.589402    40.589402    126.45049    102.31182    652.40162    28.361074    116.72153    248.67858    482.15039   -13337.074    191.89142 
    4250    40.590375    40.590375    40.590375   -5.8786185    -95.14102    57.293018    71.464313    268.08513    6.0408519    481.97543   -13339.822    198.35283 
    4300    40.592312    40.592312    40.592312   -99.932489   -134.35608    220.34106   -92.003546    334.69084   -73.437843    481.84014   -13339.728    199.31371 
    4350    40.591432    40.591432    40.591432    30.669897   -17.453823      358.853    116.38325    454.86816   -6.9197307    482.03993   -13337.239    195.64072 
    4400    40.590868    40.590868    40.590868    6.1809803   -68.690877    553.05289    32.701826    30.793008    54.531992    481.98976   -13340.043     202.2069 
    4450    40.592123    40.592123    40.592123   -2.7294806    31.335042   -25.013425   -35.521345    216.12047   -4.0021387    482.02699   -13337.875    199.15199 
    4500    40.593642    40.593642    40.593642   -65.462705    36.313648    473.71276   -97.154892    343.62827   -135.54687    481.80113    -13337.41     199.3838 
    4550    40.592338    40.592338    40.592338   -64.277171   -161.69941    545.98277   -86.840811   -16.866209    55.708711    481.93337   -13338.207    202.07086 
    4600    40.590278    40.590278    40.590278     249.1077    320.61637    440.92132    284.38178    467.14493    142.32493    482.29188   -13335.472    197.91016 
    4650    40.594313    40.594313    40.594313   -36.483052   -43.388388    369.71196     7.304162    180.23939   -73.364929    481.68914   -13336.259    200.57068 
    4700    40.596271    40.596271    40.596271   -162.12355   -160.59482    172.26276   -175.19352    183.05883   -150.58232    481.65667   -13336.155    201.50807 
    4750    40.592916    40.592916    40.592916    73.064448    98.496599    454.70802    218.68878   -16.043081   -97.992039    481.74368   -13336.665     203.6226 
    4800    40.592243    40.592243    40.592243    93.558524    177.60258     147.8107   -87.323114    152.41979    190.39611    481.85996   -13336.604    204.63746 
    4850    40.595451    40.595451    40.595451    4.2171739   -108.36622   -47.264569    56.758562   -172.52213    64.259175    481.77654   -13334.982    202.63372 
    4900     40.59738     40.59738     40.59738   -207.49532   -38.513481   -221.42022   -236.77389    508.73643   -347.19859    481.58086   -13335.657    205.06988 
    4950    40.592949    40.592949    40.592949    160.16595    79.901741    24.077762    153.84852    379.99385    246.74758    482.15525   -13333.532    202.08895 
    5000    40.593071    40.593071    40.593071    183.41074     268.5787    723.79229     243.1868   -79.140857    38.466717    481.98539   -13334.242    204.58527 
    5050    40.598517    40.598517    40.598517   -115.69735   -166.07939    412.73767     -169.547    268.50372   -11.465649    481.56293   -13334.019    205.27643 
    5100     40.59878     40.59878     40.59878   -111.70343    -8.370906    378.90962   -166.12906    445.93089   -160.61033    481.41075   -13332.452    203.37832 
    5150    40.594255    40.594255    40.594255    96.931121    101.97383   -6.5388205    87.628943   -316.44629    101.19059    481.80283   -13334.964    209.35602 
    5200    40.594043    40.594043    40.594043    196.29774    273.67141    74.074304    221.69784    562.12477    93.523963    481.75616   -13335.021    210.58986 
    5250     40.59947     40.59947     40.59947   -89.380203   -116.97376    499.97002   -109.49403    581.93671    -41.67282    481.41728   -13330.257    202.50162 
    5300    40.599859    40.599859    40.599859   -145.25531   -136.63669    81.887258   -209.45351   -159.74616   -89.675735    481.38993   -13332.957    208.84095 
    5350    40.595213    40.595213    40.595213    222.90062    257.82359    537.80242    316.73027    245.80889    94.147998    481.72426   -13332.065    208.23568 
    5400    40.596174    40.596174    40.596174    152.99394    182.46696    506.74407    168.26953   -407.13626    108.24535    481.84233   -13331.528    208.31029 
    5450    40.601169    40.601169    40.601169   -137.60144   -286.80303    797.98104   -30.046473    333.68978   -95.954809    481.30248   -13330.969    208.33875 
    5500    40.601195    40.601195    40.601195   -223.23281   -155.64611    309.95863   -294.77355   -198.12527   -219.27877    481.22369   -13333.433    214.21786 
    5550    40.595615    40.595615    40.595615    182.19163    236.97313    485.75828    219.29512    253.10957    90.306631    481.70199   -13332.625    213.77091 
    5600     40.59647     40.59647     40.59647    157.71549    95.081188    55.912086    126.56426    443.29894    251.50101    481.84128    -13331.02    211.77575 
    5650    40.602086    40.602086    40.602086   -122.48126   -162.13077    510.99488   -127.35932    333.26053   -77.953682    481.52317   -13328.959    208.89658 
    5700    40.602031    40.602031    40.602031   -129.57349   -144.97713    63.483486    -92.19506    502.80074   -151.54828    481.22524   -13330.973    213.90323 
    5750    40.597351    40.597351    40.597351    249.95841     130.2933    261.47602    256.42866    598.25022    363.15327    481.75299   -13329.355    211.87752 
    5800    40.599001    40.599001    40.599001    81.368288    70.461749     146.0203    220.52608    186.72089   -46.882963    481.65144    -13329.51    213.28364 
    5850    40.603186    40.603186    40.603186   -204.96413   -200.81552    -126.4322   -191.63639    401.05291   -222.44049    481.21536   -13330.974    217.21937 
    5900    40.602446    40.602446    40.602446   -126.97389   -248.41884    716.21524   -16.958909   -113.43273   -115.54392    481.33475    -13329.54    215.52932 
    5950    40.598403    40.598403    40.598403     257.9828    272.70332      311.167    348.64877    97.475732    152.59632    481.66633   -13327.614    212.91421 
    6000     40.60021     40.60021     40.60021    86.846298    101.33594    80.853246   -18.435667    513.41883    177.63862    481.47884   -13327.324    213.44455 
    6050     40.60381     40.60381     40.60381     -147.965   -193.76594    156.03641   -73.546053    304.70749   -176.58301    481.16334   -13330.172    220.05867 
    6100    40.602318    40.602318    40.602318    -26.95951    24.115571    221.68894    -126.5007    575.01941    21.506596    481.50967   -13327.624    216.21915 
    6150    40.600005    40.600005    40.600005    91.858136   -57.062472     -126.892     204.7372     285.1528    127.89968    481.52282   -13329.971    221.84627 
    6200    40.601871    40.601871    40.601871     18.81411    18.213485       97.458    68.835547   -160.36676   -30.606703    481.52176   -13326.581     216.3745 
    6250    40.604737    40.604737    40.604737   -124.00793   -72.865587    175.78521   -231.27249    422.29039   -67.885715    481.19452    -13327.32    218.88695 
    6300    40.603226    40.603226    40.603226    38.479186    -71.27144    241.05439     210.4996    177.56607   -23.790601    481.26065   -13327.339     220.0188 
    6350    40.602348    40.602348    40.602348    53.655171    168.57174    589.31572   -65.580559    550.57536    57.974335    481.32095   -13327.803    222.00053 
    6400    40.604389    40.604389    40.604389   -55.165601   -243.02272    3.9107358    81.803234    108.20585   -4.2773159    481.25984    -13327.19    221.89227 
    6450    40.605242    40.605242    40.605242   -103.23012   -18.394609    437.57429   -201.09066    151.44357   -90.205083    481.37538   -13326.925    222.45568 
    6500    40.603815    40.603815    40.603815    39.068389   -146.98714   -223.94407     -28.4868   -126.59413    292.67911    481.38654   -13326.809    223.30103 
    6550     40.60387     40.60387     40.60387    22.403565    29.280286    -138.8593    75.786435    147.25889   -37.856025    481.36904   -13324.708    220.30764 
    6600     40.60543     40.60543     40.60543    36.934272   -27.131059    528.49794    31.251669    369.60494     106.6822     481.0581   -13325.152    222.24729 
    6650    40.606492    40.606492    40.606492    27.935899   -38.026677    106.73102    291.58289    109.48592   -169.74852    481.15102   -13323.272    219.68455 
    6700    40.605902    40.605902    40.605902   -2.8302171   -32.479587    386.20884   -15.290284    433.35559    39.279221    481.10683   -13325.483    225.03079 
    6750    40.605041    40.605041    40.605041    116.28823    11.166754    51.792894    118.66357   -127.36971    219.03438    481.36171     -13324.7    224.58162 
    6800    40.606317    40.606317    40.606317   -94.135085   -116.06994    215.86081   -53.083775    193.22452   -113.25154    481.26703   -13324.612    225.46738 
    6850    40.606909    40.606909    40.606909   -131.72414   -177.87527    412.07714   -112.67255    405.42161   -104.62461    481.14173   -13327.361    231.83937 
    6900    40.606457    40.606457    40.606457    38.770044   -42.543621   -26.948465    139.77117    517.33452    19.082584    481.10392    -13323.81    226.02987 
    6950    40.607088    40.607088    40.607088    -35.87355   -57.864929    456.82174   -99.363756   -65.433464    49.608035    480.95543   -13325.976    231.28561 
    7000    40.607798    40.607798    40.607798   -21.517973   -27.074967     145.0795    68.888779     89.87995   -106.36773    481.08476   -13321.758    224.17335 
    7050    40.608361    40.608361    40.608361   -85.333283   -62.294957   -154.80185   -78.471956   -58.695698   -115.23294    481.03842   -13324.227    229.99186 
    7100    40.607551    40.607551    40.607551  -0.32340728   -15.680349   -77.682874    51.728357    601.40081    -37.01823    481.09016   -13323.223    229.10019 
    7150     40.60782     40.60782     40.60782    20.921777    45.317835   -304.55494   -55.509065    371.39206    72.956561    481.05301   -13323.207    230.11782 
    7200    40.609482    40.609482    40.609482   -77.821672   -101.91746    824.76004    4.9611119    54.043901   -136.50867    480.96295   -13323.495    231.72021 
    7250    40.609913    40.609913    40.609913    50.433017   0.56460385    193.38641    75.008988    194.36219     75.72546    480.88704   -13321.183    228.29296 
    7300     40.60956     40.60956     40.60956    -69.90714   -13.571925    206.00079   -179.09254    607.75798   -17.056953    480.88592   -13321.826    230.56804 
    7350    40.608273    40.608273    40.608273    147.86894    124.22491    45.986165    181.66507    163.35812    137.71684     481.0387   -13319.822    227.72576 
    7400     40.61072     40.61072     40.61072   -38.902497   -22.541514    412.05447   -63.916036     97.71497   -30.249939    480.89862   -13321.343    231.69891 
    7450      40.6122      40.6122      40.6122   -125.41163   -226.57028    121.93029    -33.61997     319.7846   -116.04465    480.63694   -13322.895    235.72868 
    7500    40.610108    40.610108    40.610108   0.23229987   -85.457416    672.95786    5.8911509    60.038727    80.263165    480.86557   -13321.055    233.20319 
    7550    40.608593    40.608593    40.608593    216.78304    152.03962   -53.078497    265.65517    236.34074    232.65434    481.14493   -13319.725    231.64868 
    7600    40.612333    40.612333    40.612333   -46.447022   -71.347699    95.395613    11.081953     462.4335    -79.07532    480.65004    -13319.66    232.54909 
    7650    40.614101    40.614101    40.614101    8.5688691   -63.097679    333.96881    126.74828     149.1087   -37.943999    480.65649   -13317.293     228.9811 
    7700    40.612387    40.612387    40.612387   -98.768505   -57.973541    220.83242   -144.42907    459.37706   -93.902904     480.7443   -13319.588    234.44054 
    7750    40.607968    40.607968    40.607968    199.50031    202.77634    466.38158    254.41477     370.1966    141.30983    480.96475   -13320.441    237.10839 
    7800    40.611213    40.611213    40.611213    10.113906    81.539417   -166.47032    -64.43268    230.14895     13.23498    480.84988   -13320.135    237.51591 
    7850    40.615802    40.615802    40.615802    -190.8177   -123.93483    458.62392   -155.49397    254.90107   -293.02431    480.57899   -13316.958    232.37563 
    7900    40.614071    40.614071    40.614071   -62.814506    -179.3342    308.57938   -47.023971     426.1876    37.914647    480.62954   -13319.654    238.59408 
    7950    40.610522    40.610522    40.610522     61.91862    100.38714    345.45985    136.28653    71.901518   -50.917809    480.97769   -13320.447    241.13365 
    8000    40.612416    40.612416    40.612416    54.480615    36.677358    -182.8849    96.889371    535.64346    29.875117    480.87414   -13318.108    237.59574 
    8050    40.616739    40.616739    40.616739   -201.42892   -220.49972    28.661495   -266.56184   -50.747768   -117.22521    480.45781   -13317.484     237.3978 
    8100    40.613917    40.613917    40.613917   -29.516087   -62.473189    104.71436    8.6103831   -128.60427   -34.685456    480.53201   -13318.824    240.98117 
    8150    40.611079    40.611079    40.611079    233.41268     250.2191    768.76181    199.26147    821.36338    250.75748     480.9576   -13316.499    237.46563 
    8200    40.615557    40.615557    40.615557   -73.482497   -143.76325    16.010078    121.83238    102.71712   -198.51662    480.46864   -13318.206    241.75524 
    8250    40.618041    40.618041    40.618041   -99.554299    28.475224    241.50699   -164.46411    217.08965   -162.67401    480.39953    -13314.28    235.13872 
    8300    40.614975    40.614975    40.614975    28.031927   -144.03934    257.24664    205.83186    439.09387    22.303256    480.60229   -13316.211    239.85171 
    8350    40.611951    40.611951    40.611951    171.74974    263.70158    368.30775    140.68604    -12.09872    110.86162    480.98773   -13316.616    241.61323 
    8400    40.614453    40.614453    40.614453    143.17086  -0.11537715    45.247237    138.95256    190.69258     290.6754    480.65195   -13313.361    236.28983 
    8450    40.618979    40.618979    40.618979   -283.99859   -222.64095    291.75969   -181.34927    575.62646   -448.00554     480.4157   -13317.732     245.7156 
    8500    40.615661    40.615661    40.615661   -29.771671   -69.689884    161.23487    -99.93417   -157.68866    80.309039    480.56525    -13315.56    242.47643 
    8550     40.61192     40.61192     40.61192    275.83701    274.34212   -566.35312    321.67168    94.886484    231.49724    480.82219   -13315.123     242.6027 
    8600    40.616597    40.616597    40.616597   -150.21221    -307.5939    382.78999    22.330695    595.11095   -165.37342    480.33167   -13317.089    247.35868 
    8650     40.61938     40.61938     40.61938   -70.949903   -188.44591    478.26208   -23.889919     466.2402  -0.51388247    480.36498   -13313.832    242.01927 
    8700    40.618511    40.618511    40.618511   -118.97868   -41.616921    446.75473   -90.616415    439.93652   -224.70272    480.43548   -13314.804    244.84642 
    8750    40.615356    40.615356    40.615356    184.70792    24.093517    217.99338    267.47839    10.465239    262.55184    480.60517   -13312.664    241.65958 
    8800     40.61578     40.61578     40.61578    49.124551    51.019324    805.47813    85.170428    542.98557    11.183902    480.67206   -13313.827    244.86054 
    8850    40.617841    40.617841    40.617841   -30.004023   -14.969104    468.05443    14.218623    647.11599   -89.261589    480.43563    -13314.23    246.57563 
    8900    40.618905    40.618905    40.618905   -196.67237   -69.287145    368.37577   -267.14581    670.83688   -253.58416     480.2952   -13315.482    249.94202 
    8950    40.616633    40.616633    40.616633    113.56155     17.70615    172.83936    205.62112     378.1358    117.35737    480.55037   -13312.174    244.47327 
    9000    40.617981    40.617981    40.617981   -5.3782871   -96.290796    99.441632    102.10605    123.21104   -21.950111    480.29088   -13315.903    252.62496 
    9050    40.620148    40.620148    40.620148   -48.644761    26.770246    860.89923   -95.187336   -65.849598   -77.517195    480.39187   -13311.498    245.02404 
    9100    40.620057    40.620057    40.620057   -49.592958   -174.28861    508.77212   -33.121107    583.90068    58.630846    480.23191   -13312.283    247.47347 
    9150     40.61758     40.61758     40.61758    150.26405    225.47259   -100.54679    101.73932    172.77225    123.58025    480.60911   -13310.095    244.16108 
    9200     40.61774     40.61774     40.61774    72.268147    41.329583    595.57685    38.217779   -54.271635    137.25708    480.54031   -13311.689    248.16871 
    9250    40.619622    40.619622    40.619622   -84.083887   -149.79255    686.80215    -69.87264    476.53816   -32.586469    480.22411   -13311.349    248.42467 
    9300    40.619538    40.619538    40.619538    119.50181    125.80622    226.22885     23.83651    149.92628    208.86271    480.44121   -13311.853    250.31265 
    9350    40.620623    40.620623    40.620623   -23.026387   -212.93313    773.24856    47.062092    425.82091    96.791877    480.34987   -13310.946    249.45277 
    9400    40.621651    40.621651    40.621651   -110.30374    55.349363    309.71323   -308.53971    259.12387   -77.720873    480.24601    -13310.94    250.34293 
    9450    40.620796    40.620796    40.620796    119.80518    22.147835    470.16214    168.09362    281.16814    169.17409    480.29091   -13308.678    246.86507 
    9500    40.621436    40.621436    40.621436   -77.654363   -94.095478    418.13954   -169.62014   -8.2096948    30.752526    480.25479   -13312.361    254.89143 
    9550    40.620956    40.620956    40.620956    80.176844   -81.439503    129.67946    171.10941    121.95368    150.86063    480.29352   -13310.642     252.4677 
    9600    40.623082    40.623082    40.623082   -100.37971   -50.707541    139.18737   -83.798674    402.05235   -166.63292    480.18939   -13311.014    254.06807 
    9650     40.62368     40.62368     40.62368   -96.708169   -111.18675    139.29029   -146.71085    292.74263   -32.226906    480.02572   -13309.976    252.94982 
    9700    40.621786    40.621786    40.621786    25.766695   -101.68196     503.6757    193.85198    108.14969   -14.869939    480.30992   -13311.217    256.23031 
    9750    40.621617    40.621617    40.621617    63.783347    45.223363    87.019272    18.202269    294.19854    127.92441    480.20773   -13309.015    252.84887 
    9800    40.623567    40.623567    40.623567    30.108544   -256.64207    424.39123    218.38384    99.867428    128.58387    480.02008   -13308.817     253.3361 
    9850    40.625018    40.625018    40.625018   -209.09391   -204.87145   -114.14298   -333.00963    423.70199   -89.400642    479.82498    -13310.94    258.31262 
    9900    40.622237    40.622237    40.622237    148.31384    127.49748     248.6298    211.31408    806.91119    106.12996    480.35496   -13307.278    252.08567 
    9950    40.623383    40.623383    40.623383     1.582774    69.834119    422.06381   -163.62004    103.63846    98.534248    480.00378   -13310.401     258.9926 
   10000     40.62607     40.62607     40.62607   -49.067764   -32.888182    612.92284    31.781308    128.09478   -146.09642    480.03457   -13306.221    251.76572 
   10050    40.625601    40.625601    40.625601   -111.26613   -260.75667     647.5626   -93.751589    89.145476    20.709871    479.88395   -13309.037    258.07207 
   10100     40.62165     40.62165     40.62165    194.77386    28.814092    154.75259    505.48434    309.96572    50.023147    480.25168   -13308.396    257.68142 
   10150    40.623957    40.623957    40.623957    148.65111    67.804204    614.01364    36.673761    183.95339    341.47535    480.13494   -13305.783    253.47093 
   10200    40.629076    40.629076    40.629076   -266.31898   -507.92354    101.79848   -161.58297    117.62378   -129.45043    479.61793     -13308.7    259.95316 
   10250    40.626239    40.626239    40.626239    139.51768    308.09578    259.28648    15.774635    2.9656992    94.682613    480.05161    -13303.86    251.42496 
   10300    40.624167    40.624167    40.624167     -32.4434   -82.799664    262.28312   -62.479318     134.9404    47.948784    479.96683   -13309.107    262.41275 
   10350    40.623612    40.623612    40.623612     175.4361    204.33298    893.18977      258.726    394.59253     63.24931    480.06659   -13305.282     255.8423 
   10400    40.627102    40.627102    40.627102   -209.12009   -222.42107    404.25847   -245.20351    100.83734   -159.73569    479.82456   -13309.194    264.24465 
   10450    40.626953    40.626953    40.626953   -37.296466   -132.87675    -245.8569     82.48944    333.64642   -61.502083    480.01431   -13306.088    259.05202 
   10500    40.625844    40.625844    40.625844     3.606221    -58.26973    231.76474   -86.758565    234.17833    155.84696    479.96085   -13306.912    261.45961 
   10550    40.625595    40.625595    40.625595    111.78184    112.94411    466.50403    309.47861    314.52799   -87.077194     480.0141    -13304.68    257.95671 
   10600    40.628278    40.628278    40.628278   -8.4171661     70.80722    440.67029   -24.293744    317.47872   -71.764974    479.80777    -13304.87    259.13252 
   10650    40.629525    40.629525    40.629525    -76.00165    29.818683   -2.6634062    -84.45566    190.48869   -173.36797    479.69396   -13304.625    259.46901 
   10700    40.627011    40.627011    40.627011    47.009139   -16.427123    98.682044    162.61651    135.67352   -5.1619706    479.79884   -13306.004    262.94252 
   10750    40.625683    40.625683    40.625683    101.81504    128.92511    342.21756    169.09554    294.19465    7.4244807    480.19982   -13304.619    261.05812 
   10800    40.628883    40.628883    40.628883   -57.759356   -232.59692    82.691178   -42.288746    356.86077     101.6076    479.70805   -13305.472    263.48864 
   10850    40.630171    40.630171    40.630171   -214.60569     -342.753    202.72515   -101.34117    332.34392    -199.7229    479.54096   -13305.818    264.95585 
   10900    40.625775    40.625775    40.625775    151.63751    78.462207    298.55836    158.15176    532.50935    218.29857    479.99469   -13303.888    262.00642 
   10950    40.625825    40.625825    40.625825    156.99311    351.87784    322.67039    28.857647    131.11648    90.243849    480.06216   -13304.334    263.65212 
   11000    40.629465    40.629465    40.629465   -4.6147152   -257.73613    186.13161    122.77483    148.34754    121.11715     479.7872   -13303.002    261.85318 
   11050    40.631044    40.631044    40.631044   -216.10871   -397.60634   -78.916648   -158.54736    143.27459   -92.172443    479.59517   -13305.477     267.4096 
   11100    40.628304    40.628304    40.628304   -8.2088922    -27.43093    380.36048   -7.8096948    174.75121    10.613949    479.79955   -13304.539    266.35772 
   11150    40.626833    40.626833    40.626833    47.524497   -24.750529    403.86995    171.35739    5.3705081   -4.0333658    479.79842   -13304.416    266.89007 
   11200    40.628827    40.628827    40.628827    66.135866   -26.759252     378.3424    -54.27607   -7.8833072    279.44292    479.82699   -13302.796     264.5124 
   11250    40.631237    40.631237    40.631237   -205.72997   -313.74178    38.757873   -196.51809    369.46852   -106.93004    479.50572   -13303.694    267.01032 
   11300    40.627988    40.627988    40.627988    145.36804    303.85977    374.75371    46.112924    12.898857    86.131426    479.93563   -13301.625    263.75624 
   11350    40.627598    40.627598    40.627598    123.42655    49.406004    146.15196     151.7312    483.88936    169.14245    479.73745     -13302.5    266.19717 
   11400    40.631013    40.631013    40.631013   -77.358293   -166.48749    237.57661    -50.58186    305.74416   -15.005531    479.67785   -13302.024    266.01716 
   11450    40.632363    40.632363    40.632363   -19.472944    -90.11872    476.13894   -33.678407     -143.745    65.378293    479.48697    -13300.91    264.60553 
   11500    40.630696    40.630696    40.630696   -3.0508462   -160.00149    219.49625    48.513397    101.78142    102.33555    479.49362   -13301.475    266.43476 
   11550    40.628804    40.628804    40.628804    126.34517    150.27522   -15.791771    126.02328    308.79017    102.73703    479.85342   -13302.117    268.41079 
   11600    40.630261    40.630261    40.630261    73.233627   -189.57979    375.96013    117.34552   -54.034868    291.93515    479.64835   -13300.928    266.82904 
   11650    40.634013    40.634013    40.634013   -181.24677   -102.18677    447.01022   -93.849952    272.59536   -347.70358    479.35518   -13302.663    270.90194 
   11700    40.633111    40.633111    40.633111   -58.957529   -187.11382    46.075847   -111.76711    502.81196    122.00834    479.45624   -13300.459     267.3539 
   11750    40.630416    40.630416    40.630416    24.711564   -45.483729    357.41755    126.59345    336.11867   -6.9750275    479.64764   -13302.282    271.58763 
   11800     40.63046     40.63046     40.63046    26.762155   -93.700409    119.30681     19.32279    512.24073    154.66408    479.47679   -13302.153    272.05155 
   11850    40.633042    40.633042    40.633042   -87.038853   -104.27361    328.67625    -134.4311    338.11956   -22.411855    479.55283   -13300.574    269.69782 
   11900    40.633192    40.633192    40.633192   -79.570443    23.165684    259.00118   -28.753296   -200.77514   -233.12372    479.47664   -13299.843    268.98867 
   11950    40.631173    40.631173    40.631173    118.26227     10.00073    261.00999    122.41582    44.378365    222.37025    479.56102   -13301.134    272.18158 
   12000    40.632786    40.632786    40.632786   -78.056303    59.459661    617.80007   -129.93546    944.34801   -163.69311     479.4049   -13301.306    273.20595 
   12050    40.633253    40.633253    40.633253   -112.85073   -227.21485    630.71953   -134.45662    141.15482    23.119281    479.47296   -13301.911    275.06268 
   12100    40.631762    40.631762    40.631762    74.823908    125.98572   -282.34179   -51.757588    384.35563     150.2436    479.57873   -13300.219    272.47072 
   12150    40.632564    40.632564    40.632564    51.699905    67.557455    13.887327    36.367176    152.04321    51.175083    479.61464   -13299.354    271.46837 
   12200    40.635215    40.635215    40.635215   -52.400902   -178.48675    799.40762   -65.642467   -123.49213    86.926515    479.40829   -13298.614    270.70756 
   12250    40.635432    40.635432    40.635432   -130.77979   -126.65134   -3.0736786   -32.035334    382.38633   -233.65269    479.27014   -13301.017    276.02303 
   12300    40.632938    40.632938    40.632938    135.49607    51.613656    15.650362    68.905016   -5.9937151    285.96953    479.54974   -13298.193     271.2239 
   12350      40.6338      40.6338      40.6338    110.79204   -4.0624609    322.72776    156.24311   -222.23092    180.19546    479.38646   -13298.862    273.17917 
   12400    40.636491    40.636491    40.636491   -84.226133   -156.34843    151.92987   -53.223318     487.4103   -43.106656     479.2331   -13298.516    273.16508 
   12450     40.63608     40.63608     40.63608   -105.43112   -113.94969    59.033054    31.671273    470.89891   -234.01495    479.26356   -13299.057    274.85802 
   12500     40.63349     40.63349     40.63349    73.301941   -126.24504  -0.99618065     99.61075    128.49382    246.54011    479.35108   -13299.132    275.65091 
   12550    40.634765    40.634765    40.634765    108.36807    158.23465    180.17877    4.7940989    571.22337    162.07545    479.50675   -13297.624     273.3763 
   12600    40.638009    40.638009    40.638009   -209.13169   -344.18259    932.42438   -95.649934    -171.3475   -187.56254    479.11623   -13298.598     275.8979 
   12650    40.635318    40.635318    40.635318    42.289504    47.830192    217.15605   -45.030418    406.39597    124.06874    479.45946   -13299.196    277.68473 
   12700    40.634776    40.634776    40.634776    50.474438   -38.278257   -304.95213    52.429299    584.37655    137.27227    479.36455    -13298.83    277.60061 
   12750    40.637413    40.637413    40.637413   -54.674044    116.52329    576.58773   -89.556189   -111.35752   -190.98924    479.21002   -13297.222    275.11887 
   12800    40.637637    40.637637    40.637637    17.392318    -212.4068    134.94264    113.15086   -73.755881     151.4329    479.15566   -13296.433    274.21775 
   12850    40.636444    40.636444    40.636444   -3.2089293    27.118558    265.22126   -64.830864    117.39729    28.085518    479.34879   -13296.615    275.18459 
   12900    40.635496    40.635496    40.635496    112.85919   -16.130395    469.17322    171.77843    203.11972    182.92953    479.36966   -13296.632    275.83382 
   12950     40.63761     40.63761     40.63761    70.575063    60.800672   -24.478601    54.946595    567.92033    95.977923    479.29102   -13296.897    276.95357 
   13000    40.639634    40.639634    40.639634   -170.17992   -259.99103    157.86722   -351.17303    629.78851    100.62431    478.92183   -13298.108    279.90085 
   13050    40.637291    40.637291    40.637291   -3.4885987   -69.042692   -58.410307    144.65744    584.02136   -86.080541    479.22333    -13297.37    279.07051 
   13100    40.635236    40.635236    40.635236    285.64911    315.25233    247.59659    260.62272   -220.69226    281.07229    479.41371   -13293.252    271.69647 
   13150    40.639057    40.639057    40.639057   -181.74363   -167.99126   -102.03562   -151.01727    829.24984   -226.22236    478.92522   -13298.159     281.7789 
   13200     40.63981     40.63981     40.63981    56.183701   -181.40784    237.54685    247.79395    535.75908      102.165    478.93426   -13294.232    274.76961 
   13250    40.638489    40.638489    40.638489   -86.426982   -235.51017   -68.635968   -189.17544     184.3158    165.40466    479.22398   -13297.241    281.17201 
   13300    40.635856    40.635856    40.635856    92.943918    58.114107    461.16712    243.30267    196.30687    -22.58502    479.46065   -13296.341    280.00382 
   13350    40.637821    40.637821    40.637821   -11.807637   -71.060899    460.30808   -55.137929    478.47856    90.775916     479.2006   -13297.248    282.32932 
   13400    40.640089    40.640089    40.640089   -244.51189   -222.86359     365.3156   -325.95106    5.1465573     -184.721    479.04477   -13296.377    281.21349 
   13450    40.637708    40.637708    40.637708    224.67057    299.08332    348.63516    228.42859    572.55082     146.4998    479.16955   -13293.736    276.66879 
   13500    40.638508    40.638508    40.638508   -35.183139   -224.25489    715.03641   -23.668273    178.70589    142.37375    478.95668    -13294.82     279.3269 
   13550    40.638004    40.638004    40.638004   -29.545736   -110.31045    126.80339    48.517033    10.797297   -26.843796    479.07606   -13296.986    284.07303 
   13600    40.637313    40.637313    40.637313    2.9985382    -20.30025    703.69642   -156.28401    791.78726    185.57988    479.27145   -13296.215    283.12797 
   13650    40.638396    40.638396    40.638396   -14.068008   -114.53994    502.37068    18.101605    597.74132    54.234306    479.24141   -13294.578    280.50422 
   13700     40.63977     40.63977     40.63977   -24.028045   -31.566892     853.8691   -88.182613    560.00183     47.66537    479.20699   -13294.035    279.99381 
   13750     40.63924     40.63924     40.63924    52.050265    -17.10691    147.33943   -89.977532    -571.5145    263.23524    479.20026   -13293.941    280.34795 
   13800    40.638391    40.638391    40.638391    110.32958    153.57904    631.66675  -0.92167679    34.278669    178.33139    479.28908   -13292.726    278.53424 
   13850    40.638572    40.638572    40.638572     76.64713   -45.554201   -238.04271    116.22915    376.62759    159.26645    479.21932   -13294.325    282.15374 
   13900    40.640473    40.640473    40.640473     9.791836   -57.548615     491.4161    19.475116     649.6875    67.449007    478.91829   -13293.875     281.8037 
   13950    40.642547    40.642547    40.642547   -155.24301   -131.91731   -73.815304   -131.80256    300.46199   -202.00915    478.68158   -13295.158    284.80494 
   14000     40.64039     40.64039     40.64039   -35.655012   -332.61646    126.59231     52.87647    642.90752    172.77495    479.17692   -13293.769    282.62806 
   14050    40.638549    40.638549    40.638549    49.507167    87.248983    174.14012    4.9390984    369.86173    56.333419    479.31271   -13295.744    286.96311 
   14100    40.639947    40.639947    40.639947      2.72087    13.003139    450.77152   -31.598315   -147.29915    26.757785    479.06198   -13294.216    284.51509 
   14150    40.641101    40.641101    40.641101    30.233658   -3.9348283    160.87285    187.21131    378.26004   -92.575504    478.86754   -13291.686    280.12516 
   14200    40.641083    40.641083    40.641083   -50.158484   -149.02153    285.10937   -41.156181    17.457007    39.702255    478.98621   -13294.162    285.40899 
   14250    40.641189    40.641189    40.641189    22.345014    12.646576    123.64454   -142.41608    282.26696    196.80455    479.09578   -13294.206    285.98202 
   14300    40.641404    40.641404    40.641404    104.07924    43.143855    704.62467    68.220708   -95.533656    200.87317    479.03564   -13290.024    278.38251 
   14350    40.641892    40.641892    40.641892    -1.845087   -72.708735    802.23892   -198.09654    475.79652    265.27002    478.95001   -13293.086    284.79306 
   14400    40.641417    40.641417    40.641417   -36.180675   -153.97295    454.60949   -44.451724    392.71788    89.882649    479.01958   -13295.188     289.3449 
   14450    40.640686    40.640686    40.640686    108.74009    143.41713   -211.90302    101.92335    443.50938    80.879783    478.97303   -13291.498    282.67855 
   14500    40.643262    40.643262    40.643262   -14.583012    32.320591    440.85477   -48.607513   -265.95645   -27.462113    478.83677   -13292.327    284.74998 
   14550    40.642986    40.642986    40.642986   -37.790055   -226.65181    577.86654     65.67136   -331.66785     47.61028    478.87898   -13292.161    284.89494 
   14600    40.640718    40.640718    40.640718    64.243243    64.196799      534.201   -6.1570565   -58.691366    134.68999     479.1634   -13292.745    286.48662 
   14650    40.641474    40.641474    40.641474    18.583595    65.058129     259.3902   -126.14258    355.79325    116.83524    479.11501   -13292.072    285.64295 
   14700    40.643283    40.643283    40.643283   -80.770125     20.17634    125.08198   -145.49623    921.90457   -116.99048    478.96618   -13293.395    288.65391 
   14750      40.6432      40.6432      40.6432    18.825638    12.131751    699.95716   -5.8742923    313.39971    50.219456    478.94113    -13291.05    284.57408 
   14800    40.641828    40.641828    40.641828    59.688144     13.38137    1127.3399   -6.9829497   -571.29393    172.66601    478.98902   -13291.847    286.56654 
   14850    40.641895    40.641895    40.641895    66.260735    -31.36407    456.39677    59.560317    71.535888    170.58596    479.03466   -13291.946     287.1986 
   14900    40.644253    40.644253    40.644253    -137.8918   -28.810621    96.191425   -283.00416   -503.19377   -101.86061    478.76185   -13293.074    289.82247 
   14950    40.643903    40.643903    40.643903   -25.902299   -149.35746    377.77271   -19.989706    206.45897     91.64027    478.92312   -13291.409    287.03537 
   15000    40.641649    40.641649    40.641649     121.2001    369.62337    233.50847   -105.35529    310.20396    99.332208    478.94248    -13291.13    286.92694 
   15050    40.640804    40.640804    40.640804    124.25808    130.95532    267.17708    266.91166   -184.28941   -25.092751    479.18908   -13290.189    285.52842 
   15100    40.643721    40.643721    40.643721    68.421529    56.283599    234.85318    34.445267   -384.80638    114.53572    478.78231    -13289.81    285.21211 
   15150    40.646227    40.646227    40.646227   -260.38134   -424.20211    471.78482   -211.45708    326.67028   -145.48484    478.62047   -13291.683    289.25668 
   15200    40.641762    40.641762    40.641762    130.30459    204.55067    665.68305    116.31639    263.89545    70.046715    479.07194   -13290.562    287.49797 
   15250    40.641099    40.641099    40.641099    98.566659     46.09651    555.23193    79.674937    461.91452    169.92853    479.03352   -13292.078    290.84329 
   15300    40.644544    40.644544    40.644544   -118.84699    75.931577    272.06775   -140.47862    497.46039   -291.99393    478.87907   -13292.477    292.02294 
   15350    40.645904    40.645904    40.645904   -177.19528   -169.86276    691.93525   -274.56886     152.5243   -87.154236    478.92371   -13291.589    290.70199 
   15400    40.643297    40.643297    40.643297    83.933268    152.76898    849.20073      41.9908    12.001166    57.040018     478.9991   -13289.785    287.61095 
   15450    40.643212    40.643212    40.643212   -47.128333    -3.393349    -289.4384   -127.31612    565.72155   -10.675524     478.6894   -13293.994    296.15045 
   15500    40.644556    40.644556    40.644556   -10.913815    130.34848    298.00095   -50.513648    177.94105   -112.57628    478.92423   -13289.964    288.73837 
   15550    40.645592    40.645592    40.645592   -114.97909   -134.85099    507.86214   -47.571431     52.12818   -162.51484    478.76462   -13290.329    289.82883 
   15600    40.643746    40.643746    40.643746    55.880874    222.32778    470.47082   -81.345277     46.01526    26.660114    478.76084   -13290.832    291.18802 
   15650    40.643304    40.643304    40.643304    147.72957    187.86622    560.10228    99.284361    834.10253    156.03812    478.86235   -13288.079    286.24089 
   15700    40.645435    40.645435    40.645435   -95.613541    108.29415    743.97053   -140.73087   -8.4651751    -254.4039    478.67059   -13291.127    292.51058 
   15750    40.645221    40.645221    40.645221   -119.59063   -210.43333     752.7149     -83.1876   -133.57874   -65.150955    478.92377    -13290.72    292.09127 
   15800     40.64282     40.64282     40.64282    128.44945    151.43527    725.30385   -10.250141    231.33382    244.16322    478.99836   -13290.004    291.06987 
   15850    40.643562    40.643562    40.643562    255.12946    184.87633     -306.182    204.18276    151.85544    376.32928    478.99009    -13286.28     284.2209 
   15900    40.648933    40.648933    40.648933   -203.49251    -85.01199   -142.79822   -224.27456    236.43202   -301.19097    478.59764   -13289.703    291.20079 
   15950    40.647235    40.647235    40.647235   -177.93799   -277.47371    599.55846   -130.23204    672.06489   -126.10822    478.64752   -13291.204    294.46058 
   16000    40.641642    40.641642    40.641642    253.28201    245.03511    152.05626    116.57843    -163.9135    398.23248    479.05184   -13290.572    293.59034 
   16050     40.64468     40.64468     40.64468    44.585677   -2.5265583    -153.7666    193.21688   -5.4609607   -56.933291    478.86224   -13289.491    291.84188 
   16100    40.648092    40.648092    40.648092   -96.521565   -56.646929    159.78191   -213.35102    393.06028   -19.566745    478.64074   -13287.606    288.53645 
   16150    40.646183    40.646183    40.646183   -124.85479    -223.7641    612.58646    -140.8099    340.94207   -9.9903647    478.70748   -13291.657    296.70436 
   16200    40.643683    40.643683    40.643683    260.25256    311.88632   -71.732687    121.74351    220.40881    347.12785    478.99402   -13286.817    287.67145 
   16250    40.647248    40.647248    40.647248   -64.881933    27.348632    38.426957   -187.98853    291.09911   -34.005901    478.60787   -13289.246    292.70305 
   16300    40.647707    40.647707    40.647707   -300.11993   -413.03993     444.4043   -163.64314    341.67766    -323.6767    478.47703   -13292.628    299.56755 
   16350    40.643982    40.643982    40.643982     184.8353    291.46572    387.95713    92.583257    94.651311    170.45693    478.77733   -13288.662    292.21654 
   16400    40.646359    40.646359    40.646359   -120.05301   -36.129501   -290.29347   -117.08587    243.50166   -206.94367    478.56885   -13290.463    296.02097 
   16450    40.646194    40.646194    40.646194     131.3871    117.35014   -166.92432    123.33839   -1.7637605    153.47277     478.6205   -13286.527    288.71751 
   16500    40.645997    40.645997    40.645997    19.115891    199.68744    523.41456   -44.688078   -166.58238   -97.651693    478.57392   -13287.923    291.72469 
   16550    40.645018    40.645018    40.645018      139.161    245.82592     324.2803    67.598466    436.35626     104.0586    478.85704   -13286.999    290.23117 
   16600    40.646961    40.646961    40.646961   -47.628543   -26.188985    151.21864   -115.06211    206.15355   -1.6345282    478.67886   -13288.658    293.73898 
   16650    40.647639    40.647639    40.647639   -163.65753   -132.37627    524.69452   -199.92358    312.64164   -158.67272    478.47018   -13289.088    294.86789 
   16700    40.644928    40.644928    40.644928    90.328838    3.7104478    320.83467    156.31857    -170.8957     110.9575    478.75176   -13289.441    295.84883 
   16750    40.645008    40.645008    40.645008    66.487621    308.01568    154.42208   -9.2102034    188.93168   -99.342608    478.85581   -13287.397    292.18604 
   16800    40.646982    40.646982    40.646982   -28.647079    -1.732685   -184.02625   -113.97574    415.00754    29.767187    478.55206   -13288.147    293.92404 
   16850    40.647575    40.647575    40.647575   -113.98103   -112.42947   -24.130116   -158.39772   -85.861017   -71.115905    478.64026   -13289.385     296.6021 
   16900     40.64558     40.64558     40.64558    185.06392    171.88758     227.0889    257.47412    617.18231    125.83005    478.75746   -13286.361    291.02729 
   16950    40.646624    40.646624    40.646624   -8.3386466    105.91063    202.98777   -153.59331   -525.05021    22.666735    478.54622   -13288.359    295.16891 
   17000    40.647892    40.647892    40.647892     -84.9798   -202.79434   -428.03953   -84.437064    360.91618    32.292003    478.72467   -13288.971    296.61817 
   17050    40.647433    40.647433    40.647433   -41.121248    62.970544    33.399735    -258.0537    172.66412    71.719408    478.66738   -13287.587    294.20613 
   17100    40.646208    40.646208    40.646208    51.590538   -157.36983    538.05074    181.58593    72.159069    130.55551    478.67054   -13288.503    296.24409 
   17150     40.64691     40.64691     40.64691   -65.900093    88.764333   -279.77272   -136.20971    572.59094    -150.2549    478.58792   -13288.567    296.63092 
   17200    40.647071    40.647071    40.647071   -5.7301942    85.350031    296.62959   -56.817588    736.16731   -45.723026    478.68529   -13287.799    295.40475 
   17250    40.647511    40.647511    40.647511    -25.19417   -189.67004   -490.98443    87.685232    58.821837    26.402299     478.7677   -13287.151     294.4074 
   17300    40.646197    40.646197    40.646197    51.128973   -28.626207   -115.18582   -66.967949    632.89822    248.98108    478.77768   -13286.795    293.97096 
   17350    40.645704    40.645704    40.645704     25.76403    133.32117    613.38457   -41.976564    -118.1363    -14.05252    478.88333   -13287.693    295.95127 
   17400    40.646821    40.646821    40.646821    88.993293   -51.853742    34.364857    109.37425   -101.71343    209.45937    478.68976   -13287.471    295.76596 
   17450    40.649304    40.649304    40.649304    -91.48287    7.8513218   -396.11514   -111.95574    265.53095   -170.34419    478.53944   -13287.294    295.65469 
   17500     40.64965     40.64965     40.64965   -125.92975   -340.24098    573.46104    26.244848    89.676962   -63.793135    478.52548   -13288.019    297.29323 
   17550    40.646417    40.646417    40.646417    4.3014998   -46.704835    633.04295   -108.84987     98.51861     168.4592    478.59403   -13288.223    297.92335 
   17600    40.644359    40.644359    40.644359    139.68143    106.22348    190.51137    162.31823   -33.693492    150.50258    478.88632   -13287.957    297.64168 
   17650    40.647422    40.647422    40.647422    14.878034    216.79361    377.97716   -132.52787    445.57497   -39.631644     478.6825   -13285.756    293.60247 
   17700    40.650624    40.650624    40.650624   -138.79927   -55.326369   -39.501321   -197.14582    711.66468   -163.92561    478.31098   -13288.721    299.56013 
   17750    40.649172    40.649172    40.649172   -36.150917    61.241998   -35.555678    19.197546    327.43331    -188.8923    478.56455    -13286.87    296.19526 
   17800    40.646619    40.646619    40.646619    134.11957     266.8086    677.27106    61.829198    386.79435    73.720902    478.70594   -13285.681    294.11104 
   17850    40.648224    40.648224    40.648224   -10.097739   -112.46807    193.29482   -4.1572798    543.91382    86.332135    478.52077   -13287.112    297.09284 
   17900    40.649757    40.649757    40.649757   -213.19533    -135.9982    215.75241   -465.20502    377.96599   -38.382757    478.44617   -13288.333    299.66476 
   17950    40.646153    40.646153    40.646153     133.7404    157.47713    156.80614    242.56937    410.34672    1.1747135    478.64518   -13286.412    296.14748 
   18000    40.646559    40.646559    40.646559    169.63043    205.26381    789.05066    36.418296   -369.36196    267.20919    478.62839   -13287.075    297.62351 
   18050    40.652159    40.652159    40.652159   -295.84138   -172.97238    522.83377   -283.00239    544.38404   -431.54937    478.18865    -13288.39     300.3592 
   18100    40.650501    40.650501    40.650501    -73.75406   -73.999733    150.74709    -130.0967    252.01323   -17.165743    478.50528   -13285.795    295.52623 
   18150    40.646245    40.646245    40.646245    96.166344    155.87866    83.591193   -60.233594    502.84984    192.85397    478.65621   -13287.652    299.30984 
   18200    40.646927    40.646927    40.646927    175.47057    206.98394    53.927669     341.3466    691.11951   -21.918825     478.6614   -13285.156    294.66771 
   18250    40.652093    40.652093    40.652093   -179.84718   -56.152416    382.20739   -468.95038    725.90891   -14.438737    478.24779   -13286.688    297.81787 
   18300     40.65108     40.65108     40.65108   -146.48119   -204.13115    208.24843   -120.05816    477.32293   -115.25425    478.34582   -13286.354    297.34563 
   18350    40.647339    40.647339    40.647339    152.34576    345.38026    486.27726    116.05076    21.902662   -4.3937254    478.52861   -13287.164    299.08915 
   18400    40.648314    40.648314    40.648314    39.840227    111.98087    534.65086    -97.70683    17.855591    105.24664     478.5228   -13284.387    293.89244 
   18450    40.649518    40.649518    40.649518   -43.171992   -2.8361551    475.25074     129.5971    11.524128   -256.27692    478.44621   -13286.612    298.36329 
   18500    40.648505    40.648505    40.648505    101.24795    218.24174    88.062515    15.561833   -315.02053     69.94029    478.48925    -13284.19    293.83806 
   18550    40.648958    40.648958    40.648958   -52.247421   -4.6820598    427.76852   -196.79381     338.5082    44.733607    478.38019   -13288.345    302.03487 
   18600    40.649113    40.649113    40.649113   -56.733612   -3.5033343     457.4801   -90.042583    281.63428    -76.65492    478.47583   -13286.397    298.41916 
   18650    40.648364    40.648364    40.648364    68.655145    224.00438    788.14249   -188.23487    819.92339    170.19593    478.62527   -13286.073    297.94127 
   18700    40.650336    40.650336    40.650336   -80.376999   -141.46978    517.23112   -13.513316     627.1854     -86.1479    478.42362   -13285.705    297.38366 
   18750    40.650298    40.650298    40.650298   -128.58808   -83.145517    148.72322    -205.1903    141.19479   -97.428425    478.22116   -13287.988     301.9554 
   18800    40.646816    40.646816    40.646816    138.77851    312.50042    77.851235    83.938646    309.89157     19.89647    478.71347   -13284.734    295.80138 
   18850    40.648234    40.648234    40.648234    30.728254   -38.662071     64.28697   -7.3471006   -154.17187    138.19393    478.67404   -13286.842    300.01921 
   18900    40.650992    40.650992    40.650992    -42.95928    148.55719    394.92159   -127.39375     546.9974   -150.04128    478.46468   -13285.424    297.41421 
   18950    40.650288    40.650288    40.650288   -100.85335    -181.3983    -6.840871    62.860203    789.00232   -184.02196    478.26185   -13286.265    299.17496 
   19000    40.647024    40.647024    40.647024    214.95262    284.83887    16.403083    51.056801    189.98573    308.96218    478.59913   -13285.026    296.90714 
   19050    40.649705    40.649705    40.649705   -81.133724   -129.00732    403.28916    75.547217     304.2475   -189.94107    478.38723   -13286.857    300.57186 
   19100    40.651126    40.651126    40.651126   -101.32617   -31.477654    229.14883   -154.66723   -485.09066   -117.83362    478.31918    -13287.34    301.62988 
   19150    40.650514    40.650514    40.650514   -61.937819   -59.029845   -583.00699   -54.942506    389.22837   -71.841107    478.28809    -13286.17    299.48627 
   19200    40.648958    40.648958    40.648958   -40.202422     28.23678    553.53729   -47.031317   -198.59366   -101.81273    478.41268   -13287.908    302.96654 
   19250    40.648297    40.648297    40.648297    193.92933    110.86583     327.0053    160.24061     195.9309    310.68154    478.58262   -13283.866     295.2575 
   19300    40.653967    40.653967    40.653967   -319.65063   -433.94692    453.05994   -265.61363    183.85424   -259.39133     478.0887   -13288.426    304.19497 
   19350    40.650697    40.650697    40.650697   -50.380578    75.039162    327.04292    -108.3705    266.81925   -117.81039     478.4127   -13284.214    296.15027 
   19400    40.645481    40.645481    40.645481    233.31821   -13.523612    468.40485    276.96417    773.79544    436.51408    478.88029   -13286.245    300.18916 
   19450    40.648108    40.648108    40.648108    86.601651    177.74298    513.70716     85.95445    221.48028   -3.8924808    478.66252   -13284.204    296.34544 
   19500    40.652051    40.652051    40.652051   -87.655979    -108.3931   -22.232072   -28.882256    528.45354   -125.69258    478.31249   -13283.979    296.00928 
   19550    40.652947    40.652947    40.652947   -162.69022   -207.64374    267.66035   -247.02321    1110.8373   -33.403704    478.10843   -13286.868    301.69673 
   19600    40.648603    40.648603    40.648603    123.89806     187.6444    313.00598    253.36595    214.04163   -69.316182    478.54248   -13284.234    296.69118 
   19650    40.646314    40.646314    40.646314    152.06679    299.51493    733.94456    114.99572    361.66477    41.689733    478.67479    -13285.08    298.41695 
   19700    40.648757    40.648757    40.648757   -6.5061867   -21.901854    442.66803    105.41324    -229.6655   -103.02995    478.58472   -13285.998    300.27426 
   19750    40.650718    40.650718    40.650718   -105.49055   -89.223316   -317.56191   -108.47253   -376.87375   -118.77579    478.38218   -13285.718     299.8116 
   19800    40.650581    40.650581    40.650581  -0.49329861    115.55627   -85.763307    120.12138    222.66836   -237.15754    478.36407   -13285.414    299.30153 
   19850    40.649939    40.649939    40.649939   -90.391231   -73.085082    68.127459   -203.69606    116.93196    5.6074539    478.42457   -13286.062    300.63334 
   19900    40.648117    40.648117    40.648117    37.872772    145.97849    538.42722    105.26909    570.41365   -137.62926     478.4617   -13286.943    302.41409 
   19950    40.648134    40.648134    40.648134   -71.534231   -120.29811    486.91559   -29.231516    211.74457   -65.073071    478.55175    -13286.23    301.10262 
   20000    40.648392    40.648392    40.648392    206.27109     236.8314    35.751223    298.12899    375.34047    83.852874    478.55792   -13283.071    295.05319 
Loop time of 895.753 on 4 procs for 20000 steps with 4000 atoms

Pair  time (%) = 832.978 (92.992)
Neigh time (%) = 0 (0)
Comm  time (%) = 44.5209 (4.97022)
Outpt time (%) = 0.261619 (0.0292066)
Other time (%) = 17.9919 (2.00858)

Nlocal:    1000 ave 1000 max 1000 min
Histogram: 4 0 0 0 0 0 0 0 0 0
Nghost:    4235 ave 4235 max 4235 min
Histogram: 4 0 0 0 0 0 0 0 0 0
Neighs:    70000 ave 72653 max 67302 min
Histogram: 1 0 1 0 0 0 0 1 0 1
FullNghs:  0 ave 0 max 0 min
Histogram: 4 0 0 0 0 0 0 0 0 0

Total # of neighbors = 280000
Ave neighs/atom = 70
Neighbor list builds = 0
Dangerous builds = 0
# run 	200000

# Use this if debug
# run 	1000
# run 200
unfix 1

# Store final cell length for strain calculations
variable tmp equal "lx"
variable L0 equal ${tmp}
variable L0 equal 40.6483922577475
print "Initial Length, L0: ${L0}"
Initial Length, L0: 40.6483922577475

######################################
# DEFORMATION
reset_timestep	0
set atom * xrad 0 yrad 0 zrad 0 vxrad 0 vyrad 0 vzrad 0
  4000 settings made for xrad
  4000 settings made for yrad
  4000 settings made for zrad
  4000 settings made for vxrad
  4000 settings made for vyrad
  4000 settings made for vzrad
fix		1 all npt temp 300 300 1 y 0 0 1 z 0 0 1 drag 1

variable srate equal 1.0e10
# variable srate equal 1.0e9 # tiny time step

variable srate1 equal "v_srate / 1.0e12"
fix		2 all deform 1 x erate ${srate1} units box remap x
fix		2 all deform 1 x erate 0.01 units box remap x

# Output strain and stress info to file
# for units metal, pressure is in [bars] = 100 [kPa] = 1/10000 [GPa]
# p2, p3, p4 are in GPa
variable strain equal "(lx - v_L0)/v_L0"
variable p1 equal "v_strain"
variable p2 equal "-pxx/10000"
variable p3 equal "-pyy/10000"
variable p4 equal "-pzz/10000"

# fix def1 all print 100 "${p1} ${p2} ${p3} ${p4}" file Al99.eam_rad.alloy.def1.txt screen no
# IMPLEMENTATION HERE
variable p5 equal "-pxxrad/10000"

# VERSION add rad variables
variable p6 equal "-pyyrad/10000"
variable p7 equal "-pzzrad/10000"

# VERSION ublb coupled/decoupled scheme
# variable p6 equal "-pxxub/10000"
# variable p7 equal "-pxxlb/10000"

fix def1 all print 20 "${p1} ${p2} ${p3} ${p4} ${p5} ${p6} ${p7}" file Al99.eam_rad.alloy.def1.txt screen no

# Use cfg for AtomEye
# dump 		1 all cfg 250 dump.tensile_*.cfg mass type xs ys zs c_csym c_peratom fx fy fz
# dump_modify 1 element Al

# print output to a text file every n timesteps
# dump		2 all custom 50 dump.xyz_rvf_rad.tensile_*.txt mass type id x y z vx vy vz fx fy fz xrad yrad zrad vxrad vyrad vzrad fxrad fyrad fzrad # use for rad developement
# dump		2 all custom 50 dump.xyz_rvf_rad.tensile_*.txt mass type id x y z vx vy vz fx fy fz xrad yrad zrad vxrad vyrad vzrad fxrad fyrad fzrad xub yub zub vxub vyub vzub fxub fyub fzub xlb ylb zlb vxlb vylb vzlb fxlb fylb fzlb # use for ublb developement

# Display thermo
thermo 	50
# thermo 1
# thermo_style	custom step v_strain temp v_p2 v_p3 v_p4 ke pe press

# IMPLEMENTATION HERE
thermo_style	custom step v_strain temp v_p2 v_p3 v_p4 v_p5 v_p6 v_p7 ke pe press
run	20000
Memory usage per processor = 5.63763 Mbytes
Step strain Temp p2 p3 p4 p5 p6 p7 KinEng PotEng Press 
       0            0    295.05319  -0.02368314 -0.029812899 -0.0083852874 -0.023923009 -0.023928083          nan    152.51633   -13283.071    206.27109 
      50       0.0005    305.27076  0.076385928  0.026700653   0.02544381  0.035584621 -0.034332885          nan    157.79791   -13288.296   -428.43464 
     100        0.001    295.42717   0.06301276   0.02872752  0.009142002  -0.02389631 -0.023904051          nan    152.70965   -13283.145   -336.27427 
     150       0.0015    303.35582   0.10391563  0.021016666 -0.016979124 -0.065681338 -0.0014214605          nan    156.80806   -13287.176    -359.8439 
     200        0.002    301.05276   0.11977248 -0.063221078 0.0076251495 -0.023901627 -0.023917484          nan    155.61758   -13285.908   -213.92183 
     250       0.0025    295.64903   0.15045177 -0.011141413 -0.017034305 -0.038738242  -0.11460683          nan    152.82433   -13283.033   -407.58686 
     300        0.003    297.59578   0.20177241  0.017257887  0.043740917 -0.023840852 -0.023861209          nan    153.83063   -13283.947   -875.90403 
     350       0.0035    297.90159   0.21457242  0.016962525  0.013201642 -0.020038353 -0.024228522          nan     153.9887   -13284.012   -815.78861 
     400        0.004     302.2837   0.23780181 -0.012340809 -0.030440108 -0.023859772 -0.023894067          nan    156.25386   -13286.167   -650.06963 
     450       0.0045    301.24938   0.28630656 0.0061301808 -0.035861067 -0.045077883 0.0083137302          nan    155.71922   -13285.519   -855.25223 
     500        0.005    296.61352   0.31253741 0.0079158149  0.014220882 -0.023821753 -0.023861201          nan    153.32289   -13283.004   -1115.5803 
     550       0.0055    304.12293   0.37536467  0.015063377  0.046358205 -0.020028156 -0.013460635          nan    157.20458   -13286.755   -1455.9542 
     600        0.006    295.36034   0.37703246 -0.0086069583 -0.0076705015  -0.02380904 -0.023861838          nan     152.6751   -13282.091   -1202.5167 
     650       0.0065    302.92334   0.41996667 -0.011519301 -0.00041694971 -0.045629256 -0.0097375927          nan     156.5845   -13285.854   -1360.1014 
     700        0.007    298.20205   0.43576674 -0.025363065 -0.014081269   -0.0238007 -0.023846684          nan    154.14402   -13283.265   -1321.0747 
     750       0.0075    295.82411   0.48498769  0.015544159  0.011999991 -0.027908714 -0.038991573          nan    152.91483   -13281.879   -1708.4395 
     800        0.008    302.13311   0.52029438  0.027130983  0.018111419  -0.02375668 -0.023811399          nan    156.17602   -13284.977   -1885.1226 
     850       0.0085    301.09945   0.55422916  0.003843732 -0.016729839 -0.010575971 -0.014682889          nan    155.64172    -13284.27   -1804.4768 
     900        0.009    300.31698   0.57208332 0.0015430849 -0.0065144422 -0.023757558 -0.023827549          nan    155.23725   -13283.688   -1890.3732 
     950       0.0095    301.07859    0.6263659 0.0012301972 -0.0057598621  0.055096414 -0.030944867          nan    155.63093   -13283.895   -2072.7874 
    1000         0.01    301.50988   0.65335757 0.0023734946  0.040408462 -0.023717636 -0.023788167          nan    155.85387   -13283.925   -2320.4651 
    1050       0.0105    297.02491   0.66836506 0.0044850551 -0.0080675322 -0.023472934 -0.050754992          nan    153.53554   -13281.404    -2215.942 
    1100        0.011    299.92421   0.69534003    0.0050105 0.0089962338 -0.023721876 -0.023793768          nan    155.03422   -13282.701   -2364.4892 
    1150       0.0115    300.93967   0.72842287 -0.0066764886 -0.023511094 -0.053194644  0.019543369          nan    155.55912   -13283.011    -2327.451 
    1200        0.012    298.11516   0.74283245 0.0023225495 -0.0056781198 -0.023713123 -0.023771815          nan     154.0991   -13281.331   -2464.9229 
    1250       0.0125    296.09534   0.80074317 -0.00015762297  0.016038089 -0.051831877 -0.050559345          nan    153.05503    -13280.06   -2722.0788 
    1300        0.013    300.38579   0.81874177 -0.0076835348  0.011580456 -0.023690994 -0.023766962          nan    155.27282   -13282.048    -2742.129 
    1350       0.0135    294.35458   0.84512009 -0.031162971 -0.024399982 -0.033233803 -0.022659598          nan    152.15522   -13278.691   -2631.8571 
    1400        0.014    298.92375   0.91345678 0.0073932019  -0.01098955 -0.023665866 -0.023745348          nan    154.51707   -13280.801   -3032.8681 
    1450       0.0145    299.86146   0.92245658  0.044193515  0.026805922 -0.062466701  0.010073637          nan    155.00178   -13281.031     -3311.52 
    1500        0.015    297.04973   0.96477228 -0.0038140823 0.0042775993 -0.023655692 -0.023747785          nan    153.54837   -13279.319   -3217.4527 
    1550       0.0155    301.32705   0.97107154 -0.017055583 -0.023224235 -0.014200767  0.015412579          nan    155.75936   -13281.256   -3102.6391 
    1600        0.016    300.47997    1.0189589 -0.0051068267 -0.018145599 -0.023657547 -0.023757653          nan     155.3215   -13280.543   -3319.0216 
    1650       0.0165    298.70423    1.0694414  0.016005424  0.029115908 -0.064197544 -0.015030856          nan     154.4036    -13279.34    -3715.209 
    1700        0.017     299.1915    1.1279416  0.018829441  0.025145113 -0.023609265 -0.023704182          nan    154.65547   -13279.296   -3906.3871 
    1750       0.0175    302.96186    1.1236282 0.0049706753 -0.0038490882  0.032751047 -0.012320553          nan    156.60442   -13280.943   -3749.1659 
    1800        0.018    297.54899    1.1340796 -0.038355047 -0.0038681782 -0.023617169 -0.023719778          nan    153.80644   -13277.838   -3639.5214 
    1850       0.0185    300.18284     1.202559  0.024060562 -0.025380846 -0.019937361 -0.028013343          nan    155.16791   -13278.883   -4004.1291 
    1900        0.019      301.905    1.2428105  0.013249417  0.042858646 -0.023570998  -0.02366343          nan    156.05811   -13279.452   -4329.7287 
    1950       0.0195    297.56463    1.2595106  0.020898741 0.0060602864 -0.046971118 -0.014885808          nan    153.81452   -13276.881   -4288.2322 
    2000         0.02    301.39312     1.287643 -0.020410125 0.0014033429 -0.023593311 -0.023692652          nan    155.79352   -13278.523   -4228.7873 
    2050       0.0205    297.39065    1.3212022  -0.02259175 -0.028835303 0.00084641544 -0.054741074          nan     153.7246   -13276.109   -4232.5839 
    2100        0.021    296.57933    1.3530512  0.024545494   0.01259576 -0.023567345  -0.02365455          nan    153.30522    -13275.34    -4633.975 
    2150       0.0215    301.86389      1.42285  0.014651572  0.018754474  -0.05674393 -0.022894891          nan    156.03686   -13277.716    -4854.187 
    2200        0.022     300.8428     1.412048 0.0012920287 -0.0021998856 -0.023554386 -0.023675757          nan    155.50905   -13276.825   -4703.8004 
    2250       0.0225    299.02725    1.4321461 -0.0040392456  -0.02995493 -0.054980862 0.0033232013          nan    154.57057   -13275.515   -4660.5065 
    2300        0.023    297.44991    1.4709187 0.0051088264 -0.0080936701 -0.023544945 -0.023643607          nan    153.75522   -13274.321   -4893.1129 
    2350       0.0235    299.76275    1.5253658  0.011264959  0.029684555 -0.029895936 -0.028037089          nan    154.95076   -13275.137   -5221.0509 
    2400        0.024    297.54615     1.539138 -0.0043798112  0.014949503 -0.023518209 -0.023641956          nan    153.80497   -13273.602   -5165.6921 
    2450       0.0245    299.17032    1.5501475 -0.023600856 -0.029707099 -0.033864698   0.01055775          nan    154.64453   -13274.046    -4989.465 
    2500        0.025    297.21842    1.5902559  -0.03311447 0.0058390706 -0.023530487 -0.023642456          nan    153.63556    -13272.64   -5209.9351 
    2550       0.0255    301.31341    1.6512509  0.029887397  0.021011691 -0.075649595 0.0067731559          nan    155.75231   -13274.349   -5673.8333 
    2600        0.026    296.45283    1.6611498 -0.012557481  0.027613457 -0.023490684 -0.023611665          nan    153.23982   -13271.422   -5587.3527 
    2650       0.0265    301.29272    1.6973705  0.028162696 -0.018934186 -0.027287282 -0.036556903          nan    155.74162   -13273.502   -5688.6633 
[...]
   13800        0.138    291.25069    7.7123916  0.021712303 -0.0064641626 -0.021653218 -0.022110842          nan    150.55078   -13025.096   -25758.799 
   13850       0.1385    288.55819    7.6958233 -0.022898302 -0.084094538 -0.064585065 -0.011029653          nan      149.159   -13022.024   -25296.101 
   13900        0.139    292.21313    7.7793834 -0.018596694  0.033121535 -0.021617956 -0.022085639          nan    151.04827   -13022.219   -25979.694 
   13950       0.1395    292.80851    7.7626524   0.03200342  0.059693509 -0.032170133 0.0094881623          nan    151.35603   -13020.818   -26181.164 
   14000         0.14    290.78192    7.7739784 -0.018391636 0.00024523942 -0.021590843 -0.022078039          nan    150.30847   -13018.072   -25852.773 
   14050       0.1405    292.55995    7.8008559 -0.054400551  0.010070867 -0.034330308 -0.0053217821          nan    151.22755   -13017.273   -25855.087 
   14100        0.141    290.98435    7.8449078 0.0028284285 -0.032554213 -0.021581563 -0.022071285          nan    150.41311   -13014.743   -26050.607 
   14150       0.1415    296.18122    7.8575383  0.043051585  0.037247456 -0.055494606 -0.081244795          nan    153.09942   -13015.707   -26459.458 
   14200        0.142    294.12159    7.8437331  -0.02390802 -0.0041379011 -0.021563613  -0.02204652          nan    152.03478   -13012.916   -26052.291 
   14250       0.1425    287.19968    7.7478812 -0.033567345 -0.002019977  0.016980984 -0.039057034          nan    148.45677   -13007.631   -25707.646 
   14300        0.143    293.71432    7.8738105  0.019746234  0.023631537 -0.021527897 -0.022007127          nan    151.82426   -13009.286   -26390.628 
   14350       0.1435     291.4975    7.9045649 0.0057878559  0.018934398 -0.036872853 -0.0080659313          nan    150.67836   -13006.402   -26430.957 
   14400        0.144     294.6357    7.8741604 -0.046018615 0.00047032948  -0.02151895  -0.02199971          nan    152.30053   -13006.298   -26095.374 
   14450       0.1445    292.14967    7.8781755 0.0080106477 -0.008594513 -0.038672457 -0.038121586          nan    151.01547   -13003.285   -26258.639 
   14500        0.145     290.8319    7.8916896  0.021238627 -0.0060794099 -0.021470249 -0.021956355          nan     150.3343   -13000.867   -26356.163 
   14550       0.1455     289.7379     7.878053  0.036487353 -0.022518208 0.0037254435 -0.072699171          nan     149.7688   -12998.563    -26306.74 
   14600        0.146    291.05198    7.8755564 0.0084610282 -0.023920782  -0.02144755 -0.021939591          nan    150.44807    -12997.51   -26200.322 
   14650       0.1465    290.14168    7.8880396  0.011861846  -0.01807914  0.022257226  -0.08981355          nan    149.97752   -12995.301   -26272.741 
   14700        0.147    289.85403    7.8562697  0.029594156 -0.0032762703 -0.021423262  -0.02189042          nan    149.82883   -12993.412   -26275.292 
   14750       0.1475    284.83157    7.7802611 0.0071037338 -0.022309076 -0.0062925055 -0.041615212          nan    147.23266   -12989.101   -25883.519 
   14800        0.148    295.22257    7.7739472  0.010271893 -0.036002251 -0.021407515 -0.021901485          nan    152.60389   -12992.754    -25827.39 
   14850       0.1485    291.85515    7.6392409 -0.022401768 0.0090253166 -0.059982913 0.0037084619          nan    150.86323    -12989.31   -25419.548 
   14900        0.149    295.96817    7.5426105  0.010334563   0.05186927 -0.021375646 -0.021856864          nan     152.9893   -12989.735   -25349.381 
   14950       0.1495    295.25224    7.4039377  0.010039178 -0.001891253 -0.025417131 -0.0057011697          nan    152.61922   -12987.716   -24706.952 
   15000         0.15    304.02056    7.2650055 -0.071123596  0.034185168 -0.021402986 -0.021869831          nan    157.15167   -12990.627   -24093.557 
   15050       0.1505    309.56698    7.1267705 -0.049078844  0.019062772 -0.020669567 -0.0037205602          nan    160.01867   -12991.928   -23655.848 
   15100        0.151    306.69809     6.911152 -0.068385816   0.01273007 -0.021329618 -0.021818816          nan    158.53572   -12988.961   -22851.654 
   15150       0.1515    319.26741    6.7401749  0.038975677  0.063540545 -0.021016132 -0.057696288          nan    165.03294   -12994.037    -22808.97 
   15200        0.152    319.28619    6.4117552  0.048372635 0.0019629842 -0.021320843 -0.021761575          nan    165.04264   -12992.724   -21540.303 
   15250       0.1525     335.4747    6.0896801  0.031858152 -0.071686451 -0.030291862 -0.011916639          nan    173.41067   -12999.863   -20166.173 
   15300        0.153    337.88645    5.7313163 -0.0086257228 -0.056823532 -0.021353188 -0.021766605          nan    174.65733   -13000.039   -18886.224 
   15350       0.1535    334.72084    5.3875431  0.072478331  -0.03801648 -0.0061290271 0.0011268432          nan    173.02099   -12997.514    -18073.35 
   15400        0.154     342.0304    5.0719578  0.057930295  0.068710984 -0.021337788 -0.021743289          nan    176.79939   -13000.538   -17328.664 
   15450       0.1545     346.5106    4.7211677  0.004679539 -0.010202206  -0.03998799 -0.037673959          nan    179.11525   -13002.263   -15718.817 
   15500        0.155    347.72231    4.3780797 -0.065055253 -0.0039264244 -0.021441227 -0.021822099          nan     179.7416   -13002.419    -14363.66 
   15550       0.1555    345.72085    4.1566868 -0.078497099  0.058041973 0.00035828209  0.015725516          nan    178.70702   -13001.037   -13787.439 
   15600        0.156    352.91346    4.0470676 -0.00032413902   0.11750658 -0.021431378 -0.021790837          nan    182.42496   -13004.544   -13880.834 
   15650       0.1565    355.30306    3.9546563  -0.03687998  0.018411789 -0.034911305  0.017017026          nan    183.66017   -13005.686   -13120.627 
   15700        0.157    353.64653    3.7956129  0.017236398 -0.020414122 -0.021489485 -0.021816844          nan     182.8039   -13004.714   -12641.451 
   15750       0.1575    361.69497    3.7141687   0.06307154  0.023943058   0.02310472 -0.016172659          nan    186.96422   -13008.807   -12670.611 
   15800        0.158    360.52666    3.6251051   0.01936415 -0.059177906 -0.021578021 -0.021874666          nan    186.36031   -13008.159   -11950.971 
   15850       0.1585    364.75668    3.6227972  0.032174451 -0.079266508 0.0037618816 -0.032463292          nan    188.54686   -13010.272   -11919.017 
   15900        0.159    362.85533    3.5756819 -0.044065223  0.017372756 -0.021578483 -0.021882586          nan    187.56403   -13009.253   -11829.965 
   15950       0.1595    363.19391    3.5803512 -0.013534165  0.076080543 0.0056666879 -0.059138468          nan    187.73904   -13009.373   -12142.992 
   16000         0.16    359.91317    3.4550027  0.011224552  0.079797756 -0.021576111 -0.021851088          nan    186.04319   -13007.653   -11820.083 
   16050       0.1605    360.95119    3.4214138 -0.010860946  0.021842636  0.060512005 -0.030204112          nan    186.57975   -13008.178   -11441.318 
   16100        0.161    364.10444    3.3476955 -0.043325111 -0.037770807 -0.021643761 -0.021925344          nan    188.20971   -13009.804   -10888.665 
   16150       0.1615    368.76526    3.2747162 -0.028793028 0.0003051527 0.00039902058  -0.03230319          nan    190.61894   -13012.249   -10820.761 
   16200        0.162    368.50231    3.3067163  0.061524771 -0.056567645 -0.021622932 -0.021884197          nan    190.48302   -13012.162   -11038.911 
   16250       0.1625     360.1726    3.3071438  0.061398264 -0.051713849 -0.056228097 -0.070502615          nan    186.17729   -13007.922   -11056.094 
   16300        0.163    363.11155    3.2374907  0.042433084  0.043106488 -0.021624916 -0.021871778          nan    187.69647   -13009.558   -11076.768 
   16350       0.1635    362.59563    3.1608747 -0.039909799 -0.011993331  -0.04157153 0.0041956838          nan    187.42979   -13009.419   -10363.239 
   16400        0.164    368.58005    3.1163309 -0.054304993  -0.06283763  -0.02169535 -0.021926727          nan     190.5232   -13012.631   -9997.2944 
   16450       0.1645    372.76075    3.1361261  0.029011491  0.050938188 -0.038516501 -0.025783259          nan    192.68425   -13014.936   -10720.253 
   16500        0.165    363.92767    3.0526071   0.04346032  0.049082515 -0.021661453 -0.021894633          nan    188.11833   -13010.527   -10483.833 
   16550       0.1655    375.26214    3.0226861  0.042125017  0.027289623 0.0082340382 -0.0087198548          nan    193.97725   -13016.577   -10307.003 
   16600        0.166    371.62968    2.9128993 -0.031234485 -0.049523321  -0.02172926 -0.021967964          nan    192.09959   -13014.888   -9440.4717 
   16650       0.1665    367.44987    2.7947826 -0.066465404  0.023118567 -0.032609289 -0.030552499          nan      189.939    -13012.95   -9171.4525 
   16700        0.167    375.99725    2.7648834 0.0035489738  0.063080841 -0.021722606 -0.021963861          nan    194.35723   -13017.633   -9438.3774 
   16750       0.1675    371.57801    2.6312173  0.039958914 0.0070719807 -0.023426516 -0.081054754          nan    192.07288   -13015.646   -8927.4941 
   16800        0.168    374.14634    2.5423812 -0.004835991 -0.015992686 -0.021787149 -0.021985403          nan    193.40048   -13017.298    -8405.175 
   16850       0.1685      381.124     2.481223 -0.040733142  0.049126321   -0.1144243   -0.1107182          nan    197.00731   -13021.273   -8298.7207 
   16900        0.169    377.06017    2.3996955  0.025391186 -0.063563393 -0.021822754 -0.022024154          nan    194.90667    -13019.55   -7871.7444 
   16950       0.1695     383.5371    2.2911985   0.09374905 -0.029740813 -0.031553938  -0.12748192          nan    198.25467   -13023.327   -7850.6892 
   17000         0.17    379.69442    2.2146934  0.060914119 0.0058934643 -0.021877463  -0.02205546          nan    196.26834   -13021.827   -7605.0034 
   17050       0.1705    383.21702    2.0259605 -0.057646675 -0.0090487664 -0.046319545 -0.076449979          nan    198.08922   -13024.158   -6530.8835 
   17100        0.171    382.15449    1.9527077 -0.078602414 -0.0060991189  -0.02197982 -0.022155337          nan    197.53998   -13024.114   -6226.6871 
   17150       0.1715    390.65633    1.8887578 -0.029227298  0.061931236   0.01064147 -1.9121715e-07          nan    201.93468   -13029.068   -6404.8723 
   17200        0.172    392.76807    1.8357501 -0.0016333964  0.068984594 -0.021962414 -0.022135121          nan    203.02626   -13030.769    -6343.671 
   17250       0.1725    389.99611    1.7162119 -0.054745577  0.099005688  0.027657793 -0.011608602          nan     201.5934   -13030.018   -5868.2401 
   17300        0.173    387.15937    1.5332674 -0.020325244 -0.0051990511 -0.022040606 -0.022185454          nan    200.12706   -13029.259   -5025.8105 
   17350       0.1735    385.15763    1.5110376 -0.036093519  -0.10308301 -0.039134261   0.02092087          nan    199.09234   -13028.855   -4572.8701 
   17400        0.174    390.57938    1.5910174 -0.0060414409  0.025585585  -0.02202537 -0.022179442          nan     201.8949   -13032.353   -5368.5386 
   17450       0.1745     384.1063    1.5527367  0.056312722  0.040261646 -0.016981134  0.018511187          nan    198.54889   -13029.683   -5497.7035 
   17500        0.175    391.28815    1.4632812  0.087926805 0.0058239707 -0.022054605  -0.02217712          nan    202.26127   -13034.099   -5190.1067 
   17550       0.1755    395.84288    1.4590561   0.07744611 -0.087129541 -0.062164604   0.01730383          nan    204.61566   -13037.179   -4831.2421 
   17600        0.176    395.75652    1.4574467 0.0016722445  -0.12201378 -0.022161317 -0.022284375          nan    204.57102   -13037.887   -4457.0171 
   17650       0.1765    392.83818    1.4650782 -0.018908973 -0.037848887 -0.021197306  0.035557912          nan     203.0625   -13037.153   -4694.4012 
   17700        0.177    398.90382    1.6160879  0.095692735  0.055333214  -0.02206134    -0.022207          nan     206.1979   -13041.051   -5890.3797 
   17750       0.1775    402.05164    1.6190144  0.041591843   0.12626917 -0.052440667 -0.013992403          nan    207.82504   -13043.454   -5956.2515 
   17800        0.178    406.51766    1.3685035  -0.06015576  0.045226521 -0.022203008 -0.022338074          nan    210.13358   -13046.554   -4511.9142 
   17850       0.1785    403.12593    1.2814832  -0.15996605 -0.069381455  0.018642015 -0.030280199          nan    208.38036   -13045.607   -3507.1191 
   17900        0.179    403.86429     1.362311 -0.033662106  0.028568733 -0.022202419  -0.02233155          nan    208.76202   -13046.859   -4524.0589 
   17950       0.1795    404.93553    1.4269753  0.056394132   0.13666424 -0.099918755  0.020685282          nan    209.31576   -13048.273   -5400.1122 
   18000         0.18    407.81479    1.3546732   0.13564015  0.061893527 -0.022167346 -0.022312309          nan    210.80408   -13050.677   -5174.0228 
   18050       0.1805      411.591    1.2389993 -0.010407261  -0.05374392 0.0065384452 0.00078462299          nan    212.75605   -13053.548   -3916.1603 
   18100        0.181    409.64188    1.1754713 -0.057073209  -0.20378237 -0.022333182 -0.022471442          nan    211.74852   -13053.432   -3048.7192 
   18150       0.1815    411.17805    1.2158507  0.009822922 -0.056779603 -0.030400381 -0.048414159          nan    212.54259   -13055.232   -3896.3133 
   18200        0.182    405.70759    1.2827927   0.11026115  0.084096093 -0.022244473 -0.022344562          nan    209.71484   -13053.351   -4923.8331 
   18250       0.1825    414.08035    1.3014939  0.063108558   0.13471345  -0.15450486 -0.076750598          nan    214.04282   -13058.655   -4997.7197 
   18300        0.183    411.14037    1.1682992   -0.1015738 -0.025194645 -0.022339723  -0.02245551          nan    212.52311   -13058.092   -3471.7692 
   18350       0.1835    407.68327    1.1290221  -0.11180324 -0.074161023 -0.011797165  0.028332391          nan    210.73609   -13057.243   -3143.5262 
   18400        0.184    413.40339    1.1873292  0.031672072  0.061322204 -0.022308907 -0.022421996          nan    213.69289   -13061.185    -4267.745 
   18450       0.1845    409.51187    1.1821528   0.13072436  0.020107133  0.019958142 -0.082550856          nan    211.68132   -13060.176   -4443.2809 
   18500        0.185     411.4069    1.0979031  0.067985641 -0.036154967 -0.022377883 -0.022476832          nan    212.66088    -13062.21   -3765.7792 
   18550       0.1855    418.28181    1.0097126  0.017648244  -0.09057091  0.011138824  -0.11682833          nan     216.2146   -13066.824   -3122.6331 
   18600        0.186    415.78492   0.95073773 -0.074940763 -0.031755127 -0.022480299 -0.022584725          nan    214.92393   -13066.586   -2813.4728 
   18650       0.1865     414.6891   0.96743062 -0.014297429 -0.011833429   -0.1511723  -0.03631799          nan    214.35749   -13067.087   -3137.6659 
   18700        0.187    407.15103    1.0483484  0.025364924   0.10177936 -0.022401557 -0.022518996          nan    210.46097   -13064.222   -3918.3091 
   18750       0.1875    417.02863    1.0167717 -0.039711883  0.048223459 -0.078765453 0.0029347205          nan    215.56682   -13070.375    -3417.611 
   18800        0.188    414.42847    0.9619183 -0.049335527  0.018947268 -0.022436577 -0.022547199          nan    214.22277   -13070.102   -3105.1001 
   18850       0.1885    418.13968   0.91723668  0.036316617 -0.062688048 -0.051971879 -0.033249985          nan    216.14113   -13073.089   -2969.5508 
   18900        0.189    413.13697   0.95666965   0.08651165 -0.061218342 -0.022474867 -0.022540583          nan    213.55518   -13071.573   -3273.2099 
   18950       0.1895    414.62588    1.0968674  0.075894004 0.0045338374 -0.032559666 -0.042648149          nan    214.32481   -13073.424   -3924.3174 
   19000         0.19    404.68701    1.0785285 -0.049953746 -0.010254662 -0.022463394 -0.022579045          nan     209.1873   -13069.318   -3394.4004 
   19050       0.1905     417.9898     1.167389 -0.037750638  0.063169018 -0.050904378  0.064665149          nan    216.06366   -13077.205   -3976.0246 
   19100        0.191    408.74635    1.0938976 -0.044617618   0.05119539 -0.022457296 -0.022568448          nan    211.28562   -13073.469   -3668.2512 
   19150       0.1915    412.61364    1.1561929 -0.026460128 0.0098700505 -0.017704706 -0.056551502          nan    213.28466   -13076.513   -3798.6761 
   19200        0.192    424.29872    1.2267294  0.020991878 -0.00087700265 -0.022456186   -0.0225786          nan    219.32481   -13083.591   -4156.1477 
   19250       0.1925    413.85043    1.2587886  0.057799821 -0.079879113  -0.12114564 -0.087527566          nan    213.92397   -13079.232   -4122.3643 
   19300        0.193    416.40341    1.3043736   0.12121524 -0.057169341 -0.022449932 -0.022556119          nan    215.24364   -13081.596   -4561.3984 
   19350       0.1935    414.41568    1.3480591  0.039266983 -0.089024876 -0.043187957  -0.11171414          nan    214.21615   -13081.651   -4327.6707 
   19400        0.194    416.73492     1.305128  0.022209319  0.052278979 -0.022472243 -0.022563126          nan      215.415   -13083.883   -4598.7209 
   19450       0.1945    411.51137    1.2689652 -0.046798522  0.060517901 -0.030061703 0.0087430345          nan    212.71489   -13082.152   -4275.6152 
   19500        0.195    409.75983    1.1540679 -0.038616738  0.067029986 -0.022494527 -0.022613899          nan    211.80949   -13082.239   -3941.6039 
   19550       0.1955    408.79631    1.1350381 -0.013343913 -0.052341632 -0.053065746  0.073247773          nan    211.31144   -13082.765   -3564.5086 
   19600        0.196    410.44065    1.2025847 -0.046174651 -0.028864944 -0.022499856 -0.022620391          nan    212.16142   -13084.609   -3758.4838 
   19650       0.1965    406.29645    1.2361511 0.0033384422  0.048176759  0.022179902 -0.062367878          nan    210.01923   -13083.467   -4292.2212 
   19700        0.197    411.18681     1.194101  0.066357446  0.078022778 -0.022486177 -0.022599825          nan    212.54712   -13087.005    -4461.604 
   19750       0.1975    412.89506    1.1645585  0.025107153  -0.01793132 -0.021461433 -0.054836944          nan    213.43013   -13088.926    -3905.781 
   19800        0.198    404.05349    1.0724971  -0.11986189  -0.12866493 -0.022604311 -0.022721841          nan    208.85982   -13085.358   -2746.5677 
   19850       0.1985    406.43138    1.1333225  0.031244558 -0.083534394 -0.053474498 -0.031413788          nan    210.08898   -13087.618   -3603.4424 
   19900        0.199    412.73965    1.2414044   0.13286855   0.08738096 -0.022463614 -0.022579538          nan     213.3498   -13091.886   -4872.1798 
   19950       0.1995    410.58819    1.2056831   0.02645145   0.11659084 0.00091903595 -0.0024964796          nan    212.23768   -13091.811   -4495.7512 
   20000          0.2    410.43872    1.1150869 -0.084432827 -0.058750672 -0.022601772 -0.022712967          nan    212.16042    -13092.73   -3239.6782 
Loop time of 1037.23 on 4 procs for 20000 steps with 4000 atoms

Pair  time (%) = 965.865 (93.1194)
Neigh time (%) = 0.463784 (0.0447135)
Comm  time (%) = 41.5187 (4.00283)
Outpt time (%) = 0.190936 (0.0184082)
Other time (%) = 29.1949 (2.81469)

Nlocal:    1000 ave 1012 max 982 min
Histogram: 1 0 0 0 0 1 0 0 1 1
Nghost:    3723.25 ave 3736 max 3709 min
Histogram: 1 0 0 1 0 0 0 1 0 1
Neighs:    68902.8 ave 71691 max 65731 min
Histogram: 1 0 0 1 0 0 0 1 0 1
FullNghs:  0 ave 0 max 0 min
Histogram: 4 0 0 0 0 0 0 0 0 0

Total # of neighbors = 275611
Ave neighs/atom = 68.9027
Neighbor list builds = 85
Dangerous builds = 0

######################################
# SIMULATION DONE
print "All done"
All done
