ITEM: TIMESTEP
1000
ITEM: NUMBER OF ATOMS
4000
ITEM: BOX BOUNDS pp pp pp
-0.277438 40.7774
0.000817676 40.4992
-0.00890966 40.5089
ITEM: ATOMS mass type id x y z vx vy vz fx fy fz xrad yrad zrad vxrad vyrad vzrad fxrad fyrad fzrad xub yub zub vxub vyub vzub fxub fyub fzub xlb ylb zlb vxlb vylb vzlb fxlb fylb fzlb 
26.982 1 811 9.96545 0.159496 18.2523 0.0364583 0.207108 -2.67309 -0.181996 -0.72821 -0.328136 -0.00602647 0.0482548 -0.116903 -0.0129757 0.0961765 -0.233756 -0.000267809 -0.00109953 -0.000163828 9.96559 0.159667 18.2496 0.00391371 0.0768817 -2.73177 -0.182021 -0.728352 -0.328221 9.96559 0.159667 18.2496 0.00392225 0.0769322 -2.73174 -0.181973 -0.728069 -0.328051 
26.982 1 3 1.66644 0.217642 1.87845 3.14082 -2.91339 -1.80699 0.246687 -0.206096 0.383278 -0.0429261 -0.136848 -0.0324135 -0.0865576 -0.273584 -0.0648609 -0.000494786 -0.000576428 -0.000237745 1.66976 0.214686 1.87661 3.18494 -2.95025 -1.73844 0.246755 -0.206147 0.383399 1.66976 0.214686 1.87661 3.18492 -2.95023 -1.73849 0.246619 -0.206045 0.383156 
26.982 1 8 3.86717 2.15598 1.91096 -3.25295 0.358288 -0.48543 -0.30344 -0.554459 0.607976 0.0190349 -0.104915 -0.0680775 0.0365978 -0.209033 -0.136711 7.21788e-05 -0.000582039 -0.00027988 3.86407 2.1563 1.91045 -3.30721 0.259135 -0.376707 -0.303489 -0.55456 0.608085 3.86407 2.1563 1.91045 -3.30719 0.259171 -0.376746 -0.303391 -0.554358 0.607868 
26.982 1 807 5.85843 0.0584712 18.114 3.75056 -2.95419 -0.490909 -0.0592561 -0.529539 0.708808 -0.00798045 0.0449464 -0.115912 -0.0137209 0.087735 -0.232378 5.64812e-05 -0.00115303 0.000106223 5.86233 0.0554746 18.1135 3.73997 -3.04888 -0.364149 -0.0592427 -0.529586 0.708965 5.86233 0.0554746 18.1135 3.73996 -3.04886 -0.364205 -0.0592703 -0.529491 0.708651 
26.982 1 43 1.53931 3.87594 1.86893 3.56138 7.37609 -1.4903 0.603872 0.526902 0.342896 -0.0208625 -0.0541478 -0.0669064 -0.040942 -0.108233 -0.133585 -0.000499626 -0.000236354 -0.000703704 1.54306 3.88328 1.86742 3.66937 7.47032 -1.42897 0.603982 0.527029 0.34301 1.54306 3.88328 1.86742 3.66933 7.47027 -1.42901 0.60376 0.526775 0.342782 
26.982 1 202 1.82502 1.87458 4.04356 -1.52254 4.98581 -0.0192875 -0.162938 0.932874 -0.423833 -0.0508749 -0.0987924 -0.0567529 -0.100374 -0.196259 -0.113678 -0.000258233 -0.000393169 -0.000365522 1.82368 1.87954 4.04352 -1.55167 5.15263 -0.0950785 -0.162961 0.933029 -0.423896 1.82368 1.87954 4.04352 -1.55167 5.15258 -0.0950561 -0.162915 0.932719 -0.423771 
26.982 1 241 -0.207282 4.14601 3.9724 0.714128 -1.33186 -3.80769 -0.361766 -0.0894208 -0.172076 -0.0899874 -0.093728 -0.084813 -0.177831 -0.186688 -0.16815 -0.000513924 -0.000492581 -0.00054745 -0.206362 4.14465 3.96857 0.649439 -1.34786 -3.83846 -0.361806 -0.0894485 -0.172097 -0.206362 4.14465 3.96857 0.649453 -1.34785 -3.83845 -0.361727 -0.0893937 -0.172056 
26.982 1 245 3.77053 4.26204 3.97766 -1.75686 -2.10187 -2.03001 -0.0504499 -0.869296 -0.112712 -0.00264409 -0.0207436 -0.0175322 -0.0060372 -0.0412462 -0.0360321 -9.12317e-05 -0.000243073 -0.000120041 3.76893 4.25991 3.9756 -1.76589 -2.25732 -2.05017 -0.0505162 -0.86946 -0.11275 3.76893 4.25991 3.9756 -1.76587 -2.25727 -2.05016 -0.0503834 -0.869133 -0.112674 
26.982 1 2825 24.3331 20.1671 16.2411 2.0225 -1.26923 -0.561155 -0.110339 -0.0750335 -0.0115141 -0.0504925 -0.106827 -0.13193 -0.10127 -0.213291 -0.263415 -0.000179444 0.000605284 -0.000396342 24.3351 20.1659 16.2406 2.00276 -1.28265 -0.56321 -0.110363 -0.0750824 -0.0114968 24.3351 20.1659 16.2406 2.00277 -1.28263 -0.563216 -0.110314 -0.0749844 -0.0115316 
26.982 1 2819 18.1077 20.1399 18.1139 1.01488 2.16268 3.68171 0.0766906 0.0740823 0.227474 -0.0446434 -0.147727 -0.0852351 -0.0897967 -0.296 -0.169124 -0.000428029 0.000456504 -0.000325224 18.1088 20.1421 18.1175 1.02859 2.17592 3.72239 0.0767342 0.0740405 0.227525 18.1088 20.1421 18.1175 1.02858 2.17593 3.72237 0.0766456 0.0741249 0.227423 
26.982 1 12 7.83093 2.00503 2.02216 -1.55902 3.97932 1.98702 0.20885 0.438192 0.28676 -0.00845903 -0.104914 -0.0350227 -0.0176011 -0.209758 -0.0694429 -0.000192222 -0.000678343 -0.000527378 7.82949 2.00897 2.02412 -1.52167 4.05769 2.03831 0.208892 0.438338 0.286869 7.82949 2.00897 2.02412 -1.52168 4.05764 2.03827 0.208809 0.438046 0.286652 
26.982 1 47 5.85477 3.99374 1.98969 0.129658 1.34346 3.77119 -0.00085521 0.317202 -0.0996196 -0.0393685 -0.0220816 -0.067185 -0.077726 -0.0430855 -0.133964 1.77701e-05 -0.000229672 -0.00049678 5.85505 3.99505 1.99344 0.129507 1.40018 3.75336 -0.000842766 0.317253 -0.0996775 5.85505 3.99505 1.99344 0.129503 1.40017 3.75339 -0.000866666 0.317151 -0.0995617 
26.982 1 49 8.01324 4.09971 0.0290416 -1.80974 2.82131 4.65373 -0.114079 0.0889264 0.11014 -0.00998774 -0.010447 -0.186458 -0.0177642 -0.0178309 -0.373168 -2.03395e-05 1.74177e-05 -0.00104006 8.01155 4.10251 0.0336685 -1.83013 2.83722 4.67342 -0.114075 0.0889969 0.110161 8.01155 4.10251 0.0336685 -1.83013 2.8372 4.67342 -0.114083 0.0888547 0.110119 
26.982 1 206 5.7031 2.06929 4.07709 1.21406 -3.04115 0.344237 0.276184 0.126439 -0.120397 -0.0365887 -0.098457 -0.0506853 -0.0720463 -0.196524 -0.101112 -0.000118288 -0.000571216 -0.000341392 5.70446 2.06622 4.07741 1.26345 -3.01853 0.322705 0.276221 0.126467 -0.120425 5.70446 2.06622 4.07741 1.26343 -3.01854 0.322716 0.276149 0.126411 -0.120367 
26.982 1 209 7.92376 0.0192282 4.05252 -2.9437 1.63654 -5.21045 -0.184793 -0.0530371 0.26413 -0.0128925 -0.136603 -0.127057 -0.0234393 -0.272979 -0.253877 -9.83874e-05 -0.000800804 -0.000739941 7.92094 0.0208277 4.04728 -2.97675 1.62706 -5.16322 -0.184828 -0.0530155 0.26419 7.92094 0.0208277 4.04728 -2.97674 1.62705 -5.16324 -0.184758 -0.0530584 0.264072 
26.982 1 249 7.52577 4.23066 4.15358 1.01265 -2.64017 1.50337 1.38906 -0.917883 -0.35135 -0.00261711 -0.00919657 -0.00474668 -0.00477463 -0.0175024 -0.00977191 0.00026823 -0.000217866 -0.000142673 7.5269 4.22799 4.15506 1.26106 -2.80432 1.44054 1.38933 -0.918054 -0.351433 7.5269 4.22799 4.15506 1.26096 -2.80426 1.44057 1.38879 -0.917714 -0.35127 
26.982 1 10 9.87637 2.08677 0.082808 -0.291447 2.19788 -2.10136 0.657539 0.18604 0.167941 0.048406 -0.0987927 -0.146383 0.0961004 -0.198096 -0.29236 -9.97843e-05 -0.000522975 -0.000805677 9.87618 2.08893 0.0806769 -0.173853 2.23116 -2.07132 0.6577 0.18614 0.167988 9.87618 2.08893 0.0806769 -0.173911 2.23112 -2.07134 0.657377 0.18594 0.167895 
26.982 1 16 11.9636 1.96487 2.03412 -6.26511 -4.302 2.58273 0.0427045 0.489614 -0.0138171 0.0446638 -0.139823 -0.103897 0.0887737 -0.280172 -0.20707 0.00017418 -0.000661866 -0.000171564 11.9574 1.96053 2.03668 -6.25748 -4.21443 2.58026 0.0426964 0.489774 -0.0138082 11.9574 1.96053 2.03668 -6.25748 -4.21449 2.58026 0.0427128 0.489453 -0.0138256 
26.982 1 51 10.0152 4.14644 2.15419 2.8645 3.48852 5.15146 -0.31121 -0.267134 -0.0916626 0.00663145 -0.0171437 -0.0376221 0.0129644 -0.0326787 -0.0748784 -5.79885e-05 3.02767e-05 -0.000357293 10.0182 4.14989 2.15932 2.80884 3.44075 5.13508 -0.311282 -0.267186 -0.0916267 10.0182 4.14989 2.15932 2.80887 3.44077 5.13506 -0.311137 -0.267083 -0.0916997 
26.982 1 53 12.0301 4.11364 0.0651812 0.397315 1.19837 0.916027 0.128575 -0.284321 -0.224219 0.0367266 -0.0466998 -0.186416 0.0744948 -0.0909625 -0.373533 -3.4856e-05 1.57808e-07 -0.00103647 12.0306 4.11481 0.0660669 0.420303 1.14752 0.875926 0.128566 -0.28436 -0.224285 12.0306 4.11481 0.0660669 0.420306 1.14754 0.875949 0.128583 -0.284283 -0.224153 
26.982 1 210 9.86657 1.85939 3.90797 -2.67595 0.617256 6.59032 0.279264 0.707434 0.295542 0.00384307 -0.0637478 -0.0498294 0.00720726 -0.128248 -0.096787 0.000246162 -0.000432289 -0.000304709 9.86399 1.85997 3.91454 -2.62601 0.743777 6.64317 0.279294 0.707631 0.295576 9.86399 1.85997 3.91454 -2.62602 0.743707 6.64316 0.279235 0.707235 0.295505 
26.982 1 1197 36.8971 16.2941 20.2142 0.686207 -4.70707 -0.566217 -0.449622 0.00401696 0.0944259 -0.037181 -0.010371 0.0408477 -0.0733117 -0.0199367 0.0799681 -0.000546874 -0.00023489 0.000223465 36.8976 16.2894 20.2137 0.605793 -4.70635 -0.549322 -0.449755 0.00403479 0.0944907 36.8976 16.2894 20.2137 0.60584 -4.70636 -0.549345 -0.44949 0.00399937 0.0943614 
26.982 1 253 11.9622 4.09723 4.07724 -0.526113 0.198803 0.742871 0.234014 -0.250976 -0.123925 0.00307389 -0.0115517 -0.00895532 0.00554722 -0.0226993 -0.0174307 3.19347e-05 -0.000195959 -8.12858e-05 11.9617 4.0974 4.07796 -0.484268 0.153912 0.72071 0.234038 -0.251072 -0.123942 11.9617 4.0974 4.07796 -0.484277 0.153946 0.720716 0.233991 -0.250881 -0.123909 
26.982 1 20 16.0956 2.06215 2.01088 -3.30193 -0.282043 0.792685 -0.0854653 -0.235999 0.0701792 -0.0728302 -0.140028 -0.068797 -0.144611 -0.28053 -0.135947 -0.000195882 -0.000768454 -0.00013543 16.0923 2.06183 2.01165 -3.31721 -0.324247 0.805238 -0.0854623 -0.236046 0.070211 16.0923 2.06183 2.01165 -3.31721 -0.324231 0.805227 -0.085469 -0.235953 0.0701471 
26.982 1 55 14.1553 4.01995 1.93945 1.62227 2.24887 1.10154 -0.30863 0.0248058 0.147989 -9.92607e-05 -0.0586 -0.0707674 -0.00161777 -0.115051 -0.141589 -0.000149096 -0.000326628 -0.000362705 14.1569 4.02217 1.94052 1.56707 2.2533 1.12801 -0.308733 0.024774 0.148047 14.1569 4.02217 1.94052 1.56711 2.25331 1.12799 -0.308526 0.0248373 0.147931 
26.982 1 57 16.1789 4.0659 0.00261437 -1.02614 -0.736211 1.18902 0.0265596 -0.145568 0.305423 -0.0382566 -0.0521435 -0.186349 -0.0758185 -0.102649 -0.373596 -0.000210996 -0.000229708 -0.00106037 16.1779 4.06513 0.00377576 -1.02139 -0.762246 1.24364 0.0265495 -0.145614 0.305502 16.1779 4.06513 0.00377573 -1.02139 -0.76223 1.24361 0.0265709 -0.145521 0.305343 
26.982 1 214 13.9377 2.00876 4.00362 -7.00978 2.73802 2.3613 0.126291 0.442465 0.294832 0.031504 -0.101267 -0.0639391 0.0629324 -0.203095 -0.126741 -2.28368e-07 -0.000684338 -0.000245527 13.9308 2.01147 4.00595 -6.9872 2.81716 2.41403 0.126294 0.442621 0.29491 13.9308 2.01147 4.00595 -6.98721 2.8171 2.414 0.126287 0.442308 0.294754 
26.982 1 257 16.1125 4.0267 4.01551 -1.47172 -1.80031 0.865922 0.205947 -0.139691 0.159036 -0.00257434 -0.0215308 -0.00690086 -0.00508365 -0.0411993 -0.0135986 2.83282e-07 -0.000179517 1.43729e-05 16.1111 4.02487 4.01635 -1.43489 -1.82529 0.894367 0.205971 -0.139749 0.159092 16.1111 4.02487 4.01635 -1.4349 -1.82527 0.894347 0.205923 -0.139634 0.15898 
26.982 1 218 18.116 2.06717 3.94087 -4.43013 6.37988 -5.02289 -0.166098 -0.298615 0.532847 -0.00290711 -0.0988105 -0.0128896 -0.006636 -0.197145 -0.0269201 -0.000227785 -0.00058443 -0.000134538 18.1116 2.07352 3.93582 -4.45984 6.32648 -4.9276 -0.166151 -0.298699 0.532962 18.1116 2.07352 3.93582 -4.45982 6.32651 -4.92764 -0.166047 -0.298531 0.532732 
26.982 1 18 18.0522 2.00097 -0.00743618 2.61211 -2.38941 -2.7029 0.272243 -0.142754 0.285524 -0.0489863 -0.066806 -0.174482 -0.0960442 -0.132874 -0.349225 0.000153379 -0.00057482 -0.000794878 18.0548 1.99854 -0.0101716 2.6608 -2.41495 -2.65183 0.272301 -0.142821 0.285602 18.0548 1.99854 -0.0101717 2.66078 -2.41492 -2.65186 0.272184 -0.142686 0.285445 
26.982 1 819 18.3035 0.0315739 18.3577 -5.98032 -0.582392 1.44484 -0.334966 -0.233035 -0.655125 0.0290766 0.0477701 -0.0923994 0.0567882 0.095522 -0.186688 -0.000512524 -0.00106209 -6.88228e-05 18.2975 0.0309499 18.3592 -6.04022 -0.624069 1.32768 -0.335041 -0.2331 -0.655272 18.2975 0.0309499 18.3592 -6.0402 -0.624046 1.32774 -0.334889 -0.23297 -0.654977 
26.982 1 2813 12.0688 20.1848 16.1019 3.79432 -0.483942 4.03762 -0.581782 0.630832 -0.0643976 -0.0163812 -0.0641332 -0.0495583 -0.031548 -0.128998 -0.100214 -0.000389583 0.000520518 -0.0003732 12.0727 20.1843 16.1059 3.69028 -0.371135 4.0261 -0.581901 0.630922 -0.064434 12.0727 20.1843 16.1059 3.69032 -0.371168 4.02611 -0.581664 0.630742 -0.0643618 
26.982 1 22 22.2917 2.18259 0.120817 -3.84829 7.15898 2.10883 -0.0958079 -0.509749 -0.664478 -0.000915375 -0.06019 -0.14406 -0.00382447 -0.120535 -0.28876 -0.000142186 -0.000332593 -0.00108174 22.2878 2.18972 0.1229 -3.86542 7.06783 1.98999 -0.0958362 -0.509832 -0.664618 22.2878 2.18972 0.1229 -3.86541 7.06786 1.99004 -0.0957802 -0.509665 -0.664338 
26.982 1 24 20.0801 1.9768 2.12146 1.50723 -2.33128 -2.5831 0.431708 -0.0409419 -0.539881 0.0286467 -0.103073 0.00549807 0.0575538 -0.205961 0.00872242 -0.000138481 -0.000593083 -0.000485359 20.0816 1.97444 2.11885 1.58442 -2.33861 -2.67965 0.431764 -0.0409871 -0.539994 20.0816 1.97444 2.11885 1.5844 -2.33859 -2.67961 0.431652 -0.0408965 -0.539767 
26.982 1 59 18.2466 4.13219 2.13222 1.59143 -1.14716 1.43995 -0.147476 -0.331979 0.135463 -0.00299206 -0.012206 -0.0340443 -0.00600011 -0.0233785 -0.0678503 -4.4597e-05 -0.000126502 -0.000147586 18.2482 4.13101 2.13363 1.56505 -1.20652 1.46418 -0.147515 -0.332016 0.135504 18.2482 4.13101 2.13363 1.56507 -1.2065 1.46417 -0.147437 -0.331941 0.135422 
26.982 1 61 20.1469 3.94046 0.0597749 0.19713 -0.361842 -2.79838 0.495121 -0.0404369 -0.128359 0.000404769 0.0066568 -0.186369 0.00177408 0.0147109 -0.373278 0.00022865 4.95962e-05 -0.00107202 20.1471 3.94006 0.0569459 0.285678 -0.36908 -2.82134 0.495247 -0.040482 -0.128418 20.1471 3.94006 0.0569459 0.285633 -0.369064 -2.82132 0.494994 -0.0403912 -0.128301 
26.982 1 63 22.3905 4.01509 2.0003 3.80676 -0.459806 0.950541 -0.188185 0.177993 0.172562 -0.00108267 -0.0101934 -0.0339827 -0.00231981 -0.0195932 -0.0684343 -1.77662e-05 0.000117994 -0.000390205 22.3942 4.0146 2.00122 3.77311 -0.427987 0.981394 -0.188212 0.177966 0.172556 22.3942 4.0146 2.00122 3.77312 -0.427977 0.981396 -0.188158 0.17802 0.172567 
26.982 1 222 22.2374 1.986 4.04511 -0.814497 2.83825 -1.37149 0.453367 -0.0776454 -0.0147174 -0.0352462 -0.0961118 -0.0413394 -0.0715128 -0.191923 -0.0825935 8.14687e-05 -0.000192043 -4.56739e-05 22.2365 1.9888 4.04372 -0.733419 2.82436 -1.37412 0.453468 -0.0776836 -0.0146923 22.2365 1.9888 4.04372 -0.733455 2.82437 -1.37413 0.453266 -0.0776069 -0.0147424 
26.982 1 261 20.424 4.05141 3.99174 -3.91616 -0.0340505 0.296508 -0.62783 -0.0342442 0.295315 0.000877037 -0.016928 -0.00372899 0.000186585 -0.0333056 -0.00732416 -0.00013492 -3.87903e-05 3.45573e-05 20.4201 4.05134 3.99201 -4.02844 -0.0401765 0.349322 -0.627961 -0.0342625 0.295391 20.4201 4.05134 3.99201 -4.02839 -0.0401698 0.349295 -0.627699 -0.0342253 0.29524 
26.982 1 25 24.4128 0.0136301 0.0685639 1.456 -6.28989 4.28606 -0.0281744 0.192428 -0.154106 -0.0238003 -0.138293 -0.0992261 -0.0470067 -0.276952 -0.199536 0.00014651 -0.000586378 -0.000817424 24.4142 0.00729684 0.0728223 1.45096 -6.25548 4.2585 -0.0281791 0.192491 -0.154129 24.4142 0.00729682 0.0728223 1.45096 -6.2555 4.25851 -0.0281691 0.192365 -0.154083 
26.982 1 635 34.6523 0.140038 14.2533 -3.24275 -1.45417 -1.33134 -0.400839 -0.256365 -0.060598 0.000595512 0.0512777 -0.138088 0.000729782 0.100604 -0.275654 0.000342469 -0.0010418 -0.000210774 34.6489 0.138541 14.252 -3.31444 -1.5 -1.34217 -0.400936 -0.256374 -0.0605858 34.6489 0.138541 14.252 -3.31441 -1.5 -1.34217 -0.400741 -0.256356 -0.0606111 
26.982 1 27 26.4831 0.0349217 1.96404 0.271945 1.38436 -1.77752 -0.270697 -0.269269 0.0519793 0.0707532 -0.180258 -0.0313686 0.142962 -0.35938 -0.0633674 0.000372955 -0.00082943 -0.000351293 26.4833 0.03627 1.96223 0.223545 1.33621 -1.76823 -0.2707 -0.269333 0.0519887 26.4833 0.03627 1.96223 0.223546 1.33623 -1.76823 -0.270694 -0.269205 0.0519695 
26.982 1 28 24.3824 1.99557 1.9129 -0.352808 -0.109132 3.76691 0.102433 0.226186 0.43561 -0.0339199 -0.0701622 -0.0293151 -0.0659197 -0.138976 -0.0584827 0.000261832 -0.000123942 -0.000350845 24.382 1.99543 1.91665 -0.334484 -0.0686882 3.8448 0.102483 0.2262 0.435674 24.382 1.99543 1.91665 -0.334502 -0.0686931 3.84478 0.102384 0.226173 0.435547 
26.982 1 65 24.4205 4.18073 0.03335 -4.37233 3.73782 1.76107 -0.203114 -0.280827 -0.27576 -0.000335544 0.0089119 -0.186844 -0.00126834 0.0197161 -0.374006 0.000224655 0.000139967 -0.00114611 24.4161 4.18444 0.0350842 -4.40864 3.6876 1.71175 -0.203121 -0.280906 -0.27583 24.4161 4.18444 0.0350842 -4.40864 3.68763 1.71178 -0.203106 -0.280747 -0.275688 
26.982 1 67 26.2748 4.18353 2.0726 -4.15702 4.23905 -3.03545 0.498054 -0.297657 -0.126358 0.00306065 -0.00304244 -0.0358573 0.00604603 -0.00685748 -0.0721867 0.00018497 -6.69168e-05 -0.000620476 26.2705 4.18773 2.06953 -4.06794 4.18581 -3.05805 0.498204 -0.297752 -0.126397 26.2705 4.18773 2.06953 -4.06799 4.18584 -3.05804 0.497904 -0.297562 -0.12632 
26.982 1 225 24.3681 0.0766023 4.02279 1.31931 0.550109 4.78648 -0.189008 -0.15729 -0.10197 -0.034615 -0.138131 -0.0881548 -0.0686967 -0.277425 -0.17456 3.32993e-05 -0.00078217 -0.000306641 24.3694 0.0771152 4.02755 1.28551 0.521984 4.76824 -0.189051 -0.157299 -0.102007 24.3694 0.0771152 4.02755 1.28552 0.521987 4.76825 -0.188965 -0.157281 -0.101932 
26.982 1 226 26.3836 2.01786 4.03933 -2.61086 0.411437 0.618089 -0.0864311 0.175326 -0.155022 0.0371551 -0.0664062 -0.0123361 0.0747566 -0.132801 -0.023622 0.00021561 -0.000294541 -0.000162446 26.3809 2.01823 4.03993 -2.62631 0.442792 0.590361 -0.0864284 0.175372 -0.155081 26.3809 2.01823 4.03993 -2.62632 0.442776 0.590382 -0.0864337 0.175281 -0.154962 
26.982 1 265 24.379 4.11911 4.01451 -1.22113 -1.50751 1.13918 -0.0115014 -0.0914181 -0.0708237 -0.00232116 -0.00698084 -0.00452732 -0.00434326 -0.0132862 -0.00800877 4.56903e-05 -3.24484e-05 -5.37241e-05 24.3777 4.11757 4.01563 -1.22318 -1.52386 1.12652 -0.0114737 -0.0914551 -0.0708158 24.3777 4.11757 4.01563 -1.22319 -1.52385 1.12652 -0.0115295 -0.0913815 -0.0708317 
26.982 1 30 30.5681 2.14083 -0.00838409 1.41288 0.154376 0.1503 0.000111301 -0.415997 -0.0806685 0.014527 -0.131558 -0.142031 0.028341 -0.264472 -0.28308 -9.88939e-05 -0.000578628 -0.000959317 30.5694 2.14095 -0.00826334 1.4129 0.0799813 0.135877 8.45469e-05 -0.416089 -0.0806688 30.5694 2.14095 -0.00826334 1.41291 0.0800142 0.135877 0.000138099 -0.415905 -0.0806691 
26.982 1 32 28.358 1.96117 2.00836 -4.67235 -2.2264 -2.28972 0.437937 0.580492 -0.0274692 0.0434847 -0.140601 -0.0314726 0.0851351 -0.283021 -0.0643503 -0.000106391 -0.000393762 -0.000423591 28.3532 1.95891 2.00604 -4.59404 -2.12259 -2.29463 0.438008 0.580608 -0.0274758 28.3532 1.95891 2.00604 -4.59406 -2.12264 -2.29463 0.437864 0.580374 -0.0274629 
26.982 1 69 28.6905 4.1416 -0.000289174 -3.20122 -1.49454 -2.30825 -0.97941 -0.262557 -0.0205202 0.00563389 -0.00439989 -0.186341 0.0088987 -0.00838282 -0.37262 -0.000538189 -4.98547e-05 -0.000979064 28.6872 4.14007 -0.00262661 -3.37638 -1.5415 -2.31191 -0.979621 -0.262625 -0.0204934 28.6872 4.14007 -0.00262661 -3.3763 -1.54148 -2.31192 -0.979201 -0.262489 -0.0205487 
26.982 1 71 30.5052 4.14551 2.0471 -1.48772 4.08167 -1.42698 -0.0744238 -0.140947 0.25608 0.00885201 -0.0195672 -0.0393359 0.0164347 -0.0393818 -0.078915 -0.000103758 -8.50213e-05 -0.000136054 30.5036 4.14957 2.04565 -1.50104 4.05646 -1.38118 -0.0744759 -0.141005 0.256149 30.5036 4.14957 2.04565 -1.50102 4.05648 -1.3812 -0.0743712 -0.140889 0.256012 
26.982 1 230 30.441 2.18251 3.98273 0.828612 -1.59981 -1.49806 -0.130884 -0.163569 0.208763 0.00135156 -0.135064 -0.0503138 0.00446288 -0.269689 -0.100401 -0.000220182 -0.000295438 -2.97105e-05 30.4417 2.18088 3.98121 0.8052 -1.62906 -1.46073 -0.130942 -0.163577 0.208789 30.4417 2.18088 3.98121 0.805221 -1.62905 -1.46074 -0.130825 -0.163561 0.208737 
26.982 1 269 28.315 4.23436 4.16086 -7.26631 -1.01023 0.357667 0.27263 -0.430689 -0.493926 0.00395448 -0.0182999 -0.00478508 0.00542897 -0.035919 -0.00816561 4.19086e-05 -0.00015046 -0.000167621 28.3076 4.23332 4.1612 -7.21756 -1.08725 0.269334 0.272688 -0.430788 -0.494042 28.3076 4.23332 4.1612 -7.21758 -1.08722 0.269376 0.272571 -0.43059 -0.49381 
26.982 1 35 34.5226 0.0583326 2.02854 2.22937 2.47887 6.66607 0.403081 -0.289592 -0.0081243 -0.0312378 -0.13798 -0.106734 -0.061942 -0.276787 -0.212879 0.000315331 -0.00107485 -0.000445973 34.5247 0.0607736 2.03519 2.30146 2.42708 6.66461 0.403175 -0.289658 -0.00813609 34.5247 0.0607736 2.03519 2.30143 2.4271 6.66462 0.402988 -0.289525 -0.00811181 
26.982 1 36 32.5692 1.96757 2.07616 -1.75648 -1.3454 -3.80656 -0.16928 0.718802 -0.271267 0.001824 -0.136988 -0.0729552 0.00218198 -0.274771 -0.146105 -3.71189e-05 -0.00023671 -0.000437317 32.5673 1.96619 2.07232 -1.78676 -1.21686 -3.85507 -0.169343 0.718952 -0.271319 32.5673 1.96619 2.07232 -1.78674 -1.21691 -3.85505 -0.169215 0.718652 -0.271215 
26.982 1 73 32.5067 4.15196 0.0327528 -4.23133 -1.98311 -3.59065 0.0473001 -0.38271 0.140031 0.0793581 -0.00615703 -0.184879 0.157211 -0.0130333 -0.371684 8.23775e-05 -9.896e-05 -0.00101903 32.5023 4.14994 0.0291302 -4.22287 -2.05155 -3.56561 0.0473138 -0.3828 0.140047 32.5023 4.14994 0.0291302 -4.22288 -2.05152 -3.56561 0.0472869 -0.38262 0.140016 
26.982 1 75 34.6293 4.09937 2.07894 1.6181 3.07713 3.07209 -0.144351 -0.310251 -0.197197 0.0361856 -0.0122783 -0.143721 0.0734806 -0.0231062 -0.287087 0.000196152 -0.000115573 -0.000398731 34.6307 4.10242 2.08199 1.5923 3.02165 3.03682 -0.144338 -0.310302 -0.197255 34.6307 4.10242 2.08199 1.59229 3.02167 3.03684 -0.144364 -0.310202 -0.19714 
26.982 1 234 34.594 2.00812 4.0366 -0.842069 4.41772 -0.0354647 -0.17615 0.038788 -0.00694784 -0.0325072 -0.0627192 -0.034344 -0.0655587 -0.124543 -0.067483 0.000159934 -0.000276181 -6.90261e-05 34.593 2.0125 4.03654 -0.873569 4.42467 -0.0367022 -0.17618 0.0388339 -0.00692151 34.593 2.0125 4.03654 -0.873558 4.42465 -0.0367116 -0.17612 0.0387419 -0.00697373 
26.982 1 273 32.5526 4.10318 4.08019 3.47517 1.94797 0.500904 -0.213456 -0.0516771 0.00624687 0.00279341 -0.0179023 -0.0130633 0.00562394 -0.0358578 -0.0259615 -6.08739e-05 -2.83448e-05 2.25203e-05 32.5559 4.10509 4.08067 3.437 1.93873 0.502028 -0.213521 -0.0516893 0.0062869 32.5559 4.10509 4.08067 3.43702 1.93873 0.502013 -0.21339 -0.0516652 0.00620693 
26.982 1 4 40.5897 2.10953 1.92413 -1.61453 7.20313 -3.9039 0.105844 -0.234687 0.201841 -0.0691683 -0.137413 -0.0721132 -0.138224 -0.274539 -0.143409 -0.000265635 -0.000200923 -0.000702026 40.5879 2.11671 1.92019 -1.5956 7.16116 -3.86779 0.105854 -0.234716 0.20193 40.5879 2.11671 1.92019 -1.5956 7.16117 -3.86782 0.105834 -0.234657 0.201753 
26.982 1 40 36.4985 1.95415 1.98137 5.35691 2.72796 3.626 0.517558 0.294404 0.136932 0.0334669 -0.0678111 -0.177251 0.0684375 -0.135066 -0.354644 0.000547707 -0.000495834 -0.000595515 36.5037 1.95684 1.98497 5.44947 2.78061 3.65049 0.517658 0.294469 0.136973 36.5037 1.95684 1.98497 5.44943 2.78059 3.65048 0.517459 0.294337 0.136892 
26.982 1 79 38.7012 4.09581 1.93875 1.23305 0.85834 0.0138058 -0.158087 -0.0691034 0.0418252 -0.0411495 -0.0587374 -0.107268 -0.080404 -0.116195 -0.215614 -4.67474e-05 -0.000119682 -0.000958425 38.7023 4.09663 1.93874 1.20478 0.845985 0.0212913 -0.15813 -0.0691043 0.0418661 38.7023 4.09663 1.93874 1.2048 0.845985 0.0212767 -0.158043 -0.0691027 0.0417845 
26.982 1 961 -0.200244 16.3043 16.3339 -0.459905 -0.273306 0.0636912 -0.0151193 0.0540788 -0.460641 0.00774059 -0.0064641 -0.010645 0.0146361 -0.0120744 -0.0202761 -0.000489917 -0.00025069 -0.000388252 -0.2005 16.304 16.334 -0.462604 -0.263633 -0.0186872 -0.0150981 0.0540995 -0.460739 -0.2005 16.304 16.334 -0.462612 -0.26364 -0.0186521 -0.0151398 0.0540586 -0.460543 
26.982 1 238 38.674 2.01387 4.00505 -0.0857176 1.06259 3.74008 0.073613 0.0251823 -0.136538 0.03272 -0.0965748 -0.0645336 0.0654367 -0.192513 -0.130809 -0.000163352 -0.0004799 -0.000378011 38.6737 2.0149 4.00876 -0.0725511 1.0671 3.71567 0.0736398 0.0252111 -0.13657 38.6737 2.0149 4.00876 -0.0725607 1.06709 3.71568 0.0735861 0.0251533 -0.136506 
26.982 1 277 36.7986 3.91029 4.05854 -2.58865 7.86888 0.416127 -0.507732 0.532392 -0.177717 -0.000402417 -0.00746563 -0.0267036 -0.000747794 -0.0151229 -0.0537008 -2.13647e-05 -1.9004e-07 -0.000122373 36.7958 3.91813 4.05893 -2.67944 7.96409 0.384351 -0.507785 0.532494 -0.177719 36.7958 3.91813 4.05893 -2.67942 7.96405 0.384352 -0.507679 0.532289 -0.177715 
26.982 1 631 30.5745 0.0459911 14.1037 -2.07091 -1.61353 -2.21899 -0.0952418 0.0438561 0.592444 0.0362468 0.0521249 -0.102263 0.0711442 0.102174 -0.203349 -0.000259725 -0.00108731 -0.000186626 30.5724 0.0443361 14.1015 -2.08794 -1.60569 -2.11303 -0.0952632 0.0438641 0.592613 30.5724 0.0443361 14.1015 -2.08793 -1.60569 -2.11309 -0.0952202 0.0438492 0.592274 
26.982 1 48 3.78096 6.06514 2.01965 -5.9738 -1.46643 6.43318 -0.0579152 0.219528 -0.45588 -0.017969 -0.0303408 -0.0688871 -0.0374963 -0.0610093 -0.137508 -0.000295892 0.00018799 -0.000686727 3.77515 6.06365 2.02606 -5.98416 -1.42717 6.35165 -0.0579745 0.219537 -0.455993 3.77515 6.06365 2.02606 -5.98414 -1.42718 6.35169 -0.0578556 0.219519 -0.455767 
26.982 1 627 26.3332 0.0729348 14.2932 1.68924 1.91324 -1.89356 0.164319 0.177556 -0.0354962 -0.0357062 0.052004 -0.101535 -0.0697866 0.10248 -0.201301 1.51348e-05 -0.00100483 -0.000499646 26.3348 0.0748118 14.2913 1.71862 1.94499 -1.8999 0.164334 0.1776 -0.0354926 26.3348 0.0748118 14.2913 1.71862 1.94498 -1.8999 0.164304 0.177511 -0.0355001 
26.982 1 83 1.83179 8.14842 1.91326 1.1157 -1.16225 -1.4709 -0.213475 0.00793322 -0.243588 -0.0924606 -0.000200956 -0.0367594 -0.183624 -0.00159434 -0.075389 -0.000527404 -0.000148557 -0.000864001 1.83309 8.14723 1.91176 1.07752 -1.16083 -1.51447 -0.213543 0.00792915 -0.243655 1.83309 8.14723 1.91176 1.07755 -1.16083 -1.51444 -0.213407 0.00793716 -0.243521 
26.982 1 403 1.50114 0.0213302 9.97216 -3.01704 -4.73314 0.154698 0.535833 -0.238615 0.100141 -0.123272 0.00320538 -0.0550044 -0.245192 0.00531555 -0.112583 -0.00058364 -0.000758324 9.38624e-05 1.49831 0.0165549 9.9723 -2.92122 -4.7758 0.172598 0.535939 -0.238633 0.100117 1.49831 0.0165549 9.9723 -2.92126 -4.7758 0.172607 0.535728 -0.238599 0.100166 
26.982 1 242 1.7147 6.28048 3.85039 -8.18554 -6.18649 0.812066 -0.0844041 -0.433388 0.190109 -0.0927768 0.0305837 -0.0469378 -0.186654 0.0581194 -0.0940755 -0.000602228 0.000123789 -0.000367222 1.70669 6.27426 3.85118 -8.20064 -6.26399 0.846052 -0.084453 -0.433448 0.190087 1.70669 6.27426 3.85118 -8.20063 -6.26397 0.84606 -0.0843555 -0.433327 0.190132 
26.982 1 285 3.87105 8.24611 3.99029 0.325671 -7.6416 -0.734859 -0.175832 -0.385252 -0.152234 -0.01796 0.000699727 -0.00925256 -0.03485 -0.000241718 -0.0193439 -0.000126656 -8.51748e-05 -0.000179302 3.87154 8.23844 3.98953 0.294225 -7.7105 -0.762087 -0.175875 -0.385333 -0.152286 3.87154 8.23844 3.98953 0.29424 -7.71047 -0.762068 -0.175788 -0.38517 -0.152181 
26.982 1 46 5.92274 6.13153 0.180072 -0.976444 1.52152 -4.22243 -0.208168 -0.240165 -0.541429 -0.0361131 -0.0212007 -0.189219 -0.0721929 -0.0412463 -0.379034 -6.25702e-05 0.000284042 -0.00110654 5.92191 6.13302 0.175815 -1.01368 1.47857 -4.31925 -0.208232 -0.240223 -0.541536 5.92191 6.13302 0.175815 -1.01365 1.47859 -4.31921 -0.208105 -0.240108 -0.541321 
26.982 1 52 7.96391 6.04325 2.01837 -1.33267 -1.60291 -0.183241 0.125247 0.160643 -0.000235847 0.00059174 0.00790705 -0.0393109 0.000501309 0.0140856 -0.0775783 0.000218545 0.000197636 -0.000590847 7.9627 6.04161 2.01816 -1.31027 -1.57419 -0.183287 0.125309 0.160657 -0.000258504 7.9627 6.04161 2.01816 -1.31029 -1.57419 -0.183279 0.125185 0.160629 -0.000213209 
26.982 1 87 5.88665 8.16843 2.09645 -0.0274256 1.48585 2.6647 -0.111772 -0.156323 -0.361024 -0.00282148 0.0356446 -0.0730644 -0.00507005 0.0718193 -0.145087 -6.48613e-05 -3.75676e-05 -0.000659351 5.88676 8.1699 2.09909 -0.0474149 1.45789 2.60013 -0.1118 -0.156356 -0.361104 5.88676 8.1699 2.09909 -0.0474049 1.4579 2.60016 -0.111744 -0.156289 -0.360944 
26.982 1 603 1.64085 0.0517553 14.1555 1.45399 -3.89036 1.87847 0.313966 -0.701397 0.158119 -0.13424 0.00369342 -0.0558211 -0.267774 0.00516892 -0.110886 -0.000331768 -0.000848378 -8.99068e-05 1.64249 0.0478202 14.1573 1.51013 -4.01578 1.90675 0.314005 -0.701503 0.15818 1.64249 0.0478203 14.1573 1.51012 -4.01574 1.90673 0.313926 -0.701291 0.158058 
26.982 1 246 5.83395 6.11269 4.09958 -2.857 -3.86897 -0.446825 -0.399516 0.497435 -0.128541 -0.00198809 -0.000677414 -0.00517396 -0.00406931 -0.00300243 -0.0103991 -3.95496e-05 7.38872e-05 -6.83037e-05 5.83123 6.10879 4.09911 -2.92843 -3.78002 -0.46981 -0.399556 0.497499 -0.128555 5.83123 6.10879 4.09911 -2.92842 -3.78004 -0.469805 -0.399475 0.497372 -0.128526 
26.982 1 289 7.83842 8.0068 3.96916 0.0798015 -0.983858 3.41448 0.202931 0.115573 0.307919 0.00051363 0.00310824 -0.00976344 0.00286835 0.00591078 -0.0184282 4.32654e-05 2.58008e-06 -7.62713e-05 7.83863 8.00579 3.97255 0.116091 -0.963192 3.46954 0.202964 0.115584 0.307953 7.83863 8.00579 3.97255 0.116079 -0.963196 3.46953 0.202898 0.115563 0.307884 
26.982 1 92 7.91724 10.0553 2.15945 3.03474 0.51027 -0.841782 0.206157 0.201079 -0.531752 0.00419734 -0.000950752 -0.105586 0.00932923 -0.00249496 -0.21036 2.68508e-05 -0.000123614 -0.000508095 7.92039 10.0558 2.15858 3.07161 0.546228 -0.936878 0.206189 0.20111 -0.531869 7.92039 10.0558 2.15858 3.0716 0.546217 -0.936836 0.206124 0.201049 -0.531634 
26.982 1 286 5.97816 10.2644 4.02989 -2.57464 0.878081 -0.56887 -0.502865 -0.485743 0.0122187 -0.00137577 0.00114231 -0.0155794 -0.00211476 0.00123518 -0.0311186 -6.90049e-05 -5.12225e-05 -6.19037e-05 5.97573 10.2652 4.0293 -2.66456 0.791223 -0.566684 -0.502921 -0.48579 0.0122264 5.97573 10.2652 4.0293 -2.66454 0.79124 -0.566687 -0.502809 -0.485697 0.0122115 
26.982 1 1021 20.2458 0.0762329 20.1722 -3.93422 2.939 -1.36149 -0.105804 -0.109821 0.616433 -0.0025406 0.00300531 -0.0195634 -0.00562808 0.00597803 -0.0387846 0.000100326 -0.00105056 0.000258024 20.2419 0.0791343 20.1709 -3.95314 2.91936 -1.25125 -0.105831 -0.10984 0.616553 20.2419 0.0791343 20.1709 -3.95313 2.91937 -1.25129 -0.105778 -0.109801 0.616312 
26.982 1 56 12.1384 6.10269 1.99848 2.5405 2.27608 2.22223 -0.0704622 -0.386958 -0.0272025 0.0010472 0.0404595 -0.0746552 0.00180276 0.0819527 -0.147582 -0.000250593 8.48131e-05 -0.000617642 12.141 6.10494 2.00068 2.52789 2.20687 2.21737 -0.0705016 -0.387057 -0.0271952 12.141 6.10494 2.00068 2.52791 2.20691 2.21737 -0.0704218 -0.386857 -0.0272091 