ITEM: TIMESTEP
13000
ITEM: NUMBER OF ATOMS
4000
ITEM: BOX BOUNDS pp pp pp
-2.71634 43.2163
0.746968 39.753
0.722332 39.7777
ITEM: ATOMS mass type id x y z vx vy vz fx fy fz xrad yrad zrad vxrad vyrad vzrad fxrad fyrad fzrad xub yub zub vxub vyub vzub fxub fyub fzub xlb ylb zlb vxlb vylb vzlb fxlb fylb fzlb 
26.982 1 43 -0.428415 4.75563 2.62383 -3.10968 -0.908912 4.33644 -0.263354 -0.725337 0.969371 -10.8057 -6.47914 -16.9103 -1.68224 -0.737553 -2.68192 -0.0003428 -0.000114173 -0.000740645 -0.431343 4.75464 2.62823 -3.15678 -1.03863 4.50981 -0.263452 -0.725507 0.969637 -0.431343 4.75464 2.62823 -3.15674 -1.03857 4.50971 -0.263257 -0.725167 0.969107 
26.982 1 202 -0.434735 2.66986 4.80161 -1.04786 5.23176 -0.0215166 0.105621 0.0346776 -0.834072 -10.1445 -9.93187 -10.2345 -1.51391 -1.51718 -1.57168 -0.000230271 -0.000314502 -0.000436424 -0.4356 2.675 4.80163 -1.02898 5.23795 -0.170686 0.105639 0.034655 -0.8343 -0.4356 2.675 4.80163 -1.02898 5.23796 -0.170605 0.105603 0.0347002 -0.833845 
26.982 1 3 -0.261883 0.672221 2.51445 -6.9767 -3.66259 0.423853 -0.415146 0.354461 0.715264 -7.62069 -18.4047 -13.4438 -1.03882 -2.66287 -2.24323 -0.000181346 -0.000575896 -0.000512878 -0.26868 0.668448 2.51494 -7.05096 -3.59921 0.551767 -0.415315 0.35452 0.715419 -0.26868 0.668448 2.51494 -7.0509 -3.59923 0.551712 -0.414977 0.354401 0.71511 
26.982 1 4 -2.77291 2.64616 2.49488 1.99062 -0.436755 -2.99891 0.286074 -0.158818 0.290684 -11.0874 -12.8177 -15.0089 -2.01034 -1.78723 -2.22897 -0.000490715 -0.000325682 -0.000519734 -2.77071 2.64562 2.49194 2.04179 -0.465163 -2.94692 0.286216 -0.158885 0.29077 -2.77071 2.64562 2.49194 2.04174 -0.465139 -2.94695 0.285931 -0.15875 0.290599 
26.982 1 241 -2.6423 4.61369 4.55473 -0.566259 0.891284 3.61857 0.0502853 -0.0339107 -0.0343423 -8.59159 -8.76974 -10.3719 -1.07644 -1.08364 -1.39634 -0.000393352 -0.000289169 -0.000417343 -2.64266 4.61449 4.55841 -0.557257 0.88522 3.61242 0.0503477 -0.0339157 -0.0343767 -2.64266 4.61449 4.55841 -0.55728 0.885222 3.61243 0.050223 -0.0339051 -0.0343081 
26.982 1 245 2.07568 4.53529 4.71742 0.00588677 -0.290903 -3.40436 -0.148984 0.316752 0.155125 -1.03737 -2.3467 -3.29646 -0.168758 -0.3574 -0.526222 -2.0122e-05 -1.6598e-06 -7.51199e-05 2.07585 4.53491 4.71407 -0.0207545 -0.234258 -3.37662 -0.149003 0.316808 0.155174 2.07585 4.53491 4.71407 -0.0207477 -0.234278 -3.37663 -0.148965 0.316697 0.155075 
26.982 1 8 1.87523 2.8052 2.64024 -2.64519 2.73747 -4.39669 0.0401765 -0.585997 0.427561 2.28585 -16.1456 -17.1469 0.255619 -2.52739 -2.68451 8.20615e-05 -0.000611588 -0.000672963 1.87275 2.80784 2.6359 -2.63801 2.63267 -4.32022 0.0401637 -0.586125 0.427686 1.87275 2.80784 2.6359 -2.638 2.63272 -4.32027 0.0401904 -0.585869 0.427435 
26.982 1 47 4.12821 4.73234 2.64342 1.43876 -6.10267 0.130783 0.244959 -0.403649 0.449597 -1.11301 -4.55804 -16.5357 -0.0384819 -0.698666 -2.73085 0.000271725 -0.00030717 -0.000501427 4.12979 4.72614 2.64362 1.48257 -6.17485 0.211192 0.245041 -0.403691 0.449728 4.12979 4.72614 2.64362 1.48254 -6.17483 0.211145 0.244878 -0.403606 0.449466 
26.982 1 206 4.20536 2.53921 4.65431 -0.944133 3.99215 -3.5861 0.0726297 0.695698 -0.0918269 -0.608235 -14.9285 -9.46626 -0.05837 -2.18879 -1.43717 0.000169388 -0.00040952 -0.000481268 4.20456 2.54311 4.65077 -0.931145 4.11657 -3.60252 0.0726416 0.695843 -0.091839 4.20456 2.54311 4.65077 -0.931149 4.11652 -3.60251 0.0726182 0.695554 -0.0918148 
26.982 1 205 1.97348 0.847229 4.65927 0.89324 3.73563 2.89868 -0.555356 -0.0754225 0.0301116 0.42284 -12.3635 -11.2451 0.0505785 -2.05778 -1.86028 9.50938e-06 -0.000652696 -0.000572384 1.97454 0.850857 4.66223 0.793906 3.72215 2.90407 -0.55557 -0.0754007 0.0301445 1.97454 0.850857 4.66223 0.793983 3.72214 2.90406 -0.555142 -0.0754444 0.0300794 
26.982 1 45 1.87002 4.66028 0.80377 -0.0769773 -4.54161 -0.836965 0.304278 0.408445 -0.394607 -0.8366 -3.22942 -17.4278 -0.16597 -0.404575 -3.00402 -0.000153168 -0.000147684 -0.00113295 1.87011 4.65565 0.803003 -0.0225555 -4.46857 -0.907534 0.304378 0.40851 -0.394691 1.87011 4.65565 0.803003 -0.0225912 -4.4686 -0.907505 0.304179 0.408382 -0.394524 
26.982 1 249 6.48376 4.6559 4.51127 0.848318 -1.28286 -3.14343 -0.0625642 0.724515 0.52814 -0.184566 -2.16801 -2.62532 -0.0124457 -0.339949 -0.483333 7.85641e-06 1.75551e-05 -0.000142913 6.48473 4.65453 4.50818 0.83713 -1.15329 -3.04899 -0.0625739 0.724644 0.528217 6.48473 4.65453 4.50818 0.837133 -1.15334 -3.04901 -0.0625555 0.724385 0.528063 
26.982 1 12 6.3518 2.76542 2.77989 -2.53582 -3.8645 4.62088 0.13685 -0.616762 -0.541453 -2.89678 -18.7891 -14.7597 -0.34716 -2.75918 -2.60011 -4.03705e-05 -0.000591738 -0.000839028 6.34939 2.76145 2.78458 -2.51134 -3.97479 4.52405 0.136896 -0.616844 -0.541594 6.34939 2.76145 2.78458 -2.51136 -3.97476 4.5241 0.136804 -0.616681 -0.541313 
26.982 1 51 8.83086 4.80336 2.80551 2.99125 -3.65319 -1.27472 0.0247342 -0.0957814 -0.243769 0.221096 -2.32281 -13.8221 0.000332694 -0.30628 -2.50504 -4.01145e-05 -0.00018437 -0.000950697 8.83396 4.79962 2.8043 2.99569 -3.67034 -1.31831 0.0247869 -0.0958843 -0.243816 8.83396 4.79962 2.8043 2.99567 -3.6703 -1.3183 0.0246812 -0.0956785 -0.243722 
26.982 1 210 8.71214 2.78845 4.60304 0.749256 1.72358 -5.1758 0.408082 -0.434783 -0.0188638 0.785599 -13.9814 -7.91455 0.181915 -2.1921 -1.27259 0.000102562 -0.000536766 -0.000261435 8.71299 2.79008 4.59791 0.822248 1.64582 -5.17918 0.408237 -0.434867 -0.0189017 8.71299 2.79008 4.59791 0.822192 1.64585 -5.17917 0.407926 -0.434699 -0.0188266 
26.982 1 11 8.72469 0.77895 2.43288 -1.86434 -2.05835 -0.375161 0.0917849 -0.0402022 0.723577 1.85349 -9.59901 -13.6265 0.247308 -1.66854 -2.1539 4.75069e-07 -0.000516784 -0.000399262 8.72292 0.77678 2.43257 -1.84792 -2.06553 -0.245758 0.0918725 -0.0401261 0.723747 8.72292 0.77678 2.43257 -1.84795 -2.06555 -0.245818 0.0916965 -0.0402799 0.723409 
26.982 1 253 11.1822 4.51666 4.58215 6.72128 -5.92537 2.69968 -0.207047 0.334298 0.0897391 0.221027 -2.4241 -2.74384 0.00981255 -0.393582 -0.470299 -0.000127283 -9.26947e-05 -0.000181859 11.189 4.51065 4.58491 6.68425 -5.8656 2.71572 -0.207141 0.334326 0.0897052 11.189 4.51065 4.58491 6.68428 -5.86561 2.71573 -0.206953 0.33427 0.0897731 
26.982 1 16 11.5041 2.74674 2.62738 -6.11593 -1.40738 -2.67475 -0.596844 0.141521 0.174178 2.96416 -18.7768 -14.9248 0.165243 -2.88728 -2.31271 -0.000536085 -0.000432356 -0.000542225 11.4981 2.74524 2.62476 -6.22269 -1.38208 -2.64359 -0.597091 0.141516 0.17423 11.4981 2.74524 2.62476 -6.2226 -1.38208 -2.64361 -0.5966 0.141526 0.174126 
26.982 1 55 13.4714 4.7232 2.53788 -2.51608 5.8544 3.71907 0.158276 -0.0406742 0.465111 0.407103 -4.49115 -17.4956 0.0285716 -0.524946 -2.63574 -0.000174939 -5.46792e-05 -0.000260621 13.469 4.72898 2.54166 -2.48778 5.84713 3.80225 0.158313 -0.040627 0.46524 13.469 4.72898 2.54166 -2.48779 5.84712 3.8022 0.158242 -0.0407201 0.464983 
26.982 1 214 13.4531 2.70601 4.70927 2.96429 6.59224 -0.137509 -0.056027 -0.215301 -0.165597 0.871998 -15.5223 -8.71679 0.0325755 -2.35182 -1.26457 -8.0563e-06 -0.000508998 -0.000109357 13.4561 2.71251 4.70919 2.95427 6.55373 -0.167112 -0.056044 -0.215404 -0.165573 13.4561 2.71251 4.70919 2.95427 6.55377 -0.167121 -0.0560089 -0.215198 -0.16562 
26.982 1 14 13.5191 2.75351 0.495438 -5.17151 -2.07915 1.47347 -0.310127 0.0408291 0.047563 1.02667 -11.5587 -13.745 0.0971616 -1.77563 -2.77228 -0.000226437 -0.000406118 -0.000952715 13.514 2.75133 0.496978 -5.22698 -2.07186 1.48197 -0.31023 0.0407828 0.0475449 13.514 2.75133 0.496978 -5.22694 -2.07184 1.48198 -0.31002 0.0408752 0.0475801 
26.982 1 15 13.4038 0.812134 2.60744 1.68036 -2.69337 -2.98634 0.0845994 -0.370743 0.0961793 -0.917863 -8.74752 -18.5629 -0.065006 -1.87597 -2.56084 2.96797e-05 -0.00100828 -0.00020177 13.4056 0.809329 2.60451 1.69548 -2.75967 -2.96913 0.0845546 -0.370824 0.0962589 13.4056 0.809329 2.60451 1.69549 -2.75964 -2.96916 0.0846464 -0.370663 0.0960985 
26.982 1 57 15.5833 4.6581 0.499255 -0.883852 1.80233 -2.97854 0.152687 0.467265 0.267784 -1.70208 -2.64681 -20.454 0.0525095 -0.385387 -3.07627 0.000265351 -0.00018387 -0.000955007 15.5825 4.65982 0.496345 -0.856545 1.8859 -2.93065 0.152728 0.467403 0.267871 15.5825 4.65982 0.496345 -0.856559 1.88585 -2.93068 0.152646 0.467127 0.267696 
26.982 1 20 15.5669 2.72298 2.52609 2.88323 -1.93826 0.679368 0.208588 -0.00263059 0.116304 -3.94696 -18.7317 -14.7303 -0.198427 -2.87383 -2.34657 0.000436828 -0.00077845 -0.000321954 15.5699 2.72094 2.52684 2.92053 -1.93873 0.700177 0.20863 -0.00260852 0.116385 15.5699 2.72094 2.52684 2.92052 -1.93874 0.700148 0.208546 -0.00265171 0.116223 
26.982 1 257 15.7007 4.49013 4.66819 -1.95448 -3.96833 -0.834589 0.00670788 0.464562 -0.138957 -0.152157 -2.61017 -2.90223 0.00119163 -0.398687 -0.480973 3.12356e-05 -7.18263e-05 -6.22655e-05 15.6988 4.48607 4.66741 -1.95328 -3.88525 -0.859434 0.00671387 0.464641 -0.138959 15.6988 4.48607 4.66741 -1.95328 -3.88528 -0.859433 0.00670187 0.464484 -0.138955 
26.982 1 218 17.912 2.54727 4.64036 -2.05333 -5.20174 1.68836 0.273055 0.0872094 -0.550448 -0.98971 -14.7539 -6.87899 -0.0976855 -2.30131 -1.23044 3.90051e-05 -0.00066038 -0.000593115 17.91 2.54197 4.6421 -2.0045 -5.18613 1.58992 0.273086 0.0872768 -0.550591 17.91 2.54197 4.6421 -2.00451 -5.18616 1.58997 0.273024 0.0871426 -0.550306 
26.982 1 59 17.8843 4.58116 2.53708 -2.62333 -3.46057 -2.219 -0.131422 -0.307049 0.236731 0.396968 -1.30223 -15.0291 0.154949 -0.293111 -2.66852 0.00014197 -0.000498358 -0.000519286 17.8817 4.57761 2.53492 -2.64683 -3.51548 -2.17667 -0.131448 -0.307128 0.236797 17.8817 4.57761 2.53492 -2.64682 -3.51546 -2.17669 -0.131396 -0.306971 0.236666 
26.982 1 24 20.3066 2.71621 2.72687 2.77952 -1.58821 -0.508795 -0.521959 0.0571408 -0.411815 1.52785 -15.6663 -13.1252 0.152791 -2.45705 -2.49099 -0.000490948 -0.00060403 -0.000587707 20.3094 2.71453 2.72642 2.68618 -1.578 -0.582448 -0.522095 0.057122 -0.411938 20.3094 2.71453 2.72642 2.68622 -1.57799 -0.582404 -0.521824 0.0571595 -0.411692 
26.982 1 261 20.2384 4.70703 4.65586 -2.64374 -6.38097 -3.49119 -0.284377 -0.271419 0.034746 0.159665 -2.15073 -2.96825 0.0260143 -0.356249 -0.561434 -0.000135758 -0.000146956 -0.000112484 20.2357 4.70055 4.65242 -2.6946 -6.4295 -3.48498 -0.284492 -0.271432 0.0347313 20.2357 4.70055 4.65242 -2.69456 -6.4295 -3.48497 -0.284262 -0.271406 0.034761 
26.982 1 63 22.4197 4.56254 2.51363 1.26687 0.208694 0.0754751 0.24917 0.268484 -0.00200361 0.75502 -1.25237 -18.1149 0.0862702 -0.267162 -3.15443 6.93947e-05 -8.33445e-05 -0.000539782 22.4209 4.56267 2.51377 1.31143 0.256702 0.0751127 0.249206 0.268502 -0.00202679 22.4209 4.56267 2.51377 1.31142 0.256696 0.0751211 0.249135 0.268468 -0.00198014 
26.982 1 222 22.4845 2.86235 4.53004 0.850793 4.54427 0.245046 0.100558 -0.313803 0.368663 -0.412964 -13.7253 -7.74494 0.00895092 -2.16964 -1.29198 -0.000139727 -0.000362563 -0.000102802 22.4853 2.8668 4.53034 0.868778 4.48815 0.310964 0.100594 -0.313871 0.368672 22.4853 2.8668 4.53034 0.868766 4.48817 0.31096 0.100524 -0.313736 0.368654 
26.982 1 28 24.881 2.55844 2.60483 4.39057 -2.49246 7.08564 -0.302697 0.330059 -0.0546898 -1.18432 -13.0635 -16.1122 -0.0665538 -2.17993 -2.68712 5.52581e-05 -0.000148172 -0.00086282 24.8853 2.55584 2.61198 4.33643 -2.43344 7.07586 -0.302795 0.330102 -0.0547025 24.8853 2.55584 2.61198 4.33647 -2.43346 7.07586 -0.302599 0.330017 -0.0546769 
26.982 1 265 24.8087 4.56624 4.60774 -1.72398 -2.39881 0.990321 0.0545219 -0.351246 -0.106226 -0.00714988 -1.89187 -3.46908 0.00355251 -0.339745 -0.62419 5.63309e-05 -5.2742e-05 -0.000160759 24.807 4.56375 4.60878 -1.71422 -2.46161 0.971327 0.0545559 -0.351268 -0.106233 24.807 4.56375 4.60878 -1.71424 -2.46161 0.971329 0.0544875 -0.351225 -0.106219 
26.982 1 225 24.7475 0.908186 4.75535 2.43332 4.44691 -0.717319 -0.295793 -0.656665 -0.336259 -0.579538 -13.0444 -10.3797 -0.000433328 -1.78308 -1.55553 -0.000111963 -0.000771103 -0.000487596 24.7499 0.91253 4.75468 2.38042 4.32947 -0.777456 -0.295873 -0.65683 -0.336343 24.7499 0.91253 4.75468 2.38045 4.32953 -0.777426 -0.295713 -0.656499 -0.336176 
26.982 1 23 22.451 0.943343 2.54772 3.66189 -1.50037 1.651 0.0912056 -0.584868 -0.120593 0.304955 -10.8896 -16.0679 0.0116315 -1.81978 -2.74771 -0.000172061 -0.000999715 -0.000350202 22.4546 0.941733 2.54944 3.6782 -1.60497 1.62942 0.0912084 -0.58504 -0.120678 22.4546 0.941733 2.54944 3.6782 -1.60491 1.62945 0.0912034 -0.584695 -0.120508 
26.982 1 22 22.5482 2.72341 0.483953 2.15046 0.195599 -2.32276 -0.304741 -0.468696 0.30165 1.54131 -10.9295 -19.8016 0.158966 -1.70582 -2.87283 8.63922e-07 -0.000180974 -0.000960522 22.5503 2.72351 0.481697 2.09596 0.111776 -2.26882 -0.304846 -0.468817 0.301703 22.5503 2.72351 0.481697 2.09599 0.111819 -2.26884 -0.304634 -0.468574 0.301597 
26.982 1 67 27.0723 4.48992 2.68796 6.23159 -0.211369 -0.0905786 0.0471262 0.113051 0.255646 0.830309 -0.532544 -21.089 0.183427 -0.108164 -3.57657 8.38628e-05 3.93611e-05 -0.000990193 27.0785 4.48962 2.68793 6.24002 -0.191149 -0.0448561 0.0471528 0.113091 0.255724 27.0785 4.48962 2.68793 6.24001 -0.191163 -0.0448838 0.0470996 0.113011 0.255569 
26.982 1 226 26.9898 2.47916 4.56799 3.41546 -3.08586 2.88959 0.44212 0.475812 -0.0117573 0.201243 -11.3646 -5.97556 -0.0359915 -1.9986 -1.18962 0.000176228 -0.000115877 -0.000178725 26.9931 2.47598 4.57094 3.49454 -3.00078 2.88749 0.442279 0.4759 -0.0117156 26.9931 2.47598 4.57094 3.49448 -3.00081 2.88748 0.441961 0.475726 -0.0117995 
26.982 1 32 29.342 2.71114 2.61709 -3.11893 1.45687 2.69196 0.195432 -0.189703 0.65673 0.20825 -11.7345 -17.2473 0.0383439 -1.86042 -3.00463 7.43582e-05 -0.000180504 -0.000943524 29.3388 2.7125 2.61985 -3.08397 1.42295 2.80941 0.195534 -0.189738 0.656882 29.3388 2.7125 2.61985 -3.08401 1.42296 2.80935 0.195329 -0.189669 0.656578 
26.982 1 269 29.2632 4.63618 4.6022 2.39321 5.08517 -3.58455 -0.260478 -0.313564 0.253611 -0.122312 -1.68427 -3.76373 -0.0130865 -0.297738 -0.706946 -3.72133e-05 -0.00010851 -0.000114901 29.2656 4.64118 4.59867 2.34663 5.02909 -3.53919 -0.26052 -0.313656 0.253709 29.2656 4.64118 4.59867 2.34664 5.02913 -3.53922 -0.260437 -0.313472 0.253514 
26.982 1 229 29.4769 0.649123 4.48832 -6.5306 4.75779 -3.76058 -0.0529247 0.473073 -0.017906 0.310639 -12.065 -9.19074 0.0550765 -1.92861 -1.58891 4.02539e-05 -0.000665332 -0.000450148 29.4703 0.653776 4.48461 -6.54006 4.84239 -3.76377 -0.052897 0.473175 -0.017872 29.4703 0.653776 4.48461 -6.54007 4.84235 -3.76378 -0.052953 0.472972 -0.0179404 
26.982 1 27 26.9695 0.765197 2.43692 1.71761 3.16688 0.160356 0.206396 -0.0632259 0.459076 -0.0747021 -20.3409 -14.0007 -0.156108 -2.38067 -2.38995 0.000100258 -0.000736778 -0.000727526 26.9712 0.768262 2.43714 1.75452 3.15556 0.242451 0.206437 -0.0633049 0.459154 26.9712 0.768262 2.43714 1.7545 3.15559 0.242423 0.206354 -0.0631455 0.458997 
26.982 1 71 31.7322 4.71078 2.47411 1.38508 -3.32647 0.872023 -0.0782096 -0.358363 0.11819 -1.89679 -0.873598 -18.6939 -0.313035 -0.221365 -3.40199 -2.35914e-05 -7.86669e-05 -0.00103456 31.7335 4.70736 2.47505 1.37109 -3.39056 0.893161 -0.078227 -0.358441 0.118225 31.7335 4.70737 2.47505 1.3711 -3.39053 0.893149 -0.0781923 -0.358285 0.118156 
26.982 1 230 31.5382 2.91422 4.60828 -2.9672 -3.41157 -1.83686 0.160225 -0.566121 -0.0905116 -0.975828 -11.933 -6.75524 -0.0659744 -1.95501 -1.22489 0.000201212 -0.000431676 -0.000210438 31.5351 2.91071 4.6065 -2.93854 -3.51283 -1.85304 0.16031 -0.566351 -0.090517 31.5351 2.91071 4.6065 -2.93857 -3.51275 -1.85304 0.160138 -0.565893 -0.0905079 
26.982 1 273 33.8513 4.71485 4.62334 -2.52203 -3.96731 1.26651 0.274707 -0.193346 -0.215493 -0.0342114 -1.42901 -2.99112 -0.0256718 -0.287336 -0.562817 5.6578e-05 -0.000162108 -0.000207062 33.8487 4.71079 4.62466 -2.4729 -4.00189 1.22798 0.274766 -0.193403 -0.215521 33.8487 4.7108 4.62466 -2.47292 -4.00187 1.22799 0.274649 -0.19329 -0.215465 
26.982 1 36 34.0363 2.68993 2.5439 -0.63394 2.86153 -0.438511 -0.102649 -0.539549 0.501905 -1.17352 -13.0035 -16.4394 -0.22924 -2.21984 -2.79484 -4.43555e-05 -0.000517371 -0.000516389 34.0355 2.69269 2.54353 -0.6523 2.76504 -0.34875 -0.102689 -0.539653 0.50203 34.0355 2.69269 2.54353 -0.652286 2.76508 -0.348795 -0.102609 -0.539446 0.50178 
26.982 1 31 31.7653 0.742776 2.58457 -0.811529 0.701953 1.0801 0.062029 0.110235 0.389784 -1.89691 -15.787 -15.4448 -0.0322229 -2.14305 -2.58739 0.000198268 -0.000606381 -0.000505857 31.7644 0.743371 2.58571 -0.800429 0.721674 1.14981 0.0620839 0.110297 0.389883 31.7644 0.743371 2.58571 -0.800449 0.721652 1.14977 0.0619742 0.110174 0.389684 
26.982 1 75 36.2947 4.71651 2.70801 0.633596 -2.3496 -4.32704 0.0728597 -0.174723 -0.273877 1.92742 -1.10246 -19.0294 0.0351009 -0.225308 -2.97286 -0.000146521 -0.000190742 -0.000425935 36.2952 4.71407 2.70374 0.646631 -2.38085 -4.37601 0.0729073 -0.174783 -0.273889 36.2952 4.71407 2.70374 0.646614 -2.38083 -4.376 0.0728124 -0.174664 -0.273866 
26.982 1 234 36.1542 2.87762 4.66309 -5.49101 6.10349 -1.93677 0.39353 -0.134309 -0.15768 0.359929 -9.73084 -5.52977 -0.0303151 -1.77422 -1.07006 5.42881e-05 -0.0006417 -0.00033897 36.1486 2.88363 4.66121 -5.42063 6.07947 -1.96497 0.39363 -0.134322 -0.157719 36.1486 2.88363 4.66121 -5.42067 6.07948 -1.96496 0.393431 -0.134297 -0.157643 
26.982 1 40 38.5967 2.73355 2.71658 2.03422 -1.77315 -0.411021 -0.117361 0.441357 -0.128394 4.02885 -13.0189 -19.7303 0.375455 -2.33002 -2.9463 0.000145586 -0.000839992 -0.000331503 38.5986 2.73167 2.71624 2.01323 -1.69421 -0.433977 -0.117413 0.44149 -0.128391 38.5986 2.73167 2.71624 2.01325 -1.69426 -0.433978 -0.117309 0.441224 -0.128399 
26.982 1 277 38.5504 4.82954 4.78142 0.424421 -1.81873 5.12755 0.0565727 -0.578097 -0.409566 0.233045 -1.66546 -3.67205 0.0266726 -0.285832 -0.555896 2.32013e-05 -0.000222283 -0.000153635 38.5507 4.82763 4.78661 0.434537 -1.92211 5.05431 0.0565814 -0.578213 -0.409648 38.5507 4.82764 4.78661 0.434534 -1.92207 5.05434 0.0565636 -0.577982 -0.409484 
26.982 1 34 36.3647 2.77034 0.690298 -0.134492 -6.92668 3.31467 0.112086 -0.352844 0.292692 1.39692 -7.31614 -19.7684 -0.0200242 -1.58948 -3.05192 -0.000127122 -0.00051194 -0.00069939 36.3644 2.76331 0.693687 -0.114446 -6.98978 3.36702 0.112113 -0.352909 0.29277 36.3644 2.76331 0.693687 -0.114456 -6.98975 3.36699 0.112061 -0.352779 0.292614 
26.982 1 77 38.6206 4.81199 0.626988 -1.97061 1.76699 1.34918 0.243649 -0.54232 0.546791 0.0164697 -1.11507 -10.1314 0.158433 -0.165023 -2.37234 0.000351618 -0.000108624 -0.000929542 38.6185 4.81368 0.628409 -1.92704 1.67 1.44697 0.243724 -0.542415 0.54693 38.6185 4.81368 0.628409 -1.92706 1.67004 1.44692 0.243574 -0.542226 0.546651 
26.982 1 79 40.9443 4.60711 2.65272 -2.40446 5.92465 -5.7905 -0.242129 0.352012 0.0247643 -1.01472 -3.08679 -20.5158 0.0514526 -0.359481 -3.21765 -6.1948e-05 -8.70598e-05 -0.000657437 40.9417 4.61295 2.64698 -2.44777 5.9876 -5.78607 -0.24223 0.352076 0.0248003 40.9417 4.61295 2.64698 -2.44773 5.98757 -5.78608 -0.242029 0.351948 0.0247277 
26.982 1 238 40.9967 2.79793 4.63028 -4.66435 0.703789 -4.5191 -0.195932 -0.346936 -0.212398 0.0759544 -12.8027 -8.7319 0.0435938 -2.0068 -1.33778 -5.78884e-05 -0.000675369 -0.000451286 40.9918 2.79853 4.62581 -4.69939 0.641752 -4.55708 -0.195981 -0.346965 -0.212474 40.9918 2.79853 4.62581 -4.69937 0.641763 -4.55706 -0.195882 -0.346908 -0.212322 
26.982 1 41 43.2526 4.73357 0.796896 5.02316 0.37565 0.957965 0.0651717 -0.148151 0.183047 -5.89432 -6.9606 -13.6659 -1.05053 -0.974856 -2.0726 -9.5836e-06 2.27981e-05 -0.00103215 43.2575 4.73386 0.797924 5.03481 0.349146 0.990698 0.0651607 -0.148236 0.183072 43.2575 4.73386 0.797924 5.03482 0.349176 0.990689 0.0651833 -0.148066 0.183023 
26.982 1 83 -0.423287 8.58783 2.76287 -1.20761 -2.66494 8.7352 -0.00821488 0.126938 0.0462027 -12.5399 -4.25794 -16.8906 -1.85126 -0.79324 -2.81561 -0.000418953 -0.000120927 -0.000843979 -0.424313 8.5851 2.77167 -1.20908 -2.64223 8.74346 -0.00819328 0.127017 0.0462023 -0.424313 8.5851 2.77167 -1.20909 -2.64225 8.74346 -0.0082361 0.126858 0.0462036 
26.982 1 242 -0.130849 6.69342 4.73813 -0.223315 1.90217 3.31978 -0.444927 -0.379516 -0.300159 -12.7784 -0.549069 -7.80853 -1.94815 -0.20071 -1.20803 -0.00046936 3.04942e-05 -0.000335408 -0.130892 6.69525 4.7415 -0.302882 1.83429 3.2661 -0.445015 -0.379634 -0.300201 -0.130892 6.69525 4.7415 -0.302851 1.83434 3.26612 -0.44484 -0.379397 -0.300119 
26.982 1 282 -0.577812 10.5563 4.73751 0.734675 0.0335573 0.603812 0.237771 -0.20438 -0.470218 -11.3864 -0.172496 -6.0279 -1.60506 -0.0557061 -0.930924 -0.000388383 -0.000211918 -0.000398049 -0.576892 10.5563 4.73817 0.777194 -0.00297616 0.519727 0.23781 -0.204329 -0.470284 -0.576892 10.5563 4.73817 0.77718 -0.00299484 0.519751 0.237732 -0.204433 -0.470154 
26.982 1 48 1.79883 6.48526 2.73132 -3.54319 0.465964 -6.18807 0.428187 0.293707 0.266461 -3.30521 -1.19592 -16.1781 -0.514213 -0.123289 -2.64118 -0.000108814 0.000338926 -0.000590782 1.79545 6.48565 2.72519 -3.46661 0.518492 -6.14041 0.428345 0.29379 0.266569 1.79545 6.48565 2.72519 -3.46666 0.518463 -6.14045 0.42803 0.293625 0.266352 
26.982 1 285 1.88181 8.55649 4.54923 2.05305 -4.0288 0.989501 0.26368 0.325483 0.0558165 -1.55255 -0.233332 -2.48061 -0.204432 -0.0332812 -0.422289 -1.72181e-07 0.000104739 -0.000248708 1.88403 8.55239 4.55028 2.10021 -3.97059 0.999478 0.263748 0.325575 0.0557989 1.88403 8.55239 4.55028 2.10019 -3.97062 0.999484 0.263611 0.325392 0.0558332 
26.982 1 87 4.3763 8.55987 2.84848 0.325099 -6.36681 1.68412 -0.468173 -0.165712 -0.148728 -0.121128 -0.287308 -14.6035 -0.0418736 0.0299331 -2.44746 -0.000179846 0.000191707 -0.000766922 4.37677 8.55344 2.85023 0.241361 -6.39645 1.65753 -0.468339 -0.165757 -0.148723 4.37677 8.55344 2.85023 0.24142 -6.39643 1.65753 -0.468009 -0.165667 -0.148734 
26.982 1 246 4.20418 6.58591 4.96727 -0.707468 -5.4949 0.0608522 0.0567792 -0.242068 -0.608046 -0.0690996 -0.16722 -2.16965 -0.00633112 -0.0289937 -0.380094 2.74575e-05 -5.8218e-05 -0.00021161 4.20361 6.58034 4.96739 -0.697312 -5.5382 -0.0478886 0.0568009 -0.242134 -0.608183 4.20361 6.58034 4.96739 -0.69732 -5.53817 -0.0478399 0.0567568 -0.242003 -0.607911 
26.982 1 46 4.20072 6.63722 0.878105 -5.30946 -0.290982 2.54713 -0.00962112 0.474605 -0.116517 -0.680053 -0.240541 -23.0602 -0.0358822 -0.0576398 -3.37955 0.000132941 0.000208828 -0.00105785 4.19555 6.63685 0.880724 -5.31117 -0.206116 2.5263 -0.00959903 0.474646 -0.116501 4.19555 6.63685 0.880724 -5.31118 -0.20613 2.52629 -0.00964385 0.474566 -0.116534 
26.982 1 289 6.47301 8.61162 4.86237 2.40585 -2.36942 -2.06521 0.189633 -0.522833 -0.121123 0.134478 0.0308337 -2.19532 0.0185919 0.00306921 -0.373851 2.21084e-05 -0.000130501 -0.000205647 6.47554 8.60918 4.86035 2.43976 -2.46293 -2.08688 0.189653 -0.522974 -0.121186 6.47554 8.60918 4.86035 2.43975 -2.46288 -2.08686 0.189614 -0.522691 -0.121059 
26.982 1 52 6.51786 6.82081 2.64438 1.36123 1.44444 2.5964 0.0443742 -0.374338 0.43447 0.0994557 0.119886 -14.5861 0.0808596 -0.115132 -2.51357 0.00018582 -9.48565e-05 -0.00079542 6.51934 6.82219 2.64704 1.36916 1.37749 2.6741 0.0443768 -0.374453 0.434599 6.51934 6.82219 2.64704 1.36916 1.37753 2.67406 0.0443713 -0.374221 0.434342 
26.982 1 91 8.98932 8.46842 2.62635 4.54556 4.29724 -3.0405 -0.138389 0.0366831 -0.178485 1.63435 1.26476 -17.4627 0.206079 0.0203715 -2.7852 -0.000283128 -4.95564e-08 -0.000826782 8.99397 8.47266 2.62337 4.52081 4.30379 -3.07242 -0.13839 0.0366571 -0.178502 8.99397 8.47266 2.62337 4.52081 4.3038 -3.07241 -0.138388 0.0367096 -0.178467 
26.982 1 250 8.78048 6.78242 4.7104 5.06909 1.47665 -2.39767 0.207722 -0.356776 0.046712 0.121308 0.0680169 -2.13672 0.0190867 -0.0056006 -0.411569 8.8119e-06 -0.000129134 -0.000139844 8.78566 6.78382 4.70806 5.10624 1.41284 -2.38931 0.207749 -0.356894 0.0467143 8.78566 6.78382 4.70806 5.10623 1.41288 -2.38931 0.207695 -0.356657 0.0467094 
26.982 1 293 11.3785 8.47715 4.52552 -6.32391 -3.05747 -6.6293 -0.669557 0.450609 -0.239589 0.0624732 0.218018 -2.90782 0.00647252 0.0186776 -0.45819 -0.0001797 6.02528e-05 -8.52025e-05 11.3723 8.47403 4.51894 -6.44365 -2.97689 -6.67214 -0.669711 0.450678 -0.239611 11.3723 8.47403 4.51894 -6.4436 -2.97691 -6.67213 -0.669404 0.45054 -0.239567 
26.982 1 56 11.0519 6.58103 2.63334 3.09863 -2.09575 0.836408 0.267026 -0.20333 -0.0360518 0.820787 1.77013 -16.7867 -0.016567 0.148806 -2.73894 -0.000164949 -0.000296497 -0.000583132 11.0551 6.57886 2.63424 3.14638 -2.13212 0.829962 0.267054 -0.203385 -0.0360533 11.0551 6.57886 2.63424 3.14637 -2.1321 0.829962 0.266998 -0.203274 -0.0360503 
26.982 1 95 13.4929 8.47952 2.61542 -4.84223 0.861075 1.42983 -0.0884556 -0.0605621 -0.110389 -0.461841 1.34751 -19.3861 0.0137512 0.186063 -2.97834 -7.22312e-05 -3.51836e-05 -0.00029674 13.4881 8.48032 2.61692 -4.85806 0.850244 1.41008 -0.0884889 -0.060578 -0.110476 13.4881 8.48032 2.61692 -4.85804 0.850249 1.41011 -0.088422 -0.0605462 -0.110303 
26.982 1 254 13.5161 6.61776 4.63451 -1.61275 3.85761 2.14573 0.0169689 -0.212125 -0.382146 0.0281993 -0.0193961 -2.63151 0.000376069 -0.0032117 -0.422629 1.16845e-05 -9.45866e-05 -0.000114192 13.5146 6.62155 4.63671 -1.60971 3.81967 2.07739 0.0169919 -0.21221 -0.382242 13.5146 6.62155 4.63671 -1.60972 3.8197 2.07742 0.0169467 -0.212039 -0.382051 
26.982 1 54 13.2354 6.45816 0.52296 0.221791 -0.146359 3.12266 0.360422 0.935065 0.147738 -1.43489 3.01324 -19.3907 -0.202181 0.445919 -3.14107 -0.000229036 -6.404e-05 -0.000990633 13.2357 6.45794 0.526158 0.286249 0.0208607 3.14908 0.36051 0.935249 0.147791 13.2357 6.45794 0.526158 0.286218 0.0207951 3.14906 0.360337 0.934881 0.147686 
26.982 1 294 13.4648 10.5541 4.5638 1.18908 1.71455 -0.494421 -0.128722 -0.0652272 0.115988 0.0270543 0.111162 -3.19146 0.00333686 0.00477306 -0.488943 -7.57816e-06 -5.99576e-06 2.51034e-05 13.4661 10.5558 4.56336 1.16606 1.70288 -0.473674 -0.128724 -0.0652408 0.116037 13.4661 10.5558 4.56336 1.16606 1.70289 -0.473692 -0.12872 -0.0652129 0.115939 
26.982 1 93 11.134 8.54439 0.660722 4.89083 1.52368 -1.00048 -0.120016 0.170653 0.0955159 2.44104 0.658678 -13.8372 0.228541 0.0136162 -2.48424 -0.000390396 -6.4398e-05 -0.00103027 11.139 8.54585 0.659792 4.86936 1.5542 -0.983399 -0.120046 0.17067 0.0955198 11.139 8.54585 0.659792 4.86938 1.55419 -0.9834 -0.119986 0.170636 0.0955117 
26.982 1 60 15.7483 6.59043 2.7716 -1.32587 4.85558 1.72756 -0.349949 -0.556483 -0.362488 -0.38532 0.827096 -17.0524 0.0350036 0.135696 -2.79044 -7.68973e-05 -0.000192092 -0.000270855 15.747 6.59521 2.77339 -1.38846 4.75606 1.66273 -0.350036 -0.556635 -0.36259 15.747 6.59521 2.77339 -1.38843 4.75611 1.66277 -0.349863 -0.556331 -0.362388 
26.982 1 297 15.7569 8.63519 4.55156 -4.6584 -0.474419 -1.01218 -0.678824 -0.207532 0.272636 -0.0164243 0.217269 -2.95428 0.00509125 0.0286793 -0.491193 -0.000127702 -2.45635e-05 7.06977e-05 15.7523 8.63465 4.5506 -4.77979 -0.511529 -0.963418 -0.678952 -0.207556 0.272719 15.7523 8.63465 4.5506 -4.77975 -0.51152 -0.963447 -0.678696 -0.207506 0.272554 
26.982 1 99 17.7839 8.4809 2.59602 5.87733 -3.51551 1.05817 0.460305 0.194475 -0.0302271 -0.813264 1.58752 -17.8073 -0.136681 0.198675 -2.9499 0.000161644 1.01365e-05 -0.00022629 17.7898 8.47732 2.59714 5.95966 -3.48073 1.05276 0.460441 0.194487 -0.0302514 17.7898 8.47732 2.59714 5.95961 -3.48074 1.05277 0.46017 0.194464 -0.0302025 
26.982 1 258 17.894 6.68148 4.54235 0.883325 -0.613583 4.0428 0.283274 -0.541971 0.381025 0.0295379 0.0419189 -2.47372 0.01028 -0.00562365 -0.445521 0.000101533 -0.000144267 6.3882e-05 17.8949 6.68079 4.54645 0.933991 -0.710507 4.11094 0.283368 -0.542091 0.38112 17.8949 6.68079 4.54645 0.933957 -0.710464 4.11091 0.283181 -0.541851 0.380929 
26.982 1 298 17.6339 10.4684 4.60011 -1.87365 -3.08982 -1.02214 0.631618 0.0972382 0.185184 -0.0535016 0.112722 -3.23501 -0.00549097 0.00519742 -0.526478 0.000173991 -2.89405e-06 6.03028e-05 17.6321 10.4653 4.59914 -1.76069 -3.07244 -0.989018 0.631778 0.0972222 0.18527 17.6321 10.4653 4.59914 -1.76075 -3.07243 -0.989048 0.631458 0.0972536 0.185099 
26.982 1 97 15.6179 8.45356 0.766485 -3.35584 1.63 -3.70782 -0.143047 0.443973 -0.278041 -1.17376 3.11251 -17.0021 -0.0921353 0.318555 -2.47816 -0.000101192 3.65555e-05 -0.0010682 15.6146 8.45513 0.762839 -3.38144 1.7094 -3.75755 -0.143125 0.444058 -0.278149 15.6146 8.45513 0.762839 -3.38141 1.70936 -3.75751 -0.142969 0.443886 -0.277933 
26.982 1 58 17.8497 6.59978 0.576624 0.528372 1.87953 -1.03557 0.00917216 -0.0114534 -0.14671 0.518349 0.979538 -20.371 0.0823325 0.0597627 -2.90867 0.000175448 -0.00024649 -0.00105482 17.8503 6.60159 0.575659 0.530015 1.87749 -1.0618 0.00918811 -0.0114362 -0.146746 17.8503 6.60159 0.575659 0.530009 1.87748 -1.06179 0.00915598 -0.0114705 -0.146675 
26.982 1 64 20.0681 6.29981 2.49547 -3.07268 -5.08702 1.80931 0.140155 0.530452 0.0308172 1.09176 -0.695431 -17.2238 0.148061 -0.246446 -2.93645 -9.74776e-06 -0.000165518 -0.000467455 20.0651 6.29464 2.49735 -3.04762 -4.99215 1.81482 0.140152 0.530565 0.0308243 20.0651 6.29464 2.49735 -3.04762 -4.99219 1.81482 0.140159 0.53034 0.0308104 
26.982 1 301 20.2389 8.39418 4.56191 2.67399 1.33134 4.57473 -0.344766 -0.225625 -0.0936498 0.0434628 0.116181 -2.71976 -0.00429334 0.0057179 -0.456365 -0.000102389 2.28942e-05 -6.909e-05 20.2416 8.39545 4.56654 2.61233 1.291 4.55798 -0.344869 -0.225606 -0.09369 20.2416 8.39545 4.56654 2.61237 1.291 4.55799 -0.344664 -0.225645 -0.0936104 
26.982 1 101 20.1998 8.42681 0.695915 -2.51565 -2.55667 1.45929 0.0251009 -0.365675 0.144592 1.48238 -0.320168 -22.1516 0.116599 -0.111021 -3.41598 5.53625e-05 4.07994e-05 -0.000980212 20.1972 8.42419 0.697446 -2.51116 -2.62206 1.48515 0.0251248 -0.365721 0.144622 20.1972 8.42419 0.697446 -2.51117 -2.62204 1.48514 0.0250764 -0.36563 0.144562 
26.982 1 103 22.4574 7.95363 2.68585 1.61249 1.86858 1.09642 -0.251286 1.13209 0.0228639 0.7162 0.811037 -19.0036 0.098565 -0.0507893 -2.96244 -4.76886e-05 0.000255494 -0.000233786 22.459 7.95544 2.68701 1.56755 2.07105 1.10051 -0.251364 1.13237 0.0228594 22.459 7.95544 2.68701 1.56758 2.07095 1.10051 -0.251209 1.13181 0.0228682 