ITEM: TIMESTEP
2000
ITEM: NUMBER OF ATOMS
4000
ITEM: BOX BOUNDS pp pp pp
-0.48068 40.9807
0.0733891 40.4266
0.0685253 40.4315
ITEM: ATOMS mass type id x y z vx vy vz fx fy fz xrad yrad zrad vxrad vyrad vzrad fxrad fyrad fzrad xub yub zub vxub vyub vzub fxub fyub fzub xlb ylb zlb vxlb vylb vzlb fxlb fylb fzlb 
26.982 1 811 9.96441 0.0984832 18.244 0.592808 -0.0899876 -1.80643 -0.199645 -0.586643 0.263833 -0.0612706 -0.0368504 -0.380524 -0.0982278 -0.267391 -0.292643 -0.000288976 -0.00108946 -0.000155288 9.9651 0.098325 18.2421 0.557101 -0.194909 -1.75925 -0.199707 -0.586819 0.263915 9.9651 0.0983251 18.2421 0.557123 -0.194845 -1.75927 -0.199583 -0.586465 0.263751 
26.982 1 3 1.60851 -0.000158036 1.91262 3.73574 -2.52818 2.81255 0.466463 0.0734194 0.192511 -0.207666 -0.508655 -0.132923 -0.24296 -0.469862 -0.137597 -0.000414959 -0.000506908 -0.000187245 1.61243 -0.00275509 1.91539 3.81916 -2.51505 2.84698 0.466574 0.0733932 0.192563 1.61243 -0.00275508 1.91539 3.81912 -2.51504 2.84696 0.466352 0.0734466 0.19246 
26.982 1 8 3.58684 2.10029 2.1171 -3.09009 1.09905 -0.564574 0.234889 0.0257324 -0.127867 0.0719318 -0.414605 -0.277532 0.0687098 -0.410981 -0.280012 7.27989e-05 -0.000594819 -0.000447226 3.58391 2.10133 2.11649 -3.04809 1.10366 -0.587437 0.234921 0.0257574 -0.127871 3.58391 2.10133 2.11649 -3.0481 1.10365 -0.587435 0.234856 0.0257082 -0.127862 
26.982 1 807 5.63709 0.00993178 18.2508 -4.28103 3.41261 1.25632 0.189197 0.165222 -0.245985 -0.0263439 -0.0518019 -0.343645 -0.0233635 -0.281051 -0.223291 -2.94589e-06 -0.000987192 7.69207e-05 5.63295 0.0132829 18.2521 -4.24718 3.44216 1.21233 0.189275 0.165268 -0.246038 5.63295 0.0132828 18.2521 -4.24721 3.44214 1.21235 0.189118 0.165177 -0.245933 
26.982 1 43 1.73159 4.08474 2.10715 -0.493366 -2.74607 -6.91939 -0.38704 0.535314 -0.0671542 -0.152933 -0.209246 -0.345783 -0.22194 -0.201489 -0.425854 -0.000586706 -0.00012644 -0.000786468 1.73127 4.08194 2.10018 -0.562579 -2.65034 -6.93139 -0.387111 0.535463 -0.0671302 1.73127 4.08194 2.10018 -0.562554 -2.65039 -6.9314 -0.386969 0.535163 -0.0671784 
26.982 1 202 1.45425 2.13484 4.00044 -7.61711 5.68713 -3.50097 0.4484 -0.130604 0.135258 -0.205936 -0.392133 -0.238614 -0.2091 -0.387224 -0.251134 -0.000303331 -0.000551586 -0.00045875 1.44682 2.14047 3.9969 -7.53693 5.66378 -3.47678 0.448477 -0.13062 0.135295 1.44682 2.14047 3.9969 -7.53696 5.66378 -3.47679 0.448324 -0.130589 0.13522 
26.982 1 241 -0.536676 4.18522 4.03172 4.19031 0.931574 1.42016 0.230922 0.196754 0.0585284 -0.358362 -0.375071 -0.35936 -0.356174 -0.375674 -0.381317 -0.00047306 -0.000459409 -0.000570887 -0.532279 4.1861 4.0331 4.2316 0.966768 1.43063 0.230953 0.196841 0.0585595 -0.532279 4.1861 4.0331 4.23159 0.966737 1.43062 0.23089 0.196666 0.0584967 
26.982 1 245 3.68354 4.19428 4.12789 2.01709 -0.643166 3.96974 -0.239711 -0.0952452 0.169363 -0.0147349 -0.0822702 -0.0702985 -0.0178605 -0.0816382 -0.0691749 -7.39696e-05 -8.60529e-05 -2.42352e-05 3.68573 4.19358 4.13182 1.97422 -0.660191 4.00003 -0.23975 -0.0952191 0.169433 3.68573 4.19358 4.13182 1.97424 -0.6602 4.00001 -0.239672 -0.0952718 0.169292 
26.982 1 2825 24.4935 20.3537 16.4044 -3.53287 5.89599 2.98751 -0.626047 -0.359551 -0.381006 -0.190662 -0.2077 -0.481325 -0.180102 0.0126906 -0.434502 -0.000230419 0.000551811 -0.00049156 24.4899 20.3596 16.4074 -3.64483 5.8317 2.91938 -0.626199 -0.359609 -0.381071 24.4899 20.3596 16.4074 -3.64478 5.83172 2.9194 -0.625895 -0.359494 -0.380943 
26.982 1 2819 18.2194 20.1021 18.3123 -2.72075 -0.344635 -2.11615 -0.0201815 0.739307 -0.204939 -0.224372 -0.362548 -0.332863 -0.268652 -0.132685 -0.326145 -0.000456221 0.000597788 -0.000387819 18.2167 20.1018 18.3102 -2.72436 -0.212413 -2.15281 -0.0202089 0.739511 -0.205033 18.2167 20.1018 18.3102 -2.72435 -0.212487 -2.15278 -0.0201546 0.739102 -0.204845 
26.982 1 12 7.70314 2.05466 1.98489 -1.49825 -3.16231 -0.910985 0.183384 0.0978326 0.390193 -0.0575125 -0.449717 -0.207498 -0.0812615 -0.481095 -0.276434 -0.000124838 -0.000801094 -0.000565613 7.70176 2.05143 1.98393 -1.46545 -3.14481 -0.841208 0.183442 0.097844 0.390257 7.70176 2.05143 1.98393 -1.46547 -3.14482 -0.841231 0.183326 0.0978209 0.390129 
26.982 1 47 5.78762 4.11182 2.22464 -2.27227 -1.75508 1.015 -0.237095 0.374848 -0.899358 -0.118769 -0.114477 -0.280243 -0.0817477 -0.141429 -0.290989 -4.79006e-05 -0.000120575 -0.000546438 5.78549 4.11001 2.22561 -2.31467 -1.68804 0.854164 -0.237111 0.374957 -0.899549 5.78549 4.11001 2.22561 -2.31466 -1.68808 0.854232 -0.237081 0.374739 -0.899167 
26.982 1 49 7.9112 3.95352 -0.00373385 -1.96465 2.72179 -0.136955 -0.545833 0.415443 0.108796 -0.026985 -0.034094 -0.74586 -0.0165772 -0.029062 -0.745046 -0.000113783 4.75595e-05 -0.00103786 7.90935 3.95619 -0.00392013 -2.06227 2.79609 -0.117503 -0.545951 0.41554 0.108796 7.90935 3.95619 -0.00392013 -2.06223 2.79605 -0.117503 -0.545716 0.415347 0.108797 
26.982 1 206 5.67741 2.09954 3.91965 -5.26379 -1.1633 -1.52976 -0.0438421 -0.154558 0.896883 -0.140718 -0.394325 -0.211984 -0.137584 -0.395799 -0.22168 -0.000217276 -0.000632374 -0.000167975 5.67228 2.09831 3.91808 -5.27162 -1.19093 -1.36936 -0.0438232 -0.154556 0.897094 5.67228 2.09831 3.91808 -5.27163 -1.19093 -1.36944 -0.0438614 -0.154561 0.896671 
26.982 1 209 7.67706 0.13218 4.06729 -0.505972 0.00831702 -1.58488 0.463126 -0.221417 0.0403563 -0.0372029 -0.546541 -0.518555 -0.0255639 -0.546133 -0.53036 3.00231e-05 -0.000773864 -0.000724554 7.67668 0.13212 4.06567 -0.423147 -0.0312805 -1.57767 0.463239 -0.221467 0.0403577 7.67668 0.13212 4.06567 -0.423187 -0.0312627 -1.57767 0.463014 -0.221368 0.0403538 
26.982 1 249 7.63097 4.01886 4.21508 1.99832 2.68232 -0.617535 0.585303 0.019421 0.0571996 -0.00746297 -0.0365207 -0.0286379 -0.00425989 -0.0379435 -0.0376728 9.94943e-05 -6.12769e-05 -2.19198e-05 7.6331 4.0215 4.21442 2.10299 2.68579 -0.6073 0.585406 0.0194137 0.0572458 7.6331 4.0215 4.21442 2.10295 2.68579 -0.607317 0.5852 0.0194279 0.0571533 
26.982 1 10 10.0382 2.04642 -0.0147518 -3.86724 1.89284 2.22913 -0.392823 0.116558 0.0947707 0.110823 -0.384555 -0.580321 0.026999 -0.374178 -0.574779 -0.000204367 -0.000530516 -0.000778816 10.0344 2.04825 -0.012569 -3.93748 1.91369 2.24607 -0.392845 0.116606 0.0947624 10.0344 2.04825 -0.012569 -3.93747 1.91367 2.24607 -0.3928 0.11651 0.0947802 
26.982 1 16 11.9299 2.21034 2.09259 -2.10298 -1.10715 -1.04394 0.230533 -0.32001 0.074485 0.165912 -0.555025 -0.342831 0.153153 -0.552352 -0.269349 0.000225579 -0.000783883 -0.000193782 11.9279 2.20917 2.0915 -2.06175 -1.16438 -1.03062 0.2306 -0.320088 0.0745052 11.9279 2.20917 2.0915 -2.06177 -1.16435 -1.03062 0.230466 -0.319932 0.0744649 
26.982 1 51 9.69347 3.94105 2.04351 1.41355 5.12211 -0.0234574 0.330121 0.3251 0.181973 0.0186689 -0.0340548 -0.190013 0.0117579 -2.31564e-05 -0.228931 1.93762e-05 9.49403e-05 -0.000349885 9.69499 3.94612 2.04344 1.47258 5.18025 0.00908076 0.330143 0.325175 0.181984 9.69499 3.94612 2.04344 1.47257 5.18023 0.00907688 0.3301 0.325024 0.181963 
26.982 1 53 11.8991 4.06051 -0.00236754 -0.0795093 2.17235 -1.19473 -0.176194 0.539004 0.111724 0.107696 -0.135796 -0.744709 0.0673936 -0.0850107 -0.744062 6.5282e-05 0.000110251 -0.000994566 11.8991 4.06263 -0.00361198 -0.111022 2.26875 -1.17476 -0.17625 0.539183 0.111716 11.8991 4.06263 -0.00361197 -0.111002 2.26869 -1.17475 -0.176139 0.538824 0.111732 
26.982 1 210 9.95548 1.98312 4.16078 0.98339 -0.59586 2.04207 -0.586813 -0.125693 -0.120138 0.0450966 -0.291411 -0.200425 0.0749125 -0.327515 -0.202762 5.3095e-05 -0.00064343 -0.000365034 9.95656 1.98247 4.16279 0.878443 -0.618346 2.02059 -0.586962 -0.125765 -0.120161 9.95656 1.98247 4.16279 0.878497 -0.618321 2.0206 -0.586663 -0.125622 -0.120116 
26.982 1 1197 36.8449 16.2921 20.3279 0.390868 -3.97034 -1.6424 -0.244012 -0.356486 -0.248703 -0.193828 -0.0747586 0.160201 -0.240835 -0.109628 0.157118 -0.000566953 -0.000286001 0.000163653 36.8452 16.2881 20.3262 0.347224 -4.03409 -1.68688 -0.244098 -0.356544 -0.248762 36.8452 16.2881 20.3262 0.347255 -4.03407 -1.68686 -0.243926 -0.356428 -0.248644 
26.982 1 253 11.725 4.1148 4.11511 -0.61495 0.227109 0.961626 0.974357 -0.193335 -0.128305 0.0098745 -0.054891 -0.0386198 0.00752973 -0.06369 -0.041113 0.000143212 -0.000125278 -9.47326e-05 11.7244 4.11497 4.11604 -0.440715 0.192537 0.938681 0.974489 -0.193359 -0.128334 11.7244 4.11497 4.11604 -0.440762 0.192546 0.938691 0.974226 -0.193311 -0.128276 
26.982 1 20 16.0287 2.27094 2.33536 -2.53544 2.84417 -1.30085 0.387655 -0.834865 -0.766861 -0.253097 -0.560887 -0.236587 -0.21588 -0.561381 -0.199146 -0.000112061 -0.000932827 -0.000336508 16.0262 2.27372 2.33401 -2.46612 2.69488 -1.43799 0.387725 -0.835013 -0.767034 16.0262 2.27372 2.33401 -2.46614 2.69493 -1.43793 0.387586 -0.834716 -0.766687 
26.982 1 55 14.0378 4.09413 2.14885 1.70443 1.18609 2.66299 -0.490589 0.254117 -0.190774 -0.0077654 -0.229458 -0.282034 -0.0116261 -0.225842 -0.280856 -0.000132384 -0.00023241 -0.000451319 14.0396 4.09527 2.15147 1.61669 1.23153 2.62887 -0.490694 0.254197 -0.190847 14.0396 4.09527 2.15147 1.61673 1.23151 2.6289 -0.490483 0.254039 -0.190699 
26.982 1 57 16.0447 4.05665 0.169086 -0.384456 0.218047 -3.32572 -0.0277415 0.309959 -0.217853 -0.150288 -0.199203 -0.745499 -0.148143 -0.190539 -0.74479 -0.000214352 -0.000189983 -0.00107555 16.0444 4.05682 0.165708 -0.389416 0.273485 -3.36469 -0.0277412 0.310063 -0.217916 16.0444 4.05682 0.165708 -0.389416 0.273448 -3.36466 -0.027742 0.309854 -0.21779 
26.982 1 214 14.0714 2.1994 4.10814 2.15907 0.654779 -0.556375 -0.602858 -0.48692 0.323577 0.0951927 -0.438646 -0.248171 0.0644556 -0.471388 -0.241527 -0.000128089 -0.000870485 -0.000261949 14.0736 2.2 4.10754 2.05126 0.567696 -0.49851 -0.603008 -0.487049 0.323636 14.0736 2.2 4.10754 2.05131 0.567743 -0.498531 -0.602708 -0.48679 0.323519 
26.982 1 257 16.1363 4.09431 4.22338 -3.2026 0.43615 0.616428 0.098227 0.502572 -0.108656 -0.0110135 -0.0872941 -0.0284164 -0.0127184 -0.0894058 -0.0295033 6.62736e-05 -1.52216e-06 -9.93804e-05 16.1331 4.09469 4.22395 -3.18502 0.526031 0.59699 0.0983107 0.502701 -0.108716 16.1331 4.09469 4.22395 -3.18505 0.525985 0.597012 0.0981439 0.502444 -0.108594 
26.982 1 218 18.075 1.99507 4.3916 -3.50108 -1.60775 0.722646 0.464401 0.236802 -0.614154 -0.049042 -0.398947 -0.086408 -0.0846561 -0.401197 -0.120681 -0.000125056 -0.00057032 -0.000408729 18.0715 1.9934 4.39228 -3.41802 -1.56541 0.612819 0.464533 0.236834 -0.614259 18.0715 1.9934 4.39228 -3.41807 -1.56542 0.612856 0.464269 0.236771 -0.61405 
26.982 1 18 18.0177 2.0319 0.192011 -3.35895 -0.326245 2.64855 0.219463 -0.133407 0.00819051 -0.124932 -0.297834 -0.666153 -0.0554398 -0.32833 -0.635202 9.98259e-05 -0.000583808 -0.000802082 18.0144 2.03151 0.194611 -3.31971 -0.350103 2.65001 0.219513 -0.133439 0.008184 18.0144 2.03151 0.194611 -3.31972 -0.350092 2.65001 0.219412 -0.133375 0.00819806 
26.982 1 819 18.2838 0.0253826 18.2155 3.75043 5.94211 3.21237 0.0175582 -0.347806 -0.0500128 0.00851881 -0.0376926 -0.286917 -0.0973046 -0.265985 -0.200375 -0.000420718 -0.00111158 -6.43327e-05 18.2876 0.0312628 18.2187 3.75358 5.8799 3.20343 0.0176045 -0.347923 -0.0500152 18.2876 0.0312628 18.2187 3.75356 5.87995 3.20343 0.0175117 -0.347688 -0.0500099 
26.982 1 2813 12.0056 20.3319 16.0231 5.99685 -1.1142 -4.14298 0.282931 -0.7051 0.970156 -0.0971174 -0.115816 -0.210033 -0.127577 0.0255957 -0.221687 -0.000243488 0.000416427 -0.000208579 12.0117 20.3308 16.019 6.04744 -1.24029 -3.96949 0.282979 -0.705237 0.970361 12.0117 20.3308 16.019 6.04743 -1.24024 -3.96956 0.282885 -0.704963 0.969952 
26.982 1 22 22.3611 2.00254 0.0304514 -2.58842 -4.62568 -1.93155 -0.261881 -0.0997711 0.546169 -0.0292442 -0.228332 -0.616434 -0.0545645 -0.215704 -0.657128 -0.000184621 -0.00025514 -0.000905221 22.3585 1.99785 0.0284689 -2.63525 -4.64353 -1.83387 -0.261945 -0.0998136 0.546303 22.3585 1.99785 0.0284688 -2.63523 -4.64351 -1.83392 -0.261818 -0.0997288 0.546036 
26.982 1 24 20.0687 1.93674 2.17943 2.08824 5.16907 -4.27851 0.575511 0.231663 0.0959376 0.0491547 -0.409057 -0.0542554 -0.0170108 -0.406131 -0.128501 -9.95417e-05 -0.000556864 -0.000361311 20.0708 1.94186 2.1751 2.19117 5.2105 -4.26135 0.575654 0.231722 0.0959527 20.0708 1.94186 2.1751 2.19112 5.21048 -4.26136 0.575366 0.231604 0.0959222 
26.982 1 59 18.1756 3.94209 2.10763 2.33633 2.10553 -1.14356 8.16182e-05 0.550656 0.325175 -0.0105392 -0.0581578 -0.1378 -0.00849477 -0.0674384 -0.139599 2.99882e-05 -1.5777e-05 -0.000148133 18.178 3.94414 2.10644 2.33636 2.20401 -1.08541 0.000126374 0.550786 0.325223 18.178 3.94414 2.10644 2.33634 2.20396 -1.08542 3.52812e-05 0.550525 0.325128 
26.982 1 61 20.2149 4.00143 0.0130378 -1.95945 0.0559962 -2.22527 0.174538 0.208783 0.376773 0.0376246 0.0393189 -0.747655 0.0716669 0.0518663 -0.749847 0.000223981 -6.65788e-06 -0.000988716 20.2129 4.00143 0.0107642 -1.92824 0.0933247 -2.1579 0.174596 0.208776 0.376811 20.2129 4.00143 0.0107642 -1.92826 0.0933271 -2.15792 0.17448 0.20879 0.376734 
26.982 1 63 22.2711 3.97958 2.02847 3.45767 2.38991 2.65802 -0.180258 -0.109693 0.384354 3.37945e-05 0.000757491 -0.177334 0.00623936 0.043238 -0.217206 -4.4844e-05 0.00013011 -0.000391218 22.2746 3.98192 2.03109 3.42542 2.37028 2.72675 -0.180338 -0.109786 0.384408 22.2746 3.98192 2.03109 3.42545 2.37032 2.72673 -0.180178 -0.109601 0.3843 
26.982 1 222 22.3551 2.20876 4.2077 1.12671 -0.690949 1.93894 -0.210012 -0.767079 -0.630023 -0.111002 -0.315378 -0.136692 -0.0796271 -0.246199 -0.107941 -4.73782e-05 -0.000229022 -0.000217036 22.3563 2.20801 4.2096 1.08915 -0.828121 1.82626 -0.21004 -0.767195 -0.630178 22.3563 2.20801 4.2096 1.08916 -0.828079 1.82632 -0.209983 -0.766964 -0.629867 
26.982 1 261 20.1266 4.0967 4.29354 3.19856 -1.85283 -1.71186 -0.0131156 -0.189143 -0.666403 0.000947783 -0.0557516 -0.0178389 0.000188913 -0.0443664 -0.0218591 -1.12675e-05 -6.56727e-05 -0.000229335 20.1298 4.0948 4.29179 3.19622 -1.88666 -1.83105 -0.0131184 -0.189179 -0.666599 20.1298 4.0948 4.29179 3.19622 -1.88665 -1.83098 -0.0131135 -0.189107 -0.666208 
26.982 1 25 24.412 0.151956 0.233341 -3.35049 -1.7398 -2.29156 -0.100036 -0.437824 -0.452607 -0.0352236 -0.516827 -0.435053 0.0245934 -0.480718 -0.471796 0.000204638 -0.000612665 -0.000821021 24.4086 0.150148 0.231002 -3.36838 -1.8181 -2.37251 -0.100104 -0.437898 -0.452736 24.4086 0.150148 0.231002 -3.36836 -1.81807 -2.37246 -0.0999668 -0.437751 -0.452477 
26.982 1 635 34.6866 0.107769 13.9872 2.52417 -0.986921 -3.21629 -0.0458372 -0.0168789 0.281476 0.0841803 -0.0316042 -0.437922 0.167677 -0.266176 -0.324785 0.000500577 -0.001085 -4.70528e-05 34.6889 0.106717 13.984 2.51597 -0.989948 -3.16596 -0.0458512 -0.016927 0.281512 34.6889 0.106717 13.984 2.51598 -0.98993 -3.16597 -0.0458236 -0.0168293 0.281442 
26.982 1 27 26.4404 0.116059 2.2005 -3.78673 3.20201 0.572024 0.304977 -0.658803 -0.228795 0.285271 -0.681589 -0.163249 0.285164 -0.643818 -0.200388 0.000480213 -0.000919004 -0.000381893 26.4365 0.119196 2.20103 -3.73219 3.08419 0.531112 0.305029 -0.65895 -0.228816 26.4365 0.119196 2.20103 -3.73221 3.08424 0.53112 0.304925 -0.658656 -0.228773 
26.982 1 28 24.5711 1.96783 2.22202 -0.293844 -4.77909 -0.952049 -1.10865 0.721663 0.00167885 -0.0610655 -0.236715 -0.161297 0.0113094 -0.195516 -0.203624 9.01946e-07 -3.51045e-05 -0.000394628 24.5708 1.96298 2.22102 -0.49211 -4.65003 -0.951744 -1.1089 0.721787 0.00170587 24.5708 1.96298 2.22102 -0.492022 -4.65008 -0.951754 -1.10841 0.721538 0.00165134 
26.982 1 65 24.4219 4.05263 0.262294 1.45919 -2.26812 -0.67335 -0.0567153 0.114376 -0.25519 0.0344977 0.0626194 -0.750575 0.0713702 0.0895663 -0.753569 0.000189402 0.000189284 -0.00104975 24.4234 4.05031 0.261573 1.44904 -2.24766 -0.718988 -0.0567413 0.114413 -0.255253 24.4234 4.05031 0.261573 1.44905 -2.24768 -0.718966 -0.0566881 0.11434 -0.255127 
26.982 1 67 26.4753 4.07954 2.18303 1.3458 1.39998 -2.57275 -0.029773 0.274481 0.197994 0.0116676 -0.013325 -0.217193 0.0107493 -0.0116311 -0.291081 4.39442e-05 6.54254e-05 -0.000505998 26.4766 4.08089 2.18041 1.34048 1.44907 -2.53733 -0.0297253 0.274578 0.198082 26.4766 4.08089 2.18041 1.34046 1.44904 -2.53736 -0.0298205 0.274383 0.197906 
26.982 1 225 24.2236 0.0388185 4.17723 -2.45511 -3.00727 -2.86851 0.244694 0.00771009 0.160383 -0.0911615 -0.551288 -0.322772 -0.0445864 -0.548442 -0.29437 8.11333e-05 -0.000731344 -0.000268839 24.2211 0.0357427 4.17432 -2.41135 -3.00589 -2.83983 0.244728 0.00771033 0.160443 24.2211 0.0357427 4.17432 -2.41136 -3.00589 -2.83985 0.244661 0.00770914 0.160324 
26.982 1 226 26.454 2.06107 4.10442 4.66357 2.44096 8.40166 0.16712 0.283927 0.523409 0.14997 -0.258199 -0.0592728 0.150433 -0.251007 -0.0694962 0.000238064 -0.000219374 -3.44598e-05 26.4586 2.06345 4.11279 4.69346 2.49175 8.49527 0.167158 0.284027 0.523526 26.4586 2.06345 4.11279 4.69345 2.49171 8.49522 0.167082 0.283828 0.523292 
26.982 1 265 24.1759 4.25312 4.18728 -0.354661 3.09882 -0.692594 0.684025 -0.488213 0.00456938 -0.00269322 -0.019989 -0.0237825 0.00304553 -0.0125364 -0.0302848 0.000151502 -6.24877e-05 -6.79009e-05 24.1755 4.25617 4.18655 -0.232335 3.01152 -0.691777 0.684166 -0.488285 0.00457101 24.1755 4.25617 4.18655 -0.232385 3.01154 -0.691778 0.683884 -0.48814 0.00456763 
26.982 1 30 30.6096 2.29771 0.0107219 -0.902933 1.25645 -1.2281 0.0439536 -0.342779 0.430503 0.0273032 -0.491143 -0.6061 -0.000660415 -0.454175 -0.645657 -9.3944e-05 -0.000420943 -0.000945908 30.6086 2.29891 0.00944519 -0.895074 1.19516 -1.15111 0.0439592 -0.342799 0.430583 30.6086 2.29891 0.00944516 -0.895076 1.19517 -1.15114 0.043948 -0.34276 0.430421 
26.982 1 32 28.5436 2.01173 1.98763 3.3891 -1.17413 0.87867 0.478263 0.650382 0.815423 0.0953236 -0.524312 -0.166277 0.0167059 -0.485122 -0.205559 -6.62459e-05 -0.000504173 -0.000367918 28.547 2.01049 1.98846 3.47464 -1.05782 1.02449 0.47843 0.65053 0.815585 28.547 2.01049 1.98846 3.47458 -1.05787 1.02444 0.478093 0.650234 0.815262 
26.982 1 69 28.3542 4.22245 0.177827 -0.0172663 1.3615 1.93342 0.959344 0.116748 0.148629 -0.0547368 -0.0157509 -0.746764 -0.130408 -0.0129985 -0.748985 -0.000256569 2.01102e-05 -0.000965921 28.3541 4.22376 0.179713 0.154301 1.38238 1.96 0.959571 0.116789 0.148688 28.3541 4.22376 0.179713 0.154219 1.38237 1.95998 0.959115 0.116707 0.148571 
26.982 1 71 30.7235 4.20372 2.23612 -3.02096 1.60105 0.502346 -0.520868 -0.114424 -0.376418 0.0154155 -0.0673055 -0.156728 -0.00322429 -0.0556774 -0.156639 -0.000208336 -6.35232e-05 -0.000266782 30.7203 4.20527 2.23658 -3.11411 1.58059 0.43503 -0.521025 -0.114453 -0.376495 30.7203 4.20527 2.23658 -3.11406 1.5806 0.435057 -0.520714 -0.114395 -0.376342 
26.982 1 230 30.7047 1.96714 4.07793 3.77398 2.53747 2.6708 -0.352157 0.534312 0.116432 -0.0318999 -0.467795 -0.164904 -0.0699655 -0.395296 -0.128609 -0.000327561 -0.000217457 -6.1712e-05 30.7084 1.96962 4.08056 3.711 2.63303 2.69162 -0.352274 0.534465 0.116462 30.7084 1.96962 4.08056 3.71104 2.63297 2.69161 -0.352042 0.53416 0.116401 
26.982 1 269 28.4649 4.10412 4.20347 5.56631 -0.323343 2.17392 0.10852 0.0091869 -0.480504 0.00606997 -0.0669428 -0.024081 -0.00164836 -0.06139 -0.030178 1.75753e-05 -7.78779e-05 -0.000203434 28.4704 4.10374 4.20561 5.58572 -0.321703 2.08799 0.108557 0.00917332 -0.480647 28.4704 4.10374 4.20561 5.5857 -0.321699 2.08804 0.108481 0.00919942 -0.480363 
26.982 1 35 34.7943 0.311258 2.1592 -3.86021 5.76752 2.76488 0.158696 -0.803028 -0.324187 -0.0409914 -0.589144 -0.39136 0.0424923 -0.625623 -0.354888 0.000333044 -0.00105121 -0.000428346 34.7903 0.316961 2.16193 -3.83183 5.62391 2.7069 0.158726 -0.803205 -0.324262 34.7903 0.316961 2.16193 -3.83184 5.62397 2.70693 0.158666 -0.802852 -0.324111 
26.982 1 36 32.6957 2.16185 2.01598 -4.04981 4.79363 0.111174 -0.0547336 -0.0309923 -0.0142931 0.00813956 -0.483134 -0.288876 0.00972553 -0.418678 -0.288312 -4.79732e-05 -0.000329673 -0.000429104 32.6915 2.16659 2.01605 -4.05961 4.7881 0.108608 -0.0548038 -0.0309569 -0.0143508 32.6915 2.16659 2.01605 -4.05958 4.78809 0.108628 -0.0546617 -0.031028 -0.0142355 
26.982 1 73 32.8504 4.28729 0.0975776 1.17055 0.760785 -2.13545 -0.481948 -0.557169 0.0712665 0.247581 -0.0323679 -0.746017 0.179229 -0.040332 -0.752028 -4.33374e-06 -0.000159128 -0.00100797 32.8514 4.28799 0.0953889 1.08437 0.661146 -2.1227 -0.482009 -0.557275 0.0713026 32.8514 4.28799 0.0953889 1.08439 0.661184 -2.12271 -0.481886 -0.557063 0.0712297 
26.982 1 75 34.7913 4.05651 2.22599 0.419146 -1.28618 -1.32941 0.123044 0.367312 -0.367424 0.154895 -0.0482245 -0.504442 0.163394 -0.0487835 -0.434062 0.000247988 4.48784e-05 -0.000430141 34.7916 4.05517 2.22461 0.441151 -1.22049 -1.39512 0.123075 0.367414 -0.367512 34.7916 4.05517 2.22461 0.44114 -1.22052 -1.39509 0.123013 0.367209 -0.367336 
26.982 1 234 34.7803 2.09561 4.15005 -1.64569 5.36659 -0.808996 0.125732 0.258235 0.178777 -0.0568462 -0.250284 -0.12096 0.0181597 -0.250084 -0.106942 0.000252799 -0.000277767 -8.38472e-05 34.7786 2.10092 4.14919 -1.6232 5.41277 -0.777029 0.125747 0.258302 0.17879 34.7786 2.10092 4.14919 -1.62321 5.41275 -0.777033 0.125718 0.258167 0.178765 
26.982 1 273 32.735 4.10429 4.18634 -2.76172 4.32299 -0.769235 -0.234245 0.213241 -0.0280352 0.00964772 -0.0579617 -0.0424988 0.00902266 -0.0443852 -0.0345961 -8.44887e-05 1.29547e-05 -3.45927e-05 32.7321 4.10856 4.18553 -2.80362 4.36112 -0.774252 -0.234336 0.213273 -0.0280571 32.7321 4.10856 4.18553 -2.80359 4.36111 -0.774244 -0.234152 0.213209 -0.0280127 
26.982 1 4 41.1819 2.16386 1.93161 0.293272 -1.85829 -0.622511 -0.310937 0.0402425 0.0599604 -0.250539 -0.438582 -0.357899 -0.222058 -0.326443 -0.429548 -0.000312363 -5.6727e-05 -0.000843767 41.182 2.16194 1.93094 0.237668 -1.85109 -0.611784 -0.310992 0.0402857 0.0599977 41.182 2.16194 1.93094 0.237687 -1.85111 -0.611797 -0.310881 0.0401995 0.059924 
26.982 1 40 36.9319 2.16528 2.06902 1.37197 -2.08264 0.583942 -0.0266212 -0.182914 -0.0872148 0.17377 -0.300413 -0.641157 0.213178 -0.330156 -0.572288 0.000383023 -0.000542668 -0.000635886 36.9331 2.16313 2.06956 1.36721 -2.11535 0.568341 -0.0266229 -0.182947 -0.0872545 36.9331 2.16313 2.06956 1.36721 -2.11534 0.568355 -0.0266191 -0.182882 -0.0871746 
26.982 1 79 38.9303 4.05952 2.02204 1.37894 3.92448 -0.813301 -0.0262113 0.296303 0.212989 -0.117775 -0.193537 -0.503052 -0.0718362 -0.151842 -0.577272 -6.49552e-06 -8.23159e-05 -0.0009985 38.9315 4.06339 2.02118 1.37425 3.97747 -0.775208 -0.0262507 0.296369 0.213054 38.9315 4.06339 2.02118 1.37426 3.97745 -0.775231 -0.0261707 0.296236 0.212925 
26.982 1 961 -0.271681 16.354 16.3229 2.7434 1.77356 -2.88414 -0.385297 -0.349853 -0.0518532 -0.0730222 -0.0612677 -0.0912337 -0.174071 -0.0969293 -0.141218 -0.000548083 -0.000282244 -0.00034448 -0.268737 16.3558 16.32 2.67449 1.71099 -2.89342 -0.385394 -0.349939 -0.0519032 -0.268737 16.3558 16.32 2.67453 1.71102 -2.8934 -0.3852 -0.349767 -0.0518031 
26.982 1 238 39.0417 2.12667 4.16478 1.20964 2.30063 6.12918 -0.317234 -0.000170477 -0.439329 0.0632353 -0.382161 -0.263044 -0.00471764 -0.379576 -0.265941 -0.000229493 -0.000463855 -0.000480512 39.0427 2.12891 4.17088 1.15291 2.3006 6.05062 -0.317278 -0.000144414 -0.439418 39.0427 2.12891 4.17088 1.15292 2.30059 6.05065 -0.31719 -0.000196362 -0.43924 
26.982 1 277 36.929 3.98854 4.18369 2.35198 -1.47514 0.965509 -0.16233 0.413587 -0.165683 0.00600954 -0.0415042 -0.104403 0.0127041 -0.0522122 -0.102385 1.42129e-05 -1.22076e-05 -0.000204974 36.9312 3.98701 4.18462 2.32295 -1.40117 0.935872 -0.162351 0.4137 -0.165758 36.9312 3.98701 4.18462 2.32296 -1.40121 0.935899 -0.162309 0.413473 -0.165607 
26.982 1 631 30.5941 0.246862 14.1566 -3.56876 -0.571856 2.83767 -0.0193643 -0.858023 -0.280735 0.0718848 -0.0291019 -0.364794 -0.00129414 -0.265003 -0.320411 -0.000230807 -0.00113768 -0.000353593 30.5904 0.246224 14.1595 -3.57223 -0.7253 2.78746 -0.0194119 -0.858203 -0.280825 30.5904 0.246224 14.1595 -3.57222 -0.725236 2.78749 -0.0193166 -0.857844 -0.280646 
26.982 1 48 3.65848 6.1703 2.09444 3.85235 2.85342 -3.09098 0.112448 -0.108536 0.0862399 -0.110239 -0.0583043 -0.320154 -0.147391 0.00636419 -0.365999 -0.000254277 0.000197139 -0.000638979 3.66249 6.17311 2.0913 3.87246 2.83401 -3.07556 0.112514 -0.108543 0.0862454 3.66249 6.17311 2.0913 3.87244 2.83401 -3.07556 0.112382 -0.10853 0.0862345 
26.982 1 627 26.5299 0.0142115 14.0116 -0.630482 4.0737 -0.955345 0.140019 0.379818 0.281985 -0.11677 -0.0294523 -0.397177 -0.0919606 -0.265121 -0.388888 -6.21879e-05 -0.000969068 -0.000468206 26.5292 0.0182204 14.0107 -0.60544 4.14162 -0.904922 0.140059 0.379907 0.28201 26.5292 0.0182204 14.0107 -0.605455 4.14159 -0.904931 0.139979 0.37973 0.281961 
26.982 1 83 1.45757 8.10083 2.21456 1.00905 1.801 -3.23713 0.255905 0.334766 -0.48901 -0.371701 -0.0352369 -0.259825 -0.374464 -0.0687898 -0.37188 -0.000551406 -0.000142042 -0.000877324 1.45877 8.10259 2.21128 1.05481 1.86086 -3.32458 0.255939 0.334812 -0.48909 1.45877 8.10259 2.21128 1.0548 1.86085 -3.32455 0.255871 0.334721 -0.488931 
26.982 1 403 1.53816 0.0412025 10.0462 -0.144504 4.04517 -0.865636 0.134404 0.326347 0.281779 -0.465258 -0.125104 -0.146967 -0.439358 -0.262996 -0.0697322 -0.000528244 -0.000726046 0.00010126 1.5382 0.045183 10.0453 -0.120464 4.10353 -0.815243 0.134456 0.326427 0.281845 1.5382 0.0451829 10.0453 -0.120483 4.1035 -0.815267 0.134351 0.326266 0.281712 
26.982 1 242 1.61142 6.26467 4.11564 4.24292 -3.61925 0.658303 -0.00367079 -0.783842 0.143193 -0.374482 0.121362 -0.209489 -0.375988 0.120541 -0.230393 -0.000543339 9.20499e-06 -0.000314021 1.61585 6.261 4.11626 4.24227 -3.75943 0.683908 -0.00367301 -0.784012 0.143205 1.61585 6.261 4.11626 4.24227 -3.75937 0.683903 -0.0036681 -0.783673 0.14318 
26.982 1 285 3.57817 8.23625 4.07652 1.54277 4.32446 -0.151326 0.143543 0.00825244 0.276086 -0.0715725 0.00266592 -0.0543569 -0.0713938 0.00322951 -0.0712144 -4.92057e-05 -1.41333e-05 -0.000102316 3.57988 8.24054 4.07633 1.56844 4.32594 -0.101954 0.14359 0.00824303 0.276139 3.57988 8.24054 4.07633 1.56842 4.32594 -0.101973 0.143496 0.0082623 0.276033 
26.982 1 46 5.75778 6.0407 -0.0182034 -0.303916 7.25468 -0.00384604 -0.0804925 0.254556 0.485896 -0.111001 -0.00678815 -0.757862 -0.0781542 0.0714538 -0.758266 6.89116e-05 0.00031915 -0.000949785 5.75762 6.04791 -0.0182558 -0.31831 7.3002 0.0830508 -0.0805054 0.254589 0.48601 5.75762 6.04791 -0.0182559 -0.318306 7.30019 0.0830099 -0.0804798 0.254522 0.485782 
26.982 1 52 7.83763 6.07181 2.11311 -1.80808 -2.85731 -1.23714 -0.616074 -0.170847 -0.0363175 0.0342121 0.0564482 -0.223311 0.066626 0.0827948 -0.293649 3.70084e-05 0.000182549 -0.000637252 7.83594 6.0689 2.11182 -1.91826 -2.88786 -1.24364 -0.616229 -0.170876 -0.0363349 7.83594 6.0689 2.11182 -1.91821 -2.88785 -1.24363 -0.61592 -0.170817 -0.0363003 
26.982 1 87 5.55278 8.20299 2.07777 3.73983 -0.517367 -2.43614 0.774131 -0.299079 0.187321 -0.013196 0.108997 -0.327551 -0.0160576 0.0742372 -0.365052 7.56872e-05 -0.000114503 -0.000591069 5.55666 8.20243 2.07529 3.87827 -0.570863 -2.40264 0.774301 -0.2992 0.187364 5.55666 8.20243 2.07529 3.87821 -0.57082 -2.40266 0.773962 -0.298958 0.187277 
26.982 1 603 1.41298 0.077099 14.2839 -5.99138 1.92198 2.97398 0.120597 -0.247968 -0.409055 -0.449459 -0.130619 -0.182589 -0.363172 -0.274583 -0.142161 -0.000302768 -0.000760554 -0.000180142 1.40717 0.0789584 14.2868 -5.96982 1.87764 2.90083 0.120596 -0.248029 -0.409126 1.40717 0.0789584 14.2868 -5.96982 1.87766 2.90085 0.120598 -0.247907 -0.408983 
26.982 1 246 5.66816 6.08445 4.27189 -0.22194 -3.07269 -6.42663 0.244007 0.392572 -0.239757 -0.00452738 -0.00213065 -0.0278139 -0.00217868 0.000269745 -0.0366348 6.70579e-05 0.000102137 -9.66852e-05 5.66808 6.08133 4.26542 -0.1783 -3.00249 -6.46951 0.244077 0.392668 -0.239801 5.66808 6.08133 4.26542 -0.178326 -3.00252 -6.46949 0.243937 0.392476 -0.239714 
26.982 1 289 7.81648 8.11873 4.01266 -1.09554 -1.4489 4.95415 -0.664807 -0.101252 0.396637 0.00496746 0.0069435 -0.0483359 0.00640974 0.00112976 -0.0578074 -0.000155063 -6.26262e-05 -6.78887e-05 7.81551 8.11724 4.01758 -1.21444 -1.46702 5.02508 -0.664974 -0.101303 0.396696 7.81551 8.11724 4.01758 -1.21438 -1.467 5.02505 -0.66464 -0.101201 0.396579 
26.982 1 92 7.8061 10.2088 2.046 0.732 -1.03687 -4.70237 -0.189328 -0.153447 -0.0939335 0.0119977 -0.0375078 -0.39495 0.00598068 -0.0710763 -0.369391 -6.31933e-05 -0.000265298 -0.000477221 7.80695 10.2077 2.04125 0.698139 -1.06431 -4.71917 -0.189386 -0.153493 -0.0939557 7.80695 10.2077 2.04125 0.698159 -1.0643 -4.71916 -0.18927 -0.1534 -0.0939114 
26.982 1 286 5.68508 10.3192 4.03435 1.50703 -1.04872 -3.01632 0.12934 -0.663173 0.232299 -0.00537366 0.00269629 -0.0591174 -0.00673115 0.00186992 -0.057685 -6.28958e-07 -0.000171494 -4.36024e-05 5.68672 10.3181 4.03129 1.53016 -1.16732 -2.97478 0.129358 -0.66334 0.232338 5.68672 10.3181 4.03129 1.53015 -1.16726 -2.9748 0.129321 -0.663005 0.23226 
26.982 1 1021 20.3491 0.0670022 20.2328 1.58611 2.55291 1.48886 0.0414704 -0.35508 0.0723555 0.0107878 -0.172457 -0.0324246 0.0319041 -0.356806 0.013764 0.0001346 -0.00113596 0.00011365 20.3507 0.0694918 20.2343 1.59353 2.4894 1.50179 0.0414904 -0.355211 0.0723179 20.3507 0.0694919 20.2343 1.59353 2.48945 1.5018 0.0414509 -0.354947 0.0723944 
26.982 1 56 11.8171 5.9696 2.17907 -0.423536 1.83249 -7.56195 0.0391849 0.22092 -0.398282 -0.0343572 0.15643 -0.329508 -0.0716836 0.148809 -0.362968 -0.000168196 0.000244818 -0.000641638 11.8168 5.97139 2.17145 -0.41653 1.87199 -7.63318 0.0391807 0.220952 -0.398411 11.8168 5.97139 2.17145 -0.416529 1.87198 -7.63314 0.0391894 0.220887 -0.398153 
26.982 1 91 9.68638 8.04407 2.19342 -4.42031 7.78696 -2.71039 0.657495 0.0176855 -0.491094 0.106294 0.0879622 -0.466106 0.0708916 0.0125922 -0.498222 0.00013092 -0.000185652 -0.000872414 9.68206 8.05183 2.19066 -4.30274 7.79012 -2.79821 0.657596 0.0176558 -0.491174 9.68206 8.05183 2.19066 -4.30277 7.79013 -2.79818 0.657394 0.0177164 -0.491014 