ITEM: TIMESTEP
16000
ITEM: NUMBER OF ATOMS
4000
ITEM: BOX BOUNDS pp pp pp
-3.32607 43.8261
0.854331 39.6457
1.00437 39.4956
ITEM: ATOMS mass type id x y z vx vy vz fx fy fz xrad yrad zrad vxrad vyrad vzrad fxrad fyrad fzrad xub yub zub vxub vyub vzub fxub fyub fzub xlb ylb zlb vxlb vylb vzlb fxlb fylb fzlb 
26.982 1 43 -2.02566 5.62488 2.52035 -2.54466 0.6854 -1.4122 0.302742 0.105787 -0.379129 -16.3753 -8.87405 -26.2239 -2.02525 -0.790053 -3.45677 -0.000553574 0.000162065 -0.000655313 -2.02801 5.62558 2.51876 -2.4905 0.704302 -1.48001 0.302916 0.10572 -0.37924 -2.02801 5.62558 2.51876 -2.49057 0.704326 -1.47997 0.302565 0.105853 -0.379017 
26.982 1 202 -1.46654 3.48226 4.10787 0.0881303 -0.372363 -0.146104 0.258572 -0.104012 0.194748 -15.3342 -15.1184 -15.6729 -1.90512 -1.85343 -2.00688 -0.000323121 2.48101e-05 -0.000307971 -1.46626 3.48191 4.10756 0.134395 -0.390961 -0.111306 0.258761 -0.104021 0.194628 -1.46626 3.48191 4.10756 0.134327 -0.390958 -0.111263 0.258383 -0.104003 0.194866 
26.982 1 964 42.9366 18.1269 17.7555 -1.6457 -1.86263 -4.79257 -0.0453301 0.00714563 0.466318 -18.4464 -0.975083 -5.33234 -1.75202 -0.263135 -0.868512 0.00039541 0.000105964 -0.000347484 42.9348 18.125 17.7507 -1.65381 -1.86134 -4.70918 -0.0453474 0.00721075 0.466417 42.9348 18.125 17.7507 -1.6538 -1.86136 -4.70922 -0.0453135 0.0070805 0.46622 
26.982 1 961 42.7188 15.9868 15.9839 -1.2443 -0.659811 -0.570977 -0.177911 0.283273 0.212857 -14.4057 -9.2324 -11.3576 -1.524 -1.09513 -1.34561 0.000150761 -7.49883e-06 -0.000161678 42.7174 15.9861 15.9832 -1.2761 -0.609155 -0.532938 -0.177869 0.283324 0.21275 42.7174 15.9861 15.9832 -1.27611 -0.609173 -0.5329 -0.177954 0.283224 0.212965 
26.982 1 5 -0.0828389 1.28026 1.53087 -3.14237 0.312188 -4.00685 -0.273803 0.38476 -0.636659 0.958897 -12.1922 -19.5513 0.183107 -1.62463 -2.53629 0.000125939 -0.000501177 -0.000725848 -0.0858071 1.28059 1.52667 -3.19132 0.381024 -4.1207 -0.273802 0.385009 -0.636775 -0.0858071 1.28059 1.52667 -3.19132 0.380935 -4.12066 -0.273806 0.384509 -0.636545 
26.982 1 245 1.60736 4.24743 4.44098 1.0899 -5.42463 -7.45212 0.0860045 -0.121355 0.632814 -1.60088 -3.5157 -5.15422 -0.20986 -0.401837 -0.691535 -0.000154524 -9.16053e-05 -7.14663e-05 1.60861 4.24201 4.43336 1.10525 -5.44633 -7.33897 0.0858496 -0.121392 0.632854 1.60861 4.24201 4.43336 1.1053 -5.44632 -7.33899 0.0861582 -0.121318 0.632774 
26.982 1 8 1.66881 3.6787 1.62053 -2.80726 1.48495 -2.3636 0.22635 0.0403841 0.105102 3.01681 -24.331 -26.4135 0.232214 -2.78397 -3.46842 5.09836e-05 -2.36828e-05 -0.000927232 1.66616 3.68021 1.61798 -2.7668 1.49218 -2.34483 0.226294 0.0404372 0.104983 1.66616 3.68021 1.61798 -2.76678 1.49216 -2.34479 0.226404 0.0403285 0.105221 
26.982 1 47 3.95717 5.06668 2.98054 3.73029 -1.0826 1.33509 0.0526177 -0.223552 -0.586045 -1.21741 -6.83482 -26.1332 -0.0452666 -0.776657 -3.5416 8.22938e-05 -6.42587e-05 -0.00072879 3.96104 5.06561 2.98171 3.7397 -1.12257 1.23028 0.0526554 -0.223535 -0.586207 3.96104 5.06561 2.98171 3.73969 -1.12258 1.23034 0.0525809 -0.223569 -0.585883 
26.982 1 206 3.75576 2.47796 3.63042 1.80016 1.10058 -5.53688 0.320335 0.0140344 -0.594515 -0.576312 -22.2365 -14.234 0.0855848 -2.67962 -1.73998 0.000268808 -0.000675523 -0.000669023 3.7577 2.47908 3.62471 1.85746 1.10309 -5.64321 0.320478 0.0140175 -0.594695 3.7577 2.47908 3.62471 1.85741 1.10309 -5.64314 0.320194 0.0140486 -0.594335 
26.982 1 19 18.3854 1.02179 2.66145 0.960083 3.99529 2.91797 0.486198 0.0093786 0.298179 0.62387 -20.9708 -20.3913 0.0594378 -2.27613 -2.93644 0.000138291 -0.000615644 -0.000457596 18.3864 1.02581 2.6642 1.04702 3.99696 2.9713 0.486233 0.00933685 0.298293 18.3864 1.02581 2.6642 1.04701 3.99697 2.97126 0.486165 0.00942066 0.298063 
26.982 1 205 0.989954 1.74151 4.00614 2.3976 2.498 -5.02404 -0.51995 0.160548 0.0269768 0.550195 -19.3956 -17.5522 0.054391 -2.59538 -2.31163 4.8464e-05 -0.000546534 -0.000329756 0.992517 1.74403 4.00095 2.30461 2.52674 -5.01922 -0.520088 0.16072 0.0269456 0.992517 1.74403 4.00095 2.30466 2.52667 -5.01921 -0.519813 0.160374 0.0270082 
26.982 1 249 6.68022 5.33537 4.56166 5.02344 -0.229314 -2.26949 0.0284905 -0.170956 0.363086 -0.218186 -3.39264 -4.32812 -0.00471775 -0.453369 -0.626089 -5.77493e-05 -0.000111999 3.54549e-05 6.68536 5.33516 4.55923 5.02853 -0.25989 -2.20455 0.0284393 -0.171011 0.363241 6.68536 5.33516 4.55923 5.02854 -0.25987 -2.2046 0.0285417 -0.170902 0.362933 
26.982 1 12 6.41197 3.03959 2.8232 -6.31023 8.49678 -0.818483 -0.244955 0.674199 -0.396217 -3.82887 -28.2066 -23.6414 -0.256519 -3.41476 -3.24804 -1.30876e-05 -0.000603747 -0.000718089 6.40577 3.04811 2.8222 -6.35402 8.61734 -0.889334 -0.244939 0.674273 -0.39627 6.40577 3.04811 2.8222 -6.35403 8.61731 -0.889315 -0.24497 0.674125 -0.396164 
26.982 1 51 8.66254 4.77253 2.01816 3.23957 6.12599 4.72077 0.174238 -0.371199 0.0592318 0.247918 -3.52183 -22.6411 0.00717824 -0.542883 -3.33699 -0.000139981 -0.000375898 -0.000818114 8.66588 4.77868 2.0227 3.27073 6.05959 4.73138 0.174264 -0.371393 0.0593202 8.66588 4.77868 2.0227 3.27072 6.05966 4.73134 0.174214 -0.371006 0.0591431 
26.982 1 210 8.93896 2.96672 4.29996 4.16969 -4.7293 -3.85392 0.0391088 0.173393 -0.28828 1.26036 -21.5942 -12.3723 0.115652 -2.77237 -1.64989 -3.61944e-05 -0.000485331 -0.000342831 8.94323 2.96201 4.29594 4.17668 -4.69829 -3.90547 0.0390898 0.173433 -0.288325 8.94323 2.96201 4.29594 4.17669 -4.69831 -3.90545 0.039128 0.173353 -0.288236 
26.982 1 113 34.1993 8.41538 1.18748 0.429034 -0.263952 2.56128 -0.528473 0.6623 -0.320059 -0.45 0.676732 -24.1382 -0.0195047 0.0051817 -3.26072 -0.000228521 -0.000112265 -0.00110808 34.1996 8.41513 1.18984 0.334536 -0.145516 2.50403 -0.528535 0.662422 -0.320173 34.1996 8.41513 1.18984 0.334558 -0.14556 2.50407 -0.52841 0.662178 -0.319945 
26.982 1 253 11.1244 4.8025 4.07814 2.11798 -1.61601 2.66464 0.0653471 -0.49911 -0.397689 0.218707 -3.797 -4.43474 -0.0396666 -0.51529 -0.656965 -6.32201e-05 -0.000287082 -0.000185337 11.1266 4.8009 4.08064 2.12965 -1.70528 2.59352 0.065295 -0.499285 -0.397755 11.1266 4.8009 4.08064 2.12967 -1.70522 2.59355 0.0654005 -0.498935 -0.397622 
26.982 1 16 10.9127 2.78313 1.98579 3.3257 -2.2132 7.47035 0.0122067 -0.14965 0.146256 3.28582 -28.4783 -22.8996 0.0450126 -3.5207 -2.99263 -0.000124785 -0.000787982 -0.000578175 10.9161 2.78093 1.99308 3.32787 -2.23996 7.49652 0.0121358 -0.149666 0.146355 10.9161 2.78093 1.99308 3.3279 -2.23995 7.49648 0.0122792 -0.149634 0.146156 
26.982 1 55 14.0151 5.27348 3.38198 -1.16957 2.43341 -1.80502 0.608795 0.441377 -0.369706 0.483288 -6.14575 -26.5778 0.0158148 -0.574887 -3.32728 0.000195828 -3.28899e-05 -0.000227545 14.0139 5.27593 3.38 -1.06069 2.51233 -1.87113 0.608993 0.441394 -0.369731 14.0139 5.27593 3.38 -1.06076 2.51232 -1.87112 0.608597 0.441361 -0.369683 
26.982 1 214 13.2658 2.88727 4.10823 0.453249 -0.559981 0.832761 -0.154148 -0.799928 0.0345987 0.895912 -23.4462 -13.0348 -0.0086952 -2.8995 -1.60926 -0.000132834 -0.000695183 -0.00026761 13.2663 2.88673 4.10891 0.42569 -0.703031 0.838955 -0.15414 -0.800091 0.0346438 13.2663 2.88673 4.10891 0.425687 -0.702973 0.838938 -0.154156 -0.799767 0.0345533 
26.982 1 2227 27.5716 20.2184 6.83608 -0.582364 2.59463 -0.6016 -0.131462 0.117978 0.116791 -7.55469 -12.0696 -21.7137 -0.850888 -1.0934 -2.77207 -6.57203e-05 0.000719078 -0.000292332 27.571 20.221 6.83534 -0.605872 2.61573 -0.580709 -0.131484 0.118008 0.116846 27.571 20.221 6.83534 -0.605864 2.61572 -0.580728 -0.131439 0.117948 0.116736 
26.982 1 811 9.81263 1.13813 18.2749 0.536646 -4.76043 -0.47676 -0.499694 -0.234274 -0.159138 -3.78042 -10.524 -13.8392 -0.210432 -2.20419 -1.28016 -0.00027491 -0.000933454 -0.000212367 9.81326 1.13339 18.2744 0.447288 -4.80231 -0.505215 -0.499789 -0.234256 -0.159155 9.81326 1.13339 18.2744 0.447322 -4.80232 -0.50521 -0.499599 -0.234292 -0.159122 
26.982 1 20 16.0613 2.91435 3.23167 3.97237 -3.6028 -0.351058 0.255253 0.467076 -0.0881615 -4.37606 -28.1707 -22.8037 -0.154069 -3.33284 -2.94266 3.71498e-05 -0.000317487 -0.000302212 16.0653 2.91076 3.23115 4.01801 -3.51927 -0.366826 0.255268 0.467208 -0.0881879 16.0653 2.91076 3.23115 4.018 -3.51932 -0.366817 0.255239 0.466944 -0.0881363 
26.982 1 257 16.2639 5.18997 5.12332 0.00144371 0.600626 2.72179 -0.242257 0.0498034 -0.0498032 -0.13252 -3.9394 -4.60999 -0.00292238 -0.471302 -0.622091 -0.000138117 2.81264e-05 -4.10426e-05 16.264 5.19058 5.12589 -0.041897 0.60954 2.71289 -0.242408 0.0498577 -0.0497918 16.264 5.19058 5.12589 -0.0418432 0.609521 2.71288 -0.242107 0.0497489 -0.0498153 
26.982 1 218 18.2679 3.01547 4.97817 -4.18422 -3.50474 2.98648 -0.0886681 0.167423 -0.436957 -1.22185 -22.5786 -11.2302 -0.0939688 -2.77388 -1.56803 -0.000129419 -0.000226796 -0.000220864 18.2638 3.01198 4.981 -4.2001 -3.47481 2.90835 -0.0887706 0.167362 -0.437011 18.2638 3.01198 4.981 -4.20006 -3.47479 2.90836 -0.0885655 0.167484 -0.436903 
26.982 1 110 31.9353 10.2319 1.06216 -5.64152 -3.63594 -5.99582 -0.352268 0.300191 -0.0568325 1.14672 -2.29765 -38.5498 0.0710381 -0.154468 -4.16656 -0.000240019 0.000149217 -0.00109562 31.9295 10.2283 1.05596 -5.70452 -3.58226 -6.00599 -0.352366 0.300271 -0.0568603 31.9295 10.2283 1.05596 -5.70448 -3.58229 -6.00598 -0.35217 0.30011 -0.0568047 
26.982 1 2835 36.3381 19.9126 18.2787 -1.13378 2.06513 -2.80506 -0.0474364 0.0506465 0.504209 -10.6718 -6.32811 -17.6844 -1.40939 -0.46194 -2.21435 -0.000210955 0.000392209 0.000240607 36.3368 19.9146 18.2759 -1.14226 2.07417 -2.71489 -0.0474703 0.0505668 0.504352 36.3368 19.9146 18.2759 -1.14225 2.0742 -2.71494 -0.0474029 0.0507276 0.504065 
26.982 1 417 16.2439 1.0664 8.56389 -4.38504 -1.41007 1.12191 0.289004 -0.0728912 0.0384006 0.26561 -10.7655 -12.0701 -0.0365249 -1.58957 -1.63978 -6.16986e-05 -0.000679513 -0.000375519 16.2395 1.06501 8.56489 -4.33336 -1.42311 1.12878 0.28905 -0.0729303 0.0384018 16.2395 1.06501 8.56489 -4.33338 -1.42309 1.12878 0.28896 -0.072852 0.0384003 
26.982 1 59 18.2253 5.00404 3.06716 1.5743 3.28398 5.60406 -0.0194431 0.270452 -0.469622 0.916118 -2.34631 -24.472 0.182336 -0.375919 -3.51335 5.59373e-05 2.69007e-06 -0.000756116 18.2269 5.00734 3.0726 1.57081 3.33235 5.52007 -0.019531 0.270502 -0.469769 18.2269 5.00734 3.0726 1.57084 3.33233 5.52012 -0.0193554 0.270403 -0.469477 
26.982 1 24 20.4271 3.14859 2.9221 -2.42677 -2.25885 1.57298 0.156399 -0.239708 -0.174323 1.7218 -23.9103 -21.7812 0.0407799 -2.9091 -3.22224 -5.19444e-05 -0.000303966 -0.000835764 20.4246 3.14636 2.9235 -2.3988 -2.30172 1.54181 0.156429 -0.239802 -0.174336 20.4246 3.14636 2.9235 -2.39881 -2.30169 1.54181 0.15637 -0.239615 -0.17431 
26.982 1 261 20.4381 5.16659 4.69427 2.90241 -7.28072 -1.65274 0.424861 -0.284306 0.339926 0.22067 -3.37743 -4.9395 0.0132245 -0.433346 -0.727415 6.84125e-05 -4.68966e-05 -0.000200931 20.441 5.15932 4.69246 2.97839 -7.33156 -1.59197 0.424939 -0.284339 0.339879 20.441 5.15932 4.69246 2.97836 -7.33154 -1.59195 0.424783 -0.284271 0.339974 
26.982 1 154 36.4639 14.2919 1.28963 -0.271534 0.562508 0.267938 -0.381876 0.192664 0.420691 -1.44484 -1.18599 -21.884 -0.131502 -0.0765451 -2.68338 -6.80473e-05 3.22144e-05 -0.000973181 36.4635 14.2925 1.2897 -0.339814 0.596964 0.343173 -0.381896 0.192714 0.420786 36.4635 14.2925 1.2897 -0.339807 0.596946 0.343139 -0.381857 0.192615 0.420596 
26.982 1 63 22.8043 4.91481 2.6333 0.12141 1.4946 -4.40167 -0.248643 0.067013 0.527069 0.988974 -2.18268 -28.8667 0.0625811 -0.344413 -3.92837 -0.00031243 -7.3421e-05 -0.000406249 22.8044 4.91633 2.62871 0.0769402 1.50658 -4.30742 -0.248723 0.0670272 0.527157 22.8044 4.91633 2.62871 0.0769687 1.50657 -4.30745 -0.248563 0.0669992 0.526981 
26.982 1 222 22.8577 3.0047 4.49895 -1.58841 -2.57038 1.30328 -0.671653 -0.317164 0.734604 -0.459978 -20.9024 -12.0074 -0.00562024 -2.55688 -1.53106 6.98861e-07 -0.000653506 -0.000143084 22.8561 3.00215 4.5001 -1.70852 -2.6271 1.43465 -0.671788 -0.317254 0.734768 22.8561 3.00215 4.5001 -1.70847 -2.62707 1.43459 -0.671517 -0.317074 0.734441 
26.982 1 28 24.9782 2.75245 2.78678 0.73756 -1.57967 -2.73359 0.392356 0.0329409 0.0181229 -1.23522 -20.4209 -25.3542 -0.016733 -2.68682 -3.34747 5.06181e-05 -0.000959641 -0.000208533 24.9789 2.75089 2.78387 0.807731 -1.57379 -2.73034 0.39247 0.0328934 0.0181395 24.9789 2.75089 2.78387 0.80769 -1.57377 -2.73035 0.392242 0.0329892 0.0181068 
26.982 1 265 24.8029 4.91209 4.70739 1.24338 0.600849 0.489583 0.485343 -0.274983 -0.0268287 0.0172579 -3.04589 -5.60114 0.0127427 -0.420492 -0.766969 0.000128984 -0.000217627 -6.78155e-05 24.8041 4.91271 4.70772 1.33018 0.551664 0.484785 0.485477 -0.275101 -0.0268396 24.8041 4.91271 4.70772 1.33013 0.551706 0.484788 0.485209 -0.274866 -0.0268179 
26.982 1 813 11.6633 1.02792 16.0548 -3.28198 -6.25103 2.03232 -0.111964 -0.154088 -0.0649845 0.187187 -13.3905 -13.4158 0.0231971 -1.58895 -1.47735 -0.000109158 -0.00082218 -0.000215393 11.6601 1.02169 16.0568 -3.30201 -6.27859 2.02069 -0.112 -0.154127 -0.0650029 11.6601 1.02169 16.0568 -3.30199 -6.27858 2.0207 -0.111927 -0.154049 -0.0649661 
26.982 1 118 40.527 10.668 1.15014 2.70407 2.47354 -1.00906 0.238213 -0.128159 -0.0648728 5.45668 -0.908329 -21.489 0.682292 -0.136772 -3.42099 0.000537636 5.17446e-05 -0.00102057 40.5295 10.6704 1.14894 2.74669 2.45063 -1.02065 0.238342 -0.128129 -0.0648245 40.5295 10.6704 1.14894 2.74664 2.45062 -1.02066 0.238083 -0.12819 -0.0649186 
26.982 1 998 40.7102 18.0437 16.0923 6.28536 -2.04667 -4.59476 -0.0273469 0.334202 0.103787 3.72962 4.95285 -8.29615 0.348924 0.783239 -1.05354 6.83918e-05 0.000205377 -6.21681e-05 40.7163 18.0416 16.0877 6.28048 -1.98689 -4.5762 -0.0272997 0.334379 0.103761 40.7163 18.0416 16.0877 6.28046 -1.98695 -4.5762 -0.0273942 0.334025 0.103812 
26.982 1 211 9.17678 0.891585 6.05318 1.78899 -5.21151 -5.59152 -0.333315 0.0913597 -0.0394612 -0.271011 -20.0464 -13.3182 -0.035986 -1.5656 -1.88391 7.64732e-06 -0.000924422 -0.000135502 9.17866 0.886391 6.04744 1.72938 -5.19515 -5.59857 -0.333402 0.0914834 -0.0394311 9.17866 0.886391 6.04744 1.72941 -5.1952 -5.59858 -0.333229 0.0912349 -0.0394902 
26.982 1 67 27.2176 4.55191 2.88992 4.46616 -0.40704 0.517421 -0.125243 0.376304 0.222198 1.34738 -1.04973 -33.0638 0.166036 -0.211675 -4.25679 -4.46229e-05 -0.000181983 -0.000199864 27.222 4.55152 2.89026 4.44376 -0.339763 0.557158 -0.125292 0.376286 0.22225 27.222 4.55152 2.89026 4.44377 -0.339757 0.557139 -0.125193 0.376321 0.222147 
26.982 1 226 27.1954 2.59834 4.92141 -1.88319 -3.02941 0.667089 -0.109414 0.0392165 -0.0603228 0.126882 -18.2519 -10.1266 -0.0161492 -2.52007 -1.51413 -0.000109865 -0.00068915 -0.000309047 27.1934 2.59533 4.92192 -1.90276 -3.0224 0.656304 -0.109481 0.0391998 -0.0603175 27.1934 2.59533 4.92192 -1.90274 -3.0224 0.656302 -0.109348 0.0392333 -0.0603294 
26.982 1 32 29.5356 2.89722 3.2025 -2.53772 -4.52186 -1.33354 0.12499 -0.123843 -0.137495 0.317381 -18.2738 -27.3947 0.0595595 -2.47067 -3.63917 6.05577e-05 -0.000728838 4.6569e-05 29.533 2.89271 3.20099 -2.51536 -4.54402 -1.35811 0.125062 -0.123892 -0.137461 29.533 2.89271 3.20099 -2.51538 -4.544 -1.35813 0.124918 -0.123793 -0.13753 
26.982 1 269 29.4007 4.71377 5.10826 -1.62695 1.64629 -1.98985 -0.200684 -0.491691 -0.175273 -0.172485 -2.7578 -6.1378 -0.018545 -0.404495 -0.844912 -1.34512e-05 -0.00027278 -8.46611e-05 29.399 4.71544 5.10612 -1.66283 1.55835 -2.0212 -0.200707 -0.491854 -0.175313 29.399 4.71544 5.10612 -1.66282 1.5584 -2.02118 -0.200661 -0.491528 -0.175233 
26.982 1 57 16.4232 5.30319 1.01774 1.20288 -6.49758 1.49916 0.0591163 -0.267582 0.385504 -1.50191 -3.90335 -30.3494 0.0790992 -0.41215 -3.56025 0.000280391 -7.37559e-05 -0.00094371 16.4244 5.2967 1.01904 1.21346 -6.54543 1.56812 0.059162 -0.267623 0.385683 16.4244 5.2967 1.01904 1.21345 -6.54542 1.56806 0.05907 -0.267543 0.385324 
26.982 1 2839 40.8723 20.1656 18.1216 1.10881 -4.87188 -5.59021 -0.3405 -0.431757 -0.573274 -0.0955697 -7.57141 -23.1536 -0.279148 -0.668041 -2.748 8.36468e-05 0.000597309 -0.000519548 40.8732 20.1607 18.116 1.04794 -4.94909 -5.69273 -0.340486 -0.431832 -0.573375 40.8732 20.1607 18.116 1.04793 -4.94906 -5.69269 -0.340515 -0.431682 -0.573174 
26.982 1 26 27.3564 2.70199 1.10246 -0.66142 2.65592 -4.7703 -0.0597313 -0.0383231 -0.314901 -2.07422 -12.2614 -27.1414 -0.123689 -1.67102 -3.35183 -0.000178418 -0.000608694 -0.000818824 27.3557 2.70467 1.0975 -0.672109 2.64907 -4.82661 -0.059784 -0.0383192 -0.314939 27.3557 2.70467 1.0975 -0.67209 2.64907 -4.82659 -0.059678 -0.0383262 -0.314862 
26.982 1 17 16.1095 0.997081 1.22386 0.802988 -5.75243 2.79125 0.190464 0.0354067 -0.190912 -1.67371 -10.8422 -20.7763 -0.152402 -1.54088 -2.70026 -0.000130708 -0.000555092 -0.000578945 16.1104 0.991347 1.22646 0.83704 -5.74609 2.75711 0.190456 0.0354175 -0.190908 16.1104 0.991347 1.22646 0.837043 -5.7461 2.75711 0.190473 0.0353979 -0.190918 
26.982 1 71 31.7875 4.77477 3.06015 -5.17989 5.1217 -2.64617 -0.247793 -0.509196 0.378786 -2.81895 -1.92599 -30.1477 -0.306461 -0.454581 -4.08869 -2.15136e-05 -4.84235e-05 -0.000364911 31.7822 4.77992 3.05733 -5.2242 5.03063 -2.57843 -0.247829 -0.509363 0.378862 31.7822 4.77992 3.05733 -5.22418 5.03069 -2.57846 -0.247757 -0.50903 0.37871 
26.982 1 230 32.0237 2.66577 5.17343 -0.909131 -3.84178 0.121232 -0.341417 0.0583956 -0.2832 -1.27149 -18.5552 -10.9607 -0.100773 -2.452 -1.53749 -0.000252448 -0.00050343 -0.000436279 32.0227 2.66194 5.17341 -0.970188 -3.83132 0.0705829 -0.341491 0.0584652 -0.283279 32.0227 2.66194 5.17341 -0.970161 -3.83135 0.0706113 -0.341343 0.0583267 -0.283121 
26.982 1 273 34.1179 4.70304 5.17387 -1.06301 0.621642 0.935817 -0.0634776 -0.389172 -0.300973 -0.0924651 -2.41855 -4.9492 -0.0147017 -0.37959 -0.703732 6.03545e-05 -0.000120905 -5.285e-05 34.1167 4.70368 5.17465 -1.07435 0.552048 0.882006 -0.0634007 -0.389245 -0.300968 34.1167 4.70368 5.17465 -1.07438 0.552074 0.882004 -0.0635546 -0.389099 -0.300978 
26.982 1 36 34.1032 2.73902 3.15791 -1.42458 2.34128 -0.965268 -0.0265857 0.10665 0.604279 -1.95058 -20.4336 -26.1184 -0.267342 -2.76527 -3.49739 -0.000189859 -0.000624175 -0.000293038 34.1016 2.74138 3.15678 -1.42933 2.36035 -0.8572 -0.0265737 0.106677 0.604429 34.1016 2.74138 3.15678 -1.42933 2.36034 -0.857253 -0.0265968 0.106623 0.604129 
26.982 1 203 -1.28332 1.47558 6.30428 -0.618659 4.34941 -0.757604 0.438187 -0.111213 -0.212655 -17.6262 -19.2934 -13.8227 -1.99094 -2.41789 -1.68555 -0.000215079 -0.000707547 -5.10654e-06 -1.28376 1.47996 6.30338 -0.540278 4.32952 -0.795633 0.438388 -0.111207 -0.212697 -1.28376 1.47996 6.30338 -0.54035 4.32952 -0.795618 0.437988 -0.111219 -0.212614 
26.982 1 999 40.9228 16.1307 18.1658 2.42294 -4.02424 1.42893 -0.055547 -0.173553 0.123066 7.20611 -1.5571 -5.51694 0.713824 -0.220955 -0.465719 -2.15721e-06 -2.4001e-05 0.000255071 40.9251 16.1267 18.1673 2.41302 -4.05527 1.45095 -0.0554847 -0.173561 0.123169 40.9251 16.1267 18.1673 2.413 -4.05527 1.45092 -0.0556095 -0.173545 0.122963 
26.982 1 75 36.1293 4.87516 3.08196 -0.967869 -2.84676 0.446236 0.202018 -0.45144 0.510262 1.9325 -1.77454 -29.272 -0.00567998 -0.270715 -3.69157 2.25888e-05 -9.16258e-05 -0.000100918 36.1282 4.87233 3.08223 -0.931743 -2.92748 0.537499 0.202057 -0.451478 0.510436 36.1282 4.87233 3.08223 -0.931757 -2.92746 0.537437 0.201979 -0.451403 0.510087 
26.982 1 234 36.1584 2.75691 5.37812 -4.25398 -5.38034 -1.46592 0.375778 0.578983 -0.363251 0.224473 -15.6786 -9.19575 -0.0654061 -2.23992 -1.34071 8.7842e-05 -0.00066394 0.000189843 36.154 2.75154 5.3765 -4.18678 -5.27679 -1.53087 0.375881 0.579164 -0.363294 36.154 2.75154 5.3765 -4.18681 -5.27685 -1.53086 0.375674 0.578801 -0.363211 
26.982 1 40 38.4163 2.78132 3.20462 0.3266 0.292233 -7.25959 -0.136605 -0.120204 0.216903 5.15979 -20.9143 -29.712 0.361945 -2.91559 -3.56349 7.66671e-05 -0.000441375 9.83098e-06 38.4165 2.78163 3.19719 0.302164 0.27074 -7.22078 -0.136673 -0.120211 0.217011 38.4165 2.78163 3.19719 0.302188 0.270743 -7.22082 -0.136537 -0.120195 0.216794 
26.982 1 277 38.5075 4.7479 4.95545 -1.61563 -7.81255 1.78724 -0.316862 -0.363465 1.42289 0.300947 -2.61934 -5.57167 0.0222431 -0.364729 -0.674424 -0.000117065 -0.000118164 0.000352976 38.5057 4.7401 4.95709 -1.67231 -7.87754 2.04171 -0.316996 -0.363478 1.42328 38.5057 4.7401 4.95709 -1.67226 -7.87753 2.04157 -0.31673 -0.363454 1.42249 
26.982 1 65 25.0644 4.86471 0.958613 -1.39926 -0.264049 -5.99843 0.103382 -0.308991 0.446289 2.76009 -0.77645 -20.6824 0.198768 -0.109063 -2.30581 -2.469e-06 -0.000159373 -0.00110521 25.063 4.86446 0.952416 -1.38078 -0.319309 -5.91863 0.103391 -0.309075 0.446296 25.063 4.86446 0.952416 -1.38078 -0.319279 -5.91864 0.103373 -0.308906 0.446285 
26.982 1 41 42.6405 4.8965 1.34952 -2.62402 0.582303 2.38258 0.246598 0.215903 -0.222097 -9.29247 -10.0951 -21.0655 -1.1242 -1.05992 -2.85577 9.63233e-06 -2.1325e-05 -0.000960764 42.6377 4.8971 1.35172 -2.5799 0.620914 2.34288 0.246724 0.215956 -0.222072 42.6377 4.8971 1.35172 -2.57995 0.620895 2.34287 0.246471 0.215847 -0.222124 
26.982 1 4 42.935 2.57945 3.29683 2.33115 0.00385474 1.46227 -0.164056 0.461295 0.35568 -17.3569 -19.0933 -22.64 -2.10674 -2.35535 -2.74346 -0.000128407 -0.000161945 -0.000164899 42.9371 2.57948 3.29812 2.30182 0.0863574 1.52589 -0.164027 0.461444 0.355822 42.9371 2.57948 3.29812 2.30181 0.0863042 1.52584 -0.164086 0.461146 0.355538 
26.982 1 241 43.4314 5.20842 4.60943 4.68828 4.061 -1.11872 -0.46587 -0.146292 0.231244 -12.18 -12.4372 -15.1191 -1.20897 -1.31873 -1.68133 -8.7535e-05 -0.00010839 -2.72682e-05 43.4359 5.2125 4.60815 4.60497 4.03482 -1.07737 -0.465957 -0.146408 0.231308 43.4359 5.2125 4.60815 4.60501 4.03486 -1.07739 -0.465784 -0.146176 0.231181 
26.982 1 79 40.5959 4.64507 3.07655 3.31996 -1.81973 -1.97978 0.47107 -0.349758 0.100633 -0.892225 -4.111 -31.2778 0.038666 -0.369276 -3.81554 0.000244605 -0.000325768 -0.000378431 40.5991 4.64327 3.07439 3.40423 -1.88227 -1.96178 0.471302 -0.349827 0.100722 40.5991 4.64327 3.07439 3.40414 -1.88225 -1.96181 0.470837 -0.349691 0.100542 
26.982 1 238 40.584 2.71916 5.10553 2.6302 1.3291 3.00605 0.606285 -0.0841837 0.371833 0.29984 -19.5958 -13.2505 0.100478 -2.51849 -1.6264 -8.97136e-06 -0.000432594 0.000120634 40.5864 2.72052 5.10839 2.73864 1.31405 3.07257 0.606512 -0.0841693 0.372044 40.5864 2.72052 5.10839 2.73855 1.31404 3.07249 0.606057 -0.0841977 0.371621 
26.982 1 129 6.98114 12.7573 1.30266 -6.4017 7.41909 0.395387 -0.84371 0.606993 0.613295 1.95201 0.964765 -34.738 0.168463 0.0732406 -4.26444 -0.000207504 -7.20918e-05 -0.000971527 6.97485 12.7647 1.30287 -6.55257 7.52763 0.505073 -0.843828 0.607077 0.613477 6.97485 12.7647 1.30287 -6.55253 7.5276 0.505008 -0.843591 0.606912 0.613113 
26.982 1 83 -1.33037 8.4689 3.12263 0.888338 -5.71606 -6.39732 0.0683125 -0.0885158 -0.352662 -18.5594 -6.93009 -26.6507 -2.10021 -0.988415 -3.62614 -0.000242843 -0.000150751 -0.00074434 -1.32929 8.46319 3.11605 0.90057 -5.73189 -6.46039 0.0684143 -0.0885087 -0.352771 -1.32929 8.46319 3.11605 0.900534 -5.73189 -6.46035 0.0682102 -0.088523 -0.352553 
26.982 1 242 -1.00947 6.20634 5.01678 1.34349 -2.34779 0.945635 -0.263975 -0.0650308 0.214099 -19.2751 -1.16094 -11.888 -2.36306 -0.226083 -1.46868 -0.000354334 -7.56725e-05 -0.000127355 -1.00794 6.20401 5.01758 1.29629 -2.35941 0.983924 -0.263975 -0.0650293 0.214151 -1.00794 6.20401 5.01758 1.29629 -2.35942 0.983906 -0.263976 -0.0650316 0.214049 
26.982 1 281 43.8861 7.97253 5.40505 9.76481 -4.1288 -3.10561 0.120277 -0.039648 0.0986521 -12.7277 -12.3752 -15.6929 -1.43552 -1.4755 -1.98194 0.000585906 -4.85858e-05 -0.000368879 43.8957 7.96841 5.4018 9.78631 -4.13589 -3.08797 0.120237 -0.0396704 0.0986637 43.8957 7.96841 5.4018 9.78632 -4.13588 -3.08798 0.120317 -0.0396261 0.0986414 
26.982 1 282 -1.35585 10.4003 5.1674 4.4654 -4.03451 3.54911 0.267774 0.327806 -0.0623031 -16.8676 -0.423831 -9.29752 -1.99788 -0.0930376 -1.22416 -0.000308598 0.000166175 -0.00038063 -1.3512 10.3963 5.1708 4.51329 -3.97587 3.53795 0.267851 0.327945 -0.0623936 -1.3512 10.3963 5.1708 4.51326 -3.97592 3.53799 0.267696 0.327669 -0.0622131 
26.982 1 2817 16.2209 19.505 16.6245 -4.27776 -1.81252 1.60473 0.405635 -0.0192921 -0.165645 -6.88322 8.27202 -18.7653 -0.921603 0.903266 -2.46816 -0.000153873 0.000274269 -0.000404321 16.2167 19.5032 16.6261 -4.20524 -1.81597 1.57509 0.405592 -0.0192968 -0.16575 16.2167 19.5032 16.6261 -4.20522 -1.81597 1.57513 0.40568 -0.0192887 -0.16554 
26.982 1 48 0.890528 6.33063 3.08943 -3.82697 2.57289 -0.000819072 0.101862 0.59694 -0.815055 -4.96652 -1.53775 -25.5125 -0.580003 -0.111608 -3.49914 -8.11452e-05 7.7346e-05 -0.000857776 0.886866 6.33322 3.08926 -3.80875 2.67962 -0.146598 0.101908 0.597001 -0.815344 0.886866 6.33322 3.08926 -3.80877 2.6796 -0.146495 0.101813 0.59688 -0.814766 
26.982 1 285 1.15583 8.62598 4.76284 6.87304 -1.44451 1.60739 -0.111736 0.433153 0.0981876 -2.22145 -0.354519 -4.02332 -0.227463 -0.0478844 -0.603028 1.92662e-05 0.000155367 -0.000180304 1.16287 8.62454 4.76429 6.85307 -1.36704 1.62493 -0.11169 0.433322 0.0981017 1.16287 8.62454 4.76429 6.85306 -1.3671 1.62496 -0.111781 0.432986 0.0982734 
26.982 1 87 3.29773 8.00525 1.94785 1.83591 -4.21496 0.624888 0.16842 -0.305875 0.236258 -0.33919 -0.281658 -23.2959 -0.137372 -0.0304556 -3.3002 -5.43839e-05 -0.000182378 -0.000863028 3.29971 8.00104 1.94829 1.86602 -4.26968 0.667143 0.168421 -0.30602 0.236335 3.29971 8.00104 1.94829 1.86602 -4.26963 0.667116 0.168419 -0.305731 0.236182 
26.982 1 246 3.37171 7.00866 4.56944 1.88094 -1.81096 -3.04188 0.118201 0.205175 0.680941 -0.0934483 -0.267149 -3.55848 0.00318195 -0.0368754 -0.53586 0.000191011 4.98411e-05 -4.50042e-05 3.37373 7.00686 4.56624 1.90211 -1.77427 -2.92013 0.118398 0.205229 0.680988 3.37373 7.00686 4.56624 1.90204 -1.77429 -2.92014 0.118005 0.20512 0.680894 
26.982 1 88 1.06762 9.8514 2.02869 -4.41934 2.50131 -2.95495 -0.24139 -0.576175 0.363665 -4.9073 -1.02665 -24.0581 -0.44642 -0.159785 -3.36507 -0.000175667 -0.000237436 -0.000784252 1.06336 9.85391 2.02554 -4.4625 2.39825 -2.88988 -0.2414 -0.576386 0.363904 1.06336 9.85391 2.02554 -4.4625 2.39833 -2.88997 -0.241381 -0.575963 0.36343 
26.982 1 286 4.33301 9.5641 4.12027 -1.04484 2.71594 -0.644593 0.277775 0.467421 0.231368 -0.0697255 0.0253269 -3.21337 -0.0267598 -0.00548733 -0.511871 -6.49029e-05 7.76314e-05 -0.000118941 4.3321 9.56683 4.11947 -0.995183 2.79952 -0.603225 0.277717 0.467504 0.231371 4.3321 9.56683 4.11947 -0.995162 2.79949 -0.603226 0.277833 0.467336 0.231364 
26.982 1 289 7.03758 8.21137 3.96614 -0.952435 -0.350141 -5.45094 -0.961675 0.0768388 0.855207 0.174687 0.0311816 -3.53256 -0.0102054 -0.0152207 -0.501781 -0.00040526 -4.16151e-05 -2.39967e-05 7.03675 8.21103 3.96051 -1.12445 -0.336408 -5.29802 -0.962077 0.0768076 0.855319 7.03675 8.21103 3.96051 -1.1243 -0.336397 -5.29806 -0.961276 0.0768702 0.855095 
26.982 1 52 6.19344 6.25834 2.01917 2.33046 1.83047 -1.77277 -0.114493 -0.021986 -0.218458 0.268191 -0.282483 -23.4373 0.0109269 -0.176999 -3.34125 -0.000232266 -0.000104074 -0.000880866 6.19589 6.26019 2.01722 2.30996 1.82653 -1.81181 -0.114663 -0.0219828 -0.218395 6.19589 6.26019 2.01722 2.31002 1.82653 -1.81184 -0.114322 -0.0219884 -0.218521 
26.982 1 91 9.73425 9.10412 3.28273 -1.27376 1.75034 -1.57982 0.247013 0.790221 -0.29842 2.1963 1.34351 -26.9941 0.189325 0.0309425 -3.40196 0.000280908 0.000234884 -0.000394619 9.73306 9.10588 3.28098 -1.22957 1.89167 -1.63317 0.247133 0.790444 -0.298404 9.73306 9.10588 3.28098 -1.22962 1.89159 -1.63318 0.246896 0.790001 -0.298436 
26.982 1 250 9.17432 6.70319 3.91886 1.91818 5.47095 1.22086 0.267681 -1.19983 -0.0899686 0.166245 0.00921164 -3.60223 0.00045577 -0.0544226 -0.557844 -6.32968e-05 -0.000255684 -0.000111411 9.17633 6.70868 3.91992 1.96603 5.25638 1.20478 0.267613 -1.20009 -0.0899406 9.17633 6.70868 3.91992 1.96606 5.25647 1.20477 0.267751 -1.19956 -0.089996 
26.982 1 290 9.28006 11.0512 5.10547 3.67396 0.831977 2.76296 0.268763 0.272015 0.219376 0.278798 0.0462284 -4.20974 0.0131182 -0.0062654 -0.528777 8.57967e-05 5.50526e-06 -3.96134e-06 9.28383 11.0521 5.10808 3.72202 0.880614 2.80219 0.268837 0.272031 0.219409 9.28383 11.0521 5.10808 3.722 0.880608 2.80218 0.26869 0.272 0.219342 
26.982 1 50 9.97532 7.12267 1.23228 -3.48723 3.45907 6.66672 -0.492161 -0.507742 0.103298 1.27995 0.175936 -31.9416 0.038477 -0.0636709 -3.57844 2.53729e-05 0.000136997 -0.00110594 9.97192 7.12614 1.23877 -3.57525 3.36826 6.68519 -0.492293 -0.507887 0.103293 9.97192 7.12614 1.23877 -3.5752 3.36832 6.68519 -0.492027 -0.507596 0.103304 
26.982 1 89 7.56521 8.61399 1.5493 1.63368 -0.314759 3.20319 0.251581 0.271081 -1.21289 1.42728 0.799402 -32.5452 0.152785 -0.0608434 -4.16108 -0.000185264 -3.71665e-05 -0.00112933 7.56695 8.61368 1.55233 1.67864 -0.266293 2.9863 0.251492 0.271072 -1.21306 7.56695 8.61368 1.55233 1.67868 -0.26629 2.98636 0.251673 0.271093 -1.21273 
26.982 1 293 11.8397 9.1628 5.28423 -1.30294 1.21863 5.63106 -0.143195 0.961393 -0.357666 0.0820552 0.267836 -4.47528 0.00195162 0.0128032 -0.567978 1.87461e-05 0.000311004 -7.25619e-05 11.8385 9.16403 5.28972 -1.32854 1.39057 5.56711 -0.143177 0.961697 -0.357676 11.8385 9.16403 5.28972 -1.32855 1.39047 5.56712 -0.143214 0.96109 -0.357657 
26.982 1 56 12.0444 7.25761 3.11602 -2.34229 -5.23864 -2.85361 -0.36039 0.293264 0.205966 0.767241 2.09994 -26.2254 -0.00313302 0.0996972 -3.43998 -3.94175e-05 0.00023506 -0.000357069 12.0421 7.25238 3.11299 -2.40672 -5.1862 -2.81678 -0.360382 0.293318 0.206018 12.0421 7.25238 3.11299 -2.40672 -5.18622 -2.8168 -0.360396 0.293211 0.205913 
26.982 1 95 13.6218 9.52414 2.82504 -2.68307 -5.27463 0.113494 0.312417 0.372147 0.0909818 -0.324961 1.93451 -29.6137 0.0437827 0.20995 -3.78764 -0.000150086 0.000212274 -0.000556122 13.6192 9.51887 2.82498 -2.6272 -5.20808 0.129769 0.312515 0.372222 0.0910296 13.6192 9.51887 2.82498 -2.62723 -5.20811 0.129752 0.312318 0.372071 0.0909335 