ITEM: TIMESTEP
12000
ITEM: NUMBER OF ATOMS
4000
ITEM: BOX BOUNDS pp pp pp
-2.5131 43.0131
0.679808 39.8202
0.683342 39.8167
ITEM: ATOMS mass type id x y z vx vy vz fx fy fz xrad yrad zrad vxrad vyrad vzrad fxrad fyrad fzrad xub yub zub vxub vyub vzub fxub fyub fzub xlb ylb zlb vxlb vylb vzlb fxlb fylb fzlb 
26.982 1 43 -0.173838 4.43632 2.79315 -4.09784 -0.0677076 2.05553 -0.210843 0.194928 -0.24388 -9.18326 -5.75109 -14.3773 -1.54856 -0.730415 -2.42018 -0.000458953 7.693e-05 -0.000443055 -0.177754 4.43623 2.79516 -4.13555 -0.0328483 2.01192 -0.2109 0.194966 -0.243917 -0.177754 4.43623 2.79516 -4.13553 -0.0328616 2.01194 -0.210786 0.194892 -0.243842 
26.982 1 202 -0.31309 2.56459 4.71055 3.59516 2.63918 0.256761 -0.266299 0.393952 -0.139785 -8.68068 -8.48826 -8.71781 -1.41348 -1.34854 -1.45011 -0.00025761 -0.000506786 -0.000419503 -0.30931 2.5672 4.71077 3.54752 2.70963 0.231762 -0.266429 0.394023 -0.139816 -0.30931 2.5672 4.71077 3.54757 2.7096 0.231773 -0.26617 0.393883 -0.139754 
26.982 1 245 2.0126 4.38044 4.72745 -1.22604 -1.80706 -0.13174 0.0643673 0.891097 -0.272565 -0.871744 -2.00362 -2.79102 -0.158724 -0.320284 -0.485705 -1.07836e-05 6.00777e-05 -0.000128677 2.01153 4.3786 4.72727 -1.21452 -1.64769 -0.180482 0.0644083 0.89135 -0.272611 2.01153 4.3786 4.72727 -1.21454 -1.64778 -0.180465 0.0643265 0.890844 -0.272519 
26.982 1 2 -0.182818 2.63234 0.709099 1.24562 3.14564 -1.69938 -0.190408 -0.356631 0.0814996 -6.04075 -9.12717 -15.9319 -0.949007 -1.50133 -2.70392 -0.00026699 -0.000460351 -0.000706238 -0.181389 2.63545 0.70734 1.21156 3.08186 -1.68481 -0.190469 -0.356736 0.0814793 -0.181389 2.63545 0.70734 1.21158 3.0819 -1.6848 -0.190347 -0.356524 0.0815201 
26.982 1 1161 43.0063 16.3747 20.172 6.19444 2.23083 -0.308437 -0.435431 0.170806 0.0399015 -9.57572 -8.52375 -6.47269 -1.52565 -1.37614 -1.09307 -0.000113765 -0.00016296 -9.78711e-05 43.0123 16.3769 20.1717 6.11656 2.26137 -0.301311 -0.435594 0.170831 0.0398535 43.0123 16.3769 20.1717 6.11662 2.26136 -0.301294 -0.435269 0.170781 0.039949 
26.982 1 201 42.8294 0.57777 4.68789 1.97776 1.55641 3.05399 0.520554 0.0839671 0.0903422 -5.221 -9.45867 -12.1988 -0.943447 -1.48947 -2.07768 1.74234e-05 -0.000682423 -0.00075291 42.8312 0.579288 4.6909 2.07086 1.57142 3.07014 0.520699 0.0839419 0.0903209 42.8312 0.579288 4.6909 2.0708 1.57143 3.07014 0.520409 0.083993 0.090365 
26.982 1 1197 38.4221 16.2662 20.4075 1.69451 -1.36109 -3.96557 0.00293908 0.166999 -0.418004 -4.89055 -6.67611 -3.00295 -0.85098 -1.19189 -0.552281 -1.3018e-05 -9.35039e-05 -3.77702e-05 38.4236 16.2648 20.4035 1.69504 -1.33123 -4.04032 0.00297039 0.166976 -0.418069 38.4236 16.2648 20.4035 1.69503 -1.33122 -4.0403 0.00290785 0.167022 -0.417938 
26.982 1 1000 38.2298 18.0842 18.3644 -0.650635 2.63971 -0.954126 0.23621 0.486768 0.0124383 -2.28299 8.82055 1.66951 -0.370636 1.4459 0.34153 -0.000151367 0.000269498 -1.1634e-05 38.229 18.0869 18.3635 -0.608386 2.72676 -0.951906 0.236299 0.486825 0.0124169 38.229 18.0869 18.3635 -0.608418 2.72674 -0.951898 0.23612 0.486711 0.0124604 
26.982 1 8 2.0875 2.63521 2.66868 -1.80608 -1.82106 -1.62657 0.0707912 -0.175864 -0.343367 2.05117 -13.7483 -14.5899 0.231704 -2.23589 -2.47728 -4.41109e-05 -0.000957512 -0.000244829 2.08586 2.63336 2.667 -1.79341 -1.85252 -1.68797 0.0708465 -0.175923 -0.343442 2.08586 2.63336 2.667 -1.79343 -1.8525 -1.68795 0.0707364 -0.175803 -0.343292 
26.982 1 997 38.1974 16.3718 16.3137 -0.534832 0.551286 2.34109 0.371163 -0.23414 0.521973 0.146338 0.0489349 -0.202812 0.0227607 0.0135276 -0.0363409 0.000120266 -7.0297e-05 7.06598e-05 38.1967 16.3723 16.316 -0.468448 0.509411 2.43443 0.371278 -0.234207 0.522044 38.1967 16.3723 16.316 -0.46849 0.509434 2.4344 0.371046 -0.234074 0.521902 
26.982 1 47 4.23475 4.56601 2.66673 5.62995 -0.964799 -6.94736 0.235322 0.497503 0.0193181 -1.04061 -3.91423 -13.9205 -0.104015 -0.60709 -2.51949 0.000204589 4.84412e-06 -0.000391062 4.24053 4.56502 2.65972 5.67203 -0.875826 -6.9439 0.235369 0.49762 0.0193504 4.24053 4.56502 2.65972 5.67202 -0.875868 -6.94391 0.235275 0.497386 0.019286 
26.982 1 206 4.41054 2.62433 4.56665 -1.55416 -0.996368 -0.551629 0.119111 -0.455001 -0.475573 -0.53049 -12.8499 -8.10998 -0.0625536 -1.97052 -1.28306 -8.48992e-05 -0.00059085 -0.000418971 4.40912 2.6233 4.56605 -1.53284 -1.07773 -0.636683 0.119233 -0.455072 -0.475702 4.40912 2.6233 4.56605 -1.53288 -1.07771 -0.636637 0.118989 -0.45493 -0.475444 
26.982 1 249 6.69239 4.74096 4.62678 -1.35601 1.80023 2.83439 -0.162873 -0.364272 0.421686 -0.169749 -1.84944 -2.17776 -0.0170653 -0.304147 -0.416031 -3.51863e-05 -8.4856e-05 -0.000122266 6.69116 4.74273 4.62957 -1.38514 1.73509 2.90979 -0.162918 -0.364325 0.421721 6.69116 4.74273 4.62957 -1.38512 1.73511 2.90978 -0.162829 -0.364219 0.42165 
26.982 1 801 -2.53769 0.568319 16.2199 -1.94929 -6.91194 0.604192 0.118096 0.164208 -0.00327244 -3.94139 -9.02156 -9.65075 -0.85285 -1.78506 -1.85882 -0.000690409 -0.000299454 -0.000644485 -2.53944 0.561362 16.2205 -1.92818 -6.88258 0.603615 0.118072 0.16418 -0.0032278 -2.53944 0.561362 16.2205 -1.92817 -6.88257 0.603599 0.118122 0.164238 -0.0033169 
26.982 1 12 6.79028 2.89353 2.74107 1.78601 -3.58696 3.49591 -0.254337 -0.640581 -0.276053 -2.57367 -16.135 -12.3116 -0.315029 -2.57103 -2.28828 -6.36482e-06 -0.000306843 -0.000919637 6.79219 2.88991 2.74451 1.74052 -3.70152 3.44654 -0.254424 -0.64071 -0.276122 6.79219 2.88991 2.74451 1.74056 -3.70147 3.44657 -0.254251 -0.640451 -0.275986 
26.982 1 51 9.12307 4.80037 2.67379 -3.52401 1.6966 0.568217 -0.545633 -0.479604 0.17822 0.21768 -2.03102 -11.5046 -0.000672999 -0.279621 -2.12999 -9.27712e-05 -0.000109054 -0.000961976 9.11965 4.80204 2.6743 -3.62158 1.61083 0.600084 -0.545733 -0.479683 0.17823 9.11965 4.80204 2.6743 -3.62154 1.61086 0.60008 -0.545532 -0.479525 0.17821 
26.982 1 210 8.7765 2.71984 4.66477 -1.66067 -1.43105 1.84304 0.481925 0.127795 -0.171518 0.604222 -11.8707 -6.69089 0.181862 -2.05892 -1.17483 6.68946e-05 -9.71661e-05 -0.000246815 8.77494 2.71837 4.66657 -1.57449 -1.4082 1.81237 0.482007 0.127828 -0.171552 8.77494 2.71837 4.66657 -1.57452 -1.40821 1.81238 0.481845 0.127762 -0.171482 
26.982 1 253 11.2556 4.36796 4.47547 -4.38494 0.464035 -6.55518 -0.121006 0.140294 0.857358 0.207515 -2.04954 -2.30436 0.019119 -0.365229 -0.407969 -8.84583e-05 2.88321e-05 2.72822e-06 11.2513 4.36839 4.46886 -4.40658 0.489129 -6.40186 -0.121074 0.14035 0.857554 11.2513 4.36839 4.46886 -4.40656 0.489109 -6.40193 -0.120939 0.140239 0.857163 
26.982 1 803 -0.224436 0.717693 18.1417 4.14527 -0.429385 1.49815 0.22913 -0.126322 0.00234298 -8.89465 -6.08503 -8.07418 -1.44255 -1.08098 -1.52026 -0.000439457 -0.000861657 0.000197034 -0.220105 0.717227 18.1431 4.18626 -0.451988 1.49858 0.229213 -0.126417 0.00238309 -0.220105 0.717227 18.1431 4.18623 -0.451954 1.49857 0.229046 -0.126225 0.00230265 
26.982 1 16 11.2477 2.47444 2.60773 -2.83514 0.438577 10.1146 -0.201425 -0.176571 0.209713 2.75761 -15.9709 -12.7416 0.24262 -2.74933 -2.03114 -0.000265371 -0.000253719 -0.000836308 11.245 2.47485 2.61781 -2.87117 0.406995 10.1521 -0.201527 -0.176637 0.209772 11.245 2.47485 2.61781 -2.87114 0.407018 10.1521 -0.201322 -0.176505 0.209654 
26.982 1 2839 40.4334 20.0824 18.3835 -1.23604 -1.62613 -0.327655 0.388835 0.0310206 -0.139149 0.613993 -4.04849 -13.066 -0.0630414 -1.00699 -2.19436 -0.000284191 0.000510634 -0.000245824 40.4319 20.0808 18.3831 -1.1665 -1.62058 -0.352544 0.388936 0.0310342 -0.139205 40.4319 20.0808 18.3831 -1.16654 -1.62058 -0.352524 0.388734 0.031008 -0.139092 
26.982 1 55 13.4273 4.38247 2.64821 -3.1376 0.000108827 1.62441 0.598303 0.271277 0.115389 0.343208 -3.98422 -14.9429 0.0934292 -0.494396 -2.4643 -5.57044e-05 2.35967e-05 -0.000415488 13.4243 4.38244 2.64979 -3.0306 0.0486241 1.64506 0.598454 0.271343 0.115449 13.4243 4.38244 2.64979 -3.03065 0.0486004 1.64503 0.598152 0.27121 0.115328 
26.982 1 214 13.5089 2.5917 4.66752 -2.02101 1.99353 -1.92167 -0.206393 -0.311122 -0.0223512 0.846544 -13.2622 -7.4797 0.000539394 -2.18454 -1.20959 0.000127786 -0.000414879 -0.000135486 13.5069 2.59365 4.66554 -2.05792 1.93788 -1.92567 -0.206438 -0.311197 -0.0223714 13.5069 2.59365 4.66554 -2.05791 1.93791 -1.92566 -0.206347 -0.311047 -0.0223306 
26.982 1 14 13.5163 2.56442 0.579788 -1.97407 -3.72823 4.15318 0.199823 -0.18067 0.411836 0.900367 -9.85329 -11.1588 0.154664 -1.63969 -2.39731 -0.000133148 -0.000376665 -0.000925614 13.5144 2.56065 0.583887 -1.93832 -3.76055 4.22684 0.199916 -0.180774 0.411953 13.5144 2.56065 0.583886 -1.93836 -3.76051 4.2268 0.19973 -0.180565 0.41172 
26.982 1 57 15.7346 4.48393 0.709557 1.1011 1.11349 -4.54167 0.282446 0.165562 -0.0165275 -1.71194 -2.30289 -17.5759 -0.0498419 -0.323931 -2.68324 0.00045207 -6.2701e-05 -0.000970808 15.7357 4.48501 0.704954 1.15162 1.14311 -4.54462 0.28256 0.165628 -0.0165146 15.7357 4.48501 0.704954 1.15158 1.14308 -4.54462 0.282331 0.165495 -0.0165403 
26.982 1 20 15.835 2.55797 2.7152 -3.80804 -3.61419 1.52363 -0.325688 -0.156645 -0.202351 -3.68419 -16.0215 -12.462 -0.329156 -2.55766 -2.18574 0.000305005 -0.000757617 -0.000491663 15.8312 2.55432 2.71667 -3.86628 -3.64221 1.48744 -0.32575 -0.156686 -0.202415 15.8312 2.55432 2.71667 -3.86626 -3.64219 1.48747 -0.325627 -0.156603 -0.202287 
26.982 1 257 15.6408 4.51167 4.62406 0.194893 -0.521922 0.769518 0.213435 0.609902 -0.487663 -0.149304 -2.23693 -2.43549 -0.00870476 -0.351832 -0.447357 8.55765e-05 6.45658e-05 -0.000262919 15.6411 4.51111 4.62479 0.233064 -0.412844 0.682294 0.213488 0.610069 -0.487835 15.6411 4.51111 4.62479 0.233045 -0.412904 0.682356 0.213382 0.609735 -0.487491 
26.982 1 218 18.0042 2.51407 4.39059 -0.47574 -0.196278 3.15347 0.120296 0.00869761 0.756121 -0.898465 -12.5865 -5.72815 -0.0689418 -2.05213 -1.06732 -6.22133e-05 -0.000636088 -0.000399463 18.0038 2.51384 4.3937 -0.454223 -0.194732 3.28868 0.120339 0.00864826 0.756236 18.0038 2.51384 4.3937 -0.454239 -0.194715 3.28864 0.120252 0.00874685 0.756005 
26.982 1 59 18.1543 4.60751 2.80742 -3.25748 -5.47139 0.654466 -0.163416 -0.0347778 -0.0139606 0.27442 -1.07176 -12.4891 0.0896865 -0.194339 -2.38639 0.000126327 -7.52443e-05 -0.00092635 18.1511 4.602 2.80802 -3.2867 -5.47761 0.651964 -0.163456 -0.0347637 -0.0139971 18.1511 4.602 2.80802 -3.28669 -5.47761 0.651977 -0.163376 -0.0347923 -0.0139243 
26.982 1 24 20.5012 2.63389 2.97321 1.07616 -2.97371 1.25039 -0.326772 0.210595 -0.890904 1.31898 -13.3188 -10.7699 0.252724 -2.26862 -2.18349 -0.000258101 -0.000218581 -0.00104956 20.5022 2.63088 2.97441 1.01772 -2.93604 1.09107 -0.326836 0.210669 -0.891074 20.5022 2.63088 2.97441 1.01775 -2.93607 1.09113 -0.326708 0.21052 -0.890735 
26.982 1 261 20.316 4.69161 4.69687 1.01756 -4.9083 -1.66251 0.159951 0.0469385 -0.199217 0.130995 -1.81822 -2.43636 0.0308771 -0.320214 -0.495364 5.21274e-05 -2.70396e-05 -0.00022969 20.317 4.68667 4.69516 1.04617 -4.89991 -1.69813 0.160017 0.0469435 -0.199257 20.317 4.68667 4.69516 1.04614 -4.89991 -1.69812 0.159886 0.0469336 -0.199178 
26.982 1 63 22.6173 4.65621 2.52035 0.296712 0.882402 2.92276 -0.1674 -0.303725 0.357043 0.666275 -1.0012 -15.0933 0.0926468 -0.243553 -2.84673 -0.000114409 -4.94916e-05 -0.000975763 22.6176 4.65706 2.52322 0.266769 0.828087 2.98661 -0.167469 -0.303781 0.357116 22.6176 4.65706 2.52322 0.266794 0.828107 2.98658 -0.16733 -0.303669 0.356971 
26.982 1 222 22.6635 2.63768 4.60748 2.22436 -6.04191 2.46109 0.14741 0.200222 0.176109 -0.450509 -11.618 -6.48567 0.0475222 -2.06364 -1.21671 3.29871e-05 -4.45231e-05 -0.000187007 22.6658 2.6316 4.6099 2.25072 -6.00609 2.49259 0.147464 0.200322 0.17613 22.6658 2.6316 4.6099 2.2507 -6.00613 2.49258 0.147358 0.200121 0.176088 
26.982 1 28 24.7888 2.58106 2.47608 3.97487 -1.37545 2.69624 -0.162674 -0.165124 0.27159 -1.08929 -10.9266 -13.577 -0.105732 -2.1064 -2.40053 -3.64737e-05 -0.000144007 -0.000593507 24.7928 2.57964 2.47873 3.94578 -1.40498 2.74481 -0.162743 -0.165157 0.271614 24.7928 2.57964 2.47873 3.9458 -1.40497 2.7448 -0.162605 -0.165092 0.271566 
26.982 1 265 25.0183 4.43354 4.50979 -0.942989 1.48296 -2.26054 -0.486729 0.570317 0.20042 -0.00854324 -1.55988 -2.8751 0.00196417 -0.325038 -0.562175 -0.000109836 5.33423e-05 -0.000155332 25.0173 4.435 4.50748 -1.03003 1.58495 -2.2247 -0.48684 0.570413 0.200452 25.0173 4.435 4.50748 -1.03 1.58491 -2.22471 -0.486618 0.570222 0.200389 
26.982 1 67 27.1331 4.61062 2.59265 -3.51622 -2.0111 1.02093 -0.257863 -0.015948 0.346619 0.658335 -0.434026 -17.6923 0.168797 -0.0797425 -3.25742 -6.4811e-06 -0.000138217 -0.000541012 27.1295 4.60858 2.59362 -3.56233 -2.01395 1.08291 -0.257903 -0.0159285 0.346659 27.1295 4.60858 2.59362 -3.56231 -2.01395 1.0829 -0.257824 -0.015967 0.346579 
26.982 1 226 27.0184 2.58964 4.62099 3.60695 -3.8322 4.34 0.304125 0.565991 -0.0234572 0.247724 -9.42121 -4.83666 -0.0720853 -1.85805 -1.07456 0.000302672 -0.000539757 -0.000459398 27.0219 2.58576 4.62529 3.66134 -3.73098 4.3358 0.304194 0.566073 -0.0235073 27.0219 2.58576 4.62529 3.66132 -3.73101 4.33582 0.304057 0.56591 -0.0234065 
26.982 1 32 29.3309 2.79945 2.80902 -1.53691 1.70524 1.90772 -0.0187857 -0.56058 0.109835 0.16942 -9.93473 -14.4119 0.0369437 -1.68995 -2.7156 -1.64345e-05 -0.000748211 -0.000515169 29.3293 2.80112 2.81088 -1.54027 1.605 1.92736 -0.0187781 -0.560678 0.109866 29.3293 2.80112 2.81088 -1.54027 1.60503 1.92735 -0.0187935 -0.560482 0.109803 
26.982 1 26 26.9948 2.65296 0.671331 -0.371422 -3.72614 1.07174 0.0404771 -0.0681981 -0.488768 -1.46614 -6.54676 -15.644 -0.179678 -1.17337 -2.43164 0.000207117 -0.00026125 -0.000755777 26.9943 2.64919 0.672347 -0.36419 -3.73834 0.98433 0.0404501 -0.0682437 -0.488871 26.9943 2.64919 0.672347 -0.36418 -3.73832 0.984367 0.0405045 -0.0681521 -0.488665 
26.982 1 269 29.3247 4.65922 4.82318 -2.82791 -4.24238 -3.42353 0.0123235 0.221292 -0.262209 -0.108016 -1.3957 -3.09476 -0.0157426 -0.267198 -0.636153 5.44678e-05 -8.86622e-05 -0.000181928 29.3218 4.65494 4.81971 -2.8257 -4.2028 -3.47043 0.0123781 0.221331 -0.262284 29.3218 4.65494 4.81971 -2.82572 -4.20282 -3.4704 0.0122688 0.221253 -0.262135 
26.982 1 71 31.6052 4.66274 2.42463 0.108903 0.399612 -0.881867 -0.0614513 0.0307204 0.243284 -1.58555 -0.662601 -15.4708 -0.309147 -0.190703 -3.08741 -5.83903e-05 -0.00010627 -0.000541862 31.6053 4.66311 2.42369 0.0979064 0.405115 -0.838358 -0.0615052 0.0307755 0.243342 31.6053 4.66311 2.42369 0.0979256 0.405095 -0.838379 -0.0613977 0.0306652 0.243227 
26.982 1 230 31.453 2.88113 4.55693 -3.72449 -1.8276 6.10117 0.393423 -0.671706 0.108627 -0.887901 -10.0609 -5.57998 -0.0955031 -1.75867 -1.11374 7.17873e-05 -0.000749545 -0.000204976 31.4491 2.87926 4.56299 -3.65414 -1.94773 6.12061 0.393489 -0.671881 0.108693 31.4491 2.87926 4.56299 -3.65416 -1.94767 6.12058 0.393356 -0.671531 0.108561 
26.982 1 30 31.6173 2.60309 0.701979 1.15446 -3.25466 -3.39481 -0.280894 0.47247 -0.0896886 -0.844471 -7.96141 -17.4694 0.0303888 -1.36731 -2.35931 -0.000283526 -0.000244637 -0.000757044 31.6183 2.5998 0.698523 1.10423 -3.17016 -3.41085 -0.280959 0.47259 -0.0897251 31.6183 2.5998 0.698523 1.10425 -3.1702 -3.41084 -0.280829 0.472349 -0.0896523 
26.982 1 273 33.7143 4.74598 4.46046 2.43439 -2.30835 -2.45915 0.049444 -0.703455 0.484976 -0.0115297 -1.16412 -2.46081 -0.0210139 -0.243949 -0.499113 -1.37969e-08 -0.000236307 -4.95265e-05 33.7167 4.74364 4.45796 2.44323 -2.43415 -2.37242 0.0494354 -0.703581 0.485092 33.7167 4.74364 4.45796 2.44323 -2.4341 -2.37246 0.0494529 -0.703328 0.48486 
26.982 1 36 33.76 2.60741 2.52818 -5.16871 -4.30538 1.55079 0.0493539 0.292554 0.210696 -0.94608 -10.8861 -13.7577 -0.22773 -2.03818 -2.58876 2.06382e-05 -0.000337125 -0.000238554 33.7547 2.60306 2.52969 -5.15989 -4.25307 1.58848 0.0493729 0.292584 0.210776 33.7547 2.60306 2.52969 -5.15989 -4.25308 1.58845 0.0493346 0.292523 0.210616 
26.982 1 75 35.8762 4.47722 2.67937 -6.15132 2.93618 -3.5597 0.460602 0.783535 -0.524622 1.87062 -0.899502 -16.1689 0.0620904 -0.189279 -2.69819 0.000155257 5.63203e-05 -0.000996167 35.8699 4.48013 2.67576 -6.06894 3.07631 -3.65352 0.460763 0.783698 -0.524739 35.8699 4.48013 2.67576 -6.06899 3.07625 -3.65348 0.460441 0.783372 -0.524506 
26.982 1 234 36.195 2.67429 4.49593 5.01783 -4.02185 2.4436 -0.208249 0.17788 0.297484 0.380766 -8.07603 -4.52241 0.0023841 -1.57531 -0.959381 -0.000212328 -0.00020291 -0.000203807 36.1999 2.67022 4.49833 4.98059 -3.99003 2.49679 -0.208286 0.177966 0.297495 36.1999 2.67022 4.49833 4.9806 -3.99006 2.49679 -0.208212 0.177794 0.297473 
26.982 1 2837 38.4512 20.2563 16.2281 2.80784 5.04377 4.27035 -0.0939667 -0.261922 0.0284945 -2.94437 -7.60907 -11.5186 -0.633384 -1.0951 -1.83965 -0.000408741 0.000374081 -0.000472749 38.4538 20.2614 16.2323 2.79103 4.99693 4.27544 -0.0939819 -0.261956 0.0284889 38.4538 20.2614 16.2323 2.79104 4.99694 4.27545 -0.0939509 -0.261888 0.0285008 
26.982 1 40 38.4116 2.73374 2.77343 -0.0188485 -1.85046 -0.820029 0.274539 0.335747 -0.2848 3.67886 -10.8469 -16.8874 0.341686 -2.07384 -2.69885 0.00013109 -0.000179041 -0.000848729 38.4114 2.73185 2.77256 0.0302546 -1.79041 -0.870964 0.274632 0.335841 -0.284877 38.4114 2.73185 2.77256 0.0302213 -1.79045 -0.870936 0.274445 0.335652 -0.284722 
26.982 1 237 38.331 0.65351 4.44106 2.33922 0.876531 -1.78847 0.377946 0.205191 0.50078 1.86685 -12.8508 -10.1875 0.15028 -2.17393 -1.80068 0.000271995 -0.000757842 -0.000515945 38.3332 0.654351 4.43922 2.40682 0.913224 -1.69892 0.378087 0.205222 0.500878 38.3332 0.654351 4.43922 2.40677 0.913213 -1.69895 0.377806 0.20516 0.500684 
26.982 1 4 -2.48327 2.52625 2.68324 -0.739556 -1.49725 -1.70165 0.147357 0.486779 0.410009 -9.19436 -11.1089 -12.8837 -1.77614 -1.63731 -2.05766 -0.000599376 -0.000326975 -0.000239556 -2.48381 2.52472 2.68148 -0.713207 -1.4102 -1.62834 0.147368 0.486842 0.410034 -2.48381 2.52472 2.68148 -0.713211 -1.41022 -1.62835 0.147348 0.486718 0.409983 
26.982 1 241 42.9074 4.70261 4.62825 1.37805 -2.27531 -2.50126 0.305439 -0.801774 -0.00610036 -7.58027 -7.73269 -9.03968 -0.986424 -1.01219 -1.28734 9.16115e-05 -0.000156054 -0.000189413 42.9086 4.7003 4.6257 1.43268 -2.41869 -2.50236 0.30552 -0.801893 -0.00612782 42.9086 4.7003 4.6257 1.43265 -2.41865 -2.50235 0.305358 -0.801656 -0.00607298 
26.982 1 2833 33.872 20.3113 16.379 -0.772188 -2.11186 -0.100379 0.0753627 -0.349146 -0.189272 -6.69834 -1.30518 -13.5482 -0.900461 -0.464437 -2.22941 -0.000168238 0.000190933 -0.000542166 33.8711 20.3091 16.3789 -0.758707 -2.1743 -0.13423 0.0753976 -0.349204 -0.189321 33.8711 20.3091 16.3789 -0.75872 -2.17428 -0.134212 0.0753281 -0.349088 -0.189224 
26.982 1 277 38.2636 4.74057 4.87161 -0.0764153 -2.87959 2.60893 0.22551 -0.19391 -0.04348 0.209552 -1.40293 -3.13844 0.0249142 -0.249854 -0.505048 6.05414e-05 -1.68219e-05 -0.0002392 38.2634 4.73766 4.87418 -0.0360815 -2.91425 2.60114 0.225585 -0.19389 -0.043607 38.2634 4.73766 4.87418 -0.0361082 -2.91426 2.60118 0.225436 -0.19393 -0.0433535 
26.982 1 79 40.7641 4.56384 2.55288 1.64457 2.66726 4.29794 -0.102151 -0.197916 0.171404 -1.06289 -2.75315 -17.4329 0.0474566 -0.308374 -2.95853 -5.54444e-05 -0.000153198 -0.000535813 40.7656 4.56648 2.55713 1.6263 2.63187 4.3286 -0.102223 -0.197923 0.171472 40.7656 4.56648 2.55713 1.62632 2.63188 4.32858 -0.10208 -0.197908 0.171337 
26.982 1 238 40.7487 2.76697 4.73023 -3.45253 2.26034 -1.2607 -0.17158 -0.18868 -0.566101 0.0294912 -10.92 -7.4741 0.0460063 -1.78971 -1.18371 -5.20583e-05 -0.000390384 -0.000503593 40.745 2.7692 4.72892 -3.48321 2.2266 -1.36194 -0.171643 -0.188677 -0.566229 40.745 2.7692 4.72892 -3.48319 2.2266 -1.36189 -0.171517 -0.188684 -0.565973 
26.982 1 998 40.7705 18.5108 16.2746 0.537511 -0.81032 2.8782 0.103085 -0.132492 -0.397051 2.40073 2.26412 -4.46302 0.309026 0.528915 -0.807219 3.33775e-05 0.000222441 -0.000371557 40.7709 18.51 16.2775 0.555947 -0.834022 2.8072 0.103112 -0.132566 -0.397082 40.7709 18.51 16.2775 0.555937 -0.833996 2.80721 0.103057 -0.132418 -0.397021 
26.982 1 83 -0.354706 8.69424 2.78629 2.79325 3.33949 4.7325 0.405275 -0.637949 -0.715051 -10.7724 -3.5106 -14.2323 -1.68081 -0.685525 -2.52129 -0.000412699 -0.00052459 -0.000630218 -0.351728 8.69756 2.79098 2.86574 3.2254 4.60463 0.405388 -0.638084 -0.715159 -0.351728 8.69756 2.79098 2.8657 3.22545 4.60467 0.405163 -0.637814 -0.714943 
26.982 1 242 -0.107283 6.53864 4.51271 5.37392 2.96869 -3.94919 -0.340228 0.153821 0.54537 -10.9269 -0.329512 -6.66831 -1.73699 -0.224841 -1.07559 -0.00062434 1.83676e-05 -0.000234846 -0.101723 6.54158 4.50871 5.31309 2.99619 -3.85166 -0.340256 0.153845 0.545472 -0.101723 6.54158 4.50871 5.3131 2.99619 -3.85169 -0.3402 0.153797 0.545267 
26.982 1 84 -2.62229 10.4985 2.68449 0.994742 1.67833 -0.177379 0.278337 -0.0878374 -0.450446 -11.8805 -4.04546 -17.0214 -2.10821 -0.729741 -2.76799 -0.0008599 -0.000364448 -0.000487478 -2.62109 10.5001 2.68426 1.04451 1.66262 -0.257944 0.278324 -0.0878885 -0.450594 -2.62109 10.5001 2.68426 1.04451 1.66264 -0.257891 0.278352 -0.0877846 -0.450296 
26.982 1 281 43.0771 8.63067 4.6396 4.60843 1.60398 0.516392 -0.110934 -0.658126 -0.161407 -6.96935 -6.83181 -8.55033 -1.37221 -1.27451 -1.59356 -1.22367e-05 -0.000240612 -0.000188077 43.0815 8.63225 4.64007 4.58859 1.48627 0.487525 -0.110977 -0.658335 -0.161448 43.0815 8.63225 4.64007 4.5886 1.48634 0.48754 -0.11089 -0.657918 -0.161366 
26.982 1 88 2.11764 10.3627 2.61086 2.27515 3.35138 -1.74272 -0.523216 0.539306 -0.209258 -3.29427 -0.654229 -12.9132 -0.391345 -0.07129 -2.14177 1.90774e-06 5.62327e-05 -0.000883014 2.12008 10.3661 2.60907 2.18158 3.44782 -1.78014 -0.523293 0.539376 -0.209305 2.12008 10.3661 2.60907 2.18161 3.44779 -1.78013 -0.523139 0.539237 -0.209211 
26.982 1 48 1.94106 6.57188 2.76538 2.42898 -6.17189 -0.800094 0.452656 -0.0554974 -0.398891 -2.83358 -1.03104 -13.6626 -0.427237 -0.205435 -2.39346 -0.000164067 0.000166355 -0.000612945 1.94365 6.56567 2.76452 2.50993 -6.18181 -0.871422 0.45277 -0.0554973 -0.398937 1.94365 6.56567 2.76452 2.50989 -6.18181 -0.871406 0.452541 -0.0554987 -0.398846 
26.982 1 282 -0.307854 10.5416 4.56047 3.78453 -0.838709 6.1775 0.408369 0.0589822 0.541599 -9.85785 -0.151391 -5.15668 -1.46651 0.014096 -0.828759 -0.000186215 -0.000284737 -8.37906e-05 -0.303887 10.5408 4.5666 3.85757 -0.828175 6.27435 0.408501 0.0589148 0.541662 -0.303887 10.5408 4.5666 3.85753 -0.828151 6.27433 0.408238 0.059051 0.541537 
26.982 1 2823 22.5819 20.2366 18.2227 4.59615 -0.14451 1.38084 0.0274762 -0.0865428 0.422238 -4.36924 -2.85616 -9.6047 -1.04639 -0.591849 -1.56499 8.83963e-06 0.000418048 -0.000459253 22.5865 20.2365 18.2241 4.60106 -0.159984 1.45635 0.0274829 -0.0865468 0.422331 22.5865 20.2365 18.2241 4.60106 -0.159983 1.45632 0.0274693 -0.086539 0.422142 
26.982 1 285 2.113 8.56344 4.58391 0.659133 -3.26992 0.404169 -0.169387 -0.122882 0.368886 -1.35788 -0.197504 -2.09097 -0.183047 -0.0398064 -0.360035 -9.39176e-05 -6.3271e-05 -0.00011061 2.11382 8.56015 4.58427 0.628842 -3.2919 0.470132 -0.169411 -0.122941 0.368927 2.11382 8.56015 4.58427 0.628851 -3.29188 0.470118 -0.169362 -0.122822 0.368846 
26.982 1 87 4.28393 8.68684 2.54076 0.276576 -5.57465 -1.66488 0.17252 -0.259962 0.180833 -0.0866141 -0.27389 -12.3019 -0.0129787 -0.0579427 -2.17 -0.000152824 0.000101414 -0.0006113 4.28435 8.68124 2.53904 0.307424 -5.62115 -1.63255 0.17253 -0.260074 0.180846 4.28435 8.68124 2.53904 0.30742 -5.62111 -1.63255 0.17251 -0.259851 0.180821 
26.982 1 246 4.35229 6.65224 4.64506 -0.508389 1.17126 0.340544 -0.195285 -0.20474 -0.195665 -0.0609127 -0.137348 -1.80797 -0.00957135 -0.0292848 -0.345586 -5.60842e-05 -6.11138e-05 -0.000149869 4.35193 6.65339 4.64535 -0.543316 1.13464 0.305545 -0.195342 -0.204799 -0.195745 4.35193 6.65339 4.64535 -0.543295 1.13466 0.305573 -0.19523 -0.204681 -0.195587 
26.982 1 289 6.54056 8.75456 4.35556 0.809319 -5.43211 -2.23684 0.00752137 -0.822885 0.255316 0.116585 0.0283712 -1.85054 0.0176923 0.000166804 -0.324869 7.67266e-07 -0.000135951 -1.63426e-05 6.54149 8.7491 4.35327 0.810664 -5.57926 -2.19118 0.00752384 -0.82302 0.255394 6.54149 8.7491 4.35327 0.810663 -5.57921 -2.19121 0.00751896 -0.82275 0.255237 
26.982 1 52 6.70239 6.55319 2.76546 3.40869 2.88281 -2.68464 -0.203062 -0.0123907 -0.45535 0.0497874 0.223844 -12.2265 0.0169429 -0.0720721 -2.22479 6.21666e-05 -0.000230406 -0.00066959 6.70592 6.55605 2.76272 3.37236 2.88059 -2.76606 -0.203155 -0.0123961 -0.455421 6.70592 6.55605 2.76272 3.3724 2.8806 -2.76604 -0.20297 -0.0123857 -0.455281 
26.982 1 92 6.53584 10.6066 2.48189 0.0513807 -3.38954 -2.15635 -0.267191 0.495415 0.191821 1.45498 -0.385389 -12.9639 0.148088 -0.00510419 -2.18959 -0.000212092 0.000347285 -0.00061646 6.53601 10.6032 2.47968 0.00359658 -3.30094 -2.12204 -0.267254 0.495526 0.19186 6.53601 10.6032 2.47968 0.00361923 -3.30098 -2.12206 -0.267127 0.495303 0.191782 
26.982 1 46 4.25216 6.69014 0.74208 1.29471 -3.97157 -1.16015 -0.09676 0.121826 0.494248 -0.61951 -0.160897 -19.8809 -0.0714786 -0.0953044 -2.97674 -4.04839e-05 -1.50971e-05 -0.000968419 4.2536 6.68613 0.740859 1.2774 -3.94978 -1.07176 -0.0967891 0.121851 0.494378 4.2536 6.68613 0.740859 1.27741 -3.94979 -1.0718 -0.0967319 0.1218 0.494118 
26.982 1 91 9.01499 8.36309 2.64191 -0.669332 -2.09074 2.65395 -0.137065 -0.259042 -0.376552 1.40988 1.23355 -14.832 0.210272 0.059952 -2.48994 0.00015736 -0.000244729 -0.000714919 9.01442 8.36097 2.64451 -0.693845 -2.13706 2.58661 -0.137103 -0.259101 -0.376622 9.01442 8.36097 2.64451 -0.693832 -2.13704 2.58664 -0.137028 -0.258984 -0.376482 
26.982 1 250 8.82048 6.76832 4.78833 -0.136403 0.603339 0.62014 0.0626172 0.0272183 -0.281153 0.101726 0.0722996 -1.75787 0.0181993 -0.00103196 -0.347788 4.11443e-05 -2.32934e-05 -0.000139922 8.82044 6.7689 4.7889 -0.125201 0.608204 0.569867 0.0626495 0.0272125 -0.281177 8.82044 6.7689 4.7889 -0.125213 0.608206 0.569875 0.0625851 0.0272241 -0.28113 
26.982 1 290 8.83657 10.4477 4.37554 2.4015 -3.57043 -0.172832 0.0569857 0.0451623 0.0971227 0.193058 0.0468931 -2.31297 0.0308064 0.00229727 -0.382689 4.63041e-05 3.63255e-05 -8.2333e-05 8.83907 10.4441 4.37532 2.41169 -3.56235 -0.155459 0.0570104 0.0451845 0.097167 8.83907 10.4441 4.37532 2.41168 -3.56236 -0.155474 0.0569625 0.04514 0.0970788 
26.982 1 293 11.1736 8.46379 4.62198 1.90943 -2.94169 1.22246 -0.259347 0.339456 -0.403823 0.0492343 0.196919 -2.46722 0.014237 0.0208079 -0.416286 -7.37951e-05 6.4163e-05 -0.00022257 11.1756 8.46082 4.62316 1.86304 -2.88098 1.15024 -0.259433 0.339519 -0.403876 11.1756 8.46082 4.62316 1.86307 -2.881 1.15026 -0.259261 0.339394 -0.403771 
26.982 1 89 6.6044 8.41181 0.763588 -4.04558 -7.76524 1.8782 -0.0440238 0.493957 -0.0399858 0.684043 0.932391 -17.6703 0.168613 -0.0152923 -3.28446 6.40723e-05 -6.15143e-05 -0.00104952 6.60047 8.40401 0.765408 -4.05346 -7.67691 1.87105 -0.0440547 0.494046 -0.0400221 6.60047 8.40401 0.765408 -4.05345 -7.67694 1.87106 -0.0439929 0.493869 -0.0399503 
26.982 1 2813 11.0837 20.2295 16.3668 3.99988 -1.41226 -0.548462 0.155186 -0.155405 0.000832017 -2.96413 -5.6505 -10.4948 -0.629924 -0.926178 -1.83561 -0.000133955 0.000419392 -0.000238539 11.0878 20.2281 16.3662 4.02764 -1.44005 -0.548303 0.155265 -0.15541 0.000884991 11.0878 20.2281 16.3662 4.02761 -1.44005 -0.548322 0.155107 -0.1554 0.000778929 
26.982 1 56 11.3246 6.33242 2.74082 2.21006 3.00427 -1.14977 0.0287052 0.818468 -0.239874 0.796042 1.58849 -14.1812 0.0637681 0.194708 -2.4501 -0.000181946 0.000128942 -0.000807017 11.3269 6.3354 2.73962 2.21518 3.15064 -1.19266 0.0286494 0.818617 -0.239893 11.3269 6.3354 2.73962 2.2152 3.15058 -1.19265 0.0287618 0.818318 -0.239856 
26.982 1 95 13.3368 8.38279 2.70893 1.72892 -0.216929 1.62538 0.437273 0.0506453 -0.0886076 -0.482345 1.16953 -16.4863 0.0225546 0.146997 -2.77071 2.98971e-05 0.000222826 -0.000820773 13.3386 8.38255 2.7105 1.80712 -0.207874 1.60954 0.437391 0.0506459 -0.0886141 13.3386 8.38255 2.7105 1.80708 -0.207874 1.60954 0.437155 0.0506446 -0.0886005 
26.982 1 254 13.3919 6.54888 4.77091 0.971271 0.342081 1.37235 0.429249 -0.426196 -0.462836 0.0252089 -0.0180712 -2.2186 0.00455752 -0.00174052 -0.398069 0.000115116 -5.94736e-05 -0.000208181 13.3929 6.5492 4.77224 1.04804 0.265865 1.28957 0.429377 -0.426274 -0.462959 13.3929 6.5492 4.77224 1.048 0.265893 1.28962 0.429121 -0.426118 -0.462714 
26.982 1 54 13.4556 6.30103 0.673476 1.13341 3.08031 -0.370372 0.305064 0.47522 0.807477 -1.27205 2.5563 -16.4515 -0.12972 0.433747 -2.73568 -0.000203452 0.000291429 -0.00101025 13.4568 6.30408 0.673048 1.18798 3.1653 -0.225974 0.305196 0.475348 0.807608 13.4568 6.30408 0.673048 1.18793 3.16525 -0.226021 0.304932 0.475091 0.807347 
26.982 1 100 15.6291 10.3454 2.64476 4.32395 -3.27043 4.15353 -0.210271 -0.393122 0.223776 0.0173149 0.915384 -17.3683 0.0588627 0.0128593 -2.92928 -2.64868e-05 -0.000373171 -0.000798968 15.6335 10.3421 2.64887 4.28635 -3.34073 4.19355 -0.210323 -0.393227 0.223806 15.6335 10.3421 2.64887 4.28637 -3.3407 4.19354 -0.210218 -0.393017 0.223747 
26.982 1 60 15.7236 6.49061 2.53761 -0.927941 5.99936 -0.00362242 -0.0114388 -0.0440253 0.47456 -0.411072 0.695431 -14.3339 -0.000874664 0.107354 -2.60795 0.000205303 0.000243053 -0.000574738 15.7227 6.49658 2.53756 -0.929988 5.99149 0.0812402 -0.0114481 -0.044027 0.474631 15.7227 6.49658 2.53756 -0.929985 5.99149 0.0812147 -0.0114316 -0.0440251 0.474489 
26.982 1 297 15.6186 8.416 4.60286 0.83091 1.07607 -2.92489 0.0584996 -0.0385287 0.209187 -0.0208931 0.188121 -2.47315 0.00306597 0.0291809 -0.458419 -2.14255e-06 -1.82301e-05 -0.00013601 15.6195 8.41705 4.59988 0.841368 1.06918 -2.88749 0.0584907 -0.0385588 0.209211 15.6195 8.41705 4.59988 0.841371 1.06919 -2.8875 0.0585078 -0.0384991 0.209164 
26.982 1 99 18.0606 8.49282 2.74512 -0.432084 -2.46044 1.97432 -0.608461 -0.759304 -0.57823 -0.679554 1.38798 -14.9377 -0.115545 0.200638 -2.73209 -0.000282122 -0.000165652 -0.00090226 18.0602 8.49034 2.74704 -0.540896 -2.59623 1.87091 -0.608585 -0.759453 -0.578378 18.0602 8.49034 2.74704 -0.540852 -2.59618 1.87096 -0.608336 -0.759154 -0.578081 