ITEM: TIMESTEP
19000
ITEM: NUMBER OF ATOMS
4000
ITEM: BOX BOUNDS pp pp pp
-3.93579 44.4358
1.28723 39.2128
1.38943 39.1106
ITEM: ATOMS mass type id x y z vx vy vz fx fy fz xrad yrad zrad vxrad vyrad vzrad fxrad fyrad fzrad xub yub zub vxub vyub vzub fxub fyub fzub xlb ylb zlb vxlb vylb vzlb fxlb fylb fzlb 
26.982 1 202 -0.348243 3.952 5.47284 -1.73348 -3.737 -4.6221 0.0956236 0.573595 -0.00255184 -20.9725 -20.6491 -21.9053 -1.7604 -1.79279 -2.0596 -0.000120127 -0.00013729 -6.56207e-05 -0.349803 3.94806 5.46831 -1.71639 -3.63444 -4.62257 0.0956144 0.573649 -0.00260448 -0.349803 3.94806 5.46831 -1.71638 -3.63446 -4.62255 0.0956315 0.573541 -0.00249849 
26.982 1 2 -1.08604 3.44806 2.19973 -1.28757 7.04115 -0.531406 0.0859128 0.342885 -0.100445 -14.9994 -22.5467 -40.1243 -1.47409 -2.00347 -3.89093 -0.000248498 -0.0003105 -0.000803426 -1.08716 3.4549 2.19932 -1.27221 7.10249 -0.549369 0.0859387 0.343056 -0.100471 -1.08716 3.4549 2.19932 -1.27222 7.10242 -0.549361 0.0858852 0.342713 -0.100422 
26.982 1 4 -3.41453 3.09257 4.45168 4.43064 -0.157921 -1.82133 0.932264 0.460055 -0.844373 -23.3526 -26.33 -31.0158 -2.0247 -2.42609 -2.8592 -0.00035319 -0.000155487 -0.000726456 -3.40989 3.0922 4.44996 4.59735 -0.0756316 -1.97232 0.932468 0.46025 -0.844504 -3.40989 3.0922 4.44996 4.59728 -0.075701 -1.97228 0.93206 0.459861 -0.844245 
26.982 1 241 -2.45358 6.04076 5.61943 4.96697 -0.18827 -1.13427 -0.413821 -0.271541 0.504004 -15.8755 -16.2954 -20.416 -1.39257 -1.17998 -1.81293 -0.000939087 -3.49436e-05 0.000148574 -2.44842 6.0404 5.61839 4.89295 -0.236831 -1.04414 -0.414012 -0.271606 0.504107 -2.44842 6.0404 5.61839 4.89302 -0.236808 -1.04418 -0.413635 -0.271478 0.503902 
26.982 1 41 -3.15425 5.20611 2.2334 1.84844 -0.0848605 -0.598672 -0.280944 -0.0754806 0.168822 -12.3654 -12.9888 -30.4473 -1.06203 -0.923191 -3.2871 -0.000424289 -0.00025118 -0.000619124 -3.1522 5.20584 2.23292 1.79822 -0.098357 -0.568486 -0.280903 -0.0754865 0.168838 -3.1522 5.20584 2.23292 1.79821 -0.0983553 -0.568492 -0.280988 -0.0754772 0.168805 
26.982 1 5 0.955858 1.77216 2.2742 0.829348 1.27022 -0.180567 0.0449357 0.246745 -0.0776269 1.58829 -17.4987 -27.721 0.267243 -1.94162 -2.85095 0.00029688 -0.000671327 -0.000669576 0.956848 1.77321 2.27414 0.837414 1.31436 -0.194447 0.0451156 0.246909 -0.0776371 0.956848 1.77321 2.27414 0.837349 1.3143 -0.194444 0.0447541 0.246581 -0.0776169 
26.982 1 205 1.71059 2.0518 5.21644 -1.52016 3.41599 -5.23133 0.200587 0.650496 0.294528 0.807958 -27.6301 -24.7799 0.162597 -2.86625 -2.42838 0.000315963 -0.000648614 -0.000280195 1.70922 2.055 5.2113 -1.48427 3.53231 -5.17867 0.200726 0.650608 0.294513 1.70922 2.055 5.2113 -1.48432 3.53227 -5.17867 0.200448 0.650384 0.294541 
26.982 1 245 2.74292 4.68258 5.99309 3.03985 -0.0135711 -4.44293 -0.336218 -0.0424751 0.138797 -2.25875 -4.68103 -7.42257 -0.217871 -0.40058 -0.761128 -5.80638e-05 -0.000219674 -1.60205e-07 2.74611 4.68238 5.98874 2.97972 -0.0211862 -4.41812 -0.336289 -0.0425915 0.138792 2.74611 4.68238 5.98874 2.97975 -0.0211442 -4.41811 -0.336147 -0.042357 0.138807 
26.982 1 8 2.10327 4.24768 3.41899 -6.567 0.510261 1.77059 -0.390971 -0.90272 -0.339084 3.66504 -32.3965 -37.4687 0.180459 -2.61493 -3.76517 -3.5803e-05 -0.000404272 -0.000482564 2.09686 4.248 3.42087 -6.63691 0.348816 1.70991 -0.391017 -0.902975 -0.339347 2.09686 4.248 3.42087 -6.6369 0.348906 1.71001 -0.390926 -0.90247 -0.338825 
26.982 1 47 4.63265 5.13716 3.99922 0.861136 -5.92023 -3.49297 0.346661 -0.0539036 0.00525889 -1.37426 -9.0579 -37.0045 -0.0418743 -0.705945 -3.57343 0.00018882 -0.000168568 -0.000276083 4.63364 5.13105 3.99583 0.923133 -5.92989 -3.49204 0.346759 -0.0540071 0.00516952 4.63364 5.13105 3.99583 0.923099 -5.92985 -3.49201 0.346565 -0.0538 0.00534805 
26.982 1 206 5.04837 2.48648 4.73586 -3.7685 -0.704653 0.963943 0.000870146 0.191158 0.435338 -0.201239 -30.9034 -19.7992 0.117574 -3.07053 -1.89089 -2.09408e-05 -0.000789995 -0.000234927 5.04472 2.48556 4.73693 -3.76835 -0.670476 1.04178 0.000787353 0.191156 0.435374 5.04472 2.48556 4.73693 -3.76832 -0.670475 1.04177 0.000952303 0.191159 0.435303 
26.982 1 6 4.57305 3.38448 1.96053 -1.35221 0.663019 2.22642 0.0176173 -0.3984 0.335266 -3.6971 -23.5693 -32.8258 -0.21653 -2.24459 -3.24079 0.000117281 -0.000604949 -0.000800084 4.57183 3.38494 1.96288 -1.34908 0.591757 2.28637 0.0174567 -0.398571 0.335333 4.57183 3.38494 1.96288 -1.34903 0.591818 2.28635 0.0177776 -0.39823 0.3352 
26.982 1 249 7.2285 4.46149 5.29437 2.39996 -2.34352 3.27662 -0.225407 -0.315541 -0.219015 -0.208288 -4.82588 -6.20628 -0.0115809 -0.49663 -0.631997 -0.000164487 -0.00026898 -0.000264093 7.23101 4.45895 5.29775 2.35963 -2.39996 3.23744 -0.2256 -0.315675 -0.219112 7.23101 4.45895 5.29775 2.3597 -2.39992 3.23748 -0.225212 -0.315407 -0.218919 
26.982 1 12 7.64921 2.32452 3.164 8.94131 -0.121728 -5.78523 -1.00877 0.604623 0.173551 -4.43393 -38.7175 -33.6949 -0.141459 -3.60697 -3.37975 -9.28706e-05 -0.000660379 -0.000647299 7.65827 2.32418 3.15832 8.76087 -0.0135981 -5.7542 -1.0092 0.604777 0.17357 7.65827 2.32418 3.15832 8.76103 -0.0136534 -5.75421 -1.00833 0.604468 0.173531 
26.982 1 51 9.35103 4.55505 3.25417 2.50208 4.08695 8.93067 -0.616402 0.440117 0.0267618 0.0305776 -5.57633 -33.4054 -0.0902516 -0.751934 -3.7815 -0.000123019 -5.42697e-05 -0.00105955 9.35363 4.55895 3.26322 2.39185 4.16565 8.93545 -0.616524 0.440211 0.0267465 9.35363 4.55895 3.26322 2.39189 4.16562 8.93546 -0.616277 0.440025 0.0267787 
26.982 1 52 7.0668 6.51569 3.4127 -2.88657 0.0200364 -2.45271 -0.0260226 -0.628565 -0.58161 0.0883386 -1.0258 -34.229 -0.0691168 -0.277442 -3.7586 0.000118948 -0.000149717 -0.000899749 7.06402 6.51554 3.41035 -2.89124 -0.0923809 -2.55671 -0.0260808 -0.628759 -0.581696 7.06402 6.51554 3.41035 -2.89122 -0.0923116 -2.55668 -0.0259624 -0.628371 -0.581525 
26.982 1 210 9.4778 2.61244 5.36538 -2.59886 -0.538145 2.32512 -0.191967 0.166171 -0.317348 1.51332 -30.2569 -17.595 0.0726562 -3.01381 -1.80436 -0.000108281 -0.000655234 -0.000416874 9.47529 2.61169 5.3678 -2.6332 -0.508435 2.26839 -0.192061 0.166171 -0.317336 9.47529 2.61169 5.3678 -2.63316 -0.508435 2.26838 -0.191869 0.166171 -0.317358 
26.982 1 253 11.2688 4.94394 5.26412 -1.14265 -0.934255 0.149404 0.653795 -0.555952 0.022057 0.107327 -5.43827 -6.50193 -0.0355897 -0.566978 -0.724613 0.000220798 -0.000173136 -0.000197524 11.2677 4.94282 5.26437 -1.02572 -1.03367 0.153345 0.654013 -0.556028 0.0220438 11.2677 4.94282 5.26437 -1.0258 -1.03364 0.15335 0.653578 -0.555875 0.0220706 
26.982 1 16 11.2896 2.77026 3.26553 -1.51398 -4.6542 1.19603 0.874734 0.329454 -0.380076 3.24906 -39.6626 -32.3913 -0.0346942 -3.87702 -3.2955 0.000200939 -0.000733929 -0.00084735 11.2882 2.76539 3.26684 -1.35754 -4.59528 1.12806 0.874983 0.329586 -0.380153 11.2882 2.76539 3.26684 -1.35763 -4.59532 1.12809 0.874484 0.329321 -0.379998 
26.982 1 214 13.3557 2.95037 5.22447 0.979214 -0.603176 -1.26636 0.394911 -0.0617151 -0.166693 0.843313 -32.6583 -18.105 -0.0188995 -3.22555 -1.76794 0.00010747 -0.000621259 -0.00046603 13.3567 2.94956 5.2233 1.04984 -0.614208 -1.29617 0.395028 -0.0616976 -0.166726 13.3567 2.94956 5.2233 1.0498 -0.614214 -1.29616 0.394792 -0.0617329 -0.166662 
26.982 1 55 13.3988 4.92514 3.06831 -5.52408 -0.00339594 1.45989 -0.19497 -0.238539 -0.0970025 0.504684 -7.6997 -36.8096 0.00937188 -0.505515 -3.58094 -4.58303e-05 -0.00019318 -0.00101885 13.3933 4.92495 3.06988 -5.55895 -0.0460513 1.44253 -0.195031 -0.238575 -0.0970526 13.3933 4.92495 3.06988 -5.55893 -0.0460389 1.44255 -0.19491 -0.238505 -0.0969523 
26.982 1 20 15.7973 3.00695 3.36994 1.83187 1.93979 -1.87085 -0.387902 -0.717365 -0.294396 -4.86219 -38.5471 -31.7935 -0.148217 -3.58444 -3.12311 -0.00012441 -0.000794768 -0.000821793 15.7992 3.00868 3.36818 1.76249 1.81151 -1.92348 -0.388015 -0.717479 -0.29438 15.7992 3.00868 3.36818 1.76253 1.81155 -1.92349 -0.387787 -0.717252 -0.294412 
26.982 1 257 15.5645 4.90608 5.17239 -2.61093 -2.28047 -0.601846 -0.163629 -0.0757106 0.24368 -0.215673 -5.34299 -6.49778 -0.0358797 -0.469861 -0.675302 -6.0918e-05 -0.000139752 -0.000146695 15.5619 4.90361 5.17188 -2.6402 -2.29402 -0.558265 -0.163694 -0.0757357 0.243757 15.5619 4.90361 5.17188 -2.64018 -2.29401 -0.558292 -0.163563 -0.0756856 0.243603 
26.982 1 218 17.6834 2.819 5.46971 -5.40051 -3.17836 7.50899 -0.294427 0.320438 -0.814689 -1.51326 -31.0524 -16.0114 -0.085673 -2.94764 -1.67344 -5.00377e-05 -0.000537949 -0.000535659 17.678 2.81561 5.47733 -5.45316 -3.12105 7.36331 -0.29448 0.32052 -0.814811 17.678 2.81561 5.47733 -5.45314 -3.12108 7.36336 -0.294373 0.320355 -0.814566 
26.982 1 59 17.7746 4.84759 3.12715 -2.77586 3.17568 2.46189 -0.172006 0.574704 0.3231 1.53898 -3.51244 -35.3129 0.201844 -0.410567 -3.7837 -6.74547e-05 -6.39465e-05 -0.0009729 17.7719 4.85058 3.12973 -2.80661 3.27845 2.51968 -0.171982 0.574798 0.323197 17.7719 4.85058 3.12973 -2.80662 3.27841 2.51964 -0.17203 0.574611 0.323004 
26.982 1 24 19.6549 3.07741 3.18671 -3.40246 7.32356 -0.391843 0.426486 -0.452325 0.350203 2.01978 -32.8926 -31.9829 0.0868307 -3.09919 -3.54186 0.000140569 -0.00077249 -0.000728344 19.6515 3.08454 3.18643 -3.32619 7.24268 -0.329217 0.42661 -0.452374 0.350274 19.6515 3.08454 3.18643 -3.32623 7.2427 -0.329243 0.426361 -0.452277 0.350131 
26.982 1 261 19.8272 5.05462 5.33026 5.03115 2.25975 -0.155077 0.130724 -0.0043508 -0.0939982 0.260095 -4.69913 -7.2126 0.0269836 -0.446958 -0.779922 3.14607e-05 -9.86323e-05 -0.000127384 19.8322 5.0567 5.3302 5.05453 2.25898 -0.171876 0.130761 -0.00434887 -0.0939631 19.8322 5.0567 5.3302 5.05452 2.25898 -0.171889 0.130687 -0.00435283 -0.0940333 
26.982 1 63 21.8944 4.92652 3.06754 1.37968 0.620121 4.37841 -0.112532 -0.137684 0.0224853 1.15753 -3.3377 -41.4347 0.0401482 -0.422072 -4.39829 -0.000110016 -0.000124526 -0.000970536 21.8957 4.92695 3.07203 1.35955 0.595503 4.38243 -0.112584 -0.137695 0.0224879 21.8957 4.92695 3.07203 1.35957 0.595506 4.38243 -0.112479 -0.137674 0.0224818 
26.982 1 222 22.1824 3.32418 5.33812 0.913362 -2.03454 -1.35786 -0.20077 0.251611 0.00147678 -0.394669 -28.8789 -16.8528 -0.00153851 -2.67895 -1.63325 -0.00014909 -0.00030085 -0.000393414 22.1833 3.32195 5.33686 0.877462 -1.98953 -1.3576 -0.20079 0.251709 0.00146524 22.1833 3.32195 5.33686 0.877469 -1.98957 -1.3576 -0.200751 0.251512 0.00148846 
26.982 1 2615 13.5738 19.8137 14.3654 -6.60488 2.84549 1.84413 0.283651 0.495925 -0.309126 -13.3816 -5.63845 -31.7156 -1.07192 -1.10188 -2.98955 -0.000402723 0.000676296 -0.000435144 13.5673 19.8166 14.3673 -6.55416 2.93419 1.78883 0.283685 0.496094 -0.309312 13.5673 19.8166 14.3673 -6.55417 2.93413 1.7889 0.283619 0.495757 -0.308936 
26.982 1 28 24.091 3.20765 3.05227 3.6022 -0.785827 -1.5785 0.58418 -0.282805 -0.0190286 -1.43179 -28.953 -36.0138 -0.072813 -2.94431 -3.74784 4.34561e-06 -0.000562795 -0.000997214 24.0945 3.20665 3.0508 3.70667 -0.836414 -1.5819 0.58432 -0.282936 -0.0189861 24.0945 3.20665 3.0508 3.70662 -0.836367 -1.58191 0.584041 -0.282673 -0.0190725 
26.982 1 265 24.5098 4.92806 5.09552 -0.800665 1.06522 1.6532 -0.160859 -0.177857 0.0537447 0.0295124 -4.43238 -8.06747 -0.0100736 -0.478549 -0.867134 -4.88303e-05 -6.76115e-05 -0.000136565 24.509 4.92894 5.09728 -0.829432 1.03342 1.66282 -0.1609 -0.177858 0.05379 24.509 4.92894 5.09728 -0.829418 1.03342 1.6628 -0.160819 -0.177856 0.0536988 
26.982 1 67 26.5371 5.08753 2.73587 0.409773 -9.62484 -2.61757 -0.41937 -0.149373 0.0436624 1.69652 -1.84004 -46.4801 0.060213 -0.309941 -4.65225 -0.000198281 -0.000206583 -0.00105014 26.5374 5.07771 2.73337 0.33478 -9.65155 -2.60976 -0.419444 -0.149433 0.0436865 26.5374 5.07771 2.73337 0.334807 -9.65153 -2.60977 -0.419296 -0.149313 0.0436375 
26.982 1 225 24.2797 1.54359 5.23184 6.1863 -5.15386 -3.44245 0.310792 -0.0298344 0.00663646 -0.330695 -25.4173 -21.6182 0.0730173 -2.21253 -2.03256 0.000140874 -0.000607544 -0.000684547 24.2859 1.53821 5.22849 6.24189 -5.1592 -3.44128 0.310891 -0.0298447 0.00657547 24.2859 1.53821 5.22849 6.24185 -5.15919 -3.44126 0.310693 -0.0298241 0.00669654 
26.982 1 226 26.8619 3.03342 4.64236 6.26296 -0.738786 -2.66779 -0.237509 -0.327538 -0.621288 0.0551836 -26.2527 -14.914 0.0083411 -2.81083 -1.67503 1.3525e-05 -0.000734727 -0.000576482 26.8681 3.03247 4.63979 6.22047 -0.797365 -2.77889 -0.237633 -0.327633 -0.621418 26.8681 3.03247 4.63979 6.22052 -0.797331 -2.77885 -0.237385 -0.327443 -0.621161 
26.982 1 32 30.4329 5.52395 2.24633 0.443714 0.986164 -4.05236 0.167341 -0.167388 0.79103 0.432405 -25.8473 -38.9607 -0.00577789 -2.43338 -4.07636 -0.000122359 -4.14222e-05 -0.00102893 30.4332 5.52476 2.2424 0.473632 0.956225 -3.9109 0.167339 -0.167455 0.791202 30.4332 5.52476 2.2424 0.473633 0.956248 -3.91096 0.167343 -0.167321 0.79086 
26.982 1 269 28.6668 5.20359 4.50319 0.578881 3.87961 0.473744 0.287515 0.167053 0.108193 -0.215965 -4.12334 -8.76958 -0.0197425 -0.490478 -0.901801 -3.40684e-06 -5.74941e-05 -0.000142966 28.6673 5.20729 4.50377 0.63029 3.90949 0.493099 0.287536 0.167086 0.108255 28.6673 5.20729 4.50377 0.630283 3.90947 0.493077 0.287496 0.16702 0.108131 
26.982 1 27 28.8283 3.18501 2.40652 6.44881 -0.571436 -5.86158 -0.516944 -0.108428 0.468991 -1.30975 -36.7625 -31.9008 -0.247471 -3.0494 -3.36444 -0.000332789 -0.000514964 -0.000737618 28.8346 3.18423 2.40077 6.35637 -0.590837 -5.77771 -0.517046 -0.108516 0.46909 28.8346 3.18423 2.40077 6.35641 -0.590806 -5.77775 -0.516841 -0.108339 0.468891 
26.982 1 230 30.9328 3.28738 4.49605 5.88299 -0.110877 -1.81032 -0.411739 -0.0783271 -0.955242 -1.5898 -26.4 -15.7636 -0.156105 -2.69867 -1.61028 -0.000300987 -0.000444089 -0.000358364 30.9386 3.28707 4.49434 5.80936 -0.124899 -1.98114 -0.411828 -0.0784262 -0.955428 30.9386 3.28707 4.49434 5.80939 -0.124864 -1.98107 -0.411649 -0.0782274 -0.955058 
26.982 1 273 32.4814 5.58452 4.21167 -2.95978 -1.6369 -3.25687 0.260487 -0.0371249 -0.416833 -0.118468 -3.59554 -7.03205 -0.0177025 -0.390324 -0.705872 -1.79598e-05 -2.46826e-05 -0.000307672 32.4784 5.5827 4.20852 -2.91321 -1.64354 -3.33142 0.26049 -0.037139 -0.416943 32.4784 5.5827 4.20852 -2.91321 -1.64354 -3.33138 0.260485 -0.037109 -0.416723 
26.982 1 36 34.7171 3.71118 4.16537 0.227509 -1.79275 -4.14115 0.435831 -0.398076 -0.525139 -2.95413 -28.9902 -36.4473 -0.353123 -2.79358 -3.28946 0.000115343 -0.000224566 -0.000318039 34.7172 3.70918 4.16133 0.305452 -1.86394 -4.23507 0.435944 -0.398184 -0.525261 34.7172 3.70918 4.16133 0.305412 -1.8639 -4.23502 0.435717 -0.397968 -0.525018 
26.982 1 30 32.6312 3.63915 2.28682 3.31467 2.98429 0.563851 0.23727 -0.282745 -0.17321 -1.05208 -20.368 -38.264 -0.152971 -2.0597 -3.52481 3.34358e-06 -0.000154968 -0.000975889 32.6344 3.64194 2.2875 3.3571 2.93371 0.532883 0.237337 -0.282881 -0.173214 32.6344 3.64194 2.2875 3.35708 2.93376 0.532884 0.237204 -0.282607 -0.173208 
26.982 1 73 34.6533 5.78218 2.04404 -1.60164 5.50182 2.8588 -0.370595 -0.109727 0.0740358 2.65272 -4.01237 -38.1884 0.0492994 -0.344228 -3.66291 -0.000131716 -0.000110916 -0.00105987 34.6516 5.78751 2.04702 -1.6679 5.4822 2.87205 -0.370643 -0.109743 0.0740831 34.6516 5.78751 2.04702 -1.66789 5.4822 2.87203 -0.370547 -0.109711 0.073989 
26.982 1 33 34.8976 1.78268 1.98983 -2.53869 1.67119 -1.53525 -0.117967 -0.289547 0.304664 -0.559543 -18.4254 -34.3054 -0.142284 -1.79636 -3.40338 1.55088e-05 -0.00068828 -0.00077572 34.8949 1.78413 1.98842 -2.5598 1.61941 -1.48077 -0.118036 -0.289645 0.304725 34.8949 1.78413 1.98842 -2.55977 1.61944 -1.48079 -0.117898 -0.289447 0.304602 
26.982 1 236 32.9051 3.40587 6.14692 -3.27821 3.0044 -2.48668 0.119741 -0.195878 0.35471 -3.52142 -39.8772 0.831065 -0.216597 -3.86598 0.0357119 -0.000162666 -0.000695676 0.00025825 32.9017 3.40868 6.14452 -3.2568 2.96936 -2.42326 0.119737 -0.195979 0.354752 32.9017 3.40868 6.14452 -3.2568 2.9694 -2.42327 0.119746 -0.195774 0.354669 
26.982 1 2837 38.9186 20.1873 15.7252 -2.80481 -0.361845 5.63226 -0.289591 -0.478455 0.28755 -9.10547 -15.4616 -27.7656 -0.877249 -0.810319 -2.49636 4.55599e-05 0.000174626 -0.000432439 38.9157 20.187 15.7308 -2.8566 -0.447408 5.68369 -0.289653 -0.478565 0.287634 38.9157 20.187 15.7308 -2.85658 -0.447369 5.68366 -0.28953 -0.478346 0.287465 
26.982 1 34 36.7472 3.92571 1.90109 1.35773 -0.259462 -7.47093 0.0633915 -0.196306 0.308447 0.881851 -18.6045 -41.9537 -0.130065 -1.92054 -4.19424 -5.97969e-05 -0.000199481 -0.00101203 36.7484 3.92526 1.89373 1.36906 -0.294575 -7.41576 0.0633755 -0.19639 0.308546 36.7484 3.92526 1.89373 1.36907 -0.294544 -7.4158 0.0634083 -0.19622 0.308349 
26.982 1 35 37.0706 1.80862 4.03037 -2.07343 -2.49943 -6.63961 -0.20603 0.220014 0.112581 1.34675 -44.1778 -36.1659 0.0382683 -3.86248 -3.36843 4.78397e-05 -0.000750665 -0.000439289 37.0684 1.8059 4.02383 -2.11029 -2.46008 -6.61948 -0.206111 0.220077 0.1126 37.0684 1.8059 4.02383 -2.11026 -2.46011 -6.61949 -0.205949 0.219952 0.112561 
26.982 1 77 38.6571 6.17645 1.82329 -6.23725 -2.21924 -0.251204 0.00083455 -0.11583 -0.00673826 0.957937 -2.02821 -28.401 0.140708 -0.148099 -3.61145 0.000136426 0.000203044 -0.00107797 38.6507 6.17406 1.82316 -6.2371 -2.23994 -0.252398 0.000848652 -0.115809 -0.00667361 38.6507 6.17406 1.82316 -6.23711 -2.23995 -0.25242 0.000819577 -0.115851 -0.00680119 
26.982 1 75 36.6568 5.89137 3.88354 3.86456 -0.879696 1.73051 0.0506873 0.142663 0.627421 1.94266 -2.50246 -40.1795 0.00279382 -0.217721 -3.4733 9.67051e-05 0.00011229 -6.16934e-05 36.6606 5.89031 3.88538 3.87363 -0.854169 1.84272 0.0507725 0.142778 0.627572 36.6606 5.89031 3.88538 3.8736 -0.85421 1.84266 0.0506015 0.142547 0.627268 
26.982 1 234 36.9065 3.90739 5.93249 -0.154338 -4.01956 1.01331 -0.101002 -0.109477 0.0517842 -0.0510161 -22.3503 -12.9778 -0.0935847 -2.16693 -1.15722 2.35814e-05 -0.000190238 -2.78443e-05 36.9062 3.90317 5.9336 -0.172392 -4.03913 1.02256 -0.100979 -0.109496 0.0517618 36.9062 3.90317 5.9336 -0.172401 -4.03913 1.02257 -0.101025 -0.109459 0.0518065 
26.982 1 40 38.8576 4.1633 3.71105 -3.53686 8.4155 -3.36489 -0.0360483 0.424891 0.952759 6.1936 -29.3173 -40.2092 0.328846 -2.67919 -3.34646 1.20188e-05 -6.51503e-05 -1.8672e-05 38.8539 4.17152 3.7078 -3.54331 8.49148 -3.19451 -0.0360544 0.424963 0.952997 38.8539 4.17152 3.7078 -3.54331 8.49145 -3.19459 -0.0360428 0.424819 0.952521 
26.982 1 237 39.0554 2.12615 6.0805 -3.89165 -0.98183 -0.585981 0.174964 -0.11622 0.0834573 3.33059 -32.1975 -25.8808 0.284111 -3.33275 -2.22246 0.000228229 -0.00101436 -4.55823e-05 39.0514 2.12495 6.08001 -3.86036 -1.00262 -0.571056 0.175011 -0.116274 0.0834779 39.0514 2.12495 6.08001 -3.86038 -1.0026 -0.571063 0.174916 -0.116166 0.0834364 
26.982 1 37 39.0412 2.26005 1.98178 0.141849 2.08561 -2.96086 0.119767 -0.761808 -0.495924 0.467537 -22.634 -32.5906 0.0483014 -2.29251 -3.33187 7.18164e-05 -0.000884913 -0.000834593 39.0412 2.26191 1.97894 0.163268 1.94937 -3.04954 0.1198 -0.761993 -0.495999 39.0412 2.26191 1.97894 0.163255 1.94943 -3.04951 0.119732 -0.761622 -0.495848 
26.982 1 1 43.2986 2.77554 1.91121 -4.22601 -2.60701 2.90729 0.245931 0.226302 0.349739 -10.1178 -18.2447 -41.1924 -0.58086 -2.01315 -3.98397 0.000226189 -0.000714214 -0.000764103 43.2942 2.77272 1.91424 -4.18201 -2.56654 2.96984 0.246121 0.226337 0.349824 43.2942 2.77272 1.91424 -4.18207 -2.56655 2.96981 0.245741 0.226268 0.349655 
26.982 1 79 42.7937 4.74958 3.78497 -1.76403 -8.80937 0.54792 0.188522 -0.468296 0.872187 -0.734806 -5.21873 -42.4033 0.0816644 -0.382429 -3.53216 0.000183066 -0.000119328 -4.08847e-05 42.7918 4.74058 3.78562 -1.7303 -8.8931 0.703887 0.188706 -0.468326 0.872354 42.7918 4.74058 3.78562 -1.73036 -8.89309 0.703828 0.188339 -0.468267 0.872021 
26.982 1 39 41.1256 2.51238 4.09922 -1.47713 -8.09191 -1.84543 0.206484 -0.397012 -0.334244 -4.17858 -21.1503 -36.5784 -0.164218 -2.6351 -3.2287 0.000101053 -0.000781999 -0.000404674 41.124 2.50406 4.09748 -1.4402 -8.16291 -1.9052 0.206578 -0.397136 -0.334275 41.124 2.50406 4.09748 -1.44023 -8.16287 -1.90519 0.206389 -0.396886 -0.334212 
26.982 1 38 40.8949 4.22262 1.86898 5.59465 1.15779 -1.03044 0.103398 0.742815 -0.0553806 0.254259 -17.42 -34.1258 0.0464661 -1.61131 -3.79102 4.64273e-05 -0.000100832 -0.00106976 40.9003 4.22359 1.86808 5.61315 1.29062 -1.04035 0.103468 0.742929 -0.055429 40.9003 4.22359 1.86808 5.61312 1.29058 -1.04033 0.103326 0.742703 -0.0553316 
26.982 1 43 -0.772007 5.92397 3.59429 5.93969 1.50351 5.09249 0.771162 -0.0805224 -0.356595 -22.4585 -11.018 -36.8936 -1.90556 -0.652149 -3.55599 -1.77756e-05 -0.000108519 -0.000277284 -0.76589 5.9253 3.5995 6.07758 1.48909 5.02872 0.771261 -0.0806198 -0.356693 -0.765891 5.9253 3.5995 6.07755 1.48913 5.02876 0.771063 -0.080425 -0.356497 
26.982 1 83 0.0708141 8.83141 3.94959 -3.17494 0.440497 -2.58921 -0.252199 -0.441596 0.45344 -24.6017 -9.98626 -37.9179 -1.86552 -1.02051 -3.71405 -0.000120564 -0.000106523 -0.000116469 0.0678092 8.83171 3.94711 -3.22004 0.361523 -2.50814 -0.252277 -0.441705 0.45344 0.0678092 8.83171 3.94711 -3.22002 0.361562 -2.50814 -0.252122 -0.441487 0.45344 
26.982 1 44 -2.67661 7.99282 3.81002 -0.311501 -1.47233 -6.2614 0.157042 0.503966 -0.49501 -7.73125 -21.2633 -37.1389 -1.03992 -1.59969 -3.58256 -0.000778904 7.1428e-05 -0.000400314 -2.67673 7.9912 3.80386 -0.28344 -1.3822 -6.34993 0.15695 0.504116 -0.495163 -2.67673 7.9912 3.80386 -0.283407 -1.38225 -6.34988 0.157131 0.503817 -0.49486 
26.982 1 242 0.561396 6.67329 6.02858 1.01091 1.22809 3.86945 -0.0722162 -0.178746 0.347031 -26.1354 -1.74932 -16.2927 -2.14105 -0.179557 -1.4126 -3.69357e-05 3.54013e-06 2.17141e-05 0.562566 6.67436 6.03254 0.997999 1.19613 3.9315 -0.0722226 -0.178742 0.347052 0.562566 6.67436 6.03254 0.998001 1.19613 3.9315 -0.072208 -0.178748 0.347012 
26.982 1 281 -1.26766 8.59928 6.38564 4.60555 -8.73503 -0.759597 -0.0941255 0.387454 0.351126 -17.5749 -16.7241 -21.6432 -1.79496 -1.38447 -1.87377 -0.00033256 1.23398e-05 -3.80875e-06 -1.26287 8.59039 6.38498 4.5887 -8.66575 -0.696816 -0.0942347 0.387479 0.351149 -1.26287 8.59039 6.38498 4.58874 -8.66576 -0.696824 -0.0940158 0.387431 0.351103 
26.982 1 48 2.26923 6.81603 4.04009 6.22187 7.14567 -1.22938 0.316043 0.735988 -0.434727 -6.68872 -1.75504 -36.4224 -0.55173 -0.0515369 -3.62181 1.77107e-05 0.000140233 -0.000236232 2.27561 6.82301 4.03897 6.27838 7.27728 -1.30713 0.316046 0.73613 -0.434869 2.27561 6.82301 4.03897 6.27837 7.27723 -1.30708 0.316039 0.73585 -0.434585 
26.982 1 285 2.14388 9.05743 6.14535 0.619265 -7.04407 0.819488 0.22091 -0.137565 0.0565204 -2.82142 -0.383172 -5.86564 -0.175988 0.00920735 -0.596631 0.000119842 -6.13141e-05 5.18251e-05 2.14465 9.05025 6.14626 0.658784 -7.06868 0.829602 0.221032 -0.137627 0.0565723 2.14465 9.05025 6.14626 0.658741 -7.06866 0.829584 0.22079 -0.137503 0.0564671 
26.982 1 87 4.85587 8.30332 3.56102 2.10214 3.87321 -7.33795 -0.616318 -0.773108 -0.341967 -0.924212 -0.552278 -33.8271 -0.201917 -0.12734 -3.5791 -5.12214e-07 -0.000121175 -0.000386817 4.8581 8.30705 3.55379 1.9919 3.73496 -7.39909 -0.616553 -0.773247 -0.341958 4.8581 8.30705 3.55379 1.99199 3.73501 -7.39909 -0.616082 -0.772968 -0.341975 
26.982 1 246 4.66321 6.79696 5.98907 5.2529 -2.47487 -0.857432 0.0472667 1.0281 0.256185 -0.235551 -0.290426 -5.1956 -0.0625861 0.00580354 -0.524579 -2.34592e-05 0.000193732 4.69372e-05 4.6686 6.79433 5.98831 5.26134 -2.29102 -0.811616 0.0472318 1.02829 0.256254 4.6686 6.79433 5.98831 5.26135 -2.29109 -0.811641 0.0473028 1.02791 0.256115 
26.982 1 88 2.42191 10.0821 3.52657 -5.42505 -0.879475 -2.21166 0.829499 -0.65011 -0.278621 -6.39119 -1.67148 -34.5987 -0.502699 -0.268598 -3.49747 0.00016482 -0.00013955 -0.000178049 2.41663 10.0811 3.52447 -5.27672 -0.995741 -2.26147 0.829636 -0.650283 -0.278575 2.41663 10.0811 3.52447 -5.27677 -0.995679 -2.26149 0.829363 -0.649936 -0.278666 
26.982 1 286 4.88872 10.0744 5.51185 -2.09933 0.329409 -1.64601 -0.546079 0.655956 -0.351094 -0.342603 0.0137269 -4.69176 -0.122659 -0.00968765 -0.468539 -0.000183709 6.46167e-05 1.41226e-05 4.88674 10.0746 5.5103 -2.197 0.446699 -1.70877 -0.546282 0.656014 -0.351021 4.88674 10.0746 5.5103 -2.19693 0.446678 -1.70879 -0.545877 0.655898 -0.351168 
26.982 1 3037 39.4692 20.0307 19.8984 2.62951 -3.43956 -5.38827 -0.0169717 0.318816 -0.70376 -14.5608 -13.7763 -42.2358 -1.22744 -1.17013 -3.58167 -0.00021636 0.00012752 -6.52848e-05 39.4716 20.0272 19.893 2.62647 -3.38254 -5.51413 -0.0170037 0.318955 -0.70394 39.4716 20.0272 19.893 2.62648 -3.38259 -5.51406 -0.01694 0.318675 -0.70358 
26.982 1 289 7.11704 8.4083 5.18423 1.62496 -1.31286 7.94209 -0.193397 0.44831 0.595988 0.0692916 -0.016274 -5.09053 -0.0531291 -0.0282873 -0.524321 -3.46125e-05 8.21336e-06 -3.50293e-05 7.11878 8.40684 5.19228 1.59037 -1.23271 8.04867 -0.193443 0.44832 0.59613 7.11878 8.40684 5.19228 1.59039 -1.23271 8.04862 -0.193351 0.4483 0.595847 
26.982 1 250 9.05515 6.57836 5.30339 -1.29258 3.32366 -0.596467 0.111592 0.469012 -0.277949 0.126278 -0.230763 -5.35267 -0.0179164 -0.086891 -0.61127 -1.32106e-05 0.000110438 -0.000222494 9.05395 6.58152 5.30289 -1.27263 3.40754 -0.646174 0.111582 0.469138 -0.278025 9.05395 6.58152 5.30289 -1.27263 3.4075 -0.646147 0.111604 0.468887 -0.277872 
26.982 1 91 8.97022 8.81683 2.87944 2.85419 3.61995 4.55126 0.397314 -0.0507759 0.31248 2.84253 1.48529 -37.3132 0.223648 0.0526572 -3.57366 -3.22475e-06 -0.000116833 -0.00107795 8.97317 8.82031 2.88411 2.92525 3.61087 4.60713 0.397443 -0.050781 0.312477 8.97317 8.82031 2.88411 2.9252 3.61087 4.60713 0.397185 -0.0507714 0.312485 
26.982 1 293 10.9572 8.92432 4.99337 3.64957 1.62078 -3.83826 0.050168 0.144037 0.484924 0.128827 0.306013 -6.22583 0.0248445 0.0148383 -0.611452 6.56519e-05 3.5272e-05 -0.00010572 10.9609 8.9258 4.98963 3.65855 1.64655 -3.75155 0.0502361 0.144082 0.484988 10.9609 8.9258 4.98963 3.65853 1.64653 -3.75157 0.0500993 0.143992 0.484861 
26.982 1 56 10.9595 6.82804 3.41637 -1.35075 1.68969 -3.09845 0.360763 0.0425436 -1.15008 0.917193 2.50975 -36.8647 0.061541 0.140952 -3.71771 0.000103207 -6.9358e-06 -0.001087 10.9582 6.82957 3.41338 -1.28624 1.6973 -3.30411 0.360847 0.0426082 -1.15032 10.9582 6.82957 3.41338 -1.28627 1.69728 -3.30403 0.360678 0.0424771 -1.14984 
26.982 1 95 12.7437 9.23602 2.85094 -3.09012 -3.68623 -2.75935 -0.152822 0.0456802 0.273881 -0.282547 2.43157 -41.6165 -0.00500679 0.116376 -4.17918 5.10054e-05 -0.000186888 -0.000992221 12.7407 9.23219 2.8483 -3.11744 -3.67806 -2.71039 -0.152786 0.0456827 0.273859 12.7407 9.23219 2.8483 -3.11745 -3.67807 -2.71038 -0.152861 0.0456764 0.273904 
26.982 1 254 13.333 6.94079 4.9402 -3.30038 5.74157 5.55341 -0.163855 0.180232 0.240651 0.0776351 0.0159675 -5.92751 0.0205154 0.0338625 -0.644314 -4.93136e-06 7.16188e-05 -0.000222411 13.3298 6.94637 4.94585 -3.32967 5.77381 5.59644 -0.163865 0.18031 0.240647 13.3298 6.94637 4.94585 -3.32967 5.77378 5.59644 -0.163846 0.180153 0.240656 
26.982 1 60 15.4776 6.79756 3.14925 -1.16492 3.29707 5.27152 -0.0233642 0.218569 0.120206 -0.217844 1.74978 -37.7177 -0.00682335 0.181011 -3.77206 -1.40522e-05 7.24249e-05 -0.00100384 15.4764 6.8007 3.15464 -1.16912 3.33617 5.29301 -0.0234735 0.218662 0.12022 15.4764 6.8007 3.15464 -1.16908 3.33613 5.29301 -0.0232538 0.218475 0.120192 
26.982 1 297 15.1134 9.19809 4.68077 -0.351285 -5.84012 3.12382 -0.169981 0.0895198 0.160387 0.0773136 0.356131 -6.72216 0.0395845 0.0164049 -0.715266 -3.63831e-06 4.44816e-06 -0.000231909 15.1131 9.19211 4.684 -0.381676 -5.82411 3.1525 -0.169983 0.089563 0.160433 15.1131 9.19211 4.684 -0.381675 -5.82413 3.15249 -0.169979 0.0894758 0.160341 
26.982 1 99 17.4126 8.93347 3.18086 2.03728 5.83712 -3.32653 0.465867 0.208633 0.458071 -1.75424 2.72968 -39.3699 -0.118707 0.215545 -3.8999 1.31207e-05 -0.000141656 -0.000731352 17.4147 8.93918 3.17765 2.12058 5.87444 -3.24462 0.46591 0.208757 0.458161 17.4147 8.93918 3.17765 2.12057 5.8744 -3.24465 0.465825 0.208507 0.45798 
26.982 1 258 17.6634 6.87143 5.14489 2.09658 2.62913 4.90142 -0.17508 0.599099 0.0504541 -0.0310333 0.11972 -5.81742 -0.0431106 0.0628047 -0.598392 -5.15343e-05 0.00017492 -5.24904e-05 17.6655 6.87389 5.14989 2.06527 2.73628 4.91047 -0.175127 0.599277 0.0505985 17.6655 6.87389 5.14989 2.06529 2.73621 4.91041 -0.175033 0.59892 0.0503091 
26.982 1 64 19.6621 6.89816 3.20346 -4.73888 -3.97711 3.96828 0.251524 -0.39281 -0.406061 1.79189 -2.51641 -39.2618 0.111396 -0.279943 -4.1534 6.66592e-05 2.69718e-05 -0.00107817 19.6574 6.89401 3.20755 -4.6939 -4.04735 3.89567 0.251581 -0.39286 -0.406139 19.6574 6.89401 3.20755 -4.69392 -4.04733 3.8957 0.251467 -0.392761 -0.405984 
26.982 1 301 19.858 8.75145 5.06247 1.77248 2.08287 0.372588 -0.170747 0.600588 0.688528 -0.179227 0.269239 -6.11267 -0.0787533 0.0442475 -0.653335 -0.000155414 0.000113707 1.85443e-05 19.8598 8.75339 5.06294 1.74192 2.19027 0.495729 -0.170905 0.600719 0.688749 19.8598 8.75339 5.06294 1.74198 2.19023 0.49565 -0.17059 0.600457 0.688307 
26.982 1 103 21.9569 9.10966 3.37755 -0.23628 6.05063 -0.951489 -0.00871065 -1.11289 -1.00214 1.23248 0.175555 -40.5853 0.0334706 -0.0965973 -4.1116 -2.34163e-05 -0.000365092 -0.00093366 21.9567 9.11558 3.37671 -0.237836 5.85162 -1.13069 -0.00870495 -1.11309 -1.00228 21.9567 9.11558 3.37671 -0.237838 5.85169 -1.13063 -0.00871467 -1.1127 -1.00199 
26.982 1 262 21.9378 6.89797 5.11656 -5.46112 0.833968 -1.72533 0.297119 -0.237115 -0.0159872 0.137896 -0.440926 -6.85095 -0.00703243 -0.0601658 -0.741558 3.47773e-05 -8.16377e-05 -0.000169676 21.9323 6.89864 5.11493 -5.40799 0.79156 -1.72818 0.297159 -0.237193 -0.0159619 21.9323 6.89864 5.11493 -5.408 0.791587 -1.72819 0.297079 -0.237039 -0.0160129 
26.982 1 302 22.0589 10.858 5.15803 0.763452 3.3413 -0.680473 -0.157982 0.695881 0.831431 -0.246027 0.198308 -6.65387 -0.0961407 0.0569602 -0.646033 -5.24517e-05 0.000120294 6.32145e-05 22.0596 10.8613 5.15745 0.735197 3.46574 -0.531789 -0.158037 0.696005 0.83162 22.0596 10.8613 5.15745 0.735217 3.46569 -0.531856 -0.157926 0.695757 0.831241 