ITEM: TIMESTEP
20000
ITEM: NUMBER OF ATOMS
4000
ITEM: BOX BOUNDS pp pp pp
-4.13904 44.639
1.48628 39.0137
1.4018 39.0982
ITEM: ATOMS mass type id x y z vx vy vz fx fy fz xrad yrad zrad vxrad vyrad vzrad fxrad fyrad fzrad xub yub zub vxub vyub vzub fxub fyub fzub xlb ylb zlb vxlb vylb vzlb fxlb fylb fzlb 
26.982 1 202 -0.84067 3.66424 5.39545 -3.60491 0.864412 5.17872 0.0437171 -0.120057 0.545181 -22.6884 -22.4179 -23.9309 -1.67505 -1.74978 -1.98925 -8.74431e-06 -0.000284801 -0.000203024 -0.844098 3.66494 5.40051 -3.59709 0.842947 5.27621 0.0437388 -0.120055 0.545266 -0.844098 3.66494 5.40051 -3.5971 0.842947 5.27617 0.0436953 -0.120059 0.545095 
26.982 1 825 24.7444 1.33969 16.2636 -1.16244 2.2117 -3.129 -0.457766 0.986132 0.747826 1.23333 -26.4118 -22.8134 0.0440523 -1.96198 -1.66205 -0.000346249 -0.000710981 -0.000388058 24.7432 1.34172 16.2605 -1.24431 2.38805 -2.99526 -0.457933 0.986334 0.747989 24.7432 1.34172 16.2605 -1.24425 2.38798 -2.99532 -0.4576 0.98593 0.747663 
26.982 1 4 -3.15535 3.29647 3.77252 -4.68456 -1.20244 0.682762 0.322717 -0.49597 -0.173153 -25.4094 -28.7488 -33.8936 -2.09314 -2.42067 -2.89365 -0.000397235 -0.000572805 -0.000590086 -3.15984 3.2951 3.77306 -4.62685 -1.29114 0.651802 0.322755 -0.496104 -0.173164 -3.15984 3.2951 3.77306 -4.62687 -1.29109 0.651806 0.322679 -0.495837 -0.173143 
26.982 1 241 -2.92656 5.48089 5.52627 -3.72959 2.03505 -4.05552 0.172542 0.303894 -0.0489341 -17.321 -17.4208 -22.2161 -1.48382 -1.08246 -1.797 -0.000548424 -3.73517e-06 -0.000238157 -2.9301 5.48278 5.52209 -3.69873 2.0894 -4.06427 0.172638 0.303986 -0.0489202 -2.9301 5.48278 5.52209 -3.69876 2.08937 -4.06427 0.172447 0.303801 -0.0489466 
26.982 1 41 -3.38152 5.20628 1.72698 5.2846 0.320046 -1.51305 0.0769737 0.0838905 -0.448646 -13.4365 -13.9081 -33.7658 -1.0881 -0.920643 -3.35569 -0.000285665 -0.000112774 -0.000780035 -3.37603 5.20645 1.7253 5.29836 0.335057 -1.59328 0.0769789 0.0839597 -0.448724 -3.37603 5.20645 1.7253 5.29836 0.335032 -1.59325 0.0769673 0.0838204 -0.448567 
26.982 1 43 -1.06761 5.55728 3.51464 3.54608 -0.438552 1.12827 -0.171578 0.213103 -0.153856 -24.2969 -11.6294 -40.4696 -1.77321 -0.575336 -3.5777 -0.000114708 9.36484e-05 -0.000396217 -1.06388 5.5567 3.51563 3.5154 -0.400443 1.10076 -0.171589 0.213147 -0.153852 -1.06388 5.5567 3.51563 3.5154 -0.400459 1.10076 -0.171568 0.213057 -0.153859 
26.982 1 998 41.2643 18.2004 15.2576 -2.53202 0.178822 2.66795 -0.0229266 -0.0507207 0.458287 5.21233 8.23956 -12.438 0.396417 0.910634 -1.01029 5.87466e-06 4.8183e-05 4.77159e-05 41.2616 18.2005 15.2603 -2.53612 0.169751 2.74991 -0.0229582 -0.0507306 0.458402 41.2616 18.2005 15.2603 -2.53611 0.169755 2.74987 -0.0228954 -0.0507108 0.458172 
26.982 1 29 30.9071 1.75136 2.51449 -0.716178 6.04288 -7.74737 0.741818 0.0998877 0.0949419 0.26604 -27.7424 -45.0004 -0.0835744 -2.20221 -4.17745 -0.000154085 -0.000771715 -0.00058265 30.9063 1.75723 2.50659 -0.583511 6.06074 -7.73039 0.742025 0.0999108 0.0949841 30.9063 1.75723 2.50659 -0.583585 6.06073 -7.73041 0.741609 0.0998631 0.0948997 
26.982 1 205 1.26894 1.8901 5.47204 -5.71266 -0.609584 4.39965 0.417311 0.101485 -0.161518 0.997278 -30.544 -27.1983 0.206853 -2.96823 -2.40093 0.000112136 -0.000448357 -0.000542419 1.26338 1.88931 5.47632 -5.63803 -0.591433 4.37076 0.417426 0.101525 -0.161545 1.26338 1.88931 5.47632 -5.63807 -0.591447 4.37077 0.417195 0.101446 -0.16149 
26.982 1 245 2.88155 4.25756 5.69025 1.09435 -5.95444 -5.07394 -0.189779 0.438058 -0.406646 -2.4693 -5.09735 -8.18451 -0.202424 -0.430095 -0.765896 -4.22646e-05 -8.23932e-05 -0.000139821 2.88279 4.25145 5.68505 1.06041 -5.87611 -5.14666 -0.189834 0.438142 -0.406738 2.88279 4.25145 5.68505 1.06043 -5.87614 -5.14663 -0.189725 0.437974 -0.406552 
26.982 1 8 1.09728 3.79713 3.42545 -4.66526 -3.62473 5.58777 0.161438 0.17079 -0.154892 3.85189 -34.944 -41.237 0.192925 -2.49436 -3.77599 0.000125817 -0.000419475 -0.000598567 1.09278 3.79334 3.4309 -4.63635 -3.59417 5.56005 0.1617 0.170903 -0.155059 1.09278 3.79334 3.4309 -4.63644 -3.59421 5.56011 0.161175 0.170677 -0.154724 
26.982 1 47 4.93145 4.53359 3.51908 -3.61495 -3.85768 -0.692335 -0.332638 0.0379916 -0.506749 -1.40414 -9.75123 -40.6139 -0.022252 -0.689484 -3.65772 -3.16769e-05 -0.000373174 -0.000820832 4.92796 4.52957 3.51824 -3.67446 -3.85089 -0.782985 -0.332839 0.0379778 -0.507014 4.92796 4.52957 3.51824 -3.67439 -3.85088 -0.78289 -0.332439 0.0380062 -0.506486 
26.982 1 6 3.09169 1.89411 3.41869 -0.863973 1.4522 -4.42965 -0.06549 0.601659 -0.225243 -3.87759 -25.8552 -36.0844 -0.146062 -2.35029 -3.27674 0.000156491 -0.000716591 -0.000785011 3.09097 1.89539 3.41411 -0.87568 1.55981 -4.46994 -0.06548 0.601873 -0.225391 3.09097 1.89539 3.41411 -0.875684 1.55973 -4.46989 -0.0655037 0.601445 -0.225093 
26.982 1 206 4.91894 2.59397 5.34689 2.77388 -0.586622 3.03804 0.725862 -0.857056 0.397242 -0.0899667 -34.0222 -21.7021 0.113707 -3.16643 -1.91268 0.000194475 -0.000722759 -0.000274823 4.92184 2.59321 5.3498 2.90367 -0.739886 3.10907 0.725949 -0.857217 0.397296 4.92184 2.59321 5.3498 2.90364 -0.739828 3.10905 0.725775 -0.856895 0.397191 
26.982 1 249 6.97448 4.52878 5.38147 -0.97468 -3.39443 1.37506 0.449821 0.219383 0.589255 -0.221409 -5.32916 -6.85422 -0.0103833 -0.512764 -0.662848 0.000170552 -0.000128289 6.16192e-06 6.97362 4.52523 5.38272 -0.894229 -3.35521 1.48044 0.449972 0.219399 0.589422 6.97362 4.52523 5.38272 -0.894283 -3.35521 1.48038 0.449672 0.219367 0.589091 
26.982 1 12 7.22047 2.61552 3.37663 -3.36977 2.46851 -2.60615 0.0954577 -0.0606649 -0.37449 -4.55466 -42.3496 -37.1079 -0.0957123 -3.65844 -3.44923 2.2217e-05 -0.00073204 -0.000744019 7.21721 2.61781 3.37387 -3.3527 2.45766 -2.67312 0.0954879 -0.0607135 -0.374551 7.21721 2.61781 3.37387 -3.35271 2.45768 -2.6731 0.0954306 -0.0606158 -0.374427 
26.982 1 51 9.10985 4.66302 3.45363 6.74316 -0.879243 3.77826 -0.00602929 0.21415 -0.164377 -0.0595567 -6.33289 -37.2492 -0.089113 -0.764564 -3.90876 -3.4422e-05 -0.000122807 -0.000866259 9.11669 4.66199 3.45727 6.74208 -0.840948 3.74888 -0.00603335 0.214189 -0.164357 9.11669 4.66199 3.45727 6.74208 -0.840962 3.74887 -0.00602412 0.214111 -0.164397 
26.982 1 210 9.53146 2.39952 5.35784 -1.03312 -1.02901 -2.81944 -0.406587 0.697311 -0.256267 1.58697 -33.3182 -19.4176 0.0765585 -3.10989 -1.84524 -5.22507e-05 -0.000504666 -0.000482784 9.53051 2.39832 5.35489 -1.10582 -0.904303 -2.86526 -0.406646 0.697511 -0.256275 9.53051 2.39832 5.35489 -1.1058 -0.904375 -2.86525 -0.406527 0.697112 -0.256259 
26.982 1 253 11.3621 5.01653 4.98853 -2.74638 -2.3401 6.46523 0.111073 -0.424744 0.45917 0.0716728 -6.00824 -7.24022 -0.0363197 -0.576302 -0.752489 2.32357e-05 -0.000207246 -0.00010307 11.3594 5.01404 4.99487 -2.72651 -2.41606 6.54735 0.111103 -0.424854 0.459302 11.3594 5.01404 4.99487 -2.72652 -2.41603 6.5473 0.111043 -0.424635 0.459038 
26.982 1 16 11.363 2.97526 3.1122 0.51838 8.47026 1.42492 0.168993 -0.253021 0.170735 3.21793 -43.5654 -35.7317 -0.0263621 -3.93022 -3.38599 3.17063e-05 -0.000656072 -0.000795078 11.3636 2.98357 3.11347 0.548598 8.42502 1.45546 0.169011 -0.253019 0.170814 11.3636 2.98357 3.11347 0.548592 8.42502 1.45543 0.168978 -0.253024 0.170656 
26.982 1 214 13.4902 2.87229 5.25392 2.02027 -6.22241 0.574929 -0.0565297 0.393554 -0.286357 0.825009 -35.9213 -19.895 -0.0155019 -3.3021 -1.81301 -2.23858e-05 -0.000521231 -0.000437951 13.4923 2.86589 5.25436 2.01016 -6.15202 0.523729 -0.0565972 0.393724 -0.286364 13.4923 2.86589 5.25436 2.01018 -6.15208 0.523731 -0.0564617 0.393383 -0.286351 
26.982 1 55 13.506 4.94299 2.93756 -1.08989 1.23856 -6.58831 -0.646786 0.0500177 0.546855 0.506751 -8.21239 -40.4497 -0.000385393 -0.523702 -3.70812 -0.000121946 -0.000148695 -0.000931942 13.505 4.94408 2.93081 -1.20555 1.24751 -6.49051 -0.646929 0.0500538 0.547 13.505 4.94408 2.93081 -1.2055 1.2475 -6.49056 -0.646643 0.0499801 0.546708 
26.982 1 20 15.5476 2.95582 3.15809 4.23973 -7.66258 -2.74115 -0.200578 0.28177 -0.131127 -5.00733 -42.1708 -34.958 -0.143035 -3.66198 -3.21235 -4.36592e-05 -0.000738049 -0.000793772 15.5519 2.94799 3.15519 4.20385 -7.61218 -2.76459 -0.200687 0.281876 -0.131123 15.5519 2.94799 3.15519 4.20389 -7.61222 -2.76459 -0.200467 0.281661 -0.131132 
26.982 1 257 15.5579 5.29636 4.75515 0.0614355 0.874209 -2.51937 -0.279745 -0.170562 0.196842 -0.254986 -5.81416 -7.19073 -0.0422899 -0.47256 -0.714052 -8.77013e-05 -7.57571e-05 -0.000232684 15.558 5.29709 4.7525 0.011403 0.843719 -2.48417 -0.279839 -0.17053 0.196874 15.558 5.29709 4.7525 0.0114363 0.843708 -2.48418 -0.279652 -0.170595 0.196809 
26.982 1 218 17.6176 3.12752 4.92101 5.10763 3.21508 5.87277 -0.0662356 0.192319 0.102781 -1.59314 -34.0464 -17.7197 -0.07684 -3.04417 -1.73796 2.87861e-05 -0.000628891 -0.000490663 17.6227 3.13057 4.92676 5.09578 3.24949 5.89114 -0.0662602 0.192455 0.102785 17.6227 3.13057 4.92676 5.09579 3.24944 5.89114 -0.0662105 0.192182 0.102776 
26.982 1 59 17.6807 5.07658 2.90941 -2.9206 0.20775 1.48151 0.0526463 0.414512 0.313251 1.73683 -3.92269 -39.1412 0.188932 -0.40995 -3.89211 1.13786e-05 2.99357e-05 -0.00102314 17.6778 5.07664 2.91075 -2.91119 0.2819 1.53753 0.0526428 0.414724 0.313349 17.6778 5.07664 2.91075 -2.91119 0.281824 1.5375 0.0526495 0.414298 0.313152 
26.982 1 24 19.708 3.18589 3.19149 -0.748639 4.89169 2.52209 0.418894 0.457234 -0.244645 2.08725 -36.0169 -35.5487 0.0454316 -3.1516 -3.60166 0.000175447 -0.000698245 -0.000738698 19.7072 3.19061 3.19387 -0.673722 4.97346 2.47835 0.419019 0.457339 -0.244619 19.7072 3.19061 3.19387 -0.673767 4.97342 2.47835 0.418768 0.457129 -0.24467 
26.982 1 261 19.9398 5.45689 5.22231 -0.140511 3.67538 1.45049 -0.386264 -0.0839863 -0.172641 0.287315 -5.14509 -7.99653 0.0318749 -0.446776 -0.792108 -4.70985e-05 -9.35328e-05 -0.00024282 19.9397 5.46042 5.22364 -0.209581 3.66036 1.41961 -0.386315 -0.0839872 -0.172709 19.9397 5.46042 5.22364 -0.209563 3.66036 1.41963 -0.386214 -0.0839865 -0.172574 
26.982 1 63 21.9015 5.04805 3.1264 1.49218 -5.07246 -1.76232 0.178601 0.536787 0.261318 1.19252 -3.76381 -45.8778 0.0342333 -0.430834 -4.49554 3.24513e-05 -0.000184514 -0.000927121 21.9029 5.04283 3.12449 1.52413 -4.97646 -1.71558 0.178652 0.536888 0.261441 21.9029 5.04283 3.12449 1.52411 -4.9765 -1.71562 0.178549 0.536686 0.261194 
26.982 1 222 21.926 3.60668 5.44594 3.71662 0.208918 6.74594 0.100225 -0.182851 -0.0159295 -0.409469 -31.5356 -18.4747 -0.0249679 -2.64501 -1.61062 -5.14689e-05 -0.000374135 -0.000387545 21.9297 3.60672 5.45256 3.73455 0.176228 6.74309 0.100272 -0.182838 -0.0159682 21.9297 3.60672 5.45256 3.73453 0.176223 6.7431 0.100177 -0.182864 -0.0158926 
26.982 1 162 -1.67857 18.5938 1.70789 -1.51628 2.96601 -0.620681 0.196731 -0.0162715 0.429902 -24.7806 17.5943 -37.2596 -2.00225 1.00011 -3.50068 -0.000495482 2.72645e-06 -0.000688848 -1.67991 18.5968 1.70711 -1.48109 2.9631 -0.543795 0.196834 -0.0162839 0.430028 -1.67991 18.5968 1.70711 -1.48113 2.9631 -0.543841 0.196626 -0.016257 0.429775 
26.982 1 28 24.4202 3.03846 2.92289 1.79666 0.339108 -3.28449 -0.093423 -0.147185 0.216601 -1.48914 -31.9018 -39.8163 -0.0448596 -2.96349 -3.8532 -0.000146781 -0.0006199 -0.000851825 24.422 3.03863 2.91946 1.77995 0.3128 -3.24575 -0.0934585 -0.147143 0.216685 24.422 3.03863 2.91946 1.77996 0.312786 -3.24578 -0.093387 -0.147225 0.216517 
26.982 1 265 24.4102 4.88628 4.7986 3.96994 1.67052 -3.92215 0.00102393 0.345627 0.0327559 0.0152227 -4.91122 -8.9451 -0.0199797 -0.476043 -0.88937 -0.000146047 -5.01178e-05 -0.000240016 24.4141 4.88781 4.79455 3.9701 1.73233 -3.91629 0.000900534 0.345688 0.0327778 24.4141 4.88781 4.79455 3.97014 1.73231 -3.9163 0.00114574 0.345566 0.0327324 
26.982 1 67 26.4204 5.37127 2.8183 -3.87268 5.02665 -6.86825 -0.189442 -0.75049 -0.201404 1.74119 -2.16104 -51.1725 0.0277657 -0.333904 -4.73461 -0.000125784 -0.000214999 -0.00105026 26.4165 5.37616 2.81128 -3.90656 4.89244 -6.90426 -0.189487 -0.750645 -0.201422 26.4165 5.37616 2.81128 -3.90654 4.8925 -6.90425 -0.189395 -0.750333 -0.201386 
26.982 1 225 24.3481 1.94801 5.76576 4.61683 1.46739 1.92961 -0.0357052 1.31039 -0.15606 -0.236993 -27.6803 -23.6714 0.0833009 -2.35149 -2.05101 -0.000193596 -0.000951158 -0.000317326 24.3527 1.9493 5.76757 4.61043 1.70172 1.90168 -0.0357672 1.31063 -0.156173 24.3527 1.9493 5.76757 4.61045 1.70163 1.90172 -0.0356424 1.31015 -0.155946 
26.982 1 226 26.9622 2.94024 4.61225 3.63309 -0.9277 -3.40146 -0.635602 -0.0624085 0.424462 0.0741586 -29.1047 -16.6135 0.0239677 -2.88304 -1.72706 -5.57435e-05 -0.000834254 -0.000340117 26.9658 2.93915 4.60871 3.51943 -0.938856 -3.32556 -0.635744 -0.0623966 0.424503 26.9658 2.93915 4.60871 3.51948 -0.938861 -3.32558 -0.63546 -0.0624215 0.424421 
26.982 1 32 30.4876 5.61666 2.6063 -1.45718 -0.252171 -5.49734 0.0444749 0.278654 -0.310611 0.4092 -28.227 -43.0978 -0.0409328 -2.32989 -4.20133 -7.07375e-05 -6.89039e-05 -0.00104943 30.4861 5.61626 2.60065 -1.44923 -0.202345 -5.55289 0.0444765 0.27868 -0.310711 30.4861 5.61626 2.60065 -1.44923 -0.202355 -5.55286 0.0444731 0.278629 -0.310512 
26.982 1 269 28.6425 5.31014 4.62768 2.42969 3.40701 -2.5121 0.00477433 0.602581 -0.117854 -0.239949 -4.618 -9.67728 -0.0293129 -0.496412 -0.91736 -2.87673e-05 5.6376e-05 -0.000210174 28.6449 5.3134 4.62503 2.43054 3.51478 -2.53318 0.00476158 0.60274 -0.117874 28.6449 5.3134 4.62503 2.43054 3.51472 -2.53317 0.00478734 0.602423 -0.117833 
26.982 1 27 28.588 3.33937 2.64373 -2.32357 1.91694 3.69154 0.311 0.192968 -0.45028 -1.58746 -39.8253 -35.3165 -0.309815 -3.0767 -3.47235 -0.000169885 -0.000510634 -0.000915987 28.5856 3.34112 2.64728 -2.26797 1.95146 3.61102 0.311003 0.193033 -0.450347 28.5856 3.34112 2.64728 -2.26797 1.95143 3.61104 0.310997 0.192902 -0.450214 
26.982 1 230 30.852 3.70136 4.5224 -4.50942 9.37615 -3.83851 0.22623 -0.424202 -0.250242 -1.76575 -29.0951 -17.3654 -0.197768 -2.68584 -1.59622 -0.000109306 -0.000475029 -0.000249595 30.8474 3.71058 4.51843 -4.46897 9.30028 -3.88326 0.226281 -0.424302 -0.250304 30.8474 3.71058 4.51843 -4.46899 9.30032 -3.88324 0.226179 -0.424101 -0.250179 
26.982 1 964 43.3898 18.3231 17.1991 1.52575 -6.77511 -4.48548 0.393839 -0.194443 0.187642 -24.4046 -2.00436 -8.9178 -1.21648 -0.221609 -0.937502 8.94667e-05 0.000286407 -0.000158557 43.3912 18.3163 17.1945 1.59618 -6.80988 -4.45191 0.393934 -0.194458 0.187743 43.3912 18.3163 17.1945 1.59614 -6.80987 -4.45195 0.393744 -0.194428 0.187541 
26.982 1 273 32.7805 5.80929 4.27521 1.049 -0.601151 -3.06003 -0.0364913 0.345719 0.310179 -0.141922 -3.98003 -7.75085 -0.0281891 -0.378207 -0.733037 -5.65352e-05 0.000100625 -0.000126835 32.7815 5.80855 4.27201 1.04247 -0.539318 -3.00457 -0.0365234 0.34584 0.310239 32.7815 5.80855 4.27201 1.04248 -0.539361 -3.00459 -0.036459 0.345599 0.31012 
26.982 1 36 34.9678 3.99117 4.07764 4.44037 0.14457 1.84304 1.1931 -0.0934129 0.398596 -3.30401 -31.7435 -39.677 -0.342462 -2.71341 -3.17306 0.000219832 -0.000194414 -0.000172701 34.9721 3.99116 4.07935 4.65372 0.127859 1.91432 1.19332 -0.0934621 0.398659 34.9721 3.99116 4.07935 4.65364 0.127877 1.91429 1.19287 -0.0933639 0.398533 
26.982 1 30 32.9313 3.71792 2.51795 4.48189 0.00433611 0.289569 -0.619219 0.186846 -0.859993 -1.21831 -22.413 -41.8603 -0.179365 -2.02994 -3.67361 -0.000181548 -0.000193229 -0.00110755 32.9357 3.71776 2.51809 4.37115 0.0377512 0.135769 -0.61934 0.186893 -0.860217 32.9357 3.71776 2.51809 4.3712 0.037734 0.135849 -0.619099 0.186797 -0.85977 
26.982 1 73 34.7674 5.97947 2.16492 4.86091 6.67821 -1.63026 -0.28648 0.0732736 -0.267273 2.68598 -4.35311 -41.9288 0.0177969 -0.337868 -3.82097 -0.00011642 -5.80653e-05 -0.00110837 34.7721 5.98601 2.16314 4.80968 6.69132 -1.67806 -0.286551 0.0732878 -0.267306 34.7721 5.98601 2.16314 4.8097 6.69131 -1.67804 -0.286407 0.0732599 -0.26724 
26.982 1 33 35.3272 1.9013 2.14035 3.82176 -0.848054 4.98716 -0.131759 0.449297 0.00928977 -0.7049 -20.309 -37.7453 -0.143961 -1.97119 -3.48311 3.07696e-05 -0.000722586 -0.000815147 35.3309 1.90027 2.14519 3.79819 -0.767702 4.98882 -0.131805 0.449411 0.00925338 35.3309 1.90027 2.14519 3.79821 -0.767743 4.98883 -0.131712 0.449183 0.00932651 
26.982 1 276 35.0501 5.82834 6.19444 1.52045 -4.30794 -1.51062 -0.0491543 -0.00489805 -0.140177 0.111707 -0.389798 -0.205497 0.0126382 -0.0665728 0.000685829 -2.92896e-05 1.59089e-05 -2.98707e-05 35.0515 5.82389 6.1928 1.51166 -4.30881 -1.53569 -0.049184 -0.00487392 -0.140199 35.0515 5.82389 6.1928 1.51167 -4.30882 -1.53568 -0.0491241 -0.0049215 -0.140154 
26.982 1 34 37.0729 4.14922 1.98442 0.959938 4.44517 -0.609155 -0.228729 -0.226966 0.447428 0.744551 -20.5029 -46.2055 -0.143072 -1.87845 -4.31427 -8.68585e-05 -0.000191237 -0.000996727 37.0738 4.15351 1.98365 0.919035 4.40458 -0.529135 -0.228772 -0.227005 0.447564 37.0738 4.15351 1.98365 0.919051 4.4046 -0.529183 -0.228684 -0.226927 0.447292 
26.982 1 35 37.5672 2.0778 4.13019 1.84701 -4.20858 3.11294 -0.506551 0.337268 -0.336352 1.38956 -48.0796 -39.5126 0.0484781 -3.94506 -3.32595 -6.15393e-05 -0.000719978 -0.000591922 37.5689 2.07341 4.13317 1.75642 -4.14826 3.05278 -0.506663 0.337394 -0.336442 37.5689 2.07341 4.13317 1.75646 -4.14831 3.05281 -0.506439 0.337141 -0.336262 
26.982 1 75 37.0962 5.86761 4.11221 -1.06194 -1.81518 1.64754 0.0106936 -0.0327616 -0.098584 1.94369 -2.71582 -43.5846 -0.00147567 -0.210811 -3.34099 3.11723e-05 -6.15877e-05 -0.000183139 37.095 5.86564 4.11372 -1.06002 -1.82104 1.62991 0.0107336 -0.0328002 -0.0986027 37.095 5.86564 4.11372 -1.06003 -1.82103 1.62991 0.0106541 -0.0327229 -0.0985652 
26.982 1 234 37.2954 3.90513 6.19335 -4.65502 -7.37651 -3.31314 0.234408 0.355311 -0.308245 -0.141463 -24.4956 -14.1044 -0.0872531 -2.12874 -1.09758 5.22007e-05 -0.000107246 -9.85242e-05 37.2906 3.89759 6.18991 -4.6131 -7.31296 -3.36827 0.234439 0.355415 -0.308328 37.2906 3.89759 6.18991 -4.61311 -7.313 -3.36824 0.234377 0.355208 -0.308162 
26.982 1 40 39.3387 4.15131 4.06598 -4.84592 1.271 1.43836 0.133882 0.137099 0.0829098 6.51511 -31.9544 -43.4949 0.314906 -2.59705 -3.22901 6.43517e-05 -0.000113637 -0.000170843 39.3337 4.15243 4.06728 -4.82198 1.29553 1.45319 0.133944 0.137165 0.0829263 39.3337 4.15243 4.06728 -4.822 1.2955 1.45318 0.13382 0.137032 0.0828932 
26.982 1 237 39.5538 2.13512 5.96307 -2.71071 -4.16148 -1.11521 0.329299 0.439689 0.351536 3.63125 -35.6337 -28.0528 0.313521 -3.5421 -2.12754 0.000206713 -0.00108883 -6.73704e-05 39.551 2.13078 5.96183 -2.65182 -4.08286 -1.05235 0.329395 0.439767 0.35155 39.551 2.13078 5.96183 -2.65185 -4.08288 -1.05236 0.329203 0.439611 0.351522 
26.982 1 37 39.4255 2.50334 1.85063 -0.139708 -1.42324 -2.31857 -0.36339 -0.940771 0.467182 0.523055 -25.0013 -35.9674 0.0631534 -2.44477 -3.4235 -4.32609e-05 -0.000812031 -0.000827526 39.4252 2.50174 1.84815 -0.204684 -1.59147 -2.23502 -0.363418 -0.940912 0.467285 39.4252 2.50174 1.84815 -0.204674 -1.59142 -2.23506 -0.363363 -0.940632 0.467079 
26.982 1 1 43.4497 3.03298 1.72114 0.820082 1.09136 2.45385 0.775779 -0.579763 -0.245981 -10.6485 -20.3235 -45.1958 -0.494973 -2.14517 -4.02572 0.000251156 -0.000724829 -0.000867064 43.4503 3.0339 1.72344 0.958814 0.987686 2.40986 0.77595 -0.579876 -0.246041 43.4503 3.0339 1.72344 0.958753 0.987727 2.40988 0.775607 -0.579651 -0.245922 
26.982 1 79 43.5503 5.02334 3.88984 3.96449 -3.21172 -6.64766 -0.190347 -0.222026 -0.0481365 -0.635928 -5.60983 -45.8701 0.11179 -0.399364 -3.40604 -6.37366e-06 -0.000102702 -0.000246763 43.5541 5.01997 3.88305 3.93045 -3.25142 -6.65628 -0.190372 -0.222044 -0.0482054 43.5541 5.01997 3.88305 3.93046 -3.25141 -6.65625 -0.190321 -0.222007 -0.0480677 
26.982 1 39 41.8427 2.34633 3.8813 -2.83429 0.36861 1.30761 -1.11621 0.454791 -0.0243584 -4.31852 -23.8536 -39.7902 -0.114384 -2.77124 -3.19568 -1.56005e-05 -0.000754824 -0.000435661 41.8397 2.34653 3.88247 -3.03388 0.449946 1.30327 -1.11632 0.454917 -0.0243083 41.8397 2.34653 3.88247 -3.03384 0.4499 1.30325 -1.11611 0.454664 -0.0244095 
26.982 1 38 41.2526 4.30019 2.01115 0.303317 -1.48019 -0.496781 -0.122304 0.881554 -0.277272 0.298667 -19.0198 -37.9835 0.0419151 -1.58822 -3.92489 -2.54866e-05 -8.16815e-05 -0.000914734 41.2527 4.29856 2.0105 0.281452 -1.32256 -0.546363 -0.122294 0.881673 -0.277316 41.2527 4.29856 2.0105 0.281448 -1.3226 -0.546347 -0.122315 0.881434 -0.277227 
26.982 1 277 41.1046 4.36802 6.35147 -3.42573 -2.13304 4.04394 0.0703689 0.0432631 -1.17439 0.46413 -4.20735 -8.03287 0.0854436 -0.46547 -0.566149 2.5749e-05 -0.000204073 -0.000257724 41.101 4.36573 6.3554 -3.41315 -2.1253 3.83393 0.0703475 0.0432704 -1.17462 41.101 4.36573 6.3554 -3.41315 -2.12531 3.83402 0.0703887 0.0432547 -1.17415 
26.982 1 238 43.5113 3.10212 5.72114 -1.8022 4.42888 2.43269 0.733135 -0.882901 0.845882 1.42481 -30.8841 -19.3342 0.514245 -3.10884 -1.49076 0.000562539 -0.000958677 -0.000124534 43.5093 3.10639 5.72345 -1.67109 4.27099 2.58394 0.733299 -0.883072 0.845966 43.5093 3.10639 5.72345 -1.67115 4.27105 2.58391 0.73297 -0.882731 0.845798 
26.982 1 83 0.190523 8.01889 3.60544 7.52961 -2.66982 -4.11007 0.0334793 0.27566 -0.199437 -26.4178 -10.9984 -41.5785 -1.76505 -0.998663 -3.6104 -0.00017962 0.000205941 -0.000568176 0.198223 8.0161 3.60119 7.53559 -2.62051 -4.14573 0.0334739 0.275773 -0.199448 0.198223 8.0161 3.60119 7.53559 -2.62055 -4.14573 0.0334852 0.275547 -0.199426 
26.982 1 44 -2.94896 7.62037 3.31799 -1.07777 2.21165 -1.24056 -0.191862 0.0170811 0.107049 -8.84197 -22.8186 -40.7319 -1.19176 -1.49906 -3.59237 -0.000636166 0.000209963 -0.000557942 -2.94985 7.62246 3.31661 -1.11208 2.21473 -1.22142 -0.191889 0.017225 0.107025 -2.94985 7.62246 3.31661 -1.11207 2.21468 -1.22141 -0.191836 0.0169355 0.10707 
26.982 1 2607 1.94181 20.1216 13.3771 -4.92289 1.17006 -2.65914 -0.150806 -0.264526 -0.386537 -14.6284 -3.81643 -33.193 -0.889797 0.032539 -2.83958 9.86939e-05 0.000255286 -0.000453493 1.93703 20.1228 13.3744 -4.94986 1.12275 -2.72826 -0.150812 -0.264595 -0.386585 1.93703 20.1228 13.3744 -4.94985 1.12278 -2.72824 -0.150802 -0.264457 -0.386489 
26.982 1 48 2.5344 6.27404 3.59535 11.482 -2.23486 -0.928602 0.2249 -0.0378026 -0.0272966 -7.23503 -1.80289 -40.0673 -0.537124 -0.049662 -3.6616 4.48254e-05 -0.000135805 -0.000320138 2.54603 6.27167 3.59428 11.5222 -2.24164 -0.933502 0.22496 -0.0379332 -0.0274078 2.54603 6.27167 3.59428 11.5222 -2.2416 -0.933463 0.22484 -0.0376722 -0.027186 
26.982 1 87 4.46136 8.49567 3.49626 3.50423 -1.92688 -3.17533 -0.014727 -0.327521 -0.129377 -1.11441 -0.696502 -37.4263 -0.169603 -0.146383 -3.62414 1.06633e-05 7.10204e-05 -0.000479612 4.46499 8.49363 3.49294 3.5016 -1.98546 -3.19847 -0.0147112 -0.32763 -0.12943 4.46499 8.49363 3.49294 3.50159 -1.98542 -3.19845 -0.0147422 -0.32741 -0.129324 
26.982 1 246 4.70658 6.44727 5.43449 4.90275 0.0372863 4.05631 0.037954 0.0448262 0.521201 -0.296656 -0.284055 -5.72586 -0.0601486 0.00567703 -0.537246 1.83784e-05 -1.05901e-05 6.16168e-05 4.71161 6.44717 5.43842 4.90953 0.0453004 4.14951 0.0379575 0.0448236 0.521305 4.71161 6.44717 5.43842 4.90953 0.0453016 4.14948 0.0379506 0.0448304 0.521098 
26.982 1 88 2.24585 10.2337 3.48505 7.44788 -4.00918 -0.325973 0.112362 -0.283957 0.0360589 -6.87444 -1.95432 -38.0642 -0.459022 -0.292871 -3.43546 -3.19872e-05 -7.65314e-05 -0.000472598 2.25345 10.2296 3.48458 7.46795 -4.05996 -0.319522 0.112261 -0.284015 0.0360812 2.25345 10.2296 3.48458 7.46799 -4.05994 -0.31953 0.112466 -0.2839 0.0360364 
26.982 1 286 4.3815 10.5292 5.70632 -1.41415 -5.33335 -3.06189 -0.266016 -0.225931 -0.174746 -0.467294 0.00229335 -5.15243 -0.126576 -0.0131188 -0.457328 -9.61311e-05 -5.45673e-05 -2.20936e-05 4.38021 10.5238 5.70313 -1.46172 -5.37376 -3.09312 -0.266116 -0.225988 -0.17471 4.38021 10.5238 5.70313 -1.46169 -5.37374 -3.09314 -0.265916 -0.225872 -0.174782 
26.982 1 1190 33.5587 17.465 20.1167 -2.92247 0.383898 4.13979 -0.457121 0.160653 -0.374636 -13.3313 -10.3945 -38.0563 -0.792297 -1.00432 -3.05997 -0.000105898 -3.61662e-06 -6.28606e-05 33.5557 17.4653 20.1208 -3.00421 0.412623 4.07279 -0.457167 0.160662 -0.3747 33.5557 17.4653 20.1208 -3.00419 0.41262 4.07282 -0.457076 0.160644 -0.37457 
26.982 1 52 6.80923 6.5937 3.41445 0.125038 2.30213 -1.79238 -0.0305628 0.111832 -0.240772 0.022736 -1.30876 -38.04 -0.0612017 -0.283904 -3.8647 0.000199904 -0.00017451 -0.00066317 6.80947 6.59587 3.41251 0.119571 2.32213 -1.83544 -0.0305775 0.111836 -0.240829 6.80947 6.59587 3.41251 0.119576 2.32213 -1.83542 -0.0305467 0.111831 -0.240713 
26.982 1 289 6.4667 8.54631 5.47321 2.89264 -1.14337 0.132397 0.47511 0.0345735 -0.0489574 0.0169249 -0.0453548 -5.6213 -0.0502523 -0.0281555 -0.537858 0.00011734 -2.27183e-05 -4.87156e-05 6.46971 8.54505 5.47321 2.9776 -1.1372 0.123647 0.475215 0.0345456 -0.048938 6.46971 8.54505 5.47321 2.97756 -1.13719 0.12364 0.475005 0.034602 -0.0489765 
26.982 1 250 8.90246 6.81456 5.39451 -1.12219 -1.65419 -2.35326 -0.0768061 -0.214647 -0.187996 0.108645 -0.317732 -5.9747 -0.0174687 -0.0873312 -0.632217 -1.18737e-05 -7.04837e-05 -0.000158552 8.90144 6.81278 5.39202 -1.13593 -1.69258 -2.38687 -0.0768265 -0.214711 -0.188026 8.90144 6.81278 5.39202 -1.13592 -1.69256 -2.38686 -0.0767862 -0.214584 -0.187965 
26.982 1 91 8.51301 8.7606 3.34186 -1.97886 -1.57162 -1.21657 0.0519321 0.12633 -0.0318847 3.05959 1.53289 -40.9512 0.210557 0.0415308 -3.70077 0.000177993 -2.23984e-05 -0.000786322 8.51113 8.75892 3.3405 -1.96957 -1.54904 -1.22226 0.05195 0.126297 -0.0318526 8.51113 8.75892 3.3405 -1.96958 -1.54902 -1.22227 0.0519142 0.126363 -0.0319161 
26.982 1 290 8.51171 10.8902 5.12675 7.34394 -5.22442 -3.28813 -0.55608 -0.2236 0.714281 0.318616 0.0270086 -6.32132 0.0128362 -0.00318984 -0.559022 -0.000123834 -0.000107584 1.26763e-05 8.51915 10.8849 5.12334 7.24449 -5.26442 -3.16039 -0.556214 -0.223708 0.714457 8.51915 10.8849 5.12334 7.24454 -5.26438 -3.16045 -0.555946 -0.22349 0.714106 
26.982 1 92 6.20739 10.6255 3.50544 4.72544 -2.50283 -6.21635 0.456814 -0.253078 -0.475095 2.40225 -0.412822 -36.1432 0.155026 -0.00538905 -3.21343 0.000113358 -5.97309e-05 -0.000661162 6.21224 10.6229 3.49907 4.80713 -2.54809 -6.30131 0.456882 -0.253145 -0.475192 6.21224 10.6229 3.49907 4.80711 -2.54807 -6.30127 0.456747 -0.253011 -0.474998 
26.982 1 231 31.6022 1.76163 6.52068 -6.60071 -0.74032 0.126864 -0.241135 -0.397683 -0.197379 -0.169256 -9.9627 -25.6932 -0.135121 -1.2763 -2.10638 -0.000394577 -0.00114189 -0.000104523 31.5955 1.7607 6.52069 -6.64382 -0.811431 0.0915687 -0.241099 -0.39773 -0.197412 31.5955 1.7607 6.52069 -6.64383 -0.811414 0.0915801 -0.241171 -0.397635 -0.197348 
26.982 1 293 10.6557 9.21568 5.18007 0.493577 3.3821 1.39197 0.0276098 -0.874536 0.0176304 0.153053 0.321343 -6.84714 0.0239124 0.015375 -0.632973 4.90181e-05 -0.000223145 -0.000127719 10.6563 9.21896 5.18133 0.498523 3.2257 1.39512 0.0276639 -0.874762 0.0176575 10.6563 9.21896 5.18133 0.498503 3.22578 1.39511 0.0275555 -0.874312 0.0176031 
26.982 1 56 10.8995 7.00891 3.17222 -2.56287 0.997418 1.57632 -0.227625 0.358576 -0.121322 0.972252 2.64169 -40.6475 0.0484042 0.123779 -3.8518 -4.63351e-05 -3.38381e-05 -0.000979401 10.897 7.00978 3.17365 -2.60357 1.06154 1.55462 -0.227638 0.358635 -0.121341 10.897 7.00978 3.17365 -2.60356 1.06152 1.55463 -0.227614 0.358518 -0.121302 
26.982 1 95 12.6065 9.277 2.99062 4.75346 -2.59553 -4.21418 -0.33896 -0.376363 -0.181317 -0.300409 2.53195 -45.8338 -0.0184151 0.0875366 -4.26755 -0.000107899 -8.70431e-05 -0.0010354 12.6113 9.27429 2.98625 4.69284 -2.66285 -4.24661 -0.339039 -0.376528 -0.181394 12.6113 9.27429 2.98625 4.69287 -2.66279 -4.24659 -0.338881 -0.376197 -0.181239 
26.982 1 254 13.1832 7.18822 4.89827 -4.5386 1.30252 -1.41131 -0.247908 -0.0867126 0.0335818 0.0986211 0.0509317 -6.58945 0.0226699 0.036626 -0.67991 -7.90317e-05 -1.68791e-05 -0.00019559 13.1787 7.18939 4.89672 -4.58293 1.28701 -1.4053 -0.247978 -0.0867202 0.0335784 13.1787 7.18939 4.89672 -4.58291 1.28702 -1.4053 -0.247837 -0.0867046 0.0335851 
26.982 1 60 15.0038 7.30589 2.63548 -1.56341 1.54278 -1.08314 0.350887 0.260507 0.108843 -0.220662 1.92226 -41.519 0.00109438 0.169941 -3.85353 8.5317e-05 -5.40358e-05 -0.00100308 15.0023 7.3073 2.63424 -1.50066 1.58937 -1.06367 0.350997 0.260586 0.108899 15.0023 7.3073 2.63424 -1.5007 1.58934 -1.06369 0.350777 0.260427 0.108788 
26.982 1 297 14.8063 9.43022 4.61604 0.659001 5.02508 -1.58758 -0.470255 -0.134059 0.435805 0.121876 0.374612 -7.44563 0.0492059 0.0173147 -0.739592 -8.80636e-05 -0.00010412 -0.000177719 14.807 9.43515 4.61432 0.574912 5.00109 -1.50966 -0.470324 -0.134155 0.435839 14.807 9.43515 4.61432 0.574937 5.00113 -1.50967 -0.470185 -0.133964 0.435772 
26.982 1 99 16.8684 9.44373 2.94652 4.7773 -2.27594 -1.43817 0.699202 -0.595537 -0.627625 -1.85418 2.92307 -43.282 -0.0859754 0.165633 -3.94091 0.000286888 -0.000362833 -0.000861057 16.8732 9.44134 2.94494 4.90236 -2.38245 -1.55041 0.699467 -0.595728 -0.627771 16.8732 9.44134 2.94494 4.90226 -2.38238 -1.55035 0.698937 -0.595351 -0.627482 
26.982 1 258 17.541 7.28023 4.83343 -7.48546 2.11156 -1.68744 0.238455 0.13719 -0.332691 -0.0751406 0.18963 -6.42361 -0.0488057 0.0791018 -0.624591 5.11437e-05 6.54628e-05 -0.00041054 17.5336 7.28221 4.83161 -7.44281 2.13611 -1.74695 0.238502 0.137274 -0.332882 17.5336 7.28221 4.83161 -7.44283 2.13608 -1.74689 0.238408 0.137105 -0.332503 
26.982 1 2 -1.04529 3.52547 1.53254 -7.58099 2.13898 -5.89101 -0.565238 0.310575 -0.0581404 -16.4485 -24.5288 -44.0429 -1.41648 -1.97136 -3.93483 -2.1214e-05 -0.000628638 -0.000787546 -1.0527 3.52745 1.52648 -7.68207 2.19452 -5.90141 -0.565334 0.310638 -0.0581938 -1.0527 3.52745 1.52648 -7.68203 2.1945 -5.90139 -0.565143 0.310512 -0.0580846 
26.982 1 64 19.8344 7.21949 2.9982 -1.25492 2.95353 -2.62792 -0.260608 -0.0960319 0.00946688 1.89896 -2.78216 -43.4659 0.0999739 -0.253109 -4.26121 -0.000151982 2.25246e-05 -0.000986297 19.8331 7.22232 2.99542 -1.30154 2.93638 -2.62623 -0.260737 -0.0959278 0.00948978 19.8331 7.22232 2.99542 -1.30149 2.93634 -2.62624 -0.260479 -0.0961388 0.00944163 