ITEM: TIMESTEP
17000
ITEM: NUMBER OF ATOMS
4000
ITEM: BOX BOUNDS pp pp pp
-3.52931 44.0293
0.955478 39.5445
1.18872 39.3113
ITEM: ATOMS mass type id x y z vx vy vz fx fy fz xrad yrad zrad vxrad vyrad vzrad fxrad fyrad fzrad xub yub zub vxub vyub vzub fxub fyub fzub xlb ylb zlb vxlb vylb vzlb fxlb fylb fzlb 
26.982 1 43 -0.67327 6.90105 3.19057 -2.45014 4.14234 5.47318 -0.0024934 0.288911 1.05159 -18.4475 -9.63544 -29.739 -2.08055 -0.742011 -3.54282 -8.0813e-05 -5.68209e-05 -7.79515e-05 -0.675548 6.90501 3.19607 -2.45057 4.19398 5.66123 -0.00243261 0.288848 1.05176 -0.675548 6.90501 3.19607 -2.45059 4.19401 5.66117 -0.00255407 0.288973 1.05142 
26.982 1 202 -0.758579 3.60779 4.05477 -1.94607 -6.10314 -4.01055 -0.203708 0.649216 0.00597297 -17.2495 -16.9768 -17.7172 -1.92372 -1.85908 -2.07699 -0.000509205 -0.000220452 -0.000199314 -0.760348 3.60144 4.05077 -1.9825 -5.98704 -4.00948 -0.203769 0.649396 0.00599382 -0.760348 3.60144 4.05077 -1.98248 -5.9871 -4.00948 -0.203648 0.649035 0.00595182 
26.982 1 235 36.8307 1.29699 7.41165 -1.19473 0.405069 5.89262 -0.107672 0.287832 0.104857 -1.3498 -24.0525 -15.0539 -0.125525 -2.20944 -1.74323 1.87493e-05 -0.000841763 -2.15932e-05 36.8293 1.29713 7.41756 -1.21399 0.45655 5.9114 -0.107688 0.287934 0.105014 36.8293 1.29713 7.41756 -1.21398 0.456513 5.91134 -0.107656 0.287728 0.104698 
26.982 1 205 1.10775 1.87133 4.50232 2.22072 1.89162 -1.53787 0.490377 0.0964615 0.240372 0.605657 -22.0506 -19.9108 0.070127 -2.70822 -2.4041 1.40169e-05 -0.000491292 -0.000336855 1.11013 1.87296 4.50079 2.30841 1.90888 -1.4949 0.490467 0.0965718 0.240336 1.11013 1.87296 4.50079 2.30838 1.90884 -1.49488 0.490287 0.0963508 0.240409 
26.982 1 2 -1.75632 3.1285 1.42714 4.00196 4.09756 7.3141 -0.0206229 -0.313885 0.467768 -12.0155 -18.5368 -32.4697 -1.45437 -2.01607 -3.7454 -0.000606862 -0.00031801 -0.000539307 -1.75212 3.13236 1.43448 3.9983 4.04144 7.39776 -0.0205068 -0.313919 0.467903 -1.75212 3.13236 1.43448 3.99826 4.04145 7.39771 -0.0207417 -0.313853 0.467632 
26.982 1 245 1.98883 4.79664 4.71121 -5.56195 -6.8261 -3.28329 -0.466 -1.00392 1.54809 -1.81807 -3.91466 -5.88074 -0.217511 -0.397018 -0.762414 -0.000113355 -0.00012283 0.000129987 1.98342 4.78959 4.70794 -5.64529 -7.00561 -3.00647 -0.466124 -1.004 1.5483 1.98342 4.78959 4.70794 -5.64525 -7.00558 -3.00654 -0.465877 -1.00384 1.54789 
26.982 1 8 1.99901 3.59905 2.37891 1.50752 7.28659 3.84126 0.368349 -0.397267 -0.186082 3.24732 -27.0814 -29.9821 0.23357 -2.73582 -3.64391 7.36184e-05 -0.000327114 -0.000795962 2.00067 3.60611 2.38278 1.57337 7.21553 3.80796 0.368343 -0.397431 -0.186218 2.00067 3.60611 2.38278 1.57338 7.21559 3.80801 0.368354 -0.397103 -0.185945 
26.982 1 47 4.46066 4.85811 3.60855 -4.71421 9.99486 1.03177 0.147076 0.0177718 0.219577 -1.26438 -7.60763 -29.7309 -0.0529027 -0.763541 -3.6296 0.000100446 -4.97068e-05 -0.000361286 4.45608 4.8679 3.60959 -4.68791 9.99803 1.07105 0.147122 0.0177161 0.219723 4.45608 4.8679 3.60959 -4.68792 9.99805 1.071 0.147032 0.0178277 0.219434 
26.982 1 206 4.02054 2.21522 4.25663 -7.1428 5.29595 -2.07302 0.0819267 0.491859 0.062942 -0.46276 -24.9968 -16.0362 0.111657 -2.83533 -1.85138 7.96611e-05 -0.00068812 -0.000292491 4.01353 2.22026 4.25457 -7.12815 5.3839 -2.06177 0.081936 0.491901 0.0629323 4.01353 2.22026 4.25457 -7.12816 5.38389 -2.06177 0.081917 0.491819 0.0629522 
26.982 1 249 6.81337 5.43302 5.28067 0.161128 1.48573 -3.33094 -0.335133 -0.479974 0.190327 -0.218168 -3.85692 -4.95752 0.00651666 -0.474548 -0.631181 -3.77812e-05 -0.000187422 -7.2436e-07 6.81365 5.4343 5.27735 0.101203 1.39989 -3.2969 -0.335166 -0.480127 0.190402 6.81365 5.4343 5.27735 0.101215 1.39994 -3.29692 -0.335101 -0.47982 0.190251 
26.982 1 12 6.50995 3.12801 3.27199 2.5227 1.77502 -2.87604 0.34893 0.48006 0.0586272 -4.07756 -31.6653 -26.9543 -0.228367 -3.49376 -3.35318 0.000247994 -0.000414255 -0.00035248 6.5126 3.12954 3.26913 2.58511 1.86085 -2.86554 0.349079 0.480078 0.0586866 6.5126 3.12954 3.26913 2.58506 1.86085 -2.86557 0.348781 0.480044 0.0585684 
26.982 1 51 9.21661 4.37806 2.59135 -5.78703 2.7335 -0.0467765 -0.418611 0.0903618 -0.508836 0.221043 -4.11812 -26.0771 -0.0652258 -0.652275 -3.52194 -0.000237706 -0.000347123 -0.00078942 9.21091 4.38057 2.59132 -5.86189 2.74965 -0.13776 -0.418726 0.0903172 -0.508884 9.21091 4.38057 2.59132 -5.86185 2.74967 -0.137743 -0.418497 0.0904058 -0.508788 
26.982 1 210 8.79536 3.05179 4.90509 -11.2827 -2.22495 3.99933 0.521914 0.00908489 0.283995 1.354 -24.4132 -14.0654 0.0858148 -2.86429 -1.71989 0.000123029 -0.000436551 -0.000201231 8.78417 3.04932 4.90911 -11.1894 -2.22334 4.05011 0.522057 0.00902539 0.284047 8.78417 3.04932 4.90911 -11.1895 -2.22332 4.05009 0.521771 0.00914329 0.283941 
26.982 1 212 6.53731 2.54712 6.29844 1.5631 5.63121 -1.86223 -0.0943096 0.0965407 0.0723146 -0.497381 -32.6392 1.2113 0.0817119 -4.04186 0.0227337 1.42958e-06 -0.000900645 -3.69468e-05 6.53899 2.5525 6.29658 1.54624 5.64848 -1.84929 -0.0943115 0.0965724 0.0723688 6.53899 2.5525 6.29658 1.54624 5.64846 -1.84931 -0.0943107 0.0965083 0.072261 
26.982 1 253 11.4001 4.44934 4.53241 -0.636374 5.7721 4.92469 -0.12666 -0.0901837 -0.282631 0.182344 -4.32133 -5.10666 -0.0369948 -0.538939 -0.677827 -2.41647e-05 -0.000213255 -9.62682e-05 11.3995 4.4549 4.53735 -0.659023 5.75596 4.87417 -0.126675 -0.0902829 -0.282611 11.3995 4.4549 4.53735 -0.659017 5.756 4.87416 -0.126645 -0.0900844 -0.28265 
26.982 1 16 11.204 2.35455 2.60344 -0.157064 -5.36902 -2.54561 0.376139 0.0362021 0.0530292 3.31149 -32.0745 -25.9697 -0.000832832 -3.68549 -3.12533 -0.000163776 -0.000848724 -0.000532227 11.2039 2.34892 2.6009 -0.0898017 -5.36255 -2.5361 0.376208 0.0361687 0.0531414 11.2039 2.34892 2.6009 -0.0898259 -5.36254 -2.53614 0.376073 0.0362363 0.052917 
26.982 1 214 13.4436 2.24871 4.3919 -2.49491 -0.617217 4.76821 0.11567 0.307965 -0.231672 0.884037 -26.4026 -14.6756 -0.0209695 -3.02682 -1.66207 -6.18337e-05 -0.000633151 -0.00043059 13.4411 2.24784 4.39668 -2.47423 -0.562135 4.72677 0.11568 0.308074 -0.231773 13.4411 2.24784 4.39668 -2.47423 -0.562174 4.7268 0.115661 0.307857 -0.231571 
26.982 1 18 18.1834 3.06998 1.41246 1.56125 -2.72109 2.23305 0.458628 -0.579537 -0.289103 -1.11066 -18.0901 -37.8173 -0.00161909 -1.96125 -3.88995 4.58723e-05 -0.000449726 -0.000864898 18.185 3.06702 1.4147 1.64326 -2.82473 2.18136 0.458686 -0.579623 -0.289151 18.185 3.06702 1.4147 1.64324 -2.8247 2.18137 0.458572 -0.579451 -0.289055 
26.982 1 55 13.9474 5.26523 3.19352 1.38028 -0.174988 -2.73635 0.28474 -0.0989116 0.243552 0.490997 -6.69794 -29.9191 0.00161401 -0.525046 -3.353 1.43333e-05 4.46914e-05 -0.00037344 13.9488 5.26484 3.1908 1.43119 -0.192679 -2.69279 0.284791 -0.0989461 0.243629 13.9488 5.26484 3.1908 1.43118 -0.192667 -2.69282 0.284688 -0.0988782 0.243473 
26.982 1 20 16.2451 2.78281 3.59427 -1.57442 3.13552 2.25908 -0.401507 -0.297225 -0.811976 -4.54053 -31.5423 -25.754 -0.165758 -3.42289 -2.95626 -4.95555e-05 -0.000849016 -0.000478467 16.2436 2.78571 3.59655 -1.64624 3.08237 2.11388 -0.401707 -0.29725 -0.812103 16.2436 2.78571 3.59655 -1.64617 3.08238 2.11393 -0.401307 -0.297199 -0.811849 
26.982 1 257 16.2744 4.89043 5.03959 -0.304223 0.637555 -6.08377 -0.355902 0.595633 0.863919 -0.147503 -4.40798 -5.22861 -0.025896 -0.467244 -0.615259 -0.000164306 2.73891e-05 2.95852e-05 16.2741 4.89084 5.03352 -0.367886 0.744068 -5.92929 -0.356078 0.595728 0.864024 16.2741 4.89084 5.03352 -0.367823 0.744034 -5.92933 -0.355726 0.595538 0.863814 
26.982 1 57 16.281 4.90439 1.42178 -0.0656371 3.7977 -5.37267 -0.373334 0.182668 0.327214 -1.43824 -4.29443 -34.0398 0.0392475 -0.376463 -3.81266 -0.000211014 9.42207e-05 -0.000990088 16.281 4.90797 1.41641 -0.132416 3.83037 -5.31415 -0.373502 0.182761 0.327285 16.281 4.90797 1.41641 -0.132356 3.83034 -5.31418 -0.373165 0.182576 0.327141 
26.982 1 14 14.1498 3.02974 1.6237 -4.6101 3.53828 2.17202 0.0817361 -0.112983 0.491899 1.27111 -19.5855 -26.7567 0.00199195 -2.22272 -3.6422 -6.94764e-05 -0.000569146 -0.000829942 14.1452 3.03304 1.62589 -4.59548 3.51808 2.26 0.0817228 -0.11299 0.492078 14.1452 3.03304 1.62589 -4.59548 3.51808 2.25994 0.0817511 -0.112975 0.491721 
26.982 1 35 36.8306 1.09436 3.48604 1.61418 -0.428646 5.37189 -0.127053 0.66354 -0.408334 1.29059 -36.6465 -29.3521 0.0399698 -3.65681 -3.40826 3.01446e-06 -0.000965015 -0.000178497 36.8321 1.09366 3.49143 1.59146 -0.309986 5.29888 -0.127056 0.663673 -0.408347 36.8321 1.09366 3.49143 1.59147 -0.310033 5.29889 -0.12705 0.663408 -0.408321 
26.982 1 218 18.447 2.8641 5.1292 -7.34105 -2.05741 -7.6011 -0.172569 0.278864 0.157485 -1.32149 -25.3569 -12.7947 -0.105619 -2.7825 -1.56376 9.71503e-05 -0.000586126 -0.000259307 18.4397 2.8618 5.1216 -7.37191 -2.00754 -7.57292 -0.172616 0.278895 0.157584 18.4397 2.8618 5.1216 -7.37189 -2.00756 -7.57296 -0.172522 0.278833 0.157388 
26.982 1 59 18.3893 4.96157 3.36314 1.20054 3.12265 -6.05476 0.132124 0.0840457 -0.618006 1.10994 -2.71736 -28.009 0.203537 -0.38029 -3.54496 0.000158813 -3.37128e-05 -0.000452343 18.3905 4.96447 3.3571 1.22416 3.13769 -6.16526 0.132125 0.0841235 -0.618084 18.3905 4.96447 3.3571 1.22416 3.13766 -6.16524 0.132125 0.0839688 -0.617929 
26.982 1 24 20.4454 2.95875 2.99816 -3.03319 1.41617 0.908346 0.0929433 -0.225016 0.318493 1.78943 -26.8386 -25.065 0.0992276 -2.95861 -3.34855 0.000240182 -0.00046812 -0.00044047 20.4424 2.95993 2.99908 -3.01657 1.37593 0.965305 0.0929678 -0.225093 0.318574 20.4424 2.95993 2.99908 -3.01658 1.37596 0.965276 0.0929186 -0.224939 0.318412 
26.982 1 261 20.5705 4.82664 5.06746 -0.0746096 2.40123 0.712432 -0.326359 -0.088355 -0.442788 0.229271 -3.80986 -5.67852 0.00462959 -0.433337 -0.747766 -1.97336e-05 -0.000117078 -0.000156954 20.5704 4.82883 5.06818 -0.132968 2.38544 0.633265 -0.326403 -0.0883515 -0.442789 20.5704 4.82883 5.06818 -0.132952 2.38544 0.633266 -0.326316 -0.0883585 -0.442787 
26.982 1 1198 41.2172 17.9368 19.6711 -2.09372 1.09077 8.11159 -0.173561 -0.163586 -0.292175 -6.21513 -11.5228 -20.5031 -0.746023 -0.976936 -1.77747 -0.000262329 -7.9519e-05 0.000164426 41.2149 17.9379 19.6792 -2.12477 1.06151 8.05934 -0.173635 -0.163651 -0.292226 41.2149 17.9379 19.6792 -2.12474 1.06153 8.05936 -0.173485 -0.163519 -0.292123 
26.982 1 5 0.45016 1.25714 1.98403 -1.25071 2.14139 -6.81327 -0.154085 -0.143079 -0.644848 1.15091 -13.8545 -22.1574 0.203956 -1.70808 -2.68256 -7.13715e-05 -0.000727244 -0.00060118 0.44908 1.25902 1.97722 -1.27823 2.11582 -6.92861 -0.15394 -0.143016 -0.645068 0.44908 1.25902 1.97722 -1.27829 2.11579 -6.92853 -0.154234 -0.143145 -0.644629 
26.982 1 63 22.5913 4.77939 3.00461 3.71766 2.25226 -2.55702 0.161034 -0.18988 -0.103855 1.04732 -2.53818 -32.8772 0.0685331 -0.369675 -4.10897 6.6345e-05 -0.000122336 -0.000982059 22.595 4.78142 3.00206 3.74647 2.21831 -2.57559 0.161117 -0.189873 -0.103871 22.595 4.78142 3.00206 3.74644 2.21831 -2.57558 0.16095 -0.189888 -0.103838 
26.982 1 222 22.6232 2.69666 4.83125 2.42825 0.200508 -4.26736 -0.46909 0.636533 0.416173 -0.450281 -23.5073 -13.5776 0.0353618 -2.65657 -1.60743 2.27735e-05 -0.000752477 -0.000288107 22.6256 2.69661 4.827 2.34438 0.314335 -4.19294 -0.469137 0.636634 0.416281 22.6256 2.69661 4.82699 2.34439 0.314299 -4.19297 -0.469046 0.636435 0.416065 
26.982 1 28 24.8871 2.54398 3.01198 0.306527 -0.308363 -5.61598 0.0752108 0.132801 -0.378981 -1.26343 -23.1748 -28.767 -0.054907 -2.81474 -3.48058 -0.000270003 -0.000648266 -0.000712884 24.8873 2.54342 3.00637 0.31998 -0.284612 -5.68375 0.075243 0.13284 -0.379007 24.8873 2.54342 3.00637 0.319969 -0.284625 -5.68374 0.0751789 0.132765 -0.378954 
26.982 1 265 25.0451 4.4336 4.99887 -4.08802 2.86414 -2.3681 -0.751946 0.231455 -0.348825 0.0291483 -3.48161 -6.38618 0.0123252 -0.452485 -0.806467 -0.000176959 -8.33937e-05 -0.000245904 25.041 4.43625 4.99651 -4.22248 2.90553 -2.43048 -0.752082 0.231528 -0.348903 25.041 4.43625 4.99651 -4.22244 2.90551 -2.43045 -0.751812 0.231381 -0.348749 
26.982 1 1161 43.493 16.0246 19.1912 0.505919 7.51741 -1.14877 0.0634114 -0.165222 0.513608 -17.7641 -16.6779 -13.3588 -1.52676 -1.79393 -1.59443 0.000432026 -0.000342291 -5.84752e-05 43.4933 16.0321 19.19 0.517272 7.48785 -1.05692 0.0635005 -0.165337 0.513695 43.4933 16.0321 19.19 0.51724 7.48789 -1.05695 0.0633214 -0.165105 0.513522 
26.982 1 34 36.6706 3.048 1.48577 -0.918425 -1.02583 2.58265 0.0126285 0.058321 -0.287776 1.12683 -14.713 -33.8373 -0.108505 -1.97541 -3.9013 -0.000168845 7.95427e-05 -0.00101212 36.6695 3.04673 1.48837 -0.916162 -1.0154 2.53119 0.0126549 0.0583699 -0.287816 36.6695 3.04673 1.48837 -0.916172 -1.01542 2.5312 0.0126029 0.0582714 -0.287734 
26.982 1 67 27.1582 4.26264 2.74857 0.682544 0.522008 -2.46421 -0.243539 0.429438 0.018234 1.50395 -1.29152 -37.3837 0.141908 -0.248785 -4.40075 -0.000209214 6.24466e-05 -0.000955454 27.1588 4.26293 2.74611 0.638994 0.598812 -2.46096 -0.243577 0.429572 0.0181822 27.1588 4.26293 2.74611 0.639008 0.598765 -2.46094 -0.2435 0.429305 0.0182871 
26.982 1 226 27.0598 2.72045 5.09232 4.01408 3.22236 -2.00643 0.0878823 -0.343038 0.234394 0.106309 -20.8293 -11.67 -0.0310489 -2.63616 -1.56072 -0.000105222 -0.000709428 -0.000174617 27.0638 2.72343 5.09032 4.0298 3.161 -1.96453 0.0878983 -0.343215 0.234352 27.0638 2.72343 5.09032 4.02979 3.16106 -1.96451 0.0878664 -0.342859 0.234435 
26.982 1 32 29.6188 3.39617 2.18483 -1.9191 4.04078 -1.31028 0.238067 -0.11397 0.854058 0.379715 -20.8073 -31.0897 0.0603857 -2.56232 -3.77301 -2.8076e-05 -0.000327864 -0.000899832 29.6168 3.39997 2.18353 -1.87655 4.02039 -1.15755 0.23802 -0.114013 0.854218 29.6168 3.39997 2.18353 -1.87653 4.02041 -1.15761 0.238113 -0.113928 0.853896 
26.982 1 269 29.2894 4.42289 4.85353 -4.32609 2.06946 -3.51996 -0.497364 -0.130095 -0.476758 -0.19111 -3.18017 -6.99425 -0.0184217 -0.437864 -0.867731 -0.000135557 -7.53354e-05 -0.000256369 29.285 4.42473 4.85002 -4.41504 2.0462 -3.60522 -0.497492 -0.130118 -0.476899 29.285 4.42473 4.85002 -4.41499 2.0462 -3.60517 -0.497235 -0.130071 -0.476616 
26.982 1 2427 27.8328 19.8613 10.8828 -4.99268 9.24539 3.70381 -0.58268 -0.101861 0.258854 -7.23823 2.99801 -22.6835 -0.964831 0.41202 -2.65448 -0.000144528 0.000563511 -0.000121948 27.8278 19.8706 10.8865 -5.09689 9.22716 3.75013 -0.582839 -0.101917 0.259026 27.8278 19.8706 10.8865 -5.09683 9.22718 3.75006 -0.58252 -0.101805 0.258681 
26.982 1 71 31.956 4.99421 2.26603 -0.847766 -3.2313 -5.50385 -0.3658 0.660537 -0.156327 -3.13013 -2.39655 -34.276 -0.32324 -0.458637 -4.18005 4.84416e-05 0.000242936 -0.000983995 31.955 4.99076 2.26054 -0.913184 -3.11318 -5.53181 -0.36589 0.660688 -0.156354 31.955 4.99076 2.26054 -0.913152 -3.11323 -5.5318 -0.36571 0.660387 -0.1563 
26.982 1 230 31.6384 3.2955 4.26606 -1.81236 -0.345029 -0.189687 0.313298 -0.465063 0.125448 -1.37311 -21.0804 -12.5396 -0.0979404 -2.58721 -1.60398 0.000137503 -0.000597275 -0.000204518 31.6365 3.29492 4.26588 -1.75633 -0.42821 -0.167243 0.313355 -0.465232 0.12553 31.6365 3.29492 4.26588 -1.75635 -0.428149 -0.167272 0.313242 -0.464894 0.125367 
26.982 1 273 33.7783 4.94848 5.10755 -1.64287 1.17955 2.80433 0.621701 -0.642764 -0.170576 -0.0978238 -2.80312 -5.64823 0.00169936 -0.385888 -0.693786 0.000137797 -0.000124634 -0.000130209 33.7765 4.94945 5.11038 -1.53169 1.06461 2.77383 0.62184 -0.642862 -0.170591 33.7765 4.94945 5.11038 -1.53174 1.06465 2.77384 0.621563 -0.642666 -0.170561 
26.982 1 36 34.4947 2.8078 3.40008 1.77945 -1.99471 1.47494 -0.0926889 0.207482 0.31091 -2.24524 -23.2692 -29.6259 -0.313122 -2.88049 -3.4914 -0.000224804 -0.000201245 -0.000201279 34.4964 2.80556 3.40157 1.76288 -1.95761 1.53056 -0.0927056 0.207533 0.311077 34.4964 2.80556 3.40157 1.76288 -1.95763 1.5305 -0.0926716 0.20743 0.310743 
26.982 1 833 32.943 1.42545 15.786 -2.19662 -2.5223 -4.73758 -0.0865062 -0.564159 0.0449024 1.44541 -25.3364 -18.2127 0.176593 -2.78552 -2.06781 2.7735e-05 -0.0011423 -8.42143e-05 32.9407 1.42266 15.7813 -2.21208 -2.6232 -4.72957 -0.0864472 -0.56431 0.0447936 32.9407 1.42266 15.7813 -2.2121 -2.62314 -4.72953 -0.086567 -0.564008 0.0450138 
26.982 1 2823 23.5693 19.3585 18.8787 -0.985982 1.6111 1.46375 0.125655 0.0469889 0.233973 -10.875 -5.46747 -19.0401 -1.5371 -0.388516 -1.97964 -0.000251873 0.000289211 0.000211986 23.5683 19.3601 18.8802 -0.96352 1.6195 1.50561 0.125633 0.0469859 0.234091 23.5683 19.3601 18.8802 -0.963512 1.6195 1.50557 0.125677 0.0469926 0.233855 
26.982 1 75 36.1746 5.15518 3.35252 5.24147 -2.60582 7.13033 0.377001 -0.13052 0.216676 1.93447 -2.03845 -32.9646 0.00798175 -0.248528 -3.69558 -0.000129277 -7.04339e-05 -0.000379857 36.1797 5.15236 3.35967 5.30889 -2.62916 7.16909 0.377092 -0.130534 0.216766 36.1797 5.15236 3.35967 5.30886 -2.62915 7.16906 0.376911 -0.130507 0.216585 
26.982 1 234 36.2893 3.26046 5.50319 -8.35841 -1.4423 0.235517 0.238914 0.258127 -0.083022 0.147612 -17.9336 -10.5168 -0.0871243 -2.25207 -1.30378 -2.40362e-05 -0.000302221 3.88801e-05 36.2808 3.25877 5.50343 -8.31568 -1.39613 0.220686 0.23904 0.258223 -0.0829537 36.2808 3.25877 5.50343 -8.31572 -1.39617 0.220661 0.238788 0.25803 -0.0830938 
26.982 1 40 38.7069 3.35647 3.28972 4.85532 -1.71776 -6.44669 0.0463311 0.244993 0.218371 5.51604 -23.7974 -33.2693 0.349901 -2.84627 -3.5496 2.09744e-06 -8.20004e-05 -0.000149508 38.7116 3.35452 3.28328 4.8636 -1.67395 -6.40763 0.0463496 0.245063 0.218457 38.7116 3.35452 3.28328 4.8636 -1.67397 -6.40766 0.0463111 0.244921 0.218284 
26.982 1 277 39.654 4.11156 5.92437 6.28012 -3.8636 -3.07255 -0.188169 0.162236 0.269864 0.322168 -2.98846 -6.22666 0.0272885 -0.374774 -0.636738 -7.72947e-05 -0.000119948 8.37607e-05 39.6601 4.10746 5.92131 6.24646 -3.83459 -3.02429 -0.18827 0.162234 0.269941 39.6601 4.10746 5.92131 6.2465 -3.83459 -3.02431 -0.188068 0.162238 0.269786 
26.982 1 33 34.7463 1.032 1.35579 5.08324 2.45717 -2.48642 0.139241 -0.431046 0.0730979 -0.282155 -15.1935 -27.6924 -0.117446 -1.48653 -3.16428 -0.000123032 -0.000754574 -0.000638046 34.7513 1.03419 1.35332 5.10814 2.38009 -2.47335 0.139282 -0.431145 0.0731004 34.7513 1.03419 1.35332 5.10813 2.38012 -2.47335 0.139201 -0.430949 0.0730948 
26.982 1 2025 25.3917 20.0309 1.25494 -0.591877 9.59594 0.0963402 0.252127 0.780511 -0.169677 -5.94358 -2.41102 -36.0692 -0.643174 -0.336359 -3.89151 2.92362e-05 -4.96728e-05 -0.00107269 25.3911 20.0405 1.25505 -0.546805 9.73553 0.0660082 0.252093 0.78073 -0.16965 25.3911 20.0405 1.25505 -0.546793 9.73545 0.0659987 0.252163 0.780291 -0.169703 
26.982 1 237 38.7552 1.68882 5.36804 -3.26305 -4.54923 -0.308903 0.17288 -0.75671 0.150865 2.83726 -25.9585 -21.2093 0.213962 -2.9371 -2.42154 -5.78886e-05 -0.000503549 -0.00014763 38.7518 1.684 5.36774 -3.23213 -4.68453 -0.281916 0.172935 -0.75673 0.15094 38.7518 1.684 5.36774 -3.23215 -4.68453 -0.281943 0.172824 -0.756692 0.150788 
26.982 1 37 39.0169 1.43316 1.41365 1.11647 -3.95767 -4.76058 -0.182655 -0.117321 -0.0950826 0.405853 -18.3913 -26.1267 0.0120356 -1.95369 -3.09683 8.50045e-05 -0.000740852 -0.00078562 39.0179 1.42894 1.4089 1.08381 -3.97864 -4.77758 -0.182656 -0.117313 -0.095084 39.0179 1.42894 1.4089 1.08381 -3.97865 -4.77758 -0.182654 -0.117332 -0.0950817 
26.982 1 41 43.4656 4.87665 1.70758 -3.72572 -1.64761 -3.20429 0.286183 -0.209159 -0.277592 -10.3702 -11.1225 -24.0339 -1.03136 -0.992324 -3.06467 0.000185439 0.000128919 -0.000872806 43.4617 4.87478 1.70438 -3.67453 -1.685 -3.2539 0.286295 -0.209106 -0.277516 43.4617 4.87478 1.70438 -3.67457 -1.68502 -3.25393 0.286072 -0.209211 -0.277669 
26.982 1 4 44.1015 2.94132 3.8151 7.44507 -0.0563337 4.03614 -0.142841 -0.0337339 -0.0140623 -19.4033 -21.4754 -25.3923 -1.98897 -2.41148 -2.7554 0.000133628 -0.000480046 -0.00016375 44.1088 2.94102 3.81915 7.41953 -0.0623582 4.03364 -0.142842 -0.0336951 -0.0140261 44.1088 2.94102 3.81915 7.41953 -0.0623722 4.03362 -0.14284 -0.0337734 -0.0140988 
26.982 1 241 -3.02734 5.82871 3.87968 2.45248 3.53227 0.842736 0.0928409 -0.0837041 0.703996 -13.3307 -13.7583 -16.8041 -1.15174 -1.32139 -1.7132 -0.000832603 -0.000411643 -0.000290197 -3.02468 5.83204 3.88054 2.46907 3.51728 0.968638 0.0928197 -0.0838315 0.704186 -3.02468 5.83204 3.88054 2.46908 3.51732 0.96857 0.0928601 -0.0835806 0.703806 
26.982 1 79 41.6913 4.54213 3.98577 0.141133 0.734288 -1.61186 0.134539 0.44945 -0.095225 -0.850771 -4.48256 -35.0734 0.0422349 -0.369815 -3.76254 3.6524e-05 8.71588e-05 -5.0675e-05 41.6912 4.54264 3.98417 0.165191 0.814668 -1.62888 0.134562 0.449568 -0.0951653 41.6912 4.54264 3.98417 0.165183 0.814626 -1.6289 0.134517 0.449333 -0.0952851 
26.982 1 238 42.065 2.68316 5.91306 -4.76366 0.975583 -1.28054 -0.13161 -0.139717 0.321264 0.42459 -22.1913 -14.8349 0.159398 -2.6811 -1.54648 2.64615e-06 -0.000557455 0.000138576 42.06 2.68389 5.91179 -4.78719 0.950606 -1.22308 -0.131612 -0.139702 0.321366 42.06 2.68389 5.91179 -4.78719 0.9506 -1.22312 -0.131608 -0.139734 0.32116 
26.982 1 142 21.2569 15.2496 1.92287 3.8292 -2.83365 -6.76995 0.252384 -0.230827 0.407323 3.38795 -0.120738 -46.3405 0.227591 -0.0339477 -5.07257 0.000196566 -2.10452e-05 -0.000998773 21.2608 15.2467 1.91611 3.87436 -2.87493 -6.69711 0.252582 -0.230914 0.407376 21.2608 15.2467 1.91611 3.87429 -2.8749 -6.69713 0.252187 -0.230741 0.407267 
26.982 1 39 41.0822 1.72697 3.40065 2.79757 4.12353 -1.13149 0.107515 0.0401143 0.0577342 -3.73917 -16.1776 -30.0596 -0.275711 -2.32419 -3.28001 0.000135125 -0.000699779 -0.000314821 41.0848 1.73083 3.39953 2.8168 4.13071 -1.12115 0.107574 0.0401477 0.0578095 41.0848 1.73083 3.39953 2.81678 4.1307 -1.12118 0.107456 0.040079 0.0576576 
26.982 1 90 8.93061 10.9672 1.22498 1.15655 2.11913 -7.0675 0.0659623 0.75103 1.13671 2.77929 -0.791117 -29.8853 0.347245 -0.0742183 -3.6391 0.000329488 0.00013261 -0.00105101 8.93186 10.9692 1.21792 1.16834 2.25342 -6.86424 0.0659552 0.751079 1.13687 8.93186 10.9692 1.21792 1.16835 2.2534 -6.8643 0.0659701 0.750983 1.13655 
26.982 1 83 -0.207497 9.50251 3.57005 -3.53799 -2.66593 0.387914 0.00902965 -0.0444855 -0.17076 -20.6585 -7.9356 -30.3461 -2.07833 -1.01954 -3.75035 -0.000136877 6.39684e-05 -0.00036085 -0.210862 9.49969 3.57045 -3.53637 -2.67389 0.357385 0.00904655 -0.0445077 -0.170751 -0.210862 9.49969 3.57045 -3.53638 -2.67388 0.357382 0.00901001 -0.0444626 -0.17077 
26.982 1 242 -0.642385 6.06585 5.714 1.39227 2.31224 -3.4627 0.109363 0.0610671 0.302527 -21.6353 -1.37781 -13.3681 -2.3422 -0.20302 -1.48378 -0.000140067 2.98783e-05 -4.31885e-05 -0.640814 6.06797 5.71055 1.41182 2.32317 -3.40862 0.109356 0.0611239 0.30249 -0.640814 6.06797 5.71055 1.41183 2.32315 -3.4086 0.10937 0.0610091 0.302564 
26.982 1 281 -2.55055 8.13946 5.72201 -2.47007 -4.49102 6.57088 0.254403 -0.23898 0.621849 -14.209 -13.8643 -17.7111 -1.53558 -1.49001 -2.01489 -0.000508061 -0.000188329 0.000111535 -2.55282 8.13479 5.7286 -2.42457 -4.53377 6.68208 0.254504 -0.239095 0.621938 -2.55282 8.13479 5.7286 -2.4246 -4.53373 6.68205 0.254302 -0.238865 0.621761 
26.982 1 282 -1.83896 11.1507 4.65263 -1.06843 3.40437 -2.61539 -0.286808 0.313276 -0.181331 -18.8914 -0.515571 -10.5608 -2.05291 -0.0834656 -1.30014 -0.000530732 0.000182341 -0.000355457 -1.83985 11.154 4.65003 -1.1197 3.46038 -2.64782 -0.286803 0.313272 -0.18139 -1.83985 11.154 4.65003 -1.11971 3.46038 -2.6478 -0.286813 0.313282 -0.181271 
26.982 1 48 2.22421 6.34376 2.85509 7.88684 -1.17427 -1.68843 -0.13194 0.93184 -1.20982 -5.55285 -1.64712 -29.0788 -0.579943 -0.0926959 -3.61938 6.78794e-05 0.000128796 -0.000675205 2.23226 6.34239 2.85342 7.86323 -1.00763 -1.90478 -0.132049 0.932011 -1.21007 2.23226 6.34239 2.85342 7.86327 -1.00769 -1.90469 -0.13183 0.931669 -1.20956 
26.982 1 285 1.68809 8.26158 5.13393 -0.0796317 -5.1001 -0.736133 -0.168816 -0.593509 0.413504 -2.44803 -0.399268 -4.63712 -0.217607 -0.0259569 -0.616674 -3.31273e-06 4.52622e-05 0.000224051 1.68817 8.25631 5.13321 -0.109816 -5.20621 -0.662154 -0.168824 -0.593469 0.413773 1.68817 8.25631 5.13321 -0.109813 -5.20622 -0.66225 -0.168807 -0.59355 0.413237 
26.982 1 87 4.56712 7.68902 2.71472 -1.22802 5.27156 4.05731 0.710603 -0.125273 0.683381 -0.492878 -0.332392 -26.6914 -0.177183 -0.072614 -3.47069 5.43393e-05 -8.78228e-05 -0.000777891 4.56602 7.69411 2.7188 -1.10096 5.24917 4.17951 0.710648 -0.125216 0.683452 4.56602 7.69411 2.7188 -1.10097 5.24915 4.17948 0.710559 -0.12533 0.683315 
26.982 1 246 4.30649 7.09608 5.37023 0.507689 -3.26787 1.39643 -0.038951 -0.117954 0.428364 -0.104254 -0.297995 -4.1051 -0.0310127 -0.019268 -0.552967 -4.97862e-05 9.23359e-05 0.000130407 4.30713 7.09262 5.37164 0.500716 -3.28895 1.47305 -0.0390017 -0.117857 0.428546 4.30713 7.09262 5.37164 0.500734 -3.28898 1.47299 -0.038898 -0.118052 0.428183 
26.982 1 88 2.52215 9.14796 2.84355 -8.19201 0.498371 2.30741 -0.380551 0.931255 -0.290746 -5.37132 -1.20233 -27.5057 -0.490182 -0.188335 -3.5057 -6.3496e-05 0.0002466 -0.000505179 2.51411 9.14831 2.84588 -8.26007 0.664909 2.25544 -0.380672 0.931452 -0.290683 2.51411 9.14831 2.84588 -8.26003 0.664838 2.25542 -0.380429 0.931059 -0.290809 
26.982 1 286 4.62661 9.90864 4.9005 5.4551 0.461565 -1.03987 -0.179405 -0.362892 -0.314408 -0.113084 0.0236312 -3.72488 -0.0681401 0.00892134 -0.498695 -0.000186118 -5.05907e-06 2.96217e-05 4.6322 9.90895 4.89947 5.42299 0.396683 -1.09607 -0.179587 -0.36289 -0.314319 4.6322 9.90895 4.89947 5.42306 0.396681 -1.0961 -0.179222 -0.362896 -0.314496 
26.982 1 86 4.78701 10.4392 1.91946 -8.82289 0.198446 -1.65909 0.201388 -0.562468 -0.519148 -0.74775 -1.01778 -38.0662 -0.204248 -0.161419 -4.06171 -8.9575e-05 -0.000156973 -0.000972399 4.77831 10.4393 1.91781 -8.78688 0.0978712 -1.75192 0.201423 -0.562517 -0.519192 4.77831 10.4393 1.91781 -8.78689 0.0978895 -1.7519 0.201355 -0.562415 -0.519102 
26.982 1 289 6.86411 8.17392 4.58226 1.57091 2.5392 4.04144 0.214873 0.192991 -0.150097 0.154063 0.0138768 -4.04296 -0.0284597 -0.0124737 -0.513875 3.64194e-05 9.42979e-05 -9.86969e-05 6.8658 8.17629 4.58632 1.60934 2.57372 4.0146 0.214917 0.193103 -0.150103 6.8658 8.17629 4.58632 1.60932 2.57368 4.0146 0.214831 0.192881 -0.15009 
26.982 1 52 6.68949 6.13271 2.52676 -3.83289 -4.47435 -2.17326 0.88748 -0.306234 0.0670844 0.249077 -0.48707 -26.8808 -0.0465738 -0.234405 -3.53149 5.46208e-05 -0.000232161 -0.00086783 6.68577 6.12803 2.52461 -3.67418 -4.52911 -2.16126 0.887698 -0.30629 0.067102 6.68577 6.12803 2.52461 -3.67425 -4.52909 -2.16127 0.887263 -0.306176 0.0670696 
26.982 1 91 9.64256 9.09669 3.53743 1.51157 -1.01272 -2.72098 -0.79126 -0.625361 -0.0389624 2.39772 1.37728 -30.3982 0.208329 0.0433605 -3.404 -4.41256e-06 -5.20271e-05 -0.000370422 9.64416 9.09551 3.53472 1.37007 -1.12455 -2.72794 -0.791439 -0.625444 -0.0389396 9.64416 9.09551 3.53472 1.37013 -1.12452 -2.72795 -0.791081 -0.625279 -0.0389854 
26.982 1 250 9.18433 6.39204 4.41728 -0.66497 -0.782156 -3.73478 0.0472869 0.10744 -0.35634 0.158014 -0.0565131 -4.16854 -0.01282 -0.078326 -0.571525 -4.59949e-05 -2.29238e-05 -0.000224246 9.18376 6.39106 4.41355 -0.656523 -0.762948 -3.79851 0.047242 0.107428 -0.356445 9.18376 6.39106 4.41355 -0.656507 -0.762944 -3.79847 0.0473314 0.107454 -0.356235 
26.982 1 89 7.20115 8.81913 1.67542 3.67978 5.94841 2.34492 -0.25398 -0.125136 0.292954 1.55117 0.721617 -36.8218 0.104124 -0.088553 -4.38333 -7.35588e-05 -0.000160948 -0.000952781 7.20495 8.82492 1.67778 3.63436 5.92602 2.39731 -0.254035 -0.125179 0.293012 7.20495 8.82492 1.67778 3.63438 5.92604 2.39729 -0.253923 -0.125091 0.2929 
26.982 1 50 9.49371 7.12898 1.53335 -1.97665 -0.500446 1.93226 0.44867 -0.109344 0.269095 1.32316 0.111416 -35.6491 0.0390029 -0.0619017 -3.8269 7.69395e-05 2.93841e-05 -0.00102962 9.49182 7.1283 1.5353 -1.89642 -0.520003 1.98037 0.448747 -0.109384 0.269101 9.49182 7.1283 1.5353 -1.89645 -0.519989 1.98037 0.448594 -0.109303 0.269092 
26.982 1 293 11.8556 9.3186 5.26747 1.36529 4.78856 -0.755312 -0.130571 0.0209848 0.18182 0.0913591 0.27955 -5.04629 0.0160382 0.0125415 -0.575349 7.81223e-06 6.22724e-05 -4.7683e-05 11.857 9.32324 5.26672 1.34195 4.79232 -0.722791 -0.13057 0.021042 0.181892 11.857 9.32324 5.26672 1.34195 4.7923 -0.722817 -0.130571 0.0209279 0.181749 
26.982 1 56 11.7429 7.06318 3.33711 4.46223 3.2859 -3.11341 0.00920244 0.492538 0.097955 0.786172 2.21298 -29.6941 0.0432139 0.13121 -3.48831 0.000160266 0.00022869 -0.000567342 11.7475 7.06628 3.334 4.46388 3.37397 -3.0959 0.00922443 0.492577 0.0979459 11.7475 7.06628 3.334 4.46387 3.37396 -3.09589 0.00918164 0.4925 0.0979659 
26.982 1 95 13.5569 9.38342 2.90632 1.5799 -7.38597 -3.73379 0.371661 0.155732 0.459243 -0.296075 2.13305 -33.4749 0.0176098 0.179372 -3.93107 -0.000121179 -8.47806e-05 -0.000829836 13.5585 9.37587 2.90259 1.64639 -7.35813 -3.65168 0.37186 0.155707 0.459302 13.5585 9.37587 2.90259 1.64632 -7.35812 -3.6517 0.371462 0.155757 0.459185 
26.982 1 227 27.0585 1.56512 7.80649 -5.46244 7.14163 9.09828 -0.166946 -0.419418 -0.251771 3.07131 -13.4836 -19.982 0.220739 -1.32482 -2.36842 -0.000194688 -0.00107156 -0.000382648 27.0529 1.572 7.81561 -5.4923 7.06659 9.05324 -0.167023 -0.419686 -0.251951 27.0529 1.572 7.81561 -5.49227 7.06669 9.0533 -0.166871 -0.419148 -0.251589 
26.982 1 254 13.9889 7.32816 5.10995 1.81698 -0.913138 1.13805 -0.210982 -0.0600925 0.15072 0.0487666 -0.0296205 -4.70747 0.0111757 0.0185412 -0.582559 6.53364e-06 -2.5662e-05 -9.53684e-05 13.9908 7.32707 5.1111 1.77926 -0.923889 1.165 -0.210958 -0.0601302 0.150727 13.9908 7.32707 5.1111 1.77925 -0.923876 1.16499 -0.211007 -0.0600546 0.150712 
26.982 1 60 16.1326 7.08116 3.34107 -4.36964 2.91927 -1.04527 0.020482 0.25906 -0.0571385 -0.189347 1.38838 -30.3884 0.000476904 0.164336 -3.57565 -0.000171635 0.00013592 -0.00036816 16.1283 7.0839 3.34003 -4.36599 2.96561 -1.05549 0.0203992 0.259182 -0.0571908 16.1283 7.0839 3.34003 -4.36596 2.96557 -1.05547 0.0205647 0.258937 -0.0570868 
26.982 1 297 15.6159 9.57309 4.86118 3.53946 0.048199 2.76522 -0.0550266 0.192624 -0.601407 0.024312 0.323296 -5.3462 0.0133153 0.0110762 -0.655769 4.64403e-05 6.03186e-05 -0.000247028 15.6195 9.57299 4.86396 3.52964 0.0826506 2.65766 -0.0549503 0.192689 -0.601576 15.6195 9.57299 4.86396 3.52961 0.0826273 2.65772 -0.055104 0.192559 -0.601241 