ITEM: TIMESTEP
5000
ITEM: NUMBER OF ATOMS
4000
ITEM: BOX BOUNDS pp pp pp
-1.09041 41.5904
0.271592 40.2284
0.270357 40.2296
ITEM: ATOMS mass type id x y z vx vy vz fx fy fz xrad yrad zrad vxrad vyrad vzrad fxrad fyrad fzrad xub yub zub vxub vyub vzub fxub fyub fzub xlb ylb zlb vxlb vylb vzlb fxlb fylb fzlb 
26.982 1 3 1.06485 0.457026 2.32531 3.14636 -1.98593 -3.7996 -0.138209 -0.921645 0.137545 -1.22195 -3.04019 -1.31953 -0.508842 -1.26528 -0.630656 -0.000284245 -0.000585007 -0.000795923 1.06818 0.454963 2.32149 3.12165 -2.15075 -3.77499 -0.138212 -0.921882 0.137592 1.06818 0.454964 2.32149 3.12165 -2.15067 -3.77501 -0.138207 -0.921406 0.137496 
26.982 1 8 2.95233 2.31467 2.41169 -2.37869 0.0168321 4.65644 0.603796 0.232885 -0.149422 0.455212 -2.58488 -2.05329 0.227462 -1.03068 -0.886697 0.000152164 -0.000259776 -0.00100418 2.95012 2.31462 2.41633 -2.27071 0.0584775 4.62972 0.60389 0.232921 -0.149412 2.95012 2.31462 2.41633 -2.27075 0.0584649 4.62972 0.603702 0.23285 -0.149433 
26.982 1 43 0.936372 4.40923 2.32817 0.189486 7.50444 -3.39216 0.572452 -0.135442 0.320299 -1.43733 -1.15741 -2.62554 -0.676793 -0.442933 -0.898305 -0.000473306 -0.000484545 -0.000551892 0.936745 4.41667 2.32476 0.291859 7.48022 -3.33488 0.572566 -0.135442 0.32037 0.936745 4.41667 2.32476 0.291818 7.48022 -3.3349 0.572338 -0.135443 0.320229 
26.982 1 202 1.02961 2.21878 4.41975 -2.02509 -1.08523 4.23587 0.148919 0.197671 -0.0114323 -1.30891 -1.98554 -1.49569 -0.649854 -0.620718 -0.561847 -0.000441957 6.361e-05 -0.000375517 1.02777 2.21763 4.42398 -1.99846 -1.04988 4.23383 0.148965 0.19767 -0.0114003 1.02777 2.21763 4.42398 -1.99848 -1.04988 4.23382 0.148874 0.197672 -0.0114637 
26.982 1 205 3.29785 0.314267 4.42707 -3.07609 -1.43423 1.35534 -0.147369 -0.271055 -0.186149 -0.0672663 -0.590859 -0.735483 0.0779363 -0.54785 -0.518171 0.000113354 -0.000755823 -0.000635142 3.29493 0.312756 4.42841 -3.10244 -1.4827 1.32206 -0.1474 -0.271131 -0.186161 3.29493 0.312757 4.42841 -3.10243 -1.48268 1.32206 -0.147338 -0.270978 -0.186136 
26.982 1 201 -0.989636 0.220311 4.43715 3.12424 -0.819382 -6.82976 0.0589706 -0.161657 -0.187577 -0.633306 -1.63747 -1.72429 -0.248432 -0.668028 -0.707815 -0.000487751 -0.000242176 -0.000866349 -0.986307 0.219416 4.4303 3.13479 -0.848305 -6.86331 0.0589938 -0.161761 -0.187642 -0.986307 0.219416 4.4303 3.13478 -0.848267 -6.86328 0.0589479 -0.161551 -0.187512 
26.982 1 245 3.09073 4.30234 4.28756 -0.986092 0.062954 -0.807542 0.0791359 0.258531 0.144931 -0.129381 -0.463305 -0.455393 -0.0637731 -0.159642 -0.164956 -5.11795e-05 2.6557e-05 -0.000143004 3.08991 4.30234 4.28674 -0.971938 0.109193 -0.781624 0.0791631 0.258611 0.144955 3.08991 4.30234 4.28674 -0.971948 0.109164 -0.781633 0.0791081 0.258451 0.144907 
26.982 1 47 5.27938 4.2733 2.27612 -0.343739 -0.133087 0.318581 -0.283648 0.357583 -0.0683543 -0.33335 -0.88745 -1.98226 -0.0283623 -0.372306 -0.818234 -0.0003098 2.71965e-06 -0.000785716 5.27917 4.27311 2.27642 -0.394465 -0.069132 0.306367 -0.283707 0.357697 -0.0683109 5.27917 4.27311 2.27642 -0.394444 -0.0691728 0.306351 -0.283589 0.357468 -0.0683985 
26.982 1 206 5.27226 2.38283 4.19727 -1.92652 0.654757 -4.13997 -0.130417 -0.411948 0.203477 -0.396994 -2.63314 -1.43202 0.000615758 -1.04888 -0.588616 -7.43263e-05 -0.000395383 -0.000322819 5.27048 2.38342 4.1931 -1.94984 0.581092 -4.10358 -0.13045 -0.412004 0.203552 5.27048 2.38342 4.1931 -1.94983 0.581112 -4.1036 -0.130383 -0.411892 0.203403 
26.982 1 49 7.32403 4.26976 0.297324 -1.52677 4.25485 -3.1509 -0.0165725 -0.129154 -0.130354 -0.0511237 -0.472909 -3.64963 -0.0204887 -0.247928 -1.21516 -0.000432184 2.79785e-05 -0.00106915 7.32263 4.27396 0.294147 -1.52974 4.23176 -3.17421 -0.0165693 -0.129142 -0.130377 7.32263 4.27396 0.294147 -1.52974 4.23176 -3.17421 -0.0165761 -0.129167 -0.130329 
26.982 1 12 7.22018 2.20803 2.11178 -4.88783 -1.61599 2.69223 0.33677 0.109827 0.289559 -0.376965 -3.21805 -1.80734 -0.170236 -1.31854 -0.787679 -0.000411641 -0.000371731 -0.000352498 7.21541 2.20634 2.11446 -4.8276 -1.59634 2.74402 0.336851 0.109856 0.289653 7.21541 2.20634 2.11446 -4.82763 -1.59635 2.74398 0.33669 0.109799 0.289466 
26.982 1 249 7.33785 4.32665 4.10818 6.10567 3.63248 4.20346 0.15833 0.31141 0.279617 -0.0288301 -0.35297 -0.300874 -0.00916194 -0.166669 -0.138924 5.01338e-05 0.000107801 3.08292e-07 7.34408 4.33023 4.11237 6.134 3.68818 4.25347 0.158411 0.311551 0.279712 7.34408 4.33023 4.11237 6.13397 3.68813 4.25344 0.158249 0.311268 0.279522 
26.982 1 51 9.47605 4.20381 2.04803 0.343201 -1.94238 -1.83072 0.0788279 0.431018 0.336237 -0.0299945 -0.311426 -1.64828 -0.0257883 -0.192796 -0.738751 0.000293647 3.64874e-05 -0.000354532 9.4765 4.2018 2.04618 0.357302 -1.86529 -1.77059 0.0788657 0.431127 0.33633 9.4765 4.2018 2.04618 0.357288 -1.86533 -1.77062 0.0787892 0.430909 0.336143 
26.982 1 210 9.40509 2.53448 4.2467 0.726642 -5.24997 2.69757 0.351693 -0.402201 -0.195114 -0.00897041 -2.16321 -1.31234 -0.0612196 -0.909385 -0.494172 0.000236894 -0.000330855 -0.000124327 9.40592 2.52916 4.24938 0.789533 -5.32189 2.66267 0.351744 -0.402246 -0.195152 9.40592 2.52916 4.24938 0.789515 -5.32187 2.66269 0.351642 -0.402157 -0.195077 
26.982 1 11 9.48351 0.289989 2.11728 -3.42238 -5.61777 -3.08597 0.0659894 -0.195381 0.624451 0.0566221 -0.256745 -2.08922 0.0199277 -0.345375 -0.815168 0.000397059 -0.000975487 -8.26504e-05 9.48018 0.284293 2.11417 -3.41057 -5.65271 -2.9743 0.0660274 -0.195376 0.624572 9.48018 0.284293 2.11417 -3.41059 -5.65271 -2.97434 0.0659508 -0.195386 0.624331 
26.982 1 10 9.29021 2.15166 0.257227 -2.13613 -2.1385 2.21612 0.651763 0.248473 -0.407861 -0.0922924 -2.15998 -3.34688 -0.0829139 -0.797529 -1.31823 0.000433546 -8.33369e-05 -0.00106548 9.28818 2.14945 0.259423 -2.01957 -2.09407 2.14318 0.651895 0.248511 -0.40794 9.28818 2.14945 0.259423 -2.01962 -2.09408 2.14321 0.651628 0.248435 -0.407781 
26.982 1 9 7.37355 0.251047 0.100019 0.034708 0.77488 -0.211684 -0.351626 -0.289903 0.276821 -0.0555546 -1.49663 -1.7639 -0.0807018 -0.364536 -0.987493 -0.000426941 -0.000614264 -0.000580422 7.37371 0.251749 0.0997813 -0.0281779 0.723029 -0.162182 -0.351718 -0.29 0.276863 7.37371 0.251749 0.0997813 -0.0281449 0.723064 -0.162197 -0.351534 -0.289805 0.27678 
26.982 1 209 7.35478 0.306041 4.11707 0.150521 -1.48816 0.193261 0.321236 0.0586543 0.0816642 -0.113901 -2.25893 -2.315 -0.0370098 -0.615227 -0.661398 -0.000122204 -0.000745425 -0.000527861 7.35506 0.304478 4.11724 0.207971 -1.47767 0.207866 0.321312 0.0586687 0.0816818 7.35506 0.304478 4.11724 0.207943 -1.47767 0.20786 0.321159 0.0586399 0.0816469 
26.982 1 16 11.4982 2.19983 2.11303 1.44632 -0.128813 -1.54424 0.2659 0.231293 0.586688 0.514163 -2.97944 -1.96413 0.175591 -1.1151 -0.863895 0.000606011 -0.000469799 -0.000482822 11.4998 2.19963 2.11147 1.49387 -0.0874514 -1.43931 0.26596 0.231333 0.586849 11.4998 2.19963 2.11147 1.49385 -0.0874657 -1.43937 0.265839 0.231253 0.586528 
26.982 1 253 11.7613 4.34107 4.12303 -0.469131 0.142472 2.75076 -0.327521 -0.15848 0.388814 0.029821 -0.330924 -0.308515 0.0121538 -0.140665 -0.143394 -3.27878e-05 -0.000163677 -0.000103143 11.7609 4.34115 4.12576 -0.527706 0.114129 2.82029 -0.327607 -0.158524 0.388902 11.7609 4.34115 4.12576 -0.527675 0.114144 2.82026 -0.327435 -0.158436 0.388726 
26.982 1 55 13.7158 4.4006 2.28512 -2.67296 -3.0299 -1.33566 0.45389 -0.380559 0.308763 -0.0249328 -0.892773 -2.14022 -0.000714551 -0.313583 -0.983776 5.50668e-05 -0.00021036 -0.00101316 13.7132 4.39751 2.28376 -2.5918 -3.09796 -1.28044 0.453939 -0.380652 0.308841 13.7132 4.39751 2.28376 -2.59182 -3.09793 -1.28046 0.453842 -0.380465 0.308686 
26.982 1 214 13.891 2.31051 4.3019 1.21952 -0.850817 1.84388 -0.187179 0.0739239 -0.456712 0.384923 -2.44071 -1.31985 0.132394 -0.948266 -0.499972 -6.71595e-05 -0.000698893 -0.00061813 13.8922 2.30959 4.30372 1.18604 -0.837598 1.76219 -0.187247 0.0739307 -0.456842 13.8922 2.30959 4.30372 1.18606 -0.837601 1.76224 -0.187111 0.0739167 -0.456582 
26.982 1 20 15.9971 2.51698 2.27752 -3.01492 -0.962625 3.60124 -0.305662 -0.274565 -0.0134834 -1.03477 -3.10725 -1.60311 -0.360772 -1.19599 -0.718237 -0.000250679 -0.000700955 -0.000742392 15.9942 2.51595 2.2811 -3.06958 -1.01172 3.59882 -0.305732 -0.27461 -0.0135149 15.9942 2.51595 2.2811 -3.06956 -1.01171 3.59883 -0.305592 -0.27452 -0.0134523 
26.982 1 257 15.9105 4.42404 4.37139 0.265095 3.28069 -0.1052 0.0660734 -0.470484 -0.506412 -0.0465619 -0.447621 -0.268456 -0.0165504 -0.174042 -0.133074 -2.75376e-06 -0.000139481 -0.000298581 15.9109 4.42726 4.37126 0.276911 3.19656 -0.195766 0.066084 -0.470529 -0.506531 15.9109 4.42726 4.37126 0.276907 3.19657 -0.195723 0.0660636 -0.470439 -0.506292 
26.982 1 218 17.9135 2.40457 4.41202 -2.88431 0.601722 -0.0596342 0.463337 -0.136124 -0.174511 -0.251064 -2.31963 -0.762239 -0.103847 -0.92232 -0.330302 -0.000113395 -0.000529313 -0.000420846 17.9107 2.4051 4.41194 -2.80145 0.577384 -0.0908452 0.463431 -0.136124 -0.174562 17.9107 2.4051 4.41194 -2.80149 0.577384 -0.090827 0.463243 -0.136125 -0.17446 
26.982 1 18 18.4118 2.27291 0.261608 0.0719865 -0.712888 -1.41999 -0.53959 0.189036 -0.0541852 -0.220104 -1.73445 -4.05805 -0.0703762 -0.674246 -1.62628 -5.60728e-05 -0.000267444 -0.000750169 18.4119 2.27213 0.260167 -0.0245113 -0.679085 -1.42968 -0.539709 0.189058 -0.0542079 18.4119 2.27213 0.260167 -0.0244685 -0.679092 -1.42967 -0.539469 0.189014 -0.0541625 
26.982 1 59 18.1733 4.10935 2.34101 -4.61296 -4.45845 -1.63688 0.268048 0.406305 -0.183583 0.10784 -0.221887 -1.43567 0.0343359 -0.0829903 -0.672124 6.44964e-05 0.000116597 -0.00080632 18.1687 4.10483 2.33935 -4.56502 -4.38579 -1.6697 0.268128 0.406372 -0.183581 18.1687 4.10483 2.33935 -4.56505 -4.38581 -1.6697 0.267968 0.406239 -0.183586 
26.982 1 261 20.3262 4.33696 4.34487 3.38295 -2.99802 2.87261 -0.262044 -0.158457 -0.174206 0.0192368 -0.31715 -0.272868 0.00765452 -0.130312 -0.128973 -6.63058e-05 -2.34923e-05 -0.000199614 20.3296 4.33389 4.34773 3.33609 -3.02635 2.84146 -0.2621 -0.158457 -0.174232 20.3296 4.33389 4.34773 3.33611 -3.02635 2.84147 -0.261989 -0.158457 -0.174181 
26.982 1 221 20.0966 0.380081 4.24322 -2.43008 5.65818 -0.629964 0.286783 -0.327705 0.18656 -0.401696 -1.44474 -1.29732 -0.135945 -0.613033 -0.596018 -0.000309778 -0.000777596 -0.000586267 20.0942 0.385667 4.24257 -2.3788 5.59958 -0.596606 0.286807 -0.327728 0.186572 20.0942 0.385667 4.24257 -2.3788 5.59959 -0.59661 0.286759 -0.327682 0.186549 
26.982 1 24 20.4256 2.1249 2.36894 -0.320431 -0.847273 0.0282534 -0.711729 0.619091 -0.665202 0.253303 -2.42197 -1.18552 0.110247 -0.944008 -0.603435 -0.000219627 -0.000223583 -0.000855445 20.4253 2.12399 2.36895 -0.447709 -0.736565 -0.0906903 -0.711861 0.619184 -0.665247 20.4253 2.12399 2.36895 -0.447662 -0.736598 -0.0906743 -0.711598 0.618997 -0.665158 
26.982 1 63 22.2 4.23677 2.26542 -2.61955 -0.711571 4.15944 0.396361 0.37286 0.245781 0.0281798 0.0171805 -1.97235 0.0217267 -0.0682655 -0.890578 5.00051e-05 8.97783e-05 -0.00103558 22.1974 4.23599 2.26956 -2.54868 -0.644888 4.2034 0.396394 0.372955 0.245863 22.1974 4.23599 2.26956 -2.54869 -0.644922 4.20337 0.396329 0.372766 0.245697 
26.982 1 222 22.3894 2.25216 4.14732 2.67105 -2.76781 4.91639 0.263199 0.0137266 0.470742 -0.352711 -1.92821 -0.956863 -0.0779802 -0.784074 -0.393534 9.37359e-05 -0.000122657 -0.000165102 22.3921 2.24932 4.15222 2.71813 -2.76536 5.00057 0.263286 0.0137464 0.470828 22.3921 2.24932 4.15222 2.7181 -2.76536 5.00054 0.263112 0.0137067 0.470655 
26.982 1 23 22.29 0.129438 2.15992 -0.543778 -1.48155 -0.849396 0.558718 0.298436 0.0426438 -0.24446 -1.51051 -1.803 -0.0259393 -0.728457 -0.822649 7.96513e-05 -0.000773498 -0.000736046 22.2894 0.127876 2.15905 -0.443855 -1.42818 -0.841768 0.558865 0.298472 0.0426666 22.2894 0.127876 2.15905 -0.443908 -1.42819 -0.841776 0.558571 0.2984 0.0426208 
26.982 1 28 24.361 2.27344 2.23277 5.37861 2.48279 -5.21449 0.438629 -0.458633 0.302861 -0.357642 -1.55259 -1.67432 -0.117005 -0.698704 -0.829322 0.000304487 -0.000309344 -0.000973417 24.3664 2.27586 2.22753 5.45705 2.40076 -5.16032 0.438751 -0.458766 0.302947 24.3664 2.27586 2.22753 5.45701 2.40081 -5.16035 0.438505 -0.4585 0.302775 
26.982 1 265 24.5787 4.29659 4.28541 0.60778 1.18268 -0.34608 -0.070861 -0.13373 -0.0635348 -0.0122243 -0.180104 -0.317829 -0.00136228 -0.0922364 -0.153111 2.98552e-05 -4.86679e-05 -0.000224577 24.5792 4.29771 4.28504 0.595113 1.15876 -0.357441 -0.0708469 -0.133755 -0.0635393 24.5792 4.29771 4.28504 0.595108 1.15877 -0.357439 -0.0708758 -0.133706 -0.063531 
26.982 1 67 26.6122 4.22072 2.27624 5.51024 -0.967044 1.50532 0.221425 -0.00992584 0.319919 0.0593187 0.0577264 -2.26152 0.0718748 0.0079769 -1.09775 1.90717e-05 -0.0001066 -0.00101805 26.6177 4.21969 2.27773 5.54985 -0.968827 1.56254 0.22149 -0.00997351 0.320024 26.6177 4.21969 2.27773 5.54982 -0.96881 1.5625 0.221361 -0.00987746 0.319814 
26.982 1 226 26.7727 2.37159 4.30238 0.707532 -2.03344 4.82031 -0.303763 -0.393207 0.00407753 0.380791 -1.43932 -0.476909 0.0262485 -0.54913 -0.233801 6.63552e-05 -0.000562726 -0.000414415 26.7733 2.36949 4.30718 0.653211 -2.10375 4.82104 -0.303816 -0.393295 0.00406337 26.7733 2.36949 4.30718 0.65323 -2.10372 4.82104 -0.30371 -0.39312 0.00409071 
26.982 1 32 28.7778 2.15334 2.30139 -1.15002 3.20224 -2.86246 0.216252 0.278947 0.0500735 0.0620894 -2.09606 -1.68291 -0.0276399 -0.621485 -0.932483 -0.000165958 -0.000670786 -0.000624816 28.7766 2.15648 2.29851 -1.11135 3.25212 -2.8535 0.216319 0.278997 0.0500746 28.7766 2.15648 2.29851 -1.11137 3.2521 -2.85351 0.216184 0.278898 0.0500718 
26.982 1 269 28.8599 4.30148 4.35596 2.90307 -1.39905 -0.970943 0.00879986 0.119521 -0.239205 -0.0221545 -0.253991 -0.310421 -0.00919804 -0.0727183 -0.178388 -2.30964e-05 -5.66728e-05 -0.000223963 28.8627 4.30002 4.35497 2.90464 -1.37768 -1.01372 0.00879098 0.119536 -0.239248 28.8627 4.30002 4.35497 2.90464 -1.37768 -1.0137 0.00880903 0.119507 -0.239162 
26.982 1 225 24.4967 0.167588 4.29294 1.74184 -2.82944 0.428764 -0.103414 0.526871 -0.467751 -0.326462 -2.67962 -1.68424 -0.101875 -0.885161 -0.635258 0.000262777 -0.000591731 -0.000772127 24.4984 0.164678 4.29336 1.72335 -2.73521 0.345112 -0.103414 0.527017 -0.46786 24.4984 0.164678 4.29336 1.72335 -2.73526 0.345151 -0.103415 0.526724 -0.467642 
26.982 1 71 30.9725 4.16979 2.38339 7.00769 0.103411 -1.07462 -0.181264 0.193279 -0.280049 -0.171663 -0.093521 -1.59429 -0.077091 0.0358152 -0.949447 -5.83872e-05 0.000137769 -0.000821312 30.9794 4.16983 2.3823 6.97528 0.137967 -1.1247 -0.181304 0.193268 -0.280101 30.9794 4.16983 2.3823 6.97529 0.137971 -1.12468 -0.181224 0.19329 -0.279998 
26.982 1 230 30.9511 2.30217 4.32609 -5.0019 1.48634 0.943368 0.152964 -0.591924 -0.193717 -0.274234 -1.88278 -0.693175 -0.0969892 -0.563234 -0.266647 -0.000124842 -0.00055866 -0.000360875 30.946 2.30359 4.32702 -4.97455 1.38048 0.908721 0.152988 -0.592066 -0.193781 30.946 2.30359 4.32702 -4.97456 1.38053 0.908743 0.152939 -0.591782 -0.193654 
26.982 1 233 33.3546 0.260588 4.25199 -3.64719 5.61498 2.45748 -0.619765 -0.00640972 -0.0225166 0.0334054 -2.21035 -1.11131 -0.00413424 -1.09363 -0.548693 -0.000199532 -0.000674753 -0.000582047 33.3509 0.26613 4.25443 -3.75803 5.61385 2.45346 -0.619925 -0.00636446 -0.0225283 33.3509 0.26613 4.25443 -3.75797 5.61383 2.45346 -0.619605 -0.00645573 -0.0225055 
26.982 1 30 30.8326 2.32669 0.155026 5.67347 3.98372 4.15621 0.23691 -0.130126 0.383523 -0.24857 -1.80071 -4.03378 -0.138465 -0.455763 -1.44005 -2.4553e-05 -0.000216597 -0.000714619 30.8382 2.33061 0.15916 5.71583 3.96045 4.2248 0.236934 -0.130156 0.383615 30.8382 2.33061 0.15916 5.71583 3.96046 4.22477 0.236886 -0.130096 0.38343 
26.982 1 273 33.2141 4.24334 4.19632 6.06775 4.05337 0.481949 -0.18191 -0.0981173 0.250601 0.0362072 -0.184747 -0.263949 0.00530712 -0.0356744 -0.147056 -4.02266e-05 -5.13965e-05 -0.00013965 33.2201 4.24733 4.19678 6.03522 4.03582 0.526761 -0.181936 -0.0981367 0.250632 33.2201 4.24733 4.19678 6.03523 4.03583 0.52675 -0.181884 -0.0980977 0.25057 
26.982 1 36 32.9971 2.1478 2.30275 1.11076 -1.55761 -1.09562 0.248348 0.275511 -0.0189307 0.00496387 -1.88391 -1.75463 -0.0535116 -0.519079 -0.838701 1.5659e-05 -0.000370849 -0.000835574 32.9981 2.14617 2.30163 1.15517 -1.50835 -1.09901 0.248371 0.275558 -0.0189541 32.9981 2.14617 2.30163 1.15516 -1.50836 -1.099 0.248325 0.275464 -0.0189081 
26.982 1 35 35.3731 0.26453 2.36847 -4.07694 -2.07637 -0.0210957 0.100127 0.288115 -0.351983 0.283357 -4.04473 -1.97686 0.165739 -1.66849 -0.789081 0.000219941 -0.000691814 -0.00062559 35.3689 0.262371 2.36843 -4.05903 -2.02484 -0.084036 0.100178 0.288211 -0.352023 35.3689 0.262371 2.36843 -4.05904 -2.02488 -0.0840219 0.100076 0.28802 -0.351944 
26.982 1 75 35.3436 4.29197 2.26442 -3.33547 3.0973 0.591314 -0.236442 -0.199828 0.0807161 0.791287 -0.0636767 -2.71132 0.158288 0.0672802 -1.09715 -0.00022808 -0.000373282 -0.000598609 35.3401 4.29501 2.26499 -3.37775 3.06156 0.605748 -0.236495 -0.199905 0.0807299 35.3401 4.29501 2.26499 -3.37773 3.06159 0.605743 -0.236388 -0.19975 0.0807026 
26.982 1 234 35.3651 2.42192 4.36743 0.306154 1.17353 4.63487 -0.0164688 -0.438147 -0.193193 0.0466798 -1.23065 -0.581261 0.0483498 -0.41122 -0.215244 0.000149439 -0.000360022 -0.000220451 35.3653 2.42302 4.37205 0.30321 1.09518 4.60032 -0.0164645 -0.43822 -0.19323 35.3653 2.42302 4.37205 0.303209 1.0952 4.60033 -0.016473 -0.438074 -0.193156 
26.982 1 277 37.4515 4.37539 4.37146 -0.464684 0.149163 0.692674 -0.229604 -0.372765 -0.0493837 0.0573147 -0.233192 -0.582677 0.0198676 -0.078584 -0.207595 -2.45744e-05 -0.000173313 -8.44401e-05 37.4508 4.37548 4.37214 -0.505744 0.0824993 0.683843 -0.229643 -0.372844 -0.0493927 37.4508 4.37548 4.37214 -0.50573 0.0825276 0.683846 -0.229565 -0.372686 -0.0493746 
26.982 1 77 37.4349 4.3015 0.296396 3.57093 -0.80829 2.4726 -0.00804364 -0.268712 -0.353268 -0.0314918 -0.06192 -0.223179 -0.0681228 -0.0253076 -0.393645 0.000166386 -0.000323868 -0.0010633 37.4383 4.30063 0.298848 3.56949 -0.856347 2.40942 -0.00804969 -0.268777 -0.353369 37.4383 4.30063 0.298848 3.56949 -0.856324 2.40946 -0.00803703 -0.268648 -0.353168 
26.982 1 40 37.4266 2.25081 2.35974 1.0317 -3.2586 -1.25584 0.110772 -0.0314941 -0.149928 1.16586 -1.65413 -3.27191 0.440662 -0.669472 -1.1924 0.000219025 -0.000752111 -0.000530672 37.4275 2.24748 2.35846 1.05152 -3.26424 -1.28265 0.110826 -0.0315236 -0.149948 37.4275 2.24748 2.35846 1.0515 -3.26423 -1.28264 0.110718 -0.0314646 -0.149908 
26.982 1 41 41.629 4.24947 0.57159 -2.44484 -2.46237 3.88034 -0.313473 0.190365 -0.987302 -0.77172 -1.19523 -2.052 -0.374827 -0.502696 -0.868134 -0.000196552 -0.000205672 -0.00119932 41.6264 4.24694 0.575451 -2.5009 -2.42833 3.70378 -0.313567 0.190395 -0.987463 41.6264 4.24694 0.575451 -2.50087 -2.42834 3.70384 -0.313379 0.190336 -0.98714 
26.982 1 241 41.7045 4.34296 4.4835 0.832117 1.86021 3.46863 -0.0522538 0.00574526 -0.149201 -1.86115 -1.94955 -2.08404 -0.537148 -0.587591 -0.644515 -1.81868e-05 -1.37608e-05 -8.74777e-05 41.7051 4.34476 4.48695 0.822774 1.86124 3.44195 -0.0522531 0.0057637 -0.149205 41.7051 4.34476 4.48695 0.822774 1.86124 3.44195 -0.0522543 0.00572693 -0.149197 
26.982 1 4 41.6854 2.32653 2.3936 -1.1871 5.07941 -0.551563 0.0140375 -0.129616 0.0813227 -1.42322 -2.11933 -2.35745 -0.60752 -0.855666 -0.834033 -0.000248483 -0.000624657 -0.000758161 41.684 2.33154 2.39303 -1.18459 5.05623 -0.537022 0.0140153 -0.129679 0.0813226 41.684 2.33154 2.39303 -1.18458 5.05625 -0.537022 0.0140613 -0.129553 0.0813236 
26.982 1 79 39.4285 4.20628 2.35864 -0.0456131 1.08927 -1.79684 0.0960071 0.00857545 -0.0528203 -0.454121 -0.883682 -3.12957 -0.124293 -0.316264 -1.13385 6.54399e-07 -0.000158763 -0.000596616 39.4282 4.20731 2.35682 -0.0284542 1.09081 -1.80629 0.095969 0.00857127 -0.0528313 39.4282 4.20731 2.35682 -0.0284404 1.09081 -1.80629 0.0960465 0.00858037 -0.0528089 
26.982 1 238 39.8295 2.32513 4.44937 -0.563095 -0.41633 -1.49069 -0.752154 -0.245441 -0.160894 0.0719093 -2.01861 -1.4848 0.0410669 -0.763067 -0.550862 -0.000343167 -0.000536577 -0.000411003 39.8288 2.32464 4.44786 -0.697608 -0.460226 -1.51946 -0.752326 -0.245509 -0.160936 39.8288 2.32464 4.44786 -0.697547 -0.460201 -1.51945 -0.751982 -0.245372 -0.160853 
26.982 1 83 1.101 8.13424 2.33768 5.24831 0.00478063 5.71933 -0.180977 0.289187 -0.0303563 -1.99064 -0.446939 -2.5065 -0.748496 -0.231692 -0.939587 -0.000533082 7.18996e-06 -0.000262431 1.10643 8.1342 2.34338 5.21595 0.0565024 5.7139 -0.180988 0.289277 -0.0303703 1.10643 8.13419 2.34338 5.21595 0.0564703 5.7139 -0.180967 0.289098 -0.0303423 
26.982 1 242 1.07043 6.41366 4.43328 2.99576 1.0062 1.26226 0.153676 -0.481103 -0.0218818 -2.01705 0.333531 -1.27167 -0.801118 -0.0168849 -0.473245 -0.000499926 -0.000106293 -0.000117548 1.07361 6.41462 4.43452 3.02325 0.92016 1.25834 0.153752 -0.481191 -0.0218931 1.07361 6.41462 4.43452 3.02323 0.920192 1.25835 0.153599 -0.481015 -0.0218701 
26.982 1 285 3.11062 8.32588 4.42079 1.16199 -3.29514 2.60415 0.195902 -0.0559971 -0.320702 -0.338532 -0.00643064 -0.406448 -0.106063 -0.0102099 -0.135184 3.88902e-06 -2.79701e-05 -0.000107388 3.11195 8.32253 4.42337 1.19703 -3.30516 2.5468 0.195972 -0.0559999 -0.32078 3.11195 8.32253 4.42337 1.19701 -3.30515 2.54683 0.195832 -0.0559945 -0.320625 
26.982 1 42 1.12211 6.20545 0.172851 6.08813 -1.62534 -1.16269 -0.174342 -0.158528 0.81338 -1.59654 -0.577063 -2.43213 -0.711639 -0.181969 -1.07572 -0.000313522 -0.000282689 -0.000922957 1.12839 6.20377 0.171662 6.05695 -1.65369 -1.01723 -0.174382 -0.15853 0.813522 1.12839 6.20377 0.171662 6.05696 -1.65369 -1.01728 -0.174302 -0.158528 0.813239 
26.982 1 48 3.13946 6.26138 2.27085 -1.54345 6.45776 0.748992 0.0808374 -0.0595668 0.179452 -0.826782 -0.0559498 -2.30528 -0.279296 -0.0217914 -0.829557 0.000156173 -0.000265582 -0.000536692 3.13807 6.26779 2.27158 -1.52898 6.44711 0.781089 0.0808808 -0.0595558 0.179517 3.13807 6.26779 2.27158 -1.529 6.44711 0.781065 0.0807939 -0.0595788 0.179386 
26.982 1 85 3.171 8.21809 0.160785 5.52056 -1.48107 -3.322 0.169255 0.2343 0.434292 -0.16539 0.513972 -2.4671 -0.0593552 0.0984843 -1.14187 0.000153309 -0.000155984 -0.00100884 3.17668 8.21656 0.157437 5.55083 -1.43916 -3.24433 0.169318 0.234415 0.434387 3.17668 8.21656 0.157437 5.55081 -1.4392 -3.24437 0.169192 0.234183 0.434198 
26.982 1 44 -1.18682 6.18256 2.44457 2.88297 6.08023 2.66132 0.180409 0.30573 0.0320789 0.302714 -2.04847 -2.53953 0.0645892 -0.731627 -1.03728 -0.000867075 -7.04562e-05 -0.000223353 -1.18373 6.18859 2.44722 2.91523 6.1349 2.66706 0.180416 0.305816 0.0320759 -1.18373 6.18859 2.44722 2.91523 6.13487 2.66706 0.180403 0.305643 0.0320823 
26.982 1 87 5.0779 8.27974 2.24109 4.31314 -3.64002 -0.711821 0.398887 0.204529 0.224596 -0.0784689 0.319341 -2.1125 -0.0207162 0.0575923 -0.740189 7.88499e-05 -0.000161083 -0.000371581 5.08236 8.27605 2.24036 4.38447 -3.60344 -0.671655 0.398929 0.204577 0.224647 5.08236 8.27605 2.24036 4.38446 -3.60346 -0.671674 0.398845 0.20448 0.224543 
26.982 1 246 5.2399 6.39386 4.4047 -6.63081 2.65402 -1.1815 -0.0680847 -0.342067 -0.480344 -0.0176089 -0.00842776 -0.223039 -0.00455026 -0.00729135 -0.0849327 1.4812e-06 -7.19409e-05 -0.000191236 5.2334 6.39646 4.4035 -6.64298 2.59285 -1.2674 -0.068075 -0.342122 -0.480451 5.2334 6.39646 4.4035 -6.64298 2.59287 -1.26736 -0.0680952 -0.342013 -0.480238 
26.982 1 52 7.41248 6.41423 2.19525 -1.7751 -2.57386 -0.78104 -0.146808 -0.377995 0.648916 0.254332 0.274778 -1.86745 0.0647304 0.0113289 -0.748664 -0.000232897 -5.75657e-05 -0.000235511 7.41083 6.4116 2.19445 -1.80135 -2.64145 -0.664982 -0.14683 -0.37803 0.649106 7.41083 6.4116 2.19445 -1.80134 -2.64144 -0.66505 -0.146787 -0.377962 0.648725 
26.982 1 289 7.33296 8.38369 4.29045 -1.88067 -3.42179 2.16382 0.189789 -0.353638 0.053875 0.0334928 0.0177749 -0.332814 0.0107406 0.00373599 -0.109336 5.54853e-05 -0.000119411 -3.88614e-05 7.3312 8.38022 4.2926 -1.84673 -3.48504 2.17346 0.189843 -0.35377 0.0538896 7.3312 8.38022 4.2926 -1.84675 -3.485 2.17345 0.189734 -0.353508 0.0538601 
26.982 1 89 7.43111 8.2615 0.328241 3.35351 2.36629 2.02928 -0.153045 0.363104 -0.116341 0.115708 0.665334 -2.48706 0.0322193 0.151226 -1.1506 -7.72172e-05 0.000214147 -0.00102104 7.43459 8.26382 0.330248 3.32614 2.43122 2.00848 -0.15309 0.363167 -0.116357 7.43459 8.26382 0.330248 3.32616 2.4312 2.00848 -0.153 0.36304 -0.116325 
26.982 1 286 5.26151 10.4122 4.35974 3.81309 -1.06237 0.037329 -0.197432 -0.482719 -0.367604 -0.0206523 0.00269236 -0.299382 -0.0032023 0.00438243 -0.0926638 -4.78966e-05 -0.000122937 -0.00012325 5.26547 10.4111 4.35976 3.77778 -1.1487 -0.0284123 -0.197498 -0.482845 -0.367689 5.26547 10.4111 4.35976 3.77781 -1.14866 -0.0283819 -0.197366 -0.482592 -0.367519 
26.982 1 88 3.07048 10.3969 2.32119 0.264965 -4.18149 -3.10596 0.109897 -0.425632 0.207858 -0.779182 -0.177586 -2.69343 -0.259474 -0.062773 -0.887396 -9.41382e-05 -6.17094e-05 -0.000196873 3.07091 10.3927 2.31806 0.284616 -4.25761 -3.06879 0.109911 -0.425709 0.20789 3.07091 10.3927 2.31806 0.284611 -4.25758 -3.0688 0.109882 -0.425557 0.207826 
26.982 1 92 7.33878 10.3149 2.39899 -4.36709 3.10415 1.60691 0.110683 -0.209303 -0.273369 0.223134 -0.301872 -2.30579 0.0992017 -0.0416337 -0.830707 0.000203438 0.000117223 -0.000641394 7.33454 10.318 2.40057 -4.34729 3.06671 1.55803 0.110689 -0.209392 -0.273406 7.33454 10.318 2.40057 -4.3473 3.06674 1.55804 0.110677 -0.209213 -0.273331 
26.982 1 91 9.59001 8.25568 2.30932 2.2527 0.458656 1.17306 -0.597858 0.197286 -0.33425 0.365863 0.276194 -2.85028 0.10314 0.0922629 -0.967583 -0.000131444 0.000202715 -0.000421582 9.59237 8.25609 2.31047 2.14578 0.493932 1.11329 -0.597992 0.197298 -0.33428 9.59237 8.25609 2.31047 2.14582 0.493928 1.1133 -0.597724 0.197274 -0.334221 
26.982 1 250 9.63294 6.14741 4.27436 -1.61301 0.493026 0.503593 -0.462961 0.094216 0.151218 0.0273227 0.0381217 -0.270149 0.00651762 0.00605745 -0.100427 -0.000118354 1.36413e-05 3.53556e-05 9.63143 6.14785 4.27484 -1.69581 0.509876 0.530645 -0.463096 0.0942416 0.151299 9.63143 6.14785 4.27484 -1.69576 0.509867 0.530616 -0.462828 0.09419 0.151136 
26.982 1 50 9.36642 6.3303 0.15405 -0.0232648 2.41733 -2.71076 0.605507 -0.252714 0.161975 0.328752 0.473898 -3.34394 0.0745893 0.0263706 -1.49914 0.000226207 -0.000127451 -0.00105661 9.3665 6.33266 0.151312 0.0850168 2.37213 -2.68181 0.605615 -0.252764 0.161954 9.3665 6.33266 0.151312 0.0849781 2.37215 -2.6818 0.605399 -0.252664 0.161997 
26.982 1 290 9.51573 10.3489 4.11397 -0.988666 3.40921 -1.83503 0.0435782 -0.245174 0.428076 0.0316316 -0.0168657 -0.408496 0.0144853 0.00379394 -0.145565 -5.47537e-06 -3.28752e-05 -3.84997e-05 9.51485 10.3522 4.11211 -0.980875 3.36536 -1.75847 0.0435763 -0.245232 0.428199 9.51485 10.3522 4.11211 -0.980874 3.36538 -1.75851 0.0435805 -0.245116 0.427953 
26.982 1 93 11.6973 8.20038 0.180235 0.648402 -0.584083 1.09609 -0.133854 0.238703 0.348977 0.259022 0.0552489 -0.781638 0.226031 0.0830576 -0.767072 0.000112016 -1.27528e-05 -0.00107129 11.698 8.19975 0.181308 0.624464 -0.541402 1.1585 -0.133881 0.238711 0.34904 11.698 8.19975 0.181308 0.624474 -0.541405 1.15847 -0.133828 0.238696 0.348915 
26.982 1 56 11.5503 6.40879 2.15255 -3.93897 -0.284472 2.52409 0.196424 -0.702849 0.0608094 -0.00489809 0.681217 -2.35602 0.0763977 0.136654 -0.916959 0.000281593 -0.000360158 -0.000602496 11.5465 6.40846 2.15506 -3.90385 -0.410162 2.53496 0.196409 -0.702976 0.0608141 11.5465 6.40846 2.15506 -3.90385 -0.410117 2.53496 0.196441 -0.702722 0.060804 
26.982 1 293 11.5818 8.21085 4.13044 -3.19007 0.401654 1.97105 0.228116 0.340825 0.680564 -0.0187116 0.032227 -0.451021 0.00233043 0.0159805 -0.15882 2.26769e-05 4.78275e-05 6.27127e-05 11.5787 8.21121 4.13239 -3.14929 0.462601 2.09276 0.228126 0.340876 0.680718 11.5787 8.21121 4.13239 -3.14929 0.462583 2.0927 0.228106 0.340774 0.680409 
26.982 1 95 13.8616 8.34962 2.28622 -2.18558 2.7361 -1.02715 -0.302866 -0.107653 0.0463061 -0.533608 0.309438 -2.65472 -0.0664631 0.106309 -1.10885 0.000223715 -0.000235003 -0.000669877 13.8595 8.35232 2.28517 -2.23973 2.71685 -1.01886 -0.302896 -0.10765 0.0463374 13.8595 8.35232 2.28517 -2.23972 2.71685 -1.01888 -0.302836 -0.107656 0.0462751 
26.982 1 254 13.8022 6.31321 4.27916 2.40124 -0.371626 0.150015 -0.0872235 0.0932811 -0.159591 -0.0216364 0.00633984 -0.280403 0.00056621 0.000830298 -0.135326 -2.62822e-05 -4.27759e-06 -0.000190494 13.8047 6.31278 4.2793 2.38564 -0.354944 0.121478 -0.0872679 0.0933014 -0.159606 13.8047 6.31278 4.2793 2.38566 -0.354951 0.121484 -0.0871781 0.0932612 -0.159575 
26.982 1 60 15.9938 6.2642 2.25576 -0.278676 -7.18016 -0.114088 -0.0262115 0.0251381 0.187887 -0.159974 0.138642 -1.71073 -0.0886051 0.0693716 -0.838756 5.85649e-06 -1.27153e-05 -0.00104966 15.9936 6.25696 2.25562 -0.283358 -7.17565 -0.0804891 -0.0261814 0.0251735 0.187918 15.9936 6.25696 2.25562 -0.283368 -7.17567 -0.0805 -0.0262415 0.0251022 0.187857 
26.982 1 297 15.9901 8.32435 4.16284 2.98444 -2.81685 2.45805 0.123539 0.0620572 0.266223 -0.0129982 0.051424 -0.297495 -0.00462122 0.0214743 -0.148222 6.24061e-05 2.32502e-05 -0.000128527 15.9931 8.32149 4.16528 3.00653 -2.80575 2.50566 0.123594 0.0620948 0.266291 15.9931 8.32149 4.16528 3.00651 -2.80576 2.50564 0.123482 0.0620188 0.266155 
26.982 1 294 13.756 10.1736 4.3109 -1.54423 -4.05976 -1.40411 0.0656685 0.157057 -0.190894 -0.00702952 0.0325665 -0.425399 0.0054569 0.0149995 -0.189631 1.72889e-05 1.11568e-05 -0.000115584 13.7545 10.1695 4.30947 -1.53249 -4.03168 -1.43825 0.0656738 0.15707 -0.190934 13.7545 10.1695 4.30947 -1.53249 -4.03168 -1.43823 0.065663 0.157043 -0.190854 
26.982 1 94 13.6486 10.377 0.346018 1.05784 -2.18138 3.25943 0.34825 -0.275112 -0.330335 -0.323324 -0.290661 -2.27047 -0.0870378 -0.0873738 -0.810236 0.000222681 8.71351e-05 -0.00111476 13.6497 10.3748 0.349254 1.12012 -2.23057 3.20036 0.348347 -0.275158 -0.330381 13.6497 10.3748 0.349254 1.12009 -2.23056 3.20038 0.348152 -0.275065 -0.33029 