ITEM: TIMESTEP
0
ITEM: NUMBER OF ATOMS
4000
ITEM: BOX BOUNDS pp pp pp
-0.0741961 40.5742
-0.0741961 40.5742
-0.0741961 40.5742
ITEM: ATOMS mass type id x y z vx vy vz fx fy fz xrad yrad zrad vxrad vyrad vzrad fxrad fyrad fzrad xub yub zub vxub vyub vzub fxub fyub fzub xlb ylb zlb vxlb vylb vzlb fxlb fylb fzlb 
26.982 1 2 1.84279 1.96013 0.159566 -4.40886 -0.206818 -0.10658 0.168987 -0.487847 -0.0965376 0 0 0 0 0 0 -0.000121689 -0.000403846 -0.000784203 1.83839 1.95994 0.159475 -4.37864 -0.294071 -0.123842 0.169003 -0.488004 -0.0965476 1.83839 1.95994 0.159475 -4.37865 -0.294015 -0.123838 0.16897 -0.48769 -0.0965265 
26.982 1 3 1.90381 -0.0710752 2.04086 -0.0691833 -1.2563 0.00319794 0.0916005 0.14849 -0.243939 0 0 0 0 0 0 -0.000216446 -0.000783718 -0.000160098 1.90375 -0.0723154 2.04088 -0.0528009 -1.22975 -0.0404266 0.0916263 0.148513 -0.243991 1.90375 -0.0723154 2.04088 -0.0528101 -1.22976 -0.040408 0.0915747 0.148469 -0.243887 
26.982 1 8 4.10222 1.9018 2.05726 -5.05544 2.3936 2.67156 -0.445749 0.0804966 0.0675409 0 0 0 0 0 0 -2.75577e-06 -0.000626913 -0.000340917 4.09718 1.90421 2.05994 -5.13515 2.408 2.68364 -0.445827 0.0805038 0.0675719 4.09718 1.90421 2.05994 -5.13513 2.40799 2.68363 -0.445672 0.0804894 0.06751 
26.982 1 41 0.0102806 4.14768 0.0301089 -3.7193 1.60988 1.59203 -0.647501 -0.653433 0.128937 0 0 0 0 0 0 -0.000476269 -0.000604937 -0.000670074 0.00657417 4.14931 0.0317198 -3.83509 1.49302 1.61509 -0.647619 -0.653547 0.128973 0.00657422 4.14931 0.0317198 -3.83505 1.49307 1.61508 -0.647383 -0.653318 0.128902 
26.982 1 43 1.97574 3.92847 2.08793 2.37999 -2.71938 -3.24979 0.0913035 0.25276 -0.263818 0 0 0 0 0 0 -7.9415e-05 -0.000266754 -0.000401073 1.97814 3.92576 2.0847 2.39633 -2.67418 -3.29696 0.091365 0.252807 -0.263836 1.97814 3.92576 2.0847 2.39631 -2.6742 -3.29696 0.0912416 0.252712 -0.263798 
26.982 1 202 1.86518 1.98838 3.98681 -3.58102 2.2695 -3.40085 0.0996936 -0.209673 0.414685 0 0 0 0 0 0 -0.000281523 -0.000586609 -0.000187003 1.86161 1.99067 3.98342 -3.5632 2.23201 -3.32668 0.0997177 -0.209725 0.414822 1.86161 1.99067 3.98342 -3.5632 2.23203 -3.32673 0.0996694 -0.209622 0.414547 
26.982 1 241 -0.0601434 4.16922 3.9824 0.346566 0.606118 1.60057 -0.675819 -0.673272 0.200727 0 0 0 0 0 0 -0.000572246 -0.000621591 -0.000367297 -0.0597771 4.16984 3.98402 0.225716 0.485722 1.63647 -0.675914 -0.673375 0.200799 -0.0597771 4.16984 3.98402 0.22575 0.485759 1.63645 -0.675723 -0.673167 0.200655 
26.982 1 245 3.94115 3.96309 4.06306 -2.20953 -0.759472 -0.638866 0.12886 0.00712196 0.167489 0 0 0 0 0 0 5.74671e-06 -0.000115928 -2.58738e-05 3.93896 3.96234 4.06243 -2.18649 -0.758197 -0.608907 0.128883 0.00712882 0.167559 3.93896 3.96234 4.06243 -2.1865 -0.7582 -0.608933 0.128836 0.00711502 0.167417 
26.982 1 6 6.01071 1.78979 0.0834621 -0.685484 1.06193 2.2978 0.237111 0.444087 -0.472348 0 0 0 0 0 0 -0.000388407 -0.000312125 -0.000840731 6.01003 1.79087 0.0857757 -0.643077 1.14135 2.21333 0.237181 0.444223 -0.472462 6.01003 1.79087 0.0857758 -0.643102 1.1413 2.21337 0.237041 0.44395 -0.472232 
26.982 1 9 8.11103 0.0103845 -0.0335538 2.77792 -2.11972 -1.37678 0.0515996 -0.369402 0.172573 0 0 0 0 0 0 2.6562e-05 -0.000801241 -0.000445366 8.11382 0.00828035 -0.0349159 2.78716 -2.18579 -1.34591 0.0516548 -0.369486 0.172615 8.11382 0.00828038 -0.0349159 2.78714 -2.18576 -1.34593 0.0515437 -0.369318 0.172533 
26.982 1 12 8.02682 1.84917 2.02225 5.14237 -2.32989 -2.53927 0.0749105 0.332826 -0.0766684 0 0 0 0 0 0 -2.90841e-05 -0.000514108 -0.000223882 8.03197 1.84685 2.01973 5.15577 -2.27038 -2.55298 0.0749366 0.332884 -0.0766765 8.03197 1.84685 2.01973 5.15576 -2.2704 -2.55297 0.0748844 0.332768 -0.07666 
26.982 1 47 6.02059 3.89637 2.04378 0.801321 0.484882 -6.57004 -0.125908 0.19486 -0.0287845 0 0 0 0 0 0 -0.00023758 -8.84517e-05 -0.000396012 6.02141 3.89687 2.03722 0.778801 0.51973 -6.57519 -0.125951 0.194903 -0.0288126 6.02141 3.89687 2.03722 0.778817 0.519714 -6.57518 -0.125863 0.194817 -0.0287563 
26.982 1 49 8.12749 4.01082 0.202628 2.91376 2.30372 3.06506 -0.150904 -0.139568 -0.380263 0 0 0 0 0 0 -6.82908e-05 -8.25892e-05 -0.0010634 8.13041 4.01314 0.205711 2.88677 2.27877 2.99706 -0.150917 -0.139578 -0.380373 8.13041 4.01314 0.205711 2.88678 2.27877 2.99709 -0.150891 -0.139558 -0.380151 
26.982 1 206 6.10545 1.95933 4.1405 0.260483 5.31447 -2.48121 -0.516289 -0.182394 -0.251831 0 0 0 0 0 0 -0.000307298 -0.000510843 -0.000267825 6.10571 1.96467 4.13803 0.168153 5.28185 -2.52624 -0.5164 -0.18243 -0.251855 6.10571 1.96467 4.13803 0.168192 5.28187 -2.52623 -0.516179 -0.182359 -0.251807 
26.982 1 209 8.00547 -0.0708663 3.971 6.6893 -3.07184 1.18193 0.37372 -0.260114 0.199858 0 0 0 0 0 0 4.19459e-06 -0.000823365 -0.000619583 8.01217 -0.0739248 3.9722 6.75613 -3.11836 1.21767 0.373811 -0.260182 0.199885 8.01217 -0.0739247 3.9722 6.7561 -3.11834 1.21766 0.373629 -0.260044 0.199832 
26.982 1 249 7.93792 4.04851 4.04165 0.0397483 1.80142 -0.63612 0.23924 -0.155895 -0.00626392 0 0 0 0 0 0 1.48831e-05 -7.56778e-05 -2.76408e-05 7.93797 4.05033 4.04103 0.0825289 1.77354 -0.637239 0.239271 -0.15593 -0.00626219 7.93797 4.05033 4.04103 0.082518 1.77355 -0.63724 0.23921 -0.15586 -0.00626536 
26.982 1 10 10.1796 1.92565 0.0678928 -0.035861 1.64922 3.68394 0.00153841 0.382435 -0.2428 0 0 0 0 0 0 0.000248979 -0.000484475 -0.000814029 10.1795 1.92731 0.0715942 -0.03558 1.71762 3.64051 0.0015715 0.382544 -0.24288 10.1795 1.92731 0.0715943 -0.035592 1.71758 3.64054 0.00150452 0.382326 -0.242718 
26.982 1 16 12.2977 1.90923 2.00166 -4.85792 3.98359 1.26559 -0.142433 -0.00102855 -0.0396799 0 0 0 0 0 0 0.000219493 -0.000800214 -0.000545617 12.2929 1.91323 2.00294 -4.88338 3.9834 1.25849 -0.142406 -0.00106334 -0.0397107 12.2929 1.91323 2.00294 -4.88339 3.98341 1.2585 -0.14246 -0.000993582 -0.039649 
26.982 1 51 10.165 4.01916 2.12866 3.40008 6.16038 6.60716 -0.313777 -0.00576978 -0.516277 0 0 0 0 0 0 -3.62778e-05 -0.000106786 -0.000317518 10.1684 4.02534 2.13528 3.34397 6.15935 6.51483 -0.313841 -0.00579346 -0.516408 10.1684 4.02534 2.13528 3.34399 6.15936 6.51487 -0.313713 -0.00574605 -0.516146 
26.982 1 53 12.3492 3.87042 0.136636 3.2433 5.72722 -3.30084 -0.678517 0.505286 -0.567918 0 0 0 0 0 0 7.03101e-05 -0.000233769 -0.00109348 12.3524 3.87617 0.133352 3.12195 5.81758 -3.40241 -0.678707 0.505366 -0.568045 12.3524 3.87617 0.133352 3.12202 5.81755 -3.40236 -0.678327 0.505206 -0.567793 
26.982 1 210 10.0713 1.99206 3.79089 -1.34837 -1.37542 -0.286317 0.102147 -0.20714 0.910145 0 0 0 0 0 0 5.18755e-05 -0.000429081 -0.000119038 10.07 1.9907 3.79062 -1.3301 -1.41246 -0.123554 0.102162 -0.207163 0.910324 10.07 1.9907 3.79062 -1.33011 -1.41245 -0.123619 0.102132 -0.207117 0.909965 
26.982 1 213 12.0705 0.058965 4.04706 -0.236843 -0.421457 1.93659 -0.114144 -0.0378922 -0.0880382 0 0 0 0 0 0 2.84772e-06 -0.000778751 -0.000771943 12.0703 0.0585573 4.04901 -0.25726 -0.428225 1.92085 -0.114191 -0.0378536 -0.0880625 12.0703 0.0585573 4.04901 -0.257243 -0.428239 1.92086 -0.114096 -0.0379303 -0.0880118 
26.982 1 253 12.1055 4.13983 4.07406 3.37527 1.72418 1.98682 0.265306 -0.922954 0.64958 0 0 0 0 0 0 5.29192e-05 -0.000205436 8.42864e-05 12.1089 4.14157 4.07606 3.42272 1.55913 2.10298 0.265348 -0.923117 0.649707 12.1089 4.14157 4.07606 3.4227 1.55919 2.10294 0.265265 -0.922792 0.649454 
26.982 1 20 16.1789 2.08933 1.90137 0.232513 -2.67679 2.7192 -0.234941 -0.430905 0.325959 0 0 0 0 0 0 -0.000399884 -0.000753086 -0.000314676 16.1791 2.08667 1.9041 0.190495 -2.75385 2.77749 -0.235006 -0.430993 0.32602 16.1791 2.08667 1.9041 0.190518 -2.75381 2.77747 -0.234876 -0.430817 0.325898 
26.982 1 55 14.1497 3.96613 2.1551 -8.56106 0.929045 -2.71039 0.195466 0.0774157 0.0159766 0 0 0 0 0 0 3.91342e-05 -0.000273563 -0.000313021 14.1411 3.96707 2.1524 -8.5261 0.94288 -2.70754 0.195503 0.0773789 0.0159854 14.1411 3.96707 2.1524 -8.52611 0.942893 -2.70754 0.19543 0.0774535 0.0159687 
26.982 1 57 15.9947 4.0855 0.0528034 0.0775179 2.08154 -1.07782 0.368339 -0.0825265 -0.245173 0 0 0 0 0 0 -0.000124479 -0.000294786 -0.00109227 15.9948 4.0876 0.0517349 0.143393 2.06679 -1.12166 0.368437 -0.0825115 -0.245198 15.9948 4.0876 0.0517349 0.143358 2.06679 -1.12165 0.368242 -0.0825413 -0.245148 
26.982 1 214 14.28 1.8797 4.12115 5.17597 3.63084 1.61106 -0.0347436 0.466285 -0.617023 0 0 0 0 0 0 0.000212537 -0.000472867 -0.000447491 14.2852 1.88335 4.12277 5.16977 3.71423 1.50071 -0.0347123 0.466373 -0.617156 14.2852 1.88335 4.12277 5.16975 3.7142 1.50076 -0.0347753 0.466198 -0.616889 
26.982 1 257 16.2558 4.25579 4.04209 0.830671 1.43448 -2.66193 -0.0600983 -0.997819 0.0376834 0 0 0 0 0 0 -6.02194e-06 -0.000300824 -2.54568e-05 16.2567 4.25724 4.03944 0.819926 1.25603 -2.6552 -0.0600964 -0.998047 0.0376893 16.2567 4.25724 4.03944 0.819926 1.25611 -2.6552 -0.0601006 -0.997593 0.0376773 
26.982 1 218 17.9521 1.9486 4.22096 1.84875 -5.38085 -0.437185 0.588326 0.402678 -0.678102 0 0 0 0 0 0 5.03812e-05 -0.000441043 -0.000214876 17.954 1.94323 4.22054 1.95396 -5.30884 -0.558445 0.588449 0.402753 -0.678202 17.954 1.94323 4.22054 1.95391 -5.30887 -0.558409 0.588202 0.402604 -0.678003 
26.982 1 18 18.2268 1.9223 0.0683529 0.0689733 3.3987 1.59878 -0.0600162 -0.0950955 -0.584195 0 0 0 0 0 0 -0.000313709 -0.000360823 -0.00107583 18.2269 1.92571 0.0699685 0.058241 3.38169 1.49431 -0.0600255 -0.0951114 -0.58429 18.2269 1.92571 0.0699685 0.0582444 3.3817 1.49435 -0.0600068 -0.09508 -0.584102 
26.982 1 19 18.1256 0.0201022 1.99142 -2.89732 -2.21774 4.83985 0.347352 -0.495204 0.0997547 0 0 0 0 0 0 -0.0002266 -0.00102391 7.06456e-05 18.1227 0.0178982 1.99628 -2.8352 -2.3063 4.85769 0.34742 -0.495336 0.0998023 18.1227 0.0178982 1.99628 -2.83523 -2.30626 4.85768 0.347283 -0.495073 0.0997062 
26.982 1 21 20.1792 -0.0710199 -0.0334818 4.72363 -0.221462 4.18941 0.0420491 0.0144757 0.0732476 0 0 0 0 0 0 0.000152 -0.000795023 -0.00050918 20.184 -0.0712255 -0.0292723 4.73115 -0.218878 4.20251 0.042018 0.0144498 0.0732669 20.184 -0.0712254 -0.0292723 4.73116 -0.218869 4.2025 0.0420807 0.0145018 0.0732276 
26.982 1 22 22.1996 2.04933 -0.0530067 -1.73983 -4.28913 1.47936 0.0793315 -0.321707 0.190515 0 0 0 0 0 0 -1.49554e-05 -0.000391667 -0.000890974 22.1978 2.04505 -0.05151 -1.72565 -4.34667 1.51343 0.0793269 -0.321805 0.190539 22.1978 2.04505 -0.05151 -1.72565 -4.34663 1.51342 0.0793366 -0.321608 0.190491 
26.982 1 24 20.3682 1.85448 2.07235 -0.788486 -6.77603 -1.21236 -0.507594 0.190731 -0.0689389 0 0 0 0 0 0 9.43237e-05 -0.000662408 0.000111471 20.3674 1.84771 2.07115 -0.879261 -6.74193 -1.22467 -0.507702 0.190727 -0.0688774 20.3674 1.84771 2.07115 -0.879222 -6.74193 -1.22469 -0.507486 0.190735 -0.0690012 
26.982 1 59 18.4271 3.76149 1.94837 -4.38744 -1.3457 1.57883 -0.888939 0.497184 0.929545 0 0 0 0 0 0 -0.000192348 -6.74931e-05 -2.58114e-05 18.4227 3.76016 1.94997 -4.54641 -1.2568 1.74506 -0.88911 0.497186 0.929705 18.4227 3.76016 1.94997 -4.54635 -1.2568 1.745 -0.888768 0.497182 0.929385 
26.982 1 61 20.155 3.95443 0.0468585 0.658882 -4.07334 4.29125 0.510867 0.053634 -0.776312 0 0 0 0 0 0 6.7404e-05 7.46176e-05 -0.00116395 20.1557 3.95037 0.0511686 0.75023 -4.06375 4.15242 0.510909 0.0536547 -0.77649 20.1557 3.95037 0.0511687 0.750215 -4.06376 4.15249 0.510826 0.0536136 -0.776134 
26.982 1 63 22.2385 4.0472 1.9419 -2.1414 1.52368 2.75038 -0.210581 -0.232712 0.409174 0 0 0 0 0 0 -3.92884e-05 -9.3797e-05 -0.000120794 22.2364 4.04874 1.94467 -2.17906 1.48206 2.82355 -0.21061 -0.232764 0.409258 22.2364 4.04874 1.94467 -2.17905 1.48208 2.82352 -0.21055 -0.23266 0.409091 
26.982 1 222 22.0924 1.98138 4.07004 -8.09486 -3.20614 0.130067 0.89686 0.284106 -0.126976 0 0 0 0 0 0 -6.0266e-05 -0.000495727 -0.000217783 22.0843 1.97819 4.07018 -7.93448 -3.15533 0.107362 0.896989 0.284183 -0.126984 22.0843 1.97819 4.07018 -7.93453 -3.15536 0.107365 0.896731 0.284029 -0.126969 
26.982 1 261 20.2796 4.22846 4.11387 -2.87309 0.633149 -0.188487 -0.131596 -0.992566 -0.479899 0 0 0 0 0 0 -4.30479e-05 -0.000317036 -9.06213e-05 20.2767 4.2291 4.11369 -2.89663 0.455636 -0.274304 -0.131641 -0.992822 -0.479974 20.2767 4.2291 4.11369 -2.89661 0.455728 -0.274278 -0.13155 -0.99231 -0.479825 
26.982 1 25 24.3251 0.148251 0.0811522 -0.714858 2.32856 -5.48332 0.177179 0.182307 -0.495637 0 0 0 0 0 0 -0.000125066 -0.000814809 -0.000632309 24.3244 0.150597 0.0756803 -0.683167 2.36117 -5.57196 0.177246 0.182381 -0.495771 24.3244 0.150597 0.0756804 -0.683191 2.36114 -5.57191 0.177111 0.182233 -0.495504 
26.982 1 26 26.429 2.24908 -0.043041 -1.20871 0.164411 1.26105 -0.289297 -0.492436 0.0287465 0 0 0 0 0 0 0.000161045 -0.000429195 -0.000991064 26.4277 2.24926 -0.0417635 -1.26045 0.0763407 1.26619 -0.289368 -0.492576 0.0287476 26.4277 2.24926 -0.0417635 -1.26042 0.0763907 1.26619 -0.289226 -0.492296 0.0287446 
26.982 1 27 26.3267 0.0925264 1.93987 3.86676 0.660012 2.79788 0.311223 0.445667 0.357505 0 0 0 0 0 0 0.000465708 -0.000964784 -0.000184493 26.3306 0.0932063 1.94269 3.92242 0.739719 2.86181 0.31132 0.445801 0.357549 26.3306 0.0932062 1.94269 3.92239 0.739671 2.8618 0.311127 0.445533 0.357461 
26.982 1 28 24.2094 2.10774 1.98366 3.89313 -1.68851 -0.0353843 0.0712039 -0.226905 0.233364 0 0 0 0 0 0 -0.000117296 -0.000402707 -0.000128586 24.2133 2.10606 1.98364 3.90587 -1.72908 0.00634571 0.07123 -0.226936 0.233395 24.2133 2.10606 1.98364 3.90586 -1.72907 0.00633461 0.0711772 -0.226874 0.233333 
26.982 1 65 24.2276 3.9969 -0.0174481 -1.41701 3.67109 0.505021 0.402791 0.148117 -0.0288766 0 0 0 0 0 0 4.12009e-05 5.78594e-05 -0.00107068 24.2262 4.00058 -0.0169289 -1.34498 3.69758 0.499857 0.402906 0.148161 -0.028886 24.2262 4.00058 -0.0169289 -1.34502 3.69757 0.49986 0.402676 0.148075 -0.0288662 
26.982 1 67 26.4352 3.94388 2.12804 2.57016 -1.91261 -2.77839 -0.28368 -0.0593458 -0.217211 0 0 0 0 0 0 -3.92639e-05 -7.83089e-05 -0.000184917 26.4378 3.94198 2.12527 2.51943 -1.92322 -2.81723 -0.283739 -0.059381 -0.217232 26.4378 3.94198 2.12527 2.51945 -1.92321 -2.81722 -0.283621 -0.0593105 -0.21719 
26.982 1 225 24.3597 0.0835513 3.96893 3.87394 -1.2516 -0.435426 -0.385967 -0.403805 0.0193096 0 0 0 0 0 0 -0.000234273 -0.000860438 -0.000481249 24.3636 0.0823128 3.96851 3.80492 -1.32381 -0.431978 -0.386029 -0.403859 0.0192854 24.3636 0.0823128 3.96851 3.80494 -1.32379 -0.431969 -0.385905 -0.403752 0.0193342 
26.982 1 226 26.1453 2.03354 4.10892 5.08513 1.92981 2.41828 0.706465 0.254256 -0.408689 0 0 0 0 0 0 0.000329359 -0.000271909 -0.000174333 26.1504 2.03549 4.11135 5.21147 1.97528 2.34519 0.706628 0.254313 -0.408796 26.1504 2.03549 4.11135 5.21142 1.97526 2.34522 0.706302 0.254199 -0.408582 
26.982 1 265 24.1604 4.06729 3.99018 -0.182125 1.94553 0.24266 0.185357 -0.0430233 0.37796 0 0 0 0 0 0 4.08036e-05 -2.35216e-05 8.47047e-05 24.1602 4.06925 3.99043 -0.148975 1.93784 0.310257 0.185409 -0.0430212 0.378065 24.1602 4.06925 3.99043 -0.148994 1.93784 0.310219 0.185304 -0.043026 0.377854 
26.982 1 30 30.3392 2.14047 0.0241989 -1.45208 3.39187 -2.21474 0.29279 -0.621641 -0.0950549 0 0 0 0 0 0 0.000119665 -0.000794351 -0.000865349 30.3377 2.14387 0.0219971 -1.39972 3.28069 -2.23173 0.292821 -0.621788 -0.095031 30.3377 2.14388 0.0219971 -1.39973 3.28075 -2.23174 0.292759 -0.621493 -0.0950795 
26.982 1 32 28.5436 2.02209 1.97598 -2.19982 0.476964 -2.08713 -0.496277 -0.216272 0.481715 0 0 0 0 0 0 0.000104524 -0.000857629 -6.65973e-05 28.5414 2.02258 1.9739 -2.28857 0.438281 -2.00098 -0.496374 -0.216358 0.481837 28.5414 2.02258 1.9739 -2.28854 0.438311 -2.00102 -0.496181 -0.216186 0.481591 
26.982 1 69 28.4782 4.12557 0.0120201 -5.85134 2.37999 -3.52782 -0.216045 -0.247749 -0.14161 0 0 0 0 0 0 3.22337e-06 -3.10793e-05 -0.00106425 28.4723 4.12797 0.00850671 -5.88997 2.33569 -3.55314 -0.216091 -0.247779 -0.141625 28.4723 4.12797 0.00850672 -5.88996 2.3357 -3.55313 -0.215998 -0.247718 -0.141594 
26.982 1 71 30.4536 4.12918 2.06634 -4.35373 -2.52721 0.0182513 -0.102624 -0.180261 -0.118793 0 0 0 0 0 0 3.32495e-05 -0.000119524 -0.000196082 30.4492 4.12666 2.06637 -4.37208 -2.55944 -0.00298594 -0.102627 -0.180292 -0.118779 30.4492 4.12666 2.06637 -4.37208 -2.55943 -0.00299078 -0.10262 -0.18023 -0.118807 
26.982 1 230 30.4874 1.98973 4.12457 -1.0621 3.86067 4.37593 -0.524127 -0.248692 -0.145524 0 0 0 0 0 0 -7.35207e-05 -0.000778702 -0.000274325 30.4864 1.99361 4.12896 -1.15583 3.81619 4.34992 -0.524239 -0.248766 -0.145528 30.4864 1.99361 4.12896 -1.15579 3.81622 4.34992 -0.524015 -0.248618 -0.145521 
26.982 1 269 28.3906 3.97537 4.12926 -1.19937 -0.61454 0.181423 0.137557 -0.316796 -0.202152 0 0 0 0 0 0 4.93883e-05 -0.000216576 -3.9496e-05 28.3894 3.97477 4.12946 -1.17476 -0.671204 0.145277 0.137592 -0.316921 -0.202168 28.3894 3.97477 4.12946 -1.17478 -0.671159 0.145282 0.137522 -0.31667 -0.202136 
26.982 1 35 34.4374 -0.0353128 2.05899 2.55846 2.49888 0.974594 0.174906 -0.0404147 -0.325191 0 0 0 0 0 0 -0.000200304 -0.000813041 -0.000671153 34.44 -0.0327955 2.05998 2.58975 2.49165 0.916439 0.174985 -0.0404103 -0.325263 34.44 -0.0327955 2.05998 2.58972 2.49165 0.916464 0.174827 -0.040419 -0.32512 
26.982 1 36 32.4182 1.99673 1.95676 -3.22957 -4.82087 0.950143 -0.0456675 0.140159 0.276924 0 0 0 0 0 0 1.24198e-06 -0.000755023 -0.000392988 32.4149 1.99192 1.95773 -3.23774 -4.7958 0.999665 -0.0456806 0.140203 0.276977 32.4149 1.99192 1.95773 -3.23773 -4.79582 0.999646 -0.045654 0.140115 0.27687 
26.982 1 73 32.4541 3.97698 -0.0642122 2.11376 2.69203 -2.94631 0.144083 0.570333 0.138762 0 0 0 0 0 0 0.000466918 -2.52016e-05 -0.00104232 32.4563 3.97969 -0.067148 2.13954 2.79402 -2.92149 0.144151 0.570461 0.13879 32.4563 3.97969 -0.067148 2.13951 2.79398 -2.9215 0.144015 0.570206 0.138734 
26.982 1 75 34.4423 4.03421 1.96097 0.136572 -1.27461 -3.26954 -0.258831 0.0763409 -0.124986 0 0 0 0 0 0 0.000103757 -4.76482e-05 -0.000771696 34.4425 4.03295 1.95771 0.0902817 -1.26095 -3.29189 -0.258898 0.0763878 -0.125004 34.4425 4.03295 1.95771 0.0903059 -1.26097 -3.29188 -0.258763 0.0762937 -0.124969 
26.982 1 234 34.4225 1.96088 3.99824 -1.66338 -1.55602 -0.371888 -0.314354 0.33421 0.274132 0 0 0 0 0 0 -0.000260164 -0.000271387 -0.000102162 34.4208 1.95934 3.99789 -1.7196 -1.49625 -0.322859 -0.314435 0.334285 0.274218 34.4208 1.95934 3.99788 -1.71957 -1.49628 -0.32289 -0.314273 0.334134 0.274046 
26.982 1 273 32.2701 4.02807 4.10894 -0.422922 0.424859 -1.1735 0.707386 -0.00807363 -0.177947 0 0 0 0 0 0 0.000162598 -0.000106112 -7.96584e-05 32.2697 4.0285 4.10778 -0.296416 0.423413 -1.20532 0.707542 -0.00808992 -0.177967 32.2697 4.0285 4.10778 -0.296472 0.423418 -1.20532 0.70723 -0.00805742 -0.177927 
26.982 1 4 40.4324 2.02725 2.0065 2.92717 -4.94033 2.10804 0.29113 -0.350788 -0.0334087 0 0 0 0 0 0 -0.00032309 -0.00084812 -0.00041931 -0.21303 2.02232 2.00862 2.97922 -5.00307 2.10207 0.291148 -0.350876 -0.0334069 -0.21303 2.02232 2.00862 2.97922 -5.00304 2.10207 0.291113 -0.3507 -0.0334104 
26.982 1 40 36.421 2.05906 2.02166 3.55783 2.39443 -3.72409 0.197244 -0.455809 -0.620075 0 0 0 0 0 0 0.000210573 -0.000483118 -0.00105118 36.4245 2.06148 2.01795 3.5931 2.31291 -3.83498 0.19728 -0.455899 -0.62019 36.4245 2.06148 2.01795 3.59309 2.31295 -3.83494 0.197207 -0.45572 -0.619961 
26.982 1 79 38.5635 3.88996 1.93285 4.092 5.87411 1.98298 -0.267782 0.546005 0.15615 0 0 0 0 0 0 -0.000257723 -0.000289916 -0.000619505 38.5676 3.89585 1.93484 4.04411 5.97174 2.01091 -0.267821 0.54606 0.156199 38.5676 3.89585 1.93484 4.04412 5.97172 2.01089 -0.267742 0.545951 0.156102 
26.982 1 237 36.3011 0.0126973 4.02366 0.318718 4.05213 -1.89098 0.626063 -0.267172 0.147809 0 0 0 0 0 0 0.000298562 -0.000768435 -0.000533402 36.3014 0.0167682 4.02177 0.430678 4.00435 -1.86454 0.62619 -0.267225 0.147851 36.3014 0.0167682 4.02177 0.430632 4.00437 -1.86456 0.625936 -0.26712 0.147767 
26.982 1 238 38.5516 2.0335 4.03704 -0.367727 2.56344 -1.41732 -0.187235 -0.156688 -0.263836 0 0 0 0 0 0 0.000144552 -0.000566102 -0.000360541 38.5512 2.03608 4.03563 -0.401207 2.53542 -1.46449 -0.187252 -0.156742 -0.263866 38.5512 2.03608 4.03563 -0.4012 2.53544 -1.46448 -0.187217 -0.156634 -0.263805 
26.982 1 277 36.4314 3.90348 3.87784 -0.810362 -6.34411 -3.64977 0.127311 0.488707 0.724 0 0 0 0 0 0 2.08714e-05 4.61947e-05 -7.15107e-06 36.4306 3.89714 3.8742 -0.787596 -6.25671 -3.52029 0.127327 0.488812 0.724154 36.4306 3.89714 3.8742 -0.787602 -6.25675 -3.52034 0.127296 0.488601 0.723846 
26.982 1 42 2.03876 5.83378 -0.0598913 -0.659116 0.752605 -4.58658 0.348317 0.944838 0.451145 0 0 0 0 0 0 2.40754e-05 -6.3324e-05 -0.000818892 2.03812 5.83454 -0.0644656 -0.596816 0.921576 -4.5059 0.348445 0.94505 0.451248 2.03812 5.83454 -0.0644656 -0.596862 0.9215 -4.50593 0.348189 0.944626 0.451043 
26.982 1 48 3.99238 5.97222 2.04181 0.421469 5.51413 -1.78719 -0.235425 0.0233281 -0.0919271 0 0 0 0 0 0 -0.000142803 -0.000102671 -0.000363014 3.99282 5.97775 2.04004 0.379366 5.5183 -1.80363 -0.235477 0.0233593 -0.0919445 3.99282 5.97775 2.04004 0.379384 5.51829 -1.80362 -0.235375 0.0232958 -0.0919102 
26.982 1 81 0.0418889 7.90899 -0.0699944 1.22464 -1.70984 1.39688 -0.0795927 0.0436115 -0.174043 0 0 0 0 0 0 -0.000541618 6.22192e-05 -0.000581729 0.0431321 7.90729 -0.0685765 1.21042 -1.70204 1.36576 -0.0795554 0.0436532 -0.174074 0.0431321 7.90729 -0.0685765 1.21041 -1.70205 1.36577 -0.0796306 0.043569 -0.174011 
26.982 1 83 1.87218 7.96263 1.91275 -3.3023 -3.8676 -3.20965 0.417514 0.180679 0.337021 0 0 0 0 0 0 -0.000417332 2.45516e-05 -0.000135938 1.86889 7.95877 1.90955 -3.22763 -3.83529 -3.14938 0.417622 0.18072 0.337098 1.86889 7.95877 1.90955 -3.22767 -3.8353 -3.14941 0.417404 0.180636 0.336942 
26.982 1 85 4.10479 8.02699 -0.0368649 -0.722093 -1.31988 -0.371233 -0.041433 -0.139759 0.0929227 0 0 0 0 0 0 -5.80499e-05 0.000304398 -0.000987449 4.10408 8.02567 -0.0372202 -0.729494 -1.34488 -0.35461 -0.0413931 -0.139805 0.0929752 4.10408 8.02567 -0.0372202 -0.729509 -1.34486 -0.354629 -0.0414742 -0.139714 0.09287 
26.982 1 242 1.80494 5.92588 4.10531 -3.0908 -4.11908 2.48682 0.991643 0.751993 -0.220528 0 0 0 0 0 0 -0.00030294 0.000339989 -0.000300245 1.80186 5.92177 4.10781 -2.91346 -3.9846 2.44738 0.991859 0.752125 -0.220542 1.80186 5.92177 4.10781 -2.91354 -3.98465 2.44739 0.991426 0.75186 -0.220515 
26.982 1 285 3.86708 8.03579 4.0023 4.93762 -1.68147 -2.6477 -0.147209 0.108883 0.0294029 0 0 0 0 0 0 -0.000175518 2.92458e-05 -7.2032e-05 3.87204 8.03412 3.99967 4.91129 -1.662 -2.64245 -0.147287 0.108911 0.0293843 3.87204 8.03412 3.99967 4.91131 -1.66201 -2.64244 -0.147132 0.108854 0.0294212 
26.982 1 46 6.03889 5.99526 0.159907 1.09198 -0.666886 1.12313 -0.0537952 0.0484499 -0.57677 0 0 0 0 0 0 -0.000165536 -0.000133325 -0.0010936 6.03999 5.9946 0.161047 1.08236 -0.658217 1.01998 -0.0538056 0.0484854 -0.576936 6.03999 5.9946 0.161047 1.08236 -0.65823 1.02004 -0.0537858 0.0484132 -0.576605 
26.982 1 52 7.96329 6.07241 2.15704 -4.03336 -5.09173 4.41381 0.493119 -0.163204 -0.192353 0 0 0 0 0 0 0.000111236 2.44174e-05 -0.00026148 7.95927 6.06732 2.16147 -3.94517 -5.12091 4.37941 0.493232 -0.163201 -0.192432 7.95927 6.06732 2.16147 -3.94521 -5.12091 4.37943 0.493006 -0.163207 -0.192274 
26.982 1 87 6.04801 8.12906 2.10121 0.153894 1.28871 3.37498 -0.355217 0.151957 -0.486853 0 0 0 0 0 0 -0.000123688 0.000246271 -0.000441096 6.04817 8.13036 2.1046 0.0903632 1.31589 3.28791 -0.355327 0.152047 -0.486955 6.04817 8.13036 2.1046 0.0904028 1.31586 3.28795 -0.355106 0.151867 -0.486751 
26.982 1 89 8.10873 8.04116 0.0352069 -0.989009 -2.67139 -1.5835 0.0810601 -0.177322 -0.579599 0 0 0 0 0 0 6.74785e-05 0.000264424 -0.00110399 8.10775 8.0385 0.0336349 -0.974508 -2.7031 -1.68715 0.0811031 -0.177349 -0.579746 8.10775 8.0385 0.0336349 -0.974524 -2.70309 -1.6871 0.0810162 -0.177297 -0.579453 
26.982 1 246 5.92794 6.10121 4.03499 -0.823893 -2.85236 -0.629795 0.0704166 -0.271645 0.198762 0 0 0 0 0 0 -4.08514e-05 -4.01451e-05 2.9238e-05 5.92713 6.09837 4.03437 -0.811309 -2.90094 -0.594248 0.0703834 -0.271683 0.198815 5.92713 6.09837 4.03437 -0.811297 -2.90092 -0.594267 0.0704506 -0.271608 0.198709 
26.982 1 289 8.06236 8.10676 3.95079 3.73039 1.10981 0.441284 0.366412 -0.159086 0.425137 0 0 0 0 0 0 0.00010372 2.5206e-05 2.31669e-05 8.0661 8.10789 3.95124 3.79592 1.08137 0.517309 0.366509 -0.159076 0.425207 8.0661 8.10789 3.95124 3.79588 1.08137 0.517284 0.366314 -0.159096 0.425067 
26.982 1 92 8.23902 9.92441 1.82663 -3.47402 2.37535 0.584631 -0.195039 0.633137 0.492088 0 0 0 0 0 0 -2.90895e-05 0.000151529 -0.000505499 8.23555 9.9268 1.82723 -3.5089 2.48857 0.672625 -0.19508 0.633238 0.49215 8.23555 9.9268 1.82723 -3.50889 2.48853 0.672603 -0.194999 0.633035 0.492027 
26.982 1 286 6.06587 10.0195 4.12332 0.931189 0.0573339 -0.464992 -0.36468 0.470903 -0.597401 0 0 0 0 0 0 -6.00486e-05 0.000140703 -0.000187178 6.06682 10.0196 4.12287 0.865975 0.141554 -0.571827 -0.36474 0.471041 -0.597524 6.06682 10.0196 4.12287 0.865996 0.141505 -0.571783 -0.364622 0.470765 -0.59728 
26.982 1 50 10.0983 5.98555 0.105549 -2.0175 -2.82146 -3.6927 0.277759 0.161469 -0.192247 0 0 0 0 0 0 0.000218318 0.000245339 -0.0010466 10.0963 5.98273 0.101869 -1.96783 -2.79258 -3.72709 0.277807 0.161533 -0.192349 10.0963 5.98273 0.101869 -1.96784 -2.7926 -3.72705 0.27771 0.161403 -0.192145 
26.982 1 56 12.0726 5.94597 2.233 -4.75092 -4.76023 -2.02278 0.125747 0.586944 -0.836192 0 0 0 0 0 0 -2.73437e-06 0.000245106 -0.000478358 12.0679 5.94121 2.23099 -4.72843 -4.65527 -2.17232 0.125732 0.587047 -0.836368 12.0679 5.94121 2.23099 -4.72843 -4.65531 -2.17226 0.125762 0.586841 -0.836016 
26.982 1 91 10.2679 8.05867 2.17272 -0.585353 -2.17962 1.54483 -0.224207 0.0172841 -0.396003 0 0 0 0 0 0 0.000136048 0.000155211 -0.000583979 10.2673 8.0565 2.17429 -0.625447 -2.17653 1.47401 -0.224242 0.0172998 -0.396099 10.2673 8.0565 2.17429 -0.625434 -2.17653 1.47404 -0.224172 0.0172678 -0.395906 
26.982 1 250 10.0699 5.89749 4.19947 -4.65804 3.31625 0.593271 -0.0216406 0.682929 -0.204163 0 0 0 0 0 0 -6.76751e-07 0.000161999 -1.69601e-05 10.0652 5.90082 4.20008 -4.66191 3.43838 0.556768 -0.0216486 0.683079 -0.204161 10.0652 5.90082 4.20008 -4.66191 3.43833 0.556767 -0.0216328 0.682778 -0.204165 
26.982 1 293 12.2587 8.08417 4.07578 -0.601668 1.0985 -6.5304 -0.262905 -0.0735719 0.0373662 0 0 0 0 0 0 -5.80477e-05 -2.94458e-06 -8.61397e-05 12.2581 8.08528 4.06926 -0.648684 1.08534 -6.52372 -0.26296 -0.0735901 0.037369 12.2581 8.08528 4.06926 -0.648664 1.08535 -6.52372 -0.262849 -0.0735539 0.037364 
26.982 1 54 13.9703 6.10849 0.0531747 -0.186484 -3.81802 6.81383 0.475672 -0.41651 -0.122674 0 0 0 0 0 0 -0.000175391 0.00021834 -0.00107406 13.9702 6.10468 0.0600114 -0.101424 -3.8925 6.7919 0.475737 -0.41657 -0.122664 13.9702 6.10468 0.0600114 -0.101447 -3.89248 6.79189 0.475609 -0.416451 -0.122685 
26.982 1 60 16.2153 5.99795 1.9964 0.510374 2.02697 1.94083 -0.19015 0.245176 -0.246948 0 0 0 0 0 0 -5.43673e-05 6.20802e-05 -0.000300691 16.2158 5.99999 1.99836 0.476367 2.07081 1.89667 -0.190199 0.245206 -0.24702 16.2158 5.99999 1.99836 0.476384 2.0708 1.89669 -0.190102 0.245146 -0.246877 
26.982 1 95 13.957 8.11807 1.79083 -1.06877 -7.48049 -3.54697 0.599715 0.0876587 0.682346 0 0 0 0 0 0 -0.000111198 0.000249696 -0.000617774 13.9559 8.11059 1.7873 -0.961521 -7.46481 -3.42495 0.59982 0.0876858 0.682443 13.9559 8.11059 1.7873 -0.961558 -7.46482 -3.42498 0.599611 0.0876312 0.682249 
26.982 1 97 16.2059 8.07515 0.0066312 5.7536 3.58018 0.942887 -0.158995 -0.0858812 -0.335874 0 0 0 0 0 0 -4.10241e-05 0.000409972 -0.00112569 16.2117 8.07874 0.00759283 5.72516 3.56482 0.882825 -0.159021 -0.0858902 -0.335924 16.2117 8.07874 0.00759284 5.72517 3.56482 0.882843 -0.158968 -0.0858721 -0.335823 
26.982 1 254 14.2178 6.15626 3.92973 -7.1811 1.48022 -1.00332 -0.113477 -0.105115 0.380346 0 0 0 0 0 0 -4.34871e-05 2.89397e-05 3.20935e-05 14.2106 6.15775 3.92874 -7.20139 1.46143 -0.935304 -0.113512 -0.105096 0.380417 14.2106 6.15775 3.92874 -7.20138 1.46142 -0.93533 -0.113441 -0.105134 0.380276 
26.982 1 297 16.1967 8.09481 3.92659 2.79863 -6.40724 0.44192 -0.142023 0.0623839 0.00444866 0 0 0 0 0 0 -6.07076e-05 7.24966e-05 -7.81375e-05 16.1995 8.0884 3.92704 2.77323 -6.39607 0.442712 -0.142085 0.0624342 0.0044329 16.1995 8.0884 3.92704 2.77325 -6.39609 0.442718 -0.141962 0.0623337 0.00446458 
26.982 1 58 18.1571 5.93916 0.0318735 -3.14661 6.55005 -1.37446 0.0601101 -0.0672546 -0.159355 0 0 0 0 0 0 0.000167321 0.000248345 -0.00112137 18.154 5.94573 0.0305136 -3.13587 6.53802 -1.40296 0.0601033 -0.0672924 -0.159414 18.154 5.94573 0.0305137 -3.13586 6.53804 -1.40294 0.0601169 -0.0672162 -0.159295 
26.982 1 62 22.3301 6.00686 0.0966464 -5.91397 -2.54139 -1.19189 -0.411265 0.345651 -0.497949 0 0 0 0 0 0 -6.60641e-05 0.00053966 -0.00115709 22.3241 6.00433 0.0954694 -5.98751 -2.47957 -1.28094 -0.41131 0.345766 -0.498053 22.3241 6.00433 0.0954694 -5.9875 -2.47961 -1.28091 -0.41122 0.345535 -0.497843 
26.982 1 64 20.1406 5.94645 2.00198 -0.454859 1.80148 -3.8137 0.188396 0.398867 -0.455973 0 0 0 0 0 0 2.96945e-05 0.000300638 -0.000512583 20.1402 5.94827 1.99818 -0.421173 1.87281 -3.89525 0.188403 0.398964 -0.456097 20.1402 5.94827 1.99818 -0.421176 1.87278 -3.89521 0.188389 0.39877 -0.455847 
26.982 1 99 18.1419 8.11143 1.8687 -1.94841 -4.96438 -5.49844 0.397068 -0.094829 0.152483 0 0 0 0 0 0 0.000264396 0.000254666 -0.000622157 18.1399 8.10647 1.86321 -1.8774 -4.98133 -5.47118 0.397145 -0.0948008 0.152472 18.1399 8.10647 1.86321 -1.87743 -4.98134 -5.47117 0.396992 -0.0948573 0.152494 
26.982 1 103 22.0787 8.05073 2.03319 -3.44051 -2.26646 -0.0217901 0.413114 0.359578 -0.62986 0 0 0 0 0 0 6.33637e-05 0.000314909 -0.000870843 22.0753 8.04847 2.03318 -3.36663 -2.20215 -0.134433 0.413195 0.359701 -0.630009 22.0753 8.04847 2.03318 -3.36666 -2.20219 -0.13438 0.413032 0.359454 -0.629712 
26.982 1 258 18.2431 6.05971 3.89116 1.15881 -2.71003 -0.890798 -0.254193 0.252719 0.17457 0 0 0 0 0 0 -9.09346e-05 5.71924e-05 -3.72566e-05 18.2442 6.05701 3.89028 1.11335 -2.66484 -0.859584 -0.254294 0.25276 0.174577 18.2442 6.05701 3.89028 1.11338 -2.66486 -0.859587 -0.254091 0.25268 0.174563 