ITEM: TIMESTEP
14000
ITEM: NUMBER OF ATOMS
4000
ITEM: BOX BOUNDS pp pp pp
-2.91958 43.4196
0.781597 39.7184
0.769584 39.7304
ITEM: ATOMS mass type id x y z vx vy vz fx fy fz xrad yrad zrad vxrad vyrad vzrad fxrad fyrad fzrad xub yub zub vxub vyub vzub fxub fyub fzub xlb ylb zlb vxlb vylb vzlb fxlb fylb fzlb 
26.982 1 43 -0.559935 4.73704 2.65268 -0.0277411 0.734783 -1.99848 0.353 -0.20019 0.587731 -12.5568 -7.2308 -19.7117 -1.80864 -0.788832 -2.96188 -4.41787e-05 -0.000166679 -0.000985017 -0.55978 4.73774 2.65063 0.03538 0.698981 -1.89337 0.353033 -0.200238 0.587865 -0.55978 4.73774 2.65063 0.0353684 0.698998 -1.89342 0.352968 -0.200142 0.587596 
26.982 1 202 -0.368242 2.83872 4.70429 -4.22462 -0.515726 1.64947 0.216655 -0.21358 -0.266289 -11.7479 -11.5112 -11.8768 -1.67071 -1.67432 -1.73939 -6.75259e-06 -0.000311263 -0.00049039 -0.372287 2.83815 4.70589 -4.18587 -0.553907 1.60185 0.216727 -0.213543 -0.266329 -0.372287 2.83815 4.70589 -4.18589 -0.55392 1.60186 0.216583 -0.213617 -0.266249 
26.982 1 961 -2.75621 16.2973 15.9254 -2.90632 4.67559 -3.21647 -0.199965 0.150327 0.250075 -11.2578 -7.07913 -8.72134 -1.512 -0.997825 -1.22676 -0.000543257 -0.000401946 -0.000358813 -2.75892 16.302 15.9222 -2.94207 4.70248 -3.17174 -0.199973 0.150418 0.250143 -2.75892 16.302 15.9222 -2.94207 4.70245 -3.17177 -0.199955 0.150236 0.250006 
26.982 1 3013 11.1622 20.3251 20.1549 -3.10656 2.38453 -2.5742 -0.220713 -0.146912 0.362703 -8.92975 -8.51976 -13.9199 -1.36129 -1.25687 -2.23076 -0.000229761 0.000268594 -0.000412735 11.1591 20.3275 20.1523 -3.14604 2.35826 -2.50933 -0.220768 -0.146917 0.362768 11.1591 20.3275 20.1523 -3.14602 2.35826 -2.50936 -0.220658 -0.146908 0.362639 
26.982 1 2839 41.0839 20.1616 18.1433 -0.789378 -3.54245 -0.93845 0.313851 0.0845072 0.0352553 0.364077 -5.92919 -17.7836 -0.150419 -0.896542 -2.52518 -8.30168e-05 0.000499659 -0.000598682 41.083 20.158 18.1424 -0.733241 -3.52733 -0.93215 0.313969 0.0845449 0.0352338 41.083 20.158 18.1424 -0.733283 -3.52734 -0.932143 0.313736 0.0844692 0.0352762 
26.982 1 245 1.94673 4.90066 4.48255 2.70442 1.36167 -2.38363 -0.0370946 -0.696576 0.451203 -1.21354 -2.71457 -3.84848 -0.1831 -0.383586 -0.586569 -3.51052e-05 -0.000138713 -0.000161323 1.9496 4.90199 4.48011 2.69779 1.2371 -2.30295 -0.0371154 -0.696702 0.451281 1.9496 4.90199 4.48011 2.6978 1.23715 -2.30297 -0.0370746 -0.69645 0.451125 
26.982 1 8 2.0137 2.79723 2.65358 -1.70295 -4.04657 -0.871942 -0.145304 -0.12754 0.282368 2.55178 -18.7579 -19.9587 0.246556 -2.68166 -2.93617 -0.000165644 -6.04719e-05 -0.000711002 2.01216 2.79313 2.65266 -1.72893 -4.06938 -0.821439 -0.145281 -0.127574 0.282462 2.01216 2.79313 2.65266 -1.72894 -4.06937 -0.821472 -0.145327 -0.127506 0.282273 
26.982 1 47 4.29669 4.67069 2.56364 4.32228 -4.29944 4.15102 -0.387087 -0.46313 0.578867 -1.14274 -5.27885 -19.4206 -0.0234264 -0.734593 -3.06767 -3.52254e-05 -4.61802e-05 -0.00101573 4.30116 4.66634 2.56774 4.25305 -4.38227 4.25453 -0.387239 -0.463241 0.578955 4.30116 4.66634 2.56774 4.2531 -4.38223 4.2545 -0.386936 -0.463019 0.57878 
26.982 1 206 4.36933 2.73197 4.62911 -3.44877 -3.38524 3.64188 -0.667732 0.10155 -0.217337 -0.640136 -17.1978 -10.9546 -0.0157663 -2.35539 -1.53379 5.54829e-07 -0.00036611 -0.000265648 4.36602 2.72854 4.63271 -3.5682 -3.36709 3.60301 -0.667963 0.101524 -0.217394 4.36602 2.72854 4.63271 -3.56811 -3.36708 3.60303 -0.667503 0.101576 -0.217281 
26.982 1 998 41.1267 18.185 16.2196 -1.16285 -0.0921987 1.6285 0.206487 0.127573 0.180149 3.04204 3.48375 -6.25015 0.343102 0.671529 -0.962683 2.71186e-05 7.20449e-05 -2.42382e-05 41.1254 18.1849 16.2212 -1.12593 -0.0693904 1.66073 0.20653 0.127566 0.180231 41.1254 18.1849 16.2212 -1.12594 -0.0693877 1.6607 0.206445 0.12758 0.180069 
26.982 1 114 36.7017 10.5266 0.742644 -0.766373 -2.67372 -1.15652 -0.220122 -0.105156 0.0743016 -0.524421 1.29972 -22.3998 0.000735363 0.0207344 -3.20431 -7.66011e-05 -0.000171804 -0.000989709 36.7008 10.5239 0.741435 -0.80574 -2.69253 -1.14322 -0.220178 -0.105211 0.0743716 36.7008 10.5239 0.741435 -0.80572 -2.69251 -1.14324 -0.220064 -0.1051 0.0742308 
26.982 1 7 4.03015 0.631854 2.87396 1.21312 -1.71769 4.54179 -0.0815844 0.446971 -0.48776 -1.94432 -4.66555 -20.6498 -0.176093 -1.26591 -3.00129 0.000334131 -0.000685864 -0.000435933 4.0315 0.630083 2.87846 1.19854 -1.63775 4.45456 -0.0815738 0.447113 -0.487869 4.0315 0.630083 2.87846 1.19853 -1.6378 4.4546 -0.0815955 0.446829 -0.487652 
26.982 1 249 6.48074 4.56203 4.56218 -0.028829 5.91501 2.02174 -0.0055368 0.275196 0.101089 -0.196475 -2.53198 -3.13421 -0.0123793 -0.387845 -0.542247 9.27617e-06 -6.11778e-05 -0.000222413 6.48083 4.5679 4.56416 -0.0298218 5.96422 2.03982 -0.00555265 0.275257 0.101142 6.48083 4.5679 4.56416 -0.0298158 5.9642 2.0398 -0.00551913 0.275138 0.101038 
26.982 1 12 6.62163 2.69277 2.60996 -0.0249424 1.60241 2.02017 -0.141841 -0.593686 0.250622 -3.24243 -21.686 -17.4729 -0.323947 -3.02302 -2.84808 0.000127055 -0.00057466 -0.00084793 6.62172 2.69432 2.61193 -0.0503176 1.49623 2.06497 -0.141922 -0.593853 0.250602 6.62172 2.69432 2.61193 -0.0502885 1.49629 2.06498 -0.141759 -0.593517 0.250641 
26.982 1 51 8.95195 4.64861 2.75568 4.87216 0.745631 0.88281 -0.174547 -0.989773 -0.0563204 0.230309 -2.63914 -16.4645 -0.00337482 -0.35602 -2.77952 -8.89527e-05 -0.000224427 -0.00108543 8.95692 4.64931 2.75652 4.84095 0.568627 0.872736 -0.174552 -0.989966 -0.0563451 8.95692 4.64931 2.75652 4.84095 0.568696 0.872745 -0.174541 -0.989581 -0.0562935 
26.982 1 210 8.66019 2.59059 4.65441 1.62554 -3.24811 1.7474 0.43674 -0.308084 -0.414079 0.960265 -16.2963 -9.25508 0.157879 -2.44041 -1.42257 0.000133398 -0.000756608 -0.0005256 8.66192 2.58728 4.65611 1.70366 -3.30322 1.67335 0.436893 -0.308203 -0.414165 8.66192 2.58728 4.65611 1.7036 -3.30317 1.67338 0.436588 -0.307963 -0.413993 
26.982 1 2835 36.3538 20.2326 18.0486 -4.88104 5.68212 -0.316135 0.0032635 -0.405711 -0.599976 -7.9884 -5.1842 -13.3151 -1.26489 -0.60866 -2.04985 0.000147192 0.000505968 -0.000530016 36.3487 20.2383 18.0483 -4.88046 5.60957 -0.423423 0.00328467 -0.405783 -0.600053 36.3487 20.2383 18.0483 -4.88046 5.60959 -0.423396 0.00324268 -0.40564 -0.599899 
26.982 1 2225 24.9826 20.3732 4.77377 -0.5596 1.50722 0.387323 -0.189204 -0.217378 -0.163273 -4.57327 -2.10561 -16.6914 -0.650226 -0.588812 -2.42554 -0.000278196 0.000209492 -0.000546726 24.982 20.3747 4.77412 -0.593436 1.46835 0.358124 -0.18924 -0.21737 -0.163309 24.982 20.3747 4.77412 -0.593423 1.46835 0.358136 -0.189169 -0.217386 -0.163238 
26.982 1 253 10.9359 4.73612 4.67481 -1.86196 3.05658 1.29539 0.416424 -0.472112 -0.0740345 0.228303 -2.8383 -3.24453 0.00552007 -0.434115 -0.525544 0.000118139 -0.000229426 -0.00019264 10.9341 4.73913 4.67607 -1.78749 2.97215 1.28216 0.416549 -0.472204 -0.0740153 10.9341 4.73913 4.67607 -1.78753 2.97218 1.28215 0.4163 -0.47202 -0.0740541 
26.982 1 16 11.3825 3.01018 2.5975 -0.397523 2.62044 4.15697 -0.347733 -0.107537 0.519484 3.09924 -21.7795 -17.3416 0.107359 -3.13302 -2.5267 -5.31416e-05 -0.000403471 -0.000542671 11.3822 3.01275 2.60161 -0.459722 2.60121 4.24987 -0.347875 -0.107562 0.519591 11.3822 3.01275 2.60161 -0.459672 2.60122 4.24983 -0.347591 -0.107511 0.519377 
26.982 1 55 13.5973 4.90702 2.47631 1.17105 1.29358 -0.145321 -0.391768 -0.464286 0.618506 0.437923 -5.00671 -20.2587 0.0444729 -0.523815 -2.8782 -0.000294654 -4.08071e-05 -0.000749343 13.5985 4.90828 2.47611 1.10099 1.21056 -0.0347146 -0.391839 -0.464309 0.618612 13.5985 4.90828 2.47611 1.10102 1.21057 -0.0347523 -0.391696 -0.464263 0.618401 
26.982 1 214 13.5313 2.86074 4.5679 -0.155285 0.40281 -2.25756 -0.201053 0.477748 0.414505 0.902885 -17.9667 -10.0219 0.025593 -2.53643 -1.36719 -0.000269341 -0.000492094 -0.000369562 13.5312 2.86109 4.56559 -0.191245 0.488249 -2.18343 -0.201123 0.477853 0.414634 13.5312 2.86109 4.56559 -0.19122 0.488211 -2.18347 -0.200982 0.477643 0.414376 
26.982 1 201 -2.54084 0.953108 4.8776 1.47306 -1.20992 2.18992 -0.565996 -0.122599 -0.296157 -7.11874 -12.7722 -16.7277 -0.966853 -1.78434 -2.39789 -0.000263296 -0.00054036 -0.000738822 -2.53916 0.951844 4.87975 1.37183 -1.23184 2.13697 -0.56614 -0.122597 -0.296151 -2.53916 0.951844 4.87975 1.37189 -1.23184 2.13697 -0.565851 -0.122601 -0.296163 
26.982 1 999 41.2187 16.171 18.0808 0.0155142 5.18971 1.26435 -0.173653 0.390981 -0.0221227 5.7416 -1.15359 -4.48838 0.71411 -0.191105 -0.511966 0.000135274 7.88335e-05 -0.000157176 41.2185 16.1762 18.0821 -0.0155466 5.25963 1.26039 -0.173721 0.391041 -0.0221519 41.2185 16.1762 18.0821 -0.0155224 5.25961 1.2604 -0.173586 0.390922 -0.0220937 
26.982 1 20 15.6274 2.76565 2.78066 5.20232 6.43117 -4.61246 0.0726866 0.0844812 -0.389029 -4.09577 -21.7099 -17.1918 -0.128149 -3.06062 -2.56864 1.67673e-05 -0.000519964 -0.000660785 15.6326 2.77203 2.77599 5.21532 6.44628 -4.68204 0.0726946 0.0844894 -0.389129 15.6326 2.77203 2.77599 5.21531 6.44628 -4.682 0.0726798 0.0844734 -0.388929 
26.982 1 257 15.6996 4.85 4.75588 1.25615 2.44283 -0.668507 -0.321431 -0.189868 -0.38776 -0.146261 -3.02695 -3.41509 0.0101467 -0.431616 -0.544575 -8.24144e-05 -7.03399e-06 -0.000189306 15.7009 4.8524 4.75517 1.19866 2.40889 -0.737847 -0.321521 -0.189826 -0.387815 15.7009 4.8524 4.75517 1.19869 2.40888 -0.737827 -0.321342 -0.18991 -0.387706 
26.982 1 218 17.6742 2.81638 4.55454 -3.80397 -1.68869 0.80497 0.686218 -0.0629934 0.628584 -1.08098 -17.1821 -8.19719 -0.0701545 -2.54641 -1.39704 0.00036111 -0.000563646 -0.000423711 17.6704 2.81465 4.55531 -3.68125 -1.69995 0.917369 0.686359 -0.0629804 0.62864 17.6704 2.81465 4.55531 -3.6813 -1.69996 0.917349 0.686077 -0.0630063 0.62853 
26.982 1 59 18.0012 4.77784 2.89255 1.87697 0.317474 0.645342 -0.098779 0.274357 -0.664811 0.558543 -1.61718 -17.8696 0.16862 -0.319784 -3.00461 0.000112958 -6.93385e-05 -0.000947782 18.0031 4.77811 2.89315 1.8593 0.36654 0.526452 -0.0987816 0.274423 -0.664946 18.0031 4.77811 2.89315 1.8593 0.366517 0.5265 -0.0987769 0.274291 -0.664677 
26.982 1 24 20.2253 2.72235 2.69043 2.52328 2.70055 -0.573221 -0.0111277 0.245621 -0.2977 1.629 -18.2333 -15.7422 0.0788275 -2.68267 -2.7469 -0.000172794 -0.000559491 -0.000768292 20.2278 2.725 2.6898 2.5213 2.74448 -0.626461 -0.0111075 0.245672 -0.29777 20.2278 2.725 2.6898 2.52129 2.74446 -0.626436 -0.0111488 0.245569 -0.297629 
26.982 1 261 20.1587 4.60951 4.66206 -2.52809 0.611581 -0.22312 0.111314 0.297599 0.203072 0.182813 -2.52897 -3.56388 0.021483 -0.402787 -0.628353 5.46737e-05 -9.92493e-05 -0.000141163 20.1562 4.61008 4.6618 -2.50818 0.664803 -0.186801 0.111386 0.297667 0.203128 20.1562 4.61008 4.6618 -2.5082 0.664779 -0.186821 0.111241 0.29753 0.203015 
26.982 1 63 22.4786 4.6694 2.69914 -0.8399 2.86573 -3.57089 0.107676 -0.377543 0.304114 0.840842 -1.51666 -21.4183 0.0883305 -0.298367 -3.45968 0.00010599 -0.000405052 -0.000741995 22.4777 4.67222 2.69551 -0.820638 2.79821 -3.5165 0.107736 -0.37763 0.30419 22.4777 4.67222 2.69551 -0.820659 2.79824 -3.51653 0.107616 -0.377457 0.304038 
26.982 1 222 22.365 2.71921 4.82501 0.393297 4.62519 -2.85784 0.19836 0.498654 -0.457234 -0.430452 -15.9649 -9.0753 -0.0280484 -2.32775 -1.37364 3.70347e-05 -0.000342138 -0.000232788 22.3654 2.72379 4.82211 0.428781 4.71437 -2.93959 0.198456 0.498761 -0.457224 22.3654 2.72379 4.82211 0.428746 4.71433 -2.93959 0.198262 0.498547 -0.457245 
26.982 1 28 24.8898 2.58915 2.80741 -5.04756 1.81969 0.820103 -0.184936 0.916796 -0.394806 -1.22413 -15.314 -18.9478 -0.0105281 -2.35535 -2.98316 9.02354e-05 -0.00046081 -0.000717724 24.8847 2.59092 2.80819 -5.08064 1.98364 0.749498 -0.184986 0.916981 -0.394889 24.8847 2.59092 2.80819 -5.08062 1.98358 0.749527 -0.184887 0.916612 -0.394724 
26.982 1 265 24.7946 4.71631 4.75794 -3.71581 0.238536 3.37006 -0.101046 0.153551 -0.778179 -0.00216053 -2.24084 -4.12627 0.00414777 -0.371133 -0.692088 -2.24074e-05 -0.000143899 -0.000244874 24.7908 4.7165 4.76127 -3.73388 0.265989 3.23091 -0.101073 0.153543 -0.778236 24.7908 4.7165 4.76127 -3.73387 0.265992 3.23093 -0.101019 0.153559 -0.778121 
26.982 1 150 31.8357 14.289 0.607179 1.70174 -6.84694 1.91487 0.378278 0.913667 0.846554 -1.62601 1.33873 -19.7045 -0.192655 0.118715 -2.82139 -0.000224455 -4.54102e-05 -0.000945054 31.8373 14.2821 0.609043 1.76938 -6.68355 2.06625 0.378296 0.913839 0.846657 31.8373 14.2821 0.609043 1.76937 -6.68361 2.06621 0.378261 0.913494 0.846452 
26.982 1 23 22.5647 0.869811 2.89732 3.22691 0.0351948 -5.8113 -0.0939779 0.161192 -0.512436 0.289152 -12.8751 -18.9078 -0.0256921 -2.13744 -2.93717 2.72097e-06 -0.000735544 -0.000507816 22.5679 0.869796 2.89145 3.21011 0.0640233 -5.90294 -0.0940004 0.161236 -0.51255 22.5679 0.869796 2.89145 3.21012 0.0640078 -5.9029 -0.0939567 0.161149 -0.512323 
26.982 1 2811 8.63894 20.187 18.6726 1.43611 5.19863 0.0164197 0.0452162 0.143161 -0.239348 -5.06522 -4.50916 -13.169 -0.815401 -0.217999 -2.05227 -0.00019338 0.00043244 -0.000648441 8.64048 20.1922 18.6726 1.4442 5.22424 -0.0263867 0.0452173 0.143243 -0.239413 8.64048 20.1922 18.6726 1.4442 5.22421 -0.0263631 0.0452152 0.14308 -0.239281 
26.982 1 67 27.0751 4.71649 2.86682 3.30245 1.54151 -0.736573 0.050956 -0.166073 -0.210302 1.00806 -0.648109 -24.8275 0.157948 -0.16049 -3.88192 -5.08919e-06 -0.000287273 -0.00075242 27.0784 4.71799 2.86603 3.31156 1.51182 -0.774182 0.0509821 -0.166061 -0.210345 27.0784 4.71799 2.86603 3.31156 1.51181 -0.774166 0.0509295 -0.166086 -0.210259 
26.982 1 226 27.0169 2.55827 4.74209 2.93192 -4.42871 -0.473185 0.543392 0.66594 -0.6205 0.185385 -13.4647 -7.23449 -0.0129789 -2.22858 -1.33756 -0.000109033 -0.00040788 -0.000474787 27.0198 2.55379 4.74157 3.0291 -4.3096 -0.584134 0.543518 0.666145 -0.62053 27.0198 2.55379 4.74157 3.02905 -4.30967 -0.584123 0.543266 0.665735 -0.620468 
26.982 1 32 29.1335 2.51701 2.72899 8.1623 -4.47876 6.011 0.580601 0.899612 -0.0723206 0.250693 -13.7176 -20.3862 0.0144926 -2.11606 -3.24803 8.72859e-05 -0.000160464 -0.000705919 29.1416 2.51248 2.73496 8.26615 -4.31789 5.99806 0.580804 0.899785 -0.0723643 29.1416 2.51248 2.73496 8.26608 -4.31795 5.99808 0.580396 0.899438 -0.0722774 
26.982 1 269 29.4915 4.74851 4.55653 1.11945 -0.871868 -4.81187 -0.0999019 -0.0604699 -0.118085 -0.136425 -2.00629 -4.50148 -0.0143873 -0.348461 -0.764163 -7.59743e-05 -0.000112153 -0.000197299 29.4925 4.7476 4.55167 1.10157 -0.882687 -4.83298 -0.0999814 -0.0605068 -0.118055 29.4925 4.7476 4.55167 1.1016 -0.882674 -4.83299 -0.0998236 -0.0604333 -0.118115 
26.982 1 2805 2.0128 20.1353 16.4409 -1.13112 3.6316 -6.17749 -0.311892 -0.107182 -0.0713465 -3.79655 -8.31863 -12.7277 -0.582291 -0.588098 -1.88851 -0.000402454 0.000564104 -0.000415719 2.01183 20.1389 16.4347 -1.1869 3.61244 -6.19027 -0.312006 -0.107173 -0.0714617 2.01183 20.1389 16.4347 -1.18686 3.61243 -6.19023 -0.311777 -0.10719 -0.0712315 
26.982 1 71 31.8516 4.82657 2.733 0.279918 -4.0832 0.226601 0.0537131 -0.329343 -0.803127 -2.20478 -1.14148 -22.2494 -0.294973 -0.307296 -3.67881 -0.000106817 -0.000467702 -0.000889395 31.8518 4.82244 2.73318 0.289517 -4.14211 0.082974 0.053685 -0.329496 -0.803296 31.8518 4.82244 2.73318 0.289527 -4.14205 0.083034 0.0537414 -0.329191 -0.80296 
26.982 1 230 31.9999 3.03996 4.60278 -0.942207 -1.40866 -2.81224 -0.365344 -0.783366 0.236072 -1.06278 -13.9799 -8.04679 -0.112107 -2.13415 -1.34622 -9.63983e-05 -0.000651977 -0.000422877 31.9988 3.03851 4.59991 -1.00756 -1.54876 -2.77004 -0.365522 -0.783538 0.236033 31.9988 3.03851 4.59991 -1.0075 -1.5487 -2.77003 -0.365167 -0.783196 0.236112 
26.982 1 273 34.2271 4.68634 4.69869 0.725259 0.361593 -2.70131 0.220691 -0.102119 0.380593 -0.0550122 -1.72986 -3.58837 -0.0181118 -0.313153 -0.629024 9.09827e-05 -0.000128126 -0.000154217 34.2277 4.68666 4.69594 0.764737 0.34333 -2.63326 0.220801 -0.102146 0.38059 34.2277 4.68666 4.69594 0.764698 0.343339 -2.63326 0.220582 -0.102092 0.380597 
26.982 1 36 34.2694 2.83083 2.78364 2.54742 3.26335 -3.6438 -0.199116 -0.280044 -0.30532 -1.41322 -15.3018 -19.4033 -0.236343 -2.38054 -3.11557 -0.000371019 -0.000537799 -0.000707843 34.2718 2.83404 2.77994 2.5118 3.21326 -3.69841 -0.19919 -0.280122 -0.30544 34.2718 2.83404 2.77994 2.51183 3.21329 -3.69837 -0.199043 -0.279967 -0.305199 
26.982 1 35 36.2868 0.531552 2.71027 4.19322 -0.624275 -0.517124 0.184796 0.250395 -0.692824 1.07422 -26.214 -19.3234 0.0728818 -3.18478 -3.07816 -0.000234277 -0.000937622 -0.000379975 36.2909 0.530876 2.7097 4.22627 -0.579496 -0.641022 0.18483 0.250442 -0.692952 36.2909 0.530876 2.7097 4.22626 -0.579513 -0.640976 0.184763 0.25035 -0.692696 
26.982 1 75 36.666 4.34216 2.78209 -2.68959 -5.44653 2.03214 -0.261654 0.604801 -0.131862 1.94847 -1.33091 -22.1664 -0.00289345 -0.214968 -3.28337 -0.000221239 0.000255942 -0.000608794 36.6632 4.33666 2.78407 -2.73639 -5.33837 2.00855 -0.261722 0.604938 -0.131936 36.6632 4.33666 2.78407 -2.73636 -5.33842 2.00858 -0.261587 0.604665 -0.131788 
26.982 1 234 36.5478 2.27054 4.64939 5.62317 -2.56897 0.669983 -0.0756802 0.625878 0.122933 0.327217 -11.5684 -6.65151 -0.037436 -1.90777 -1.17885 -0.000254729 -0.000281083 -0.000118128 36.5533 2.26792 4.65002 5.60964 -2.45705 0.691969 -0.0757085 0.625988 0.122967 36.5533 2.26792 4.65002 5.60965 -2.45709 0.691957 -0.0756517 0.625768 0.1229 
26.982 1 40 38.7826 2.53854 2.75594 -4.30273 0.785911 -1.36885 0.15736 0.570808 0.489879 4.39316 -15.4363 -22.8172 0.359621 -2.52895 -3.20393 0.000236375 -0.000527544 -0.000521714 38.7782 2.53928 2.75453 -4.27459 0.887989 -1.28125 0.157398 0.570915 0.489906 38.7782 2.53928 2.75453 -4.2746 0.887951 -1.28126 0.157323 0.570702 0.489852 
26.982 1 277 38.8351 4.66111 4.58382 -5.69632 0.010668 -4.07259 0.133327 -0.198477 -0.0149011 0.256606 -1.9593 -4.2577 0.0207191 -0.302238 -0.609115 8.18266e-06 -3.17293e-05 -0.000114827 38.8293 4.66108 4.5797 -5.67248 -0.0248224 -4.07525 0.133332 -0.198495 -0.0149141 38.8293 4.66108 4.5797 -5.67249 -0.0248159 -4.07525 0.133322 -0.198459 -0.0148877 
26.982 1 133 11.0173 12.4058 0.636787 -4.9363 4.0718 -0.134498 0.0334156 0.288991 0.378109 1.0678 -0.91363 -19.2947 0.0581544 -0.0428538 -3.03218 0.000142657 1.95434e-05 -0.000999882 11.0124 12.4099 0.636599 -4.93032 4.12348 -0.0668796 0.0334581 0.28906 0.378187 11.0124 12.4099 0.636599 -4.93033 4.12346 -0.066907 0.0333731 0.288922 0.378033 
26.982 1 237 38.9722 0.596407 4.64323 -4.24812 2.1455 -3.39159 -0.235164 -0.270286 -0.0854486 2.21778 -17.5698 -14.1281 0.187147 -2.5815 -2.16784 0.000143928 -0.000815994 -0.000645209 38.9678 0.598501 4.6398 -4.29018 2.09716 -3.40688 -0.235245 -0.270366 -0.0854702 38.9678 0.598501 4.6398 -4.29015 2.09719 -3.40687 -0.235083 -0.270205 -0.0854255 
26.982 1 4 -2.95453 2.46047 2.76258 -3.41476 3.59011 4.34748 0.0834846 0.699324 -0.342207 -13.1175 -14.7008 -17.3374 -2.03656 -2.01204 -2.43065 -0.000407922 -0.000230874 -0.000825197 -2.95774 2.46402 2.76688 -3.39982 3.71518 4.28628 0.0835267 0.69951 -0.342273 -2.95774 2.46402 2.76688 -3.39984 3.71511 4.2863 0.0834428 0.699137 -0.342141 
26.982 1 241 -2.64918 4.4521 4.6923 -6.24043 -3.03226 1.55729 -0.817387 0.122448 -0.406128 -9.70022 -9.88858 -11.8231 -1.1671 -1.18479 -1.53327 -0.000520813 -0.000117424 -0.000442872 -2.65522 4.44902 4.69381 -6.3866 -3.01036 1.48466 -0.817544 0.122506 -0.406213 -2.65522 4.44902 4.69381 -6.38654 -3.01038 1.48469 -0.817232 0.12239 -0.406043 
26.982 1 79 41.2686 4.74113 2.75594 -0.74922 -0.432929 -0.388887 0.121635 -0.241495 0.234268 -0.980108 -3.42509 -23.8656 0.0339742 -0.315265 -3.46854 0.000220214 0.000109035 -0.000587625 41.2677 4.74066 2.75549 -0.727461 -0.47611 -0.346992 0.121693 -0.241513 0.234315 41.2677 4.74066 2.75549 -0.727482 -0.476104 -0.347009 0.121576 -0.241477 0.234222 
26.982 1 238 41.0625 2.72668 4.61923 -5.40237 -6.14709 1.27177 0.443576 0.0615089 -0.123584 0.1253 -14.8827 -10.1182 0.0636773 -2.16967 -1.44296 0.00020385 -0.000397238 -0.000405782 41.0569 2.72048 4.62046 -5.32303 -6.13609 1.24967 0.443733 0.0615439 -0.12362 41.0569 2.72048 4.62046 -5.32309 -6.1361 1.24969 0.443419 0.0614733 -0.123547 
26.982 1 1000 38.9029 18.2723 18.4294 -0.96926 -0.0215816 9.96916 -0.177875 -0.026404 -0.827408 -3.09135 11.9018 2.27726 -0.415426 1.60416 0.287129 -9.12712e-05 0.00021379 -0.000428643 38.9017 18.2723 18.4394 -1.00108 -0.0263093 9.8212 -0.177947 -0.0264416 -0.827541 38.9017 18.2723 18.4394 -1.00105 -0.0262958 9.82124 -0.177803 -0.0263664 -0.827276 
26.982 1 997 38.73 16.4868 15.9837 1.74377 -1.02602 2.97188 0.424088 -0.109449 1.12755 0.200431 0.0695514 -0.282851 0.0274538 0.00676849 -0.0404702 9.75241e-05 -8.25406e-05 0.000190714 38.7315 16.4857 15.9866 1.81961 -1.0456 3.17352 0.424179 -0.109544 1.12775 38.7315 16.4857 15.9866 1.81958 -1.04557 3.17345 0.423997 -0.109355 1.12734 
26.982 1 38 41.2098 2.72571 0.826894 -0.263709 5.09585 -5.80256 0.180813 0.128779 -0.0315299 0.25111 -9.16638 -17.4287 -0.0295124 -1.46984 -2.78131 0.000257629 -0.000470964 -0.000763924 41.2093 2.73076 0.821032 -0.231368 5.11888 -5.80821 0.180881 0.128824 -0.031565 41.2093 2.73076 0.821032 -0.231392 5.11887 -5.80819 0.180745 0.128733 -0.0314952 
26.982 1 83 -0.742543 9.03431 2.41916 -9.88189 -8.36513 -2.53763 0.392997 -0.253182 0.734123 -14.4669 -5.09021 -19.8437 -2.00474 -0.868184 -3.09818 0.000343519 -0.000163629 -0.000752296 -0.752244 9.0259 2.41656 -9.81161 -8.41042 -2.40636 0.393044 -0.253269 0.734223 -0.752244 9.0259 2.41656 -9.81163 -8.41039 -2.40639 0.39295 -0.253097 0.734023 
26.982 1 242 -0.418472 6.77083 4.55956 -3.18387 -4.97925 -1.10973 -0.329427 -0.0372599 -0.477066 -14.8153 -0.745031 -9.06528 -2.11832 -0.188087 -1.31828 -0.000134283 -6.56904e-06 -0.000281335 -0.421476 6.76581 4.5584 -3.24279 -4.98591 -1.19503 -0.329525 -0.0372432 -0.477112 -0.421476 6.76581 4.5584 -3.24276 -4.98592 -1.19502 -0.329329 -0.0372767 -0.477021 
26.982 1 44 -2.76743 6.59034 2.766 -0.157001 -2.84353 2.75509 -0.211253 -0.0454159 0.0984027 -3.55594 -12.9406 -20.1094 -0.751304 -1.61131 -2.96645 -0.000592456 -0.000295596 -0.000546486 -2.76739 6.58746 2.76871 -0.194784 -2.85164 2.7727 -0.211315 -0.0453913 0.0984634 -2.76739 6.58746 2.76871 -0.194762 -2.85165 2.77268 -0.21119 -0.0454406 0.098342 
26.982 1 637 38.7024 0.498314 12.3492 -0.148695 1.5511 2.7681 -0.195428 0.0426628 0.23256 -0.217961 -12.1375 -11.1387 -0.0622292 -1.60311 -1.56534 -4.58959e-05 -0.000676489 -0.000712912 38.7021 0.499814 12.352 -0.183651 1.55873 2.80968 -0.195504 0.0426618 0.232575 38.7021 0.499814 12.352 -0.183624 1.55873 2.80967 -0.195352 0.0426629 0.232544 
26.982 1 48 1.85892 6.60899 2.59458 3.53677 -3.03969 4.19471 0.217842 0.229442 -0.146903 -3.83483 -1.30097 -18.9686 -0.53818 -0.116392 -2.95448 -1.44835e-05 0.000129894 -0.00105318 1.86262 6.60591 2.59873 3.57572 -2.99865 4.16845 0.217882 0.229523 -0.146866 1.86262 6.60591 2.59873 3.57571 -2.99868 4.16843 0.217801 0.229361 -0.146942 
26.982 1 285 1.71334 8.62381 4.47057 -0.157078 -3.01418 -3.75711 0.141841 -0.175985 0.0351634 -1.76638 -0.268649 -2.93043 -0.2206 -0.0391131 -0.478563 4.65482e-05 -5.54362e-05 -0.000296909 1.71335 8.62076 4.46677 -0.131711 -3.04566 -3.75082 0.141876 -0.176041 0.0351339 1.71335 8.62076 4.46677 -0.131723 -3.04564 -3.75081 0.141807 -0.175929 0.0351922 
26.982 1 87 4.41356 8.56408 2.57094 0.798761 0.768132 -1.50667 -0.508694 -0.328732 0.211565 -0.174044 -0.275108 -17.1883 -0.047965 -0.0014014 -2.74572 -0.000241554 -4.3742e-05 -0.00100608 4.41449 8.56482 2.56938 0.707778 0.709349 -1.46883 -0.508862 -0.328769 0.211633 4.41449 8.56482 2.56938 0.707838 0.709362 -1.46885 -0.508527 -0.328695 0.211495 
26.982 1 246 4.27115 6.59123 4.65193 -6.33574 4.68246 0.312358 -0.191404 0.48713 -0.1649 -0.0760054 -0.19637 -2.5761 -0.00979482 -0.0291566 -0.440943 -0.000110362 0.00011808 -0.00017287 4.26495 6.59588 4.6522 -6.36998 4.76958 0.282881 -0.191519 0.487253 -0.164858 4.26495 6.59588 4.6522 -6.36994 4.76954 0.282866 -0.191289 0.487006 -0.164942 
26.982 1 88 1.73948 10.7203 2.74012 0.0319081 -2.54776 -2.11202 -0.165489 -0.311408 -0.102232 -4.06477 -0.813222 -17.852 -0.401537 -0.0834851 -2.77414 2.67371e-05 -0.000121871 -0.00102586 1.73968 10.7177 2.73795 0.0023075 -2.60345 -2.1303 -0.165555 -0.311487 -0.102201 1.73968 10.7177 2.73795 0.00233113 -2.60342 -2.13031 -0.165422 -0.311328 -0.102263 
26.982 1 286 3.94827 10.5181 4.38068 0.977533 0.392004 -3.17802 0.208962 -0.110572 0.539138 -0.044965 0.0241825 -2.27892 -0.00795432 0.00230625 -0.410984 4.06024e-05 -8.3982e-05 -0.00010307 3.94939 10.5185 4.37745 1.01491 0.372223 -3.0816 0.209031 -0.110634 0.539292 3.94939 10.5185 4.37745 1.01488 0.372245 -3.08165 0.208893 -0.110511 0.538985 
26.982 1 157 38.8027 12.3005 0.909616 0.228046 -1.24721 2.96927 -0.174967 0.654076 -0.334334 0.572893 0.785015 -17.3413 0.0344156 0.140277 -2.47908 -5.13125e-05 8.06736e-05 -0.00105519 38.8028 12.2992 0.912535 0.196753 -1.13024 2.90948 -0.175022 0.654185 -0.334388 38.8028 12.2992 0.912535 0.196773 -1.13028 2.9095 -0.174912 0.653969 -0.334279 
26.982 1 289 6.49779 8.58476 4.48486 2.9727 3.5546 0.736337 -0.0597173 -0.0744389 0.885815 0.153073 0.0325152 -2.59118 0.0179912 0.00132567 -0.423391 -6.49295e-05 9.989e-06 4.41945e-06 6.50088 8.58829 4.48556 2.96201 3.54129 0.894756 -0.0597648 -0.0743977 0.886026 6.50088 8.58829 4.48556 2.96203 3.54128 0.89468 -0.0596699 -0.0744801 0.885605 
26.982 1 52 6.44051 6.60616 2.77309 0.561683 -5.80737 -6.00786 0.169444 0.0321491 -0.24066 0.177528 0.0012925 -17.2346 0.0596397 -0.125533 -2.8068 6.51585e-05 -9.38645e-05 -0.00107703 6.44119 6.6003 2.76702 0.591983 -5.80161 -6.0509 0.169467 0.0321833 -0.240703 6.44119 6.6003 2.76702 0.591975 -5.80163 -6.05088 0.169424 0.0321141 -0.240615 
26.982 1 91 8.80353 8.73091 2.74572 -0.0446943 6.86944 -0.574724 0.0981073 -0.409729 0.0822157 1.84497 1.29289 -20.4086 0.195476 0.0445744 -3.08223 -0.000146923 -0.000344227 -0.000543816 8.80359 8.73776 2.74509 -0.0271477 6.79617 -0.560021 0.0981366 -0.409789 0.0822317 8.80359 8.73776 2.74509 -0.0271581 6.79619 -0.560027 0.0980789 -0.409669 0.0822006 
26.982 1 250 8.71788 6.50636 4.49124 -1.63317 -2.20636 3.02294 -0.0332421 0.761286 0.47847 0.139882 0.0590451 -2.57479 0.0151873 -0.0114397 -0.460421 -2.20756e-06 0.000117282 -0.000154714 8.71635 6.50411 4.49422 -1.63911 -2.07021 3.10851 -0.0332241 0.761448 0.47857 8.71635 6.50411 4.49422 -1.63911 -2.07027 3.10848 -0.0332602 0.761125 0.47837 
26.982 1 92 6.62351 10.447 2.72723 1.24094 5.10252 1.63279 -0.223462 0.420257 -0.329033 1.71086 -0.31758 -17.9353 0.135494 0.0317935 -2.79246 -0.000226676 -0.00011341 -0.00057546 6.62487 10.452 2.72881 1.20097 5.17768 1.57396 -0.223515 0.42038 -0.329051 6.62487 10.452 2.72881 1.20099 5.17764 1.57397 -0.223409 0.420133 -0.329014 
26.982 1 290 8.95522 10.6891 4.72762 2.2654 3.2332 2.22658 -0.473493 -0.232775 0.107298 0.244821 0.0503939 -3.17915 0.0209011 -0.000257686 -0.487884 -0.000101937 -2.57178e-05 1.43287e-05 8.95759 10.6923 4.7298 2.18072 3.19158 2.24578 -0.473592 -0.232797 0.107362 8.95759 10.6923 4.7298 2.18076 3.19158 2.24575 -0.473394 -0.232755 0.107233 
26.982 1 625 24.765 0.85073 12.4329 -4.537 -2.06167 -2.2455 0.152755 0.274684 0.277218 -0.979219 -16.0396 -12.0293 -0.0204229 -2.43212 -1.90611 6.64483e-05 -0.000671688 -0.000310604 24.7604 0.848612 12.4306 -4.50968 -2.01255 -2.19592 0.152786 0.274748 0.277264 24.7604 0.848612 12.4306 -4.50969 -2.01257 -2.19594 0.152725 0.274619 0.277173 
26.982 1 293 10.974 8.61909 4.74247 1.25793 -1.26708 2.0128 0.17457 -0.0424141 0.168841 0.0699674 0.235511 -3.39233 0.00683748 0.0182125 -0.505273 6.66768e-05 -5.56583e-05 -2.4588e-05 10.9754 8.61779 4.74444 1.28915 -1.27467 2.043 0.174625 -0.0424501 0.168901 10.9754 8.61779 4.74444 1.28913 -1.27466 2.04298 0.174514 -0.0423787 0.168782 
26.982 1 56 11.1056 6.63575 2.70274 -0.042368 6.48557 -1.39121 0.0410268 0.148366 0.139565 0.799463 1.91486 -19.681 -0.0221212 0.141371 -3.00793 7.79325e-05 -0.000160309 -0.000786295 11.1056 6.6422 2.7013 -0.0350206 6.51211 -1.36626 0.0410935 0.148443 0.139595 11.1056 6.6422 2.7013 -0.0350445 6.51209 -1.36627 0.0409597 0.148288 0.139535 
26.982 1 95 13.4661 8.77047 2.88902 -0.887153 1.06443 2.21303 -0.0496959 -0.0561929 -0.0887778 -0.441012 1.5312 -22.5168 0.0448747 0.182307 -3.26519 0.000145299 -6.7256e-05 -0.000864089 13.4653 8.7715 2.89118 -0.896047 1.05438 2.19716 -0.049743 -0.0562141 -0.0887654 13.4653 8.7715 2.89118 -0.89603 1.05439 2.19715 -0.049649 -0.056172 -0.0887906 
26.982 1 254 13.2866 6.6504 4.67667 -2.26522 3.73476 -1.33107 0.0252111 0.212158 -0.0444348 0.0303826 -0.0242709 -3.08269 0.00519681 -0.00576256 -0.476492 -1.13199e-05 6.39662e-05 -0.000175327 13.2844 6.6541 4.67529 -2.26071 3.7727 -1.33901 0.025201 0.212228 -0.0444268 13.2844 6.6541 4.67529 -2.26071 3.77268 -1.33901 0.0252211 0.212087 -0.0444434 
26.982 1 60 15.6632 6.72032 2.88939 -3.76125 -1.28717 0.263966 0.186833 0.373877 -0.228502 -0.341843 0.961959 -20.0111 0.0608915 0.141163 -3.13288 3.95533e-05 0.000260221 -0.000779396 15.6595 6.719 2.88961 -3.72784 -1.22031 0.223102 0.186862 0.373935 -0.228546 15.6595 6.719 2.88961 -3.72785 -1.22033 0.223118 0.186804 0.373819 -0.228458 
26.982 1 297 15.7137 8.88977 4.84872 2.98214 7.07312 -1.04779 -0.233084 -0.673652 -0.235965 -0.00915745 0.244867 -3.47572 0.0105007 0.0295165 -0.552461 -7.4738e-05 -0.000100679 -0.000176901 15.7167 8.89681 4.84762 2.94045 6.95265 -1.08998 -0.233156 -0.673758 -0.235974 15.7167 8.89681 4.84762 2.94048 6.95269 -1.08998 -0.233011 -0.673546 -0.235956 
26.982 1 99 17.8468 8.62733 2.77102 -4.55505 1.02941 -2.37182 0.491048 -0.205548 -0.0814262 -0.964591 1.7605 -20.9039 -0.179504 0.160532 -3.26288 -4.20311e-05 -9.2903e-05 -0.000918617 17.8422 8.62833 2.76859 -4.46722 0.992644 -2.38639 0.491223 -0.205617 -0.0814748 17.8422 8.62833 2.76859 -4.46729 0.992668 -2.38637 0.490874 -0.205481 -0.0813778 
26.982 1 258 18.0563 6.7387 4.77303 1.64776 -1.74564 -1.81641 -0.0896458 0.0428837 -0.474387 0.0383805 0.0321707 -2.95223 0.00698161 -0.013614 -0.510247 -5.0172e-06 2.17966e-05 -0.000213105 18.058 6.73691 4.77117 1.63173 -1.73797 -1.90124 -0.0896446 0.0429184 -0.474443 18.058 6.73691 4.77117 1.63173 -1.73798 -1.90122 -0.0896472 0.0428488 -0.474332 