ITEM: TIMESTEP
3000
ITEM: NUMBER OF ATOMS
4000
ITEM: BOX BOUNDS pp pp pp
-0.683922 41.1839
0.14758 40.3524
0.133494 40.3665
ITEM: ATOMS mass type id x y z vx vy vz fx fy fz xrad yrad zrad vxrad vyrad vzrad fxrad fyrad fzrad xub yub zub vxub vyub vzub fxub fyub fzub xlb ylb zlb vxlb vylb vzlb fxlb fylb fzlb 
26.982 1 3 1.33645 0.203295 2.25427 2.52414 2.0556 5.705 0.29905 -0.268914 -0.454496 -0.469237 -1.07471 -0.366521 -0.270679 -0.664209 -0.338589 -0.000270248 -0.000992884 -0.000449802 1.33916 0.20536 2.26 2.57762 2.00751 5.62373 0.299095 -0.268954 -0.454563 1.33916 0.20536 2.26 2.5776 2.00753 5.62375 0.299006 -0.268874 -0.45443 
26.982 1 8 3.5036 2.1028 2.24527 0.478707 -4.50038 0.104954 0.185528 -0.0500817 -0.463155 0.13389 -0.928537 -0.664151 0.0540942 -0.616685 -0.497904 0.000347862 -0.00058405 -0.000651258 3.50424 2.0983 2.2454 0.511884 -4.50934 0.0221264 0.185558 -0.050113 -0.463255 3.50424 2.0983 2.2454 0.511874 -4.50933 0.0221623 0.185498 -0.0500503 -0.463055 
26.982 1 43 1.42472 4.3958 2.15279 3.09014 0.366072 0.859872 0.0236837 -0.418744 0.0657885 -0.431532 -0.457936 -0.945906 -0.330071 -0.297396 -0.774889 -0.000579173 -0.000177376 -0.000253664 1.42799 4.39617 2.15367 3.09437 0.291184 0.871631 0.0236437 -0.418845 0.0657717 1.42799 4.39617 2.15367 3.09438 0.29122 0.871637 0.0237239 -0.418644 0.0658048 
26.982 1 202 1.47876 2.13316 4.00734 -0.234014 1.9761 -0.662438 -0.417161 0.351727 0.225652 -0.436323 -0.845885 -0.564624 -0.247508 -0.51262 -0.399993 -0.000548042 -0.00010538 -0.00015032 1.47871 2.13514 4.0067 -0.308621 2.039 -0.622096 -0.417277 0.351791 0.225631 1.47871 2.13514 4.0067 -0.30858 2.03898 -0.622089 -0.417045 0.351663 0.225674 
26.982 1 241 41.1516 4.28452 3.94626 1.08635 0.113789 1.36098 0.306493 -0.356747 0.783598 -0.800449 -0.834955 -0.842956 -0.523777 -0.540448 -0.582575 2.41747e-05 -8.53081e-05 4.66904e-06 41.1525 4.28464 3.94765 1.14116 0.049991 1.50112 0.306534 -0.356817 0.783755 41.1525 4.28464 3.94765 1.14114 0.0500162 1.50106 0.306452 -0.356677 0.783442 
26.982 1 201 41.0626 0.263582 4.26483 -0.482624 0.404613 -2.53354 0.370191 -0.373681 -0.923743 -0.18574 -0.463469 -0.481031 -0.220646 -0.385889 -0.50535 -1.29412e-06 -0.000698357 -0.000542741 41.0619 0.26399 4.26231 -0.416433 0.337787 -2.69873 0.370206 -0.373758 -0.923893 41.0619 0.26399 4.26231 -0.416438 0.337814 -2.69867 0.370176 -0.373605 -0.923594 
26.982 1 245 3.48877 4.20523 4.13041 -0.316357 2.73941 -0.885282 0.283608 -0.26696 0.119054 -0.0382256 -0.182888 -0.167465 -0.0290352 -0.120006 -0.125797 -2.0965e-06 -0.000114993 -4.95258e-05 3.48862 4.20798 4.12955 -0.265642 2.69167 -0.863994 0.28365 -0.267032 0.11906 3.48862 4.20798 4.12955 -0.265657 2.6917 -0.863996 0.283566 -0.266888 0.11905 
26.982 1 47 5.74304 3.94459 2.23895 0.785811 -8.23784 0.385941 -0.14005 0.270761 -0.331574 -0.204331 -0.281604 -0.67622 -0.0907505 -0.192666 -0.502585 2.36739e-05 -0.000369452 -0.000466327 5.74397 3.93635 2.23936 0.760774 -8.18943 0.326646 -0.140034 0.270744 -0.331638 5.74397 3.93635 2.23936 0.760768 -8.18942 0.326669 -0.140067 0.270778 -0.33151 
26.982 1 206 5.55513 2.16912 4.22669 -3.4248 1.30671 0.702236 0.299163 -0.227596 0.0188648 -0.278959 -0.918266 -0.493467 -0.134405 -0.655122 -0.341967 0.000321332 -0.000557809 -0.000319125 5.55185 2.17044 4.22741 -3.37129 1.26601 0.705608 0.299276 -0.227648 0.0188562 5.55185 2.17044 4.22741 -3.37133 1.26602 0.705611 0.29905 -0.227542 0.0188726 
26.982 1 815 13.9881 0.237995 18.1516 2.33235 -8.75494 2.31956 -0.200355 -0.502958 0.0846945 0.238638 -1.47241 0.00495723 0.117325 -0.69515 -0.201048 -4.35e-05 -0.00117095 -2.03794e-05 13.9905 0.229236 18.1539 2.29651 -8.84489 2.3347 -0.200412 -0.503068 0.0847028 13.9905 0.229236 18.1539 2.29653 -8.84485 2.3347 -0.200297 -0.502849 0.0846863 
26.982 1 12 7.82349 2.05828 2.01542 2.4374 0.293924 -1.31957 -0.338656 -0.170868 0.319903 -0.150645 -1.06704 -0.560431 -0.101897 -0.757656 -0.42668 3.50545e-06 -0.00101494 -0.000510671 7.82605 2.05858 2.01412 2.37684 0.263361 -1.26236 -0.338746 -0.170935 0.319972 7.82605 2.05858 2.01412 2.37687 0.263385 -1.26239 -0.338566 -0.170801 0.319834 
26.982 1 249 7.85093 4.06456 4.10457 -0.46542 -1.87085 4.75335 -0.200481 -0.30868 0.343672 -0.0134373 -0.094747 -0.0858328 -0.00822195 -0.0805329 -0.0759001 -2.33408e-05 -0.000243535 -1.26962e-05 7.85058 4.0627 4.10935 -0.501271 -1.92606 4.81481 -0.200514 -0.308771 0.343742 7.85058 4.0627 4.10935 -0.501259 -1.92602 4.81478 -0.200449 -0.308589 0.343602 
26.982 1 2835 34.8909 20.3089 18.2711 -0.14385 3.61965 3.4112 -0.146855 -0.180563 0.061536 -0.0815755 -0.185142 -0.613508 -0.166037 -0.334569 -0.36945 -0.000263724 0.000383338 -0.000269619 34.8906 20.3125 18.2745 -0.170118 3.58736 3.4222 -0.14692 -0.180569 0.0615576 34.8906 20.3125 18.2745 -0.170095 3.58736 3.42219 -0.146789 -0.180558 0.0615141 
26.982 1 16 11.7535 2.18255 1.97442 0.292847 -0.410282 2.89709 0.46777 -0.379597 0.394196 0.291308 -1.18186 -0.651393 0.0876913 -0.693371 -0.350684 0.000113328 -0.000607123 -0.000937124 11.7539 2.18215 1.97734 0.376498 -0.47817 2.9676 0.467856 -0.379696 0.394313 11.7539 2.18215 1.97734 0.376467 -0.478134 2.96755 0.467684 -0.379496 0.39408 
26.982 1 51 9.87807 4.0773 2.1466 -2.5697 0.208829 -0.127598 -0.219939 0.164786 0.291987 -0.00134204 -0.0433157 -0.491773 -0.0543257 -0.0252055 -0.376142 0.000196627 -0.000309525 -0.000558711 9.8756 4.07751 2.1465 -2.60903 0.238296 -0.0753768 -0.21996 0.164812 0.292072 9.8756 4.07751 2.1465 -2.60902 0.238287 -0.0754075 -0.219917 0.164761 0.291901 
26.982 1 2833 33.0059 20.161 16.1041 0.148495 0.31582 0.483618 -0.575024 0.458718 0.675927 -0.578023 -0.0807585 -0.803208 -0.383321 -0.241857 -0.49329 -0.000279377 0.000561371 -0.000549957 33.0059 20.1613 16.1045 0.0456604 0.397858 0.604496 -0.575151 0.458839 0.676068 33.0059 20.1613 16.1045 0.0457057 0.397815 0.604445 -0.574897 0.458597 0.675784 
26.982 1 210 9.82704 1.9749 4.27775 3.9841 0.631121 0.118816 -0.0830448 0.527209 -0.451065 0.0885562 -0.716764 -0.456438 0.00261051 -0.525514 -0.308444 -0.000229892 -0.00047762 -0.00045332 9.83113 1.97553 4.27789 3.96925 0.725401 0.0381589 -0.083057 0.527305 -0.451114 9.83113 1.97553 4.27789 3.96925 0.725367 0.0381765 -0.0830321 0.527113 -0.451015 
26.982 1 1161 -0.600856 16.3324 20.0686 -4.31978 4.58737 -1.89182 -0.104934 -0.577171 0.450011 -0.239323 -0.427042 -0.390584 -0.17036 -0.289603 -0.28594 -0.000713301 -0.000448785 7.08844e-05 -0.604976 16.337 20.0668 -4.33855 4.48414 -1.81134 -0.104957 -0.577338 0.450121 -0.604976 16.337 20.0668 -4.33854 4.4842 -1.81138 -0.104911 -0.577004 0.449902 
26.982 1 253 12.0644 3.92181 4.26432 1.76375 -0.265466 0.0503995 -0.69862 0.428288 -0.349853 0.0154361 -0.12293 -0.0885753 0.00386772 -0.0714079 -0.0591448 -6.19588e-05 -7.65298e-05 -0.000224154 12.0663 3.92155 4.26439 1.63883 -0.188888 -0.0121648 -0.698697 0.428299 -0.349921 12.0663 3.92155 4.26439 1.63886 -0.188892 -0.0121408 -0.698543 0.428278 -0.349787 
26.982 1 20 16.0838 2.07224 1.92642 1.23899 0.483015 7.29176 -0.308115 0.333008 1.0335 -0.466027 -1.19683 -0.505973 -0.204669 -0.701141 -0.345983 -0.000338883 -0.000638704 -0.000459101 16.0851 2.07273 1.93374 1.1839 0.542567 7.47659 -0.308155 0.333073 1.03374 16.0851 2.07273 1.93374 1.18391 0.542544 7.4765 -0.308076 0.332943 1.03327 
26.982 1 55 13.8228 4.23868 1.99936 -1.89689 1.08356 2.74491 0.620914 -0.538778 0.446148 -0.0161967 -0.429818 -0.640468 -0.00391815 -0.163021 -0.44015 0.000109252 -0.000206301 -0.00100348 13.821 4.23977 2.00213 -1.78584 0.987213 2.8247 0.621063 -0.538862 0.44625 13.821 4.23977 2.00213 -1.7859 0.987243 2.82467 0.620764 -0.538694 0.446044 
26.982 1 2827 26.5995 20.2521 18.248 -1.13987 2.50769 1.70977 0.230728 0.363065 -0.239075 -0.479104 -0.198265 -0.837931 -0.413557 -0.341054 -0.514094 -0.00040279 0.000533814 -0.00045916 26.5983 20.2546 18.2497 -1.0986 2.57262 1.66701 0.230839 0.36312 -0.239121 26.5983 20.2546 18.2497 -1.09864 2.5726 1.66703 0.230617 0.363011 -0.239028 
26.982 1 214 14.0505 2.30055 4.08686 5.21344 -4.32225 1.58168 0.219559 -0.846133 -0.0408399 0.157907 -0.954466 -0.508665 0.0635871 -0.546795 -0.274881 0.000184057 -0.000682745 -0.000391088 14.0557 2.29623 4.08847 5.2527 -4.47357 1.57438 0.219592 -0.84633 -0.0408546 14.0557 2.29623 4.08847 5.25269 -4.4735 1.57438 0.219525 -0.845936 -0.0408271 
26.982 1 257 16.1808 4.0083 4.17889 -2.35074 2.7131 -1.53355 0.0529292 0.267515 -0.0985159 -0.0207849 -0.178949 -0.0690426 -0.00714876 -0.0914244 -0.0538067 6.10634e-06 -0.000115535 -0.000184409 16.1785 4.01102 4.17737 -2.34127 2.76094 -1.55118 0.0529585 0.267548 -0.0985655 16.1785 4.01102 4.17737 -2.34129 2.76093 -1.55116 0.0528998 0.267483 -0.098467 
26.982 1 213 11.8039 0.163281 4.01724 -4.32788 -0.905836 -0.488293 0.738506 -0.0412424 0.485935 0.0386914 -0.792075 -0.80134 -0.0540253 -0.525838 -0.463494 0.000131191 -0.000749742 -0.000743181 11.7997 0.162381 4.01677 -4.19581 -0.913213 -0.401392 0.738711 -0.0412586 0.486035 11.7997 0.162381 4.01677 -4.19588 -0.913207 -0.401428 0.7383 -0.0412259 0.485835 
26.982 1 1000 36.9117 18.2869 18.2677 -2.62119 2.68433 -3.60397 0.20397 -0.188236 0.150067 -0.0393765 0.702479 -0.184303 -0.161787 0.440342 -0.0225677 -3.24767e-06 1.32976e-05 3.01372e-05 36.909 18.2896 18.2641 -2.58473 2.65067 -3.57713 0.203942 -0.188263 0.150108 36.909 18.2896 18.2641 -2.58472 2.65068 -3.57715 0.203998 -0.188209 0.150025 
26.982 1 999 38.9591 16.2271 18.2193 -0.6195 1.35998 0.985714 0.559482 0.1414 0.152529 0.234769 -0.022264 -0.190076 0.211107 -0.0184264 -0.179352 0.000298698 -4.76972e-05 -0.000153163 38.9582 16.2285 18.2203 -0.519455 1.38525 1.01299 0.559547 0.141371 0.152577 38.9582 16.2285 18.2203 -0.519479 1.38526 1.01298 0.559416 0.141429 0.15248 
26.982 1 2829 28.3785 20.2127 16.0592 2.95441 -0.966661 -0.966486 1.02455 0.373741 0.362632 0.065011 0.841472 -0.655487 -0.0487472 0.293829 -0.400564 0.000149346 0.000328678 -0.000197738 28.3814 20.2117 16.0583 3.13764 -0.899827 -0.901633 1.02481 0.373801 0.362718 28.3814 20.2117 16.0583 3.13755 -0.899849 -0.901664 1.02428 0.373681 0.362545 
26.982 1 218 18.2208 2.10319 4.19163 1.62702 0.159634 -0.487763 -0.0562917 0.0254328 -0.302109 -0.10323 -0.867329 -0.231697 -0.0163184 -0.531835 -0.166887 -0.000264781 -0.00050727 -0.000383568 18.2225 2.10335 4.19116 1.61695 0.164187 -0.541798 -0.0563359 0.0254636 -0.302213 18.2225 2.10335 4.19116 1.61696 0.164176 -0.541761 -0.0562472 0.0254017 -0.302005 
26.982 1 18 18.0435 2.15994 0.198021 -5.83319 1.14033 0.609914 0.709554 -0.0668046 -0.425105 -0.141947 -0.680476 -1.47527 0.0212904 -0.430112 -0.987235 -0.000112507 -0.000184001 -0.000827378 18.0377 2.16109 0.198659 -5.7063 1.12839 0.5339 0.709689 -0.0667829 -0.425143 18.0377 2.16109 0.198659 -5.70635 1.12838 0.533914 0.709419 -0.0668264 -0.425067 
26.982 1 59 18.2589 4.09123 2.12039 -1.6896 -1.48656 4.68808 -0.185228 0.236891 0.280757 0.0129957 -0.102992 -0.37696 0.0577928 -0.0176325 -0.347397 -1.38147e-05 -8.62962e-05 -0.000497092 18.2572 4.08975 2.1251 -1.72272 -1.4442 4.73829 -0.185238 0.236913 0.280825 18.2572 4.08975 2.1251 -1.72272 -1.44421 4.73827 -0.185218 0.236869 0.280687 
26.982 1 998 38.9734 18.2066 16.3695 -2.77539 9.4588 -0.205186 0.309992 0.250353 -0.584437 0.162821 0.0965029 -0.280532 0.157749 -0.00965429 -0.147171 4.39042e-05 0.000352974 -0.000437333 38.9705 18.2161 16.3693 -2.71996 9.50357 -0.309707 0.31 0.250408 -0.584584 38.9705 18.2161 16.3693 -2.71996 9.50355 -0.309654 0.309985 0.250298 -0.58429 
26.982 1 2821 20.3053 20.2227 16.2087 4.68651 1.96238 0.802418 -0.132272 -0.184627 0.0936479 0.166132 0.692202 -0.611218 0.0102933 0.290952 -0.356806 -0.000422221 0.000380293 -0.00040974 20.31 20.2247 16.2095 4.66286 1.92937 0.819168 -0.132299 -0.184659 0.0936804 20.31 20.2247 16.2095 4.66287 1.92938 0.819156 -0.132246 -0.184595 0.0936146 
26.982 1 24 20.4221 2.1912 2.26624 -4.56508 -0.903377 2.61311 -0.286212 0.128603 -0.262756 0.0609484 -0.914012 -0.256763 0.0488946 -0.60408 -0.279432 0.000140264 -0.000316557 -0.00063231 20.4176 2.1903 2.26888 -4.61626 -0.880376 2.56612 -0.286257 0.128641 -0.262827 20.4176 2.1903 2.26888 -4.61624 -0.88039 2.56614 -0.286166 0.128564 -0.262687 
26.982 1 63 22.3368 4.26406 2.01626 -0.197628 0.608381 3.49053 0.0863208 -0.515121 0.531697 0.00648122 0.0585491 -0.527302 0.00692419 0.0688998 -0.49009 5.07596e-05 -0.000408304 -0.000718487 22.3366 4.26467 2.01978 -0.182195 0.516255 3.58561 0.0863168 -0.515256 0.531786 22.3366 4.26467 2.01978 -0.182194 0.516304 3.58558 0.0863254 -0.514987 0.531608 
26.982 1 222 22.3777 2.30296 4.24936 -4.91076 0.890346 2.73745 0.161692 -0.189998 -0.381126 -0.191422 -0.675366 -0.297432 -0.0817543 -0.485308 -0.218254 3.40703e-05 -0.000308893 -0.000398639 22.3727 2.30385 4.25212 -4.88184 0.856373 2.66929 0.161728 -0.19001 -0.381214 22.3727 2.30385 4.25212 -4.88186 0.856377 2.66932 0.161656 -0.189986 -0.381037 
26.982 1 261 20.2886 4.39087 4.16656 0.0854661 -1.90525 0.443861 -0.181262 -0.460326 0.246667 0.00375978 -0.115497 -0.0608204 0.00662248 -0.0765426 -0.0666441 -6.8649e-05 -0.000113018 -7.24183e-05 20.2886 4.38896 4.16703 0.0530443 -1.98757 0.48797 -0.181334 -0.460391 0.246704 20.2886 4.38897 4.16703 0.0530703 -1.98755 0.487957 -0.181189 -0.460262 0.246631 
26.982 1 28 24.4093 2.13131 2.16698 4.0331 -3.1377 -1.06313 -0.0283073 0.433612 -0.177416 -0.0775997 -0.514659 -0.44128 -0.0565048 -0.369857 -0.359591 -0.000365492 -0.00028785 -0.000767503 24.4133 2.12817 2.16593 4.02804 -3.06017 -1.09485 -0.0283014 0.433674 -0.17744 24.4133 2.12817 2.16593 4.02803 -3.06019 -1.09484 -0.0283139 0.433551 -0.177394 
26.982 1 27 26.4724 0.255412 2.17891 2.56837 -0.49627 0.978882 0.423477 -0.218776 0.320215 0.511564 -1.49312 -0.404855 0.148482 -0.985238 -0.28146 2.27018e-05 -0.000907645 -0.000488284 26.4749 0.254921 2.17992 2.6441 -0.535391 1.03615 0.423576 -0.218801 0.320285 26.4749 0.254921 2.17992 2.64407 -0.535382 1.03612 0.423377 -0.218754 0.320144 
26.982 1 67 26.3992 4.22738 2.15416 3.92878 -7.84912 1.62065 0.203265 -0.577592 0.0385135 0.0175063 3.32974e-05 -0.644909 0.00160383 0.0424143 -0.567176 -1.35947e-05 -0.000213878 -0.00062336 26.403 4.21952 2.15581 3.96512 -7.95243 1.62753 0.203261 -0.577779 0.0384943 26.403 4.21952 2.15581 3.96512 -7.95236 1.62753 0.203269 -0.577405 0.0385329 
26.982 1 226 26.5028 2.43737 4.45889 3.87191 6.18446 -4.06553 0.145664 -0.291992 -1.06109 0.268291 -0.567148 -0.151328 0.0789941 -0.364233 -0.112007 -1.27733e-05 -0.000209695 -0.000326186 26.5066 2.44357 4.45484 3.89795 6.13224 -4.25529 0.145669 -0.292094 -1.06132 26.5066 2.44357 4.45484 3.89795 6.13227 -4.25521 0.14566 -0.291891 -1.06085 
26.982 1 265 24.4376 4.3079 4.23941 -1.15782 0.436074 0.171501 -0.116795 -0.338181 -0.113594 -0.00165185 -0.0475665 -0.0780484 -0.00181036 -0.0436712 -0.0794018 -5.36148e-05 -0.000108273 -0.000153732 24.4364 4.30834 4.2396 -1.17871 0.375595 0.151183 -0.116834 -0.338257 -0.113639 24.4364 4.30834 4.2396 -1.1787 0.375623 0.151199 -0.116757 -0.338104 -0.11355 
26.982 1 26 26.5697 2.15718 0.248809 -4.75657 0.950952 -1.41416 -0.0252002 0.209622 -0.196818 0.144955 -0.503898 -1.20119 -0.0045474 -0.229993 -0.79693 -1.41783e-05 -0.000120526 -0.00102668 26.5649 2.15814 0.247422 -4.76108 0.988434 -1.44935 -0.0251945 0.209639 -0.196818 26.5649 2.15814 0.247422 -4.76108 0.988428 -1.44935 -0.0252061 0.209607 -0.19682 
26.982 1 30 30.8486 2.16776 0.0910562 -1.35121 2.65813 -2.30064 -0.440217 0.247559 0.587615 -0.00737293 -0.949449 -1.43584 -0.0706158 -0.448448 -1.01454 -0.000251852 0.000120332 -0.000968266 30.8472 2.17042 0.0887814 -1.42994 2.7024 -2.19555 -0.440326 0.247567 0.587759 30.8472 2.17042 0.0887813 -1.4299 2.7024 -2.1956 -0.440108 0.247552 0.587469 
26.982 1 32 28.7322 2.28068 2.27018 0.968343 1.3874 0.345917 -0.506444 -0.399186 -0.419135 0.0951998 -1.01747 -0.444788 -0.0119452 -0.48546 -0.353047 -0.000162383 -0.000247169 -0.000705742 28.7331 2.28207 2.27055 0.877765 1.316 0.270956 -0.506597 -0.39933 -0.419256 28.7331 2.28207 2.27055 0.87782 1.31605 0.270999 -0.506292 -0.399041 -0.419016 
26.982 1 71 30.7356 4.24867 2.15077 -2.00329 -1.97958 -3.07144 0.297486 0.0296025 -0.256683 -0.0230842 -0.120598 -0.379152 -0.0767902 -0.0492574 -0.296207 7.89155e-05 0.000219171 -0.000913664 30.7335 4.2467 2.14772 -1.95009 -1.97429 -3.11735 0.297578 0.029588 -0.25678 30.7335 4.2467 2.14772 -1.95012 -1.97429 -3.11732 0.297394 0.0296175 -0.256585 
26.982 1 230 30.7118 2.39026 4.18929 -6.62409 -3.93813 0.875803 0.344681 -0.246713 0.0884621 -0.107977 -0.892385 -0.303607 -0.0799309 -0.448997 -0.148948 5.6194e-05 -0.000166138 -9.10565e-05 30.7051 2.38633 4.19019 -6.56245 -3.98226 0.891621 0.344749 -0.246785 0.0884665 30.7051 2.38633 4.19019 -6.56247 -3.98223 0.891619 0.344615 -0.246641 0.0884589 
26.982 1 269 28.662 4.23372 4.11029 -4.27923 4.54472 -0.659382 -0.0230583 0.178721 0.529287 -0.00159382 -0.12868 -0.0733537 -0.0139622 -0.0607738 -0.0688291 -3.73425e-05 2.20173e-05 -2.90938e-05 28.6577 4.23827 4.10965 -4.28336 4.57668 -0.564729 -0.0231038 0.178735 0.529392 28.6577 4.23827 4.10965 -4.28335 4.57667 -0.564767 -0.0230119 0.178707 0.529182 
26.982 1 36 32.7636 2.4014 2.2681 -2.47122 -2.4567 -0.0609439 0.220969 -0.569501 -0.288974 0.0185442 -0.936251 -0.618305 0.0101074 -0.479924 -0.368337 5.78221e-05 -5.72853e-05 -0.000517414 32.761 2.39894 2.26806 -2.4317 -2.55856 -0.112622 0.221022 -0.569657 -0.289036 32.761 2.39894 2.26806 -2.43172 -2.5585 -0.1126 0.220915 -0.569345 -0.288912 
26.982 1 2805 3.5095 20.1906 16.0557 -1.24552 -2.00673 -4.98929 -0.148197 0.379986 0.605851 -0.0966134 -0.638618 -0.481038 -0.0528691 -0.509409 -0.343646 9.6643e-05 0.000568619 -0.000361339 3.50842 20.1886 16.0507 -1.272 -1.93878 -4.88094 -0.148152 0.380077 0.605992 3.50842 20.1886 16.0507 -1.27202 -1.93881 -4.881 -0.148243 0.379894 0.60571 
26.982 1 273 32.9226 4.38319 4.19307 -2.06293 3.21025 -1.33953 -0.133005 -0.409474 -0.0404113 0.0191734 -0.104976 -0.0790502 0.00957704 -0.0476709 -0.0407371 1.58715e-05 -8.3397e-05 -0.000145262 32.9205 4.3864 4.19175 -2.08671 3.13702 -1.34676 -0.132988 -0.40958 -0.0404347 32.9205 4.3864 4.19175 -2.08671 3.13706 -1.34675 -0.133022 -0.409369 -0.0403873 
26.982 1 229 28.6588 0.203147 4.29507 -0.576336 -2.37392 4.275 -0.127714 0.275312 -0.642921 -0.00701866 -0.140645 -0.20009 -0.020628 -0.261745 -0.18657 -5.48151e-05 -0.000683677 -0.000531325 28.6581 0.200775 4.29937 -0.599181 -2.32469 4.16001 -0.127772 0.27536 -0.643101 28.6581 0.200775 4.29937 -0.599161 -2.32471 4.16008 -0.127656 0.275262 -0.64274 
26.982 1 31 30.7036 0.26251 2.3237 2.94244 2.27594 -0.865257 0.255439 -0.00602303 -0.27837 -0.263355 -0.74817 -0.627379 -0.142586 -0.724332 -0.368305 -0.000124612 -0.000967114 -0.000466008 30.7064 0.264792 2.32286 2.98813 2.27487 -0.915042 0.255498 -0.00602622 -0.278449 30.7064 0.264792 2.32286 2.98811 2.27487 -0.915014 0.25538 -0.00601954 -0.27829 
26.982 1 997 37.1356 16.2364 16.083 4.93248 -3.30175 -1.53937 -0.321217 -0.30106 0.537369 0.0052107 -0.000732631 -0.00965268 0.00823975 0.000662443 -0.006647 -4.61033e-05 -5.69334e-05 8.114e-05 37.1403 16.2331 16.0815 4.87503 -3.35559 -1.44328 -0.321269 -0.301118 0.537458 37.1403 16.2331 16.0815 4.87505 -3.35557 -1.44331 -0.321164 -0.301002 0.537281 
26.982 1 33 32.8241 0.262535 0.146954 -2.54656 -2.14805 -1.23315 0.32084 -0.174857 0.439254 0.245249 -0.465755 -1.22832 0.0627658 -0.468521 -0.749257 -4.57137e-06 -0.000680745 -0.000670068 32.8215 0.260389 0.145747 -2.48918 -2.17932 -1.15458 0.320931 -0.174911 0.439389 32.8215 0.260389 0.145747 -2.48921 -2.1793 -1.15463 0.320749 -0.174803 0.439118 
26.982 1 35 34.9149 0.209205 2.18968 7.67863 -3.61532 2.7584 -0.0636758 0.0596419 -0.113563 0.0189877 -1.39223 -0.785972 0.074725 -0.980087 -0.430803 0.000156 -0.000896468 -0.000388954 34.9225 0.205591 2.19246 7.66724 -3.60466 2.7381 -0.0636955 0.0596419 -0.113574 34.9225 0.205591 2.19246 7.66725 -3.60466 2.7381 -0.0636565 0.0596406 -0.113553 
26.982 1 75 34.8844 4.26341 2.02437 2.43767 0.344237 6.68872 0.352145 -0.0368557 0.333962 0.356014 -0.101025 -1.00739 0.238297 -0.053011 -0.573925 6.59176e-05 0.000187679 -0.000826467 34.8867 4.26376 2.03109 2.50064 0.337639 6.74844 0.352216 -0.0369045 0.334018 34.8867 4.26376 2.03109 2.50062 0.337656 6.74842 0.352073 -0.0368063 0.333906 
26.982 1 234 34.9878 2.33743 4.07337 -2.59408 0.987789 1.21818 -0.0582734 -0.0811186 0.369995 -0.0298689 -0.529987 -0.239964 0.0318215 -0.303739 -0.131022 4.60162e-05 -0.000132154 -3.44855e-05 34.985 2.33842 4.07461 -2.6045 0.973278 1.28435 -0.0582419 -0.0811605 0.370072 34.985 2.33842 4.07461 -2.60451 0.973293 1.28432 -0.0583056 -0.0810757 0.369917 
26.982 1 34 34.9101 2.17862 0.145666 1.01324 -0.754394 0.602723 0.346986 -0.0286101 0.141785 0.20513 -0.287954 -0.742801 0.186862 -0.155154 -0.734484 0.000270931 9.35986e-05 -0.000969077 34.9109 2.17787 0.146294 1.07529 -0.759519 0.628085 0.347065 -0.0286662 0.141847 34.9109 2.17787 0.146294 1.07526 -0.759499 0.628063 0.346907 -0.0285526 0.141722 
26.982 1 233 32.8289 0.383235 4.28915 -2.48317 -4.1051 -3.71692 0.0672333 -0.339543 -0.828917 0.0194497 -0.560497 -0.318457 0.00826339 -0.553253 -0.26986 4.39415e-05 -0.000688755 -0.000453605 32.8263 0.379134 4.28545 -2.47114 -4.16582 -3.86517 0.0672945 -0.339612 -0.829123 32.8263 0.379134 4.28545 -2.47116 -4.1658 -3.86509 0.067171 -0.339473 -0.828712 
26.982 1 237 36.9965 0.242788 4.12762 -0.106617 -1.81128 -4.27433 -0.076656 -0.219713 -0.0238194 0.215275 -0.78318 -0.699272 0.140767 -0.519248 -0.439139 -1.49222e-05 -0.000706877 -0.000377095 36.9962 0.240979 4.12336 -0.12033 -1.85057 -4.27859 -0.0766916 -0.219752 -0.0238207 36.9962 0.240979 4.12336 -0.120317 -1.85056 -4.27859 -0.0766205 -0.219675 -0.0238183 
26.982 1 4 -0.661547 2.12851 2.03899 -3.74178 -1.68518 -2.55085 -0.169192 0.460776 0.341893 -0.472986 -0.852421 -0.902287 -0.220143 -0.510467 -0.652996 -0.000910441 -9.73341e-05 -0.000213313 -0.665089 2.12682 2.03646 -3.77204 -1.60277 -2.48971 -0.169241 0.460873 0.341963 -0.665089 2.12682 2.03646 -3.77202 -1.60281 -2.48973 -0.169143 0.460678 0.341822 
26.982 1 40 37.0952 2.34528 2.22228 1.60806 -2.13205 -5.43502 -0.105419 -0.247341 -0.414953 0.43021 -0.670714 -1.29098 0.294834 -0.399334 -0.725619 0.000160103 -0.000172441 -0.000848136 37.0967 2.34315 2.21687 1.58921 -2.17628 -5.50923 -0.105426 -0.247422 -0.415015 37.0967 2.34315 2.21687 1.58921 -2.17625 -5.5092 -0.105411 -0.24726 -0.414892 
26.982 1 79 39.1761 4.39984 2.08609 -2.65857 2.24985 0.509161 -0.128087 -0.725755 0.169923 -0.210999 -0.363449 -1.16829 -0.120559 -0.186732 -0.741228 -3.1699e-05 -0.000362285 -0.000776736 39.1732 4.40209 2.08662 -2.68147 2.12006 0.539541 -0.128087 -0.725904 0.169919 39.1732 4.40209 2.08662 -2.68147 2.12011 0.539543 -0.128088 -0.725605 0.169927 
26.982 1 238 39.1199 2.27262 4.19388 0.786234 -1.31775 2.823 0.047722 -0.384119 -0.56192 0.0546578 -0.826562 -0.584256 -0.00824286 -0.505097 -0.371999 7.7614e-06 -0.000171488 -0.000265725 39.1205 2.27131 4.19672 0.794768 -1.38644 2.72252 0.0477296 -0.384177 -0.562022 39.1205 2.27131 4.19672 0.794765 -1.38642 2.72255 0.0477145 -0.384061 -0.561819 
26.982 1 277 37.1631 4.31358 4.11764 0.0365597 -2.00575 -3.50411 -0.481559 -0.443047 0.197137 0.0215609 -0.0995524 -0.224548 0.0171009 -0.0613444 -0.137939 -9.67563e-05 -0.000124869 -0.000101198 37.163 4.31158 4.11415 -0.0495581 -2.08498 -3.46886 -0.481654 -0.443162 0.197167 37.163 4.31158 4.11415 -0.0495241 -2.08494 -3.46887 -0.481464 -0.442931 0.197107 
26.982 1 2801 41.0966 20.2398 16.2861 3.37268 0.962772 -0.741919 -0.22506 0.0384441 -0.469528 -0.916638 -0.0476965 -0.720624 -0.664023 -0.11045 -0.597663 -0.000480055 0.000148182 -0.000517664 41.0998 20.2408 16.2853 3.33242 0.969657 -0.82589 -0.22517 0.0385052 -0.469646 41.0998 20.2408 16.2853 3.33246 0.969635 -0.825848 -0.224948 0.0383827 -0.46941 
26.982 1 2803 1.26949 20.1593 18.0308 -0.968246 -0.849353 -0.986537 0.690701 0.482064 0.835562 -0.804253 -1.02448 -0.431285 -0.561807 -0.635251 -0.210766 -0.000472114 0.000610796 -0.000354363 1.26871 20.1584 18.0299 -0.844723 -0.763147 -0.837109 0.690858 0.482149 0.83575 1.26871 20.1584 18.0299 -0.844779 -0.763178 -0.837176 0.690543 0.481979 0.835373 
26.982 1 637 37.1075 0.261957 12.0307 0.290183 2.80293 3.13988 -0.111755 -0.651747 0.23427 0.063077 -0.671064 -0.355093 0.0241186 -0.262764 -0.200955 -5.83455e-06 -0.000853199 -0.00068161 37.1076 0.264768 12.0339 0.270204 2.68638 3.18178 -0.111745 -0.651878 0.234315 37.1076 0.264768 12.0339 0.2702 2.68642 3.18176 -0.111766 -0.651615 0.234226 
26.982 1 83 1.4688 8.08539 2.31068 -2.37013 -3.04778 -3.5494 0.159757 0.137523 -0.31401 -0.778311 -0.115669 -0.807352 -0.431778 -0.0894955 -0.726191 -0.000532166 -0.000201551 -0.000450278 1.46661 8.08234 2.30715 -2.34156 -3.02319 -3.60555 0.159781 0.137541 -0.314087 1.46661 8.08234 2.30715 -2.34157 -3.0232 -3.60553 0.159732 0.137506 -0.313932 
26.982 1 242 1.62393 6.24221 4.29001 -1.35777 -0.711926 4.02994 -0.466562 -0.24233 -0.323243 -0.782492 0.242367 -0.479937 -0.432821 0.114962 -0.306603 -0.000547753 -0.00020085 -0.000277669 1.62275 6.24149 4.29406 -1.44121 -0.755264 3.97214 -0.466689 -0.242388 -0.323308 1.62275 6.24149 4.29406 -1.44117 -0.755243 3.97216 -0.466433 -0.242271 -0.323178 
26.982 1 44 41.1197 6.3053 2.18437 4.03145 -0.741363 0.361214 0.304542 0.178593 -0.0363638 0.238723 -0.869418 -0.784672 -0.0473496 -0.455921 -0.668614 0.00030042 -0.000225409 -0.000627625 41.1235 6.30457 2.18476 4.08591 -0.709424 0.354715 0.30457 0.17863 -0.0363467 41.1235 6.30457 2.18476 4.0859 -0.709438 0.354709 0.304513 0.178555 -0.0363814 
26.982 1 281 -0.669458 8.31975 4.19544 -2.20423 -0.672387 -0.474746 0.058421 -0.402699 -0.240671 -0.0394441 -0.159178 -0.217155 -0.142231 -0.145492 -0.217982 -0.000549947 -0.000609881 -0.000624967 -0.671462 8.31908 4.19498 -2.19379 -0.744406 -0.517793 0.0583852 -0.402802 -0.240766 -0.671462 8.31908 4.19498 -2.19377 -0.744369 -0.517759 0.0584574 -0.402595 -0.240576 
26.982 1 48 3.73258 6.06928 2.22917 0.478996 6.68199 1.66485 -0.461501 0.0946221 -0.305133 -0.30139 -0.0488328 -0.831918 -0.230876 0.00764799 -0.660601 -0.000162127 -3.55492e-05 -0.000307811 3.73322 6.07598 2.23086 0.396467 6.69891 1.61028 -0.46158 0.0946097 -0.305222 3.73322 6.07598 2.23086 0.396496 6.69891 1.61031 -0.461421 0.0946353 -0.305043 
26.982 1 285 3.65007 8.06181 4.14186 2.70239 -2.7327 1.89058 -0.279445 0.572231 0.11653 -0.1499 0.00337117 -0.150716 -0.0816605 -0.0011864 -0.120279 -6.48283e-05 0.000153914 -1.94279e-05 3.65293 8.05908 4.14378 2.65242 -2.63036 1.91141 -0.279481 0.572398 0.116543 3.65293 8.05908 4.14378 2.65243 -2.63042 1.91141 -0.27941 0.572064 0.116518 
26.982 1 46 5.62139 6.06722 0.141457 -1.25349 -0.657598 -1.85642 0.452729 0.0102639 0.216497 -0.198164 0.0726724 -1.70725 -0.1001 0.0799656 -1.14101 5.71144e-05 -7.39704e-05 -0.00107318 5.62028 6.06657 0.139626 -1.17252 -0.655764 -1.81771 0.452865 0.0102572 0.216507 5.62028 6.06657 0.139626 -1.17257 -0.655761 -1.81772 0.452593 0.0102706 0.216488 
26.982 1 52 7.71828 6.02079 2.32432 -3.45662 -2.1619 3.83515 0.0249685 0.382844 -0.467923 0.105666 0.148461 -0.631565 0.0701187 0.0959151 -0.520068 3.11099e-05 1.73007e-05 -0.000272473 7.71495 6.01863 2.32818 -3.45216 -2.09343 3.75147 0.0249806 0.382908 -0.468015 7.71495 6.01863 2.32818 -3.45216 -2.09346 3.75151 0.0249559 0.382781 -0.467831 
26.982 1 87 5.55254 8.08792 2.23521 4.5371 1.99459 -0.278599 0.47796 0.114306 -0.142647 -0.0321609 0.179712 -0.801524 -0.0233085 0.0667286 -0.58118 9.85928e-05 6.34867e-05 -0.000223118 5.55723 8.08991 2.23495 4.62257 2.01504 -0.304109 0.478054 0.114351 -0.142676 5.55723 8.08991 2.23495 4.62254 2.01502 -0.304099 0.477866 0.114262 -0.142619 
26.982 1 86 5.52003 10.0603 0.289478 -5.56347 3.68898 4.16353 0.15108 0.600084 -0.193123 -0.152639 -0.121251 -0.759685 -0.102558 -0.167104 -0.759758 0.000152917 0.000239539 -0.00113628 5.5146 10.064 0.293673 -5.53646 3.7963 4.12898 0.151096 0.60021 -0.19321 5.5146 10.064 0.293673 -5.53646 3.79625 4.12901 0.151064 0.599958 -0.193036 
26.982 1 246 5.67669 6.07526 4.16089 2.12544 1.33819 -2.82467 0.19903 -0.0548507 0.114427 -0.00821515 -0.00132605 -0.0779374 -0.00431183 0.000842957 -0.0657157 8.855e-05 -3.49358e-05 1.71155e-06 5.67896 6.0766 4.15808 2.16104 1.32838 -2.8042 0.199119 -0.0548733 0.114453 5.67896 6.0766 4.15808 2.16101 1.32839 -2.80421 0.19894 -0.0548274 0.114402 
26.982 1 289 7.78888 8.17678 4.12257 0.204288 0.240605 3.56263 -0.100235 -0.367539 -0.16193 0.0133169 0.00891541 -0.127184 0.00965816 0.00240834 -0.0981694 4.43346e-06 -3.13341e-05 -5.13973e-05 7.78921 8.17702 4.12616 0.186367 0.174883 3.53368 -0.100231 -0.36758 -0.161958 7.78921 8.17702 4.12616 0.186365 0.174898 3.53369 -0.100241 -0.367499 -0.161903 
26.982 1 286 5.61383 10.1071 4.11579 -2.53392 0.200948 2.43525 0.00638525 0.161795 0.287469 -0.0118575 0.00165562 -0.126969 -0.00602521 -0.00397194 -0.0773919 3.79828e-06 5.38921e-05 5.07557e-05 5.61143 10.1073 4.11825 -2.53278 0.229884 2.48666 0.0063798 0.16184 0.287561 5.61143 10.1073 4.11825 -2.53278 0.229868 2.48663 0.00639021 0.16175 0.287378 
26.982 1 56 11.8585 6.07941 2.27882 0.98524 3.08614 -1.01106 -0.159923 0.100663 0.0347842 -0.0864169 0.347167 -0.802595 -0.0213273 0.23207 -0.584842 0.000163682 -0.000185426 -0.000531085 11.8596 6.08251 2.27783 0.956642 3.10414 -1.00484 -0.159947 0.10069 0.0348416 11.8596 6.08251 2.27783 0.956651 3.10413 -1.00486 -0.159898 0.100636 0.0347263 
26.982 1 91 9.87295 8.10604 2.09852 7.50578 0.539458 0.673907 -0.191035 0.202275 0.413434 0.180243 0.123362 -1.10725 0.079679 0.0687377 -0.783635 2.15454e-05 8.37087e-05 -0.000190447 9.88056 8.10658 2.09922 7.47162 0.575636 0.747841 -0.191064 0.202341 0.413513 9.88056 8.10658 2.09922 7.47163 0.575612 0.747813 -0.191006 0.202208 0.413354 
26.982 1 250 9.84049 6.09813 4.29024 -1.43249 0.440933 -1.57249 0.0568535 0.19915 -0.509579 0.0123886 0.0211556 -0.0929016 0.0039379 0.0149395 -0.0750833 1.4572e-05 2.50323e-05 -0.000123324 9.83916 6.09858 4.28868 -1.42233 0.476547 -1.66362 0.0568528 0.199188 -0.509665 9.83916 6.09858 4.28868 -1.42233 0.476533 -1.66358 0.0568539 0.199112 -0.509493 