ITEM: TIMESTEP
7000
ITEM: NUMBER OF ATOMS
4000
ITEM: BOX BOUNDS pp pp pp
-1.49689 41.9969
0.394211 40.1058
0.404524 40.0955
ITEM: ATOMS mass type id x y z vx vy vz fx fy fz xrad yrad zrad vxrad vyrad vzrad fxrad fyrad fzrad xub yub zub vxub vyub vzub fxub fyub fzub xlb ylb zlb vxlb vylb vzlb fxlb fylb fzlb 
26.982 1 43 0.716778 4.33862 2.23807 -2.62727 0.931286 -5.54206 -0.152946 -0.259243 0.479232 -3.07927 -2.32233 -4.92981 -0.931239 -0.639186 -1.41033 -0.000307439 8.53201e-05 -0.000622186 0.71433 4.33955 2.23258 -2.65462 0.884925 -5.45636 -0.152983 -0.259298 0.479304 0.71433 4.33955 2.23258 -2.65461 0.884944 -5.45639 -0.152909 -0.259188 0.479161 
26.982 1 202 0.531806 2.36224 4.45066 -2.90286 -6.68944 3.15807 0.0567472 0.206505 -0.498699 -2.87751 -3.27199 -2.91477 -0.858299 -0.732449 -0.84719 -8.85752e-05 -0.000291356 -0.000474014 0.529085 2.35554 4.45387 -2.89272 -6.65251 3.06888 0.056725 0.206557 -0.498827 0.529085 2.35554 4.45387 -2.89271 -6.65253 3.06893 0.0567695 0.206454 -0.498571 
26.982 1 201 -1.66561 0.42987 4.45585 2.46918 4.36167 -1.49566 0.338613 -0.410562 -0.4535 -1.45909 -3.1752 -3.75682 -0.547327 -0.916496 -1.31912 -0.000294916 -0.000541844 -0.000923667 -1.66293 0.434234 4.4544 2.52973 4.28825 -1.57676 0.338692 -0.410671 -0.453608 -1.66293 0.434234 4.4544 2.52971 4.28829 -1.57672 0.338535 -0.410453 -0.453391 
26.982 1 241 -1.53899 4.42673 4.32302 1.32843 4.30752 2.20495 0.255552 -0.760538 0.555772 -3.07948 -3.25663 -3.57431 -0.758256 -0.75247 -0.894713 -0.000415776 -0.000356289 -0.000335742 -1.53746 4.43104 4.32528 1.37413 4.17151 2.30433 0.255621 -0.760673 0.555821 -1.53746 4.43104 4.32528 1.37411 4.17156 2.30432 0.255484 -0.760403 0.555724 
26.982 1 4 -1.42066 2.35672 2.35782 0.838442 5.10185 -2.27885 -0.32818 0.00119001 0.00328461 -2.74255 -4.09924 -4.55991 -0.777608 -1.07804 -1.34586 -0.000665196 -0.000330942 -0.000649867 -1.41961 2.36182 2.3556 0.779751 5.10206 -2.27826 -0.328255 0.00118663 0.00324946 -1.41961 2.36182 2.3556 0.779778 5.10206 -2.27825 -0.328105 0.00119388 0.00332048 
26.982 1 2 0.597561 2.23843 0.292376 -2.26631 -2.41966 0.0162715 -0.0190682 0.186468 0.057717 -2.25742 -2.91468 -5.32029 -0.597856 -0.936741 -1.54578 -0.000198868 -0.000433522 -0.000747621 0.595477 2.23601 0.292456 -2.26973 -2.38632 0.0265923 -0.0191226 0.18648 0.057724 0.595477 2.23601 0.292456 -2.26971 -2.38632 0.0265897 -0.0190127 0.186457 0.0577094 
26.982 1 45 2.83074 4.22459 0.378656 -3.85529 3.11484 -1.61352 0.0774241 0.154325 0.13327 -0.420792 -1.19534 -4.53154 -0.0405989 -0.318134 -1.38053 0.000147947 5.48123e-05 -0.00101818 2.82704 4.2277 0.377104 -3.84144 3.14244 -1.58968 0.0774435 0.154342 0.133325 2.82704 4.2277 0.377104 -3.84145 3.14243 -1.5897 0.0774047 0.154308 0.133214 
26.982 1 8 2.73501 2.23707 2.37541 0.862271 2.30826 6.21723 0.256994 0.660188 -0.235917 0.91779 -4.8861 -4.49751 0.239112 -1.32715 -1.49558 0.00015952 -0.000673602 -0.000675827 2.73604 2.23938 2.38169 0.908229 2.42632 6.17503 0.257046 0.66032 -0.235989 2.73604 2.23938 2.38169 0.908211 2.42627 6.17506 0.256942 0.660056 -0.235844 
26.982 1 245 2.7282 4.23097 4.29659 0.129451 0.597104 -4.75062 -0.238423 0.298622 -0.0250842 -0.287597 -0.813071 -0.906163 -0.0832861 -0.189484 -0.275244 -7.51519e-05 -5.35828e-06 -0.00014777 2.72849 4.23157 4.29189 0.086808 0.650506 -4.75511 -0.238499 0.298677 -0.0251173 2.72849 4.23157 4.29189 0.0868353 0.650487 -4.7551 -0.238346 0.298567 -0.0250503 
26.982 1 205 2.85823 0.409088 4.27496 -0.271075 1.04752 2.26196 0.0627214 -0.273718 0.4346 0.158293 -2.20752 -2.20049 0.118761 -1.07446 -0.963542 4.3891e-05 -0.000797098 -0.000739766 2.85812 0.410135 4.27728 -0.259851 0.99857 2.33968 0.0627758 -0.273785 0.434712 2.85812 0.410135 4.27728 -0.25987 0.998595 2.33964 0.0626671 -0.27365 0.434488 
26.982 1 47 4.97154 4.40259 2.2924 1.05326 -0.391213 3.90109 -0.141426 -0.646216 -0.0644794 -0.527055 -1.65337 -4.17102 -0.135839 -0.386806 -1.34284 -5.35574e-05 -0.000200707 -0.00071397 4.97274 4.4022 2.29636 1.02797 -0.506777 3.88956 -0.141462 -0.646345 -0.0644852 4.97274 4.4022 2.29636 1.02798 -0.506731 3.88956 -0.14139 -0.646087 -0.0644735 
26.982 1 206 4.85956 2.48319 4.40156 1.36197 -1.56146 -2.99138 0.403474 -0.6967 -0.386525 -0.409173 -4.95622 -2.83548 -0.014293 -1.2766 -0.811506 0.000129527 -0.000536533 -0.000392028 4.86107 2.48162 4.39861 1.43413 -1.68606 -3.0605 0.403605 -0.696878 -0.386559 4.86107 2.48162 4.39861 1.43409 -1.686 -3.06049 0.403343 -0.696521 -0.386493 
26.982 1 12 7.22747 2.3209 2.21243 -1.18672 4.91803 -1.70032 -0.467333 -0.0843851 0.0674145 -0.872735 -6.12061 -3.72735 -0.316682 -1.58272 -1.13331 -0.000563223 -0.000386703 -0.000366577 7.22641 2.32582 2.21078 -1.27031 4.90294 -1.68826 -0.467474 -0.0844252 0.0674419 7.22641 2.32582 2.21078 -1.27026 4.90295 -1.68827 -0.467191 -0.0843447 0.0673871 
26.982 1 9 7.19854 0.286418 0.224786 -0.268484 -3.00924 6.13208 0.210459 0.332717 -0.176431 -0.4168 -2.64892 -4.1816 -0.273394 -0.792559 -1.43324 -0.00038412 -0.000577314 -0.00052977 7.19839 0.283402 0.230985 -0.230848 -2.94974 6.10052 0.210497 0.332766 -0.176491 7.19839 0.283402 0.230985 -0.230862 -2.94976 6.10054 0.21042 0.332669 -0.176372 
26.982 1 249 7.08087 4.21484 4.21031 1.2045 5.26684 3.90754 0.289232 0.112713 -0.0832938 -0.0605418 -0.706991 -0.636402 -0.0206551 -0.183407 -0.197216 4.09242e-05 9.82613e-06 -0.000119281 7.0822 4.22011 4.21427 1.25622 5.287 3.89265 0.289294 0.11276 -0.0833142 7.0822 4.22011 4.21427 1.2562 5.28698 3.89265 0.28917 0.112667 -0.0832736 
26.982 1 209 7.13911 0.449625 4.29833 1.46168 7.32955 -0.492935 -0.159627 0.0892511 0.244431 -0.258254 -4.02361 -3.99846 -0.106072 -1.14988 -1.02113 -0.000252129 -0.000704036 -0.000484657 7.1407 0.456958 4.29788 1.43312 7.3455 -0.449221 -0.159709 0.0892546 0.244493 7.1407 0.456958 4.29788 1.43315 7.3455 -0.449243 -0.159546 0.0892481 0.244368 
26.982 1 49 7.18258 4.33074 0.253843 -0.875779 2.21625 0.50625 -0.0524957 -0.216771 0.17545 -0.281047 -0.983259 -6.8451 -0.173891 -0.232609 -1.98178 -0.000201885 0.000159403 -0.00103683 7.18183 4.33295 0.254412 -0.88517 2.17749 0.537631 -0.0525224 -0.216779 0.175511 7.18183 4.33295 0.254412 -0.88516 2.17749 0.537609 -0.0524677 -0.216763 0.175389 
26.982 1 51 9.33599 4.06046 2.36521 -0.847634 -4.75559 -6.71228 -0.0404755 0.844529 -0.432325 0.0495794 -0.764034 -3.47062 0.0727904 -0.227066 -1.09614 -3.2641e-05 0.000332391 -0.000427104 9.33525 4.0557 2.35855 -0.854876 -4.60456 -6.78959 -0.0405042 0.844727 -0.432358 9.33525 4.0557 2.35855 -0.854866 -4.60463 -6.78957 -0.0404469 0.844332 -0.432291 
26.982 1 210 9.28511 2.29446 4.23875 -4.25076 -1.88642 -0.883336 0.171218 -0.204352 0.706815 -0.0173421 -4.20158 -2.40166 0.0443283 -1.12528 -0.591493 0.000169776 -0.000337522 7.64429e-05 9.28096 2.29257 4.23791 -4.22014 -1.92296 -0.756933 0.171255 -0.204385 0.70697 9.28096 2.29257 4.23791 -4.22015 -1.92295 -0.756988 0.171182 -0.204319 0.70666 
26.982 1 11 9.37944 0.400759 2.24103 0.680468 3.57072 2.65677 -0.314617 -0.454942 0.193366 0.316814 -1.59293 -3.99756 0.222037 -0.994266 -1.10097 0.000225682 -0.0011075 -0.000206514 9.38023 0.404331 2.24374 0.624206 3.48936 2.69136 -0.314671 -0.455065 0.193414 9.38023 0.404331 2.24374 0.624226 3.4894 2.69134 -0.314562 -0.45482 0.193318 
26.982 1 16 11.3794 2.13816 2.3813 7.32916 -0.674455 1.92834 0.565847 0.525174 -0.0231358 1.1069 -5.58974 -4.18394 0.348849 -1.49618 -1.30835 0.000201548 -0.000547961 -0.000229614 11.3868 2.13749 2.38329 7.43036 -0.580536 1.92421 0.565987 0.525285 -0.02314 11.3868 2.13749 2.38329 7.43031 -0.580576 1.92421 0.565708 0.525063 -0.0231314 
26.982 1 253 11.5392 4.27002 4.34004 4.20514 -2.00425 3.57659 -0.0196416 -0.132099 0.223113 0.0767625 -0.681581 -0.694982 0.0271949 -0.202991 -0.228259 7.20511e-06 -6.72653e-05 -1.85968e-05 11.5435 4.26801 4.34367 4.20163 -2.02786 3.61649 -0.0196347 -0.132093 0.223155 11.5435 4.26801 4.34367 4.20162 -2.02787 3.61648 -0.0196485 -0.132106 0.22307 
26.982 1 10 9.21568 2.35276 0.225934 2.75719 -1.68946 4.11873 0.178801 -0.3372 -0.0663897 -0.0758144 -3.92767 -6.5583 0.0555682 -0.987678 -1.88458 0.000172717 -0.000242103 -0.00107054 9.21854 2.35107 0.230121 2.78916 -1.74976 4.10685 0.178828 -0.337309 -0.0664288 9.21854 2.35107 0.230121 2.78915 -1.74973 4.10687 0.178775 -0.337091 -0.0663502 
26.982 1 53 11.3956 4.25676 0.381149 -0.610123 0.218732 -2.44243 0.203908 -0.265436 0.0204576 0.728332 -0.571656 -7.12615 0.125459 -0.109601 -1.71272 -3.49593e-05 0.000166949 -0.00105578 11.3951 4.25698 0.378767 -0.57365 0.171263 -2.43877 0.203987 -0.265495 0.0204938 11.3951 4.25698 0.378767 -0.573679 0.171284 -2.43878 0.203829 -0.265377 0.020422 
26.982 1 55 13.6286 4.26968 2.38066 -0.35111 4.72912 -1.01886 -0.0545047 -0.0131435 -0.155113 -0.0292588 -1.6611 -4.72473 0.0186092 -0.43768 -1.50859 0.000191427 -1.06135e-05 -0.00046914 13.6283 4.27441 2.3797 -0.360861 4.72677 -1.0466 -0.0545367 -0.0131623 -0.155137 13.6283 4.27441 2.3797 -0.36085 4.72677 -1.04659 -0.0544732 -0.0131248 -0.155088 
26.982 1 214 13.6503 2.41115 4.3347 -0.183642 1.3654 0.0389316 0.0851803 -0.578376 -0.0422278 0.642563 -4.76454 -2.60485 0.0993535 -1.31297 -0.737961 -0.000108691 -0.000459262 -0.000131716 13.6502 2.41251 4.33479 -0.168408 1.26197 0.0313763 0.0852049 -0.578501 -0.0422567 13.6502 2.41251 4.33479 -0.168417 1.26201 0.0313866 0.085155 -0.578251 -0.0421994 
26.982 1 20 15.8458 2.41756 2.31318 -2.65675 3.17564 2.75684 -0.324705 -0.594917 0.107549 -1.86622 -5.97218 -3.54784 -0.379195 -1.60934 -1.25725 0.00035168 -0.00043154 -0.000809599 15.8431 2.42074 2.31599 -2.71483 3.06924 2.77607 -0.324797 -0.595095 0.107576 15.8431 2.42074 2.31599 -2.71479 3.0693 2.77606 -0.324614 -0.59474 0.107523 
26.982 1 15 13.6577 0.335182 2.32705 2.87268 -2.13726 -3.42338 0.622128 0.311984 0.242208 -0.0995254 -1.7267 -5.86269 -0.0986693 -0.656313 -1.64166 -1.64586e-05 -0.000965805 -0.000281727 13.6606 0.333044 2.32368 2.98395 -2.08146 -3.38007 0.622324 0.312069 0.242253 13.6606 0.333044 2.32368 2.98388 -2.08149 -3.38008 0.621931 0.3119 0.242163 
26.982 1 14 13.5839 2.23298 0.413645 -2.95055 -2.92463 -1.84562 0.103024 0.101491 0.00799457 0.206678 -3.60879 -3.06512 0.122732 -0.915557 -0.928331 0.000228259 -0.000279082 -0.000990918 13.581 2.23005 0.411858 -2.93212 -2.90648 -1.84419 0.103071 0.101504 0.00798702 13.581 2.23005 0.411858 -2.93214 -2.90649 -1.84419 0.102976 0.101478 0.0080033 
26.982 1 257 15.9326 4.14013 4.35429 1.39098 -2.77023 2.49537 -0.156287 0.524035 0.280598 -0.0864852 -0.857363 -0.651002 -0.0138806 -0.223515 -0.244091 4.88636e-05 4.83701e-05 -0.000114848 15.9341 4.13736 4.35684 1.36304 -2.67652 2.54555 -0.156273 0.524127 0.280674 15.9341 4.13736 4.35684 1.36304 -2.67655 2.54552 -0.156302 0.523943 0.280523 
26.982 1 218 18.0653 2.50729 4.45121 -0.491846 3.29209 1.37203 0.0803127 -0.709043 0.126434 -0.514205 -4.5071 -1.64995 -0.121159 -1.23297 -0.562687 7.35e-07 -0.00042343 -0.000302672 18.0649 2.51059 4.45264 -0.477487 3.1653 1.39465 0.0803082 -0.709137 0.126515 18.0649 2.51059 4.45264 -0.477486 3.16533 1.39462 0.0803171 -0.70895 0.126352 
26.982 1 59 17.9829 4.30158 2.37254 3.48779 -4.23728 1.64265 0.371049 0.614343 0.396911 0.166686 -0.359872 -3.35258 0.0312987 -0.0848454 -1.27434 5.93382e-05 6.35084e-05 -0.000988857 17.9864 4.29734 2.37424 3.55415 -4.12741 1.71363 0.37117 0.614525 0.39698 17.9864 4.29734 2.37424 3.55411 -4.12748 1.7136 0.370928 0.614162 0.396844 
26.982 1 217 15.9573 0.244098 4.42941 1.3586 1.20153 -1.11741 -0.293207 0.110646 -0.270922 0.0281856 -1.3329 -1.40409 0.0103541 -0.583469 -0.582435 0.000120664 -0.000666491 -0.000715372 15.9587 0.245298 4.42835 1.30616 1.22132 -1.16586 -0.293277 0.110691 -0.271013 15.9587 0.245297 4.42835 1.30618 1.22131 -1.16583 -0.293137 0.110601 -0.270832 
26.982 1 21 20.2332 0.417007 0.422677 1.39938 -0.715823 3.4741 -0.339851 -0.170125 -0.137057 0.545614 -3.65277 -3.67907 0.120994 -0.964995 -0.984304 3.20166e-05 -0.000330864 -0.000422069 20.2346 0.41629 0.426219 1.33861 -0.746247 3.44959 -0.339896 -0.170159 -0.137089 20.2346 0.41629 0.426219 1.33862 -0.746234 3.4496 -0.339807 -0.17009 -0.137025 
26.982 1 221 20.1281 0.369167 4.35656 -1.37337 -2.71719 2.37635 0.449521 0.211187 0.468084 -0.775714 -3.05361 -2.81783 -0.191809 -0.98228 -0.935025 8.32267e-05 -0.000720283 -0.000671122 20.1267 0.366446 4.35899 -1.29298 -2.67943 2.46006 0.449645 0.21123 0.468207 20.1267 0.366446 4.35899 -1.29302 -2.67944 2.46002 0.449397 0.211144 0.467961 
26.982 1 261 20.2726 4.15481 4.4672 -1.69501 2.94064 3.38563 -0.148639 0.636254 0.0474027 0.0342918 -0.613756 -0.640644 0.00994558 -0.171766 -0.239628 -4.85469e-05 0.000108377 -0.000168698 20.2709 4.15775 4.47064 -1.7216 3.05443 3.39411 -0.14869 0.636432 0.0474098 20.2709 4.15775 4.47064 -1.72158 3.05437 3.39411 -0.148589 0.636076 0.0473956 
26.982 1 24 20.0436 2.30361 2.37172 -0.257036 -4.81306 -1.21079 0.414616 0.257734 -0.0199531 0.475684 -4.5968 -2.86584 0.117328 -1.22912 -1.06201 2.4075e-05 -0.000267214 -0.000774963 20.0434 2.2988 2.37056 -0.182887 -4.76697 -1.21436 0.414712 0.257797 -0.019983 20.0434 2.2988 2.37056 -0.182921 -4.76699 -1.21435 0.41452 0.257671 -0.0199228 
26.982 1 63 22.3093 4.27326 2.3673 1.90147 -4.27267 -2.39337 0.451202 0.100802 -0.154904 0.122871 -0.158043 -4.37408 0.0728626 -0.122388 -1.4997 9.28832e-05 -0.000109712 -0.00101858 22.3112 4.26898 2.36496 1.98216 -4.25464 -2.42107 0.451306 0.100837 -0.154933 22.3112 4.26898 2.36496 1.98213 -4.25465 -2.42106 0.451097 0.100766 -0.154876 
26.982 1 222 22.3928 2.41274 4.3319 -0.14645 0.757027 2.09507 0.229894 -0.308217 -0.0864833 -0.489781 -3.75445 -1.93792 -0.0314492 -1.10853 -0.62044 0.000253865 -0.000565485 -0.0004467 22.3926 2.4135 4.33405 -0.105332 0.701904 2.0796 0.229973 -0.308298 -0.0865625 22.3926 2.4135 4.33405 -0.10536 0.701933 2.07962 0.229815 -0.308137 -0.0864041 
26.982 1 28 24.6263 2.41898 2.3416 0.958861 1.84146 -2.06267 -0.320646 -0.318218 0.185935 -0.55011 -3.24855 -3.93596 -0.145761 -1.0324 -1.39076 -0.000211231 -0.000506448 -0.00077356 24.6272 2.42082 2.33959 0.901513 1.78455 -2.02942 -0.320747 -0.318329 0.185977 24.6272 2.42082 2.33959 0.901548 1.78458 -2.02943 -0.320547 -0.318106 0.185891 
26.982 1 265 24.6687 4.39744 4.37278 -3.66735 -1.62024 1.61283 -0.0259999 -0.196758 0.292396 -0.00877917 -0.40608 -0.757435 -0.00158887 -0.146256 -0.282355 -1.81446e-05 -0.000144143 -9.11713e-05 24.665 4.39582 4.37445 -3.672 -1.65543 1.66513 -0.0260001 -0.196791 0.292483 24.665 4.39582 4.37445 -3.672 -1.65542 1.6651 -0.026 -0.196725 0.292309 
26.982 1 67 26.6685 4.55054 2.39974 -3.95444 0.155186 2.31522 0.439687 -0.503662 -0.304593 0.195496 0.0486231 -5.14487 0.0602959 -0.0357635 -1.74832 7.45859e-05 -0.000368843 -0.000806004 26.6645 4.5507 2.40211 -3.87581 0.0651142 2.26076 0.439809 -0.50377 -0.304636 26.6645 4.5507 2.40211 -3.87585 0.065153 2.26077 0.439566 -0.503553 -0.30455 
26.982 1 226 26.789 2.40281 4.25944 3.59432 -0.212324 0.170671 -0.045198 0.324904 0.515778 0.466511 -2.86923 -1.17964 -0.0061588 -0.846383 -0.428636 -0.000214271 -0.000235884 -0.000129449 26.7925 2.40259 4.25966 3.58624 -0.154218 0.262903 -0.0452023 0.324986 0.51585 26.7925 2.40259 4.25966 3.58624 -0.154247 0.262877 -0.0451928 0.324824 0.515706 
26.982 1 269 28.9708 4.58246 4.4855 4.33951 0.170689 -0.701144 -0.0591852 -0.42547 -0.354016 -0.0480594 -0.454243 -0.794366 -0.0112566 -0.118178 -0.300581 -1.1699e-05 -0.000111198 -0.000223407 28.975 4.58263 4.48485 4.32892 0.0946038 -0.764455 -0.0592125 -0.42554 -0.354097 28.975 4.58263 4.48485 4.32893 0.0946289 -0.764426 -0.059158 -0.425399 -0.353935 
26.982 1 27 26.7974 0.422244 2.4764 -0.464143 3.30474 3.35056 -0.165959 -0.257342 -0.595392 0.765238 -7.38573 -3.28076 -0.103624 -1.87794 -1.0982 -0.000362091 -0.000725316 -0.000545707 26.7968 0.425552 2.47981 -0.493827 3.25872 3.24408 -0.166022 -0.257401 -0.59555 26.7968 0.425552 2.47981 -0.493804 3.25874 3.24413 -0.165896 -0.257284 -0.595235 
26.982 1 29 28.9979 0.492056 0.314264 -1.59928 -2.20647 2.68608 -0.306105 0.270666 0.156094 -0.410864 -4.23784 -5.0538 0.0419947 -1.15447 -1.5013 0.000151226 -0.000234798 -0.000471744 28.9962 0.489848 0.317013 -1.65403 -2.15807 2.714 -0.306215 0.27073 0.156121 28.9962 0.489848 0.317013 -1.65399 -2.15809 2.71399 -0.305994 0.270603 0.156068 
26.982 1 32 28.9709 2.48996 2.5715 0.284018 3.56902 -0.888759 -0.0802246 -0.149857 -0.228592 -0.00277874 -3.69861 -4.02457 0.0305264 -0.885787 -1.42904 0.000188461 -0.000182499 -0.000782662 28.9711 2.49353 2.57067 0.269669 3.54222 -0.92964 -0.0802539 -0.149867 -0.228643 28.9711 2.49353 2.57067 0.26968 3.54222 -0.929622 -0.0801951 -0.149847 -0.228542 
26.982 1 71 31.1281 4.3823 2.34814 3.03988 -1.75911 -2.43832 0.0413067 -0.0605087 0.542927 -0.394922 -0.0468523 -4.0529 -0.168668 -0.0311962 -1.50894 -0.000167717 -0.000177843 -0.000731305 31.1311 4.38054 2.34575 3.04727 -1.76993 -2.34122 0.0413096 -0.0605225 0.543067 31.1311 4.38054 2.34575 3.04727 -1.76992 -2.34127 0.0413044 -0.0604951 0.542787 
26.982 1 230 31.0561 2.37758 4.54887 -6.12561 0.981748 -4.01273 0.0762186 0.0901267 -0.310657 -0.542475 -3.3668 -1.49427 -0.11128 -0.918458 -0.540675 0.000235891 -0.000501674 -0.000491967 31.0498 2.37856 4.54491 -6.11198 0.997868 -4.06829 0.076232 0.0901576 -0.310749 31.0498 2.37856 4.54491 -6.11198 0.997857 -4.06826 0.0762053 0.0900958 -0.310566 
26.982 1 273 33.3556 4.34512 4.32461 1.1001 4.32885 -1.41054 -0.263703 -0.123831 0.158409 0.0362168 -0.29789 -0.652008 -0.00190577 -0.0866921 -0.233098 -6.42759e-05 -0.000169524 -0.000120928 33.3566 4.34945 4.32325 1.05294 4.3067 -1.38222 -0.263749 -0.12387 0.158419 33.3566 4.34945 4.32325 1.05296 4.30671 -1.38222 -0.263658 -0.123792 0.158399 
26.982 1 229 28.8063 0.201831 4.40468 5.90532 2.94813 -0.667965 0.581568 0.454556 -0.122517 -0.100144 -2.92247 -2.01099 0.0329947 -1.08703 -0.751483 0.000300077 -0.00064759 -0.000586853 28.8122 0.204779 4.40407 6.00933 3.02942 -0.689876 0.581699 0.454637 -0.122548 28.8122 0.204779 4.40407 6.00928 3.02939 -0.689864 0.581438 0.454474 -0.122486 
26.982 1 36 33.3723 2.39679 2.25183 1.49351 3.27199 2.7033 0.0634122 0.271451 0.750272 -0.154791 -3.2893 -3.9613 -0.134589 -0.952627 -1.33354 -0.000200803 -0.000718112 -0.000490832 33.3737 2.40007 2.2546 1.50485 3.32053 2.83747 0.0634184 0.271515 0.750446 33.3737 2.40007 2.2546 1.50485 3.32051 2.83741 0.0634057 0.271386 0.750097 
26.982 1 73 33.2564 4.34032 0.395812 0.798475 4.58803 -1.43374 0.177735 0.595117 0.0765265 1.11853 -0.392652 -6.55166 0.140379 -0.172382 -1.62178 1.511e-05 -5.05531e-05 -0.00101029 33.2571 4.34491 0.394439 0.830262 4.69446 -1.42005 0.177788 0.595272 0.0765734 33.2571 4.34491 0.394439 0.830244 4.69441 -1.42007 0.177682 0.594962 0.0764794 
26.982 1 75 35.6966 4.33833 2.3032 -0.262172 -2.65339 -1.0042 -0.718071 0.0292097 0.19365 1.07643 -0.0820991 -5.33614 0.184869 -0.0520942 -1.55478 -5.18553e-06 -1.04577e-05 -0.000865752 35.6962 4.33567 2.30226 -0.390591 -2.64817 -0.969566 -0.718243 0.0292308 0.193695 35.6962 4.33567 2.30226 -0.39053 -2.64817 -0.969582 -0.717898 0.0291883 0.193604 
26.982 1 234 35.39 2.35246 4.45201 -2.30761 3.50216 1.1225 0.136263 -0.0252238 -0.221892 0.246758 -2.35039 -1.1838 0.0923854 -0.706611 -0.386943 -0.000236208 -0.000328618 -0.000232495 35.3875 2.35596 4.45319 -2.28325 3.49765 1.08281 0.136268 -0.0252288 -0.22194 35.3875 2.35596 4.45319 -2.28325 3.49765 1.08283 0.136258 -0.0252191 -0.221845 
26.982 1 40 37.7063 2.4539 2.35626 -4.46043 0.921481 1.32399 -0.0516734 -0.326769 0.306643 2.08183 -3.42507 -6.03936 0.409495 -0.999268 -1.60955 -0.00016962 -0.000219346 -0.00074569 37.7017 2.45482 2.35764 -4.46967 0.863041 1.37883 -0.051683 -0.326853 0.306745 37.7017 2.45482 2.35764 -4.46967 0.863071 1.3788 -0.0516636 -0.326685 0.30654 
26.982 1 277 37.4873 4.23863 4.454 -4.16875 -5.49331 2.06601 0.28248 0.318877 -0.1011 0.104251 -0.458304 -1.08019 0.0212767 -0.131949 -0.302243 2.00407e-05 2.7541e-05 -0.00016353 37.483 4.23313 4.45611 -4.11824 -5.43629 2.04793 0.28251 0.318912 -0.101123 37.483 4.23313 4.45611 -4.11825 -5.4363 2.04793 0.282451 0.318842 -0.101076 
26.982 1 35 35.5523 0.354581 2.32072 1.46864 2.251 0.245162 -0.00269993 0.319928 0.298864 0.645958 -7.8313 -3.99961 0.12355 -2.11058 -1.23595 -0.00026439 -0.000665372 -0.000612871 35.5536 0.356833 2.32102 1.46816 2.30822 0.298612 -0.00266918 0.320006 0.298942 35.5536 0.356833 2.32102 1.46815 2.30819 0.298584 -0.00273057 0.319851 0.298787 
26.982 1 79 39.8223 4.54237 2.35159 -0.944013 -0.76012 -1.99016 0.0731664 -0.761015 0.173271 -0.698696 -1.52819 -5.91619 -0.121296 -0.270541 -1.68293 -2.29534e-06 7.09383e-05 -0.000894019 39.8212 4.54161 2.34965 -0.930928 -0.896213 -1.95917 0.0731858 -0.761162 0.173307 39.8212 4.54161 2.34965 -0.930935 -0.89616 -1.95918 0.0731469 -0.760868 0.173235 
26.982 1 238 39.829 2.45386 4.35381 -3.53623 0.223696 -5.6225 -0.240037 -0.168216 -0.410641 0.0304445 -3.8673 -2.79515 -0.053719 -1.02115 -0.718797 -6.46442e-05 -0.000140551 -0.000263199 39.8253 2.45408 4.34823 -3.57916 0.193613 -5.69594 -0.240113 -0.168251 -0.410763 39.8253 2.45408 4.34823 -3.57914 0.193626 -5.6959 -0.239961 -0.168181 -0.410519 
26.982 1 39 39.8198 0.359803 2.50101 -0.414161 6.69625 0.88545 -0.123151 0.375383 0.036428 -0.796823 -0.933438 -5.75176 -0.187812 -0.626609 -1.45968 2.75094e-05 -0.000878966 -0.000627425 39.8192 0.366505 2.50195 -0.436188 6.76338 0.891968 -0.123196 0.37546 0.0364549 39.8192 0.366505 2.50195 -0.436172 6.76335 0.891959 -0.123106 0.375306 0.0364022 
26.982 1 38 39.6658 2.38832 0.370021 -2.93256 2.30276 -0.406568 0.698336 0.0327358 0.222278 0.191228 -2.41927 -3.11386 0.0415636 -0.615327 -1.20105 1.38122e-05 -7.34756e-05 -0.00094329 39.6626 2.39063 0.369673 -2.80767 2.30861 -0.366814 0.698501 0.0327248 0.222341 39.6626 2.39063 0.369673 -2.80773 2.30862 -0.366837 0.69817 0.0327476 0.222215 
26.982 1 237 37.5012 0.264615 4.33319 -4.8916 -2.8639 5.45365 0.386671 0.309603 -0.276834 1.0001 -4.47415 -3.53129 0.20935 -1.20615 -0.912149 -2.56908e-05 -0.000613782 -0.000497032 37.4961 0.261747 4.3387 -4.82245 -2.80852 5.40414 0.38674 0.309691 -0.276898 37.4961 0.261747 4.3387 -4.82247 -2.80856 5.40416 0.386604 0.309515 -0.276772 
26.982 1 83 0.851392 8.36803 2.42241 -1.46401 -2.75063 -2.43833 -0.61504 -0.389659 -0.452228 -3.80343 -0.979096 -4.7089 -1.06118 -0.354154 -1.33124 -0.000594346 -0.000381343 -0.000662343 0.850107 8.36528 2.42002 -1.574 -2.8203 -2.51921 -0.615199 -0.389674 -0.452325 0.850107 8.36528 2.42002 -1.57395 -2.8203 -2.51917 -0.614882 -0.389645 -0.452133 
26.982 1 242 0.699843 6.35225 4.49033 -1.0863 5.65013 1.89732 -0.178858 -0.0932847 -0.533857 -3.93188 0.270852 -2.36535 -1.08028 -0.036519 -0.656768 -0.000330107 -5.06137e-05 -0.000435729 0.698942 6.3579 4.49228 -1.11828 5.63344 1.80185 -0.178871 -0.0933156 -0.533966 0.698942 6.3579 4.49228 -1.11828 5.63345 1.80189 -0.178844 -0.0932538 -0.533746 
26.982 1 281 -1.38465 8.29481 4.39894 -3.27438 2.05261 -2.91944 -0.0613314 0.315169 -0.577001 -1.7863 -1.91813 -2.38338 -0.699233 -0.689688 -0.866846 -0.000424574 -0.000343983 -0.000725128 -1.38773 8.29687 4.39607 -3.28535 2.10898 -3.02264 -0.0613171 0.315258 -0.577173 -1.38773 8.29687 4.39607 -3.28535 2.10895 -3.02258 -0.0613453 0.315081 -0.576828 
26.982 1 88 2.9655 10.196 2.53179 -0.944689 6.911 -3.79404 0.0529817 0.438425 -0.534426 -1.34436 -0.351746 -4.7599 -0.306616 -0.119489 -1.18845 -7.72471e-05 8.22498e-05 -0.000298874 2.96471 10.2029 2.52805 -0.935213 6.98941 -3.88961 0.0529956 0.438536 -0.534538 2.96471 10.2029 2.52805 -0.935218 6.98937 -3.88957 0.0529677 0.438314 -0.534315 
26.982 1 285 2.85119 8.26235 4.4068 3.64027 3.662 -2.39926 0.159694 0.0445128 0.320304 -0.578489 -0.0399451 -0.737139 -0.127692 -0.022433 -0.201039 4.68254e-05 1.44832e-05 -5.07478e-06 2.855 8.26601 4.40445 3.66884 3.66997 -2.34198 0.159769 0.0445543 0.320356 2.855 8.26601 4.40445 3.66881 3.66995 -2.342 0.159619 0.0444711 0.320252 
26.982 1 48 2.72203 6.35094 2.46719 7.1869 1.90972 4.63847 0.248814 -0.353621 -0.315263 -1.31858 -0.215529 -4.45924 -0.241103 -0.0964547 -1.32577 -9.53042e-05 -8.45151e-05 -0.000620939 2.72939 6.35285 2.47189 7.2314 1.84649 4.58209 0.248858 -0.353656 -0.315329 2.72939 6.35285 2.47189 7.23138 1.8465 4.58211 0.248771 -0.353586 -0.315196 
26.982 1 87 4.87766 8.14808 2.26876 -1.14597 2.46748 2.16539 0.169551 0.224203 0.337658 -0.113842 0.326807 -4.03525 -0.0161128 -0.0513041 -1.19108 3.59622e-05 -0.000152949 -0.000371665 4.87665 8.15055 2.27098 -1.11565 2.50758 2.22577 0.169588 0.224284 0.337723 4.87665 8.15055 2.27098 -1.11566 2.50755 2.22575 0.169513 0.224122 0.337593 
26.982 1 246 4.9314 6.04577 4.37103 -0.244194 1.78178 0.172096 -0.0159345 1.12179 -0.319296 -0.0288731 -0.0293494 -0.480638 -0.00660092 -0.0106198 -0.174094 1.31343e-05 0.000211784 -0.000115976 4.9313 6.04755 4.37125 -0.247041 1.98239 0.115002 -0.0159201 1.12201 -0.319323 4.9313 6.04755 4.37125 -0.247046 1.98231 0.115012 -0.0159495 1.12156 -0.319269 
26.982 1 289 7.0426 8.15136 4.2496 2.23368 0.820684 -0.611105 0.155414 0.023393 -0.0569473 0.0526805 0.0312027 -0.613635 0.00913369 0.00580656 -0.174438 2.26503e-05 -3.06512e-05 -5.63871e-05 7.04496 8.15218 4.24904 2.26147 0.824865 -0.621286 0.155426 0.023383 -0.0569452 7.04496 8.15218 4.24904 2.26146 0.824869 -0.621287 0.155401 0.0234024 -0.0569495 
26.982 1 286 5.17103 10.4058 4.45671 4.0502 6.31631 -6.07024 -0.486023 -0.598251 -0.225404 -0.0175414 0.00984475 -0.536866 0.00351129 0.00169071 -0.145461 -8.03258e-05 -0.000154939 -6.01219e-05 5.17522 10.4121 4.45068 3.96329 6.20932 -6.11055 -0.486103 -0.598401 -0.225459 5.17522 10.4121 4.45068 3.96332 6.20938 -6.11053 -0.485943 -0.598102 -0.22535 
26.982 1 85 2.87429 8.18951 0.24557 -1.59693 -0.0987341 -0.651635 0.168285 0.686199 0.578918 -0.250257 0.575079 -5.30547 -0.0591524 -0.0510307 -1.68177 -9.42415e-05 -0.000283992 -0.00103015 2.87286 8.18941 0.244978 -1.56683 0.0239822 -0.548111 0.168357 0.686348 0.579011 2.87286 8.18941 0.244978 -1.56685 0.0239287 -0.548144 0.168213 0.686049 0.578824 
26.982 1 52 6.98846 6.3035 2.05283 1.65639 6.73236 1.04704 0.486147 -0.0761398 0.725226 0.257907 0.333158 -3.72529 -0.0305311 0.0528055 -1.13771 0.000106435 -4.62216e-05 -0.000502907 6.99024 6.31023 2.05394 1.74333 6.71875 1.17674 0.486272 -0.0761378 0.725392 6.99024 6.31023 2.05394 1.74329 6.71875 1.17668 0.486023 -0.0761437 0.725061 
26.982 1 92 7.16861 10.3124 2.4392 1.54703 -4.52148 2.76392 0.128583 0.161916 0.289153 0.514929 -0.295114 -4.4693 0.161178 0.00833465 -1.28268 7.12875e-05 -3.23257e-05 -0.000132208 7.17028 10.3079 2.44202 1.57002 -4.49253 2.81563 0.128621 0.161903 0.289228 7.17028 10.3079 2.44202 1.57001 -4.49253 2.8156 0.128545 0.16193 0.289078 
26.982 1 91 9.29354 8.21658 2.33029 -2.46133 0.685621 5.2648 0.00791236 -0.232027 -0.0966568 0.548183 0.592761 -5.17275 0.103682 0.158093 -1.38128 0.00023057 -0.000265445 -0.000607992 9.29118 8.21727 2.33562 -2.45991 0.644121 5.24753 0.00791965 -0.232103 -0.096611 9.29118 8.21727 2.33562 -2.45992 0.644149 5.24751 0.0079058 -0.231952 -0.0967031 
26.982 1 250 9.30721 6.12523 4.20157 -1.52667 -0.838869 -1.70498 -0.154739 0.229264 0.0197333 0.0419717 0.047569 -0.516926 0.00634328 0.00643878 -0.15608 -4.90754e-05 8.92615e-05 -0.000145995 9.30578 6.12439 4.19992 -1.55435 -0.797864 -1.70146 -0.154794 0.229339 0.0197222 9.30578 6.12439 4.19992 -1.55433 -0.797891 -1.70145 -0.154684 0.229188 0.0197432 
26.982 1 290 9.3774 10.1769 4.20561 -3.83338 -2.89678 2.06843 -0.534473 0.323189 0.763782 0.0591593 0.00648924 -0.791405 0.0153372 0.0132956 -0.227409 -8.08461e-05 3.08748e-05 8.52674e-05 9.37366 10.174 4.20773 -3.92896 -2.83899 2.20502 -0.53458 0.323231 0.763946 9.37366 10.174 4.20773 -3.92892 -2.839 2.20496 -0.534368 0.323145 0.763617 
26.982 1 293 11.5133 8.1746 4.31657 -3.24931 -3.38892 1.17465 -0.0991803 -0.0587148 0.0713851 -0.0105657 0.0698155 -0.825275 0.00558403 0.0221254 -0.223927 -3.75214e-06 -1.75945e-05 -0.00013058 11.5102 8.17121 4.3178 -3.26705 -3.39942 1.18742 -0.0991944 -0.0587404 0.0714124 11.5102 8.17121 4.3178 -3.26704 -3.39941 1.18741 -0.0991665 -0.0586895 0.0713574 
26.982 1 89 7.16331 8.49781 0.506085 -3.0481 1.43432 1.78894 -0.294519 -0.371978 -0.726769 0.189131 0.970988 -5.34888 0.0475365 0.0901589 -1.69493 5.01381e-05 -0.000365898 -0.00112933 7.16038 8.49924 0.507939 -3.10078 1.36779 1.65897 -0.294639 -0.372072 -0.726925 7.16038 8.49924 0.507939 -3.10073 1.36783 1.65903 -0.294399 -0.371885 -0.726614 
26.982 1 56 11.4205 6.11585 2.31121 -0.679341 2.79312 -1.57562 0.178577 0.576753 0.114307 0.23821 0.83295 -4.61268 0.105886 0.0836411 -1.33688 -9.02249e-05 0.000371737 -0.000590784 11.4199 6.11864 2.30969 -0.647402 2.89626 -1.55518 0.178635 0.576892 0.114353 11.4199 6.11864 2.30969 -0.647422 2.89621 -1.55519 0.178518 0.576613 0.11426 
26.982 1 95 13.6375 8.31368 2.59695 3.22298 -1.73259 1.32966 -0.101814 -0.2607 -0.246996 -0.536603 0.441506 -5.31492 0.0326997 0.0889372 -1.56956 9.90002e-06 0.00010968 -0.000831418 13.6408 8.31195 2.59833 3.20477 -1.77921 1.28549 -0.101852 -0.260759 -0.24702 13.6408 8.31195 2.59833 3.20479 -1.77919 1.2855 -0.101777 -0.260642 -0.246973 
26.982 1 254 13.7552 6.18832 4.45043 -1.96286 -2.10526 -4.23026 -0.21334 0.10372 -0.119778 -0.0118345 -0.00443112 -0.642186 0.00784239 -0.00434734 -0.21559 -2.34619e-05 6.08616e-05 -0.000101174 13.7533 6.18621 4.44625 -2.00101 -2.08671 -4.25168 -0.213379 0.103762 -0.119782 13.7533 6.18621 4.44625 -2.00099 -2.08672 -4.25168 -0.213301 0.103677 -0.119773 
26.982 1 54 13.7054 6.25419 0.498539 1.14531 7.51441 -0.594586 -0.56818 -0.0851369 0.238837 -0.823749 0.917673 -5.9177 -0.0570963 0.226647 -1.61757 0.000218361 0.00029025 -0.00102771 13.7066 6.26171 0.498005 1.0437 7.49919 -0.551879 -0.568297 -0.08516 0.238861 13.7066 6.26171 0.498005 1.04375 7.49919 -0.551887 -0.568064 -0.0851143 0.238814 
26.982 1 297 15.9108 8.35205 4.50523 -2.66081 2.54165 -0.810675 0.0236242 -0.106066 -0.00868041 -0.0118801 0.0881784 -0.703446 0.00280263 0.0168338 -0.254088 2.21666e-05 -4.9925e-05 -0.000113806 15.9082 8.35459 4.50447 -2.65658 2.52268 -0.812225 0.0236629 -0.106105 -0.00866999 15.9082 8.35459 4.50447 -2.6566 2.52269 -0.812229 0.0235856 -0.106027 -0.00869057 