ITEM: TIMESTEP
6000
ITEM: NUMBER OF ATOMS
4000
ITEM: BOX BOUNDS pp pp pp
-1.29365 41.7936
0.330622 40.1694
0.350053 40.1499
ITEM: ATOMS mass type id x y z vx vy vz fx fy fz xrad yrad zrad vxrad vyrad vzrad fxrad fyrad fzrad xub yub zub vxub vyub vzub fxub fyub fzub xlb ylb zlb vxlb vylb vzlb fxlb fylb fzlb 
26.982 1 3 0.869025 0.528758 2.14985 -0.434869 1.9559 0.422431 -0.180288 -1.01202 0.141715 -1.77288 -4.40151 -2.09369 -0.59771 -1.45907 -0.91668 -0.000372851 -0.000638705 -0.000871886 0.868772 0.530652 2.15028 -0.467115 1.77492 0.44778 -0.18035 -1.01221 0.141777 0.868773 0.530652 2.15028 -0.467093 1.77499 0.447758 -0.180226 -1.01183 0.141652 
26.982 1 8 3.01377 2.1917 2.19969 0.942706 -3.3853 -1.60361 0.414554 0.318153 0.246942 0.697587 -3.67531 -3.1215 0.235403 -1.14062 -1.23926 -0.000137556 -9.10221e-05 -0.000852282 3.01488 2.18826 2.1981 1.01685 -3.3284 -1.55945 0.414676 0.318245 0.24701 3.01488 2.18826 2.1981 1.0168 -3.32844 -1.55947 0.414432 0.31806 0.246875 
26.982 1 43 0.906648 4.31445 2.12404 0.562926 1.01917 0.55886 -0.153987 -0.082336 0.533976 -2.19743 -1.68145 -3.64296 -0.832739 -0.600917 -1.14897 -0.000304862 -0.000382294 -0.000766248 0.907392 4.31542 2.12461 0.535384 1.00446 0.65436 -0.15404 -0.0823113 0.534125 0.907392 4.31542 2.12461 0.535404 1.00445 0.654306 -0.153932 -0.0823613 0.533827 
26.982 1 202 0.937099 2.18745 4.13374 4.52314 0.132335 -0.417913 -0.11275 0.522965 0.472207 -2.04003 -2.60238 -2.1345 -0.799581 -0.626274 -0.711693 -0.000265723 -6.58812e-05 -0.000309703 0.941807 2.18753 4.13334 4.50298 0.225855 -0.333469 -0.112775 0.523051 0.472293 0.941807 2.18753 4.13334 4.50299 0.225824 -0.3335 -0.112724 0.522878 0.47212 
26.982 1 201 -1.23321 0.541431 4.2067 -2.05191 -1.91052 -2.56132 -0.292715 -0.399106 -0.062889 -0.967892 -2.34785 -2.58639 -0.419856 -0.757852 -1.01812 -0.000576807 -0.000367399 -0.000820362 -1.23506 0.539453 4.20415 -2.10426 -1.9819 -2.57256 -0.292791 -0.399245 -0.0628829 -1.23506 0.539453 4.20415 -2.10423 -1.98185 -2.57256 -0.292638 -0.398966 -0.0628953 
26.982 1 245 2.89511 4.17456 4.27985 -1.16233 2.55761 2.59282 0.314681 0.426012 -0.225068 -0.203609 -0.632077 -0.6534 -0.0823086 -0.175606 -0.228063 3.74071e-05 0.000116751 -0.000197668 2.89411 4.17707 4.28246 -1.10605 2.6338 2.55257 0.314742 0.426152 -0.225111 2.89411 4.17707 4.28246 -1.10607 2.63375 2.55258 0.31462 0.425872 -0.225026 
26.982 1 241 -1.33934 4.10766 4.25532 2.33199 -4.04159 -3.36805 0.268656 0.119869 -0.370556 -2.40774 -2.55099 -2.75496 -0.584661 -0.639586 -0.727417 -0.000450794 -0.000378175 -0.000659605 -1.33681 4.10357 4.25196 2.38004 -4.02015 -3.43432 0.268726 0.119907 -0.37064 -1.33681 4.10357 4.25196 2.38001 -4.02016 -3.43429 0.268587 0.11983 -0.370472 
26.982 1 205 3.00989 0.263805 4.22193 -0.0603783 -0.924365 6.92311 -0.146813 0.257892 0.229127 0.039167 -1.26782 -1.36684 0.121928 -0.807551 -0.730721 -7.98183e-05 -0.000729561 -0.000379191 3.00999 0.262817 4.22888 -0.0866372 -0.878247 6.9641 -0.146865 0.257934 0.229226 3.00999 0.262817 4.22888 -0.0866187 -0.878262 6.96406 -0.146762 0.257851 0.229028 
26.982 1 47 5.21346 4.26652 2.24609 -6.97161 2.70497 -2.86595 -0.247172 -0.1567 0.205331 -0.400027 -1.27811 -2.94833 -0.104063 -0.389005 -1.10364 -0.0002312 0.000183046 -0.000620415 5.20663 4.26918 2.24324 -7.01582 2.67695 -2.82922 -0.247219 -0.15673 0.205402 5.20663 4.26918 2.24324 -7.0158 2.67696 -2.82925 -0.247126 -0.15667 0.205259 
26.982 1 206 4.95453 2.28999 4.31366 3.87667 0.876601 2.47125 0.395033 0.0992648 -0.262528 -0.399441 -3.74597 -2.08797 -0.00571447 -1.16403 -0.706709 5.50629e-05 -8.03041e-05 -0.000158455 4.95855 2.2908 4.31614 3.94731 0.894361 2.4243 0.395098 0.0993315 -0.262559 4.95855 2.2908 4.31614 3.94729 0.894337 2.42431 0.394969 0.0991979 -0.262497 
26.982 1 249 7.25516 4.3671 4.23585 4.20173 -1.24736 3.54114 -0.170091 -0.530534 0.100902 -0.0428723 -0.526953 -0.454605 -0.0155833 -0.177937 -0.166589 -4.32201e-05 -0.000125608 -3.70962e-05 7.25949 4.3658 4.2394 4.17131 -1.34224 3.5592 -0.170134 -0.530657 0.100958 7.25949 4.3658 4.2394 4.17132 -1.34219 3.55918 -0.170048 -0.530411 0.100845 
26.982 1 209 7.25854 0.294398 4.32476 0.282136 -5.58234 2.59006 0.282789 -0.235159 -0.268717 -0.174371 -3.00732 -3.0704 -0.0759605 -0.882843 -0.842065 4.70097e-05 -0.00077857 -0.000471479 7.25895 0.288748 4.32736 0.332713 -5.62439 2.542 0.282878 -0.235188 -0.268774 7.25895 0.288748 4.32736 0.332681 -5.62438 2.54202 0.282699 -0.235129 -0.26866 
26.982 1 7 5.13529 0.0677216 2.36746 -0.638098 4.92724 2.32363 0.104366 0.602963 -0.44574 -0.115458 0.0568419 -3.58175 -0.155985 -0.0507545 -1.31425 4.14976e-05 -0.000907623 -0.000595758 5.13479 0.0725875 2.3698 -0.619428 5.03507 2.24392 0.104422 0.603084 -0.445802 5.13479 0.0725875 2.3698 -0.619448 5.03503 2.24394 0.104308 0.602844 -0.445678 
26.982 1 6 5.10682 2.21326 0.278982 0.496263 2.45423 2.10639 0.207015 0.116983 0.481108 -0.783632 -1.88392 -3.24498 -0.181277 -0.748475 -1.08515 -0.000116028 -0.000239686 -0.000994635 5.10746 2.21566 0.281104 0.533288 2.47515 2.19243 0.207076 0.117014 0.481221 5.10746 2.21566 0.281104 0.533265 2.47514 2.19239 0.206952 0.116951 0.480996 
26.982 1 49 7.36582 4.36132 0.36752 -1.42898 0.996239 -3.62204 -0.309241 0.109085 0.10943 -0.138141 -0.728703 -5.05563 -0.127771 -0.262571 -1.59876 -6.05657e-05 -6.90787e-05 -0.00106458 7.36451 4.36226 0.363906 -1.48428 1.01574 -3.60247 -0.309286 0.109095 0.109473 7.36451 4.36226 0.363906 -1.48427 1.01574 -3.60248 -0.309197 0.109075 0.109388 
26.982 1 12 7.14136 2.26288 2.37968 -6.22579 4.8208 1.63172 0.253397 0.0137418 -0.170649 -0.608513 -4.60166 -2.67283 -0.259347 -1.4506 -0.957004 0.000185193 -0.000341649 -0.000590941 7.13526 2.26765 2.38132 -6.18048 4.82326 1.6012 0.253431 0.0137421 -0.170649 7.13526 2.26765 2.38132 -6.18049 4.82326 1.6012 0.253362 0.0137412 -0.170651 
26.982 1 51 9.39982 4.30515 2.31092 -2.19597 1.32201 1.96095 0.232048 -0.310935 0.23576 -0.0190502 -0.517455 -2.46274 0.0477935 -0.230134 -0.905677 0.000232253 -0.000319863 -0.000563208 9.39773 4.30642 2.31289 -2.15447 1.2664 2.00312 0.232115 -0.311013 0.235823 9.39773 4.30642 2.31289 -2.1545 1.26643 2.00309 0.23198 -0.310857 0.235695 
26.982 1 210 9.43948 2.15077 4.37005 -2.95541 1.28295 1.50212 -0.17253 0.675672 -0.235797 -0.0335258 -3.13532 -1.82973 -0.000932895 -1.0216 -0.543956 4.62565e-06 -2.22132e-05 -0.000175074 9.43663 2.152 4.37156 -2.98626 1.40378 1.45996 -0.172557 0.675825 -0.235805 9.43663 2.152 4.37156 -2.98625 1.40373 1.45996 -0.172503 0.67552 -0.23579 
26.982 1 11 9.44118 0.499594 2.21039 2.13724 1.06641 -2.8314 -0.146704 -0.515497 0.367801 0.146969 -0.770162 -2.95006 0.139907 -0.671563 -0.945516 3.95381e-05 -0.000740553 -0.000841345 9.44342 0.500595 2.20757 2.11101 0.974215 -2.76562 -0.146719 -0.51562 0.367873 9.44342 0.500595 2.20757 2.11102 0.974259 -2.76565 -0.146689 -0.515374 0.36773 
26.982 1 16 11.5535 2.28534 2.47023 1.19894 0.100739 -2.01092 0.172334 0.329109 -0.116485 0.768808 -4.19721 -2.9399 0.316729 -1.30766 -1.11653 0.000247428 -0.000279167 -0.000982065 11.5548 2.28538 2.46823 1.22976 0.1596 -2.03176 0.172365 0.329206 -0.116537 11.5548 2.28538 2.46823 1.22975 0.159565 -2.03174 0.172303 0.329014 -0.116433 
26.982 1 253 11.5223 4.33974 4.44989 0.0574585 -0.279465 -1.32147 0.0432383 -0.215849 -0.211819 0.0502078 -0.492748 -0.478476 0.0261925 -0.176832 -0.196379 -2.08738e-05 -9.93448e-05 -0.000152065 11.5225 4.33941 4.44857 0.0651836 -0.318069 -1.35935 0.0432062 -0.215908 -0.211856 11.5225 4.33941 4.44857 0.0651951 -0.318048 -1.35934 0.0432705 -0.215791 -0.211781 
26.982 1 55 13.6943 4.34642 2.4122 1.43921 -4.79843 -4.70875 -0.0345055 -0.453076 -0.251972 -0.0208703 -1.2365 -3.30216 -0.00432778 -0.384927 -1.31835 -0.000153853 -0.000408494 -0.000688912 13.6958 4.34156 2.4075 1.43303 -4.87945 -4.75381 -0.0345407 -0.453159 -0.25204 13.6958 4.34156 2.4075 1.43304 -4.87942 -4.75379 -0.0344703 -0.452993 -0.251904 
26.982 1 214 13.7442 2.2404 4.33344 -2.39426 -1.34935 1.72743 -0.329857 0.233942 -0.24755 0.518639 -3.51633 -1.89776 0.134193 -1.18048 -0.653624 -0.000106984 -0.000287674 -0.000476834 13.7419 2.239 4.33518 -2.45326 -1.30751 1.68316 -0.32996 0.234016 -0.247609 13.7419 2.239 4.33518 -2.45322 -1.30754 1.68318 -0.329754 0.233868 -0.24749 
26.982 1 257 15.8826 4.46923 4.29903 -2.2703 0.978967 -1.44977 -0.00101323 -0.423233 0.0686219 -0.0665609 -0.641407 -0.43504 -0.0227558 -0.207863 -0.193575 2.64853e-05 -7.40762e-05 -9.14545e-05 15.8804 4.47016 4.29759 -2.27048 0.903287 -1.4375 -0.000987287 -0.423273 0.0686387 15.8804 4.47016 4.29759 -2.27049 0.903302 -1.4375 -0.00103913 -0.423193 0.0686051 
26.982 1 213 11.5714 0.116154 4.25586 0.342341 -0.440223 -0.852552 0.200404 0.372895 0.122185 -0.104025 -3.03635 -3.01274 -0.0219246 -0.854366 -0.892324 0.0002091 -0.000754736 -0.000642662 11.5718 0.115649 4.25502 0.378174 -0.37354 -0.830705 0.200416 0.372955 0.12219 11.5718 0.115649 4.25502 0.37817 -0.373562 -0.830706 0.200393 0.372835 0.122182 
26.982 1 20 15.8896 2.35891 2.6661 -0.278465 -4.34672 1.67303 0.133965 0.0981904 -0.895106 -1.43388 -4.43474 -2.43956 -0.437477 -1.44763 -0.963653 -0.000174686 -0.00047138 -0.00088043 15.8894 2.3545 2.66778 -0.254509 -4.32916 1.51296 0.133986 0.0982053 -0.895277 15.8894 2.3545 2.66778 -0.254517 -4.32917 1.51302 0.133944 0.0981757 -0.894933 
26.982 1 218 18.014 2.29768 4.57898 -2.53341 1.14378 3.75665 0.120638 0.351902 -0.472795 -0.387569 -3.33894 -1.15683 -0.146245 -1.10372 -0.445386 0.000215146 -0.000248772 -0.000213038 18.0115 2.29877 4.58275 -2.51184 1.20671 3.67211 0.120659 0.352006 -0.472855 18.0115 2.29877 4.58275 -2.51184 1.20668 3.67213 0.120616 0.351798 -0.472735 
26.982 1 59 18.115 4.1641 2.33522 2.40251 4.28611 2.29769 -0.0773305 0.297394 0.202176 0.138936 -0.290048 -2.25418 0.0282103 -0.0597251 -0.953795 -5.57933e-05 -2.66576e-05 -0.000584176 18.1175 4.16834 2.33753 2.38869 4.3393 2.33384 -0.0773444 0.297475 0.202187 18.1175 4.16834 2.33753 2.38869 4.33927 2.33383 -0.0773168 0.297312 0.202165 
26.982 1 217 15.954 0.313999 4.27704 3.59469 1.22814 2.5405 0.0501622 -0.512607 0.279142 0.0366606 -0.88178 -0.931705 -0.00230585 -0.319939 -0.36285 -0.000107993 -0.000864183 -0.000564191 15.9576 0.315165 4.27959 3.60366 1.13647 2.59041 0.0502063 -0.512702 0.279173 15.9576 0.315165 4.27959 3.60365 1.1365 2.5904 0.0501187 -0.512511 0.279113 
26.982 1 19 17.998 0.269101 2.43077 2.85962 -3.08444 0.694537 0.0131048 0.024436 -0.225646 0.18478 -3.8305 -1.80592 0.0715321 -1.19542 -0.806854 4.25388e-05 -0.000718264 -0.000470414 18.0008 0.26595 2.43148 2.86196 -3.08007 0.654174 0.0131013 0.0244409 -0.225747 18.0008 0.26595 2.43148 2.86197 -3.08007 0.654211 0.0131084 0.0244315 -0.225543 
26.982 1 57 16.1567 4.17122 0.449281 0.395552 -4.83874 -6.19323 -0.685923 0.047484 0.0500485 -0.792014 -0.700724 -5.58525 -0.18405 -0.189483 -1.55612 3.46607e-05 -0.00021804 -0.00105075 16.1571 4.16632 0.443093 0.272896 -4.83024 -6.18428 -0.686009 0.0475266 0.0500807 16.1571 4.16632 0.443093 0.272927 -4.83026 -6.18429 -0.685838 0.0474413 0.0500172 
26.982 1 21 20.2618 0.278755 0.475512 -0.23541 -0.967674 0.0731072 0.0859651 0.166823 -0.259153 0.426592 -2.75095 -2.77087 0.116935 -0.816119 -0.824389 3.90597e-05 -0.000548665 -0.000473304 20.2616 0.277723 0.475599 -0.220036 -0.937834 0.0267662 0.0859857 0.166896 -0.259183 20.2616 0.277723 0.475599 -0.220044 -0.93786 0.026777 0.0859452 0.16675 -0.259123 
26.982 1 261 20.1116 4.3398 4.35696 2.1341 0.736785 5.30111 -0.07846 -0.285578 -0.178169 0.0259359 -0.452757 -0.433452 0.00729803 -0.145482 -0.184739 -1.92861e-05 -0.000125937 -0.000121776 20.1137 4.34049 4.36227 2.12007 0.685718 5.26924 -0.0784805 -0.285618 -0.178227 20.1137 4.34049 4.36227 2.12007 0.685732 5.26926 -0.0784391 -0.285538 -0.178111 
26.982 1 24 20.1937 2.28824 2.41946 -4.49803 -0.0563736 0.11143 -0.036573 -0.189827 -0.0931535 0.362103 -3.42802 -1.93505 0.110107 -1.0834 -0.853845 1.33849e-06 -0.000622757 -0.000218768 20.1892 2.28813 2.41958 -4.50457 -0.0903226 0.0947639 -0.0365679 -0.189874 -0.0932112 20.1892 2.28813 2.41958 -4.50457 -0.0903057 0.0947847 -0.0365786 -0.18978 -0.093095 
26.982 1 63 22.2303 4.23199 2.33979 -2.98793 0.069737 -2.07742 0.493577 0.259681 0.258801 0.0570019 -0.0561291 -3.0441 0.0442887 -0.0829193 -1.21412 0.000257104 -5.41926e-05 -0.000342539 22.2273 4.23201 2.33772 -2.89967 0.116175 -2.03114 0.493668 0.259724 0.258827 22.2273 4.23201 2.33772 -2.8997 0.116159 -2.03115 0.493485 0.259637 0.258776 
26.982 1 222 22.2842 2.30056 4.36348 2.66046 -3.06085 -1.78303 0.186588 -0.081725 -0.115375 -0.429605 -2.74718 -1.39194 -0.0736556 -0.889945 -0.482617 8.56465e-05 -0.000716003 -0.000348475 22.2868 2.29744 4.3617 2.69383 -3.07547 -1.80366 0.186636 -0.0817727 -0.115423 22.2868 2.29744 4.3617 2.69382 -3.07546 -1.80365 0.18654 -0.0816769 -0.115326 
26.982 1 28 24.6229 2.37026 2.34854 4.8902 -4.27406 1.04532 -0.628202 0.0101964 -0.18931 -0.441027 -2.31299 -2.68266 -0.0742612 -0.835883 -1.14854 -0.000336773 -0.000598602 -0.000394961 24.6278 2.36592 2.3496 4.77785 -4.27224 1.01147 -0.628365 0.010181 -0.189324 24.6278 2.36592 2.3496 4.77791 -4.27223 1.01148 -0.628038 0.0102124 -0.189295 
26.982 1 61 20.2162 4.32093 0.37253 4.87837 1.97534 1.52016 -0.146497 -0.131614 -0.391196 0.372553 0.0732895 -4.42916 0.0634583 -0.0195766 -1.21868 -0.000310958 7.78421e-07 -0.00109042 20.221 4.32286 0.374069 4.85216 1.9518 1.4502 -0.146552 -0.131624 -0.391304 20.221 4.32286 0.374069 4.85218 1.95181 1.45024 -0.146441 -0.131606 -0.391088 
26.982 1 22 22.474 2.379 0.339235 -1.22205 4.08996 -1.86808 -0.410672 -0.22877 0.142815 -0.0132285 -2.08159 -4.85436 0.123715 -0.772488 -1.42995 0.000273957 -0.00038223 -0.00077665 22.4727 2.38303 0.337379 -1.29549 4.04904 -1.84253 -0.410774 -0.228848 0.142879 22.4727 2.38303 0.337379 -1.29546 4.04907 -1.84255 -0.410569 -0.228693 0.14275 
26.982 1 265 24.4901 4.30748 4.25898 6.26001 -2.07482 6.10111 -0.316636 0.25151 0.146578 -0.0111828 -0.279045 -0.507513 0.00541218 -0.109482 -0.221149 -8.20407e-05 -2.04706e-05 -0.000109387 24.4964 4.30535 4.2651 6.20338 -2.02984 6.12732 -0.316721 0.251595 0.146601 24.4964 4.30535 4.2651 6.20341 -2.02987 6.12731 -0.316551 0.251425 0.146555 
26.982 1 67 26.6244 4.21606 2.23983 -3.00246 1.76807 7.41495 0.31271 0.321107 0.0306892 0.129596 0.0498098 -3.54469 0.069351 -0.00282547 -1.45351 9.84215e-05 0.000284969 -0.000780789 26.6214 4.21778 2.24726 -2.94654 1.8255 7.42043 0.312784 0.321197 0.0306564 26.6214 4.21778 2.24726 -2.94657 1.82546 7.42044 0.312637 0.321018 0.0307226 
26.982 1 226 26.5375 2.51814 4.41719 -1.68601 7.02463 4.57799 0.713835 -0.273733 -0.0667663 0.437892 -2.08344 -0.78604 0.0626107 -0.723928 -0.364147 -3.20229e-05 -0.000424105 -0.000119245 26.5357 2.52511 4.42178 -1.55835 6.97568 4.56605 0.714 -0.27382 -0.0667604 26.5357 2.52511 4.42178 -1.55841 6.97571 4.56605 0.713671 -0.273646 -0.0667721 
26.982 1 32 28.8954 2.51179 2.44093 -2.6325 2.81358 -1.32587 -0.156907 -0.405046 -0.0475229 0.003921 -2.8403 -2.73366 -0.054843 -0.829644 -1.16793 0.000296978 -0.000209702 -0.000664786 28.8927 2.51455 2.43962 -2.66057 2.74114 -1.33437 -0.156958 -0.405128 -0.0475446 28.8927 2.51455 2.43962 -2.66055 2.74117 -1.33437 -0.156857 -0.404964 -0.047501 
26.982 1 269 28.8546 4.37299 4.42156 -1.67883 -4.63889 -1.65896 0.0110187 0.0533217 -0.0946534 -0.0338949 -0.344453 -0.523011 -0.0145477 -0.103478 -0.244739 -2.17089e-05 -1.88095e-05 -0.000152279 28.8529 4.3683 4.41991 -1.67686 -4.62936 -1.67588 0.0109964 0.0533383 -0.0946631 28.8529 4.3683 4.41991 -1.67686 -4.62936 -1.67588 0.0110406 0.053305 -0.0946438 
26.982 1 27 26.7995 0.61278 2.20586 0.12953 1.24348 0.168031 -0.0686107 -0.464887 0.673733 0.799864 -5.64633 -2.25914 0.0326824 -1.58104 -0.964812 -0.000282282 -0.000987532 -0.000100186 26.7996 0.613961 2.20604 0.117266 1.16034 0.28852 -0.0685895 -0.465029 0.673892 26.7996 0.613961 2.20604 0.117259 1.16039 0.288463 -0.0686324 -0.464745 0.673574 
26.982 1 26 26.5423 2.42703 0.204977 2.65579 1.53776 -4.86975 0.434416 0.276879 -0.261817 -0.0686635 -1.55061 -4.60288 -0.164855 -0.508671 -1.35684 -0.000129091 0.000103103 -0.00101801 26.5449 2.42851 0.200117 2.73348 1.58728 -4.91658 0.434532 0.276941 -0.261909 26.5449 2.42851 0.200117 2.73344 1.58726 -4.91655 0.434299 0.276817 -0.261724 
26.982 1 71 31.0805 4.30161 2.32746 -0.0911708 2.35983 -0.88294 0.0259968 0.0201082 0.31645 -0.257506 -0.0434806 -2.69129 -0.103848 0.0400927 -1.23249 -0.000189545 -0.000351904 -0.000576182 31.0804 4.30392 2.32659 -0.0865171 2.36342 -0.826346 0.0260282 0.0201053 0.31653 31.0804 4.30392 2.32659 -0.0865281 2.36342 -0.826374 0.0259665 0.0201118 0.31637 
26.982 1 230 31.0699 2.38634 4.4084 4.27911 -0.777912 -2.95296 -0.0101054 -0.0699671 -0.191234 -0.40499 -2.54179 -1.02547 -0.150288 -0.743423 -0.399455 7.64043e-06 -0.000367966 -0.000424656 31.0741 2.3855 4.40545 4.2773 -0.790426 -2.98716 -0.0100973 -0.0699909 -0.191281 31.0741 2.3855 4.40545 4.2773 -0.790418 -2.98714 -0.0101129 -0.069943 -0.191186 
26.982 1 233 33.2102 0.446334 4.26381 6.51433 -3.23196 4.77972 -0.267552 -0.290932 0.398505 -0.000153501 -3.43708 -1.77027 -0.0471069 -1.36111 -0.780485 5.07374e-05 -0.000811373 -0.000679868 33.2166 0.443036 4.2686 6.46649 -3.284 4.85099 -0.26761 -0.291039 0.398597 33.2166 0.443036 4.2686 6.46651 -3.28396 4.85095 -0.267496 -0.290825 0.398413 
26.982 1 273 33.2983 4.40154 4.44736 -0.174374 0.448149 -3.47207 -0.144894 -0.122376 -0.55913 0.0370901 -0.228809 -0.438903 -0.000277632 -0.0525695 -0.19809 1.83071e-05 -6.96405e-05 -0.000195377 33.298 4.40194 4.4439 -0.200277 0.426269 -3.57207 -0.144877 -0.122376 -0.559267 33.298 4.40194 4.4439 -0.200283 0.426269 -3.57202 -0.144911 -0.122375 -0.558993 
26.982 1 229 28.9584 0.510177 4.37151 -3.6598 -5.43131 -1.57522 -0.423527 -0.212788 -0.154923 -0.100284 -1.96521 -1.35915 -0.0279503 -0.825828 -0.554354 3.64651e-05 -0.000768372 -0.000562148 28.9546 0.504676 4.36995 -3.73554 -5.46936 -1.60292 -0.42364 -0.212847 -0.154948 28.9546 0.504676 4.36995 -3.7355 -5.46934 -1.60291 -0.423413 -0.212729 -0.154898 
26.982 1 29 28.696 0.517036 0.225334 -0.535359 1.73233 -2.13618 0.634791 -0.110856 0.135259 -0.414926 -3.14615 -3.65806 -0.0491476 -1.01358 -1.29189 0.000415482 -0.000458244 -0.000567753 28.6954 0.518707 0.223211 -0.421841 1.7125 -2.11199 0.634901 -0.110898 0.135259 28.6954 0.518708 0.223211 -0.42188 1.71252 -2.11199 0.63468 -0.110815 0.135259 
26.982 1 73 33.2337 4.47451 0.368527 -2.27479 1.86661 0.462242 0.253771 -0.333799 -0.10872 0.972348 -0.245042 -5.12035 0.166958 -0.105688 -1.24227 -0.000129478 -0.00037819 -0.00101996 33.2313 4.47632 0.369002 -2.2294 1.80692 0.442801 0.253885 -0.333864 -0.108731 33.2313 4.47632 0.369002 -2.22944 1.80694 0.442805 0.253658 -0.333735 -0.108709 
26.982 1 36 33.2035 2.39864 2.43478 -0.770963 -0.592574 2.50515 -0.0606988 0.366148 -0.447955 -0.0522769 -2.47168 -2.73748 -0.0705757 -0.680937 -1.11403 -0.000139535 -0.000665392 -0.000696149 33.2026 2.39799 2.4373 -0.781819 -0.527095 2.42504 -0.0607143 0.366218 -0.448054 33.2026 2.39799 2.4373 -0.781813 -0.52712 2.42507 -0.0606835 0.36608 -0.447856 
26.982 1 75 35.4973 4.34486 2.2226 -1.33748 1.45675 -0.216656 -0.404538 0.311266 0.0558669 0.920771 -0.0444089 -3.92376 0.123948 -0.0185874 -1.3097 7.05451e-05 -5.80534e-05 -0.000409173 35.4959 4.34627 2.22239 -1.40983 1.51242 -0.206668 -0.404649 0.311378 0.0558639 35.4959 4.34627 2.22239 -1.40979 1.51238 -0.206666 -0.404427 0.311155 0.0558697 
26.982 1 234 35.3037 2.48327 4.3027 -0.876187 -1.42826 2.59005 0.292106 0.034016 0.397489 0.127797 -1.709 -0.835854 0.113307 -0.557885 -0.300042 0.000229611 -0.000588079 -0.000266808 35.3026 2.48179 4.3053 -0.823947 -1.42218 2.66114 0.292174 0.034005 0.397589 35.3026 2.48179 4.3053 -0.823972 -1.42218 2.6611 0.292037 0.0340275 0.39739 
26.982 1 40 37.5387 2.49398 2.22403 0.484326 3.58403 8.24655 -0.0485036 -0.329097 0.302228 1.63705 -2.45976 -4.5707 0.475728 -0.912334 -1.37952 -0.000201908 -0.000343688 -0.000191862 37.539 2.49751 2.2323 0.475654 3.52518 8.3006 -0.0485067 -0.329163 0.302332 37.539 2.49751 2.2323 0.475655 3.5252 8.30056 -0.0484994 -0.329029 0.302125 
26.982 1 37 37.4955 0.326632 0.284638 -1.6705 2.26156 3.26326 0.432137 0.181464 0.0164801 0.528323 -3.54508 -2.99254 0.0673332 -0.9473 -1.14688 -0.0002148 -0.000670219 -0.000480991 37.4936 0.328831 0.287912 -1.59321 2.294 3.26621 0.432277 0.181433 0.0164855 37.4936 0.328831 0.287912 -1.59326 2.29401 3.26621 0.431996 0.181497 0.0164742 
26.982 1 34 35.44 2.2871 0.329938 3.35858 0.0175413 0.484583 -0.198866 0.543893 0.0371424 0.821286 -0.840556 -4.40135 0.127586 -0.326629 -1.51758 -0.000191609 -0.000342298 -0.000756866 35.4432 2.28706 0.330435 3.32301 0.114808 0.491228 -0.198935 0.544005 0.0371606 35.4432 2.28706 0.330435 3.32304 0.114767 0.491221 -0.198797 0.543781 0.0371244 
26.982 1 277 37.4482 4.41143 4.35927 -2.40073 2.10367 4.19278 0.470696 -0.284742 -0.0800613 0.080646 -0.331409 -0.808367 0.0240829 -0.116423 -0.244515 9.14881e-05 -0.000136784 -0.000115038 37.4456 4.41348 4.36348 -2.31656 2.05275 4.17846 0.470782 -0.284783 -0.0800737 37.4456 4.41348 4.36348 -2.31659 2.05276 4.17846 0.47061 -0.284701 -0.0800492 
26.982 1 4 41.8306 2.26892 2.01145 0.0620508 1.09346 4.70186 -0.0652281 0.65857 0.380425 -2.06408 -3.07177 -3.33478 -0.65083 -1.00954 -1.1091 0.000178641 0.000197191 -0.000552109 41.8304 2.26996 2.01617 0.0503832 1.21123 4.7699 -0.0652561 0.658689 0.380506 41.8304 2.26996 2.01617 0.0503933 1.21118 4.76987 -0.0651999 0.658451 0.380345 
26.982 1 79 39.6035 4.384 2.18916 -4.14391 -2.05663 -0.154926 0.102354 -0.0578609 0.356033 -0.577307 -1.22238 -4.38472 -0.12314 -0.339897 -1.38627 2.58692e-06 0.000196927 -0.000708756 39.5992 4.38188 2.18902 -4.12561 -2.06697 -0.0912502 0.102375 -0.057863 0.356138 39.5992 4.38188 2.18902 -4.12562 -2.06697 -0.0912878 0.102333 -0.0578588 0.355928 
26.982 1 238 39.6192 2.33847 4.21159 -4.66439 4.76103 -4.06172 -0.121137 0.247966 0.11454 0.0792995 -2.87894 -2.10378 -0.0290582 -0.941278 -0.669401 -0.000244541 -0.000282799 -6.57881e-05 39.6144 2.34317 4.20753 -4.68606 4.80537 -4.04123 -0.121163 0.247992 0.114575 39.6144 2.34317 4.20753 -4.68605 4.80537 -4.04124 -0.121111 0.24794 0.114504 
26.982 1 1 41.7832 0.294532 0.2333 6.20934 0.109704 -1.15386 -0.114258 0.0810416 0.0254269 -1.48628 -1.62015 -4.40386 -0.423866 -0.563941 -1.48558 0.000175957 -0.000581618 -0.000761821 41.7892 0.294576 0.232159 6.1889 0.124197 -1.14931 -0.114328 0.0810595 0.0254232 41.7892 0.294576 0.232159 6.18893 0.124191 -1.14931 -0.114188 0.0810254 0.0254313 
26.982 1 39 39.5718 0.555666 2.21576 -0.882471 0.115477 3.51242 0.0827753 -0.746926 -0.117662 -0.610043 -0.477256 -4.38635 -0.163637 -0.285963 -1.3155 -0.000207776 -0.000999051 -2.06022e-05 39.5707 0.555719 2.21929 -0.867669 -0.018105 3.49138 0.0827845 -0.747116 -0.117677 39.5707 0.555719 2.21929 -0.867673 -0.0180367 3.49139 0.0827658 -0.746734 -0.117647 
26.982 1 38 39.6932 2.47417 0.21993 -0.047122 3.64312 3.4138 0.278279 -0.497194 0.123317 0.146232 -1.80808 -2.09678 0.0444974 -0.633785 -0.834933 -9.93417e-06 0.000253619 -0.00107289 39.693 2.47776 0.223358 0.00264608 3.5542 3.43585 0.278351 -0.497324 0.123318 39.693 2.47776 0.223358 0.00262038 3.55424 3.43585 0.278207 -0.497063 0.123315 
26.982 1 83 1.00964 8.28531 2.27784 -0.81954 -2.72792 -0.0283268 -0.478929 -0.147398 -0.243144 -2.82795 -0.690793 -3.4975 -0.91102 -0.254219 -1.07832 -0.000306361 -2.03119e-05 -0.000783615 1.009 8.28254 2.27782 -0.905189 -2.75428 -0.071809 -0.47903 -0.14743 -0.243194 1.009 8.28254 2.27782 -0.905153 -2.75427 -0.0717912 -0.478828 -0.147367 -0.243095 
26.982 1 242 0.795994 6.30439 4.2357 -6.35884 0.382286 -0.0719267 -0.0853712 -0.412218 0.0611799 -2.90861 0.306886 -1.76976 -0.968838 -0.0325985 -0.535656 -0.000321412 -0.000102342 -0.000282499 0.789814 6.30472 4.23564 -6.3741 0.308572 -0.0609822 -0.085385 -0.412282 0.0612123 0.789814 6.30472 4.23564 -6.3741 0.308594 -0.0609938 -0.0853578 -0.412155 0.0611469 
26.982 1 285 2.89041 8.04256 4.40685 -3.49254 4.91952 2.74397 0.40089 0.485286 -0.331647 -0.454078 -0.0206557 -0.551194 -0.122321 -0.0165101 -0.16143 8.27136e-05 3.5418e-05 -0.000156865 2.88709 8.04745 4.4096 -3.42085 5.0063 2.68467 0.400974 0.485324 -0.331672 2.88709 8.04745 4.4096 -3.42088 5.00628 2.68468 0.400806 0.485247 -0.331622 
26.982 1 42 0.959853 6.40465 0.323932 -5.04667 -0.913743 -2.15315 0.260364 0.00958561 -0.189632 -2.35771 -0.807406 -3.68653 -0.809038 -0.260722 -1.42489 -0.000273464 1.1517e-05 -0.000902655 0.954986 6.40369 0.321791 -5.0001 -0.912017 -2.18706 0.26047 0.00965126 -0.189631 0.954986 6.40369 0.321791 -5.00014 -0.912041 -2.18706 0.260258 0.00951868 -0.189634 
26.982 1 281 -1.33809 8.23023 4.1638 -0.205201 0.0798962 1.99252 0.0777693 0.347372 0.0929625 -1.17377 -1.30789 -1.62393 -0.526127 -0.530986 -0.654361 -0.00055597 -0.000388249 -0.000567721 -1.33809 8.23027 4.16581 -0.191295 0.142021 2.00915 0.077774 0.347461 0.0929784 -1.33809 8.23027 4.16581 -0.191297 0.141989 2.00914 0.077764 0.347282 0.0929464 
26.982 1 84 -1.28119 10.3049 2.10994 -1.63871 -2.84488 -7.894 0.186478 -0.32082 0.384561 -2.86237 -0.938552 -4.6185 -1.09819 -0.201973 -1.42474 -0.000664757 -0.000105782 -0.000757355 -1.28263 10.3021 2.10206 -1.60536 -2.90226 -7.82523 0.18653 -0.320923 0.384639 -1.28263 10.3021 2.10206 -1.60538 -2.90222 -7.82526 0.186425 -0.320717 0.384483 
26.982 1 48 3.07193 6.17874 2.19758 -0.0126949 -2.92355 1.0516 0.0103994 0.246806 0.299785 -1.08571 -0.123274 -3.24844 -0.238657 -0.0931161 -1.07407 0.00016858 4.7296e-05 -0.000782534 3.07208 6.17577 2.19864 -0.0108348 -2.87941 1.10522 0.0104033 0.246861 0.29987 3.07208 6.17577 2.19864 -0.0108361 -2.87943 1.10519 0.0103963 0.24675 0.299699 
26.982 1 87 5.22425 8.33056 2.39386 5.06398 -0.517085 -1.14509 -0.25643 -0.210556 -0.0621443 -0.0969866 0.34237 -2.93976 -0.0145321 0.00192282 -0.951077 -2.81521e-05 -2.21673e-05 -0.000974922 5.22946 8.33001 2.39272 5.01812 -0.554739 -1.1562 -0.256502 -0.2106 -0.0621271 5.22946 8.33001 2.39272 5.01814 -0.554724 -1.1562 -0.256357 -0.210513 -0.0621611 
26.982 1 246 5.1427 6.22848 4.24805 -2.2952 1.45449 2.19098 -0.114241 -0.0764234 0.138389 -0.022313 -0.0196336 -0.32829 -0.00575236 -0.0102136 -0.127685 -4.94454e-05 -1.97778e-06 -0.000102316 5.14055 6.22989 4.25025 -2.31563 1.44082 2.21573 -0.114286 -0.0764456 0.138441 5.14055 6.22989 4.25025 -2.31562 1.44083 2.21571 -0.114196 -0.0764016 0.138336 
26.982 1 52 7.33409 6.38483 2.37095 2.36426 1.20531 6.16187 0.0378879 -0.20756 0.0239398 0.284496 0.284524 -2.69437 -0.00338472 0.0260106 -0.919812 -0.000190831 0.000247738 -0.000656995 7.33657 6.38599 2.37713 2.37103 1.1682 6.16615 0.0378915 -0.207563 0.023969 7.33657 6.38599 2.37713 2.37103 1.1682 6.16614 0.0378846 -0.207557 0.0239106 
26.982 1 289 7.3546 8.4068 4.32427 -5.86315 -2.9017 7.28764 0.0850791 -0.202857 0.359353 0.044756 0.0233015 -0.453653 0.00919953 0.00672201 -0.137118 -1.37361e-06 -8.69091e-07 -3.7408e-05 7.34886 8.40386 4.33157 -5.84793 -2.93797 7.35191 0.0850967 -0.202872 0.359467 7.34886 8.40386 4.33157 -5.84794 -2.93796 7.35187 0.0850611 -0.202843 0.359239 
26.982 1 92 7.38894 10.2998 2.41086 1.2734 -0.582483 -5.61396 -0.117897 0.0674755 -0.271243 0.357568 -0.308663 -3.25145 0.157506 0.0159014 -1.08726 -3.66123e-05 3.26777e-05 -0.000981654 7.39034 10.2992 2.40526 1.25232 -0.570417 -5.66246 -0.117917 0.0674897 -0.271278 7.39034 10.2992 2.40526 1.25233 -0.570421 -5.66245 -0.117876 0.0674618 -0.271208 
26.982 1 91 9.51263 8.42518 2.36717 -2.1069 -5.74624 -0.408778 -0.271697 -0.228036 -0.289295 0.469171 0.408566 -3.90461 0.0892984 0.172022 -1.15305 -0.0002697 0.000121455 -0.000659237 9.51062 8.41939 2.36677 -2.15549 -5.78702 -0.46052 -0.271745 -0.228089 -0.289389 9.51062 8.41939 2.36677 -2.15547 -5.787 -0.460486 -0.271649 -0.227984 -0.289201 
26.982 1 250 9.44685 6.25881 4.27749 6.29682 0.0949243 -3.16494 0.0133781 0.346669 0.0200888 0.0350539 0.0428859 -0.380326 0.0081205 0.00522066 -0.121385 2.73196e-07 6.1453e-05 -5.58629e-05 9.45325 6.25886 4.27434 6.29922 0.156919 -3.16135 0.0133862 0.346731 0.0201114 9.45325 6.25886 4.27434 6.29921 0.156896 -3.16136 0.0133704 0.346607 0.0200664 
26.982 1 50 9.47857 6.24596 0.369235 1.25341 0.789621 0.87903 0.0249588 0.330265 0.059558 0.435576 0.479697 -5.0363 0.123961 -0.0043998 -1.88569 -1.88087e-05 4.62799e-05 -0.00103362 9.47992 6.24671 0.370131 1.25787 0.848688 0.889681 0.0249746 0.33036 0.0595709 9.47992 6.24671 0.370131 1.25787 0.848654 0.889676 0.0249427 0.33017 0.0595457 
26.982 1 290 9.64495 10.3371 4.44364 -1.73034 -0.561824 -2.21405 -0.380481 -0.279126 0.21338 0.0459395 -0.0083011 -0.57688 0.0135934 0.0139575 -0.193127 -7.95861e-05 -1.47416e-05 -3.7958e-05 9.64332 10.3365 4.44144 -1.79838 -0.611737 -2.17588 -0.380541 -0.27916 0.21346 9.64332 10.3365 4.44144 -1.79836 -0.611724 -2.17591 -0.38042 -0.279092 0.2133 
26.982 1 93 11.5106 8.31922 0.395594 -0.230181 0.15358 -0.149448 0.338489 0.107458 0.0536866 0.493401 0.141228 -1.7391 0.226178 0.100355 -1.14817 -0.000136905 0.000171074 -0.0010584 11.5104 8.31934 0.395458 -0.169654 0.1728 -0.139849 0.338529 0.107496 0.0536864 11.5104 8.31934 0.395458 -0.169668 0.172786 -0.139849 0.338449 0.10742 0.0536872 
26.982 1 56 11.6661 6.27748 2.31964 -3.155 -0.793772 -0.489168 -0.308513 -0.0236048 -0.166973 0.110742 0.780132 -3.38591 0.137848 0.0618819 -1.13182 -3.4571e-05 -0.000192135 -0.000477232 11.663 6.27664 2.31916 -3.21016 -0.797991 -0.51903 -0.308538 -0.0235968 -0.167018 11.663 6.27664 2.31916 -3.21015 -0.797994 -0.519014 -0.30849 -0.0236131 -0.166929 
26.982 1 293 11.49 8.24177 4.28555 4.36646 7.00982 -1.7868 0.626503 0.0961636 0.159064 -0.0145539 0.0491313 -0.623672 0.00437128 0.02032 -0.185194 0.000137283 4.28263e-05 -3.45847e-05 11.4945 8.24874 4.28378 4.47851 7.02702 -1.75835 0.626648 0.0961994 0.15909 11.4945 8.24874 4.28378 4.47845 7.02701 -1.75836 0.626357 0.0961277 0.159038 