ITEM: TIMESTEP
15000
ITEM: NUMBER OF ATOMS
4000
ITEM: BOX BOUNDS pp pp pp
-3.12283 43.6228
0.834724 39.6653
0.813083 39.6869
ITEM: ATOMS mass type id x y z vx vy vz fx fy fz xrad yrad zrad vxrad vyrad vzrad fxrad fyrad fzrad xub yub zub vxub vyub vzub fxub fyub fzub xlb ylb zlb vxlb vylb vzlb fxlb fylb fzlb 
26.982 1 43 -0.547453 4.69018 2.54496 0.331608 -0.395758 -2.23585 -0.193792 0.434734 -0.212986 -14.4095 -8.04348 -22.849 -1.90429 -0.843802 -3.26044 -0.0002788 -0.000128076 -0.000957803 -0.546942 4.68973 2.54269 0.296944 -0.318028 -2.27394 -0.193875 0.434739 -0.213035 -0.546942 4.68973 2.54269 0.296973 -0.318029 -2.27393 -0.193709 0.434731 -0.212938 
26.982 1 202 -1.01518 3.11157 4.52227 -4.4453 -0.74361 -3.77213 0.134171 -0.673468 0.505919 -13.4688 -13.2594 -13.7061 -1.7906 -1.82966 -1.8979 -0.000300353 -0.000561806 -0.000377473 -1.01944 3.11078 4.51846 -4.42129 -0.864043 -3.68166 0.134247 -0.673573 0.50597 -1.01944 3.11078 4.51846 -4.42132 -0.864006 -3.68168 0.134094 -0.673363 0.505869 
26.982 1 245 1.41662 4.53848 4.7905 5.61747 -2.54294 2.20971 0.0750168 0.105637 0.0968589 -1.40361 -3.1093 -4.47531 -0.193862 -0.41049 -0.654117 -1.2054e-05 -0.000190318 -0.000140081 1.42241 4.53588 4.79268 5.63089 -2.52406 2.22704 0.0750586 0.105606 0.0969044 1.42241 4.53588 4.79268 5.63087 -2.52405 2.22702 0.0749766 0.105667 0.0968145 
26.982 1 8 1.73414 2.90364 2.66911 0.0781946 -0.489682 5.45854 -0.646978 -0.0987093 0.0199943 2.78133 -21.4989 -23.0501 0.232875 -2.83842 -3.22779 -0.000251447 -0.000554134 -0.000782673 1.73437 2.9031 2.67454 -0.037518 -0.507334 5.46211 -0.647175 -0.0987282 0.0199509 1.73437 2.9031 2.67454 -0.0374476 -0.507327 5.46213 -0.64678 -0.0986892 0.0200376 
26.982 1 47 3.83649 4.84569 3.03322 0.864688 1.81336 1.56681 0.18529 0.0453182 0.217709 -1.17509 -6.03761 -22.6594 -0.0369727 -0.795935 -3.37098 5.59656e-05 -0.000177967 -0.000562543 3.8375 4.84746 3.03476 0.897834 1.82147 1.60575 0.185382 0.0454001 0.217819 3.8375 4.84746 3.03476 0.897801 1.82144 1.60571 0.185199 0.0452366 0.217599 
26.982 1 206 3.68939 2.50975 4.68388 -0.0312986 0.457354 0.212809 0.360507 0.219796 0.077184 -0.630054 -19.6339 -12.5446 0.0254272 -2.53367 -1.6391 -5.2584e-05 -0.000467814 -0.000175884 3.6895 2.51015 4.68406 0.0331774 0.496669 0.226624 0.36061 0.219888 0.0772666 3.6895 2.51015 4.68406 0.0331405 0.496637 0.226595 0.360404 0.219706 0.0771024 
26.982 1 149 29.6629 12.4509 0.743058 -7.90095 -2.89587 -1.04577 0.0155713 -0.0699624 0.492243 -0.669795 5.02083 -24.1999 -0.0948713 0.367418 -2.86529 9.86894e-05 -9.15416e-06 -0.000931784 29.6549 12.448 0.741976 -7.89816 -2.90838 -0.957739 0.0155791 -0.0699656 0.49236 29.6549 12.448 0.741976 -7.89817 -2.90838 -0.95778 0.0155632 -0.0699596 0.492127 
26.982 1 249 6.28484 4.7696 4.87987 2.82916 5.35395 4.10351 -0.239624 0.534078 0.00421764 -0.209316 -2.94342 -3.7098 -0.0104674 -0.433659 -0.599769 -8.50447e-05 2.56499e-05 -0.0001499 6.28779 4.77491 4.88395 2.7863 5.44946 4.10426 -0.239703 0.534214 0.00420381 6.28779 4.77491 4.88395 2.78633 5.44941 4.10427 -0.239547 0.533943 0.00423048 
26.982 1 12 6.07425 2.76721 3.00898 3.55531 -0.82037 4.70675 0.12199 -0.375338 0.352252 -3.54884 -24.8412 -20.459 -0.297411 -3.30434 -3.0955 0.000144689 -0.000496322 -0.00059342 6.07792 2.76634 3.01365 3.57714 -0.887479 4.76975 0.122079 -0.375341 0.352356 6.07792 2.76634 3.01365 3.57711 -0.887478 4.76971 0.1219 -0.375334 0.352147 
26.982 1 51 8.43746 4.26451 2.233 1.10491 -9.86669 -3.81587 0.555615 -0.121315 0.462538 0.236327 -3.03642 -19.417 0.0156646 -0.426102 -3.08946 -0.000191672 -0.000244455 -0.000470331 8.43866 4.25459 2.22915 1.20428 -9.88838 -3.73315 0.555765 -0.121298 0.462644 8.43866 4.25459 2.22915 1.20423 -9.88838 -3.73319 0.555465 -0.121331 0.462432 
26.982 1 210 8.76782 3.07272 4.91585 -3.66442 2.03027 1.66316 -0.23706 0.305048 -0.103446 1.12333 -18.8607 -10.7592 0.163245 -2.68864 -1.56945 -0.000127661 -0.000383782 -0.000384585 8.76426 3.07469 4.91749 -3.70681 2.08482 1.64466 -0.2371 0.305086 -0.103481 8.76426 3.07469 4.91749 -3.70679 2.08481 1.64467 -0.23702 0.30501 -0.103411 
26.982 1 113 34.2928 8.65191 0.927023 -2.61282 2.73475 -1.4627 -0.477115 0.0626389 -0.240016 -0.428767 0.679372 -21.0127 -0.0256328 -0.0246213 -2.97664 0.000173398 0.000225443 -0.00103554 34.2901 8.65462 0.925525 -2.69816 2.74595 -1.50562 -0.477266 0.0626634 -0.240039 34.2901 8.65462 0.925525 -2.6981 2.74594 -1.50562 -0.476965 0.0626146 -0.239994 
26.982 1 253 11.0247 4.55621 4.48129 6.43965 0.507307 -0.510532 0.237715 -0.0208603 0.505281 0.235031 -3.29957 -3.80828 0.00687115 -0.485157 -0.597799 -4.26697e-05 -5.04053e-05 -4.11953e-05 11.0312 4.55667 4.48074 6.48215 0.503584 -0.420182 0.237687 -0.0208201 0.505321 11.0312 4.55667 4.48074 6.48216 0.50357 -0.420196 0.237743 -0.0209005 0.505241 
26.982 1 16 11.0994 2.71696 2.53133 2.13212 5.22124 1.82552 -0.36567 0.172678 0.161679 3.20498 -25.0257 -19.9988 0.102477 -3.3784 -2.77643 -0.000185748 -0.000707224 -0.000422061 11.1016 2.72214 2.53313 2.06671 5.25212 1.85443 -0.365843 0.172757 0.161688 11.1016 2.72214 2.53313 2.06677 5.2521 1.85443 -0.365497 0.172599 0.16167 
26.982 1 55 13.4221 4.70257 2.90531 -2.15104 0.910158 0.946298 -0.103566 -0.0796497 0.243319 0.465718 -5.55869 -23.3031 0.0199789 -0.584898 -3.18226 5.00198e-05 -7.42086e-05 -0.000156132 13.42 4.70343 2.90622 -2.16955 0.895929 0.989813 -0.103542 -0.0795853 0.243375 13.42 4.70343 2.90622 -2.16956 0.895906 0.989793 -0.10359 -0.079714 0.243264 
26.982 1 214 13.1941 2.61542 4.71314 -1.43823 3.51752 -2.95849 0.38534 0.16084 0.355287 0.901522 -20.6124 -11.4695 -0.0204824 -2.7521 -1.51352 0.000254565 -0.000562904 -0.000276608 13.1927 2.6189 4.71015 -1.36932 3.54627 -2.89495 0.385442 0.160838 0.355412 13.1927 2.6189 4.71015 -1.36935 3.54628 -2.89499 0.385239 0.160841 0.355161 
26.982 1 20 15.603 2.90425 2.91665 -1.56738 2.2392 0.296578 0.00676754 -0.481022 -0.00647686 -4.22867 -24.8628 -19.9007 -0.131562 -3.25576 -2.85295 3.71864e-05 -0.000944628 -0.000258496 15.6015 2.90643 2.91691 -1.56617 2.15318 0.295423 0.00674989 -0.481089 -0.00646241 15.6015 2.90643 2.91691 -1.56617 2.15321 0.295417 0.00678552 -0.480957 -0.00649232 
26.982 1 257 15.6995 4.8078 4.82652 -0.926592 2.1597 4.97497 -0.171611 0.157454 -0.530388 -0.137013 -3.47085 -3.99074 0.00758361 -0.457617 -0.603493 -1.1364e-05 -5.95917e-05 -0.000169207 15.6986 4.80992 4.83147 -0.957281 2.18786 4.88012 -0.171641 0.157491 -0.530484 15.6986 4.80992 4.83147 -0.95727 2.18785 4.88015 -0.171582 0.157416 -0.530293 
26.982 1 218 17.957 2.77461 4.62192 2.02202 -8.71866 3.25464 -0.244787 0.35555 0.484172 -1.14244 -19.8157 -9.66991 -0.0639933 -2.72235 -1.53632 4.06978e-06 -0.000686253 -0.000289577 17.959 2.76584 4.62515 1.97825 -8.65508 3.34122 -0.244846 0.355624 0.484275 17.959 2.76584 4.62515 1.97827 -8.6551 3.34119 -0.244728 0.355475 0.484071 
26.982 1 59 17.9655 5.00202 2.84194 8.08366 2.20875 -1.67324 -0.0390445 -0.232696 -0.307284 0.737599 -1.96626 -21.0427 0.183915 -0.384278 -3.3253 1.22748e-05 7.16553e-05 -0.000513866 17.9736 5.00419 2.84023 8.07668 2.16715 -1.72819 -0.0390506 -0.232708 -0.307363 17.9736 5.00419 2.84023 8.07668 2.16715 -1.72816 -0.0390381 -0.232684 -0.307204 
26.982 1 801 -3.18879 0.924433 16.555 4.77285 -0.5363 -0.366503 0.394776 -0.0945598 -0.582433 -6.8318 -15.193 -16.2705 -1.05137 -2.31842 -2.50812 -0.00025164 -0.000228627 -0.00086794 -3.18381 0.923841 16.5546 4.84348 -0.553203 -0.470654 0.395006 -0.0945326 -0.582507 -3.18381 0.923841 16.5546 4.8434 -0.553212 -0.470628 0.394547 -0.0945868 -0.582361 
26.982 1 24 20.0726 2.84613 2.71224 -7.24195 -4.69076 1.14732 0.769091 0.601176 0.171254 1.68364 -21.0116 -18.6503 0.0354456 -2.8648 -3.05882 0.000137673 -0.000494188 -5.5798e-05 20.0654 2.84138 2.71336 -7.1044 -4.58324 1.17795 0.769318 0.601331 0.171308 20.0654 2.84138 2.71336 -7.10448 -4.5833 1.17793 0.768864 0.601021 0.1712 
26.982 1 261 20.1483 4.95755 4.56444 5.57399 0.688696 2.92158 0.557869 -0.26206 0.141938 0.203481 -2.94531 -4.22732 0.0215795 -0.427388 -0.693346 0.000161941 -0.000214233 -9.4986e-05 20.1538 4.95819 4.56733 5.67376 0.641819 2.94696 0.558022 -0.262182 0.141953 20.1538 4.95819 4.56733 5.6737 0.641862 2.94696 0.557717 -0.26194 0.141922 
26.982 1 2801 43.2274 20.0671 16.2115 -7.49961 1.45595 -1.34173 0.183508 0.0129192 -0.019788 -20.0833 -1.98071 -25.4776 -2.37902 -0.494932 -3.62881 3.15225e-05 0.000213708 -0.000285629 43.2197 20.0685 16.2101 -7.46679 1.45826 -1.34527 0.183564 0.0129213 -0.0197782 43.2197 20.0685 16.2101 -7.46681 1.45826 -1.34527 0.183453 0.0129172 -0.019798 
26.982 1 145 25.1914 12.6278 0.686095 1.54723 4.64547 -2.2985 -0.510899 0.243605 0.285975 2.17845 -0.470065 -15.0267 0.325538 -0.0112474 -2.66582 0.000196961 4.45449e-05 -0.000957332 25.1929 12.6324 0.683758 1.45585 4.68904 -2.24735 -0.51107 0.243657 0.286076 25.1929 12.6324 0.683758 1.45591 4.68902 -2.24739 -0.510727 0.243552 0.285875 
26.982 1 63 22.6723 4.89361 2.83754 -3.88892 2.73612 3.03854 -0.141244 -0.621937 0.423795 0.921048 -1.83893 -25.0253 0.0703959 -0.340327 -3.74904 -7.72529e-05 -0.000177945 -0.000584317 22.6684 4.89631 2.84054 -3.91419 2.62489 3.11434 -0.14131 -0.622094 0.423939 22.6684 4.89631 2.84054 -3.91417 2.62495 3.11428 -0.14118 -0.62178 0.42365 
26.982 1 222 22.4857 2.69277 4.75091 2.15461 1.90817 -1.92417 0.294048 0.666168 0.05001 -0.450966 -18.3722 -10.5026 -0.0144026 -2.47796 -1.47158 -2.10644e-06 -0.000300545 -0.00015307 22.4879 2.69463 4.74896 2.20719 2.02731 -1.91522 0.294106 0.666358 0.0500286 22.4879 2.69463 4.74896 2.20717 2.02724 -1.91523 0.29399 0.665979 0.0499904 
26.982 1 28 25.0006 2.73888 2.97356 2.15632 1.88036 3.49273 -0.33394 0.317864 -0.150006 -1.2252 -17.782 -22.0646 -0.00987418 -2.56924 -3.2251 -5.1344e-05 -0.000538684 -7.38583e-05 25.0028 2.74071 2.97702 2.09659 1.93721 3.46591 -0.334029 0.317968 -0.150003 25.0028 2.74071 2.97702 2.09662 1.93718 3.46591 -0.33385 0.31776 -0.150009 
26.982 1 265 25.0359 4.81296 4.63339 3.27032 0.0507836 2.35235 -0.173956 -0.0326235 0.052303 0.00600745 -2.63078 -4.84521 0.0103499 -0.406343 -0.741257 -0.000105483 -9.94674e-05 -1.24899e-05 25.0392 4.81297 4.63572 3.2392 0.044952 2.36172 -0.174051 -0.0326157 0.0523783 25.0392 4.81297 4.63572 3.23924 0.044949 2.36169 -0.173862 -0.0326324 0.052227 
26.982 1 999 40.9956 16.1298 18.1567 -3.14466 -2.29193 -5.6015 0.492768 0.218064 0.896354 6.48252 -1.34744 -5.01958 0.73749 -0.197212 -0.525071 0.000150021 1.95317e-05 0.000154806 40.9923 16.1275 18.1511 -3.05653 -2.25293 -5.4412 0.492912 0.218101 0.896503 40.9923 16.1275 18.1511 -3.05658 -2.25294 -5.44126 0.492624 0.218027 0.896204 
26.982 1 7 3.96945 0.928461 2.48075 1.20418 2.7611 0.761463 0.044439 -0.0249125 -0.298644 -2.08301 -6.04542 -23.7698 -0.122717 -1.50081 -3.24331 -2.08329e-05 -0.000690963 -0.000530857 3.97079 0.931167 2.48148 1.21214 2.75662 0.708059 0.0444801 -0.0250392 -0.298684 3.97079 0.931167 2.48148 1.21212 2.75667 0.708073 0.0443979 -0.0247841 -0.298605 
26.982 1 2835 36.7191 20.3871 18.4739 0.978212 3.09865 0.6101 -0.496319 -0.605039 -0.289334 -9.28195 -5.77191 -15.4488 -1.35552 -0.607459 -2.21021 -0.000142384 0.000431884 -0.000504798 36.7199 20.3902 18.4745 0.889442 2.99045 0.558351 -0.496488 -0.605144 -0.289428 36.7199 20.3902 18.4745 0.889502 2.99049 0.558385 -0.496152 -0.604935 -0.289241 
26.982 1 67 27.4407 4.83864 2.78968 -10.3899 4.54449 -1.46061 -0.0706939 -0.0843647 -0.372848 1.17192 -0.841835 -28.8478 0.171278 -0.208367 -4.13076 0.00016338 -0.000112186 -0.000417859 27.4302 4.84314 2.78818 -10.4025 4.52941 -1.52728 -0.0706956 -0.0843505 -0.37289 27.4302 4.84314 2.78818 -10.4025 4.5294 -1.52727 -0.0706921 -0.0843788 -0.372806 
26.982 1 226 27.2967 2.96565 4.67849 -1.60512 2.92127 -0.197779 0.212815 -0.0198555 0.502541 0.153673 -15.7813 -8.64076 -0.031076 -2.40648 -1.45029 3.77245e-05 -0.000708022 -0.000199096 27.295 2.96852 4.67827 -1.56706 2.91771 -0.107905 0.212869 -0.0198938 0.50266 27.295 2.96852 4.67827 -1.56708 2.91773 -0.107947 0.212762 -0.0198173 0.502423 
26.982 1 32 29.7057 2.813 2.93065 -3.10851 4.30296 2.1918 -0.143069 0.0577441 -0.114382 0.270554 -15.9056 -23.7878 0.031311 -2.27986 -3.53212 -0.000135306 -0.000554133 -0.000488385 29.7025 2.81726 2.93282 -3.13409 4.31329 2.17133 -0.143049 0.0577305 -0.11444 29.7025 2.81726 2.93282 -3.1341 4.31329 2.17136 -0.143091 0.0577582 -0.114325 
26.982 1 269 29.7227 4.70772 4.89925 1.91019 1.79637 2.60257 0.0710195 0.0429764 -0.460533 -0.153252 -2.36682 -5.29825 -0.0181472 -0.376919 -0.824114 5.36417e-05 -8.86278e-05 -0.000217454 29.7246 4.70947 4.90183 1.9229 1.80406 2.52021 0.0710889 0.0429974 -0.460637 29.7246 4.70947 4.90183 1.92287 1.80405 2.52024 0.0709502 0.0429558 -0.460429 
26.982 1 2229 29.4996 20.1342 4.49933 -3.83297 -0.756588 -7.30662 -0.265776 -0.0736105 -0.031672 -4.00771 4.2569 -17.7682 -0.641278 0.52162 -2.44065 -0.000296514 0.000375766 -0.000430551 29.4957 20.1334 4.49199 -3.88051 -0.769752 -7.31228 -0.265876 -0.0736249 -0.0316841 29.4957 20.1334 4.49199 -3.88047 -0.769747 -7.31228 -0.265676 -0.0735964 -0.0316599 
26.982 1 2027 27.111 20.2137 2.47204 -2.54235 -6.28097 1.32269 0.0792736 -0.0847892 0.192486 -7.53189 2.31215 -28.1837 -1.15584 -0.134442 -4.11222 -0.000275074 0.000193056 -0.00087566 27.1084 20.2074 2.47333 -2.52817 -6.29612 1.3571 0.0793111 -0.0847636 0.192496 27.1084 20.2074 2.47333 -2.52818 -6.29613 1.3571 0.0792363 -0.0848152 0.192476 
26.982 1 26 27.2136 2.81423 1.07604 0.382929 -0.952951 -1.36843 0.223089 -0.456462 -0.0482259 -1.94291 -10.6425 -23.9009 -0.144381 -1.57001 -3.11317 0.000359744 -0.000502051 -0.000761307 27.2139 2.81323 1.07464 0.422825 -1.03458 -1.37706 0.223137 -0.45656 -0.0482696 27.2139 2.81323 1.07464 0.422808 -1.03455 -1.37705 0.223041 -0.456364 -0.0481828 
26.982 1 2035 36.5841 20.3143 2.46461 3.3261 -2.7019 -0.17937 0.0382344 -0.988467 -0.0463191 -4.68936 -0.237225 -35.746 -0.712334 -0.170912 -4.81749 -0.000361621 5.47286e-05 -0.000914723 36.5873 20.3115 2.4644 3.33294 -2.87866 -0.187651 0.0382599 -0.988646 -0.046317 36.5873 20.3115 2.4644 3.33293 -2.8786 -0.187652 0.0382086 -0.988288 -0.0463218 
26.982 1 38 41.1983 2.76175 0.73309 0.403174 2.61541 -4.49349 0.11944 -0.177348 0.188725 0.242843 -10.7082 -20.3317 -0.0132955 -1.62319 -3.03106 0.00018259 -0.000456471 -0.00081545 41.1985 2.76432 0.728559 0.424532 2.5837 -4.45974 0.119454 -0.177359 0.188766 41.1985 2.76432 0.728559 0.424527 2.58371 -4.45975 0.119426 -0.177336 0.188686 
26.982 1 71 31.8879 4.76587 2.89021 0.191599 2.21675 -0.878607 0.0831899 -0.472206 0.0858791 -2.50699 -1.4976 -26.0866 -0.31491 -0.39624 -3.97841 -0.000203105 -0.00017513 -0.00027883 31.8879 4.76805 2.8893 0.206472 2.13231 -0.863236 0.0831849 -0.472287 0.0859706 31.8879 4.76805 2.8893 0.206473 2.13234 -0.863269 0.0831943 -0.472125 0.0857877 
26.982 1 230 31.9596 2.33634 5.0058 -2.06383 0.046549 -7.21707 -0.034915 0.375096 -0.328523 -1.16752 -16.1895 -9.45813 -0.114891 -2.28221 -1.45742 -5.56177e-08 -0.000447392 -0.000287973 31.9575 2.33634 4.99855 -2.07008 0.113631 -7.27583 -0.034931 0.375184 -0.328614 31.9575 2.33634 4.99855 -2.07007 0.1136 -7.2758 -0.0348988 0.375009 -0.328433 
26.982 1 273 34.3007 4.73219 4.81054 0.03178 -7.57964 0.137075 -0.547139 0.207192 -0.254142 -0.0739564 -2.05606 -4.24713 -0.0177686 -0.338838 -0.687917 -0.000165245 -8.09918e-05 -0.000119563 34.3007 4.72456 4.81065 -0.0660804 -7.54259 0.0916265 -0.547328 0.207222 -0.254193 34.3007 4.72456 4.81065 -0.0660131 -7.5426 0.0916446 -0.546951 0.207162 -0.254092 
26.982 1 36 34.0332 2.88114 2.85998 3.53598 0.126117 0.409089 0.236523 -0.184407 -0.121347 -1.68624 -17.7669 -22.6566 -0.272322 -2.55028 -3.39386 0.000317597 -0.000765343 -0.000329441 34.0366 2.88122 2.86036 3.57827 0.0931359 0.387388 0.236558 -0.184463 -0.12137 34.0366 2.88122 2.86036 3.57826 0.0931561 0.387396 0.236489 -0.18435 -0.121323 
26.982 1 31 31.8485 0.924693 2.65566 -0.728182 1.77894 -4.36022 0.230405 0.313267 0.029879 -1.94423 -20.3677 -21.1365 -0.0527584 -2.51475 -3.07946 -2.22962e-05 -0.000882737 -0.000341016 31.8477 0.926417 2.65126 -0.686979 1.83496 -4.35488 0.230447 0.313307 0.0298575 31.8477 0.926417 2.65126 -0.686994 1.83495 -4.35488 0.230363 0.313229 0.0299001 
26.982 1 423 22.5878 0.714783 10.4913 2.4041 0.246598 -0.889708 0.16147 0.237265 -0.385538 1.68023 -5.5419 -15.1295 0.079827 -1.01275 -2.1924 0.000237207 -0.000973734 -0.000294414 22.5902 0.714973 10.4904 2.43297 0.289031 -0.958649 0.161463 0.237322 -0.385583 22.5902 0.714973 10.4904 2.43297 0.28901 -0.958633 0.161478 0.237208 -0.385494 
26.982 1 10 8.65829 2.14253 0.418095 4.87295 2.75841 -0.537792 0.422716 0.666972 0.273034 0.127741 -16.7273 -29.6934 0.0496364 -2.27127 -3.67032 -0.000138188 -0.000447108 -0.000508415 8.66326 2.14524 0.417527 4.94854 2.87768 -0.488959 0.422757 0.667094 0.273115 8.66326 2.14524 0.417527 4.94853 2.87764 -0.488988 0.422677 0.666851 0.272954 
26.982 1 75 36.4423 4.64343 2.69656 -0.987957 4.54472 -1.295 0.0568133 -0.0133268 -0.844438 1.93818 -1.53074 -25.6013 -0.00444344 -0.205476 -3.5932 6.35459e-05 -0.000142984 -0.000786971 36.4412 4.64793 2.69523 -0.977791 4.54233 -1.44601 0.0568579 -0.0133478 -0.844606 36.4412 4.64793 2.69523 -0.977807 4.54234 -1.44595 0.0567689 -0.0133055 -0.84427 
26.982 1 234 36.5228 2.85928 4.61301 1.10103 4.38798 4.256 0.0469828 -0.690617 0.166678 0.277868 -13.5344 -7.87017 -0.0447626 -2.03672 -1.26821 3.72792e-05 -0.00084523 -0.000353671 36.5238 2.86362 4.61724 1.10945 4.26446 4.2858 0.0470455 -0.690819 0.166675 36.5238 2.86362 4.61724 1.10942 4.26454 4.2858 0.0469204 -0.690413 0.166681 
26.982 1 40 38.8649 2.71962 2.59216 -1.02713 0.826167 -0.0596293 -0.271352 -0.384153 0.405097 4.78008 -18.0639 -26.161 0.391192 -2.73174 -3.48272 -0.000251881 -0.000952893 -0.000381408 38.8637 2.7204 2.59206 -1.07567 0.757464 0.0128226 -0.271469 -0.38425 0.405219 38.8637 2.7204 2.59206 -1.07563 0.757498 0.0127789 -0.271233 -0.384057 0.404975 
26.982 1 277 38.7139 4.47485 4.72261 3.3362 -7.76929 2.84699 0.276738 0.475313 -0.192944 0.279192 -2.27029 -4.89313 0.0230499 -0.327994 -0.664518 8.07452e-05 -4.52114e-05 -8.68335e-05 38.717 4.46703 4.72543 3.38569 -7.68429 2.81249 0.276823 0.475418 -0.192922 38.717 4.46703 4.72543 3.38566 -7.68433 2.81249 0.276653 0.475208 -0.192968 
26.982 1 998 41.2611 18.1119 16.3813 -3.81347 2.2534 -1.65968 -0.264813 0.147279 0.0602328 3.38818 4.18151 -7.24585 0.334909 0.757477 -1.03983 -0.000156949 0.000270719 1.14101e-05 41.2571 18.1142 16.3796 -3.86082 2.27974 -1.64891 -0.264822 0.147295 0.0602725 41.2571 18.1142 16.3796 -3.86082 2.27973 -1.64892 -0.264804 0.147263 0.0601932 
26.982 1 2827 27.2103 20.3442 18.3657 -2.92298 1.46964 -2.18847 -0.0140572 0.19288 -0.31788 -14.7162 -12.3643 -17.2132 -1.87098 -2.0781 -2.21206 -0.000212066 0.000456136 -0.000361424 27.2073 20.3457 18.3635 -2.92548 1.50414 -2.24533 -0.014022 0.192941 -0.317966 27.2073 20.3457 18.3635 -2.9255 1.50412 -2.2453 -0.0140928 0.192819 -0.317794 
26.982 1 4 -3.32935 2.6615 2.70041 -3.0884 2.04307 2.64267 0.0135397 0.539782 -0.483467 -15.2139 -16.7932 -19.9118 -2.14871 -2.19482 -2.66267 -0.000327036 -0.000264402 -0.000359112 -3.33223 2.66349 2.70303 -3.08596 2.1396 2.55622 0.0136191 0.539864 -0.483498 -3.33223 2.66349 2.70303 -3.08599 2.13957 2.55623 0.0134572 0.539701 -0.483437 
26.982 1 241 43.4695 4.645 4.61503 -1.64407 -0.892075 -4.77693 -0.100123 0.0979788 -0.0285897 -10.9242 -11.1218 -13.4303 -1.27922 -1.30422 -1.67656 3.19141e-05 -0.000106467 -0.000221146 43.4677 4.64406 4.61023 -1.66197 -0.874548 -4.78204 -0.100108 0.0980322 -0.028592 43.4677 4.64406 4.61023 -1.66198 -0.874567 -4.78204 -0.100138 0.0979256 -0.0285877 
26.982 1 79 41.007 4.53151 2.65612 -1.29871 -1.12159 -0.281236 0.243027 -0.00659316 0.195439 -0.931851 -3.75075 -27.4753 0.0409388 -0.343891 -3.72858 0.000242556 0.000144798 -0.000570683 41.0055 4.53034 2.65581 -1.25525 -1.12276 -0.246278 0.243064 -0.00655276 0.195517 41.0055 4.53034 2.65581 -1.25526 -1.12277 -0.246306 0.24299 -0.00663422 0.19536 
26.982 1 238 41.1633 2.59575 4.52427 -0.50005 0.923874 0.279974 -0.113108 -0.00543231 0.335451 0.206039 -17.139 -11.6303 0.0973355 -2.35969 -1.56623 2.04181e-05 -0.000745988 -0.00030132 41.1626 2.59663 4.52453 -0.520282 0.922903 0.339968 -0.113153 -0.00543318 0.335546 41.1626 2.59663 4.52453 -0.520265 0.922903 0.339934 -0.113063 -0.00543144 0.335355 
26.982 1 995 36.5331 16.2893 18.2404 7.50825 -0.265011 0.527994 0.0341841 0.201723 0.564985 -2.71425 0.0198133 2.52013 -0.482723 -0.0133577 0.445104 -1.7442e-05 7.68065e-05 0.000118309 36.5405 16.289 18.2409 7.51436 -0.228926 0.629028 0.0341694 0.20182 0.565075 36.5405 16.289 18.2409 7.51436 -0.228961 0.628996 0.0342005 0.201626 0.564897 
26.982 1 83 -0.978747 8.3719 2.73213 -4.47936 -2.16442 2.77738 0.540402 0.0816192 -0.132922 -16.4736 -5.97921 -23.1151 -2.0428 -0.912694 -3.41853 -0.000462294 -0.000222978 -0.000810904 -0.983048 8.3697 2.73488 -4.38271 -2.14982 2.75361 0.540566 0.0816722 -0.132968 -0.983048 8.3697 2.73488 -4.38277 -2.14984 2.75362 0.540238 0.0815669 -0.132874 
26.982 1 242 -0.652751 6.5192 4.83789 1.29444 -6.11806 2.73988 -0.933855 -0.118645 -0.605839 -16.97 -0.945623 -10.4343 -2.21554 -0.213162 -1.41704 -0.000667544 2.00026e-06 -0.000396513 -0.651277 6.51304 4.8406 1.12744 -6.13927 2.63155 -0.934027 -0.118653 -0.605923 -0.651277 6.51304 4.8406 1.1275 -6.13927 2.63158 -0.933684 -0.118636 -0.605755 
26.982 1 44 43.6557 6.53537 2.6245 -2.23629 1.78593 -0.509625 0.0424806 -0.544393 0.318478 -4.40306 -14.6137 -23.2098 -0.877246 -1.7552 -3.21985 0.000211298 -0.000401179 -0.00102328 43.6533 6.53712 2.62395 -2.22868 1.68857 -0.45267 0.0425318 -0.544569 0.318542 43.6533 6.53712 2.62395 -2.2287 1.68863 -0.452693 0.042429 -0.544218 0.318414 
26.982 1 281 43.6577 8.33881 4.53129 4.41521 1.85177 -0.65531 -0.244927 -0.00338662 0.412626 -11.1999 -10.8848 -13.7406 -1.54681 -1.48133 -1.90921 -6.45289e-05 -0.000111905 -0.000118763 43.662 8.34063 4.5306 4.3714 1.85115 -0.581512 -0.245012 -0.00344458 0.41275 43.662 8.34063 4.5306 4.37143 1.85117 -0.581556 -0.244843 -0.0033277 0.412504 
26.982 1 48 1.45335 6.73703 2.95916 -1.70955 -2.59153 -1.17125 -0.00185677 -0.157704 -0.0543365 -4.39133 -1.42038 -22.1074 -0.57162 -0.119938 -3.27703 -0.000140802 -7.84984e-05 -0.000885136 1.45181 6.7344 2.95796 -1.70988 -2.61974 -1.18096 -0.00183696 -0.157755 -0.0543399 1.45181 6.7344 2.95796 -1.70989 -2.61972 -1.18096 -0.00187536 -0.157652 -0.0543318 
26.982 1 285 1.45755 8.84176 4.67723 -2.10581 1.30867 1.63395 -0.337552 0.0590939 0.0620664 -1.9908 -0.308797 -3.4485 -0.229554 -0.0423793 -0.545876 -0.000104381 5.82358e-05 -0.00012965 1.45561 8.84304 4.67883 -2.16617 1.31925 1.64505 -0.337602 0.0591598 0.0621049 1.45561 8.84304 4.67883 -2.16616 1.31922 1.64504 -0.337503 0.059028 0.062028 
26.982 1 87 3.75742 8.44729 2.49276 5.0311 -4.56468 -1.24238 0.351796 -0.278154 0.214293 -0.231479 -0.271251 -20.1079 -0.065514 0.00758582 -3.04921 -4.48409e-05 0.00018534 -0.000667202 3.7626 8.44269 2.49149 5.09403 -4.61442 -1.20405 0.351956 -0.278217 0.21437 3.7626 8.44269 2.49149 5.09397 -4.6144 -1.20408 0.351635 -0.278092 0.214216 
26.982 1 246 3.59736 7.00074 4.80222 -7.63926 4.02981 1.70106 0.461905 -0.222691 0.348427 -0.0858418 -0.228312 -3.04693 -0.0120137 -0.0348138 -0.490196 0.000186494 -9.01168e-05 -1.59606e-05 3.58987 7.00473 4.80389 -7.55664 3.98998 1.76337 0.46211 -0.222776 0.348503 3.58987 7.00473 4.80389 -7.55671 3.99001 1.76335 0.4617 -0.222607 0.348349 
26.982 1 88 1.56005 10.168 2.20289 6.37919 0.286311 -3.34481 -0.309314 0.240478 0.725073 -4.47191 -0.901585 -20.8077 -0.422351 -0.0900386 -3.11168 -0.000104434 0.00016867 -0.000950069 1.5666 10.1682 2.19951 6.32387 0.329326 -3.21514 -0.309402 0.240583 0.72524 1.5666 10.1682 2.19951 6.3239 0.329289 -3.2152 -0.309228 0.240372 0.724906 
26.982 1 235 36.8016 0.820254 6.69086 5.91561 -2.78686 -0.189129 -0.362247 0.0928153 0.345855 -1.11544 -19.8528 -11.562 -0.134314 -2.12399 -1.67167 -2.43408e-05 -0.00094479 -0.000391159 36.8074 0.817413 6.69065 5.85083 -2.77026 -0.127275 -0.362308 0.0928269 0.345948 36.8074 0.817413 6.69065 5.85085 -2.77027 -0.127308 -0.362187 0.0928049 0.345762 
26.982 1 289 6.34419 8.21785 4.59104 -0.585787 -2.98594 -2.08214 -0.202856 0.412734 0.0944244 0.168448 0.0340841 -3.04321 0.0151885 0.00258113 -0.472785 -7.84425e-05 1.64478e-05 -6.72246e-05 6.34373 8.21483 4.58893 -0.622069 -2.91215 -2.06525 -0.202921 0.412749 0.0944185 6.34373 8.21483 4.58893 -0.622046 -2.91215 -2.06525 -0.202793 0.412719 0.0944297 
26.982 1 52 6.47471 6.53106 2.63601 7.75283 -0.390197 -5.66623 -0.0943054 -0.345724 -0.468129 0.234871 -0.123566 -20.2064 0.0647134 -0.125273 -3.1015 -0.000127041 -0.00026795 -0.00047954 6.48258 6.53063 2.63031 7.73596 -0.452014 -5.74993 -0.0943648 -0.345737 -0.468113 6.48258 6.53063 2.63031 7.73598 -0.452009 -5.74993 -0.0942477 -0.345713 -0.468146 
26.982 1 91 8.7008 8.61926 2.84705 4.23135 0.287923 0.733342 -0.149657 0.0998075 0.199814 2.01735 1.31764 -23.6143 0.169019 0.0157805 -3.32038 7.06244e-05 3.10073e-05 -0.000317332 8.70513 8.61952 2.84775 4.20458 0.305773 0.769075 -0.149747 0.0998315 0.199849 8.70513 8.61952 2.84775 4.20461 0.305764 0.769062 -0.149567 0.0997844 0.199779 
26.982 1 250 8.76128 6.21095 4.38226 0.061189 2.10751 0.0607066 0.139901 0.0361394 -0.131624 0.154883 0.0448065 -3.06434 0.0144907 -0.0177525 -0.514232 -1.64865e-05 -1.59034e-05 -0.000119287 8.76144 6.21302 4.38229 0.0862018 2.11397 0.0371658 0.139895 0.0361446 -0.131662 8.76144 6.21302 4.38229 0.0862042 2.11397 0.0371795 0.139908 0.0361344 -0.131586 
26.982 1 92 6.14787 10.7508 3.04937 5.81407 3.76917 0.705449 0.364691 -0.539328 0.191236 1.82781 -0.319078 -20.8495 0.115024 -0.0233291 -3.00843 -7.03015e-05 -9.29025e-05 -0.000327863 6.1538 10.7546 3.05004 5.8793 3.67271 0.739649 0.364824 -0.539453 0.191277 6.1538 10.7546 3.05004 5.87926 3.67276 0.739634 0.364559 -0.539203 0.191195 
26.982 1 290 8.67336 10.6402 4.90784 0.699238 -4.04944 -4.07085 0.0559738 -0.502527 0.111026 0.26505 0.0483239 -3.68198 0.0196389 -0.0012977 -0.51852 -9.67037e-05 -6.72761e-05 -7.84827e-05 8.67417 10.6361 4.90373 0.709228 -4.1393 -4.051 0.0558693 -0.502598 0.110987 8.67417 10.6361 4.90373 0.709265 -4.13927 -4.05099 0.0560784 -0.502456 0.111065 
26.982 1 46 4.19012 6.34527 0.78513 1.85951 -1.10035 0.0363882 -0.0730943 0.346282 0.113171 -0.752953 -0.343341 -30.04 -0.0478793 -0.0431973 -3.6947 -0.000166294 -0.000217902 -0.000971764 4.19212 6.34413 0.785132 1.84644 -1.03842 0.056623 -0.0731118 0.346376 0.113172 4.19212 6.34413 0.785132 1.84645 -1.03846 0.0566227 -0.073078 0.346187 0.11317 
26.982 1 293 10.9306 8.57334 4.8328 3.24166 0.0308833 -3.53702 0.159835 -0.365527 -0.430289 0.0777742 0.253529 -3.91598 0.0105522 0.0180982 -0.543905 9.8036e-06 -0.000121545 -0.000252491 10.934 8.57334 4.82923 3.27024 -0.0344953 -3.61398 0.159831 -0.365658 -0.430444 10.934 8.57334 4.82923 3.27024 -0.0344484 -3.61392 0.15984 -0.365396 -0.430135 
26.982 1 56 11.1344 6.58798 2.71672 4.0569 -4.58732 0.804036 0.231936 0.514807 0.070587 0.783179 2.01404 -22.8378 -0.0193536 0.0794915 -3.29416 -2.01732e-05 0.000276142 -0.000388046 11.1386 6.58335 2.71749 4.09837 -4.49527 0.816662 0.231926 0.514876 0.0706145 11.1386 6.58335 2.71749 4.09837 -4.49529 0.816652 0.231947 0.514738 0.0705597 
26.982 1 95 13.3581 8.67751 2.52783 1.57774 2.82161 -0.393576 -0.243133 0.244181 0.415206 -0.377629 1.71847 -25.9302 0.0600785 0.20835 -3.54077 1.62223e-05 0.000279919 -0.000695074 13.3598 8.6803 2.5274 1.53426 2.86527 -0.31932 -0.243173 0.244222 0.415309 13.3598 8.6803 2.5274 1.53427 2.86526 -0.319356 -0.243092 0.244141 0.415103 
26.982 1 254 13.5447 6.78806 4.64844 3.72829 1.69706 1.39657 -0.11466 0.0727369 -0.143257 0.0373941 -0.0318339 -3.58808 0.0062055 -0.00932216 -0.528585 -3.79475e-05 6.68896e-05 -0.000151639 13.5485 6.78972 4.64981 3.70778 1.71008 1.37094 -0.114704 0.0727814 -0.143328 13.5485 6.78972 4.64981 3.70779 1.71006 1.37097 -0.114616 0.0726923 -0.143185 
26.982 1 54 13.6101 6.5051 0.990827 4.34935 0.662114 2.70237 -0.256555 0.201897 -0.439001 -1.78709 3.88822 -26.0797 -0.173727 0.425803 -3.60383 7.27634e-05 0.000390093 -0.00101701 13.6145 6.50572 0.993496 4.30346 0.698226 2.62386 -0.256653 0.201974 -0.439064 13.6145 6.50572 0.993496 4.3035 0.698198 2.62389 -0.256456 0.201818 -0.43894 
26.982 1 2819 18.0704 20.4439 18.3282 2.72577 7.41364 1.92842 0.0242196 0.242378 0.587603 -11.0599 -4.08939 -17.7413 -1.44105 -0.282036 -2.31737 -3.46586e-05 0.000507418 -0.000317854 18.0732 20.4513 18.3301 2.73011 7.45698 2.03352 0.0242568 0.242428 0.587786 18.0732 20.4513 18.3301 2.73009 7.45696 2.03345 0.0241819 0.242329 0.587419 
26.982 1 60 15.9734 7.06288 2.9001 5.1516 -0.720189 3.27497 -0.365315 -0.656269 0.0079278 -0.280427 1.10428 -23.2909 0.0628617 0.123547 -3.40512 -7.90417e-06 0.000120796 -0.000645424 15.9786 7.06212 2.90334 5.08626 -0.837551 3.27639 -0.36542 -0.656395 0.00794454 15.9786 7.06212 2.90334 5.0863 -0.837506 3.27638 -0.36521 -0.656144 0.00791115 
26.982 1 297 15.7475 8.81677 4.92428 1.1289 -2.13419 1.92539 -0.199066 0.170011 -0.354812 0.00141258 0.274345 -4.05879 0.0109441 0.0315004 -0.604164 -4.72275e-05 2.04998e-05 -0.000213812 15.7487 8.81459 4.92618 1.0933 -2.10379 1.86193 -0.19912 0.170018 -0.354912 15.7487 8.81459 4.92618 1.09332 -2.10379 1.86197 -0.199013 0.170003 -0.354714 
26.982 1 99 18.0696 8.78553 2.59054 0.863481 2.63038 0.759714 -0.18066 0.267885 0.230277 -1.15216 1.92838 -24.3238 -0.182636 0.178415 -3.54497 -0.000125286 0.00011622 -0.00100747 18.0705 8.78813 2.59127 0.831161 2.67829 0.800886 -0.180761 0.26794 0.230274 18.0705 8.78813 2.59127 0.831198 2.67827 0.800887 -0.180557 0.267831 0.230281 
26.982 1 100 15.5897 10.6311 2.71989 0.563402 -1.29088 4.18365 -0.0485386 -0.246814 -0.281727 0.198707 0.807324 -27.3185 0.0676883 -0.022092 -3.75683 -7.08306e-06 -2.49203e-05 -0.000976328 15.5903 10.6297 2.72404 0.554719 -1.33502 4.13326 -0.0485675 -0.246855 -0.28179 15.5903 10.6297 2.72404 0.554729 -1.335 4.13329 -0.0485103 -0.246774 -0.281665 