ITEM: TIMESTEP
10000
ITEM: NUMBER OF ATOMS
4000
ITEM: BOX BOUNDS pp pp pp
-2.10662 42.6066
0.568568 39.9314
0.588676 39.9113
ITEM: ATOMS mass type id x y z vx vy vz fx fy fz xrad yrad zrad vxrad vyrad vzrad fxrad fyrad fzrad xub yub zub vxub vyub vzub fxub fyub fzub xlb ylb zlb vxlb vylb vzlb fxlb fylb fzlb 
26.982 1 43 0.18764 4.37979 2.56366 1.76915 -5.98672 -2.98149 -0.207767 0.161973 -0.372739 -6.40745 -4.27744 -9.97325 -1.25296 -0.729161 -1.95684 -0.000262698 -4.01979e-05 -0.00088409 0.189594 4.37382 2.56066 1.732 -5.95775 -3.04814 -0.207786 0.162026 -0.372791 0.189594 4.37382 2.56066 1.73201 -5.95777 -3.04813 -0.207748 0.16192 -0.372687 
26.982 1 202 -0.136642 2.6408 4.54216 2.25645 -0.288303 -0.701781 0.443248 -0.582554 0.20094 -6.05793 -6.04257 -6.06814 -1.20959 -1.07646 -1.2114 -0.000305417 -0.000303591 -0.00018699 -0.134198 2.64052 4.54144 2.33571 -0.392481 -0.665848 0.443309 -0.582668 0.200966 -0.134198 2.64052 4.54144 2.33569 -0.392441 -0.665858 0.443187 -0.582441 0.200914 
26.982 1 4 -2.3253 2.64735 2.50115 1.481 -1.69958 3.72886 0.546909 -0.541483 0.216 -5.9566 -7.95414 -9.10173 -1.4055 -1.49229 -1.75474 -0.00056089 -0.000165651 -0.000369049 -2.32361 2.64567 2.50486 1.57881 -1.79642 3.76749 0.547037 -0.541607 0.216014 -2.32361 2.64567 2.50486 1.57876 -1.79637 3.76748 0.54678 -0.541358 0.215987 
26.982 1 8 2.34638 2.58467 2.57442 0.140164 1.97879 -4.34455 -0.185813 0.151826 -0.384029 1.63007 -9.64579 -9.94819 0.183721 -1.85901 -2.13574 8.87863e-05 -0.000354115 -0.000541325 2.34667 2.58667 2.57005 0.106935 2.00594 -4.41322 -0.18585 0.151856 -0.38408 2.34667 2.58667 2.57005 0.106948 2.00593 -4.4132 -0.185777 0.151795 -0.383978 
26.982 1 961 -1.8465 16.3686 16.2501 -0.968693 -3.4187 5.02244 -0.193663 0.227957 0.253179 -6.07935 -3.71642 -4.60722 -1.09188 -0.721992 -0.877997 -0.000404448 -0.000160807 -0.000135203 -1.84727 16.3652 16.2551 -1.00333 -3.37795 5.06772 -0.193706 0.22793 0.253214 -1.84727 16.3652 16.2551 -1.00331 -3.37794 5.06771 -0.193619 0.227984 0.253144 
26.982 1 241 42.6683 4.47084 4.59288 -4.07345 -0.840912 0.42277 -0.430205 0.289689 -0.0418968 -5.61674 -5.76856 -6.61057 -0.979803 -0.933902 -1.13821 -5.14003e-05 -2.92702e-05 -0.000176877 42.664 4.47001 4.59328 -4.15037 -0.789099 0.415281 -0.430253 0.289788 -0.0418845 42.664 4.47001 4.59328 -4.15036 -0.789135 0.415276 -0.430157 0.289591 -0.0419088 
26.982 1 805 2.36319 0.608704 16.1041 3.19274 -4.15747 1.78104 0.19738 0.180335 0.512712 -0.8144 -3.47855 -4.4106 -0.11697 -0.609086 -0.748174 0.000179574 -0.000762471 -0.000372242 2.36654 0.604563 16.1059 3.22804 -4.12522 1.87272 0.197403 0.18036 0.512799 2.36654 0.604563 16.1059 3.22803 -4.12523 1.87269 0.197358 0.180309 0.512625 
26.982 1 3 0.119649 0.571326 2.58689 2.2274 2.86141 1.89847 -0.282214 0.362315 -0.241905 -4.77594 -11.2558 -7.42377 -0.844135 -2.10022 -1.78191 -0.000229891 -0.000606985 -0.000233378 0.12206 0.574211 2.58876 2.17692 2.9262 1.85522 -0.282305 0.362402 -0.241924 0.12206 0.574211 2.58876 2.17695 2.92617 1.85522 -0.282124 0.362229 -0.241885 
26.982 1 3025 24.8092 20.1622 20.0889 -2.44093 2.10529 2.28378 -0.414329 -0.0237485 0.140301 -6.17216 -1.74228 -10.1249 -1.11572 -0.485542 -2.08165 -0.000387038 7.35614e-05 -0.000377644 24.8067 20.1643 20.0912 -2.51502 2.10104 2.30888 -0.41442 -0.0237735 0.14036 24.8067 20.1643 20.0912 -2.51499 2.10105 2.30886 -0.414239 -0.0237231 0.140242 
26.982 1 2821 20.0914 20.211 16.44 -2.04749 4.65914 -3.6964 0.0968237 -0.0613581 -0.597901 -2.53003 3.0382 -6.82096 -0.734022 -0.0344606 -1.50528 -0.000223094 0.000233081 -0.00061907 20.0894 20.2156 16.4363 -2.03018 4.64817 -3.80332 0.0968073 -0.0613847 -0.59802 20.0894 20.2156 16.4363 -2.03017 4.64817 -3.80328 0.0968407 -0.0613317 -0.597781 
26.982 1 245 2.32004 4.53821 4.69829 -3.83245 -2.89873 1.01506 0.233654 -0.201027 -0.419803 -0.596623 -1.44842 -1.9158 -0.119854 -0.23563 -0.383556 3.24397e-05 -0.000186395 -0.000230511 2.31637 4.53533 4.69929 -3.79066 -2.93468 0.939987 0.233735 -0.201078 -0.419886 2.31637 4.53533 4.69929 -3.79069 -2.93466 0.940017 0.233573 -0.200976 -0.419721 
26.982 1 47 4.57696 4.54011 2.30693 4.4228 2.88333 -0.799972 -0.0920963 -0.0432962 0.442613 -0.851042 -2.89712 -9.36067 -0.0810501 -0.427674 -2.00755 -0.00026039 -0.000118345 -0.000767855 4.58153 4.54301 2.3061 4.40631 2.87559 -0.720818 -0.0921839 -0.0433094 0.442708 4.58153 4.54301 2.3061 4.40635 2.87559 -0.720852 -0.0920089 -0.0432828 0.442518 
26.982 1 206 4.43551 2.55337 4.36149 3.40978 -1.73786 4.09076 0.324663 0.577349 0.692355 -0.456302 -9.26064 -5.71896 -0.013475 -1.5937 -1.08129 3.9609e-05 -0.000651162 -0.000336215 4.43906 2.55165 4.36557 3.46784 -1.63461 4.21457 0.324729 0.577476 0.692481 4.43906 2.55165 4.36557 3.46782 -1.63466 4.21453 0.324597 0.577223 0.692231 
26.982 1 12 6.76427 2.46677 2.49432 3.60505 -0.890245 -5.06531 -0.15023 -0.000840347 -0.275114 -1.94213 -11.4642 -8.19498 -0.310498 -2.07322 -1.81355 -8.47689e-05 -0.00100508 -0.000547413 6.768 2.4659 2.48923 3.57819 -0.890402 -5.11451 -0.150253 -0.000874967 -0.275194 6.768 2.4659 2.48923 3.5782 -0.890389 -5.11448 -0.150206 -0.000804044 -0.275033 
26.982 1 2809 6.70498 20.0571 16.3932 -3.27608 4.63899 0.545359 0.193465 0.439076 -0.044034 -3.40293 0.409822 -7.85799 -0.659306 -0.0772968 -1.41713 -2.64984e-05 0.000648865 -0.000262529 6.70183 20.0617 16.3937 -3.24149 4.7175 0.537488 0.193474 0.439068 -0.0440249 6.70183 20.0617 16.3937 -3.24149 4.7175 0.537484 0.193458 0.439085 -0.0440428 
26.982 1 1000 38.2409 18.3079 18.1836 0.685238 1.81249 -1.20168 0.0278227 0.170378 0.315622 -1.64219 6.10154 1.0651 -0.305846 1.26691 0.264362 2.39549e-05 0.000596013 -3.85953e-05 38.2414 18.3097 18.1824 0.69022 1.84296 -1.14525 0.0278637 0.170448 0.315643 38.2414 18.3097 18.1824 0.690205 1.84294 -1.14525 0.0277808 0.170308 0.315601 
26.982 1 49 6.75992 4.42658 0.423724 -2.50656 3.9816 -0.736467 0.126674 -0.119827 -0.0592001 -0.837213 -1.67851 -13.4249 -0.126743 -0.234613 -2.53087 -0.000244197 -0.000244173 -0.00108644 6.75754 4.43058 0.422962 -2.48391 3.96016 -0.747069 0.126692 -0.1199 -0.0592958 6.75754 4.43058 0.422962 -2.48392 3.96019 -0.747034 0.126656 -0.119752 -0.059103 
26.982 1 249 6.74197 4.56917 4.27429 -5.23617 1.47508 3.07508 -0.226111 -0.202189 0.473659 -0.129825 -1.31512 -1.4372 -0.018776 -0.225926 -0.320556 -0.000135621 -0.000173074 -3.12639e-06 6.73685 4.57066 4.27735 -5.27662 1.43892 3.15979 -0.226224 -0.202226 0.47379 6.73685 4.57066 4.27735 -5.27658 1.43893 3.15974 -0.225999 -0.202152 0.473528 
26.982 1 998 40.705 18.2037 16.2673 2.51636 -0.968652 -3.9647 -0.752271 0.128976 0.0330214 1.81209 1.33219 -3.02053 0.250891 0.396038 -0.611581 5.47394e-05 3.64958e-05 -0.000329579 40.7073 18.2027 16.2633 2.38182 -0.945592 -3.95879 -0.752465 0.128975 0.033015 40.7073 18.2027 16.2633 2.38189 -0.945591 -3.95879 -0.752078 0.128978 0.0330276 
26.982 1 51 8.87175 4.38315 2.25465 0.688535 -3.07721 -0.528796 0.476521 -0.0833349 0.338796 0.168498 -1.45553 -7.67608 0.0551005 -0.236964 -1.71094 0.000133932 -0.000448884 -0.000462646 8.87254 4.38009 2.2541 0.773759 -3.09211 -0.468209 0.476651 -0.0833771 0.338862 8.87254 4.38009 2.2541 0.773712 -3.0921 -0.468232 0.476391 -0.0832917 0.33873 
26.982 1 210 8.77075 2.64817 4.48809 5.66657 -0.698302 1.95781 0.718596 -0.116127 -0.0337052 0.280384 -8.21215 -4.59425 0.138762 -1.5825 -0.910681 0.000133709 -0.000732313 -0.000312365 8.77653 2.64749 4.49003 5.79508 -0.719074 1.95179 0.718761 -0.116176 -0.0336614 8.77653 2.64749 4.49003 5.79502 -0.719056 1.95178 0.718431 -0.116077 -0.0337491 
26.982 1 2807 4.59779 20.1983 18.4695 2.91507 1.55697 1.32428 -0.0305757 -0.156267 -0.407588 -6.13183 -0.913016 -6.10927 -0.984526 -0.461864 -1.38013 -0.000222275 0.000168068 -0.000148982 4.60085 20.1999 18.4708 2.9096 1.52902 1.2514 -0.0305837 -0.156332 -0.407664 4.60085 20.1999 18.4708 2.90961 1.52904 1.25142 -0.0305682 -0.156201 -0.407512 
26.982 1 16 11.0159 2.44224 2.63718 2.24429 0.473938 4.59886 0.369228 -0.121188 -0.333421 2.19135 -11.0494 -8.86184 0.344411 -2.16043 -1.85025 -0.000109758 -0.000977636 -0.000454913 11.0182 2.44273 2.64176 2.31031 0.452263 4.53923 0.369293 -0.121231 -0.333484 11.0182 2.44273 2.64176 2.31029 0.452278 4.53925 0.369162 -0.121145 -0.33336 
26.982 1 253 11.307 4.32202 4.45581 -0.0788711 4.86363 0.480321 -0.339529 0.360187 0.280378 0.158089 -1.40173 -1.54762 0.027216 -0.276491 -0.350183 -5.84191e-05 -0.00014475 -4.0529e-05 11.307 4.3269 4.45627 -0.139589 4.92803 0.530462 -0.33959 0.360214 0.280438 11.307 4.3269 4.45627 -0.139567 4.92802 0.530441 -0.339469 0.36016 0.280319 
26.982 1 55 13.5927 4.48515 2.6431 -6.81575 1.35129 -1.16214 -0.0232051 0.0849868 -0.388004 0.152239 -3.06677 -10.2454 0.0693356 -0.45624 -2.18751 0.000115404 6.59021e-05 -0.000669141 13.5859 4.48652 2.64191 -6.8199 1.36647 -1.23154 -0.0232144 0.0849395 -0.388101 13.5859 4.48652 2.64191 -6.81989 1.36649 -1.2315 -0.0231958 0.085034 -0.387907 
26.982 1 214 13.4099 2.58329 4.42404 1.48872 1.7139 1.64672 0.417604 -0.497439 0.564947 0.846558 -9.35072 -5.23532 0.0321978 -1.746 -1.03517 -8.81672e-05 -0.000664029 -0.000207772 13.4114 2.58502 4.42566 1.56341 1.62494 1.74775 0.417708 -0.497535 0.56506 13.4114 2.58502 4.42566 1.56337 1.62498 1.74771 0.417501 -0.497343 0.564833 
26.982 1 14 13.5122 2.64317 0.722841 -3.27804 -1.99231 -0.518744 0.150109 -0.190689 -0.0821534 0.632462 -6.96198 -7.01074 0.118646 -1.30472 -1.75449 -7.09932e-05 -0.000333216 -0.000766204 13.509 2.64119 0.722295 -3.2512 -2.02641 -0.533431 0.150114 -0.190688 -0.0821412 13.509 2.64119 0.722295 -3.2512 -2.02641 -0.533435 0.150105 -0.19069 -0.0821667 
26.982 1 217 15.658 0.551124 4.45256 2.72721 -5.36064 -1.27243 0.17184 0.49508 0.347722 0.154476 -4.07108 -3.97899 0.0750897 -1.29851 -1.20373 -0.000263849 -0.000640072 -0.000474162 15.6608 0.545778 4.45127 2.75793 -5.27209 -1.21024 0.171854 0.495231 0.347826 15.6608 0.545778 4.45127 2.75793 -5.27215 -1.21027 0.171826 0.494928 0.347619 
26.982 1 999 40.4263 16.4223 18.2807 -4.69287 -0.950843 -1.52232 0.100361 -0.00213553 -0.399869 3.14899 -0.50346 -2.59014 0.601294 -0.141522 -0.451636 0.000228877 -2.49061e-05 -0.000228235 40.4214 16.4213 18.2791 -4.67491 -0.951227 -1.59382 0.100412 -0.00214955 -0.399921 40.4214 16.4213 18.2791 -4.67493 -0.951222 -1.5938 0.100311 -0.00212156 -0.399816 
26.982 1 257 15.8556 4.39325 4.47106 3.58651 0.411764 -4.67083 0.0386427 0.433176 0.304723 -0.122929 -1.6216 -1.59614 -0.00953287 -0.279882 -0.385799 -3.33887e-05 3.95909e-05 -4.10401e-05 15.8593 4.39368 4.46636 3.59342 0.489226 -4.61633 0.0386429 0.433244 0.304824 15.8593 4.39368 4.46636 3.59342 0.489202 -4.61637 0.0386428 0.433108 0.304622 
26.982 1 20 15.9625 2.52929 2.53953 1.24935 -4.82078 -3.59704 -0.432577 0.0200234 -0.0442258 -2.94591 -11.4995 -8.36328 -0.342425 -2.0891 -1.91469 -0.00028317 -8.79338e-05 -0.000432456 15.9638 2.52448 2.5359 1.17199 -4.8172 -3.60495 -0.432679 0.0200086 -0.0442199 15.9638 2.52448 2.5359 1.17202 -4.81719 -3.60495 -0.432475 0.020038 -0.044232 
26.982 1 218 18.0957 2.56424 4.34013 1.40502 1.79691 2.8169 -0.176501 -0.275137 0.425956 -0.812216 -8.88257 -3.81518 -0.0162397 -1.73426 -0.896713 -5.15355e-05 -0.000234528 3.8248e-06 18.0971 2.56605 4.34293 1.37345 1.7477 2.89308 -0.176559 -0.275211 0.426083 18.0971 2.56605 4.34293 1.37347 1.74773 2.89303 -0.176442 -0.275064 0.425829 
26.982 1 59 18.0345 4.54189 2.39524 -3.14868 1.86919 -3.52271 0.0689497 0.00249001 0.426296 0.214142 -0.784662 -8.19829 0.0194581 -0.146371 -1.94387 -0.000248556 -3.82741e-06 -0.000409651 18.0313 4.54378 2.39169 -3.13635 1.86964 -3.44647 0.0689369 0.00249847 0.426373 18.0313 4.54378 2.39169 -3.13635 1.86964 -3.4465 0.068964 0.00248234 0.426218 
26.982 1 18 18.1726 2.49327 0.545987 0.64223 -1.03102 -1.62194 -0.352873 0.420265 0.306549 -0.837258 -6.37527 -14.2449 -0.112106 -1.25607 -2.59567 6.11558e-05 -0.000195622 -0.00104631 18.1733 2.49225 0.544338 0.579125 -0.955873 -1.56713 -0.352944 0.420297 0.30657 18.1733 2.49225 0.544338 0.57915 -0.955884 -1.56713 -0.352803 0.420234 0.306528 
26.982 1 24 20.3552 2.62732 2.66757 -0.155817 -0.411913 6.35222 -0.132059 -0.719731 -0.419025 0.828253 -9.15604 -6.96799 0.17861 -1.91764 -1.65245 0.000366288 -0.000687914 -0.000633169 20.3551 2.62692 2.6739 -0.17943 -0.540625 6.27728 -0.132066 -0.719883 -0.419098 20.3551 2.62692 2.6739 -0.179427 -0.540571 6.27731 -0.132052 -0.71958 -0.418953 
26.982 1 261 20.2538 4.51234 4.45902 -0.598181 -2.78837 -1.48763 0.0891678 0.391833 0.0896625 0.0764421 -1.24545 -1.56867 0.0207726 -0.26808 -0.388711 6.26448e-05 4.55617e-05 -5.36283e-05 20.2532 4.50956 4.45751 -0.582231 -2.7183 -1.4716 0.0892074 0.391925 0.0896809 20.2532 4.50956 4.45751 -0.582246 -2.71833 -1.47161 0.0891285 0.391741 0.0896443 
26.982 1 63 22.4487 4.39943 2.65748 2.65018 0.746968 -1.10417 0.119891 0.370225 -0.0678164 0.438636 -0.548812 -10.0259 0.134478 -0.186701 -2.3051 8.64201e-05 -0.000283534 -0.000505116 22.4513 4.4002 2.65635 2.67162 0.81318 -1.1163 0.119919 0.37032 -0.067842 22.4513 4.4002 2.65635 2.67161 0.813146 -1.11629 0.119863 0.370131 -0.0677905 
26.982 1 222 22.4427 2.62409 4.70668 -1.47583 1.68949 1.52437 0.0313231 -0.270178 -0.191198 -0.488881 -7.87845 -4.2836 -0.0401325 -1.68719 -0.989052 0.000205585 -0.000586022 -0.000382915 22.4412 2.6258 4.70819 -1.47023 1.64118 1.49018 0.0313075 -0.270246 -0.191223 22.4412 2.6258 4.70819 -1.47022 1.6412 1.49019 0.0313382 -0.27011 -0.191172 
26.982 1 28 24.7233 2.52849 2.46108 2.8338 3.68852 -3.69102 0.0208807 0.0641619 -0.15422 -0.889733 -7.18001 -9.10126 -0.120733 -1.59563 -2.09661 2.47062e-05 -0.000922587 -0.000600284 24.7261 2.5322 2.45736 2.83753 3.69999 -3.7186 0.0209087 0.0641708 -0.154242 24.7261 2.5322 2.45736 2.83752 3.69999 -3.71859 0.0208519 0.0641534 -0.154198 
26.982 1 997 38.2578 16.3402 16.3137 -3.87045 -4.52867 -1.52527 -0.29022 0.137105 -0.369833 0.108429 0.0267522 -0.136652 0.0157919 0.00871895 -0.0297365 -0.000100322 2.27272e-05 -0.000137879 38.2537 16.3357 16.3122 -3.92236 -4.50415 -1.59141 -0.290334 0.137123 -0.369956 38.2537 16.3357 16.3122 -3.92232 -4.50416 -1.59137 -0.290108 0.137086 -0.369709 
26.982 1 265 24.6507 4.41796 4.37394 -0.577178 -0.390832 0.239739 0.269665 0.225122 0.295938 -0.0130381 -0.99168 -1.86157 -0.00132497 -0.241489 -0.464534 7.92485e-05 -0.00015287 -0.000105096 24.6501 4.41758 4.37416 -0.528952 -0.35058 0.292657 0.269727 0.225129 0.29597 24.6501 4.41758 4.37416 -0.528974 -0.350582 0.292646 0.269602 0.225116 0.295906 
26.982 1 67 26.9958 4.73257 2.60263 -1.22021 4.65518 -2.58039 -0.246273 -0.457672 0.0584793 0.382352 -0.237126 -11.7377 0.0765988 -0.099108 -2.68806 7.74158e-05 -0.000172085 -0.000847966 26.9945 4.73725 2.60002 -1.26425 4.57333 -2.56993 -0.24635 -0.457788 0.0584983 26.9945 4.73725 2.60002 -1.26423 4.57337 -2.56993 -0.246196 -0.457556 0.0584609 
26.982 1 226 27.073 2.4342 4.31399 3.58654 3.58464 -0.617277 -0.32329 0.592327 0.49311 0.355463 -6.17762 -2.96149 -0.000223588 -1.40877 -0.796171 -0.000286303 -0.00052319 -0.000432679 27.0765 2.4378 4.31335 3.52872 3.69055 -0.529095 -0.323359 0.592378 0.493199 27.0765 2.4378 4.31335 3.52875 3.69053 -0.529127 -0.323221 0.592278 0.493021 
26.982 1 2803 0.354718 20.3133 18.4204 -1.53636 -2.61667 2.59538 -0.592918 -0.11485 -0.0453082 -8.59107 -6.03052 -5.90509 -1.74046 -1.07073 -1.35907 -0.00043975 0.000292896 -0.000435368 0.353362 20.3106 18.423 -1.6424 -2.63719 2.58728 -0.593079 -0.114803 -0.0452998 0.353362 20.3106 18.423 -1.64234 -2.63721 2.58728 -0.592758 -0.114896 -0.0453175 
26.982 1 32 29.1985 2.78534 2.49135 -1.29472 -8.73361 -2.73763 0.19794 -0.403282 0.0267336 0.140986 -6.99411 -9.46666 0.0212953 -1.34063 -2.18238 -0.00021391 -0.000146958 -0.000833585 29.1971 2.77662 2.48858 -1.25933 -8.80573 -2.73285 0.197958 -0.40338 0.0267075 29.1971 2.77662 2.48859 -1.25934 -8.8057 -2.73284 0.197922 -0.403183 0.0267602 
26.982 1 269 29.2065 4.6779 4.54224 -3.18903 -1.82618 2.51435 -0.0385418 -0.258666 0.187744 -0.0762941 -0.933314 -1.96477 -0.0132961 -0.210694 -0.492286 -3.53364e-05 -9.84902e-05 -8.59208e-05 29.2032 4.67608 4.54474 -3.19592 -1.87245 2.54793 -0.0385487 -0.258746 0.187813 29.2032 4.67608 4.54474 -3.19592 -1.87242 2.54791 -0.0385347 -0.258586 0.187676 
26.982 1 71 31.4093 4.52611 2.5022 3.73245 -3.55366 -3.49401 -0.0392429 0.0867623 0.0874953 -0.989263 -0.31343 -9.93769 -0.257586 -0.121763 -2.45798 -0.000191179 -0.000193918 -0.00064193 31.4129 4.52256 2.49868 3.72543 -3.53815 -3.47836 -0.039232 0.086786 0.0875279 31.4129 4.52256 2.49868 3.72543 -3.53816 -3.47837 -0.0392537 0.0867389 0.0874628 
26.982 1 230 31.3964 2.47128 4.37829 -0.705527 0.126712 -3.1324 0.0280132 0.383902 0.373614 -0.704314 -6.96253 -3.64282 -0.0895825 -1.42542 -0.851468 1.53477e-06 -6.68151e-05 -0.000114539 31.3956 2.47142 4.37513 -0.700516 0.195371 -3.06558 0.0280282 0.384002 0.373683 31.3956 2.47142 4.37513 -0.700521 0.195335 -3.06561 0.027998 0.383802 0.373545 
26.982 1 273 33.6993 4.54872 4.57412 -1.21339 -1.54601 3.7374 -0.292303 0.0434158 0.0758016 0.0193541 -0.745908 -1.58675 -0.01188 -0.187655 -0.388287 -0.000119081 -6.47409e-06 -7.10175e-05 33.6979 4.54719 4.57784 -1.26567 -1.53824 3.75095 -0.29242 0.0434227 0.0757881 33.6979 4.54719 4.57784 -1.26563 -1.53824 3.75096 -0.292187 0.043409 0.0758151 
26.982 1 31 31.3345 0.589696 2.39404 5.32845 0.102677 7.13654 0.134597 0.038972 0.172162 -1.55996 -9.89127 -8.67441 -0.197244 -1.78321 -1.87425 0.000188423 -0.000713562 -0.000649187 31.3398 0.589821 2.40116 5.35251 0.109646 7.16733 0.134607 0.0389764 0.172166 31.3398 0.589821 2.40116 5.35251 0.109644 7.16732 0.134589 0.0389677 0.172158 
26.982 1 36 33.6214 2.67519 2.69103 -0.944424 1.3378 -6.08437 0.118969 -0.207263 -0.442555 -0.567776 -7.253 -9.0606 -0.130105 -1.63339 -2.08609 -0.000123316 -0.000410025 -0.000640628 33.6204 2.67654 2.68491 -0.923152 1.30073 -6.16351 0.118972 -0.207297 -0.442636 33.6204 2.67654 2.68491 -0.923153 1.30075 -6.16348 0.118966 -0.207229 -0.442473 
26.982 1 233 33.5599 0.539728 4.42669 -1.92142 -3.49051 -0.216512 -0.0456225 0.183493 -0.172738 -0.137828 -9.45156 -5.64541 0.00322988 -1.74642 -1.22379 1.37655e-05 -0.000747795 -0.000503091 33.5579 0.536251 4.42645 -1.92959 -3.45769 -0.247406 -0.0456644 0.183523 -0.172793 33.5579 0.536251 4.42645 -1.92957 -3.4577 -0.247386 -0.0455801 0.183463 -0.172682 
26.982 1 73 33.6634 4.36063 0.443806 -1.29485 1.15088 4.58053 0.311608 0.247248 0.77253 1.63483 -1.05553 -12.3311 0.120735 -0.217757 -2.28249 -5.70939e-05 -5.99761e-05 -0.00101629 33.662 4.36179 0.448369 -1.23911 1.19509 4.71869 0.31172 0.247309 0.772703 33.662 4.36179 0.448369 -1.23915 1.19507 4.71862 0.311495 0.247188 0.772358 
26.982 1 75 35.9355 4.48287 2.56264 0.791513 1.9955 -1.51852 -0.417397 0.427244 -0.176095 1.63827 -0.530824 -11.2211 0.149285 -0.191264 -2.29115 -6.62388e-05 0.000280285 -0.000553585 35.9362 4.48488 2.5611 0.716866 2.07192 -1.55002 -0.417496 0.427373 -0.1762 35.9362 4.48488 2.5611 0.716902 2.07187 -1.54999 -0.417298 0.427114 -0.175991 
26.982 1 234 35.888 2.51146 4.58301 -0.734644 -2.38733 0.690139 -0.121526 0.139982 -0.098558 0.347815 -5.30772 -2.85174 -0.00239083 -1.23979 -0.741797 -6.17989e-06 -0.000179182 -0.000120928 35.8872 2.50909 4.58369 -0.756377 -2.36229 0.672515 -0.12155 0.140008 -0.0985697 35.8872 2.50909 4.58369 -0.756368 -2.3623 0.67252 -0.1215 0.139955 -0.0985451 
26.982 1 77 38.1929 4.55276 0.547666 0.175174 5.09842 4.30861 -0.253189 0.152665 0.240886 -0.187749 -0.69296 -4.29011 -0.0300636 -0.115816 -1.4274 0.000278059 0.000105541 -0.00100952 38.1929 4.55787 0.551956 0.129893 5.12572 4.35169 -0.253252 0.152688 0.240902 38.1929 4.55787 0.551956 0.129916 5.12571 4.35168 -0.253126 0.152643 0.240871 
26.982 1 277 37.9516 4.56231 4.54084 -3.88637 -0.719922 0.00895529 0.497743 -0.315539 0.173042 0.160186 -0.956537 -2.20677 0.017004 -0.196314 -0.430008 0.000169243 -8.5268e-05 -0.000108171 37.9475 4.5616 4.54083 -3.79735 -0.776349 0.0398947 0.497879 -0.315596 0.173042 37.9475 4.5616 4.54083 -3.7974 -0.776329 0.0398946 0.497607 -0.315483 0.173042 
26.982 1 34 35.9497 2.50164 0.737371 -4.08235 -4.56684 0.913071 -0.340152 0.285374 -1.04891 1.26885 -3.37795 -11.7306 0.0942817 -1.04748 -2.22261 -4.27918e-05 -0.000359712 -0.00115159 35.9455 2.49708 0.738262 -4.14318 -4.5158 0.725487 -0.340217 0.285423 -1.04915 35.9455 2.49708 0.738262 -4.14316 -4.51582 0.725573 -0.340086 0.285324 -1.04867 
26.982 1 40 37.9041 2.59494 2.56913 -1.18893 -0.349749 -3.65767 0.940361 0.0472464 0.0800766 3.02109 -7.17056 -11.9341 0.253973 -1.59092 -2.27101 0.000672284 -0.000439387 -0.000563523 37.9028 2.59461 2.56544 -1.02076 -0.341291 -3.64336 0.940608 0.0473044 0.0800794 37.9028 2.59461 2.56544 -1.02085 -0.341312 -3.64336 0.940114 0.0471882 0.0800749 
26.982 1 237 38.0217 0.662181 4.48748 1.61355 -1.32481 1.10083 0.370099 0.240941 0.362302 1.51354 -8.86713 -6.92862 0.143692 -1.82491 -1.4701 0.000294699 -0.000705031 -0.000515522 38.0231 0.660874 4.48856 1.67974 -1.28172 1.16563 0.370202 0.241009 0.362409 38.0231 0.660874 4.48856 1.6797 -1.28174 1.16559 0.369995 0.240874 0.362197 
26.982 1 79 40.4166 4.57218 2.76392 4.93036 -0.826709 7.52183 -0.362989 -0.246656 -0.38192 -1.03963 -2.22745 -12.094 -0.0824685 -0.193451 -2.38048 4.36491e-05 -0.000177285 -0.000835193 40.4213 4.57137 2.77142 4.86544 -0.870817 7.45354 -0.363079 -0.246695 -0.381969 40.4213 4.57137 2.77142 4.86547 -0.870803 7.45356 -0.362901 -0.246618 -0.381871 
26.982 1 238 40.4236 2.54622 4.63615 -2.8615 -0.00309671 4.6445 -0.530194 0.30821 -0.200196 -0.0514596 -7.60144 -5.28736 0.00358839 -1.47518 -0.975269 5.91035e-05 -0.000502033 -0.000509286 40.4206 2.54624 4.64078 -2.95633 0.0520243 4.6087 -0.530337 0.30829 -0.200264 40.4206 2.54624 4.64078 -2.95628 0.0519959 4.60872 -0.530053 0.308131 -0.200127 
26.982 1 637 38.2114 0.602145 12.3147 -0.0710204 -5.23068 3.0678 0.103949 -0.36243 -0.00319524 0.0788135 -6.28947 -5.56751 -0.0445895 -1.31587 -1.21603 -0.00015461 -0.000765147 -0.000516738 38.2112 0.59693 12.3178 -0.0524238 -5.29549 3.06722 0.10401 -0.362496 -0.00321893 38.2112 0.59693 12.3178 -0.0524456 -5.29547 3.06723 0.103888 -0.362364 -0.00317157 
26.982 1 83 0.0225252 8.38324 2.41643 1.37128 -4.59814 -3.50344 -0.0610564 -0.304703 0.726814 -7.65685 -2.34243 -9.75462 -1.4752 -0.507329 -2.00158 -0.000263905 -0.000387838 -0.000219154 0.0240826 8.37865 2.4129 1.36035 -4.65264 -3.37346 -0.0611017 -0.30477 0.726963 0.0240826 8.37865 2.4129 1.36037 -4.65261 -3.37351 -0.0610113 -0.304636 0.726666 
26.982 1 242 0.194941 6.27986 4.42631 6.39055 2.75004 0.755315 -0.382195 0.603011 0.254831 -7.77059 0.00503966 -4.73087 -1.43271 -0.128973 -0.891425 -0.000517383 6.37972e-05 -0.000131225 0.20152 6.28263 4.42705 6.3222 2.85788 0.800884 -0.382307 0.603186 0.254866 0.20152 6.28263 4.42705 6.32224 2.85782 0.800872 -0.382085 0.602836 0.254795 
26.982 1 84 42.6088 10.6391 2.67684 1.23919 1.72746 -1.25809 -0.0527801 -0.377795 -0.489505 -8.18922 -2.70747 -12.0381 -1.73738 -0.560239 -2.24196 0.000147716 -0.000520868 -0.000506384 42.6098 10.6408 2.67556 1.22976 1.6599 -1.34563 -0.0527595 -0.377883 -0.489593 42.6098 10.6408 2.67556 1.22975 1.65993 -1.3456 -0.0528011 -0.377706 -0.489416 
26.982 1 281 42.5377 8.6245 4.50936 -0.962802 -1.53811 0.296486 -0.0595648 -0.74652 -0.319191 -4.51003 -4.55966 -5.69606 -1.14125 -1.05311 -1.32378 3.24961e-05 -0.000230542 -0.000107276 42.5365 8.62297 4.50964 -0.973448 -1.67161 0.23941 -0.0595402 -0.746705 -0.319221 42.5365 8.62297 4.50964 -0.973457 -1.67155 0.239421 -0.0595894 -0.746336 -0.319161 
26.982 1 44 -2.21627 6.46014 2.54403 -0.412043 2.69342 -4.2439 0.258245 0.104536 0.304046 -0.704676 -7.15673 -10.1201 -0.50565 -1.23352 -2.04738 -0.000584769 -0.000310611 -0.000122159 -2.21648 6.46285 2.53976 -0.365854 2.71212 -4.18952 0.258331 0.104594 0.304134 -2.21648 6.46285 2.53976 -0.365885 2.7121 -4.18955 0.258158 0.104477 0.303958 
26.982 1 439 40.2601 0.483902 10.3427 4.49124 -0.146622 0.481776 0.126952 0.12166 0.568914 2.316 -4.71142 -7.31187 0.453664 -0.79612 -1.54238 6.29801e-05 -0.000926957 -4.61701e-05 40.2644 0.483775 10.3432 4.51394 -0.124863 0.583521 0.126963 0.121699 0.56905 40.2644 0.483775 10.3432 4.51393 -0.124877 0.583472 0.126942 0.121621 0.568778 
26.982 1 285 2.29441 8.16876 4.63131 0.409903 0.741868 3.53596 -0.0813206 0.78838 0.124849 -1.01432 -0.128687 -1.45743 -0.158762 -0.0295807 -0.273333 -0.00011695 0.000143735 -6.23431e-05 2.29498 8.16952 4.63482 0.395348 0.882857 3.55828 -0.0814016 0.788543 0.124868 2.29498 8.16952 4.63482 0.395377 0.882799 3.55827 -0.0812397 0.788219 0.124831 
26.982 1 85 2.4409 8.29402 0.552169 -1.64685 -0.333102 -1.69872 -0.31577 0.42347 0.628054 -0.58714 0.201082 -12.0903 -0.16499 -0.145525 -2.85068 0.00018835 -0.00020134 -0.00104155 2.43941 8.2937 0.550443 -1.70333 -0.257383 -1.58641 -0.315864 0.423493 0.628155 2.43941 8.2937 0.550443 -1.70329 -0.257391 -1.58645 -0.315674 0.423446 0.627955 
26.982 1 48 2.43428 6.51332 2.65124 -2.10325 4.54032 0.460245 -0.14059 -0.588141 -0.741399 -2.13676 -0.652147 -9.37092 -0.301731 -0.16986 -1.88158 -8.18464e-05 -0.000311553 -0.000800833 2.43234 6.51788 2.65168 -2.12839 4.43514 0.327658 -0.140637 -0.588264 -0.741553 2.43234 6.51788 2.65168 -2.12838 4.43519 0.327712 -0.140543 -0.588019 -0.741246 
26.982 1 87 4.6995 8.21336 2.63867 2.15048 -1.06693 0.735135 -0.268275 0.649743 -0.523981 -0.108188 -0.0254715 -8.40622 0.0143798 -0.157108 -1.6806 0.000103728 0.000135443 -0.000916816 4.7018 8.2123 2.63939 2.1025 -0.950729 0.641436 -0.268335 0.649897 -0.524051 4.7018 8.2123 2.63939 2.10252 -0.950784 0.641461 -0.268214 0.64959 -0.523912 
26.982 1 246 4.62976 6.45881 4.55961 1.62173 0.912523 -1.85265 -0.100782 -0.681804 0.238356 -0.047845 -0.0855388 -1.17812 -0.00289759 -0.0231845 -0.273062 -1.33683e-05 -0.000163767 -9.79948e-05 4.63152 6.45974 4.55773 1.60371 0.790592 -1.81002 -0.100793 -0.681957 0.238403 4.63152 6.45974 4.55773 1.60371 0.790647 -1.81004 -0.100771 -0.681652 0.238309 
26.982 1 88 2.25376 10.1382 2.57505 -2.46976 -2.82043 0.128328 0.300329 0.121826 0.0844673 -2.46316 -0.570343 -9.08078 -0.434182 -0.00205428 -1.70056 0.000144273 -3.97517e-05 -0.000363588 2.25145 10.1354 2.57515 -2.41605 -2.79865 0.143435 0.300354 0.121827 0.0844968 2.25145 10.1354 2.57515 -2.41606 -2.79865 0.143425 0.300303 0.121826 0.0844382 
26.982 1 627 27.0516 0.708684 14.3383 -4.90215 -0.967242 -1.14 -0.339842 -0.111291 -0.0676657 -1.40471 -5.81927 -8.43348 -0.104448 -0.558969 -1.79897 -1.82427e-05 -0.000962782 -0.000158546 27.0466 0.707735 14.3372 -4.96293 -0.987137 -1.15211 -0.339906 -0.111272 -0.0677064 27.0466 0.707735 14.3372 -4.9629 -0.987144 -1.15209 -0.339777 -0.111311 -0.0676246 
26.982 1 289 6.82567 8.34507 4.34899 -0.747951 -3.53636 -3.90682 0.204345 -0.100233 0.197858 0.0885893 0.0324252 -1.2671 0.016661 -0.00499258 -0.252947 5.8389e-06 4.67122e-06 -0.000132825 6.82504 8.34154 4.34506 -0.711409 -3.55428 -3.87144 0.204375 -0.100233 0.197919 6.82504 8.34154 4.34506 -0.71142 -3.55428 -3.87146 0.204315 -0.100234 0.197797 
26.982 1 423 22.4722 0.631355 10.3736 -0.913808 0.289689 -3.49546 0.101151 0.150017 0.0739479 1.07982 -2.29338 -6.10856 0.180241 -0.250096 -1.42444 -0.000156133 -0.000979697 -0.000228668 22.4713 0.631666 10.3701 -0.895716 0.316518 -3.48224 0.101186 0.150057 0.0739703 22.4713 0.631666 10.3701 -0.895729 0.316504 -3.48225 0.101116 0.149976 0.0739247 
26.982 1 52 6.98468 6.39176 2.31703 1.13961 0.150287 0.839255 -0.386398 -0.0222458 0.460483 0.117804 0.313262 -8.19127 -0.0286045 -0.0450725 -1.78694 -0.000342681 0.000302957 -0.000615199 6.98594 6.39193 2.31785 1.07051 0.14631 0.921604 -0.386483 -0.0222403 0.460573 6.98594 6.39193 2.31785 1.07054 0.146309 0.921571 -0.386312 -0.0222505 0.460393 
26.982 1 91 9.13085 8.37227 2.60805 2.9213 0.031757 1.24652 0.0566183 0.0117154 0.00705801 1.02733 1.04687 -10.3482 0.199751 0.124124 -2.03793 -0.0001844 3.52501e-05 -0.000397204 9.13387 8.37231 2.60927 2.93143 0.0338535 1.24779 0.0566573 0.0117257 0.00708213 9.13387 8.37231 2.60927 2.93141 0.0338499 1.24778 0.0565797 0.0117052 0.0070344 
26.982 1 250 8.99096 6.24744 4.37816 5.19198 -2.91094 -0.493567 0.0614088 0.221426 0.218232 0.0707456 0.0696139 -1.15495 0.0170114 0.00360737 -0.265996 2.29843e-05 2.64599e-05 1.27698e-06 8.99626 6.24454 4.37765 5.20297 -2.87135 -0.454535 0.0614441 0.221466 0.218308 8.99626 6.24454 4.37765 5.20295 -2.87136 -0.454562 0.0613729 0.221387 0.218156 
26.982 1 290 9.15906 10.2996 4.52385 2.12075 4.72447 -0.303044 -0.369467 0.663619 -0.194115 0.132804 0.0376303 -1.62329 0.0317366 0.00669711 -0.317711 -0.00011947 0.000160531 -9.32715e-05 9.16128 10.3043 4.52352 2.05467 4.84315 -0.337753 -0.369578 0.663773 -0.194127 9.16128 10.3043 4.52352 2.05471 4.8431 -0.337748 -0.369356 0.663466 -0.194103 
26.982 1 90 9.03048 10.4261 0.6472 1.84158 0.435219 -1.78372 0.0587248 0.0804346 -0.00446093 0.884429 -0.285478 -9.55057 0.212534 -0.0481353 -2.03436 -8.10363e-05 7.8362e-05 -0.00107645 9.03243 10.4266 0.645388 1.85207 0.449609 -1.78452 0.0586926 0.0804849 -0.00447344 9.03243 10.4266 0.645388 1.85209 0.449591 -1.78452 0.058758 0.0803837 -0.00444711 
26.982 1 293 11.3171 8.54005 4.6182 -1.94579 -0.841639 1.06521 0.0388398 -0.712941 -0.985936 0.0180929 0.147922 -1.70354 0.0146823 0.0260825 -0.350766 -1.1377e-06 -0.000138281 -0.000131266 11.3153 8.53922 4.61924 -1.93884 -0.969134 0.888913 0.0388325 -0.713077 -0.986018 11.3153 8.53922 4.61924 -1.93884 -0.969086 0.888942 0.0388466 -0.712806 -0.985854 
26.982 1 56 11.2538 6.35146 2.71085 -5.28923 1.03771 2.47046 -0.0314329 0.391074 -0.215361 0.558773 1.25805 -9.68002 0.123789 0.136742 -2.05989 0.000169901 1.87138e-05 -0.000441036 11.2486 6.35251 2.71331 -5.29485 1.10764 2.43194 -0.0314523 0.391112 -0.215429 11.2486 6.35251 2.71331 -5.29484 1.10762 2.43197 -0.0314145 0.391038 -0.215293 
26.982 1 95 13.4695 8.48308 2.65337 -4.08067 2.34877 2.46884 0.155733 -0.0501609 0.0226802 -0.509369 0.883164 -11.2981 0.0265473 0.174583 -2.42273 8.04987e-05 -0.000262987 -0.000520628 13.4655 8.48545 2.65582 -4.05282 2.3398 2.47288 0.155793 -0.0501754 0.0226409 13.4655 8.48545 2.65582 -4.05284 2.3398 2.4729 0.155674 -0.050146 0.0227194 