ITEM: TIMESTEP
11000
ITEM: NUMBER OF ATOMS
4000
ITEM: BOX BOUNDS pp pp pp
-2.30986 42.8099
0.630728 39.8693
0.638781 39.8612
ITEM: ATOMS mass type id x y z vx vy vz fx fy fz xrad yrad zrad vxrad vyrad vzrad fxrad fyrad fzrad xub yub zub vxub vyub vzub fxub fyub fzub xlb ylb zlb vxlb vylb vzlb fxlb fylb fzlb 
26.982 1 43 0.312584 4.55528 2.66268 -2.46779 -3.08714 -0.898795 -0.552146 0.123818 -0.361676 -7.71776 -5.0179 -12.0689 -1.38325 -0.738117 -2.2074 -0.000539537 7.65638e-05 -0.000463725 0.310296 4.55227 2.66178 -2.56654 -3.06499 -0.963476 -0.552323 0.123861 -0.361763 0.310296 4.55227 2.66178 -2.56648 -3.06501 -0.963445 -0.551971 0.123776 -0.36159 
26.982 1 202 0.119286 2.59514 4.55457 0.349051 -1.15547 5.67545 -0.237227 -0.302336 -0.111144 -7.31734 -7.18703 -7.32929 -1.30962 -1.23141 -1.32144 -0.000301421 -0.000559021 -0.000391191 0.119816 2.59408 4.56025 0.306626 -1.20954 5.65557 -0.237281 -0.302397 -0.111207 0.119816 2.59408 4.56025 0.306645 -1.20951 5.65559 -0.237173 -0.302276 -0.11108 
26.982 1 4 -2.36981 2.6445 2.67298 -2.19029 2.33167 1.04718 0.123178 -0.506996 -0.204031 -7.47908 -9.4865 -10.9256 -1.63921 -1.58663 -1.87996 -0.000510887 -0.000264451 -0.000202007 -2.3718 2.64693 2.67403 -2.16825 2.24102 1.01069 0.123248 -0.507049 -0.204076 -2.3718 2.64693 2.67403 -2.16828 2.24103 1.0107 0.123105 -0.506943 -0.203985 
26.982 1 245 2.31952 4.63368 4.68722 -1.63537 1.04749 3.22066 -0.00862098 0.14414 -0.197287 -0.72393 -1.70499 -2.33049 -0.137407 -0.27809 -0.436176 -7.48888e-05 -6.4111e-05 -9.35678e-05 2.31805 4.63482 4.69045 -1.63691 1.07326 3.18539 -0.00864598 0.144164 -0.197308 2.31805 4.63482 4.69045 -1.6369 1.07325 3.18539 -0.008595 0.144116 -0.197265 
26.982 1 2 -0.0793242 2.66442 0.627914 1.79867 -5.96315 3.59984 -0.0157579 -0.256742 0.0477673 -5.13588 -7.62099 -13.3765 -0.859309 -1.47485 -2.41285 -0.000298264 -0.000421235 -0.000651377 -0.0773434 2.65855 0.631519 1.79585 -6.00907 3.60839 -0.0157587 -0.256819 0.0478084 -0.0773434 2.65855 0.631519 1.79585 -6.00905 3.60838 -0.0157567 -0.256665 0.0477249 
26.982 1 8 2.28558 2.51676 2.61413 0.771924 -0.239215 3.54839 -0.0649396 0.0982781 -0.477334 1.8344 -11.5871 -12.1848 0.210231 -2.06361 -2.32849 -6.14332e-05 -0.000737801 -0.000385288 2.28651 2.51661 2.61768 0.760309 -0.22165 3.46302 -0.0649638 0.0982375 -0.477445 2.28651 2.51661 2.61768 0.760318 -0.221636 3.46306 -0.0649144 0.0983187 -0.477223 
26.982 1 7 4.38699 0.540465 2.56591 -3.67817 -3.28462 -1.23627 0.306002 0.173477 -0.271754 -1.21084 -1.67941 -12.7081 -0.274663 -0.714695 -2.32751 -0.000130759 -0.000723524 -0.000562928 4.38345 0.537286 2.56467 -3.62345 -3.2536 -1.28487 0.306037 0.173499 -0.27182 4.38345 0.537286 2.56467 -3.62346 -3.25361 -1.28484 0.305969 0.173457 -0.27169 
26.982 1 47 4.45568 4.70866 2.50992 1.24036 -1.05578 0.411608 0.0435977 -0.439851 0.436819 -0.951925 -3.35739 -11.5146 -0.087071 -0.505442 -2.28694 0.000148771 -0.000329847 -0.000553446 4.45707 4.70769 2.51033 1.24816 -1.13444 0.489718 0.0435868 -0.439955 0.436865 4.45707 4.70769 2.51033 1.24816 -1.13441 0.489702 0.0436091 -0.439747 0.436774 
26.982 1 206 4.5598 2.69775 4.38963 1.02051 -2.53281 1.22478 -0.154708 -0.444496 0.181519 -0.474453 -10.9726 -6.86977 -0.0390739 -1.79836 -1.20249 -0.000177544 -0.000393227 -0.000156741 4.56096 2.69532 4.39086 0.99284 -2.6123 1.25725 -0.154737 -0.444595 0.18156 4.56096 2.69532 4.39086 0.992851 -2.61226 1.25723 -0.15468 -0.444395 0.18148 
26.982 1 209 6.64355 0.656146 4.54742 -3.96267 -4.99115 -0.545921 -0.107515 -0.198053 -0.364589 -0.561619 -10.6822 -9.74908 -0.00205798 -2.08749 -1.80657 0.00012479 -0.000676458 -0.000666457 6.63971 0.651257 4.54688 -3.9819 -5.02656 -0.611129 -0.107563 -0.198066 -0.364709 6.63971 0.651257 4.54688 -3.98188 -5.02656 -0.611087 -0.107466 -0.198041 -0.36447 
26.982 1 45 2.27022 4.41536 0.560673 0.380724 -1.2407 0.90267 -0.236151 0.479577 0.251488 -0.607438 -2.46933 -12.0723 -0.0928294 -0.369402 -2.43479 -3.60937e-06 -5.60725e-05 -0.000997138 2.27076 4.41421 0.561579 0.338481 -1.15494 0.947641 -0.236264 0.479665 0.251521 2.27076 4.41421 0.561579 0.338522 -1.15497 0.947629 -0.236038 0.479488 0.251454 
26.982 1 12 6.62982 2.70936 2.52949 0.304602 0.659329 -2.21466 0.344717 -0.140315 -0.100346 -2.25605 -13.6937 -10.1222 -0.3155 -2.33181 -2.06936 5.06091e-05 -0.000358953 -0.000805756 6.63025 2.71011 2.52727 0.366252 0.634229 -2.2326 0.344801 -0.140383 -0.100353 6.63025 2.71011 2.52727 0.366221 0.634253 -2.2326 0.344632 -0.140248 -0.100339 
26.982 1 249 6.78072 4.65008 4.61126 -0.847598 2.59292 -1.43614 0.30553 -0.277468 -0.144956 -0.15092 -1.5661 -1.78248 -0.0208066 -0.266121 -0.373419 0.000119654 -8.18373e-05 -0.000186183 6.77999 4.65276 4.60982 -0.79295 2.5433 -1.46207 0.30564 -0.277516 -0.145025 6.77999 4.65276 4.60982 -0.79299 2.54332 -1.46204 0.30542 -0.277419 -0.144887 
26.982 1 51 8.98003 4.59634 2.44283 -3.61677 -1.44711 -2.8811 -0.141554 -0.367692 0.676833 0.213697 -1.74506 -9.48292 0.0212593 -0.299454 -1.91633 -0.000201274 5.57974e-05 -0.000466674 8.97652 4.59497 2.43995 -3.64209 -1.51287 -2.76006 -0.141575 -0.367799 0.677007 8.97652 4.59497 2.43995 -3.64208 -1.51283 -2.76012 -0.141533 -0.367585 0.676659 
26.982 1 210 8.90158 2.47384 4.58836 0.486244 2.96764 -5.57394 0.313385 0.433924 -0.178309 0.424063 -9.92642 -5.57778 0.164976 -1.82603 -1.05258 0.000276697 -0.000420986 -0.000380813 8.90217 2.47691 4.58278 0.542293 3.04525 -5.60583 0.313477 0.434042 -0.178361 8.90217 2.47691 4.58278 0.54226 3.04521 -5.60581 0.313294 0.433806 -0.178258 
26.982 1 253 11.3005 4.50688 4.67118 -2.5685 -6.48051 -9.13895 -0.177664 -0.101588 -0.0224144 0.185181 -1.70456 -1.91313 0.0242208 -0.324901 -0.380153 -0.00010943 -0.000160116 -3.55462e-05 11.298 4.50049 4.66204 -2.60028 -6.49868 -9.14296 -0.177751 -0.101659 -0.022402 11.298 4.50049 4.66204 -2.60025 -6.49866 -9.14296 -0.177578 -0.101518 -0.0224267 
26.982 1 10 8.88021 2.66537 0.516683 0.41084 -3.44313 -0.119579 -0.00949637 -0.44428 0.197681 0.0815589 -8.97723 -16.3128 0.0188797 -1.59619 -2.95269 -0.000399357 -0.000340862 -0.000738921 8.88072 2.66203 0.51657 0.409134 -3.52258 -0.0842236 -0.00954178 -0.444371 0.197741 8.88072 2.66203 0.51657 0.409151 -3.52254 -0.0842449 -0.0094513 -0.44419 0.197622 
26.982 1 16 11.1989 2.66318 2.57989 -0.239484 0.732379 -0.934839 -0.157908 -0.0190943 0.205703 2.50183 -13.3744 -10.7735 0.275658 -2.45342 -1.94075 -0.000236293 -0.000515155 5.39166e-05 11.1988 2.66401 2.57896 -0.267727 0.728965 -0.898046 -0.15796 -0.0190901 0.20578 11.1988 2.66401 2.57896 -0.267708 0.728964 -0.898074 -0.157857 -0.0190987 0.205626 
26.982 1 55 13.3628 4.58342 2.70828 -5.55904 0.926299 1.06916 0.181032 0.037065 -0.410636 0.244101 -3.51444 -12.5344 0.0974129 -0.450574 -2.35802 3.26792e-05 -1.40265e-05 -0.000309568 13.3573 4.58443 2.70936 -5.52666 0.93293 0.995723 0.181076 0.0370861 -0.410755 13.3573 4.58443 2.70936 -5.52668 0.932922 0.995765 0.180988 0.037044 -0.410517 
26.982 1 214 13.6037 2.58229 4.56895 -0.918214 -6.7888 -5.49222 -0.398334 -0.052825 0.229333 0.850746 -11.2001 -6.32289 -0.00459332 -1.94875 -1.11881 -0.000122079 -0.000477641 -2.98293e-05 13.6028 2.57559 4.56345 -0.989454 -6.79825 -5.45121 -0.398446 -0.0528898 0.229365 13.6028 2.57559 4.56345 -0.989414 -6.79823 -5.45122 -0.398222 -0.0527606 0.229302 
26.982 1 14 13.4601 2.52189 0.651207 -1.15483 3.98109 0.945031 0.0810688 0.438886 0.061266 0.747883 -8.32926 -8.91674 0.133633 -1.43133 -2.07811 0.000182732 -0.000261142 -0.000949393 13.459 2.52597 0.652159 -1.14033 4.05958 0.955984 0.0810888 0.438989 0.0612616 13.459 2.52597 0.652159 -1.14034 4.05954 0.955986 0.0810494 0.438783 0.0612701 
26.982 1 20 15.615 2.50433 2.66839 2.73304 -1.17165 4.42025 0.26861 0.173318 0.186509 -3.31996 -13.6382 -10.3532 -0.381771 -2.23426 -2.04651 0.000124368 -0.000555058 -0.000257201 15.6178 2.50326 2.67282 2.78107 -1.14064 4.4536 0.268642 0.173407 0.18655 15.6178 2.50326 2.67282 2.78106 -1.14067 4.45359 0.268578 0.17323 0.186468 
26.982 1 15 13.4178 0.682116 2.70638 1.00583 0.860694 -3.56013 0.0528607 -0.405889 -0.183039 -0.699646 -5.6242 -13.7401 -0.170912 -1.30506 -2.25862 7.59976e-05 -0.00103873 -5.17257e-05 13.4188 0.683087 2.70282 1.01528 0.78811 -3.59285 0.0528977 -0.405962 -0.183033 13.4188 0.683087 2.70282 1.01527 0.788136 -3.59285 0.0528238 -0.405815 -0.183047 
26.982 1 53 11.12 4.49919 0.514 -2.14298 -5.5931 6.53967 0.306074 0.165177 0.27051 1.20917 -0.920443 -16.1519 0.0856266 -0.0844635 -2.80906 -0.000104639 0.000239438 -0.00100418 11.1179 4.49368 0.520548 -2.08824 -5.56357 6.58805 0.306159 0.165201 0.270583 11.1179 4.49368 0.520548 -2.08827 -5.56358 6.58802 0.30599 0.165152 0.270437 
26.982 1 13 11.1839 0.669788 0.728959 0.791667 3.30001 3.0862 -0.0174405 -0.120531 -0.303438 0.650803 -6.93642 -7.13713 0.0856131 -1.16296 -1.72148 -0.000215254 -0.000746327 -0.000477724 11.1847 0.673199 0.732052 0.788547 3.27846 3.03193 -0.0174526 -0.12052 -0.30352 11.1847 0.673199 0.732052 0.788551 3.27846 3.03196 -0.0174287 -0.120543 -0.303357 
26.982 1 257 15.6795 4.54428 4.55897 -0.20613 5.46178 -0.373327 0.252965 0.347166 -0.13533 -0.137503 -1.91037 -2.00219 -0.0134312 -0.302717 -0.420474 9.54067e-05 -2.029e-05 -8.54398e-05 15.6793 4.54983 4.5586 -0.160887 5.52386 -0.397531 0.253044 0.347223 -0.135374 15.6793 4.54983 4.5586 -0.160915 5.52384 -0.397516 0.252886 0.347109 -0.135287 
26.982 1 218 18.2728 2.45415 4.48435 -1.10712 -0.65801 -2.78578 -0.806635 0.595747 0.107481 -0.835331 -10.6587 -4.73463 -0.0458976 -1.83165 -0.944885 -0.000390256 -0.000187908 -0.000131625 18.2717 2.45359 4.48157 -1.25139 -0.55147 -2.76656 -0.806866 0.595874 0.107464 18.2717 2.45359 4.48157 -1.2513 -0.551516 -2.76656 -0.806405 0.59562 0.107497 
26.982 1 59 17.8821 4.43325 2.56318 -3.58584 -0.161743 2.73459 -0.172143 0.345006 0.227885 0.218683 -0.929246 -10.2304 0.0204763 -0.126413 -2.13963 0.000100034 0.00019322 -0.000503402 17.8785 4.43317 2.56592 -3.61663 -0.100043 2.77535 -0.17223 0.345089 0.227959 17.8785 4.43317 2.56592 -3.6166 -0.100073 2.77532 -0.172055 0.344924 0.227811 
26.982 1 18 17.9604 2.48019 0.656886 1.76304 4.66059 1.48821 0.285604 0.282549 0.148925 -0.93685 -7.66838 -17.0296 -0.0761294 -1.33876 -2.97439 0.000161528 -0.00029313 -0.000993907 17.9622 2.48495 0.658381 1.81412 4.71112 1.51484 0.285678 0.282613 0.148969 17.9622 2.48495 0.658381 1.81409 4.7111 1.51483 0.285529 0.282486 0.148882 
26.982 1 24 20.2501 2.86002 2.5304 -3.21835 -4.99233 -0.674504 0.0268051 -0.379585 -0.144484 1.06371 -11.167 -8.73781 0.254431 -2.0698 -1.89388 1.19414e-05 -0.000132457 -0.000802397 20.2469 2.85512 2.52973 -3.21356 -5.0602 -0.700351 0.0268234 -0.379614 -0.144559 20.2469 2.85512 2.52973 -3.21356 -5.06019 -0.700324 0.0267874 -0.379556 -0.144408 
26.982 1 19 17.9045 0.597797 2.70039 -4.36191 2.95333 -4.6244 0.344163 -0.0216786 -0.216348 0.318612 -11.0026 -8.30874 0.0521204 -1.85739 -1.74892 -0.000197026 -0.000991722 -0.000412447 17.9002 0.600859 2.69577 -4.30036 2.94946 -4.66309 0.344238 -0.0216851 -0.216373 17.9002 0.600859 2.69577 -4.30038 2.94946 -4.66308 0.344089 -0.0216717 -0.216323 
26.982 1 57 15.7622 4.47664 0.595583 3.63953 0.55215 -5.18346 -0.462799 -0.12591 0.144674 -1.61669 -2.00679 -15.0888 -0.133776 -0.284992 -2.29429 0.000135934 5.10797e-05 -0.000993439 15.7659 4.47728 0.590399 3.55675 0.529636 -5.15758 -0.462954 -0.125922 0.144754 15.7659 4.47728 0.590399 3.55681 0.52964 -5.15761 -0.462643 -0.125898 0.144594 
26.982 1 261 20.3274 4.47473 4.69305 -0.700014 3.48162 -6.01095 -0.0883765 0.242826 -0.480861 0.102015 -1.52215 -1.97456 0.0273552 -0.281299 -0.430327 -4.9325e-05 9.52148e-05 -0.00021403 20.3267 4.47831 4.68704 -0.715826 3.52505 -6.09694 -0.0884335 0.24293 -0.480946 20.3267 4.47831 4.68704 -0.715806 3.52502 -6.09691 -0.0883193 0.242722 -0.480775 
26.982 1 63 22.6207 4.43504 2.63786 -2.24886 -4.55893 3.80618 -0.178204 0.142644 -0.0888988 0.570861 -0.77912 -12.4296 0.111809 -0.226485 -2.51448 -0.000178947 0.000331624 -0.000590427 22.6184 4.43056 2.64167 -2.28073 -4.53341 3.79028 -0.178228 0.142745 -0.0889261 22.6184 4.43056 2.64167 -2.28072 -4.53344 3.79029 -0.178182 0.142543 -0.0888711 
26.982 1 222 22.4541 2.42523 4.51068 -2.87346 -2.28394 1.13865 0.244998 0.535001 0.615886 -0.494686 -9.66406 -5.3396 0.027063 -1.86136 -1.09552 0.000268521 -0.000219533 6.89395e-06 22.4512 2.42304 4.51182 -2.82964 -2.18826 1.24878 0.245088 0.53511 0.615997 22.4512 2.42304 4.51182 -2.82967 -2.1883 1.24874 0.244909 0.534892 0.615777 
26.982 1 23 22.5694 0.670533 2.58322 1.00865 1.20641 -1.25742 0.0588512 -0.308178 -0.340935 0.140623 -7.77195 -11.013 0.12505 -1.36922 -2.29644 -2.0376e-05 -0.00103001 -0.000280767 22.5704 0.671845 2.58196 1.01918 1.15129 -1.31839 0.0588932 -0.308273 -0.340966 22.5704 0.671845 2.58196 1.01916 1.15132 -1.31838 0.0588092 -0.308082 -0.340905 
26.982 1 221 20.3315 0.719986 4.3603 0.587384 -0.752739 -3.14664 -0.0380951 -0.59612 0.139748 -1.48824 -8.19969 -7.64107 -0.131443 -1.58796 -1.4699 -8.15864e-06 -0.000881837 -0.00039463 20.3321 0.719342 4.35715 0.580568 -0.859353 -3.12164 -0.0381217 -0.596287 0.139777 20.3321 0.719342 4.35715 0.580578 -0.859293 -3.12165 -0.0380681 -0.595953 0.139721 
26.982 1 22 22.5207 2.51664 0.562304 1.11585 2.67754 4.00472 0.248446 0.513596 0.169624 1.18448 -7.76006 -14.5628 0.242084 -1.45096 -2.39352 -0.000348118 -2.60441e-05 -0.00101452 22.5218 2.51942 0.566315 1.16028 2.76939 4.03505 0.248481 0.513752 0.169624 22.5218 2.51942 0.566315 1.16027 2.76934 4.03505 0.248411 0.51344 0.169625 
26.982 1 28 24.6444 2.57389 2.72675 0.333344 4.49672 5.78172 0.483621 -0.0630565 0.0680519 -1.00275 -8.93451 -11.2859 -0.0906965 -1.87567 -2.2262 0.000279724 -0.000468106 3.77799e-05 24.6447 2.57849 2.73254 0.419837 4.48545 5.7939 0.48375 -0.0630459 0.0680873 24.6447 2.57849 2.73254 0.41979 4.48545 5.79389 0.483492 -0.0630679 0.0680168 
26.982 1 265 24.9252 4.46396 4.80638 2.79094 0.563389 -3.80604 -0.27026 0.0764049 -0.398091 -0.0117232 -1.25655 -2.34668 0.0035968 -0.283967 -0.502924 -6.50812e-05 -5.7333e-05 -0.000114034 24.928 4.46461 4.80258 2.7426 0.577057 -3.87722 -0.270339 0.0764434 -0.398151 24.928 4.46461 4.80258 2.74263 0.577043 -3.8772 -0.270182 0.0763659 -0.398031 
26.982 1 67 27.0362 4.5928 2.74434 7.56744 -2.87026 3.8555 -0.015547 -0.172123 -0.143274 0.492571 -0.348547 -14.5791 0.148154 -0.103149 -2.97629 0.000114978 0.000108266 -0.000603027 27.0437 4.59001 2.7482 7.56466 -2.90104 3.82988 -0.0155879 -0.172131 -0.143318 27.0437 4.59001 2.7482 7.56467 -2.90104 3.82989 -0.0155057 -0.172114 -0.14323 
26.982 1 226 27.1018 2.55196 4.63532 -5.10009 1.7209 2.66685 -0.273409 0.138476 0.0838012 0.322506 -7.69046 -3.83217 -0.0626218 -1.61395 -0.936579 -0.000197896 -0.000541423 -0.000317022 27.0967 2.55378 4.63799 -5.14899 1.74567 2.68185 -0.273484 0.138519 0.0838437 27.0967 2.55378 4.63799 -5.14896 1.74565 2.68183 -0.273333 0.138432 0.0837589 
26.982 1 32 29.1697 2.68486 2.68336 -4.70638 -1.35658 -1.69961 0.299032 -0.23908 -0.373113 0.137663 -8.37391 -11.7965 0.0104578 -1.45121 -2.48735 0.000235074 -0.000518122 -0.000870202 29.165 2.6836 2.68166 -4.6529 -1.39933 -1.76634 0.299098 -0.239101 -0.373198 29.165 2.6836 2.68166 -4.65292 -1.39932 -1.76631 0.298967 -0.23906 -0.373029 
26.982 1 65 24.9057 4.4644 0.767713 0.457193 -0.94204 1.93844 -0.460829 0.163756 -0.411549 1.56921 -0.243911 -10.8932 0.240457 -0.105648 -1.70543 -1.86103e-05 0.000347628 -0.00103929 24.9061 4.46355 0.769655 0.374779 -0.912751 1.86483 -0.460938 0.163812 -0.411667 24.9061 4.46355 0.769655 0.374818 -0.912771 1.86487 -0.460721 0.163699 -0.411431 
26.982 1 229 29.3835 0.590564 4.58921 0.822521 -3.14686 -0.132506 0.0681511 -0.0340598 -0.0193552 0.21249 -8.47791 -6.22025 0.0467916 -1.6849 -1.36816 -4.60528e-05 -0.00074249 -0.00081706 29.3842 0.587523 4.58908 0.834712 -3.15295 -0.135966 0.0681867 -0.0340482 -0.0193507 29.3842 0.587523 4.58908 0.8347 -3.15295 -0.135967 0.0681165 -0.0340717 -0.019359 
26.982 1 25 24.7939 0.676618 0.730752 -1.96007 -10.4993 -0.588239 0.142509 -0.00513064 0.132555 0.62631 -6.29128 -7.02376 0.167354 -0.984993 -1.16903 0.000237023 -0.000755532 -0.000530801 24.7919 0.666215 0.730167 -1.93458 -10.5003 -0.564526 0.142555 -0.00513188 0.132629 24.7919 0.666215 0.730167 -1.9346 -10.5003 -0.564552 0.142463 -0.00512941 0.132481 
26.982 1 26 26.9428 2.62446 0.886093 1.87909 -0.79921 0.954986 0.212927 -0.204376 -0.324754 -1.28029 -5.43382 -13.3543 -0.220764 -1.05161 -2.14633 0.000459784 -0.000377724 -0.000800077 26.9446 2.62375 0.887055 1.91717 -0.835752 0.896907 0.212973 -0.204379 -0.324836 26.9446 2.62375 0.887056 1.91715 -0.835751 0.896936 0.212881 -0.204375 -0.324672 
26.982 1 269 29.4815 4.63151 4.45891 1.56045 -4.02647 5.11305 -0.155955 -0.463462 0.822107 -0.0922068 -1.15258 -2.49317 -0.0157908 -0.228302 -0.564731 1.51016e-05 -8.95966e-05 -5.37953e-05 29.483 4.62757 4.46403 1.53257 -4.10934 5.26007 -0.155948 -0.463516 0.822275 29.483 4.62757 4.46403 1.53257 -4.10932 5.26001 -0.155961 -0.463408 0.821939 
26.982 1 71 31.6095 4.5838 2.62097 0.350152 -0.698436 4.81851 0.222399 0.0182691 -0.227917 -1.27882 -0.471283 -12.5313 -0.301882 -0.183603 -2.7658 2.57364e-05 -0.00012513 -0.0010462 31.6098 4.58318 2.6258 0.389931 -0.69517 4.77774 0.222484 0.0182647 -0.227981 31.6098 4.58318 2.6258 0.389901 -0.695168 4.77777 0.222315 0.0182733 -0.227853 
26.982 1 230 31.49 2.53037 4.45014 2.27436 -0.273663 -3.03651 0.0256581 0.108364 0.0732611 -0.796123 -8.42984 -4.53763 -0.0902099 -1.52881 -0.963854 2.12717e-05 -0.000329907 -0.000447564 31.4922 2.53019 4.44711 2.27895 -0.25428 -3.02341 0.0256868 0.108407 0.0732757 31.4922 2.53019 4.44711 2.27894 -0.254295 -3.02341 0.0256291 0.108321 0.0732466 
26.982 1 273 33.7197 4.5409 4.76859 -3.22155 -3.22584 -9.25264 0.185138 -0.248288 -0.344455 0.00708681 -0.940629 -1.99393 -0.0153294 -0.20672 -0.435401 -9.34475e-06 -9.19641e-05 -0.000198841 33.7164 4.53776 4.75934 -3.18845 -3.27024 -9.31424 0.185143 -0.248322 -0.34452 33.7164 4.53776 4.75934 -3.18845 -3.27022 -9.31422 0.185133 -0.248254 -0.34439 
26.982 1 36 33.9017 2.59101 2.62635 -7.54121 3.22176 3.33139 -0.407089 0.532583 -0.01419 -0.728572 -8.96733 -11.2711 -0.197333 -1.80338 -2.35653 -0.000196651 -0.000475272 -0.000782415 33.8941 2.59433 2.62969 -7.61401 3.317 3.32886 -0.407177 0.53265 -0.0141476 33.8941 2.59433 2.62969 -7.61398 3.31697 3.32885 -0.407001 0.532516 -0.0142324 
26.982 1 233 33.6631 0.781864 4.55965 -1.98187 3.56643 0.605459 0.314275 -0.367828 0.0795209 -0.133642 -11.3359 -6.96202 0.00423955 -2.01857 -1.44189 0.000102184 -0.000739397 -0.000727743 33.661 0.785538 4.56026 -1.92566 3.50066 0.619672 0.314359 -0.367861 0.0794933 33.661 0.785538 4.56026 -1.92569 3.50067 0.619682 0.314191 -0.367797 0.0795477 
26.982 1 75 36.0425 4.50613 2.63439 2.82846 1.95852 2.57585 0.0213252 0.150901 -0.0995481 1.78309 -0.704416 -13.6024 0.119734 -0.18501 -2.46648 -0.000182227 -0.000107164 -0.000387671 36.0452 4.50817 2.63697 2.83227 1.98551 2.55805 0.0213306 0.150962 -0.0995452 36.0452 4.50817 2.63697 2.83227 1.98549 2.55805 0.0213202 0.15084 -0.099551 
26.982 1 234 36.0166 2.79501 4.69959 -0.747596 5.30086 0.448234 -0.366928 -0.842284 -0.166855 0.353745 -6.59769 -3.62646 0.0259648 -1.37344 -0.829159 3.7399e-05 -0.000651253 -0.000312078 36.0157 2.80041 4.70004 -0.813221 5.15023 0.418393 -0.367036 -0.842459 -0.166898 36.0157 2.80041 4.70004 -0.813182 5.1503 0.418409 -0.366819 -0.842108 -0.166812 
26.982 1 34 35.8412 2.68022 0.480325 0.555137 5.76787 -2.67809 0.588128 0.17234 0.625925 1.35929 -4.50715 -14.1335 0.0671288 -1.22348 -2.56444 -0.000174537 -0.000486801 -0.000745006 35.8416 2.68609 0.477646 0.660317 5.79868 -2.56616 0.588265 0.172355 0.626043 35.8416 2.68609 0.477646 0.660268 5.79868 -2.5662 0.587992 0.172324 0.625805 
26.982 1 241 42.8221 4.45411 4.5579 5.99173 4.21543 -1.43433 -0.0457357 0.399597 -0.094564 -6.59664 -6.72931 -7.78819 -0.978619 -0.986067 -1.21651 5.69531e-05 -3.51105e-05 -0.000276407 42.8279 4.45841 4.55647 5.98356 4.2869 -1.45125 -0.0456892 0.399702 -0.0946664 42.8279 4.45841 4.55647 5.98354 4.28686 -1.45121 -0.0457821 0.399491 -0.0944621 
26.982 1 77 38.1842 4.53532 0.653632 0.836472 -6.26758 -2.10921 0.139635 0.0750222 -0.162346 -0.175353 -0.803422 -5.90739 0.0474456 -0.141248 -1.81033 0.000238613 -0.000296149 -0.00100583 38.1849 4.52913 0.651527 0.861446 -6.25416 -2.13824 0.139682 0.0750222 -0.162364 38.1849 4.52913 0.651527 0.861429 -6.25416 -2.13823 0.139587 0.0750221 -0.162327 
26.982 1 277 38.3273 4.42544 4.62466 1.70126 -3.8753 5.89688 0.122311 0.815003 -0.625801 0.183676 -1.162 -2.65593 0.0263787 -0.225981 -0.463754 5.65269e-05 3.05982e-05 -0.000188827 38.3288 4.42165 4.63056 1.72314 -3.72955 5.78496 0.122369 0.815184 -0.625929 38.3288 4.42165 4.63056 1.72311 -3.72962 5.78501 0.122253 0.814823 -0.625673 
26.982 1 40 38.1966 2.68648 2.63579 -3.38335 4.20738 -0.0286551 -0.000805324 -0.641577 -0.118266 3.33638 -8.87542 -14.3147 0.340787 -1.84196 -2.47279 -7.01702e-06 -0.000867644 -0.000464934 38.193 2.69079 2.63576 -3.3835 4.09265 -0.0498077 -0.000822462 -0.641701 -0.118306 38.193 2.69079 2.63576 -3.38349 4.09269 -0.0497938 -0.000788697 -0.641454 -0.118228 
26.982 1 79 40.5392 4.54422 2.67539 1.02224 -1.11354 -0.999113 -0.0206228 0.128014 -0.567186 -1.08679 -2.45215 -14.627 -0.00867657 -0.271524 -2.66767 0.000191465 -0.000238817 -0.000687546 40.5401 4.54319 2.67439 1.01856 -1.09065 -1.10054 -0.020614 0.128049 -0.567306 40.5401 4.54319 2.67439 1.01855 -1.09066 -1.1005 -0.0206326 0.12798 -0.567067 
26.982 1 238 40.4257 2.5469 4.50745 -2.99156 -5.94045 1.35965 0.25114 -0.0720195 0.306707 -0.0174092 -9.17797 -6.33482 0.0455171 -1.67451 -1.09965 8.62413e-05 -0.000491025 -0.000147816 40.4225 2.54105 4.50881 -2.94664 -5.95333 1.4145 0.251207 -0.0720473 0.306747 40.4225 2.54105 4.50881 -2.94667 -5.95332 1.41448 0.251072 -0.0719917 0.306667 
26.982 1 39 40.4405 0.628508 2.57873 -0.513154 0.199719 -0.0259869 -0.0656663 0.0475828 0.0583266 -1.72878 -5.11941 -12.7983 -0.272532 -1.32945 -2.16465 2.03322e-05 -0.000706686 -0.000473092 40.4398 0.628816 2.57871 -0.524897 0.208231 -0.0155499 -0.0656747 0.0476068 0.0583737 40.4398 0.628816 2.57871 -0.524894 0.208223 -0.0155668 -0.0656595 0.0475589 0.0582793 
26.982 1 83 -0.0520083 8.51239 2.84757 -0.0799848 -0.0529383 -1.17553 -0.0830123 -0.191769 -0.872369 -9.17331 -2.89618 -11.8403 -1.54659 -0.573865 -2.23572 -0.000185382 -0.000133946 -0.000989317 -0.0519031 8.5124 2.84639 -0.0948411 -0.087241 -1.33153 -0.083091 -0.191855 -0.872499 -0.051903 8.5124 2.84639 -0.094813 -0.0872105 -1.33148 -0.0829339 -0.191684 -0.872238 
26.982 1 242 0.0719819 6.50255 4.52968 -1.81449 -2.10191 0.201559 -0.33313 -0.111115 0.49476 -9.28124 -0.135474 -5.65618 -1.57387 -0.162404 -0.961252 -0.00037518 -0.000143849 -0.000116937 0.0703484 6.50052 4.52988 -1.87407 -2.12178 0.290032 -0.333257 -0.111129 0.494824 0.0703484 6.50052 4.52988 -1.87403 -2.12178 0.290009 -0.333003 -0.111101 0.494696 
26.982 1 84 -2.135 10.5079 2.80138 -4.35251 5.31798 -4.73297 -0.219185 -0.270291 -0.423695 -9.92631 -3.34794 -14.3845 -1.81481 -0.67634 -2.48922 -0.000742717 -0.000124427 -0.000867945 -2.13915 10.5133 2.79665 -4.39171 5.26965 -4.80875 -0.219225 -0.270328 -0.423828 -2.13915 10.5133 2.79665 -4.39169 5.26966 -4.8087 -0.219146 -0.270255 -0.423562 
26.982 1 281 -2.2992 8.43853 4.68437 -5.16147 -2.24348 3.17938 0.162191 0.0540407 -0.121152 -5.66902 -5.63675 -7.05064 -1.21673 -1.12028 -1.41109 -0.000408436 -0.000313238 -0.000389203 -2.30416 8.43634 4.68756 -5.13246 -2.23382 3.15772 0.162238 0.0539997 -0.121152 -2.30416 8.43634 4.68756 -5.13248 -2.23381 3.15772 0.162144 0.0540819 -0.121152 
26.982 1 44 -2.45309 6.52053 2.37615 2.54 -4.32114 -1.29088 0.142378 -0.418118 0.876093 -1.32962 -8.45131 -12.2205 -0.744293 -1.34896 -2.19543 -0.000480632 -0.000204122 -0.000496944 -2.45034 6.51627 2.37486 2.56547 -4.39592 -1.1342 0.142472 -0.41824 0.876306 -2.45034 6.51627 2.37486 2.56544 -4.39588 -1.13428 0.142283 -0.417995 0.87588 
26.982 1 285 2.327 8.43401 4.58887 1.45313 1.08921 -1.67866 -0.247118 0.324537 0.414515 -1.18076 -0.161872 -1.74992 -0.172333 -0.0339509 -0.317504 -8.59365e-05 7.38524e-05 -3.93125e-05 2.32862 8.43516 4.5872 1.40893 1.14725 -1.60453 -0.247182 0.324605 0.414637 2.32862 8.43516 4.5872 1.40896 1.14723 -1.60457 -0.247053 0.324471 0.414393 
26.982 1 88 2.08776 10.4057 2.64837 1.32831 -2.04214 -0.602967 0.225008 0.0346489 -0.0729009 -2.88216 -0.586353 -10.8736 -0.418628 -0.0459968 -1.92179 1.69432e-05 -0.000220841 -0.000794016 2.08925 10.4037 2.64778 1.36854 -2.03594 -0.616002 0.225022 0.0346691 -0.0729081 2.08925 10.4037 2.64778 1.36854 -2.03595 -0.616 0.224996 0.03463 -0.0728929 
26.982 1 48 2.25523 6.66112 2.54732 -3.35117 -6.20524 -1.56526 -0.405994 -0.959687 0.336693 -2.45088 -0.849593 -11.392 -0.341222 -0.183243 -2.15005 -0.000328763 0.000123672 -0.000668765 2.25204 6.65499 2.54576 -3.42379 -6.37686 -1.50506 -0.406146 -0.959877 0.336691 2.25204 6.65499 2.54576 -3.42373 -6.37679 -1.50506 -0.405841 -0.959495 0.336696 
26.982 1 87 4.41179 8.34611 2.7014 -2.77339 -7.24887 -2.46174 0.444192 0.916792 -0.399132 -0.0803592 -0.179081 -10.2351 0.0107937 -0.13265 -1.95973 -3.19746e-05 0.00036502 -0.000631309 4.40916 8.33892 2.69894 -2.69394 -7.08491 -2.53312 0.444348 0.916982 -0.399205 4.40916 8.33892 2.69894 -2.694 -7.08498 -2.53309 0.444037 0.916602 -0.399059 
26.982 1 246 4.53372 6.58984 4.58658 3.54528 5.82883 3.07549 -0.0176461 -0.53285 0.241304 -0.0525823 -0.110787 -1.47673 -0.00461814 -0.0247439 -0.316953 -1.69393e-05 -9.02378e-05 -5.08282e-05 4.53741 6.59575 4.58966 3.54212 5.73354 3.11864 -0.0176616 -0.532945 0.241325 4.53741 6.59575 4.58966 3.54213 5.73357 3.11863 -0.0176305 -0.532755 0.241284 
26.982 1 289 6.80002 8.54798 4.56252 -2.21452 -2.93573 0.53486 0.0651424 -0.726694 -0.466436 0.10227 0.0294408 -1.54253 0.0124138 -0.0041293 -0.292891 1.65784e-05 -0.000105547 -0.000166929 6.79793 8.5451 4.56306 -2.20287 -3.06567 0.451446 0.0651593 -0.726791 -0.466535 6.79793 8.5451 4.56306 -2.20288 -3.06564 0.451481 0.0651249 -0.726597 -0.466338 
26.982 1 52 6.81346 6.44837 2.59769 4.09911 0.445677 -2.26119 -0.0679138 0.597389 0.0203243 0.0643589 0.286828 -10.0967 -0.0435677 -0.0450329 -2.02705 0.000172866 -7.29427e-05 -0.000667 6.81768 6.44889 2.59543 4.08697 0.552513 -2.25756 -0.0678859 0.597532 0.0203067 6.81768 6.44889 2.59543 4.08696 0.552462 -2.25755 -0.0679424 0.597246 0.0203424 
26.982 1 92 6.6661 10.4741 2.68215 -2.21254 -2.24922 -2.98618 -0.037613 0.30371 -0.104051 1.30146 -0.345337 -10.9097 0.168031 -0.0579414 -1.94557 -0.000160055 2.44818e-05 -0.000431629 6.66401 10.4719 2.67916 -2.21926 -2.19492 -3.0048 -0.0376196 0.303732 -0.104109 6.66401 10.4719 2.67916 -2.21926 -2.19493 -3.00478 -0.0376072 0.303687 -0.103994 
26.982 1 46 4.33663 6.52807 0.694714 2.09271 0.192116 3.08374 0.372789 0.226351 -0.830843 -0.57243 -0.0819489 -17.1046 -0.0302785 -0.0653504 -2.57798 6.84674e-05 9.77817e-05 -0.00114988 4.33887 6.52834 0.697806 2.15938 0.232591 2.93516 0.372903 0.226375 -0.831014 4.33887 6.52834 0.697806 2.15934 0.232582 2.93522 0.372675 0.226328 -0.830671 
26.982 1 91 9.13643 8.39601 2.73273 1.44316 -3.26472 0.547654 -0.515189 -0.133165 -0.241902 1.20632 1.16478 -12.4735 0.189893 0.087417 -2.23455 -2.46688e-05 -0.000193394 -0.000689749 9.13798 8.3928 2.73328 1.35101 -3.28853 0.504387 -0.515391 -0.133183 -0.241992 9.13798 8.3928 2.73328 1.35108 -3.28852 0.504419 -0.514987 -0.133147 -0.241812 
26.982 1 250 9.16185 6.40439 4.64439 4.20979 0.215221 -2.08394 -0.355264 -0.0957382 -0.141006 0.0856637 0.071857 -1.43442 0.0150168 0.000362213 -0.301585 -0.000104449 -5.5282e-05 -9.59783e-05 9.16616 6.40469 4.6423 4.14625 0.198095 -2.10915 -0.355372 -0.0957882 -0.14099 9.16616 6.40469 4.6423 4.14629 0.198112 -2.10916 -0.355157 -0.0956882 -0.141022 
26.982 1 290 9.10253 10.383 4.54425 0.411391 3.4846 2.4473 -0.326953 0.221682 -0.0144982 0.162633 0.0437673 -1.95306 0.0303255 0.00515203 -0.341494 -5.49104e-05 4.82813e-05 -4.3541e-05 9.10304 10.3865 4.54671 0.352921 3.52425 2.44471 -0.327017 0.221743 -0.0144795 9.10304 10.3865 4.54671 0.352944 3.52423 2.4447 -0.326887 0.221621 -0.0145162 
26.982 1 293 11.4676 8.3823 4.43148 -0.507294 -5.37981 -4.77713 -0.148535 0.159222 0.341792 0.0348825 0.174102 -2.06694 0.0162789 0.02395 -0.383196 -4.02865e-05 1.08338e-05 -6.9145e-05 11.4672 8.37698 4.4267 -0.533855 -5.35134 -4.71601 -0.148555 0.159236 0.341877 11.4672 8.37698 4.4267 -0.533848 -5.35134 -4.71604 -0.148514 0.159209 0.341709 
26.982 1 96 11.1935 10.4948 2.75238 -2.91223 1.84179 0.195973 0.458081 0.223323 0.077953 0.445709 -0.32753 -14.2402 0.143533 -0.0371593 -2.52733 0.000104232 -0.000125005 -0.000426846 11.1907 10.4967 2.75257 -2.8303 1.88174 0.209914 0.458196 0.223417 0.0779679 11.1907 10.4967 2.75257 -2.83034 1.8817 0.209909 0.457968 0.223231 0.0779384 
26.982 1 89 6.61254 8.62803 0.687517 2.23605 5.91323 2.27019 0.317574 -0.623489 0.378403 0.536854 0.976189 -14.5885 0.132528 -0.0556672 -2.88297 1.10344e-05 -5.57238e-05 -0.000996354 6.6149 8.63401 0.689794 2.29286 5.80174 2.33785 0.317715 -0.62359 0.378471 6.6149 8.63401 0.689794 2.29281 5.80177 2.33783 0.317431 -0.623389 0.378337 
26.982 1 56 11.1606 6.46491 2.61553 0.484942 -2.09766 0.534307 0.384466 -0.302483 -0.253885 0.70068 1.39922 -11.8271 0.126734 0.166443 -2.25475 -0.000100712 0.000144706 -0.000621911 11.1611 6.46289 2.61607 0.553701 -2.15175 0.488907 0.384563 -0.302556 -0.253922 11.1611 6.46289 2.61607 0.553666 -2.15172 0.48892 0.384371 -0.302408 -0.253849 
26.982 1 95 13.5744 8.48177 2.58093 -0.505959 -1.00194 1.15361 -0.174395 -0.100311 0.0783511 -0.484645 1.03074 -13.8094 0.00472205 0.13764 -2.5959 -0.000229285 -2.96615e-05 -0.000387349 13.5739 8.48083 2.58209 -0.537147 -1.01989 1.16762 -0.174433 -0.100346 0.0783411 13.5739 8.48083 2.58209 -0.537133 -1.01987 1.16762 -0.174357 -0.100275 0.0783614 