ITEM: TIMESTEP
4000
ITEM: NUMBER OF ATOMS
4000
ITEM: BOX BOUNDS pp pp pp
-0.887164 41.3872
0.205005 40.295
0.204095 40.2959
ITEM: ATOMS mass type id x y z vx vy vz fx fy fz xrad yrad zrad vxrad vyrad vzrad fxrad fyrad fzrad xub yub zub vxub vyub vzub fxub fyub fzub xlb ylb zlb vxlb vylb vzlb fxlb fylb fzlb 
26.982 1 3 1.11916 0.230089 2.26772 0.0628211 -8.00954 -0.647767 0.267038 0.143199 -0.0652854 -0.783843 -1.90466 -0.7745 -0.359137 -0.996523 -0.475809 -0.000412875 -0.000710649 -0.000267912 1.11941 0.222048 2.26708 0.110581 -7.98393 -0.659438 0.267121 0.143273 -0.0652766 1.11941 0.222048 2.26708 0.110552 -7.98395 -0.659441 0.266955 0.143126 -0.0652942 
26.982 1 8 3.24695 2.26206 2.09205 1.55607 3.05024 2.67974 -0.00664409 -0.28042 0.537261 0.25072 -1.65059 -1.26795 0.179026 -0.827827 -0.708649 6.13612e-05 -0.000545196 -0.000289779 3.24867 2.2651 2.09473 1.55488 3.0001 2.77582 -0.00668783 -0.280415 0.537328 3.24867 2.2651 2.09473 1.55489 3.0001 2.77579 -0.00660077 -0.280427 0.537195 
26.982 1 43 0.960996 4.1648 2.34787 0.144655 -0.669075 -1.9761 0.680212 0.029566 -0.18401 -0.847287 -0.772857 -1.76201 -0.502326 -0.332428 -0.855947 -0.000388279 -0.000301689 -2.23754e-05 0.961324 4.16411 2.3459 0.266306 -0.66379 -2.00902 0.68039 0.02956 -0.184076 0.961324 4.16411 2.3459 0.266242 -0.663787 -2.00899 0.680034 0.0295717 -0.183944 
26.982 1 202 1.07274 2.32769 4.52692 -2.82304 -3.15812 -4.63697 0.406969 -0.468569 -1.07632 -0.769446 -1.38674 -0.990192 -0.41856 -0.569785 -0.452191 -0.000521375 -0.000202062 -0.000507932 1.0701 2.3245 4.52229 -2.75026 -3.24192 -4.82945 0.407054 -0.468665 -1.07653 1.0701 2.3245 4.52229 -2.75029 -3.24188 -4.82937 0.406884 -0.468473 -1.0761 
26.982 1 245 3.24489 4.21415 4.29585 -2.6864 -0.226489 2.63222 0.0654476 -0.123807 -0.224016 -0.0750471 -0.313162 -0.302822 -0.0447436 -0.140492 -0.144112 -4.56038e-05 -5.85266e-05 -0.000133183 3.24237 4.2139 4.29849 -2.6747 -0.248629 2.59215 0.0654574 -0.123824 -0.224116 3.24237 4.2139 4.29849 -2.6747 -0.248623 2.59218 0.0654377 -0.12379 -0.223916 
26.982 1 2 1.15257 2.15199 0.243768 3.26348 2.46539 0.604083 -0.00232049 0.0504206 -0.220631 -0.779784 -0.781391 -1.65422 -0.404527 -0.447636 -0.899823 -0.000278683 -0.000443377 -0.000763598 1.15602 2.15444 0.244374 3.26307 2.47441 0.564625 -0.00229622 0.0504586 -0.220687 1.15602 2.15444 0.244374 3.26306 2.4744 0.564645 -0.00234589 0.050382 -0.220575 
26.982 1 205 3.30865 0.378779 4.29509 6.43474 1.48016 1.58234 -0.34225 -0.602094 -0.27713 -0.11577 -0.175658 -0.321372 0.0173091 -0.281511 -0.310061 0.000114674 -0.000768529 -0.000607119 3.31525 0.380239 4.29668 6.37354 1.37249 1.53278 -0.342296 -0.602209 -0.277193 3.31525 0.380239 4.29668 6.37355 1.37253 1.5328 -0.342203 -0.601978 -0.277066 
26.982 1 41 -0.853433 4.28036 0.246199 -5.89699 -1.94094 2.12876 -0.233497 -0.17892 -0.27379 -0.469363 -0.777115 -1.30372 -0.216334 -0.32093 -0.649762 -0.000532415 -0.000511618 -0.000561748 -0.859131 4.2784 0.248333 -5.93874 -1.97294 2.0798 -0.233537 -0.178966 -0.273864 -0.859131 4.2784 0.248333 -5.93873 -1.97292 2.07982 -0.233457 -0.178873 -0.273716 
26.982 1 47 5.64224 4.04562 2.24309 1.00292 2.9611 -0.652908 -0.522118 0.594056 0.148348 -0.289288 -0.539355 -1.25505 -0.0786082 -0.322994 -0.655039 7.47973e-05 -1.69286e-05 -0.000345139 5.64338 4.04856 2.24244 0.909542 3.06734 -0.626379 -0.522241 0.594182 0.148377 5.64338 4.04856 2.24244 0.909586 3.06729 -0.62639 -0.521995 0.593931 0.148318 
26.982 1 206 5.27694 2.10701 4.22478 -6.28371 0.524306 -3.67704 0.486171 0.3682 -0.13526 -0.373924 -1.67451 -0.902084 -0.0580309 -0.859403 -0.476103 0.000247157 -0.000479452 -0.000365147 5.27079 2.1075 4.2211 -6.19677 0.590148 -3.70123 0.486217 0.368253 -0.135312 5.27079 2.1075 4.2211 -6.19679 0.590129 -3.70121 0.486126 0.368148 -0.135208 
26.982 1 45 3.45259 4.23226 0.32734 -2.9983 -2.01732 -2.95112 -0.321611 0.0215734 -0.270983 -0.24662 -0.324373 -1.21198 -0.0680714 -0.225893 -0.794809 -2.92294e-05 -3.70912e-05 -0.000956794 3.44976 4.23022 0.32439 -3.05581 -2.01346 -2.99957 -0.321702 0.0215646 -0.270995 3.44976 4.23022 0.32439 -3.05578 -2.01346 -2.99957 -0.32152 0.0215818 -0.270972 
26.982 1 6 5.4877 2.11682 0.250856 -2.33779 0.559552 0.340237 -0.269717 0.241685 -0.174535 -0.522123 -0.733002 -1.4676 -0.153945 -0.379148 -0.657605 0.000164376 -0.000560486 -0.000804412 5.48551 2.11736 0.2512 -2.38604 0.60277 0.309015 -0.269819 0.241715 -0.174619 5.48551 2.11736 0.2512 -2.386 0.602759 0.309045 -0.269615 0.241654 -0.174451 
26.982 1 12 7.58147 2.18705 2.26508 -6.0754 -0.951421 -2.88103 -0.0580858 0.0436328 0.202946 -0.249021 -2.00025 -1.09374 -0.0966251 -1.10832 -0.638808 -0.000187029 -0.00062747 -0.000351405 7.57551 2.18607 2.2622 -6.08579 -0.943616 -2.84473 -0.05813 0.0436552 0.202984 7.57551 2.18607 2.2622 -6.08577 -0.943624 -2.84475 -0.0580394 0.0436111 0.202909 
26.982 1 249 7.63123 4.2237 4.27608 3.6753 1.98345 -3.49074 -0.17456 0.00206837 0.0368679 -0.0209022 -0.201316 -0.177165 -0.00580708 -0.131978 -0.10633 -3.81476e-05 -9.02908e-05 -7.02097e-05 7.63503 4.22567 4.27259 3.64408 1.98382 -3.48415 -0.174597 0.0020823 0.0368803 7.63503 4.22567 4.27259 3.6441 1.98382 -3.48415 -0.174522 0.00205456 0.0368557 
26.982 1 51 9.64223 4.1589 2.30317 -0.143188 0.343468 7.44797 0.357545 0.128396 -0.0771949 -0.017649 -0.135156 -0.979514 0.0181933 -0.158045 -0.597969 -6.97677e-05 -8.3746e-05 -0.000384732 9.64219 4.15922 2.31062 -0.0792413 0.366428 7.43416 0.357654 0.128417 -0.0771978 9.64219 4.15922 2.31062 -0.0792802 0.366421 7.43417 0.357437 0.128374 -0.0771918 
26.982 1 210 9.65205 2.14755 4.30801 -2.64886 1.3711 -1.7339 0.35141 0.253292 0.0739103 0.0578583 -1.34156 -0.838078 -0.0628093 -0.725353 -0.453931 6.7063e-05 -0.000468349 -8.65876e-05 9.64951 2.1489 4.30627 -2.58601 1.4164 -1.72067 0.351512 0.253379 0.0739657 9.64951 2.1489 4.30627 -2.58605 1.41637 -1.72069 0.351309 0.253206 0.0738543 
26.982 1 11 9.62866 0.250667 2.24783 1.49347 -2.66468 -0.922439 0.429318 0.017731 -0.236998 0.0476839 -0.0863633 -1.31688 0.0168836 0.00259341 -0.731983 -1.78024e-06 -0.000982642 -0.000193852 9.63026 0.247979 2.24691 1.57025 -2.6615 -0.964827 0.429435 0.0177773 -0.237074 9.63026 0.247979 2.24691 1.57021 -2.66151 -0.9648 0.429202 0.017685 -0.236921 
26.982 1 53 11.7601 4.30732 0.281334 0.924889 1.37857 1.70943 0.0251453 -0.460062 -0.137138 0.300594 -0.211687 -2.79891 0.104712 -0.0444531 -1.13065 9.64589e-05 -0.000290607 -0.00104752 11.7611 4.30868 0.283045 0.929382 1.29629 1.68491 0.025132 -0.460183 -0.137155 11.7611 4.30868 0.283045 0.929387 1.29633 1.68491 0.0251584 -0.459942 -0.13712 
26.982 1 10 9.619 2.23783 0.292468 0.31048 2.18338 -2.66793 0.212464 -0.121976 -0.281529 -0.0118947 -1.41847 -2.20688 -0.0533353 -0.677946 -0.962064 -0.000112793 -0.000318369 -0.00100479 9.61941 2.24 0.289801 0.348475 2.16156 -2.71828 0.212509 -0.122015 -0.281612 9.61941 2.24 0.289801 0.34846 2.16158 -2.71825 0.21242 -0.121937 -0.281445 
26.982 1 16 11.8863 2.23512 2.17599 -6.60254 -5.66252 -0.105432 -0.325528 0.0912339 0.235186 0.383308 -1.9732 -1.18355 0.0968461 -0.893238 -0.709151 0.000105226 -0.000606332 -0.000344757 11.8797 2.22943 2.17589 -6.66075 -5.6462 -0.0633703 -0.325579 0.0913039 0.235248 11.8797 2.22943 2.17589 -6.66073 -5.64622 -0.0633927 -0.325477 0.0911634 0.235123 
26.982 1 15 13.9373 0.222031 2.20538 3.10117 -2.23337 -1.16127 0.377776 -0.0201269 -0.133961 0.0309516 -0.328745 -1.97371 -0.0263546 -0.255544 -0.943746 8.74075e-07 -0.000782806 -0.000425319 13.9405 0.219772 2.20422 3.16874 -2.23697 -1.18523 0.377886 -0.0201121 -0.134 13.9405 0.219772 2.20422 3.1687 -2.23697 -1.18522 0.377667 -0.0201421 -0.133922 
26.982 1 253 11.8587 4.23878 4.24807 -1.08651 2.4494 3.61754 -0.155149 -0.1746 -0.146228 0.0209177 -0.209555 -0.178804 0.00784423 -0.101724 -0.119431 -8.18459e-06 -0.000120705 -8.17783e-05 11.8577 4.24121 4.25169 -1.11426 2.41818 3.59139 -0.155159 -0.174631 -0.14627 11.8577 4.24121 4.25169 -1.11425 2.41819 3.5914 -0.155139 -0.174571 -0.146187 
26.982 1 55 13.9397 4.08899 2.18663 1.79037 -0.108904 1.95701 0.2183 0.409554 0.173385 -0.0211208 -0.621572 -1.26196 -0.00509647 -0.221181 -0.800052 4.32905e-05 -0.000227694 -0.000371456 13.9415 4.08886 2.18859 1.8294 -0.0356636 1.98802 0.218332 0.409628 0.173438 13.9415 4.08886 2.18859 1.82939 -0.03569 1.988 0.218267 0.40948 0.173331 
26.982 1 214 14.0712 2.05502 4.23011 -1.38249 4.78136 2.15616 -0.119671 0.156426 -0.246206 0.25405 -1.59911 -0.860832 0.129501 -0.743368 -0.428077 -2.53927e-05 -0.000473853 -0.000226686 14.0698 2.05978 4.23227 -1.40389 4.80934 2.11213 -0.119698 0.156491 -0.246265 14.0698 2.05978 4.23227 -1.40388 4.80932 2.11215 -0.119643 0.15636 -0.246146 
26.982 1 20 16.201 2.16646 2.08251 1.72389 -3.6648 -5.76077 -0.218538 0.228432 0.443598 -0.711596 -2.02899 -0.96518 -0.286009 -0.963849 -0.569766 -0.000250423 -0.000571284 -0.000398533 16.2028 2.16277 2.07675 1.68481 -3.62395 -5.68145 -0.218577 0.228489 0.443669 16.2028 2.16277 2.07674 1.68482 -3.62397 -5.68147 -0.2185 0.228374 0.443528 
26.982 1 257 16.162 4.17267 4.16543 -3.11642 -5.82271 3.29279 -0.415073 0.157951 -0.0983757 -0.0311646 -0.292561 -0.150528 -0.0146447 -0.13718 -0.108397 -0.000148081 -5.07959e-05 -8.82686e-05 16.1589 4.16683 4.16873 -3.19065 -5.79446 3.27519 -0.415209 0.157995 -0.098417 16.1589 4.16683 4.16873 -3.1906 -5.79448 3.27521 -0.414936 0.157908 -0.0983341 
26.982 1 19 18.2564 0.260796 2.27783 -0.0836096 4.80333 -0.990297 0.367632 0.0327929 -0.0872708 0.028365 -1.7747 -0.635974 0.0837415 -0.76045 -0.444421 1.69226e-05 -0.000973888 -0.00021155 18.2563 0.26558 2.27684 -0.0178575 4.80919 -1.0059 0.36775 0.032814 -0.0872865 18.2563 0.26558 2.27684 -0.0178994 4.80918 -1.0059 0.367515 0.0327714 -0.0872551 
26.982 1 218 18.2106 2.30483 4.30748 -2.19486 2.3542 2.73862 0.28852 -0.586341 -0.774051 -0.157239 -1.49552 -0.458958 -0.0921547 -0.726812 -0.287202 2.80517e-05 -0.000559423 -0.000273761 18.2085 2.30716 4.31022 -2.14326 2.24935 2.60019 0.288571 -0.586461 -0.774249 18.2085 2.30716 4.31022 -2.14328 2.24939 2.60026 0.288469 -0.58622 -0.773853 
26.982 1 18 18.3353 2.2804 0.258925 1.63965 2.35727 -0.963048 -0.272049 0.0380012 -0.188425 -0.158413 -1.14316 -2.60462 -0.0533955 -0.499173 -1.27276 -7.03616e-05 -0.00050463 -0.000999903 18.337 2.28273 0.257968 1.591 2.36407 -0.996745 -0.272101 0.0380333 -0.188466 18.337 2.28273 0.257968 1.59102 2.36406 -0.99673 -0.271996 0.0379685 -0.188383 
26.982 1 59 18.2557 4.2884 2.29469 2.00117 -3.13736 1.55315 -0.0681512 -0.132548 -0.45771 0.0658887 -0.144278 -0.832544 0.0476928 -0.0663083 -0.561765 -5.86209e-05 -6.58638e-05 -0.000296058 18.2578 4.28524 2.29625 1.98898 -3.16106 1.47129 -0.0681823 -0.132556 -0.457828 18.2578 4.28524 2.29625 1.98899 -3.16105 1.47134 -0.0681201 -0.132541 -0.457592 
26.982 1 57 16.0838 4.35354 0.198714 2.77157 0.662795 -0.734719 0.181326 -0.195166 0.103447 -0.429689 -0.417194 -2.79963 -0.135536 -0.0811914 -1.1284 -0.000143647 -0.000218462 -0.00101911 16.0866 4.35419 0.197979 2.804 0.627892 -0.716214 0.181388 -0.19521 0.103499 16.0866 4.35419 0.197979 2.80398 0.627908 -0.716232 0.181264 -0.195121 0.103396 
26.982 1 24 20.4303 2.29456 2.22993 0.877698 -4.24883 -4.08287 -0.301833 -0.299087 0.0334088 0.141758 -1.57953 -0.647203 0.112022 -0.729446 -0.50045 -6.50963e-05 -0.000610305 -0.000181594 20.4311 2.29028 2.22585 0.82372 -4.30232 -4.0769 -0.301901 -0.299175 0.0333872 20.4311 2.29028 2.22585 0.823744 -4.30229 -4.0769 -0.301765 -0.299001 0.0334304 
26.982 1 63 22.5028 4.23611 2.26731 3.63847 0.136084 0.961516 0.0226933 -0.0974936 -0.0854971 0.0127668 0.0723256 -1.1594 0.00920328 -0.0409327 -0.771622 5.99164e-05 -9.57617e-05 -0.000212098 22.5064 4.23622 2.26827 3.64253 0.118649 0.946225 0.0227139 -0.0975125 -0.085522 22.5064 4.23622 2.26827 3.64253 0.118656 0.946234 0.0226731 -0.0974745 -0.0854721 
26.982 1 222 22.4643 2.25205 4.27143 0.85334 -0.782209 -0.716326 0.199218 -0.26272 -0.0124109 -0.272981 -1.22265 -0.584751 -0.0815474 -0.611623 -0.356062 4.77309e-05 -0.000575296 -8.8316e-05 22.4652 2.25124 4.27072 0.88897 -0.829191 -0.718548 0.199277 -0.262771 -0.0124263 22.4652 2.25124 4.27072 0.888949 -0.829173 -0.718542 0.199159 -0.26267 -0.0123951 
26.982 1 261 20.3496 4.17335 4.29992 0.459371 0.985866 0.642703 -0.030909 0.0653078 -0.496404 0.0110133 -0.202321 -0.153124 0.00838135 -0.0969109 -0.116042 -4.54527e-06 -6.06883e-05 -0.000111178 20.3501 4.17432 4.30056 0.453843 0.997548 0.553929 -0.0309166 0.0653369 -0.496508 20.3501 4.17432 4.30056 0.453846 0.997538 0.553967 -0.0309011 0.0652793 -0.4963 
26.982 1 23 22.3815 0.319649 2.14501 1.00944 -1.02438 -1.09912 0.195509 -0.42267 -0.0245509 -0.21507 -0.948967 -1.04674 -0.0325023 -0.384301 -0.71585 -2.61269e-05 -0.00105324 -0.000177638 22.3825 0.318602 2.14392 1.0444 -1.09996 -1.10351 0.195526 -0.422736 -0.0245448 22.3825 0.318602 2.14392 1.0444 -1.09994 -1.10351 0.195493 -0.422605 -0.0245573 
26.982 1 61 20.3262 4.27152 0.297729 5.56892 4.49337 -3.03814 -0.044786 -0.0917749 -0.438111 0.202866 0.0934079 -2.31348 0.0871485 0.0153042 -0.793995 -3.27329e-05 -0.000125131 -0.00103993 20.3317 4.27599 0.294692 5.5609 4.47696 -3.1165 -0.0448116 -0.0917927 -0.438234 20.3317 4.27599 0.294692 5.56091 4.47697 -3.11645 -0.0447601 -0.0917572 -0.437987 
26.982 1 22 22.5407 2.25293 0.170267 3.50076 4.93085 -3.11569 -0.274429 -0.194821 0.505545 -0.112409 -0.863713 -2.37231 0.00958052 -0.429268 -0.962797 4.62769e-05 -0.000454129 -0.00101101 22.5442 2.25784 0.16715 3.45168 4.89602 -3.02528 -0.274521 -0.194816 0.505647 22.5442 2.25784 0.16715 3.45171 4.89601 -3.02532 -0.274336 -0.194828 0.505443 
26.982 1 28 24.5823 1.99888 2.22237 -5.98256 -3.41302 -0.135835 -0.114865 0.4503 0.0829439 -0.203255 -0.947955 -0.947606 -0.19153 -0.498878 -0.652607 0.000147672 -0.000532473 -0.000350257 24.5762 1.99544 2.22223 -6.00311 -3.3325 -0.120993 -0.114921 0.450373 0.0830112 24.5762 1.99544 2.22223 -6.00309 -3.33252 -0.121017 -0.114808 0.450228 0.0828758 
26.982 1 27 26.7188 0.283569 2.16684 -2.38396 -3.93928 0.763455 0.00560533 -0.480119 -0.0216166 0.646305 -2.65101 -0.792791 0.119832 -1.33104 -0.494224 -0.000142884 -0.000836842 -0.000659855 26.7164 0.279601 2.16761 -2.38295 -4.02515 0.75959 0.00560852 -0.480238 -0.0216175 26.7164 0.279601 2.16761 -2.38296 -4.0251 0.75959 0.00560192 -0.48 -0.0216164 
26.982 1 67 26.7095 4.04431 2.22697 -0.0770606 1.77748 -1.52397 -0.270439 0.518016 0.0736665 0.0186661 0.0376854 -1.32332 0.00343216 0.032325 -0.789474 0.000136378 2.06601e-05 -0.00079006 26.7094 4.04607 2.22545 -0.125424 1.87013 -1.51079 -0.270497 0.518173 0.0737214 26.7094 4.04607 2.22545 -0.125404 1.87007 -1.51081 -0.270381 0.51786 0.0736116 
26.982 1 226 26.8285 2.05213 4.24241 4.31684 0.367679 -4.1102 -0.53886 0.579296 -0.137671 0.341619 -0.959535 -0.285991 0.0688405 -0.421034 -0.158496 -0.000275203 -0.000209717 -0.000176625 26.8328 2.05248 4.2383 4.22048 0.471275 -4.13481 -0.538957 0.579408 -0.137672 26.8328 2.05248 4.2383 4.22052 0.471235 -4.13481 -0.538764 0.579183 -0.137669 
26.982 1 265 24.6738 4.12601 4.18992 -1.31543 -3.67126 2.89459 0.0609523 0.0260146 0.157362 -0.00699822 -0.101006 -0.181085 -0.00987399 -0.0626204 -0.126205 5.97358e-05 -0.000101757 -1.44178e-05 24.6724 4.12232 4.19282 -1.30453 -3.66661 2.92274 0.0609921 0.0260125 0.157411 24.6724 4.12232 4.19282 -1.30454 -3.6666 2.92272 0.0609126 0.0260159 0.157311 
26.982 1 65 24.6678 4.20813 0.312816 4.96175 -0.396924 0.907277 -0.432768 0.224619 -0.0901779 0.183061 0.186664 -2.32392 0.0759456 0.0330922 -0.796626 0.00040989 -7.07507e-05 -0.00104812 24.6727 4.20771 0.313726 4.88435 -0.356744 0.891155 -0.432874 0.224727 -0.0901703 24.6727 4.20771 0.313726 4.88439 -0.356782 0.891152 -0.432662 0.22451 -0.0901853 
26.982 1 32 28.7519 2.29614 2.07933 -0.991791 2.90236 0.133518 0.41231 -0.475215 0.100207 0.0807717 -1.52899 -0.914473 -0.017096 -0.53737 -0.586617 7.97493e-05 -0.000198554 -0.00103334 28.7508 2.29902 2.07947 -0.918052 2.81738 0.151442 0.412423 -0.475299 0.100245 28.7508 2.29902 2.07947 -0.918092 2.81741 0.151428 0.412197 -0.475132 0.100169 
26.982 1 71 30.9099 4.18695 2.1501 -0.049483 -0.260613 2.74608 -0.0341142 0.237739 0.0167055 -0.0972932 -0.127064 -0.821132 -0.0725533 0.0355486 -0.589019 2.77961e-05 3.7905e-05 -0.000997745 30.9097 4.18667 2.15285 -0.0555844 -0.218092 2.74907 -0.0341249 0.237818 0.0167208 30.9097 4.18667 2.15285 -0.0555806 -0.218121 2.74906 -0.0341039 0.237659 0.0166892 
26.982 1 230 30.8259 2.03959 4.23071 -2.508 -2.12506 1.7842 0.00219019 0.633509 0.234026 -0.188941 -1.36341 -0.471155 -0.0833859 -0.494501 -0.18557 2.03461e-06 -4.43516e-05 -0.000134536 30.8233 2.03744 4.2325 -2.50761 -2.01177 1.82605 0.00219447 0.633624 0.234086 30.8233 2.03744 4.2325 -2.50761 -2.01181 1.82603 0.00218538 0.633394 0.233966 
26.982 1 269 28.8303 4.20406 4.05357 0.110618 3.72693 -2.94077 0.192937 0.0966738 0.413675 -0.0130654 -0.189244 -0.164868 -0.0095104 -0.0597859 -0.115933 8.65135e-05 3.63104e-05 -0.000113829 28.8303 4.20777 4.05063 0.14513 3.74422 -2.86679 0.193024 0.0967316 0.413754 28.8303 4.20777 4.05063 0.145099 3.7442 -2.86682 0.19285 0.0966158 0.413596 
26.982 1 273 32.8851 4.40611 4.20707 -3.399 1.99156 1.833 0.197073 -0.738931 -0.0444725 0.0293502 -0.148449 -0.145068 0.0100858 -0.0380376 -0.0909873 -4.10052e-05 -0.000123509 -0.000156178 32.8816 4.40809 4.20891 -3.36377 1.85942 1.82505 0.197042 -0.739063 -0.0444748 32.8816 4.40809 4.20891 -3.36376 1.85947 1.82505 0.197104 -0.7388 -0.0444702 
26.982 1 229 28.7706 0.188469 4.15841 -5.26469 -5.26547 -0.143633 0.0224075 -0.0906399 -0.0575667 -0.0286211 -0.537255 -0.456595 -0.0238871 -0.532596 -0.325216 9.606e-06 -0.000776402 -0.000438102 28.7653 0.183176 4.15827 -5.26068 -5.28168 -0.153928 0.0224373 -0.0906819 -0.0575838 28.7653 0.183176 4.15827 -5.26069 -5.28167 -0.153922 0.0223766 -0.0905976 -0.05755 
26.982 1 31 30.9354 0.372088 2.11949 2.49386 2.97929 -0.676598 -0.0449993 -0.531386 -0.000234414 -0.441218 -1.64593 -1.06689 -0.211821 -1.07094 -0.512976 2.86643e-06 -0.000779391 -0.000817884 30.9378 0.375045 2.11882 2.48582 2.88425 -0.676638 -0.0449796 -0.531525 -0.000224735 30.9378 0.375045 2.11882 2.48581 2.8843 -0.676642 -0.0450201 -0.531246 -0.0002453 
26.982 1 36 32.9649 2.26547 2.33324 -2.36868 -0.657257 4.88398 0.209761 0.0561111 -0.179068 0.0299392 -1.40251 -1.06896 0.0109697 -0.453696 -0.534734 -0.000124986 -0.000144258 -0.000801163 32.9624 2.26479 2.33813 -2.33117 -0.647226 4.85196 0.209797 0.0561064 -0.179083 32.9624 2.26479 2.33813 -2.33118 -0.647224 4.85197 0.209725 0.0561162 -0.179052 
26.982 1 35 35.1173 0.261065 2.22817 3.06922 0.735702 0.483095 -0.274752 0.00383225 0.0188336 0.130126 -2.54401 -1.29173 0.148239 -1.32546 -0.580778 -1.21223e-05 -0.000933845 -0.000597921 35.1202 0.261775 2.22865 3.02009 0.736388 0.486462 -0.274778 0.00383655 0.0188324 35.1202 0.261775 2.22865 3.0201 0.736386 0.486462 -0.274726 0.00382837 0.0188351 
26.982 1 75 35.0621 4.24419 2.32928 1.04809 -0.386512 -2.95612 0.210528 -0.115081 -0.213641 0.593559 -0.117216 -1.72784 0.239219 0.0214519 -0.866588 -0.000159602 0.000111708 -0.000650977 35.063 4.24378 2.32632 1.08574 -0.407096 -2.99433 0.21058 -0.115127 -0.213691 35.063 4.24378 2.32632 1.08572 -0.40708 -2.99431 0.210475 -0.115036 -0.213591 
26.982 1 234 34.9717 2.26663 4.36841 -0.386954 3.36212 2.48895 0.0814547 0.132496 -0.221535 0.00604023 -0.855711 -0.390214 0.0402227 -0.346883 -0.168495 7.29359e-06 -0.000108913 -0.000129162 34.9711 2.26997 4.3709 -0.372389 3.38581 2.44933 0.0814641 0.132519 -0.221563 34.9711 2.26997 4.3709 -0.372392 3.3858 2.44934 0.0814453 0.132473 -0.221507 
26.982 1 34 35.0698 2.24349 0.233866 -0.450253 4.47666 -0.410439 0.273287 0.198153 0.0927335 0.435844 -0.420772 -1.66346 0.274815 -0.110546 -1.10679 -0.000259266 -0.000232365 -0.000980181 35.0692 2.24795 0.233458 -0.401378 4.5121 -0.393852 0.273357 0.198193 0.0927701 35.0692 2.24795 0.233458 -0.401403 4.51208 -0.393865 0.273217 0.198114 0.0926973 
26.982 1 233 33.0425 0.2754 4.36021 -1.39398 -0.315042 3.74459 -0.331353 -0.387995 -0.283585 0.0280467 -1.25019 -0.647179 0.0076808 -0.826639 -0.386769 -5.67726e-05 -0.000786564 -0.000466125 33.041 0.275061 4.36396 -1.45324 -0.384433 3.69387 -0.331438 -0.3881 -0.283667 33.041 0.275061 4.36396 -1.45321 -0.384395 3.6939 -0.331268 -0.38789 -0.283504 
26.982 1 237 36.9651 0.310272 4.20144 2.12146 -2.14196 -0.639352 0.651873 -0.154959 0.131683 0.360649 -1.4359 -1.21148 0.151019 -0.787516 -0.587046 0.000329001 -0.000750875 -0.000451542 36.9671 0.308103 4.2008 2.23803 -2.16966 -0.615808 0.652011 -0.154964 0.13168 36.9671 0.308103 4.2008 2.23798 -2.16966 -0.615807 0.651736 -0.154954 0.131685 
26.982 1 277 37.133 4.20926 4.19788 -1.37009 -1.91334 -1.01014 0.27589 0.101504 0.109617 0.0388753 -0.162955 -0.38648 0.0178198 -0.0657622 -0.186037 9.33257e-05 -5.65652e-05 -5.63744e-05 37.1315 4.20733 4.19687 -1.32075 -1.8952 -0.990545 0.275985 0.101472 0.109606 37.1315 4.20733 4.19687 -1.32078 -1.89518 -0.990542 0.275795 0.101536 0.109628 
26.982 1 77 37.2596 4.10266 0.292734 10.4846 4.73157 -1.64788 -0.0870506 0.665848 -0.328385 0.0112613 -0.0397147 -0.0155563 0.00436296 -0.0345056 -0.0220174 -0.000243841 0.000155202 -0.0010346 37.27 4.10738 0.291089 10.469 4.85064 -1.7066 -0.0870503 0.665953 -0.328438 37.27 4.10738 0.291089 10.469 4.8506 -1.70658 -0.087052 0.665743 -0.328332 
26.982 1 241 41.2868 4.22306 4.31365 -0.0887265 3.96874 -3.3432 -0.0918029 0.316633 -0.21125 -1.32728 -1.37944 -1.44857 -0.531235 -0.548211 -0.629033 -5.83593e-05 -3.47286e-05 -7.09743e-05 41.2865 4.22702 4.31031 -0.10515 4.02536 -3.38098 -0.0918545 0.316679 -0.211307 41.2865 4.22702 4.31031 -0.105131 4.02535 -3.38096 -0.0917513 0.316586 -0.211194 
26.982 1 4 41.2989 2.06595 2.14927 3.77281 6.51916 3.26789 0.247749 0.18398 0.087224 -0.851814 -1.39665 -1.59146 -0.535 -0.579423 -0.724346 -0.000134446 -0.000754256 -0.000191925 41.3024 2.07246 2.15255 3.81711 6.55206 3.28348 0.247787 0.184008 0.0872271 41.3024 2.07246 2.15255 3.8171 6.55205 3.28348 0.247711 0.183953 0.0872212 
26.982 1 40 37.2364 2.32204 2.24905 1.05977 2.36833 -1.25768 -0.015918 -0.567995 0.0350393 0.762027 -1.09689 -2.16733 0.370428 -0.453493 -1.02489 0.000159131 -0.000599859 -0.000366179 37.2373 2.32439 2.2478 1.05693 2.26675 -1.25142 -0.0158888 -0.568106 0.0350438 37.2373 2.32439 2.2478 1.05692 2.26679 -1.25142 -0.015948 -0.567884 0.035035 
26.982 1 79 39.3661 4.37966 2.17824 1.80506 -4.94431 5.34963 -0.193397 -0.204115 0.259182 -0.331677 -0.591298 -2.05627 -0.120655 -0.269503 -1.03162 -6.17598e-05 -0.000131636 -0.000165108 39.3677 4.3747 2.1836 1.77047 -4.98081 5.39597 -0.193442 -0.204164 0.259211 39.3677 4.3747 2.1836 1.77049 -4.98079 5.39596 -0.193352 -0.204067 0.259153 
26.982 1 238 39.465 2.21257 4.10143 0.169516 0.847555 -2.25572 -0.940635 -0.1184 0.163661 0.046388 -1.35809 -0.990587 -0.00818555 -0.558278 -0.441427 -3.0031e-05 -0.000600172 -0.000214258 39.465 2.2134 4.09917 0.00129982 0.826378 -2.22645 -0.940829 -0.118443 0.163673 39.465 2.2134 4.09917 0.00136915 0.826393 -2.22646 -0.940441 -0.118357 0.163648 
26.982 1 38 39.3789 2.1547 0.197568 -1.23142 -1.36694 -2.15415 -0.286197 0.120882 0.00569396 0.075838 -0.634486 -0.720975 0.0309093 -0.400438 -0.482612 -5.24167e-05 -0.000680775 -0.000802125 39.3775 2.15331 0.195414 -1.28259 -1.34532 -2.15313 -0.286231 0.120911 0.0057057 39.3775 2.15331 0.195414 -1.28258 -1.34533 -2.15314 -0.286162 0.120852 0.0056817 
26.982 1 83 1.17075 8.1347 2.32297 1.26614 0.87219 -4.88856 0.448782 0.376109 -0.337385 -1.3078 -0.243788 -1.60356 -0.625453 -0.167622 -0.867566 -0.000228038 -0.000152668 -0.000267283 1.17221 8.13556 2.31808 1.34641 0.939452 -4.9489 0.448928 0.376191 -0.337472 1.17221 8.13556 2.31808 1.34635 0.939422 -4.94887 0.448636 0.376026 -0.337299 
26.982 1 242 1.09238 6.21615 4.26399 0.688573 -0.219571 2.67862 0.431577 -0.208849 0.0961608 -1.30775 0.323217 -0.832434 -0.618386 0.0469146 -0.397861 -0.000398035 -0.000266517 -0.000233448 1.09325 6.21592 4.26668 0.765761 -0.256923 2.69581 0.431709 -0.208912 0.0961586 1.09325 6.21592 4.26668 0.765713 -0.256901 2.69581 0.431443 -0.208786 0.0961635 
26.982 1 281 -0.850843 8.19364 4.23558 -1.36891 -2.64093 -0.690292 -0.220604 0.572379 0.227545 -0.272172 -0.395153 -0.532917 -0.325407 -0.326864 -0.413876 -0.0006092 -0.000386073 -0.000416619 -0.85201 8.19098 4.2349 -1.40836 -2.53857 -0.649593 -0.220624 0.572532 0.227628 -0.85201 8.19098 4.2349 -1.40835 -2.53862 -0.649623 -0.220586 0.572227 0.227462 
26.982 1 285 3.14047 8.31251 4.33766 0.145936 -1.18366 1.01379 0.491109 -0.0550472 -0.455203 -0.23885 0.00087284 -0.275053 -0.0950488 -0.00580912 -0.127126 3.13513e-05 -1.78206e-05 -0.000132201 3.14078 8.31131 4.33868 0.233754 -1.1935 0.932381 0.491166 -0.0550513 -0.45532 3.14078 8.31131 4.33868 0.233734 -1.1935 0.932423 0.491052 -0.0550434 -0.455086 
26.982 1 42 1.2326 6.16146 0.201521 0.29541 0.472182 -0.0225594 0.339969 -0.0280985 0.438186 -0.939163 -0.4134 -1.51483 -0.598839 -0.155124 -0.767484 -0.000126117 -2.58203e-05 -0.000771201 1.23308 6.16192 0.201502 0.356224 0.467149 0.0558023 0.340132 -0.0281508 0.438274 1.23308 6.16192 0.201502 0.356166 0.467167 0.055771 0.339806 -0.0280455 0.438099 
26.982 1 81 -0.73887 8.15387 0.317961 2.94976 4.50916 -8.01143 -0.202872 0.679214 -0.197149 -0.907696 -0.466435 -1.65642 -0.304439 -0.202201 -0.80188 -0.000585131 -0.000274944 -0.000622996 -0.735717 8.15837 0.309943 2.91348 4.63062 -8.04668 -0.202893 0.679365 -0.197189 -0.735717 8.15837 0.309943 2.91349 4.63057 -8.04667 -0.202851 0.679064 -0.197108 
26.982 1 48 3.42859 6.22365 2.38216 -2.97121 1.40942 1.6184 -0.23919 0.0545537 -0.380176 -0.549951 -0.0471912 -1.53138 -0.267033 -0.00323444 -0.737151 -6.5489e-05 -3.66669e-05 -0.000270602 3.42578 6.22504 2.38378 -3.01398 1.41917 1.55041 -0.239207 0.0545316 -0.380276 3.42578 6.22504 2.38378 -3.01397 1.41918 1.55045 -0.239176 0.0545754 -0.380075 
26.982 1 46 5.52411 6.19467 0.296595 1.37706 0.712378 1.66794 0.187058 0.244754 0.191397 -0.296657 0.138926 -3.03987 -0.097848 0.0524348 -1.52473 0.000125769 -9.94402e-05 -0.000977834 5.52563 6.19537 0.298266 1.4105 0.756149 1.70217 0.187045 0.244807 0.191446 5.52563 6.19537 0.298266 1.41051 0.75613 1.70215 0.187072 0.244701 0.191347 
26.982 1 87 5.61223 8.39827 2.32365 2.50779 -0.154136 1.44137 -0.363451 -0.571118 -0.14236 -0.0557606 0.24992 -1.41956 -0.0231002 0.0733041 -0.653911 -0.000107567 -0.000192826 -0.000221564 5.61488 8.3981 2.3251 2.44278 -0.256282 1.41591 -0.363564 -0.571299 -0.142391 5.61488 8.3981 2.3251 2.44282 -0.256217 1.41593 -0.363338 -0.570936 -0.142328 
26.982 1 246 5.45251 6.26621 4.25203 -1.79021 0.306771 1.8524 0.297192 -0.265225 -0.435091 -0.0134142 -0.00240478 -0.146443 -0.00608661 -0.00320828 -0.0713858 5.53218e-05 -4.49959e-05 -0.000172751 5.45086 6.2665 4.25389 -1.73707 0.259343 1.77458 0.29724 -0.265264 -0.435236 5.45086 6.2665 4.25389 -1.73709 0.259356 1.77464 0.297144 -0.265187 -0.434946 
26.982 1 85 3.35726 8.3931 0.417713 -3.81034 -5.16604 -4.25781 0.161791 -0.711232 -0.206533 -0.101068 0.403223 -1.51388 -0.0634355 0.110876 -0.76469 2.25425e-05 -0.000137673 -0.000987994 3.35361 8.38792 0.413453 -3.7814 -5.29323 -4.29474 0.161833 -0.711389 -0.206555 3.35361 8.38792 0.413453 -3.78142 -5.29318 -4.29473 0.161749 -0.711076 -0.206511 
26.982 1 52 7.68971 6.15606 2.25524 3.50337 -2.75938 1.83428 -0.395952 0.163025 0.129065 0.17933 0.235521 -1.19238 0.0776114 0.0767424 -0.601097 -0.000122054 -0.00016541 -0.000359974 7.69334 6.15328 2.25708 3.43256 -2.73023 1.85737 -0.396075 0.163062 0.129103 7.69334 6.15328 2.25708 3.4326 -2.73024 1.85735 -0.395829 0.162989 0.129028 
26.982 1 289 7.61762 8.30746 4.27282 -3.84787 -0.145098 0.352607 0.116066 -0.19308 0.289576 0.0228674 0.0133534 -0.227765 0.00959086 0.00519353 -0.102284 5.661e-05 -4.26779e-05 7.75724e-05 7.61389 8.3073 4.27318 -3.8271 -0.179626 0.404398 0.116124 -0.193116 0.289666 7.61389 8.3073 4.27318 -3.82712 -0.179613 0.404366 0.116008 -0.193044 0.289486 
26.982 1 56 11.7793 6.25037 2.20889 1.13474 2.36109 -2.73103 0.106611 -0.113637 0.379508 -0.067621 0.534772 -1.50117 0.0579075 0.14704 -0.810415 4.45304e-05 -4.72925e-05 -9.34868e-05 11.7805 6.25272 2.20616 1.1538 2.34076 -2.66315 0.106638 -0.113674 0.379654 11.7805 6.25272 2.20616 1.15379 2.34078 -2.6632 0.106584 -0.113599 0.379361 
26.982 1 91 9.65526 8.23118 2.25644 0.904025 0.313536 -0.669042 0.467585 0.178521 0.192167 0.266631 0.196289 -1.935 0.0950687 0.0764198 -0.871931 0.00011315 3.66831e-05 -0.000144536 9.65627 8.23148 2.25577 0.987645 0.345462 -0.634671 0.467686 0.178559 0.192234 9.65627 8.23148 2.25577 0.98761 0.345448 -0.634695 0.467485 0.178482 0.1921 
26.982 1 250 9.68284 6.19997 4.29712 0.892746 3.53941 -1.02621 0.111658 0.277856 -0.102934 0.0193632 0.032238 -0.175106 0.00949029 0.0084583 -0.0896945 3.85878e-05 8.46162e-05 -3.85976e-05 9.68383 6.2035 4.2961 0.912718 3.5891 -1.04462 0.111706 0.27795 -0.102955 9.68383 6.2035 4.2961 0.912701 3.58907 -1.04461 0.11161 0.277762 -0.102915 
26.982 1 50 9.69392 6.33404 0.256185 -4.52759 1.88221 -1.97319 0.291995 -0.325137 0.116077 0.239542 0.419568 -2.03632 0.119518 0.087479 -1.11556 -0.000139692 -0.000199301 -0.00108622 9.68949 6.33591 0.254212 -4.47537 1.82407 -1.95244 0.292049 -0.325182 0.116087 9.68949 6.33591 0.254212 -4.47539 1.82408 -1.95244 0.291941 -0.325093 0.116067 
26.982 1 290 9.93931 10.2236 4.26711 -3.04393 3.52239 1.55505 -0.380652 -0.207951 0.159078 0.0188969 -0.0175074 -0.273537 0.01001 -0.00147578 -0.128165 -2.10555e-05 -8.67282e-05 4.33159e-05 9.93637 10.2272 4.26867 -3.11199 3.48519 1.58351 -0.380689 -0.208048 0.159146 9.93637 10.2272 4.26867 -3.11198 3.48523 1.58348 -0.380616 -0.207855 0.15901 
26.982 1 89 7.62714 8.27021 0.41003 1.39778 -0.452676 -2.87272 0.00462497 -0.00183436 -0.578395 0.0838995 0.50836 -1.52741 0.0300727 0.168017 -0.768519 -2.32707e-05 -8.88037e-05 -0.00110314 7.62866 8.26974 0.407158 1.39861 -0.453007 -2.97616 0.00461949 -0.00185051 -0.578526 7.62866 8.26974 0.407158 1.39861 -0.453001 -2.97611 0.00463124 -0.0018177 -0.578263 