ITEM: TIMESTEP
8000
ITEM: NUMBER OF ATOMS
4000
ITEM: BOX BOUNDS pp pp pp
-1.70013 42.2001
0.469611 40.0304
0.452753 40.0472
ITEM: ATOMS mass type id x y z vx vy vz fx fy fz xrad yrad zrad vxrad vyrad vzrad fxrad fyrad fzrad xub yub zub vxub vyub vzub fxub fyub fzub xlb ylb zlb vxlb vylb vzlb fxlb fylb fzlb 
26.982 1 43 0.57129 4.26841 2.39742 -3.13696 4.08589 -0.453985 -0.297728 0.220544 -0.0572055 -4.05618 -2.95833 -6.43303 -1.03496 -0.644807 -1.59178 -0.000519987 1.74129e-05 -0.000606094 0.568334 4.27241 2.39692 -3.1902 4.12533 -0.464222 -0.297779 0.220582 -0.0572533 0.568334 4.27241 2.39692 -3.19018 4.12532 -0.464205 -0.297677 0.220506 -0.0571579 
26.982 1 202 0.623495 2.50353 4.55225 1.52243 2.07659 2.18401 -0.160365 -0.195325 -0.68902 -3.78108 -4.0701 -3.83003 -0.994708 -0.862814 -0.994461 -0.00068496 -0.000272088 -0.000575634 0.625201 2.50551 4.55441 1.49375 2.04165 2.06078 -0.160407 -0.195403 -0.68918 0.625201 2.50551 4.55441 1.49376 2.04168 2.06084 -0.160322 -0.195247 -0.688859 
26.982 1 4 42.14 2.31553 2.57478 2.85532 1.09359 2.08197 0.254489 0.456069 -0.432404 -3.62914 -5.24112 -5.97303 -0.941839 -1.22005 -1.4396 1.62553e-05 -0.000482621 -0.00023395 42.1426 2.31653 2.57682 2.90083 1.17516 2.00464 0.254543 0.456199 -0.432483 42.1426 2.31653 2.57682 2.90081 1.17511 2.00467 0.254434 0.45594 -0.432326 
26.982 1 2 0.523768 2.22089 0.364221 -5.19982 -7.31269 -0.346976 -0.345789 0.796164 0.368071 -2.87658 -3.91437 -7.00387 -0.641534 -1.02053 -1.80667 -0.0002801 9.02191e-05 -0.000550766 0.518747 2.21347 0.363829 -5.26166 -7.17031 -0.281159 -0.34589 0.796349 0.368108 0.518747 2.21347 0.363829 -5.26163 -7.17037 -0.281173 -0.345687 0.79598 0.368034 
26.982 1 8 2.62354 2.49189 2.44006 -2.31714 1.24789 -1.76464 0.0781282 -0.194279 0.0768607 1.17303 -6.30334 -6.10874 0.25442 -1.45586 -1.7252 -4.8822e-05 -0.00010473 -0.0005811 2.62138 2.49305 2.43826 -2.30316 1.21315 -1.75089 0.0781636 -0.194327 0.0768772 2.62138 2.49305 2.43826 -2.30317 1.21316 -1.7509 0.0780931 -0.19423 0.076845 
26.982 1 205 2.68109 0.475732 4.31259 -1.7803 -1.71527 -4.44059 0.0570348 -0.325065 -0.050884 0.262821 -3.41578 -3.28683 0.068883 -1.34096 -1.18993 -0.000260176 -0.000792096 -0.000490819 2.67947 0.473907 4.30811 -1.7701 -1.77341 -4.44969 0.0570483 -0.325138 -0.0509234 2.67947 0.473907 4.30811 -1.7701 -1.77338 -4.44968 0.0570213 -0.324991 -0.0508443 
26.982 1 1 -1.80528 0.465525 0.469328 5.3038 -3.68179 -2.77875 0.21483 0.108989 -0.0918087 -2.4003 -2.91605 -7.6844 -0.545329 -0.729641 -1.72493 -0.000295649 -0.00020197 -4.21602e-05 -1.79976 0.461732 0.466503 5.34221 -3.66229 -2.79516 0.214863 0.10904 -0.0918062 -1.79976 0.461732 0.466503 5.3422 -3.66231 -2.79517 0.214796 0.108937 -0.0918121 
26.982 1 1013 11.5529 0.572155 20.359 0.787964 5.9967 3.43566 0.00678681 -0.382071 0.0457474 -1.83778 -6.18147 -0.245692 -0.464906 -1.10506 -0.0586338 -0.000547719 -0.000648705 0.00024835 11.5538 0.578052 20.3624 0.789177 5.92837 3.44385 0.00678538 -0.382171 0.045789 11.5538 0.578052 20.3624 0.789178 5.9284 3.44383 0.00678873 -0.38197 0.0457042 
26.982 1 245 2.72232 4.45143 4.52681 -2.3066 -1.97592 -3.88214 -0.076344 -0.054295 -0.019436 -0.374078 -1.00993 -1.20147 -0.095596 -0.204361 -0.322695 -8.96658e-05 8.93753e-06 -0.000168665 2.72017 4.44936 4.52289 -2.32025 -1.98562 -3.88562 -0.0763551 -0.0542674 -0.0194572 2.72017 4.44936 4.52289 -2.32025 -1.98563 -3.88561 -0.0763325 -0.0543224 -0.0194144 
26.982 1 47 4.67906 4.28136 2.57054 -3.6352 -3.15148 -2.83764 0.6957 0.282922 -0.465886 -0.664179 -2.06505 -5.64802 -0.136459 -0.430691 -1.63857 0.000129031 9.09075e-05 -0.000981543 4.67557 4.27812 2.56767 -3.51078 -3.10089 -2.92096 0.695872 0.282969 -0.466006 4.67557 4.27812 2.56767 -3.51084 -3.10091 -2.92092 0.695528 0.282875 -0.465766 
26.982 1 206 4.97785 2.46441 4.53193 1.35297 -1.27541 0.167244 -0.0997768 0.0315282 -0.133898 -0.426142 -6.28649 -3.70126 -0.0179827 -1.3654 -0.905563 -8.27013e-07 -8.59406e-05 -0.000200304 4.97935 2.46304 4.53206 1.33513 -1.26976 0.143294 -0.099771 0.0315528 -0.133952 4.97935 2.46304 4.53206 1.33513 -1.26977 0.143314 -0.099783 0.0315035 -0.133843 
26.982 1 12 7.11399 2.46405 2.37344 4.58693 1.38385 -0.0276823 -0.260807 0.0625369 -0.0118504 -1.22484 -7.75368 -4.96503 -0.3681 -1.66667 -1.37859 -0.000241036 -0.000130036 -0.000826282 7.1187 2.46534 2.37338 4.54028 1.39503 -0.0298023 -0.260887 0.062532 -0.0118571 7.1187 2.46534 2.37338 4.54031 1.39503 -0.0297999 -0.260727 0.0625414 -0.0118436 
26.982 1 249 7.22621 4.43377 4.36411 5.22816 0.3222 1.7734 -0.468481 -0.542825 0.268138 -0.0829504 -0.896599 -0.855715 -0.0221049 -0.193473 -0.246749 -0.000113989 -7.24739e-05 -0.000143861 7.23156 4.43401 4.36585 5.14438 0.225131 1.82134 -0.468581 -0.542903 0.268152 7.23156 4.43401 4.36585 5.14441 0.225159 1.82134 -0.468382 -0.542747 0.268124 
26.982 1 209 7.20776 0.565173 4.52106 1.78551 1.99197 0.260792 -0.304265 -0.262844 -0.813197 -0.372682 -5.30894 -5.11587 -0.107238 -1.42026 -1.20717 -7.72091e-06 -0.000673565 -0.000545115 7.20967 0.567058 4.52129 1.7311 1.94496 0.115364 -0.304304 -0.262915 -0.813371 7.20967 0.567058 4.52129 1.73111 1.94499 0.115426 -0.304226 -0.262773 -0.813024 
26.982 1 7 4.90928 0.602124 2.51861 2.36386 1.19396 -0.855439 0.00794476 -0.206718 -0.0654008 -0.491877 -0.255138 -6.64465 -0.197893 -0.276843 -1.74215 0.000181614 -0.000741098 -0.000630607 4.91178 0.603211 2.51771 2.36529 1.15699 -0.867131 0.00798339 -0.206789 -0.0653947 4.91178 0.603211 2.51771 2.36528 1.15702 -0.867133 0.00790542 -0.206647 -0.0654069 
26.982 1 5 2.71974 0.550884 0.566652 -0.311754 -2.86471 2.45362 -0.00556593 -0.535351 -0.123315 0.129169 -3.0074 -5.33298 0.0200539 -0.712067 -1.08197 9.29708e-05 -0.000546487 -0.000607163 2.71959 0.547909 0.569065 -0.312748 -2.96045 2.43157 -0.00556234 -0.535453 -0.123334 2.71959 0.547909 0.569065 -0.31275 -2.96041 2.43157 -0.00556959 -0.535249 -0.123296 
26.982 1 961 -1.63347 16.1951 16.2074 -2.26065 -1.04033 -2.81811 -0.186824 0.682528 0.0684246 -3.99659 -2.38579 -2.96635 -0.906057 -0.570647 -0.713446 -0.000564306 -0.00035746 -0.000508973 -1.63553 16.194 16.2045 -2.29406 -0.918262 -2.80587 -0.186871 0.682711 0.068467 -1.63553 16.194 16.2045 -2.29404 -0.918328 -2.80588 -0.186778 0.682345 0.0683815 
26.982 1 51 9.20688 4.58848 2.15148 -1.30894 0.486513 -0.508898 0.0299283 -0.317809 0.53234 0.121358 -0.985853 -4.66982 0.0561743 -0.220118 -1.32154 -0.000240131 0.000263059 -0.000739924 9.20567 4.58889 2.15093 -1.30359 0.429684 -0.413705 0.0299137 -0.317836 0.532406 9.20567 4.58889 2.15093 -1.30359 0.429694 -0.413729 0.0299439 -0.317781 0.532276 
26.982 1 210 9.28214 2.68727 4.20691 3.11484 1.82916 -2.56987 0.219102 -0.579473 0.285936 0.0487482 -5.38672 -3.02783 0.0738524 -1.23178 -0.667909 7.30944e-05 -0.000215331 -6.82322e-05 9.28536 2.68901 4.2043 3.15403 1.72554 -2.51874 0.219176 -0.579574 0.28599 9.28536 2.68901 4.2043 3.154 1.72557 -2.51876 0.219028 -0.579373 0.285882 
26.982 1 16 11.5195 2.32537 2.28095 -3.7899 3.69194 -3.22742 0.0812148 -0.353303 0.34587 1.46577 -7.17955 -5.57145 0.396273 -1.67758 -1.5027 0.000415345 -0.000566362 -0.00054284 11.5158 2.32897 2.27768 -3.77538 3.62875 -3.16557 0.0812331 -0.353404 0.345936 11.5158 2.32897 2.27768 -3.77538 3.62879 -3.16559 0.0811965 -0.353201 0.345803 
26.982 1 213 11.5357 0.304517 4.25988 -0.808496 -4.55899 -1.21885 0.0908889 0.724177 -0.0469735 -0.0948683 -4.99621 -5.06659 0.032226 -1.13748 -1.18745 0.000128426 -0.000619399 -0.000631231 11.535 0.299845 4.25862 -0.792248 -4.42947 -1.22726 0.0908733 0.724368 -0.0469974 11.535 0.299845 4.25862 -0.792243 -4.42954 -1.22725 0.0909053 0.723985 -0.0469494 
26.982 1 998 40.0938 18.4614 16.1462 -1.70696 0.755918 2.23206 0.0121223 -0.801576 0.540659 1.24583 0.771774 -1.97732 0.284359 0.225949 -0.472409 0.000178606 -0.000271017 5.11718e-05 40.0919 18.4622 16.1484 -1.70478 0.612563 2.32875 0.0121474 -0.801775 0.540782 40.0919 18.4622 16.1484 -1.70479 0.612634 2.32871 0.0120971 -0.801377 0.540536 
26.982 1 253 11.4704 4.34757 4.148 -2.11028 0.377485 -6.57291 -0.00713064 0.0302262 0.441927 0.10383 -0.896215 -0.943074 0.0289964 -0.222171 -0.272877 -9.10377e-06 -3.82672e-05 -2.75499e-05 11.4683 4.34787 4.14139 -2.11156 0.382885 -6.49387 -0.0071674 0.0302038 0.442038 11.4683 4.34787 4.14139 -2.11155 0.382893 -6.49391 -0.00709442 0.0302484 0.441817 
26.982 1 55 13.6989 4.51037 2.36602 -3.49629 2.01091 -2.33132 0.0358366 -0.274757 0.357433 0.0162399 -2.11254 -6.3526 0.0678999 -0.470874 -1.78322 0.000209561 -0.000122617 -0.000852783 13.6955 4.51229 2.36364 -3.48987 1.96177 -2.2674 0.035883 -0.274808 0.357497 13.6955 4.51229 2.36364 -3.48989 1.96179 -2.26742 0.0357909 -0.274706 0.357372 
26.982 1 214 13.77 2.30952 4.41742 -1.9792 -0.80828 1.58518 -0.465514 0.559819 -0.404338 0.735749 -6.15115 -3.38774 0.100903 -1.46589 -0.85183 -8.25552e-05 -0.000253049 -0.000480263 13.7681 2.30861 4.41897 -2.06245 -0.708167 1.51287 -0.465622 0.55992 -0.404416 13.7681 2.30861 4.41897 -2.06241 -0.708203 1.5129 -0.465405 0.559719 -0.40426 
26.982 1 20 15.8166 2.49658 2.35584 1.49058 -0.643223 0.226573 0.508449 -0.0466261 0.298882 -2.23007 -7.65781 -4.94808 -0.395923 -1.76519 -1.55436 -7.98418e-05 -0.000245715 -0.000997594 15.8182 2.49585 2.35603 1.58151 -0.651552 0.280021 0.508586 -0.0465817 0.298934 15.8182 2.49585 2.35603 1.58146 -0.651568 0.280003 0.508313 -0.0466708 0.298832 
26.982 1 257 15.6835 4.48303 4.48529 3.72767 1.3543 2.39321 0.53029 -0.29308 -0.17525 -0.0989151 -1.09247 -0.925744 -0.0135402 -0.24745 -0.30611 0.00016093 -0.000105303 -0.000248778 15.6873 4.4843 4.48765 3.82252 1.30188 2.36186 0.530464 -0.293155 -0.175354 15.6873 4.4843 4.48765 3.82246 1.30191 2.36189 0.530116 -0.293007 -0.175147 
26.982 1 218 18.0793 2.3136 4.28866 -6.26816 -6.4797 -0.969163 -0.256324 0.48094 0.565346 -0.647429 -5.8042 -2.27025 -0.150234 -1.34701 -0.659532 -0.000107773 -4.64859e-05 -0.000119188 18.073 2.30702 4.28765 -6.314 -6.39368 -0.86806 -0.256415 0.481083 0.565461 18.073 2.30702 4.28765 -6.31397 -6.39373 -0.868101 -0.256234 0.480797 0.565232 
26.982 1 59 18.335 4.36129 2.4375 2.81935 3.84472 3.62269 -0.756358 0.238469 0.00518085 0.185767 -0.462839 -4.7761 0.00299238 -0.132577 -1.55301 -0.00021221 -0.000162571 -0.000722685 18.3379 4.36506 2.44109 2.68407 3.88737 3.62362 -0.756601 0.238544 0.00520301 18.3379 4.36506 2.44109 2.68416 3.88735 3.62361 -0.756116 0.238393 0.00515722 
26.982 1 24 20.3338 2.47534 2.55788 1.76402 -4.3798 -1.5768 0.0274659 -0.143302 -0.270158 0.591377 -5.8824 -4.05413 0.099816 -1.33556 -1.31593 -0.000165561 -0.000268125 -0.000813477 20.3355 2.47086 2.55626 1.76892 -4.40543 -1.62511 0.0274469 -0.143353 -0.270174 20.3355 2.47086 2.55626 1.76893 -4.40541 -1.62511 0.0274874 -0.143251 -0.270142 
26.982 1 19 18.0864 0.372221 2.43904 4.09348 1.77896 4.1254 -0.176555 0.0139858 -0.125475 0.228887 -6.39559 -3.81952 -0.0360695 -1.4208 -1.22863 -2.71854e-05 -0.000721844 -0.000792742 18.0905 0.373897 2.44313 4.0619 1.78147 4.10296 -0.176614 0.0140345 -0.125516 18.0905 0.373897 2.44313 4.06192 1.78145 4.10298 -0.176496 0.0139356 -0.125434 
26.982 1 815 13.7744 0.490126 18.3464 2.47225 0.9067 -4.06489 0.0619135 0.101808 -0.244133 0.605122 -7.34659 -1.27112 0.104916 -1.22439 -0.494306 0.000389821 -0.00102507 -2.05105e-05 13.7769 0.490926 18.3423 2.48333 0.924905 -4.10855 0.0619593 0.101818 -0.244213 13.7769 0.490926 18.3423 2.48331 0.924901 -4.10852 0.0618672 0.101798 -0.244053 
26.982 1 221 20.2328 0.601614 4.48678 0.559239 -3.52309 2.73791 0.380028 -0.428709 0.284988 -0.963697 -4.1679 -3.86327 -0.188991 -1.24981 -1.131 2.45343e-05 -0.000758887 -0.000364385 20.2333 0.597983 4.48949 0.627203 -3.59975 2.78887 0.380119 -0.428751 0.28504 20.2333 0.597983 4.48949 0.62717 -3.59974 2.78886 0.379937 -0.428667 0.284935 
26.982 1 261 20.3894 4.47325 4.40273 -0.88578 -3.1689 -0.397245 -0.333287 -0.600201 0.404334 0.0448957 -0.793581 -0.908943 0.0109724 -0.184323 -0.292097 -0.000114357 -0.000149481 -1.93678e-05 20.3885 4.46999 4.4023 -0.945391 -3.27624 -0.324929 -0.333403 -0.600335 0.404459 20.3885 4.46999 4.4023 -0.945349 -3.27619 -0.324974 -0.33317 -0.600068 0.40421 
26.982 1 63 22.3359 4.44729 2.27767 -6.8505 4.95349 2.85598 0.847228 -0.00891577 0.469012 0.196221 -0.279452 -6.02549 0.0756497 -0.0952029 -1.78246 0.00014815 0.000174947 -0.000807997 22.329 4.45216 2.28048 -6.69898 4.9519 2.93985 0.84742 -0.00889799 0.469081 22.329 4.45216 2.28048 -6.69905 4.95189 2.93982 0.847035 -0.00893412 0.468943 
26.982 1 222 22.6318 2.40931 4.45021 -6.9694 0.581095 -0.889161 -0.608834 0.115541 0.0721109 -0.490744 -4.94323 -2.61445 0.0149189 -1.23815 -0.708234 -8.71526e-05 -0.000159613 -0.000123247 22.6248 2.40979 4.44929 -7.07828 0.60175 -0.876263 -0.608922 0.115519 0.0721393 22.6248 2.40979 4.44929 -7.07825 0.601758 -0.876273 -0.608746 0.115564 0.0720822 
26.982 1 28 24.5262 2.61113 2.4561 -2.31606 -0.345333 1.14087 0.362192 -0.305977 -0.0325093 -0.703946 -4.3871 -5.44302 -0.129616 -1.21732 -1.62517 0.000321179 -0.000200559 -0.000878818 24.5239 2.61068 2.4572 -2.25128 -0.400055 1.13505 0.362311 -0.306057 -0.0325239 24.5239 2.61068 2.4572 -2.25132 -0.400026 1.13506 0.362072 -0.305898 -0.0324949 
26.982 1 265 24.6063 4.61792 4.43313 0.449325 -1.84491 1.0261 0.0822878 -0.225569 -0.0456882 -0.0122358 -0.569566 -1.06599 -0.00457802 -0.172328 -0.33324 2.52739e-05 -2.9737e-05 -0.000227568 24.6067 4.61599 4.43412 0.46404 -1.88524 1.01792 0.0823008 -0.2256 -0.0457546 24.6067 4.61599 4.43412 0.464036 -1.88523 1.01794 0.0822749 -0.225538 -0.0456214 
26.982 1 23 22.4911 0.505203 2.48481 2.80205 -0.0326498 7.11006 -0.0241933 -0.206119 0.285032 -0.136026 -4.2054 -5.31078 0.120003 -1.06673 -1.47225 2.55694e-05 -0.00097322 -0.000565722 22.4939 0.505067 2.49189 2.79773 -0.069516 7.16104 -0.0241837 -0.20619 0.285128 22.4939 0.505067 2.49188 2.79773 -0.0694905 7.16101 -0.0242036 -0.206047 0.284938 
26.982 1 1009 7.10965 0.497706 20.1829 1.68058 2.20863 4.59713 -0.229587 -0.216807 -0.397665 -0.793914 -6.64289 -2.71141 -0.33593 -1.52398 -0.846621 1.77308e-05 -0.000989385 -0.000447618 7.11145 0.499809 20.1875 1.63952 2.16986 4.52602 -0.229633 -0.216842 -0.397734 7.11145 0.499809 20.1875 1.63954 2.16987 4.52604 -0.229542 -0.21677 -0.397596 
26.982 1 22 22.3447 2.44353 0.447129 -1.07359 1.07327 3.24374 0.34628 -0.235908 -0.0971672 0.39844 -3.93785 -8.0965 0.244096 -1.0564 -1.87257 7.42658e-06 -0.000134464 -0.0010422 22.3436 2.44451 0.450329 -1.01166 1.03108 3.22635 0.346359 -0.23596 -0.0972414 22.3436 2.44451 0.450329 -1.01169 1.0311 3.22638 0.346199 -0.235857 -0.0970921 
26.982 1 67 26.9927 4.41299 2.39048 -4.31144 1.67555 -1.66156 -0.118078 -0.077848 0.107157 0.252144 -0.0222377 -7.01419 0.0553211 -0.0869351 -2.00395 -1.99996e-05 -0.000120941 -0.00100169 26.9883 4.41458 2.38878 -4.33255 1.66162 -1.6424 -0.118095 -0.0779114 0.107165 26.9883 4.41458 2.38878 -4.33255 1.66165 -1.6424 -0.118061 -0.0777847 0.107149 
26.982 1 226 26.5804 2.51127 4.49366 1.37056 -1.37008 -6.22894 0.612401 0.0417147 -0.21351 0.429529 -3.78542 -1.65132 -0.0502975 -0.975833 -0.51714 0.000137485 -0.000134641 -0.00029208 26.5817 2.5098 4.4874 1.48007 -1.36262 -6.26713 0.612516 0.0417189 -0.2136 26.5817 2.5098 4.4874 1.48003 -1.36262 -6.2671 0.612285 0.0417108 -0.213421 
26.982 1 269 29.0924 4.43677 4.38321 2.64529 3.32028 1.11751 -0.0318972 -0.0268943 0.458195 -0.0568601 -0.582282 -1.11863 -0.00483821 -0.137538 -0.349604 -1.47017e-05 -0.000142174 -0.000119886 29.095 4.44001 4.3843 2.63958 3.31546 1.19944 -0.0319303 -0.0269979 0.458262 29.095 4.44001 4.3843 2.63959 3.31549 1.19942 -0.0318639 -0.0267907 0.458128 
26.982 1 229 29.1629 0.552827 4.55743 -1.64512 -1.7385 1.67779 -0.14872 -0.233907 0.0357146 -0.0405005 -4.14349 -2.87409 0.0874293 -1.35446 -0.980781 0.000194298 -0.000672008 -0.000563316 29.1611 0.550981 4.55907 -1.67172 -1.78032 1.68418 -0.148755 -0.233922 0.0357318 29.1611 0.550981 4.55907 -1.67171 -1.78032 1.68417 -0.148685 -0.233892 0.0356977 
26.982 1 809 7.23358 0.543378 16.4107 2.51105 -1.70117 4.72093 -0.330921 -0.0193488 -0.468433 0.218021 -6.49246 -5.33409 0.0354608 -1.53753 -1.25448 9.61647e-05 -0.000638403 -0.000557073 7.23621 0.541568 16.4155 2.45186 -1.70464 4.63716 -0.331053 -0.019406 -0.468554 7.23621 0.541568 16.4155 2.4519 -1.70462 4.6372 -0.330791 -0.0192912 -0.468315 
26.982 1 2801 -1.71077 20.2042 16.2754 6.9756 3.08257 -3.40716 0.169723 0.102186 0.0937777 -6.31934 -0.359673 -6.56352 -1.50945 -0.0193564 -1.74883 -0.000511167 0.000314894 -0.000483478 -1.70359 20.2073 16.272 7.00595 3.10083 -3.39038 0.169753 0.102121 0.0938458 -1.70359 20.2073 16.272 7.00594 3.10085 -3.39041 0.169693 0.102251 0.0937096 
26.982 1 2835 35.6253 20.0853 18.1473 1.40311 -0.264385 3.75736 0.0819808 0.0883832 0.229621 -2.26339 -1.95175 -3.82181 -0.634389 -0.550537 -1.01684 0.00017301 0.000322118 -0.000411639 35.6265 20.085 18.1511 1.41777 -0.248576 3.79843 0.0819882 0.0884202 0.229706 35.6265 20.085 18.1511 1.41777 -0.248589 3.7984 0.0819735 0.0883462 0.229535 
26.982 1 32 29.1407 2.45126 2.63104 -1.95175 -0.452434 0.045088 0.0824219 0.156206 -0.751268 0.0518026 -4.64894 -5.58378 0.0795193 -1.03354 -1.70315 0.000176693 -0.000330958 -0.0010034 29.1387 2.45071 2.63104 -1.93701 -0.424497 -0.0892623 0.0824333 0.15625 -0.751414 29.1387 2.45071 2.63104 -1.93702 -0.424512 -0.08921 0.0824104 0.156162 -0.751122 
26.982 1 71 31.3117 4.51508 2.43676 3.97524 -5.9931 -2.69833 -0.141841 -0.438803 -0.0535155 -0.578946 -0.104692 -5.68465 -0.186041 -0.085238 -1.76316 -2.87374e-05 -0.000181925 -0.00107291 31.3155 4.50899 2.43402 3.94986 -6.07158 -2.70791 -0.141909 -0.438933 -0.0535495 31.3155 4.50899 2.43402 3.94989 -6.07154 -2.70789 -0.141772 -0.43867 -0.053481 
26.982 1 230 31.4877 2.48311 4.30997 -2.22003 2.35003 -3.4142 -0.66124 0.168733 0.442652 -0.617142 -4.3853 -2.10279 -0.0393855 -1.11727 -0.679156 4.65492e-05 -0.000529062 -0.000315478 31.4854 2.48537 4.30652 -2.33828 2.38021 -3.33503 -0.661367 0.168779 0.442771 31.4854 2.48537 4.30652 -2.33823 2.38019 -3.33508 -0.661114 0.168689 0.442532 
26.982 1 36 33.3469 2.46739 2.35735 -3.81232 3.50998 -0.150579 0.288537 -0.108335 -0.263282 -0.301601 -4.38655 -5.3979 -0.160576 -1.22714 -1.5523 -0.000127937 -0.000600743 -0.000830601 33.343 2.4708 2.35717 -3.76073 3.49059 -0.197665 0.288567 -0.108427 -0.263351 33.343 2.4708 2.35717 -3.76074 3.49063 -0.19764 0.288506 -0.10824 -0.263212 
26.982 1 2833 33.4725 20.2794 16.3804 0.386385 2.43507 -2.42497 -0.394932 -0.257844 -0.654045 -3.52398 -0.675136 -6.05698 -0.753586 0.00380954 -1.48457 -0.000278665 0.0002981 -0.000806578 33.4727 20.2818 16.3779 0.315756 2.38896 -2.54194 -0.395026 -0.257916 -0.654168 33.4727 20.2818 16.3779 0.31579 2.38898 -2.54189 -0.394838 -0.257772 -0.653922 
26.982 1 2821 20.3079 20.3045 16.3021 2.88962 7.17703 1.42625 -0.0986903 0.120053 0.0773924 -1.27307 2.83076 -4.19865 -0.490628 0.255733 -1.10534 -0.000399982 0.000456748 -0.000522427 20.3108 20.3117 16.3035 2.87197 7.1985 1.44009 -0.0987228 0.120074 0.077398 20.3108 20.3117 16.3035 2.87198 7.19849 1.44009 -0.0986578 0.120033 0.077387 
26.982 1 273 33.5566 4.42496 4.35108 -3.04234 0.0495499 1.2168 -0.0545119 -0.209734 0.433291 0.034177 -0.407072 -0.905791 -0.00385766 -0.132612 -0.278577 -1.42595e-05 -0.000154367 -5.56323e-05 33.5534 4.42493 4.35226 -3.05209 0.012045 1.29429 -0.0545103 -0.209762 0.433427 33.5534 4.42493 4.35226 -3.05209 0.0120552 1.29424 -0.0545133 -0.209705 0.433155 
26.982 1 75 35.5388 4.34918 2.40626 -0.718291 -0.176588 -1.1919 0.450872 0.193277 -0.0681408 1.29053 -0.15408 -7.04396 0.227721 -0.108409 -1.8568 3.46263e-05 -0.000267268 -0.000850432 35.5379 4.34891 2.40503 -0.637653 -0.142027 -1.20409 0.451002 0.193297 -0.0681775 35.5379 4.34891 2.40503 -0.6377 -0.142034 -1.20407 0.450742 0.193257 -0.0681038 
26.982 1 234 35.7896 2.35659 4.33269 -0.13635 6.19567 -3.64213 -0.333952 0.0590394 0.13325 0.317955 -3.14281 -1.61813 0.0632784 -0.892273 -0.484155 -4.77226e-05 -0.000548269 -0.000157013 35.7894 2.36269 4.32901 -0.196072 6.20622 -3.6183 -0.334019 0.0590121 0.133279 35.7894 2.36269 4.32901 -0.196048 6.20623 -3.61831 -0.333886 0.059068 0.13322 
26.982 1 40 37.8314 2.51608 2.42597 -7.49924 -0.740418 -1.68737 0.000746667 -0.39802 -0.332527 2.46334 -4.48151 -7.79295 0.364232 -1.13209 -1.86261 4.16278e-05 -0.00040874 -0.000396568 37.8238 2.51524 2.42425 -7.4991 -0.8116 -1.74683 0.00077101 -0.398113 -0.332598 37.8238 2.51524 2.42425 -7.49911 -0.811567 -1.74681 0.00072192 -0.397928 -0.332457 
26.982 1 277 37.8444 4.3791 4.34147 -1.21198 1.51633 -1.76055 0.181984 0.249086 0.160829 0.124899 -0.598316 -1.41325 0.0194394 -0.156973 -0.363291 6.71565e-05 -7.58919e-05 -0.000119905 37.843 4.38053 4.33967 -1.17944 1.56088 -1.7318 0.182047 0.249145 0.160847 37.843 4.38053 4.33967 -1.17946 1.56086 -1.7318 0.181922 0.249028 0.160812 
26.982 1 241 42.4405 4.31905 4.45857 -1.05345 1.55695 1.31242 -0.418375 0.473587 -0.284109 -3.8892 -4.04439 -4.51967 -0.82376 -0.813209 -0.976304 -0.000117102 -2.8085e-05 -0.000272943 42.4393 4.32052 4.45985 -1.12827 1.64164 1.26161 -0.418489 0.473673 -0.284225 42.4393 4.32052 4.45985 -1.12823 1.64161 1.26165 -0.418261 0.473501 -0.283994 
26.982 1 79 39.8197 4.40212 2.43958 0.920303 -0.119462 2.15555 0.651597 0.0816601 -0.0803438 -0.832273 -1.7822 -7.74594 -0.146853 -0.259506 -1.95774 0.000133093 -8.04819e-05 -0.000555409 39.8204 4.40191 2.4417 1.03683 -0.104861 2.14118 0.651736 0.0816639 -0.0803434 39.8204 4.40191 2.4417 1.03678 -0.104862 2.14118 0.651457 0.0816558 -0.0803441 
26.982 1 238 40.1566 2.45358 4.60578 4.38704 -3.17786 0.231785 -0.047865 -0.125599 -0.358304 -0.0232663 -4.94701 -3.54708 -0.0537385 -1.18366 -0.797548 -4.62841e-05 -0.000682286 -0.000379418 40.1608 2.4503 4.60597 4.37848 -3.20032 0.167708 -0.047883 -0.125625 -0.358379 40.1608 2.4503 4.60597 4.37849 -3.20031 0.167735 -0.0478468 -0.125574 -0.358229 
26.982 1 999 39.9716 16.2951 18.1967 -4.75361 -2.33843 1.80568 0.391536 0.247542 -0.175685 2.04695 -0.271811 -1.75165 0.435181 -0.0690173 -0.356859 0.000352529 8.3403e-05 -0.00024128 39.9667 16.2927 18.1985 -4.68358 -2.29416 1.77426 0.391663 0.247607 -0.175741 39.9667 16.2927 18.1985 -4.68363 -2.29418 1.77428 0.391408 0.247476 -0.175629 
26.982 1 83 0.483398 8.32784 2.62923 -0.89181 0.707234 -5.48035 0.225958 -0.0124265 -0.535633 -4.94728 -1.38182 -6.13628 -1.20709 -0.420144 -1.54017 -0.000140456 -3.13237e-05 -0.000864913 0.48269 8.32849 2.6237 -0.851391 0.705012 -5.57614 0.226062 -0.0124272 -0.53575 0.48269 8.32849 2.6237 -0.851428 0.705012 -5.5761 0.225853 -0.0124259 -0.535518 
26.982 1 242 0.500758 6.36041 4.46333 2.12178 -2.48732 1.28688 0.244179 -0.100409 0.107719 -5.07493 0.22793 -3.06564 -1.20678 -0.0633898 -0.733763 -0.00024584 -0.000208906 -0.000181187 0.503065 6.35784 4.46459 2.16546 -2.50526 1.30614 0.244261 -0.100381 0.107724 0.503065 6.35784 4.46459 2.16543 -2.50528 1.30614 0.244098 -0.100438 0.107715 
26.982 1 285 2.81439 8.59451 4.63636 1.89091 -1.32256 1.74026 -0.260126 -0.560191 -0.363766 -0.713236 -0.0666592 -0.948398 -0.139345 -0.0294646 -0.226474 -6.8037e-05 -9.88794e-05 -0.000177091 2.81644 8.59312 4.63806 1.84439 -1.42274 1.67521 -0.260191 -0.560285 -0.363854 2.81644 8.59312 4.63806 1.84441 -1.42271 1.67524 -0.260062 -0.560097 -0.363679 
26.982 1 48 2.62576 6.35945 2.47392 -0.18793 -3.94586 1.1169 0.0431043 0.259425 0.156745 -1.57097 -0.332265 -5.88727 -0.258501 -0.153041 -1.54852 1.35163e-05 -7.96582e-05 -0.000750945 2.62574 6.35543 2.475 -0.180219 -3.89946 1.14494 0.0431233 0.259542 0.156785 2.62574 6.35543 2.475 -0.180226 -3.8995 1.14492 0.0430847 0.259308 0.156706 
26.982 1 84 42.0931 10.3121 2.41595 1.77224 -1.45621 1.3211 0.446473 0.231593 0.0126572 -5.26136 -1.57709 -7.94213 -1.23622 -0.47406 -1.83537 0.000570807 -0.000674869 -0.000372327 42.0947 10.3106 2.41723 1.85209 -1.41479 1.32337 0.446584 0.231638 0.0126571 42.0947 10.3106 2.41723 1.85205 -1.41481 1.32337 0.446363 0.231549 0.0126577 
26.982 1 44 -1.64921 6.27657 2.49721 -4.97609 5.58049 -2.77189 0.067243 0.104108 -0.0899763 -0.095359 -4.74268 -6.42066 -0.267373 -1.07818 -1.59763 -0.00067125 -0.000319384 -0.000591282 -1.65398 6.28208 2.49439 -4.96406 5.5991 -2.78798 0.0672766 0.104082 -0.0900307 -1.65398 6.28208 2.49439 -4.96408 5.59911 -2.78797 0.0672093 0.104135 -0.0899228 
26.982 1 2823 22.4564 20.3733 18.2714 1.53593 -1.40936 -0.877042 -0.0263223 -0.420928 0.00522687 -1.29021 -1.17002 -4.44568 -0.519262 -0.102412 -1.09038 -9.63605e-05 0.000340449 -0.000456145 22.4579 20.3719 18.2705 1.53122 -1.48464 -0.876099 -0.0263437 -0.42105 0.00527433 22.4579 20.3719 18.2705 1.53123 -1.4846 -0.876116 -0.0263009 -0.420805 0.00517843 
26.982 1 87 4.80367 8.53875 2.51005 2.75314 -3.28987 4.15056 -0.0150454 -0.472177 0.0926902 -0.127891 0.250125 -5.30461 0.00363999 -0.0848391 -1.38017 0.000199026 -0.000136008 -0.000835459 4.80657 8.53539 2.51417 2.75044 -3.37432 4.16713 -0.015083 -0.472322 0.092703 4.80657 8.53539 2.51417 2.75046 -3.37427 4.16713 -0.0150074 -0.472033 0.0926769 
26.982 1 246 4.77547 6.44206 4.5373 1.01173 2.19107 -0.684389 0.159771 0.0566258 -0.37248 -0.0371107 -0.0440193 -0.672918 -0.0075537 -0.0173759 -0.215362 2.59534e-05 1.68545e-05 -0.000271595 4.77662 6.44418 4.53658 1.0403 2.2012 -0.751008 0.159785 0.0566451 -0.3726 4.77662 6.44418 4.53658 1.04029 2.20119 -0.750965 0.159757 0.0566063 -0.372361 
26.982 1 289 7.01619 8.45715 4.49514 -0.401767 -2.38947 -0.200393 -0.0948197 -0.341315 0.0363188 0.0616277 0.0340097 -0.799939 0.00960552 0.000854378 -0.207188 -3.32751e-05 -7.72059e-05 -0.000161669 7.01591 8.4547 4.4949 -0.418729 -2.45051 -0.193891 -0.0948663 -0.341396 0.0363673 7.01591 8.4547 4.4949 -0.418712 -2.45048 -0.193908 -0.0947729 -0.341235 0.0362705 
26.982 1 85 2.70375 8.28759 0.459532 0.55761 -1.81371 -0.750419 -0.188088 0.0271902 0.114434 -0.319341 0.483832 -7.17878 -0.0734293 -0.102195 -2.066 -1.79137e-05 -1.5814e-05 -0.000981336 2.70447 8.28571 0.458739 0.523971 -1.80885 -0.729951 -0.188144 0.0271909 0.114475 2.70447 8.28571 0.458739 0.523991 -1.80885 -0.729966 -0.188033 0.02719 0.114393 
26.982 1 3021 20.2422 20.287 20.4236 -0.372646 -2.78557 1.9864 -0.00960607 0.0135663 -0.635861 -3.01804 -4.63224 -6.74784 -0.810394 -1.17592 -1.36731 -0.000280554 0.00025517 -0.000369593 20.2418 20.2842 20.4256 -0.374368 -2.78315 1.87269 -0.00962937 0.0135372 -0.635991 20.2418 20.2842 20.4256 -0.37436 -2.78314 1.87273 -0.00958312 0.0135955 -0.635732 
26.982 1 2819 18.0349 20.2659 18.2753 -1.91913 -0.64552 -1.27351 0.381092 0.284819 0.452986 -3.06492 -1.80165 -5.31356 -0.837358 -0.524186 -1.30561 -0.000168051 0.000678081 -5.12657e-07 18.033 20.2653 18.274 -1.85097 -0.594583 -1.1925 0.381189 0.284888 0.453084 18.033 20.2653 18.274 -1.85101 -0.594607 -1.19253 0.380993 0.28475 0.452888 
26.982 1 52 6.84074 6.2775 2.624 -3.0106 1.76084 -3.4173 0.0437036 0.45788 -0.671769 0.227203 0.367586 -4.97002 -0.0336976 0.0193607 -1.38547 -5.88262e-05 0.000137901 -0.0010374 6.83785 6.27919 2.62055 -3.00279 1.84271 -3.53744 0.0436757 0.457891 -0.671916 6.83785 6.27919 2.62055 -3.00278 1.8427 -3.53739 0.0437309 0.45787 -0.671622 
26.982 1 91 9.08478 8.44449 2.58934 -0.769427 3.71215 2.72865 0.435268 -0.434408 0.109205 0.673921 0.726042 -6.65489 0.130395 0.128814 -1.61349 -4.41003e-06 -3.69312e-05 -0.00105678 9.08412 8.44814 2.59203 -0.69159 3.63445 2.74818 0.435336 -0.434546 0.109234 9.08412 8.44814 2.59203 -0.691614 3.6345 2.74817 0.4352 -0.434268 0.109178 
26.982 1 250 9.20281 6.41798 4.41855 0.34101 -4.77851 -4.91846 0.147835 -0.423794 -0.118101 0.0506029 0.0536473 -0.693231 0.00912651 0.00565066 -0.200347 3.6924e-05 -2.71468e-05 -0.000168976 9.20326 6.41312 4.41359 0.367451 -4.85429 -4.93957 0.147884 -0.423851 -0.118096 9.20326 6.41312 4.41359 0.367433 -4.85427 -4.93957 0.147785 -0.423737 -0.118105 
26.982 1 56 11.3794 6.35793 2.46643 0.0797936 4.00856 5.257 -0.0400946 0.206566 -0.28753 0.338834 0.931393 -6.06858 0.109 0.112409 -1.58936 -4.13732e-05 0.000303929 -0.000836355 11.3796 6.36187 2.47166 0.0726203 4.0455 5.20559 -0.0401199 0.206596 -0.287547 11.3796 6.36187 2.47166 0.0726294 4.04549 5.2056 -0.0400692 0.206536 -0.287512 
26.982 1 3013 11.4964 20.2958 20.1276 -1.42791 0.896904 -1.55875 0.28823 0.213946 0.669618 -2.80428 -2.48647 -4.00712 -0.794436 -0.740812 -1.10152 -6.3162e-05 0.000221527 -6.20475e-05 11.495 20.2967 20.126 -1.37637 0.935158 -1.43899 0.288247 0.213953 0.669798 11.495 20.2967 20.126 -1.37637 0.935155 -1.43906 0.288214 0.21394 0.669439 
26.982 1 435 35.8183 0.545361 10.0901 1.4029 -0.265964 -1.79757 -0.204048 -0.0640464 0.312963 0.402716 -0.810462 -5.29045 0.101176 -0.0701032 -1.30066 -1.08981e-05 -0.00100338 -8.16342e-05 35.8195 0.54499 10.0883 1.36641 -0.277415 -1.74159 -0.204103 -0.0640451 0.313082 35.8195 0.54499 10.0883 1.36643 -0.277415 -1.74163 -0.203994 -0.0640487 0.312845 
26.982 1 293 11.5669 8.41708 4.25299 -1.8242 -6.04411 3.18831 -0.282936 -0.512081 0.355051 -0.00241823 0.0924368 -1.07058 0.00879485 0.0220012 -0.27039 -3.4595e-05 -8.42817e-05 -0.00015691 11.5652 8.41096 4.25614 -1.87479 -6.13568 3.25181 -0.282955 -0.512174 0.355133 11.5652 8.41096 4.25614 -1.87479 -6.13565 3.25178 -0.282917 -0.511987 0.35497 
26.982 1 95 13.6284 8.18675 2.2239 0.903669 2.26697 3.15393 0.135814 0.454291 0.330596 -0.5034 0.549684 -7.02757 0.0301007 0.113729 -1.8721 2.39118e-05 6.26371e-05 -0.000990461 13.6294 8.18896 2.22702 0.927964 2.34821 3.21305 0.13588 0.454395 0.330654 13.6294 8.18896 2.22702 0.92794 2.34818 3.21303 0.135747 0.454187 0.330539 
26.982 1 254 13.592 6.31098 4.42341 -3.2427 5.55066 -0.219207 -0.0510605 0.427884 -0.0996203 -0.00306642 -0.00830159 -0.878013 0.00857267 -0.00355923 -0.262214 -2.0169e-06 0.000119569 -0.000180851 13.5888 6.31646 4.42315 -3.25183 5.62719 -0.237024 -0.0510646 0.427999 -0.0996474 13.5888 6.31646 4.42315 -3.25183 5.62714 -0.237014 -0.0510566 0.427769 -0.0995927 