ITEM: TIMESTEP
18000
ITEM: NUMBER OF ATOMS
4000
ITEM: BOX BOUNDS pp pp pp
-3.73255 44.2326
1.0406 39.4594
1.37603 39.124
ITEM: ATOMS mass type id x y z vx vy vz fx fy fz xrad yrad zrad vxrad vyrad vzrad fxrad fyrad fzrad xub yub zub vxub vyub vzub fxub fyub fzub xlb ylb zlb vxlb vylb vzlb fxlb fylb fzlb 
26.982 1 202 -0.72837 3.805 4.65459 -0.316998 -2.81833 4.26483 -0.182463 -0.0291331 -0.0251424 -19.1553 -18.8307 -19.8155 -1.87785 -1.84489 -2.10503 -9.15938e-05 -0.000241142 -0.000263617 -0.728506 3.80213 4.65856 -0.349618 -2.82352 4.26032 -0.182451 -0.0290265 -0.0252509 -0.728506 3.80213 4.65856 -0.349623 -2.82356 4.26036 -0.182476 -0.0292402 -0.025035 
26.982 1 2 -1.53728 3.21318 1.97827 -3.09708 -0.517426 -0.827066 0.536262 -0.170374 0.11229 -13.5085 -20.5436 -36.2586 -1.51531 -2.0099 -3.8307 -0.000124336 -0.000414766 -0.000703668 -1.54019 3.21261 1.9771 -3.00117 -0.547874 -0.806975 0.536458 -0.170299 0.11237 -1.54019 3.21261 1.9771 -3.00124 -0.547901 -0.807004 0.536066 -0.170451 0.112211 
26.982 1 1046 4.59957 6.75316 20.0987 -2.30604 -1.01359 -1.39428 0.565381 0.652399 0.202714 -14.0525 -18.5974 -11.1812 -1.35922 -1.69341 -1.91863 -2.81011e-07 -0.00040438 0.0004177 4.59739 6.7521 20.0973 -2.20493 -0.896926 -1.35802 0.565525 0.652527 0.20283 4.59739 6.7521 20.0973 -2.20498 -0.896972 -1.35806 0.565239 0.652272 0.202599 
26.982 1 4 -3.48112 2.72531 4.00827 -3.60311 -0.916078 3.31194 0.319166 0.352003 0.405687 -21.3676 -23.8956 -28.1761 -1.95028 -2.42981 -2.80761 -0.000325174 -0.000506314 -0.000545747 -3.48453 2.72434 4.01129 -3.54602 -0.85312 3.38449 0.319288 0.352128 0.405784 -3.48453 2.72434 4.01129 -3.54607 -0.853165 3.38446 0.319041 0.351877 0.40559 
26.982 1 241 -2.84442 5.58254 4.99913 -5.95382 -2.83936 5.81905 -0.160714 -0.120036 0.281319 -14.5465 -15.0663 -18.5818 -1.27762 -1.27975 -1.83461 -0.000530615 0.000195602 -0.000355382 -2.85019 5.57965 5.00467 -5.98255 -2.86081 5.86934 -0.160691 -0.119972 0.281247 -2.85019 5.57965 5.00467 -5.98256 -2.86083 5.86936 -0.160739 -0.120101 0.281389 
26.982 1 34 37.0485 3.52857 1.81175 1.96994 -0.722754 3.74746 -0.160563 -0.833468 0.593228 1.01136 -16.6689 -37.8185 -0.124616 -1.94752 -4.06775 -8.53977e-05 -0.000284108 -0.000867858 37.0503 3.52779 1.81516 1.94123 -0.871802 3.85356 -0.160583 -0.833645 0.593427 37.0503 3.52779 1.81516 1.94124 -0.871739 3.85349 -0.160544 -0.833291 0.593028 
26.982 1 205 1.3334 1.66723 4.80136 -3.32561 0.533551 -1.38253 0.167161 -0.0739103 0.142172 0.68314 -24.8008 -22.3359 0.0915501 -2.79106 -2.44533 6.39042e-05 -0.000752375 -0.000376274 1.33023 1.66771 4.79968 -3.2957 0.520343 -1.35712 0.167296 -0.073875 0.142118 1.33023 1.66771 4.79968 -3.29575 0.52033 -1.3571 0.167026 -0.0739469 0.142225 
26.982 1 245 1.75925 4.06434 5.63117 -2.81899 -0.360321 1.5564 0.653486 0.793124 0.460543 -2.03841 -4.29669 -6.6541 -0.221647 -0.374336 -0.775382 7.85494e-05 -3.58027e-05 1.54926e-05 1.75658 4.06392 5.63246 -2.70213 -0.218497 1.63876 0.653567 0.793238 0.460602 1.75658 4.06392 5.63246 -2.70216 -0.218538 1.63874 0.653405 0.793009 0.460484 
26.982 1 8 1.96329 3.88125 2.96164 2.57034 1.74335 -3.82736 0.038663 -0.643282 -0.216466 3.46745 -29.7746 -33.69 0.214333 -2.65224 -3.76058 9.43454e-05 -0.000228306 -0.00072299 1.96601 3.88294 2.95749 2.57725 1.62833 -3.86609 0.0386206 -0.643335 -0.216615 1.96601 3.88294 2.95749 2.57726 1.62835 -3.86604 0.0387034 -0.643231 -0.216319 
26.982 1 47 3.99058 5.11425 4.05749 2.69647 -1.39096 -2.28713 0.416467 0.15719 0.653576 -1.32173 -8.35057 -33.3739 -0.0606103 -0.7212 -3.64732 8.28273e-05 -4.48935e-06 -0.000383932 3.99341 5.1128 4.0549 2.77093 -1.36286 -2.17025 0.416462 0.157196 0.653682 3.99341 5.1128 4.0549 2.77093 -1.36286 -2.17029 0.416473 0.157185 0.653472 
26.982 1 206 4.41318 2.44155 5.01077 -0.691832 7.59915 -1.14136 0.156758 0.146528 -0.542379 -0.335784 -27.8926 -17.9086 0.137469 -2.95149 -1.89105 5.63062e-05 -0.000629172 -0.000430652 4.41262 2.44909 5.00935 -0.663796 7.62534 -1.23836 0.156808 0.146444 -0.542524 4.41262 2.44909 5.00935 -0.663814 7.62537 -1.23831 0.156709 0.146611 -0.542235 
26.982 1 6 4.81808 3.10557 2.22416 2.17493 2.29468 -2.03398 -0.868551 -1.05362 0.222768 -3.48351 -21.3687 -29.6329 -0.217757 -2.18175 -3.12377 -2.98939e-05 -0.000316482 -0.000917523 4.82038 3.10781 2.22179 2.0196 2.10626 -1.99414 -0.868799 -1.05389 0.222879 4.82038 3.10781 2.22179 2.01969 2.10635 -1.99418 -0.8683 -1.05335 0.222657 
26.982 1 249 6.50968 4.93204 5.60778 3.12673 -3.87471 4.08004 0.378009 0.0699972 -0.768461 -0.209698 -4.33494 -5.5813 0.0138835 -0.483677 -0.616574 5.27217e-05 -0.000134791 -0.000232873 6.51292 4.92811 5.61159 3.19432 -3.8622 3.94262 0.378055 0.0699485 -0.768607 6.51292 4.92811 5.61159 3.19431 -3.86218 3.94267 0.377963 0.070046 -0.768317 
26.982 1 12 7.05461 2.61483 3.49876 3.29632 -8.47555 1.1579 0.00482989 0.0516451 0.518693 -4.27844 -35.1644 -30.3154 -0.172512 -3.50129 -3.3643 3.96458e-05 -0.000623383 -0.000608066 7.05803 2.60629 3.49961 3.29718 -8.46631 1.25066 0.00481403 0.0516531 0.518814 7.05803 2.60629 3.49961 3.29719 -8.46631 1.25062 0.00484627 0.0516374 0.518573 
26.982 1 51 9.13177 4.45825 3.01147 6.22902 -2.90986 1.8431 0.0256757 0.145976 -0.201887 0.132464 -4.82574 -29.6721 -0.101375 -0.741577 -3.66495 -5.36299e-05 -0.00011497 -0.000938164 9.13809 4.45529 3.01299 6.2336 -2.88377 1.80701 0.0256525 0.145929 -0.201863 9.13809 4.45529 3.01299 6.23361 -2.88375 1.807 0.0256989 0.146023 -0.20191 
26.982 1 210 9.37295 2.3595 4.86404 -4.96021 4.91154 2.30161 -0.118542 0.788074 -0.274231 1.43863 -27.2939 -15.8051 0.0755495 -2.91052 -1.76822 0.000119123 -0.000584104 -0.000476683 9.36807 2.36437 4.86605 -4.98142 5.05248 2.25256 -0.118595 0.788285 -0.274323 9.36807 2.36437 4.86605 -4.9814 5.0524 2.25259 -0.118488 0.787862 -0.274138 
26.982 1 827 26.6439 1.06984 18.2179 -0.763661 -1.63275 3.1414 0.0859395 0.0446481 0.367045 2.16822 -23.2607 -12.6099 0.140859 -1.82832 -1.38346 -6.90322e-05 -0.00110099 0.000471741 26.6431 1.06815 18.221 -0.748284 -1.62477 3.20704 0.0860094 0.0446444 0.367154 26.6431 1.06815 18.221 -0.748309 -1.62477 3.207 0.0858688 0.0446514 0.366935 
26.982 1 253 11.2267 4.70936 4.83577 7.97498 -0.00317705 1.80361 -0.0354987 -0.411235 0.0655384 0.143355 -4.87373 -5.79052 -0.0371061 -0.56028 -0.696161 6.93818e-06 -0.000183875 -0.000207821 11.2348 4.70931 4.83729 7.96863 -0.0767154 1.81533 -0.0354972 -0.411308 0.0655339 11.2348 4.70931 4.83729 7.96863 -0.0766891 1.81533 -0.0354996 -0.411161 0.0655434 
26.982 1 16 11.4036 2.71079 2.66353 -2.64699 -7.40898 -0.326796 -0.577152 0.0390615 0.343168 3.28388 -35.824 -29.1312 -0.0365355 -3.79349 -3.20853 4.00316e-05 -0.000631098 -0.000798575 11.401 2.70332 2.66288 -2.75021 -7.40199 -0.265439 -0.577316 0.0391081 0.343171 11.401 2.70332 2.66288 -2.75015 -7.40201 -0.26544 -0.576985 0.039015 0.343167 
26.982 1 214 13.2794 2.74009 4.83841 -1.7871 -0.396722 -6.55757 -0.145314 0.462736 0.217432 0.862079 -29.4815 -16.3605 -0.0199711 -3.1248 -1.71665 -7.67252e-05 -0.000677792 -0.000520229 13.2777 2.73963 4.83156 -1.8131 -0.313971 -6.5187 -0.145448 0.46284 0.217438 13.2777 2.73963 4.83156 -1.81305 -0.314008 -6.5187 -0.14518 0.462631 0.217426 
26.982 1 825 24.3205 1.1376 16.4512 2.89432 1.81289 -4.64784 -0.0731693 0.0219947 0.0166739 1.0869 -22.5102 -19.4371 0.0852473 -1.99426 -1.73932 -7.57472e-05 -0.000738546 -0.000394609 24.3234 1.13935 16.4465 2.88123 1.81683 -4.64486 -0.0732052 0.0220124 0.0166318 24.3234 1.13935 16.4465 2.88124 1.81682 -4.64485 -0.0731324 0.0219767 0.0167165 
26.982 1 55 13.2437 5.01005 2.66466 -5.8076 -4.61198 -2.44701 0.0205332 0.0931253 0.26631 0.49167 -7.19787 -33.2958 0.00769324 -0.490071 -3.4315 0.000101335 -0.00014154 -0.000957094 13.238 5.00539 2.66189 -5.80393 -4.59531 -2.39938 0.0205415 0.0932141 0.266376 13.238 5.00539 2.66189 -5.80393 -4.59534 -2.39941 0.0205255 0.0930344 0.266244 
26.982 1 20 15.7683 2.7732 3.03804 -5.56019 -3.27942 4.07821 -0.248603 -0.13467 -0.257358 -4.70429 -35.0041 -28.721 -0.160332 -3.50003 -3.0079 -0.000132395 -0.000702425 -0.000921641 15.7627 2.76985 3.04181 -5.60465 -3.30348 4.03219 -0.24866 -0.134616 -0.257423 15.7627 2.76985 3.04181 -5.60463 -3.3035 4.03221 -0.248546 -0.134727 -0.257292 
26.982 1 257 15.3283 4.61333 4.97051 3.13368 -3.06487 0.539555 0.193125 0.794968 -0.930092 -0.17932 -4.87387 -5.84367 -0.0351201 -0.467561 -0.63 -7.86561e-05 2.78648e-05 -0.000443771 15.3315 4.61021 4.97077 3.1682 -2.9227 0.37322 0.193043 0.795165 -0.930317 15.3315 4.61021 4.97077 3.16823 -2.92277 0.3733 0.193206 0.794771 -0.929868 
26.982 1 439 43.5284 1.5834 10.7593 5.92449 3.5421 1.36068 -0.331461 0.468841 0.712651 7.25362 -13.6676 -24.2564 0.714255 -1.53448 -2.53014 0.00029596 -0.00076632 -0.00011185 43.5341 1.58688 10.7605 5.86524 3.62596 1.48811 -0.331388 0.469013 0.712751 43.5341 1.58688 10.7605 5.86521 3.6259 1.48808 -0.331536 0.46867 0.712551 
26.982 1 233 35.279 1.15225 5.89435 -4.37978 -3.08027 -2.52483 0.521065 0.835848 0.686275 -0.111158 -27.7277 -19.6033 -0.0443008 -2.54807 -1.93384 -6.89989e-05 -0.0010435 -0.000183227 35.2745 1.14911 5.89156 -4.2866 -2.9308 -2.40211 0.521204 0.835996 0.686397 35.2745 1.14911 5.89156 -4.28665 -2.93085 -2.40215 0.520925 0.835703 0.686153 
26.982 1 2203 -0.705227 20.2339 7.23177 0.715085 5.69373 -2.90438 -0.660421 0.00618146 0.409755 -21.7662 -17.7675 -28.6007 -2.50555 -1.36504 -2.91279 -0.000169501 7.86282e-05 -0.000374667 -0.70433 20.2396 7.22862 0.596959 5.69484 -2.83111 -0.660696 0.00620989 0.409836 -0.704329 20.2396 7.22862 0.597057 5.69483 -2.83114 -0.660145 0.00615295 0.409675 
26.982 1 218 17.533 2.74106 5.03917 -3.95737 0.528148 0.502829 0.311039 0.358288 -0.491737 -1.42111 -28.1583 -14.371 -0.0965409 -2.83878 -1.60608 3.31598e-05 -0.00063741 -0.000566372 17.5291 2.74153 5.03939 -3.90174 0.592223 0.41489 0.311116 0.35838 -0.491845 17.5291 2.74153 5.03939 -3.90177 0.59219 0.414929 0.310964 0.358196 -0.491628 
26.982 1 59 17.5714 4.90305 3.08304 -0.424197 2.10041 -1.70425 0.266672 -0.336818 -0.0822295 1.32931 -3.10775 -31.5884 0.221085 -0.396492 -3.65048 4.26018e-05 -9.20427e-05 -0.00102287 17.571 4.9051 3.08101 -0.376501 2.0402 -1.71897 0.26677 -0.336802 -0.0823045 17.571 4.9051 3.08101 -0.376536 2.04019 -1.71894 0.266575 -0.336835 -0.0821539 
26.982 1 24 19.8511 2.58081 2.97583 0.353011 4.15241 1.51658 0.198362 0.659835 -0.462413 1.91457 -29.8269 -28.4729 0.131372 -3.03343 -3.46968 -2.25573e-05 -0.000737046 -0.00082763 19.8514 2.58491 2.97703 0.388489 4.27042 1.43389 0.198436 0.660048 -0.46248 19.8514 2.58491 2.97703 0.388462 4.27034 1.43392 0.198285 0.65962 -0.462346 
26.982 1 261 19.773 4.51354 4.77003 -3.84854 0.104113 -3.64099 -0.418071 1.26136 0.0519932 0.238989 -4.25041 -6.43675 0.0148269 -0.447662 -0.769645 -3.91924e-05 8.00849e-05 -0.000250982 19.7692 4.51359 4.76609 -3.9233 0.329677 -3.63169 -0.418098 1.26161 0.0519853 19.7692 4.51359 4.76609 -3.92329 0.329587 -3.63169 -0.418046 1.2611 0.0520001 
26.982 1 2839 40.8595 20.1088 17.2771 -0.918041 2.28739 -6.11226 0.0378243 0.089102 0.507692 -0.623668 -8.53189 -28.6809 -0.262252 -0.277485 -2.76192 1.39208e-05 0.00062197 -0.000143282 40.8584 20.111 17.271 -0.91128 2.30333 -6.02147 0.0378159 0.0891413 0.507773 40.8584 20.111 17.271 -0.911277 2.30331 -6.0215 0.0378321 0.0890623 0.507611 
26.982 1 63 22.129 4.63136 2.7618 -4.03553 -4.51507 -0.293105 -0.21486 0.0704464 -0.10585 1.10839 -2.92502 -37.0839 0.0552232 -0.404756 -4.29286 -2.17529e-05 -0.000187939 -0.0010041 22.1249 4.62679 2.76118 -4.07395 -4.50248 -0.312021 -0.214856 0.0704173 -0.105795 22.1249 4.62679 2.76118 -4.07395 -4.50247 -0.31204 -0.214864 0.070476 -0.105906 
26.982 1 222 21.9095 3.15136 5.07544 -5.15401 0.218022 0.925876 0.51288 -0.404434 -0.0892526 -0.409097 -26.1899 -15.2112 0.0312682 -2.69536 -1.65719 6.94019e-05 -0.000401684 -0.000374226 21.9043 3.15152 5.07608 -5.06228 0.145709 0.909912 0.513058 -0.404456 -0.089288 21.9043 3.15152 5.07608 -5.06234 0.145717 0.909924 0.512702 -0.404414 -0.0892191 
26.982 1 28 24.37 2.9293 2.84063 3.4359 -6.98059 2.43167 -0.172669 -0.514456 0.123565 -1.34799 -26.0327 -32.3197 -0.102375 -2.89807 -3.6298 -7.91635e-05 -0.000641106 -0.000929163 24.3734 2.92226 2.84274 3.40503 -7.07259 2.45377 -0.172685 -0.514602 0.123615 24.3734 2.92226 2.84274 3.40503 -7.07254 2.45376 -0.172654 -0.514311 0.123514 
26.982 1 265 24.5784 4.57851 4.94759 -3.47197 0.742243 -1.19116 -0.225193 0.0136077 0.0398781 0.0351476 -3.95285 -7.21171 -0.00334204 -0.479869 -0.843224 -5.64662e-05 -4.2313e-05 -0.000151401 24.5749 4.57921 4.94611 -3.51224 0.744679 -1.18403 -0.225241 0.0136243 0.0398975 24.5749 4.57921 4.94611 -3.51222 0.744673 -1.18404 -0.225145 0.0135912 0.0398581 
26.982 1 67 26.5122 4.74621 2.82605 -2.55379 -5.52735 -1.3113 -0.0443418 0.247381 -0.134566 1.61856 -1.54836 -41.8682 0.0933407 -0.272672 -4.56054 -5.80191e-05 -6.27124e-05 -0.000891288 26.5096 4.74063 2.82442 -2.56173 -5.48311 -1.33536 -0.0443679 0.247432 -0.134558 26.5096 4.74063 2.82442 -2.56172 -5.48313 -1.33536 -0.0443148 0.24733 -0.134574 
26.982 1 226 26.7796 2.55813 4.70081 8.82546 -4.40212 -2.6265 -0.564849 0.367579 0.411019 0.0679457 -23.4978 -13.2607 -0.0284558 -2.70639 -1.62662 2.23642e-05 -0.000475682 -0.000419458 26.7884 2.55366 4.69789 8.72443 -4.33638 -2.55301 -0.56506 0.367654 0.411063 26.7884 2.55366 4.69789 8.7245 -4.33641 -2.55302 -0.564637 0.367504 0.410976 
26.982 1 32 30.5087 5.18198 2.45443 1.61638 4.69142 1.2541 0.597767 -1.17416 -0.139679 0.422861 -23.366 -34.9472 0.0281938 -2.52406 -3.94116 -6.02668e-05 -0.000332266 -0.00100509 30.5102 5.18662 2.45536 1.72324 4.48146 1.22913 0.597709 -1.17436 -0.139646 30.5102 5.18662 2.45536 1.72326 4.48153 1.22912 0.597825 -1.17396 -0.139713 
26.982 1 269 28.8724 4.47834 4.64022 4.72288 5.82289 -4.20892 -0.0136193 0.709685 -0.00226538 -0.201894 -3.64023 -7.87166 -0.00780967 -0.475601 -0.891218 6.06408e-06 6.22197e-06 -0.000184518 28.8771 4.48412 4.63572 4.72045 5.94982 -4.20933 -0.0136291 0.709905 -0.00225831 28.8771 4.48412 4.63572 4.72045 5.94974 -4.20933 -0.0136091 0.709466 -0.002273 
26.982 1 27 28.5026 2.68412 2.681 4.24086 -1.00981 2.33899 0.303066 0.472012 -0.74296 -1.08899 -33.7426 -28.5845 -0.203273 -2.98073 -3.25782 0.000139317 -0.000713956 -0.000866962 28.5068 2.68305 2.68302 4.29504 -0.925399 2.20612 0.303069 0.472108 -0.743136 28.5068 2.68305 2.68302 4.29504 -0.925434 2.20618 0.303065 0.471915 -0.742783 
26.982 1 964 43.1083 18.1752 17.2552 4.23786 0.267424 0.510424 -0.177906 -0.051498 0.848609 -21.7009 -1.50893 -7.09254 -1.4931 -0.275909 -0.883571 0.000248394 -0.000152146 0.000129645 43.1124 18.1755 17.2556 4.20604 0.258218 0.66219 -0.177959 -0.0514883 0.848829 43.1124 18.1755 17.2556 4.20606 0.258215 0.662112 -0.177853 -0.0515069 0.848391 
26.982 1 71 32.6881 6.87582 2.14684 -2.93664 -0.41278 -0.330595 -0.388497 0.643405 0.469803 -3.45162 -2.82395 -38.5408 -0.323296 -0.402492 -4.34486 -0.000104848 0.00014462 -0.00116805 32.685 6.87536 2.14617 -3.00611 -0.297704 -0.246589 -0.388528 0.643633 0.469849 32.685 6.87536 2.14617 -3.0061 -0.297786 -0.246605 -0.388465 0.643175 0.469757 
26.982 1 230 31.2499 3.00065 4.32163 3.27929 6.92862 -6.65396 -1.04642 -0.0942972 0.546781 -1.46453 -23.7092 -14.1435 -0.0999553 -2.66315 -1.61511 -0.000202667 -0.000761894 -0.000353656 31.2531 3.00753 4.31467 3.09217 6.91177 -6.55618 -1.0466 -0.0942645 0.546861 31.2531 3.00753 4.31467 3.09224 6.91176 -6.55621 -1.04624 -0.0943314 0.546701 
26.982 1 273 32.9658 5.03924 4.17979 -3.9354 -4.56225 -0.93624 0.329033 0.203375 0.271336 -0.106057 -3.1999 -6.33864 -0.012056 -0.400535 -0.685613 -7.13176e-06 -6.82318e-05 -4.11079e-05 32.9618 5.03462 4.17855 -3.87656 -4.52588 -0.887695 0.329064 0.203423 0.271511 32.9618 5.03462 4.17855 -3.87657 -4.52589 -0.887758 0.329004 0.203328 0.271161 
26.982 1 36 35.116 3.19249 3.9511 1.64289 4.86131 7.93346 0.442873 -0.0657736 0.078227 -2.59279 -26.1569 -33.0924 -0.363553 -2.86686 -3.41649 -1.65481e-06 -0.000375922 -0.000185835 35.1175 3.1973 3.95874 1.72211 4.84955 7.94745 0.443066 -0.0657843 0.0782397 35.1175 3.1973 3.95874 1.72204 4.84955 7.94745 0.442679 -0.0657632 0.0782141 
26.982 1 161 -2.47418 16.0913 1.64758 -0.620967 1.10609 4.52882 0.0392449 0.319739 0.132768 -9.10991 -8.09115 -24.3186 -0.917706 -0.815682 -2.40281 -0.000546374 -0.000149329 -0.000659986 -2.47461 16.0924 1.65177 -0.613926 1.16329 4.55259 0.0393802 0.319934 0.13292 -2.47461 16.0924 1.65177 -0.613974 1.16322 4.55253 0.0391104 0.319543 0.132618 
26.982 1 30 32.8178 3.0699 2.23489 -5.56737 0.607172 2.59768 0.110136 -0.248434 -0.570139 -0.911181 -18.2963 -34.8146 -0.117699 -2.06147 -3.37059 -0.000320904 -0.000591973 -0.000894644 32.8121 3.07045 2.23716 -5.54768 0.56274 2.49572 0.110133 -0.248514 -0.570259 32.8121 3.07045 2.23716 -5.54768 0.562769 2.49576 0.11014 -0.248354 -0.570019 
26.982 1 73 34.7167 5.02785 1.89036 5.7953 6.46183 0.646416 0.321315 0.081136 0.405609 2.59117 -3.66193 -34.6078 0.0745844 -0.361261 -3.48772 2.44405e-05 -2.60006e-05 -0.001087 34.7224 5.03428 1.89067 5.85278 6.47633 0.718954 0.32147 0.081114 0.405709 34.7224 5.03428 1.89067 5.85272 6.47634 0.718918 0.321161 0.0811574 0.405508 
26.982 1 35 37.6266 1.57557 4.07293 -2.14545 3.85324 1.25837 -0.512267 0.0363912 -0.50891 1.31844 -40.3632 -32.771 0.020778 -3.76232 -3.41341 -5.21406e-05 -0.000626749 -0.000510467 37.6244 1.57937 4.07389 -2.23705 3.85975 1.16737 -0.512345 0.0364197 -0.509003 37.6244 1.57937 4.07389 -2.23703 3.85974 1.1674 -0.51219 0.0363618 -0.508819 
26.982 1 77 38.8488 5.51274 1.52941 -3.32349 -5.61573 4.27746 0.374615 0.729276 0.611589 0.811235 -1.87512 -24.8688 0.153455 -0.156967 -3.44267 -0.000116499 6.0861e-05 -0.00100225 38.8453 5.50707 1.53335 -3.25651 -5.48532 4.38684 0.374638 0.729406 0.611721 38.8453 5.50707 1.53335 -3.25652 -5.48536 4.38679 0.374592 0.729145 0.611456 
26.982 1 75 37.1494 5.44807 4.05461 -0.137588 2.2721 -1.04836 0.105816 -0.0494702 -0.884618 1.94257 -2.27705 -36.6339 0.00259152 -0.23238 -3.61255 5.18375e-05 -2.74485e-05 -0.000304019 37.1491 5.45029 4.05326 -0.118656 2.26325 -1.20656 0.105892 -0.04948 -0.884774 37.1491 5.45029 4.05326 -0.118683 2.26325 -1.2065 0.105741 -0.0494619 -0.884465 
26.982 1 234 37.4256 3.46856 6.10183 -0.536873 -7.13073 -4.75129 0.00492298 0.224313 -0.280883 0.0502788 -20.1643 -11.7851 -0.108349 -2.20454 -1.23003 1.50779e-05 -0.000146264 -5.80779e-06 37.4249 3.46137 6.09681 -0.53599 -7.09061 -4.80151 0.00493766 0.224369 -0.28088 37.4249 3.46137 6.09681 -0.535996 -7.09063 -4.80152 0.00490771 0.224257 -0.280887 
26.982 1 40 39.4612 3.76999 3.80088 -5.4896 2.39066 0.105969 -0.456372 -0.128411 -0.0408879 5.85996 -26.5986 -36.7946 0.335785 -2.75598 -3.47906 -0.000133114 -0.000192475 -0.000166232 39.4556 3.77233 3.80068 -5.57122 2.36769 0.0986597 -0.456499 -0.128479 -0.040882 39.4556 3.77233 3.80068 -5.57118 2.36771 0.0986575 -0.456244 -0.128342 -0.0408938 
26.982 1 277 40.5433 4.44502 6.1945 -3.47057 0.0367528 -1.21381 -0.25877 -0.201953 0.209256 0.352262 -3.36786 -6.85448 0.0327242 -0.387228 -0.61532 -4.20443e-05 -0.000140196 1.86505e-05 40.5396 4.445 6.19302 -3.51685 0.000636035 -1.17639 -0.258877 -0.202005 0.209304 40.5396 4.445 6.19302 -3.51682 0.000654462 -1.17641 -0.258663 -0.201902 0.209205 
26.982 1 237 39.638 1.81342 5.99383 -1.95966 -3.75951 6.42003 0.187215 -0.361207 -0.117495 3.0656 -28.9752 -23.5992 0.244301 -3.11188 -2.33757 0.000137792 -0.000970775 1.65736e-05 39.6358 1.8096 5.99999 -1.92618 -3.8241 6.39903 0.187241 -0.361283 -0.117478 39.6358 1.8096 5.99999 -1.92619 -3.82407 6.39902 0.18719 -0.361132 -0.117513 
26.982 1 37 39.3342 1.68302 1.67748 4.84466 5.47205 -3.99323 -0.304676 0.386747 0.441003 0.428366 -20.4265 -29.2994 0.0316112 -2.11959 -3.24147 -5.85078e-05 -0.000735049 -0.000750551 39.3389 1.68843 1.67314 4.79018 5.54121 -3.91436 -0.304735 0.386833 0.441114 39.3389 1.68843 1.67314 4.7902 5.54118 -3.9144 -0.304616 0.386662 0.440892 
26.982 1 1 43.3058 2.35953 1.59973 -0.641949 6.58808 -7.0033 -0.0266127 -0.329265 -0.277616 -9.48784 -16.2985 -37.2278 -0.67913 -1.88337 -3.93745 0.000199749 -0.000686221 -0.000884387 43.305 2.36607 1.59237 -0.646706 6.52921 -7.05295 -0.0266051 -0.329289 -0.277689 43.305 2.36607 1.59237 -0.646709 6.52922 -7.05292 -0.0266218 -0.329239 -0.277542 
26.982 1 41 -3.61602 4.9598 2.05797 2.5178 -2.07411 -1.13327 0.0272554 0.699992 0.0603026 -11.3548 -12.0707 -27.1874 -0.980535 -0.912038 -3.22216 -0.000256846 -2.26531e-05 -0.000639432 -3.6133 4.95767 2.05649 2.5227 -1.9489 -1.12248 0.0274003 0.700292 0.0603532 -3.6133 4.95767 2.05649 2.52264 -1.94901 -1.1225 0.0271082 0.699689 0.0602515 
26.982 1 79 42.3999 4.56956 3.90465 2.50184 6.67768 0.0767586 -0.00343614 -0.107161 0.333886 -0.802311 -4.84841 -38.7967 0.0568831 -0.364472 -3.674 0.000116821 -5.18467e-05 -0.000105635 42.4022 4.57619 3.90442 2.50124 6.65852 0.136464 -0.00335431 -0.107148 0.333935 42.4022 4.57619 3.90442 2.50121 6.65852 0.136447 -0.00351785 -0.107174 0.333837 
26.982 1 238 42.6387 2.58878 6.0562 0.0450754 3.68145 0.558608 -0.141864 0.223632 -0.0609348 0.637388 -24.9484 -16.3569 0.274886 -2.8315 -1.49927 0.000448865 -0.000620504 -0.000398158 42.6385 2.59241 6.05649 0.0197079 3.72144 0.547711 -0.141884 0.223662 -0.060949 42.6385 2.59241 6.05649 0.019715 3.72143 0.547716 -0.141844 0.223601 -0.0609213 
26.982 1 39 41.4793 1.81204 3.61807 -6.05281 0.759217 5.53283 -0.090381 0.30722 0.272116 -3.98588 -18.5889 -33.3308 -0.221104 -2.4887 -3.26046 6.00447e-05 -0.000836526 -0.000335171 41.4731 1.81274 3.62329 -6.06898 0.814154 5.58149 -0.0904208 0.307266 0.272197 41.4731 1.81274 3.62329 -6.06897 0.814137 5.58146 -0.0903409 0.307174 0.272036 
26.982 1 124 43.8329 13.931 1.82692 4.7009 -3.48985 -5.4255 -0.445494 -0.272881 0.20547 -31.6809 -12.5691 -33.4747 -2.65309 -1.25667 -3.70035 -4.95047e-05 -7.31238e-05 -0.00104401 43.8374 13.9275 1.82115 4.62124 -3.53864 -5.38875 -0.445575 -0.272894 0.205549 43.8374 13.9275 1.82115 4.62127 -3.53863 -5.38877 -0.445412 -0.272869 0.205394 
26.982 1 43 -0.940106 6.54855 3.46549 5.17188 -2.41745 -2.59582 -0.552159 0.202469 -0.326037 -20.4988 -10.3548 -33.2985 -2.02057 -0.686496 -3.58491 -0.000276736 0.00012826 -0.000668715 -0.934749 6.54609 3.46257 5.07315 -2.38125 -2.65414 -0.552256 0.20245 -0.326172 -0.934749 6.54609 3.46257 5.07318 -2.38125 -2.65409 -0.552065 0.202486 -0.325906 
26.982 1 83 -0.286353 9.29462 3.50391 -2.76803 -4.11045 0.368252 -0.472351 -0.0585675 0.0552264 -22.6892 -8.95604 -34.1303 -1.97337 -1.03663 -3.81681 -9.17605e-05 -5.54243e-05 -0.000666783 -0.288951 9.29047 3.50397 -2.85248 -4.12094 0.378121 -0.472304 -0.0586496 0.0552004 -0.288951 9.29047 3.50397 -2.85249 -4.12091 0.37813 -0.472398 -0.0584845 0.0552509 
26.982 1 44 -3.22461 9.02417 3.19076 1.50454 -1.21361 2.88353 0.447765 -0.500557 0.285531 -6.78034 -19.6386 -33.5387 -0.868958 -1.62745 -3.59226 -0.000347265 -0.000507957 -0.000797532 -3.2229 9.02292 3.19334 1.58462 -1.30317 2.93459 0.447943 -0.500892 0.285595 -3.2229 9.02292 3.19334 1.58456 -1.30305 2.93457 0.447585 -0.500223 0.285465 
26.982 1 1170 6.36409 19.1469 19.7956 0.00419338 3.63486 -0.013084 0.053246 0.0223361 0.0107944 -6.91201 -2.52486 -24.2935 -0.928962 -0.373238 -2.00013 -0.000378967 0.000163152 8.3773e-05 6.36421 19.1505 19.7956 0.0137201 3.63885 -0.0111556 0.0532839 0.0223114 0.0107857 6.36421 19.1505 19.7956 0.0137063 3.63886 -0.0111523 0.0532069 0.0223628 0.0108039 
26.982 1 48 1.8378 6.92644 3.65162 -1.02314 0.953882 -4.22197 -0.0884338 -0.22263 0.337546 -6.12791 -1.71205 -32.7435 -0.570948 -0.0383886 -3.68426 1.83091e-05 -1.31769e-05 -0.000460901 1.83693 6.92735 3.64708 -1.03895 0.914068 -4.16161 -0.0884733 -0.222688 0.337615 1.83693 6.92735 3.64708 -1.03894 0.914088 -4.16163 -0.0883935 -0.222573 0.337477 
26.982 1 285 1.81483 9.17601 5.95608 2.4601 -2.3122 6.84658 0.373229 -0.280432 -0.446527 -2.64072 -0.394829 -5.25365 -0.179123 0.0128055 -0.617688 8.64466e-06 -0.000118812 -0.00017541 1.81744 9.17366 5.96267 2.52683 -2.36236 6.76672 0.373244 -0.280548 -0.446675 1.81744 9.17366 5.96267 2.52683 -2.36231 6.76677 0.373215 -0.280316 -0.446381 
26.982 1 87 4.50053 7.69469 3.35982 2.69458 -1.70902 3.77754 -0.518836 0.10813 -0.378362 -0.698437 -0.422528 -30.2198 -0.233985 -0.117445 -3.58155 -0.000160508 -0.000152629 -0.000584625 4.50336 7.69294 3.36329 2.6018 -1.68968 3.70988 -0.518934 0.108165 -0.378429 4.50336 7.69294 3.36329 2.60184 -1.68969 3.7099 -0.518737 0.108097 -0.378295 
26.982 1 246 3.98425 7.16689 6.13928 0.623857 -0.181486 -1.48289 0.523505 0.374272 -0.677026 -0.161979 -0.297014 -4.65677 -0.0793685 0.00922623 -0.547473 -4.04214e-05 8.26908e-05 -0.000167943 3.98501 7.16666 6.13754 0.717448 -0.114554 -1.60396 0.523466 0.374361 -0.677163 3.98501 7.16666 6.13754 0.717462 -0.114586 -1.60391 0.523544 0.374183 -0.67689 
26.982 1 88 2.25565 9.60764 2.95588 0.788379 3.93272 4.46976 -0.0619446 -0.05716 0.148495 -5.87388 -1.41018 -31.04 -0.521065 -0.241743 -3.56774 -0.000187596 -0.000183691 -0.000588333 2.2566 9.61154 2.96003 0.777291 3.9225 4.49632 -0.0620155 -0.0571888 0.148583 2.2566 9.61154 2.96003 0.777316 3.92251 4.49629 -0.0618742 -0.0571303 0.148406 
26.982 1 286 4.41458 10.1354 5.0042 -2.66973 -2.98667 0.105975 -0.00539911 -0.161054 0.0709179 -0.217971 0.0228802 -4.21229 -0.125789 -0.0103328 -0.482943 -6.58808e-05 -3.98927e-05 -6.05336e-05 4.41204 10.1324 5.00402 -2.6707 -3.01547 0.118657 -0.00546981 -0.16109 0.0709328 4.41204 10.1324 5.00402 -2.67068 -3.01546 0.118652 -0.00532814 -0.161017 0.0709042 
26.982 1 86 4.58827 10.217 1.91248 -3.76657 8.08014 0.835126 -0.127169 0.439097 -0.394005 -0.972438 -1.20445 -42.2187 -0.236834 -0.204099 -4.23386 1.31546e-05 5.34878e-05 -0.000993951 4.58462 10.2251 1.91298 -3.78932 8.15865 0.764671 -0.127197 0.439104 -0.394056 4.58462 10.2251 1.91298 -3.7893 8.15865 0.764689 -0.12714 0.439092 -0.393956 
26.982 1 289 6.62952 8.19041 4.91825 -1.81324 1.84376 -0.777487 0.0773021 -0.366278 -0.355461 0.117022 0.00247042 -4.561 -0.0425938 -0.0107139 -0.52506 -2.10678e-05 -3.86668e-05 -0.000192864 6.62782 8.19221 4.91718 -1.79942 1.77827 -0.841053 0.0772661 -0.366301 -0.355528 6.62782 8.19221 4.91718 -1.79941 1.77827 -0.841029 0.0773384 -0.366256 -0.355395 
26.982 1 52 6.7709 5.94428 3.07579 4.43518 -3.41126 4.5128 -0.329605 0.166788 0.131427 0.176488 -0.743754 -30.4937 -0.0900155 -0.283309 -3.68229 -1.62093e-05 -0.000168167 -0.000875239 6.77545 5.94082 3.07999 4.37625 -3.38143 4.53631 -0.329635 0.166833 0.131486 6.77545 5.94082 3.07999 4.37626 -3.38145 4.53629 -0.329573 0.166744 0.131369 
26.982 1 250 8.7964 6.50968 4.92075 1.91907 -8.38877 -3.7627 0.452863 0.0191569 -0.0595428 0.145288 -0.141412 -4.74867 -0.0160812 -0.0917125 -0.59291 7.03424e-05 -4.42149e-06 -0.000190281 8.79841 6.50124 4.91669 2.00005 -8.38535 -3.77335 0.452934 0.0191548 -0.059536 8.79841 6.50124 4.91669 2.00003 -8.38535 -3.77335 0.452793 0.0191587 -0.0595499 
26.982 1 89 6.43391 8.50714 1.50369 7.5422 -11.1206 -5.14493 0.878407 -0.304619 0.202914 1.63759 0.618031 -41.2978 0.0907538 -0.116248 -4.55868 0.000251436 -0.000214526 -0.00104743 6.44159 8.49597 1.49819 7.69927 -11.175 -5.10864 0.878474 -0.304651 0.202974 6.44159 8.49597 1.49819 7.69924 -11.175 -5.10866 0.878343 -0.304587 0.202854 
26.982 1 91 8.75442 8.94679 3.12808 -7.3535 -4.1075 -2.83252 0.282142 -0.569432 0.084276 2.61924 1.42824 -33.8066 0.231386 0.0585993 -3.4315 0.000162188 -0.000126036 -0.000800506 8.74716 8.94264 3.12493 -7.30305 -4.20934 -2.81745 0.282147 -0.569568 0.0843007 8.74716 8.94264 3.12493 -7.30306 -4.20929 -2.81746 0.282137 -0.569296 0.0842504 
26.982 1 829 28.4742 1.3068 16.295 -1.15813 -0.964448 -6.19786 0.367071 0.234619 -0.349515 0.925327 -26.9304 -20.8156 0.0620772 -2.79682 -2.1365 0.000192973 -0.000936565 -0.000211116 28.473 1.30577 16.2887 -1.09248 -0.922486 -6.26036 0.367163 0.234695 -0.34958 28.473 1.30577 16.2887 -1.09252 -0.922513 -6.26034 0.366977 0.234543 -0.34945 
26.982 1 293 11.2045 8.80423 4.80992 -1.1663 1.00053 -2.27556 -0.549378 0.346229 0.537665 0.108489 0.292091 -5.62617 0.01846 0.014276 -0.588801 -0.000114296 4.25168e-05 -0.000100879 11.2034 8.8052 4.80736 -1.26455 1.06244 -2.17941 -0.549482 0.346265 0.537757 11.2034 8.8052 4.80736 -1.26451 1.06243 -2.17945 -0.549275 0.346193 0.537573 
26.982 1 56 10.9801 6.79754 3.0522 -0.602053 -1.35431 0.0462681 -0.107274 0.420656 -0.280962 0.850012 2.36053 -33.2138 0.0748964 0.156255 -3.57364 -0.000131695 2.50673e-05 -0.00102719 10.9795 6.79614 3.05192 -0.621239 -1.27908 -0.00398395 -0.107309 0.420743 -0.281061 10.9795 6.79614 3.05192 -0.621227 -1.27911 -0.00394836 -0.10724 0.420569 -0.280862 
26.982 1 95 13.0893 8.9773 2.58357 -0.797681 0.195289 -1.09459 -0.282987 0.112582 0.633761 -0.287219 2.29559 -37.4789 0.00875004 0.15088 -4.08136 -1.82854e-05 -3.44574e-05 -0.00101815 13.0886 8.97746 2.58215 -0.84827 0.215417 -0.98127 -0.282953 0.112578 0.633788 13.0886 8.97746 2.58215 -0.848282 0.215418 -0.98128 -0.283023 0.112586 0.633735 
26.982 1 254 13.2804 7.14104 4.67379 4.13959 -4.99687 3.69515 0.183323 -0.706987 0.115172 0.0599326 -0.00992843 -5.30089 0.0145672 0.0210287 -0.607809 6.1485e-05 -0.000100386 -0.00025639 13.2846 7.136 4.6772 4.17237 -5.12329 3.71573 0.183385 -0.707082 0.115111 13.2846 7.136 4.6772 4.17235 -5.12326 3.71575 0.183262 -0.706893 0.115233 
26.982 1 60 15.5242 6.85236 3.02469 -1.4874 -2.62174 -5.3491 -0.320229 -0.239555 -0.131396 -0.206998 1.56348 -33.9887 -0.0177056 0.188468 -3.66515 -4.47445e-05 5.99489e-06 -0.000988814 15.5227 6.84969 3.01902 -1.54467 -2.66457 -5.37261 -0.320348 -0.239554 -0.131502 15.5227 6.84969 3.01902 -1.54463 -2.66457 -5.37257 -0.320109 -0.23956 -0.131289 
26.982 1 297 15.2627 9.04725 4.90145 -1.95013 0.593401 -5.68162 -0.0349369 0.136491 -0.35657 0.0438038 0.336384 -6.01527 0.0264018 0.01721 -0.687606 1.65908e-05 0.000115043 -0.000255983 15.2607 9.04781 4.89548 -1.95637 0.617825 -5.74539 -0.0349337 0.136609 -0.356655 15.2607 9.04781 4.89548 -1.95638 0.617783 -5.74536 -0.0349408 0.136373 -0.356485 