ITEM: TIMESTEP
9000
ITEM: NUMBER OF ATOMS
4000
ITEM: BOX BOUNDS pp pp pp
-1.90337 42.4034
0.526337 39.9737
0.515245 39.9848
ITEM: ATOMS mass type id x y z vx vy vz fx fy fz xrad yrad zrad vxrad vyrad vzrad fxrad fyrad fzrad xub yub zub vxub vyub vzub fxub fyub fzub xlb ylb zlb vxlb vylb vzlb fxlb fylb fzlb 
26.982 1 43 0.467793 4.37149 2.53593 -2.91352 0.896194 3.24881 -0.489098 0.0336662 -0.206485 -5.17731 -3.59814 -8.11545 -1.20778 -0.62971 -1.769 -0.000546146 5.9454e-05 -0.000503571 0.465056 4.37232 2.53914 -3.00099 0.902211 3.21188 -0.48922 0.0336551 -0.206568 0.465056 4.37232 2.53914 -3.00094 0.902215 3.21191 -0.488975 0.033677 -0.206401 
26.982 1 202 0.291776 2.55257 4.57306 5.07367 1.12095 -2.56245 0.131169 0.185062 -0.0446531 -4.86786 -5.00278 -4.896 -1.16968 -1.00328 -1.13345 -0.000431146 -0.00028552 -0.000363763 0.297035 2.55362 4.57046 5.09713 1.15404 -2.57043 0.13119 0.1851 -0.0446449 0.297034 2.55362 4.57046 5.09712 1.15403 -2.57043 0.131148 0.185023 -0.0446612 
26.982 1 4 -1.89717 2.59253 2.49012 0.771515 1.32787 -0.780946 -0.091193 0.151104 0.162938 -4.67168 -6.53021 -7.45867 -1.1625 -1.35092 -1.53145 -0.000655916 -0.000288033 -0.000213963 -1.89619 2.59379 2.4893 0.755201 1.35489 -0.751807 -0.0912441 0.151159 0.16297 -1.89619 2.59379 2.4893 0.755219 1.35487 -0.751818 -0.091141 0.151048 0.162908 
26.982 1 2 0.155369 2.43267 0.419275 -3.11787 4.47893 -0.181281 0.461105 0.504441 -0.0899389 -3.56881 -5.0018 -8.94163 -0.74213 -1.17167 -2.0735 -0.000193896 -0.000364368 -0.000672678 0.152432 2.43708 0.419044 -3.0354 4.56914 -0.19737 0.461217 0.504557 -0.089987 0.152432 2.43708 0.419044 -3.03544 4.5691 -0.197353 0.460993 0.504325 -0.0898901 
26.982 1 8 2.51423 2.52628 2.60969 -2.19685 -5.57555 -5.34707 0.196328 -0.259297 -0.0409522 1.42028 -7.86741 -7.92746 0.240151 -1.69454 -1.90819 -3.94036e-05 -0.00075954 -0.000464947 2.5122 2.52063 2.6043 -2.16174 -5.62193 -5.3544 0.196357 -0.259395 -0.0409783 2.5122 2.52063 2.6043 -2.16175 -5.62189 -5.35439 0.196298 -0.259198 -0.0409256 
26.982 1 45 2.76614 4.33722 0.684934 -3.3817 -1.34409 -2.20781 -0.796023 0.101613 -0.799245 -0.468157 -1.80537 -7.71469 -0.0233338 -0.261197 -1.87335 -0.000111098 0.0001888 -0.00114943 2.76292 4.33581 0.682674 -3.52407 -1.32592 -2.35074 -0.796234 0.101618 -0.79942 2.76292 4.33581 0.682674 -3.52399 -1.32592 -2.35068 -0.795812 0.101609 -0.79907 
26.982 1 205 2.38916 0.580525 4.43831 -4.41092 3.31973 -0.669681 0.366978 -0.247877 0.0991819 0.314203 -4.89295 -4.60339 0.0417004 -1.61398 -1.4528 1.87703e-05 -0.000763106 -0.000742682 2.38491 0.583774 4.4376 -4.34529 3.2754 -0.651945 0.36707 -0.247953 0.0991989 2.38491 0.583774 4.4376 -4.34532 3.27542 -0.651951 0.366884 -0.247799 0.099165 
26.982 1 245 2.62618 4.62706 4.48517 -0.442359 5.69673 5.49594 -0.122272 -0.479299 0.445657 -0.480077 -1.2216 -1.54448 -0.115854 -0.219492 -0.359964 -8.33934e-05 -0.000120014 4.08685e-05 2.6259 4.63271 4.49063 -0.464228 5.61102 5.57565 -0.122308 -0.479391 0.445791 2.6259 4.63271 4.49063 -0.464215 5.61105 5.5756 -0.122236 -0.479206 0.445525 
26.982 1 47 4.71311 4.48196 2.49311 1.26465 2.48217 -2.32626 0.454368 -0.15905 0.513913 -0.773345 -2.48302 -7.41832 -0.0788844 -0.402662 -1.8889 0.000312525 0.000106196 -0.000567856 4.71452 4.48439 2.49074 1.3459 2.45373 -2.23435 0.454465 -0.159057 0.514026 4.71452 4.48439 2.49074 1.34587 2.45373 -2.23439 0.45427 -0.159044 0.513801 
26.982 1 206 4.76515 2.59522 4.56734 1.65909 -1.58014 5.79352 0.00925031 -0.0299444 -0.123807 -0.44248 -7.71632 -4.666 -0.0131146 -1.50514 -1.02792 3.22501e-05 -0.00040262 -0.000344416 4.76695 2.59357 4.5731 1.66075 -1.5855 5.77138 0.00926851 -0.0299643 -0.123835 4.76695 2.59357 4.5731 1.66075 -1.58549 5.77139 0.00923212 -0.0299231 -0.12378 
26.982 1 12 6.84612 2.48083 2.60503 -0.742805 -1.60457 -0.0445136 0.305521 -0.034673 -0.0752503 -1.6003 -9.50649 -6.47356 -0.377182 -1.85117 -1.63188 4.64869e-05 -0.000484061 -0.000686743 6.8455 2.47916 2.60494 -0.688156 -1.61078 -0.057973 0.305649 -0.0347106 -0.0752774 6.8455 2.47916 2.60494 -0.688202 -1.61077 -0.0579633 0.305392 -0.0346346 -0.0752233 
26.982 1 249 7.10488 4.45851 4.51252 0.155319 2.59109 4.4843 -0.268872 0.129688 -0.279764 -0.107907 -1.09723 -1.12848 -0.0261314 -0.210422 -0.297018 -6.96896e-05 -1.96104e-05 -0.000206022 7.10516 4.46104 4.51698 0.107236 2.61429 4.43427 -0.268928 0.129721 -0.279835 7.10516 4.46104 4.51698 0.107256 2.61428 4.43429 -0.268817 0.129655 -0.279693 
26.982 1 6 4.73776 2.43621 0.536766 0.187579 0.679782 1.00515 0.107125 -0.141559 0.231182 -1.50429 -4.77629 -7.31483 -0.200395 -1.20836 -1.65972 0.000215338 -0.000526207 -0.000766393 4.73809 2.43683 0.537724 0.206741 0.654453 1.0465 0.107175 -0.14166 0.231239 4.73809 2.43683 0.537723 0.206723 0.654489 1.04648 0.107074 -0.141458 0.231126 
26.982 1 209 7.04282 0.586732 4.56479 2.37568 3.59967 3.41908 -0.0284425 -0.276848 -0.100713 -0.474513 -6.8637 -6.44951 -0.0950724 -1.69256 -1.46966 1.10934e-05 -0.000802508 -0.000711675 7.04532 0.59026 4.56817 2.3706 3.55016 3.40106 -0.0284149 -0.276925 -0.100782 7.04532 0.59026 4.56817 2.37059 3.55019 3.40109 -0.0284696 -0.27677 -0.100643 
26.982 1 51 9.36266 4.53192 2.49782 -1.19363 4.29719 1.36943 -0.520229 -0.609989 0.102708 0.144976 -1.21476 -6.07856 -0.00972544 -0.250631 -1.48558 -0.00030988 -0.00025163 -0.000393669 9.36157 4.53617 2.49915 -1.28668 4.1881 1.38779 -0.520372 -0.610149 0.102652 9.36157 4.53617 2.49915 -1.28662 4.18815 1.38781 -0.520086 -0.609829 0.102763 
26.982 1 210 9.1116 2.55023 4.51466 -2.82286 0.487488 7.2672 0.544966 -0.426525 -0.321805 0.146493 -6.70956 -3.74882 0.127103 -1.42849 -0.780466 0.000267097 -0.000593814 -0.000371179 9.10888 2.55065 4.52189 -2.7254 0.411201 7.20964 0.545102 -0.426669 -0.321924 9.10888 2.55065 4.52189 -2.72545 0.411252 7.20968 0.54483 -0.426381 -0.321686 
26.982 1 53 11.5275 4.45926 0.487283 3.02862 -0.422536 -4.02118 -0.24548 -0.238411 -0.478503 0.974526 -0.737837 -11.1493 0.121299 -0.0806589 -2.36386 -0.000147571 -0.000134362 -0.00108658 11.5306 4.45878 0.48321 2.98472 -0.465185 -4.10676 -0.245566 -0.238536 -0.478653 11.5306 4.45878 0.48321 2.98475 -0.46514 -4.10671 -0.245394 -0.238284 -0.478353 
26.982 1 10 9.01682 2.35617 0.576075 0.233544 -0.887718 -1.55824 0.352114 0.465249 -0.120855 0.00778544 -6.10927 -10.8838 -0.0178567 -1.25521 -2.45357 -0.000143104 -0.000488732 -0.000685711 9.01715 2.35522 0.574465 0.296515 -0.804511 -1.57985 0.35219 0.465374 -0.120879 9.01715 2.35522 0.574465 0.296487 -0.804555 -1.57984 0.352038 0.465124 -0.120831 
26.982 1 16 11.3558 2.54419 2.53915 -1.29577 -2.79567 -0.551927 -0.0478521 -0.143512 -0.202009 1.84653 -8.9921 -7.13407 0.343865 -1.95928 -1.6064 -0.000227983 -0.000858939 -0.00026284 11.3546 2.54132 2.53855 -1.30434 -2.82135 -0.588057 -0.0479138 -0.14359 -0.202073 11.3546 2.54132 2.53855 -1.30431 -2.82132 -0.588034 -0.0477899 -0.143434 -0.201944 
26.982 1 253 11.3653 4.5467 4.53648 2.36182 0.892854 -2.73441 0.162808 -0.340873 0.0866196 0.132071 -1.13454 -1.2264 0.0259067 -0.258449 -0.29305 1.27908e-05 -0.000216147 1.71815e-05 11.3677 4.54754 4.5337 2.39093 0.831883 -2.71892 0.162832 -0.341006 0.0866712 11.3677 4.54754 4.5337 2.39092 0.83193 -2.71893 0.162784 -0.340739 0.0865694 
26.982 1 55 13.6578 4.51534 2.40831 -4.1714 -5.07022 1.9861 0.219161 -0.179214 -0.164051 0.0858532 -2.59347 -8.20462 0.061828 -0.491202 -1.89798 1.37025e-05 -9.84498e-05 -0.000231481 13.6537 4.5102 2.41025 -4.1322 -5.10228 1.95677 0.219208 -0.179293 -0.164072 13.6537 4.5102 2.41025 -4.13222 -5.10225 1.95677 0.219114 -0.179135 -0.16403 
26.982 1 214 13.4811 2.65691 4.3156 3.4854 1.04117 0.981916 0.320941 -0.0589804 0.504848 0.810304 -7.68157 -4.26931 0.0391648 -1.59701 -0.899303 -0.000175704 -0.000359406 1.45357e-05 13.4846 2.65789 4.31654 3.54279 1.03062 1.0722 0.320965 -0.0589873 0.504929 13.4846 2.65789 4.31654 3.54278 1.03062 1.07217 0.320918 -0.0589727 0.504767 
26.982 1 257 15.777 4.44141 4.39432 3.37958 -2.53279 -3.14013 0.214688 -0.202437 -0.388196 -0.112163 -1.34908 -1.24296 -0.0102411 -0.266197 -0.321731 7.32432e-05 -9.40248e-05 -4.94363e-05 15.7804 4.43882 4.39114 3.41797 -2.56899 -3.20954 0.214755 -0.202492 -0.388225 15.7804 4.43882 4.39114 3.41795 -2.56897 -3.20953 0.214622 -0.202382 -0.388167 
26.982 1 15 13.6962 0.507278 2.66183 -1.76315 -3.31057 1.13498 -0.138716 -0.0918223 -0.720694 -0.344567 -3.3779 -9.50447 -0.202833 -1.07252 -1.94788 -0.000418577 -0.00095375 -0.000318385 13.6945 0.503889 2.66293 -1.78795 -3.32698 1.00608 -0.138747 -0.091831 -0.720923 13.6945 0.503889 2.66293 -1.78794 -3.32698 1.00617 -0.138686 -0.0918129 -0.720464 
26.982 1 17 15.8007 0.547643 0.508174 -4.23325 2.87452 -2.93557 0.0674535 -0.0673688 0.0780707 -0.888585 -3.20688 -5.94317 -0.0997879 -0.703457 -1.42376 0.000139016 -0.000760253 -0.000578137 15.7965 0.550443 0.505185 -4.22119 2.86247 -2.92161 0.067439 -0.0674318 0.0781082 15.7965 0.550443 0.505185 -4.22119 2.86249 -2.92162 0.0674681 -0.0673053 0.0780327 
26.982 1 14 13.6074 2.54264 0.473568 -0.00135877 1.82302 4.8416 -0.0171361 -0.192233 0.289636 0.513695 -5.71426 -5.40313 0.119657 -1.18821 -1.4596 -0.000206253 -0.000457362 -0.000919225 13.6074 2.5444 0.478364 -0.00442881 1.78863 4.89339 -0.0171706 -0.192317 0.289691 13.6074 2.5444 0.478364 -0.00441634 1.78866 4.89337 -0.0171008 -0.192148 0.289581 
26.982 1 20 15.9476 2.44134 2.53762 4.07739 -0.65095 0.337522 -0.300391 -0.0748818 -0.0915229 -2.6058 -9.49487 -6.57303 -0.342567 -1.91325 -1.6656 0.000124129 -0.000426506 -0.000200908 15.9517 2.44062 2.53792 4.02367 -0.664351 0.321155 -0.300439 -0.074948 -0.0915394 15.9517 2.44062 2.53792 4.02369 -0.664327 0.321161 -0.300342 -0.0748148 -0.0915059 
26.982 1 218 18.2198 2.44322 4.38289 -7.38449 -1.2102 -1.66005 -0.251251 -0.261257 0.166064 -0.766103 -7.2401 -2.98196 -0.0813751 -1.54022 -0.765053 0.000206163 -0.000635122 -0.000204949 18.2124 2.44194 4.38119 -7.42942 -1.25693 -1.63035 -0.251292 -0.261335 0.16614 18.2124 2.44194 4.38119 -7.42941 -1.2569 -1.63037 -0.251211 -0.261179 0.165987 
26.982 1 59 18.0672 4.33868 2.50848 3.21512 3.4241 1.67218 0.0295093 0.535526 0.00171294 0.193947 -0.621574 -6.39408 0.0173699 -0.179572 -1.66089 5.26736e-05 -2.81824e-05 -0.000138971 18.0705 4.34205 2.5101 3.2204 3.51986 1.67249 0.0295213 0.535626 0.001757 18.0705 4.34205 2.5101 3.22039 3.51983 1.67248 0.0294975 0.535426 0.0016684 
26.982 1 24 20.3066 2.37024 2.32163 5.31706 -1.3284 1.51717 -0.212897 0.459006 0.293385 0.689672 -7.36585 -5.43352 0.106225 -1.65782 -1.42014 2.76888e-05 -0.000960013 -0.000104338 20.3119 2.36885 2.32311 5.27899 -1.24631 1.56963 -0.212942 0.459093 0.293441 20.3119 2.36885 2.32311 5.279 -1.24634 1.56961 -0.212852 0.458921 0.293329 
26.982 1 261 20.2996 4.5875 4.31191 0.0981178 3.48145 -4.4813 0.0583448 -0.318264 0.145852 0.0580505 -0.996911 -1.21451 0.015914 -0.226644 -0.318108 5.18694e-05 -0.000211401 -5.28983e-05 20.2997 4.59093 4.30739 0.108555 3.42452 -4.45522 0.0583768 -0.318353 0.145854 20.2997 4.59093 4.30739 0.108544 3.42456 -4.45522 0.058313 -0.318176 0.14585 
26.982 1 217 15.7369 0.553952 4.50087 -1.36718 1.14308 2.79834 0.600404 -0.0994366 -0.317946 0.0818411 -2.9051 -2.90922 0.0646457 -1.03291 -0.934354 0.000233277 -0.000709754 -0.000485716 15.7355 0.555022 4.50363 -1.2598 1.1253 2.74148 0.600585 -0.0994439 -0.318027 15.7355 0.555022 4.50363 -1.25986 1.12531 2.74151 0.600223 -0.0994287 -0.317865 
26.982 1 57 15.7856 4.42073 0.526106 -6.80624 -0.338939 -1.40373 0.0641424 -0.081027 -0.222645 -1.29214 -1.43724 -10.8494 -0.166547 -0.277319 -2.06918 1.98989e-06 -8.66315e-05 -0.00103486 15.7788 4.42033 0.52465 -6.79477 -0.353432 -1.44354 0.0641244 -0.0810616 -0.222665 15.7788 4.42033 0.52465 -6.79476 -0.35342 -1.44354 0.0641614 -0.0809907 -0.222625 
26.982 1 61 20.1316 4.41673 0.453507 0.0165646 2.19424 0.568231 0.112682 -0.18085 -0.155583 0.469571 0.0172631 -8.84974 0.0486692 -0.0292349 -1.8376 6.33065e-05 -9.32753e-05 -0.00103266 20.1316 4.41886 0.454027 0.0367206 2.1619 0.540409 0.112731 -0.180878 -0.155607 20.1316 4.41886 0.454027 0.0367029 2.16191 0.540418 0.112632 -0.180823 -0.155558 
26.982 1 18 17.9493 2.53923 0.509687 -2.20675 8.55478 -1.12005 0.125546 -0.307032 -0.0987105 -0.716506 -5.17312 -11.8034 -0.131175 -1.14016 -2.29396 0.000219304 -0.000604253 -0.000841886 17.9471 2.54773 0.508513 -2.1843 8.49986 -1.1377 0.125568 -0.307128 -0.098711 17.9471 2.54773 0.508513 -2.1843 8.4999 -1.1377 0.125523 -0.306934 -0.0987106 
26.982 1 63 22.4928 4.41898 2.47857 0.884247 -3.69314 -0.432328 -0.168923 0.107638 0.0376164 0.301405 -0.389806 -7.89817 0.138373 -0.136247 -1.94615 0.000144779 -0.000128339 -0.000347923 22.4937 4.41522 2.4781 0.854035 -3.67389 -0.425597 -0.168974 0.107664 0.0376485 22.4937 4.41522 2.4781 0.854053 -3.6739 -0.425608 -0.168873 0.107612 0.0375846 
26.982 1 222 22.5459 2.44292 4.38941 -4.68923 0.122285 0.0129756 -0.310484 0.420362 0.220472 -0.474184 -6.29243 -3.37736 0.0151676 -1.48151 -0.823727 -2.69176e-05 -0.000708295 -0.000218348 22.5412 2.44297 4.38938 -4.74475 0.197466 0.052407 -0.310545 0.420484 0.220537 22.5412 2.44297 4.38938 -4.74473 0.197423 0.0523836 -0.310423 0.420242 0.220406 
26.982 1 22 22.3594 2.52072 0.497363 -6.27919 -1.44754 -1.03937 0.285095 -0.0613688 -0.43462 0.64965 -5.05777 -10.1192 0.257963 -1.1921 -2.16078 0.000146184 -0.000456427 -0.000797429 22.3531 2.5192 0.496275 -6.2282 -1.45852 -1.1171 0.285158 -0.0614161 -0.434742 22.3531 2.5192 0.496275 -6.22822 -1.4585 -1.11706 0.285032 -0.061321 -0.434498 
26.982 1 28 24.6915 2.51224 2.49859 -0.862472 2.87234 1.33551 -0.328285 0.141112 -0.21841 -0.7985 -5.68822 -7.1588 -0.061156 -1.39875 -1.78944 0.000116772 -0.000540738 -0.000378803 24.6906 2.51504 2.49989 -0.921183 2.89757 1.29644 -0.328367 0.141101 -0.218477 24.6906 2.51504 2.49989 -0.921154 2.89757 1.29647 -0.328204 0.141123 -0.218342 
26.982 1 265 24.6618 4.61795 4.42141 7.31945 6.23332 2.4222 -0.290771 -0.429484 0.224307 -0.0135558 -0.762593 -1.43089 0.00391249 -0.216364 -0.394073 -4.12534e-05 -0.000214483 -7.43917e-05 24.6691 4.62413 4.42379 7.26745 6.15652 2.46232 -0.290836 -0.429562 0.224367 24.6691 4.62413 4.42379 7.26748 6.15655 2.4623 -0.290706 -0.429406 0.224248 
26.982 1 67 26.6935 4.44179 2.34909 2.27933 4.5495 0.427477 0.337946 0.117224 0.053453 0.311876 -0.126609 -9.20528 0.0673078 -0.123676 -2.37557 0.000220011 -0.000159171 -0.000973879 26.6957 4.44629 2.34947 2.33978 4.57045 0.437035 0.338067 0.1172 0.0534576 26.6957 4.44629 2.34947 2.33973 4.57046 0.437034 0.337824 0.117248 0.0534486 
26.982 1 226 26.7142 2.5354 4.36293 2.42098 -0.902088 -0.883791 0.718403 0.242779 0.42624 0.378623 -4.86749 -2.23641 -0.0511708 -1.20841 -0.657056 0.000102615 -0.000681395 -0.000266006 26.7165 2.53443 4.36201 2.54946 -0.858677 -0.807563 0.718608 0.242797 0.426343 26.7165 2.53443 4.36201 2.54939 -0.858683 -0.8076 0.718197 0.242761 0.426135 
26.982 1 32 29.2127 2.39053 2.51005 0.435779 2.87123 -0.951759 -0.585296 0.820868 0.0885769 0.113576 -5.74361 -7.41144 0.0314248 -1.15519 -1.93471 -0.000356797 -0.000223945 -0.000412586 29.2131 2.39334 2.50906 0.331097 3.01803 -0.935915 -0.58548 0.821037 0.0886144 29.2131 2.39334 2.50906 0.331163 3.01797 -0.935928 -0.585113 0.8207 0.0885391 
26.982 1 25 24.7897 0.628348 0.61007 -0.865063 -4.37792 -3.12077 -0.314714 -0.249236 -0.579014 0.346597 -4.54536 -4.84947 0.135626 -0.849263 -1.0651 0.000146397 -0.000508949 -0.000364566 24.7888 0.62389 0.606896 -0.921339 -4.42249 -3.22432 -0.314749 -0.249274 -0.579122 24.7888 0.62389 0.606896 -0.921326 -4.42248 -3.22428 -0.314679 -0.249197 -0.578905 
26.982 1 29 29.2107 0.655317 0.577955 1.14585 -0.933979 -0.62097 -0.548595 -0.283087 -0.490136 -0.328952 -6.83282 -8.46986 0.00212971 -1.43205 -1.90322 -0.000198236 -0.000361187 -0.000616605 29.2118 0.654308 0.577283 1.04773 -0.984598 -0.708627 -0.54879 -0.283107 -0.490266 29.2118 0.654308 0.577283 1.0478 -0.98459 -0.708581 -0.548399 -0.283066 -0.490005 
26.982 1 269 29.1396 4.35713 4.56259 6.28096 -0.723538 4.23854 -0.143375 -0.183791 -0.408498 -0.0645643 -0.738444 -1.50575 -0.00888808 -0.177394 -0.424341 -8.91756e-05 -0.000141649 -0.000215983 29.1458 4.35634 4.56679 6.25531 -0.756404 4.1655 -0.143451 -0.183817 -0.408546 29.1458 4.35634 4.56679 6.25534 -0.756395 4.16551 -0.1433 -0.183765 -0.408452 
26.982 1 71 31.2541 4.28607 2.47739 2.36041 1.37136 5.01262 0.0513667 0.683602 -0.182792 -0.766922 -0.201772 -7.6361 -0.189145 -0.106519 -2.13851 -1.71631e-05 0.000116833 -0.000995073 31.2564 4.28739 2.48237 2.3696 1.49362 4.97993 0.0513566 0.683794 -0.182812 31.2564 4.28739 2.48237 2.3696 1.49355 4.97994 0.0513775 0.68341 -0.182774 
26.982 1 230 31.3966 2.45054 4.40907 -2.99728 -1.70712 5.08573 -0.117303 -0.270122 0.279139 -0.645755 -5.5955 -2.8321 -0.0259031 -1.30109 -0.769954 1.88333e-05 -0.000540673 -0.000135387 31.3935 2.44877 4.41412 -3.01826 -1.75543 5.13565 -0.11734 -0.270162 0.279223 31.3935 2.44877 4.41412 -3.01824 -1.75541 5.13562 -0.117265 -0.270081 0.279055 
26.982 1 273 33.5933 4.21483 4.17217 -2.52367 1.06004 -0.260017 -0.190447 0.593039 0.636909 0.0286221 -0.562658 -1.21807 -0.00807795 -0.176486 -0.345913 -1.73148e-05 -4.13784e-06 -0.000131335 33.5906 4.21583 4.17187 -2.55772 1.1661 -0.146124 -0.190449 0.593198 0.637001 33.5906 4.21583 4.17187 -2.55772 1.16605 -0.146157 -0.190446 0.59288 0.636817 
26.982 1 31 31.3308 0.546037 2.41304 2.34685 -0.683578 -5.06152 0.342902 0.0811819 0.225545 -1.38958 -8.24456 -6.91468 -0.139492 -1.51025 -1.65062 0.000235747 -0.00081668 -0.000237482 31.333 0.545277 2.40794 2.40818 -0.66907 -5.02118 0.343006 0.0811411 0.225608 31.333 0.545277 2.40793 2.40814 -0.669055 -5.02121 0.3428 0.0812234 0.225482 
26.982 1 36 33.4714 2.44216 2.1728 1.38466 -1.79501 -1.65671 0.164817 -0.247989 0.441798 -0.446528 -5.71719 -7.09586 -0.118816 -1.43496 -1.84315 0.000243089 -0.000525141 -0.000816641 33.4727 2.44029 2.17109 1.41414 -1.83936 -1.5777 0.164894 -0.248036 0.441886 33.4727 2.44029 2.17109 1.41412 -1.83934 -1.57773 0.16474 -0.247942 0.44171 
26.982 1 75 35.7547 4.3097 2.54773 -3.84018 2.72283 -2.89454 0.0534017 0.341387 -0.321902 1.48666 -0.319325 -9.02497 0.156215 -0.224711 -2.10027 -0.000196808 -0.000320463 -0.000651275 35.7507 4.31236 2.54478 -3.83063 2.78387 -2.95211 0.0533985 0.341399 -0.321937 35.7507 4.31236 2.54478 -3.83063 2.78387 -2.95209 0.0534046 0.341375 -0.321868 
26.982 1 234 35.7599 2.3513 4.44072 -3.34971 2.44606 0.179041 0.253737 -0.121252 -0.209755 0.351885 -4.13647 -2.16693 -0.00381991 -1.09485 -0.6226 -0.000137819 -0.000595116 -0.000458434 35.7564 2.35368 4.44086 -3.30433 2.42437 0.141521 0.25383 -0.121321 -0.209848 35.7564 2.35368 4.44086 -3.30436 2.42439 0.141554 0.253642 -0.121183 -0.209663 
26.982 1 40 38.0611 2.46468 2.25405 3.15453 0.360004 -2.01763 -0.346843 -0.285591 0.381999 2.77717 -5.70803 -9.7601 0.247908 -1.33086 -2.08234 -0.000427044 -0.000636101 -0.000508977 38.0641 2.46497 2.25198 3.0925 0.30892 -1.94931 -0.346927 -0.285712 0.382114 38.0641 2.46497 2.25198 3.09253 0.308963 -1.94935 -0.34676 -0.28547 0.381884 
26.982 1 237 38.2138 0.683789 4.48588 2.01829 -1.68567 -0.478874 -0.377328 -0.413117 0.0024406 1.37657 -7.1785 -5.59377 0.137897 -1.55197 -1.1989 -0.000175024 -0.000758684 -0.000533231 38.2156 0.682027 4.48536 1.95081 -1.75955 -0.478443 -0.377434 -0.413195 0.00241119 38.2156 0.682027 4.48536 1.95085 -1.75952 -0.478433 -0.377224 -0.413041 0.00246885 
26.982 1 77 37.9564 4.60312 0.578002 1.30015 -4.80422 -0.8852 -0.281184 -0.371795 -0.262711 -0.153656 -0.544697 -3.05165 -0.0327566 -0.180845 -1.05061 -4.39363e-05 -5.73206e-05 -0.00112088 37.9576 4.59825 0.577065 1.24986 -4.8707 -0.93219 -0.281265 -0.371827 -0.262813 37.9576 4.59825 0.577065 1.24989 -4.87069 -0.932153 -0.281103 -0.371763 -0.262608 
26.982 1 1 42.462 0.503031 0.697603 10.661 -3.68634 -1.15634 -0.239502 0.107962 -0.560556 -2.93081 -3.75104 -9.48749 -0.498779 -0.954858 -1.89834 0.000157098 -0.000706917 -0.000491666 42.4725 0.499268 0.696395 10.6182 -3.66703 -1.25659 -0.239594 0.107979 -0.560716 42.4725 0.499268 0.696395 10.6182 -3.66704 -1.25653 -0.23941 0.107944 -0.560396 
26.982 1 39 40.3078 0.570296 2.4758 -1.8544 -4.32332 -3.23388 -0.20574 0.119113 -0.119135 -1.20756 -2.67425 -8.93899 -0.214296 -1.14543 -1.68797 -3.30657e-05 -0.000906147 -0.00019637 40.3057 0.565896 2.47252 -1.89119 -4.30202 -3.25519 -0.205799 0.119143 -0.119175 40.3057 0.565896 2.47252 -1.89117 -4.30203 -3.25517 -0.205679 0.119083 -0.119095 
26.982 1 277 37.9148 4.55799 4.32255 -3.0849 1.82702 2.17238 0.134146 -0.524058 0.522356 0.143489 -0.768495 -1.79409 0.0159126 -0.179443 -0.396064 2.50032e-05 -0.000178144 4.41481e-05 37.9115 4.55976 4.32468 -3.06091 1.73329 2.2658 0.134178 -0.524196 0.522485 37.9115 4.55976 4.32468 -3.06092 1.73334 2.26576 0.134115 -0.52392 0.522228 
26.982 1 241 42.49 4.60418 4.49235 6.60911 1.71343 0.454108 -0.201242 -0.465978 0.0501367 -4.71311 -4.8765 -5.52451 -0.821018 -0.849324 -1.03361 -6.40141e-05 -0.000159104 -0.00016205 42.4964 4.60584 4.49277 6.57312 1.6301 0.463068 -0.201318 -0.466067 0.0501145 42.4964 4.60584 4.49277 6.57315 1.63013 0.463076 -0.201167 -0.465889 0.0501589 
26.982 1 79 40.0984 4.55444 2.48281 -2.54958 0.623507 -0.566317 0.353212 0.0455464 0.241706 -0.952703 -2.02523 -9.8161 -0.0887429 -0.217125 -2.18504 0.000283168 0.000169914 -0.000525 40.0957 4.555 2.4822 -2.48641 0.631652 -0.523085 0.353301 0.0455505 0.24179 40.0957 4.555 2.4822 -2.48645 0.63165 -0.523115 0.353124 0.0455425 0.241623 
26.982 1 238 40.2102 2.59661 4.50306 0.0952776 2.59108 2.34352 0.119411 0.0982169 -0.137308 -0.0531279 -6.20543 -4.37626 0.00167225 -1.32125 -0.851526 0.000169328 -0.000258937 -0.000140968 40.2101 2.59914 4.50537 0.116628 2.60864 2.31897 0.119414 0.0982387 -0.137337 40.2101 2.59914 4.50537 0.116628 2.60863 2.31898 0.11941 0.0981955 -0.137279 
26.982 1 38 40.1976 2.74024 0.479523 1.4018 -1.77268 2.63997 0.146384 -0.703949 0.176391 0.261517 -3.745 -6.09601 0.0289929 -0.699865 -1.81875 0.000100974 -0.00012456 -0.00101363 40.1988 2.7384 0.482117 1.42798 -1.89858 2.67151 0.146425 -0.70413 0.176404 40.1988 2.7384 0.482117 1.42796 -1.89851 2.67151 0.146344 -0.703768 0.176378 
26.982 1 83 0.352964 8.38323 2.58398 -1.2643 -2.39456 6.22837 0.295144 0.123044 0.153455 -6.23191 -1.84005 -7.82888 -1.37248 -0.50006 -1.84466 -0.000400718 -0.000208545 -0.000813934 0.351881 8.38078 2.59017 -1.21151 -2.37255 6.25581 0.295256 0.1231 0.153451 0.351881 8.38078 2.59017 -1.21155 -2.37257 6.25581 0.295032 0.122988 0.153459 
26.982 1 242 0.385629 6.37284 4.53596 -5.05879 -1.34822 -0.400671 -0.0198407 0.214571 -0.35468 -6.36562 0.132674 -3.85787 -1.37995 -0.125575 -0.854235 -0.000542927 -0.000114498 -0.000387911 0.380748 6.37144 4.53552 -5.06233 -1.30984 -0.464091 -0.0198379 0.21464 -0.354701 0.380748 6.37144 4.53552 -5.06233 -1.30987 -0.464083 -0.0198428 0.214502 -0.354657 
26.982 1 285 2.61736 8.33663 4.37876 1.95965 2.71022 5.12731 0.0246748 0.0691968 0.151066 -0.858647 -0.0973489 -1.19183 -0.152685 -0.0325566 -0.257583 -3.18115e-05 4.37741e-05 -0.000109482 2.61948 8.3393 4.38385 1.96406 2.7226 5.15432 0.0246881 0.0692678 0.151062 2.61948 8.33929 4.38385 1.96406 2.72258 5.15432 0.024661 0.0691253 0.151069 
26.982 1 84 -1.74639 10.2863 2.62003 0.315988 0.747332 0.0177003 -0.437997 0.185716 -0.0492414 -6.58471 -2.12678 -9.8866 -1.44849 -0.610587 -2.06093 -0.000713688 -0.000333112 -0.000688329 -1.74588 10.287 2.62 0.237661 0.78054 0.00888646 -0.438077 0.185728 -0.0492952 -1.74588 10.287 2.62 0.23769 0.780536 0.0089059 -0.437918 0.185706 -0.0491865 
26.982 1 85 2.7161 8.43795 0.484754 -0.443085 0.167835 -2.01943 -0.290591 -0.0902061 0.511404 -0.426334 0.354002 -9.43923 -0.14988 -0.16196 -2.45501 -0.000193363 -0.000197923 -0.000923559 2.71582 8.43807 0.482683 -0.495052 0.151712 -1.92797 -0.290651 -0.0901785 0.51149 2.71582 8.43807 0.482683 -0.495031 0.151702 -1.92801 -0.290531 -0.0902348 0.511318 
26.982 1 281 -1.87445 8.52379 4.68679 1.45239 -0.244161 2.22238 0.122521 -0.369048 -0.463259 -3.44364 -3.54298 -4.42721 -0.981563 -0.974001 -1.20643 -0.000338981 -0.000586771 -0.00061627 -1.8728 8.5235 4.68898 1.4743 -0.310165 2.13953 0.122544 -0.369153 -0.463365 -1.8728 8.5235 4.68898 1.47429 -0.310127 2.13957 0.122499 -0.368943 -0.463153 
26.982 1 282 0.246635 10.4256 4.61612 -2.54389 4.15216 -1.24815 0.466819 -0.474172 0.156826 -5.79951 -0.257422 -2.95195 -1.19257 0.0131714 -0.645849 6.09115e-05 -0.000136583 -0.00010979 0.244273 10.4297 4.61483 -2.4604 4.06737 -1.22011 0.467003 -0.474262 0.156857 0.244273 10.4297 4.61483 -2.46046 4.0674 -1.22012 0.466636 -0.474082 0.156795 
26.982 1 48 2.45538 6.32858 2.45135 1.87912 5.78598 2.77255 0.332639 0.682335 -0.0216849 -1.84235 -0.490543 -7.5505 -0.286955 -0.157098 -1.7699 -6.58371e-05 0.000235339 -0.000632489 2.45743 6.33432 2.45408 1.93861 5.90802 2.76867 0.332723 0.682563 -0.0216868 2.45743 6.33432 2.45408 1.93858 5.90794 2.76867 0.332555 0.682105 -0.021682 
26.982 1 87 5.05724 8.4889 2.55676 -1.66056 4.76387 2.67307 -0.430353 -0.0264947 -0.451674 -0.117916 0.133489 -6.78706 0.00859722 -0.157791 -1.57002 -0.000130386 -0.000208421 -0.000538083 5.05572 8.49362 2.55939 -1.73752 4.75914 2.5923 -0.430467 -0.0264876 -0.451776 5.05572 8.49362 2.55939 -1.73748 4.75914 2.59234 -0.43024 -0.0265028 -0.451573 
26.982 1 246 4.80325 6.40151 4.47547 -1.09082 -3.23038 -3.46212 -0.0832309 0.26353 -0.10629 -0.0430956 -0.0629415 -0.911968 -0.00507983 -0.0212385 -0.26156 -1.26529e-05 6.60294e-05 -0.000150451 4.8023 6.39823 4.47197 -1.1057 -3.18325 -3.48113 -0.0832487 0.263613 -0.106302 4.8023 6.39822 4.47197 -1.1057 -3.18328 -3.48113 -0.0832131 0.263445 -0.106277 
26.982 1 289 7.05778 8.46347 4.46187 -0.460075 7.43868 -2.74751 0.031209 -0.261434 0.373484 0.0724989 0.0343017 -1.02381 0.0129035 0.000147986 -0.23627 2.3238e-05 -4.43893e-06 -2.32557e-06 7.05744 8.47087 4.45908 -0.454492 7.39194 -2.68072 0.0312212 -0.261433 0.373565 7.05744 8.47087 4.45908 -0.454497 7.39194 -2.68074 0.031197 -0.261435 0.373403 
26.982 1 88 2.65682 10.3885 2.51407 6.18159 -2.0806 1.81937 -0.14558 -0.0436156 -0.068386 -2.03793 -0.532248 -7.46569 -0.410577 -0.0788015 -1.53271 -0.000214445 -6.9004e-05 -0.000385245 2.66316 10.3863 2.51585 6.15555 -2.08841 1.80714 -0.145601 -0.0436496 -0.068398 2.66316 10.3863 2.51585 6.15556 -2.0884 1.80714 -0.14556 -0.0435825 -0.0683737 
26.982 1 86 4.8719 10.5598 0.492106 1.95703 1.50293 -1.56179 0.210152 -0.403488 0.833144 -0.136657 -0.577652 -11.4012 0.0165506 -0.0734294 -2.69656 6.92852e-05 -8.92037e-05 -0.000946377 4.87399 10.5613 0.490493 1.99461 1.43078 -1.41279 0.21022 -0.40353 0.833335 4.87399 10.5613 0.490493 1.99459 1.4308 -1.41286 0.210084 -0.403446 0.832952 
26.982 1 89 7.23669 8.49444 0.542233 0.65546 -2.67318 1.54629 -0.154031 0.0831904 0.701678 0.304486 1.03939 -9.34132 0.069031 0.00800393 -2.31574 4.19426e-05 -6.43285e-06 -0.000970928 7.23747 8.49172 0.543733 0.627912 -2.6583 1.67178 -0.154074 0.0832233 0.701848 7.23747 8.49172 0.543733 0.627927 -2.65831 1.67172 -0.153988 0.0831578 0.701508 
26.982 1 52 6.98564 6.37225 2.52251 4.25491 0.577049 0.713599 0.300526 0.216589 -0.0473664 0.171347 0.360301 -6.48527 -0.0839515 -0.0426704 -1.63009 -0.000126327 -0.000151217 -0.000664638 6.99002 6.37277 2.52317 4.30865 0.615786 0.705123 0.300588 0.216653 -0.0474022 6.99002 6.37277 2.52317 4.30863 0.615763 0.705136 0.300463 0.216525 -0.0473305 
26.982 1 91 9.47895 8.28967 2.50713 2.23945 -2.10086 -3.02825 -0.539104 -0.632371 -0.358364 0.830286 0.885713 -8.39947 0.188968 0.19684 -1.85926 4.44977e-05 0.000198294 -0.000753843 9.48129 8.28753 2.50405 2.14303 -2.21395 -3.09233 -0.53928 -0.632467 -0.358412 9.48129 8.28753 2.50405 2.14309 -2.21391 -3.09232 -0.538927 -0.632275 -0.358317 
26.982 1 250 9.33938 6.45519 4.46142 2.50932 -2.22579 4.14847 -0.548877 0.160345 0.12877 0.0590439 0.0621044 -0.90861 0.00858071 0.0102448 -0.226853 -0.000162735 6.35922e-05 -1.83961e-05 9.34199 6.4529 4.46554 2.41116 -2.19711 4.1715 -0.549033 0.160393 0.128821 9.34199 6.4529 4.46554 2.41122 -2.19713 4.17148 -0.548719 0.160298 0.12872 
26.982 1 293 11.5082 8.1774 4.39991 -1.83346 1.40857 -0.892997 0.415195 0.466524 0.391859 0.00669803 0.118591 -1.36746 0.00736107 0.0318353 -0.319827 0.00010946 0.000142237 1.77086e-05 11.5065 8.17876 4.39898 -1.75921 1.492 -0.822902 0.415312 0.466634 0.392036 11.5065 8.17876 4.39898 -1.75925 1.49196 -0.822965 0.415078 0.466414 0.391682 
26.982 1 290 9.52156 10.1878 4.19505 0.322479 -4.46485 -1.63517 -0.258919 1.0393 0.958477 0.103171 0.0303146 -1.31266 0.0297034 0.00759879 -0.304346 -7.50016e-05 0.000238201 7.04576e-05 9.52198 10.1833 4.19337 0.276168 -4.27898 -1.46374 -0.259016 1.03954 0.958786 9.52198 10.1833 4.19337 0.276203 -4.27907 -1.46385 -0.258823 1.03906 0.958168 
26.982 1 96 11.6687 10.3853 2.59536 -1.39476 2.79899 -1.18485 -0.205406 -0.216182 -0.0841736 0.190305 -0.261523 -9.54856 0.0752088 -0.036404 -2.17551 -4.10535e-05 -0.000222069 -0.000766914 11.6673 10.3881 2.59413 -1.43149 2.76034 -1.1999 -0.205407 -0.216196 -0.0841354 11.6673 10.3881 2.59413 -1.43149 2.76034 -1.19991 -0.205403 -0.216168 -0.0842121 
26.982 1 50 9.3409 6.28769 0.582087 -0.857726 -4.08499 -3.07517 -0.39992 0.344564 -0.393055 0.795699 0.39445 -11.4716 0.114784 -0.0340991 -2.52298 -0.000166817 0.000143703 -0.00110579 9.34014 6.28355 0.578964 -0.92925 -4.02339 -3.14546 -0.400029 0.344542 -0.393146 9.34014 6.28355 0.578964 -0.929211 -4.02338 -3.14543 -0.399812 0.344589 -0.392965 
26.982 1 56 11.5957 6.29365 2.44028 -0.245955 -0.715682 -0.513412 -0.0707396 0.255008 0.048297 0.445258 1.08811 -7.75933 0.10418 0.202105 -1.77699 -1.27223e-05 0.000322007 -0.000464395 11.5955 6.29288 2.43973 -0.258599 -0.670081 -0.50478 -0.0707147 0.255042 0.0482769 11.5955 6.29288 2.43973 -0.258607 -0.670093 -0.504773 -0.0707625 0.254976 0.0483183 
26.982 1 95 13.724 8.31858 2.34978 -4.87803 4.17032 1.28479 -0.00566099 -0.066022 0.66815 -0.504521 0.697974 -9.02759 -0.0385516 0.191013 -2.1132 -0.000238459 0.000271385 -0.000473789 13.7191 8.32271 2.35102 -4.87903 4.15851 1.40429 -0.00561329 -0.0660254 0.668309 13.7191 8.32271 2.35102 -4.87905 4.15851 1.40423 -0.00570898 -0.0660189 0.667991 