
# ----------------------- ATOM DEFINITION ----------------------------
lattice		fcc ${latparam}
lattice		fcc 4.05
Lattice spacing in x,y,z = 4.05 4.05 4.05
region		whole block 0 10 0 10 0 10
create_box	1 whole
Created orthogonal box = (0 0 0) to (40.5 40.5 40.5)
  1 by 2 by 2 MPI processor grid
lattice 	fcc ${latparam} orient x 1 0 0 orient y 0 1 0 orient z 0 0 1
lattice 	fcc 4.05 orient x 1 0 0 orient y 0 1 0 orient z 0 0 1
Lattice spacing in x,y,z = 4.05 4.05 4.05
create_atoms	1 region whole
Created 4000 atoms

# ------------------------ FORCE FIELDS ------------------------------

#****************USE THIS TO TEST******************
pair_style	eam/rad
pair_coeff 			* * Al99.PC0.05.eam.alloy.rad.txt Al # pc = 0.5

# ------------------------- SETTINGS ---------------------------------
compute csym all centro/atom fcc
compute peratom all pe/atom

######################################
# EQUILIBRATION
reset_timestep	0
timestep	0.001 # default
# timestep	0.0001 # tiny time step
velocity all create 300 12345 mom yes rot no
fix 1 all npt temp 300 300 1 iso 0 0 1 drag 1

# Set thermo output
thermo 50
# thermo 1 # debug mode

# thermo_style custom step lx ly lz press pxx pyy pzz pe temp
# IMPLEMENTATION HERE

# VERSION add rad variables .v1 .v2
# thermo_style custom step lx ly lz press pxx pyy pzz pxxrad pyyrad pzzrad pe temp

# VERSION ublb separation .v3
thermo_style custom step lx ly lz press pxx pxxub pxxlb pyy pyyub pyylb pzz pzzub pzzlb pe temp

# Run for at least 10 picosecond (assuming 1 fs timestep)
run 	20000 # default
Memory usage per processor = 7.82687 Mbytes
Step Lx Ly Lz Press Pxx Pxxub Pxxlb Pyy Pyyub Pyylb Pzz Pzzub Pzzlb PotEng Temp 
       0         40.5         40.5         40.5    2496.1233    2446.9902    245.71825   -240.26454    2534.6541    245.71825   -240.26454    2506.7256    245.71825   -240.26454       -13440          300 
      50      40.5611      40.5611      40.5611    907.43706    837.10986    1099.5095    614.37695    946.43161     1209.667    724.40195    938.76971    1201.0274    715.75433   -13338.819    103.27149 
     100    40.636867    40.636867    40.636867   -4611.4186   -4606.0751   -4358.0803   -4835.4021   -4633.2987   -4384.4799   -4861.7365   -4594.8821   -4345.9216   -4823.2209   -13373.529    171.80729 
     150    40.566371    40.566371    40.566371    544.64066    509.57779    759.00562    275.46836    622.24374    871.62176    388.17675    502.10046    751.07004    267.48318   -13348.908    124.16109 
     200    40.511722    40.511722    40.511722    3547.2897    3643.2596    3886.1711     3397.906    3485.9867    3730.4698    3242.1095    3512.6228    3757.2321    3268.9137   -13355.216     137.9072 
     250    40.565785    40.565785    40.565785    166.93066    90.523527    329.51369   -153.95984    218.10474    456.86106   -26.493637    192.16371    430.93808   -52.442145   -13359.502    146.72328 
     300    40.611235    40.611235    40.611235   -2466.5664   -2412.8394    -2175.788   -2655.5374   -2483.9007   -2248.4675   -2728.1765   -2502.9592   -2265.1669   -2744.9755   -13360.111    149.21075 
     350    40.571353    40.571353    40.571353   -408.34084   -482.42607   -241.58624   -724.36767   -346.38838   -105.14808   -587.98378   -396.20806   -156.25493   -639.00227   -13367.339    163.76556 
     400    40.532306    40.532306    40.532306    2225.5431    2279.8069     2525.675     2039.357    2296.6157    2540.5972    2054.1837    2100.2067    2346.2901    1859.8143   -13359.854    150.41108 
     450    40.566044    40.566044    40.566044    2.0377845   -40.092854    202.16191   -281.19186   -31.888362     209.9123   -273.41939     78.09457    318.82225   -164.52704    -13363.08    157.36643 
     500    40.595966    40.595966    40.595966   -1611.3461   -1655.3283   -1413.0887   -1894.0584   -1479.2164    -1236.817   -1717.8382   -1699.4934   -1458.8067   -1939.7416   -13359.404    151.32857 
     550    40.570848    40.570848    40.570848   -161.85418   -150.03728    90.924132   -392.08539   -167.20465    74.100417   -408.89689   -168.32062    73.511286   -409.43494   -13360.736    154.75593 
     600    40.545092    40.545092    40.545092    1385.8336    1414.2998    1657.4729    1172.2804    1433.0694    1676.0159    1190.7667    1310.1316    1553.2939    1068.1974   -13361.915    158.16074 
     650    40.566235    40.566235    40.566235    212.56633    184.02753    425.94724   -57.653467    245.48283    486.53845    2.8828119    208.18862    449.77622   -33.971305   -13358.104    151.74194 
     700    40.589999    40.589999    40.589999   -1217.4105   -1343.5854    -1102.228    -1583.732   -1126.2179   -884.54288   -1365.9388   -1182.4283   -942.48162   -1424.0139   -13360.206    156.93263 
     750    40.572933    40.572933    40.572933   -250.38158   -286.45411   -43.988508   -526.79264   -263.19279   -19.973163   -502.89652   -201.49783    42.919382   -439.90273   -13360.538    158.57849 
     800    40.551356    40.551356    40.551356    1208.6566    1078.2928    1319.0818    834.18032    1322.2307    1563.4801    1078.4932    1225.4462    1466.8708    981.94867   -13357.161    153.20685 
     850    40.567647    40.567647    40.567647     35.88215    27.354765    269.49061   -213.73509    95.437303    337.14576   -146.04838   -15.145617    226.24036   -256.98946   -13362.171    163.91834 
     900    40.586566    40.586566    40.586566   -905.95525   -936.83022   -694.48807   -1176.3013   -840.20578   -597.75194   -1079.5023   -940.82976   -697.32631   -1179.0672   -13360.501    161.82509 
     950    40.575685    40.575685    40.575685   -242.27646    -258.0676   -13.355789   -496.21333   -191.53537    52.679445   -430.19987    -277.2264   -33.750517   -516.66669   -13355.043     152.3172 
    1000    40.557624    40.557624    40.557624    865.78368    854.28577    1096.7529    612.64067     838.0004    1079.7964     595.7309    905.06486    1147.7543    663.55895   -13361.124    165.23426 
    1050    40.567354    40.567354    40.567354    296.20892     232.8234    475.97201   -7.7126345     412.4804    654.90283    171.14744    243.32297    487.19624    3.4884757   -13352.949    150.47937 
    1100    40.584443    40.584443    40.584443   -762.38408   -853.89575   -611.95511    -1093.883   -674.30507   -432.03466   -913.94502   -758.95143   -518.72087   -1000.5442   -13360.466    166.16585 
    1150    40.575983    40.575983    40.575983    -142.2806   -201.77341     40.06649   -442.86543   -30.014093    210.89458   -271.86017    -195.0543    47.443548   -435.28481    -13353.75    154.27323 
    1200    40.562401    40.562401    40.562401    595.06575    539.95132    779.31658    295.35494    625.63845    867.62671    383.82507    619.60749    861.18331     377.3671    -13359.83    167.17798 
    1250    40.569413    40.569413    40.569413    166.79261    92.903564    335.45784   -147.98707    250.18713    491.84717    8.3917453    157.28713    399.96277   -83.505473   -13356.017    160.90148 
    1300    40.581899    40.581899    40.581899   -560.61752   -582.11355   -339.23477   -821.37035   -449.93781   -207.85701   -690.20058   -649.80119   -408.30329   -890.65344   -13357.596    165.08945 
    1350    40.575948    40.575948    40.575948    -187.6128   -340.24911   -98.250969   -581.00907   -119.43237    123.19777   -359.57939   -103.15693    139.97203   -342.81489   -13356.829    164.72703 
    1400    40.566127    40.566127    40.566127    565.86425    499.12344    740.86559    257.10313    641.64272    885.87414    402.18427    556.82658    799.02006     315.1997   -13354.386    161.14085 
    1450    40.572988    40.572988    40.572988    -8.561472    -54.13345    188.40121    -294.6356   -9.1404528    233.79237   -249.24002    37.589487     280.9484   -201.99601   -13356.765    166.86433 
    1500    40.579794    40.579794    40.579794   -267.41446   -332.77441   -91.559623   -574.15869   -176.15609    64.334716    -418.1981   -293.31287   -52.330412   -534.89573   -13353.672    162.03422 
    1550    40.576834    40.576834    40.576834   -220.87916   -335.60203   -93.875115   -576.54071   -207.98546    34.186253   -448.54754   -119.05001    124.57398   -358.07359    -13357.33    170.23169 
    1600     40.56902     40.56902     40.56902    377.81634    358.40758    600.77069    117.17868    458.79305    701.00931    217.45213    316.24838    559.49688    75.922945   -13352.705    162.42694 
    1650    40.573333    40.573333    40.573333    121.60248    65.830518    309.13431   -173.87884    161.88969    405.96477   -77.098761    137.08722    378.25502   -104.83499     -13355.4    168.76756 
    1700    40.580701    40.580701    40.580701   -351.25931   -404.48696   -163.50739   -646.09816   -356.71365   -116.30397   -598.82955   -292.57732   -52.435197   -535.07031   -13352.169    163.67705 
    1750    40.576849    40.576849    40.576849   -32.167301   -50.678233    193.26971   -289.47867   -63.920617    178.62614   -304.08721    18.096946    262.59064   -220.15637   -13355.552    171.33506 
    1800    40.570697    40.570697    40.570697    303.86959    205.87186    446.23962   -37.224049    337.67696      582.149    98.779778    368.05996     608.7703     125.2974   -13351.254    164.18628 
    1850    40.573832    40.573832    40.573832    241.25661    160.65476    402.28136   -80.758362    291.81867    532.56192    49.409118    271.29639    513.05792    29.992155   -13351.989    166.73526 
    1900    40.582525    40.582525    40.582525   -408.49907   -517.11515   -275.67224   -757.94936    -372.3218   -132.16699   -614.33911   -336.06028    -95.73292   -577.95864    -13355.88     175.4205 
    1950    40.579035    40.579035    40.579035   -121.18037    -78.31077    163.33132   -319.53555   -80.564036    162.80624   -320.12091    -204.6663    38.357658   -444.46495   -13350.032    165.23107 
    2000     40.57151     40.57151     40.57151    262.28188    197.36064     439.1936    -44.06416    289.69509    532.66567    49.497402     299.7899    542.53293    59.409448   -13356.433    178.77171 
    2050     40.57415     40.57415     40.57415    291.00696    438.91963    683.67765    200.56758    282.96388    525.67005    42.433231    151.13737    394.57672   -88.693516   -13349.034    165.59547 
    2100    40.583714    40.583714    40.583714   -349.64824   -571.69905   -330.20086   -812.54336   -278.61218   -37.195871    -519.6006   -198.63349    42.057679   -440.12116    -13352.82     174.0797 
    2150    40.580896    40.580896    40.580896   -115.46102   -185.78203    54.179549   -428.59339   -83.935203    156.92691    -325.7741   -76.665824    166.67109   -316.16817   -13348.342    166.55152 
    2200    40.573232    40.573232    40.573232    266.96923    327.53375    570.42107    87.257735    145.53519    386.93732   -96.140633    327.83874    569.43346    86.372316   -13352.358    175.46306 
    2250    40.574827    40.574827    40.574827    151.21048    253.25725    495.00284    11.913451    168.12758    409.37724   -73.621575    32.246605    272.81359   -210.32999   -13351.993    175.91954 
    2300    40.582519    40.582519    40.582519   -229.92012   -262.55007   -20.325149   -502.89787   -227.80284    14.428001   -468.03212   -199.40745    44.651648   -437.72052   -13351.098    175.32277 
    2350    40.582472    40.582472    40.582472   -261.47493   -230.22332    11.665417    -470.7076   -223.18601    18.987893   -463.30398   -331.01546   -88.627866   -571.07733   -13351.015     176.3209 
    2400    40.575117    40.575117    40.575117    304.99838    318.71288    562.32023    79.225987    230.82389    474.83048   -8.4506313    365.45835    607.47175    124.22881    -13348.88    173.33846 
    2450    40.576041    40.576041    40.576041    115.98281   -49.519186    192.21467    -290.8738    231.81908    472.62694    -10.45828    165.64854    407.55046   -75.460862   -13349.774    176.22576 
    2500    40.581993    40.581993    40.581993    -86.32248   -223.14465     19.35988    -463.2273   -50.962736    192.25453    -290.2626    15.139951    258.40338    -224.2667   -13348.601    175.08643 
    2550    40.583873    40.583873    40.583873   -280.78867    -329.5054   -86.125639   -568.42649   -351.60669   -109.01346   -591.25713   -161.25393    80.569693   -401.84218   -13350.803    180.51146 
    2600    40.577203    40.577203    40.577203    317.49535    231.68198    472.03024   -11.165749    393.67729    634.25707    151.26371    327.12677    569.24033    86.161593    -13345.69    171.77884 
    2650    40.578933    40.578933    40.578933    13.030925    144.96731    387.02859     -95.8472   -44.713472    197.83249    -285.0669   -61.161069    180.87252   -301.98596   -13350.912    183.01571 
    2700    40.583518    40.583518    40.583518   -174.83865   -293.93299   -51.080028   -533.67794   -111.84152    130.19391   -352.29465   -118.74145    121.92315    -360.6292   -13346.798    176.21518 
    2750    40.582481    40.582481    40.582481   -39.748764   -65.184794    176.77566   -305.79383    -87.13603    154.39057    -328.1001    33.074533    277.16605   -205.44475   -13348.669    180.97912 
    2800    40.578705    40.578705    40.578705    108.86451   -19.945463    220.17296   -262.76342    191.66526    432.68482   -50.248846    154.87373    396.18996   -86.835773   -13346.376    177.70923 
    2850    40.579322    40.579322    40.579322    124.53218    81.912131    324.98162   -157.87585    124.60452    367.00243   -115.81468     167.0799    408.08142   -74.849569   -13349.584    185.05983 
    2900    40.584645    40.584645    40.584645   -69.825092    -152.5521    90.988601   -391.50741   -33.708358    210.15664   -272.29297   -23.214815    219.97943   -262.53031   -13345.868     179.0187 
    2950    40.585359    40.585359    40.585359   -182.56258   -154.04171    86.463053   -395.81466   -313.08375   -72.206984   -554.52073   -80.562296    158.20489   -324.26492   -13345.484    179.44392 
    3000    40.580393    40.580393    40.580393    103.06038     17.74205    259.96954    -222.8622    199.86076    440.07597   -42.643774    91.578338    332.86397   -150.04086   -13349.988    189.30398 
    3050    40.580507    40.580507    40.580507    62.168107    44.094515    285.17854    -197.7444    20.509683    264.22789   -218.70882    121.90012    366.43602   -116.38718   -13345.218    181.21565 
    3100    40.584708    40.584708    40.584708   -107.42179   -223.08689    19.233345   -463.31678   -59.455111    181.83323   -300.76038   -39.723375    202.12805   -280.44511   -13347.434     186.6605 
    3150    40.585857    40.585857    40.585857   -139.90607   -193.02274    49.979858   -432.42814   -102.84206    140.48084   -341.97694    -123.8534     121.3006   -361.09572   -13344.327    181.78994 
    3200    40.582817    40.582817    40.582817    56.136466   -25.815173     215.4373   -267.13234    83.857537    324.70373   -157.90305    110.36703    352.94079   -129.67809   -13346.758    187.66531 
    3250    40.582883    40.582883    40.582883    202.40337    154.08445     397.8943   -84.866451    136.98617    380.35718   -102.31204    316.13948    557.45015     74.64507   -13343.925    183.32635 
    3300    40.587578    40.587578    40.587578    -209.4339   -371.94849   -130.35283   -612.62572   -87.698913    154.34567   -327.81807   -168.65429    73.045187   -409.16861   -13345.062    186.68197 
    3350    40.586577    40.586577    40.586577   -9.0566859   -69.573038    170.79373   -311.60621   -16.305688    224.08405    -258.2879    58.708669    299.72605   -182.66904    -13343.41    184.64018 
    3400    40.584833    40.584833    40.584833    -4.464904   -169.79656    71.484117   -411.01691    46.672382    288.87792    -193.6086    109.72947    351.03075    -131.4309   -13346.346    191.46455 
    3450    40.585451    40.585451    40.585451    9.8032381   -98.559471    143.21458   -339.23512    71.647379     313.7649   -168.77769    56.321806    299.00015   -183.36582   -13344.024    188.12534 
    3500    40.587697    40.587697    40.587697   -73.255431   -198.59139    44.679433   -437.62507   -60.277768     182.5049   -299.67835    39.102863    280.84125   -201.34835   -13344.644    190.47515 
    3550    40.586958    40.586958    40.586958    -56.96485   -70.538578    170.54864   -311.96925    6.9900731    249.10865   -233.24165   -107.34605     134.9705   -347.43518   -13342.497     187.4769 
    3600    40.585183    40.585183    40.585183    109.67337    96.750394    338.78874   -143.91371    58.529928    300.92474   -181.83237    173.73977    416.80835    -65.73271   -13342.391    188.41229 
    3650    40.586887    40.586887    40.586887   -3.9723187   -11.668849    233.00299   -249.46955   -45.333257    196.40471     -285.977    45.085149    287.45415     -194.961   -13342.044    188.88701 
    3700    40.588496    40.588496    40.588496   -27.142131   -83.336603    158.26629   -323.89281   -12.131481    229.18332   -253.08409    14.041689    256.08694   -226.12107   -13342.511    190.95338 
    3750    40.588371    40.588371    40.588371   -6.0911329    43.936973    286.77488   -195.37617   -56.088694    185.50518   -296.67732   -6.1216783    236.29506   -245.86446   -13342.317    191.72699 
    3800    40.587518    40.587518    40.587518    21.179747   -96.321442    146.23672   -336.16804    156.68462    399.34582    -83.08107    3.1760619    244.30177   -238.04886    -13342.31    192.86572 
    3850    40.588168    40.588168    40.588168    103.71552    51.378646     295.0049    -187.3188    75.437151    318.44337   -163.95709    184.33078    428.96162   -53.490284   -13339.435    188.43341 
    3900    40.590071    40.590071    40.590071   -61.991803    41.084916    281.49216   -200.74166   -163.63867    78.305658   -403.91935   -63.421652     177.8636   -304.30043   -13340.244    191.15887 
    3950     40.58905     40.58905     40.58905    26.629811   -116.89505     124.6967   -357.59304    111.68117    353.11159    -129.2021    85.103306    327.19671   -155.14134   -13340.459    192.71663 
    4000     40.58814     40.58814     40.58814    64.030856    18.996702    261.21543   -221.20875    37.882754    278.96237   -203.53627    135.21311    377.50066   -104.84387   -13340.476    193.89746 
    4050     40.58928     40.58928     40.58928    51.730888    26.058107    266.51349   -215.78101    48.279046    291.05282   -191.32498    80.855511    320.58764   -161.65495   -13339.217    192.61086 
    4100    40.591447    40.591447    40.591447    -69.41407   -80.629256    159.99745   -322.04076   -72.506139    168.07245   -314.03297   -55.106814    186.29863   -295.69813   -13342.948    200.98044 
    4150    40.591167    40.591167    40.591167     -59.3496   -170.66274    72.803846   -409.53004   -23.297654     218.9496   -263.32808    15.911595    259.89504    -222.2562    -13338.58    193.66416 
    4200    40.589402    40.589402    40.589402    126.45049    102.31182    343.99905   -138.54001    28.361074    270.60721   -211.83587    248.67858    489.66172    7.2799058   -13337.074    191.89142 
    4250    40.590375    40.590375    40.590375   -5.8786185    -95.14102    146.26456   -335.90134    71.464313    311.27014   -170.97199    6.0408519    247.03488   -235.15318   -13339.822    198.35283 
    4300    40.592312    40.592312    40.592312   -99.932489   -134.35608    108.37144   -373.63763   -92.003546    149.86127   -332.26249   -73.437843    168.35535   -313.66885   -13339.728    199.31371 
    4350    40.591432    40.591432    40.591432    30.669897   -17.453823    224.53775   -257.63268    116.38325    358.27452   -123.88621   -6.9197307    234.58807   -247.58602   -13337.239    195.64072 
    4400    40.590868    40.590868    40.590868    6.1809803   -68.690877    172.13534   -309.97356    32.701826    274.91707   -207.21901    54.531992     296.5695    -185.5931   -13340.043     202.2069 
    4450    40.592123    40.592123    40.592123   -2.7294806    31.335042    273.37721   -208.74527   -35.521345    205.23032   -276.93593   -4.0021387    239.41233   -242.71972   -13337.875    199.15199 
    4500    40.593642    40.593642    40.593642   -65.462705    36.313648      279.191   -202.85592   -97.154892    145.82055   -336.18407   -135.54687    105.58259   -376.40065    -13337.41     199.3838 
    4550    40.592338    40.592338    40.592338   -64.277171   -161.69941    79.170692   -402.89501   -86.840811    155.65765   -326.50654    55.708711    298.34162   -183.76751   -13338.207    202.07086 
    4600    40.590278    40.590278    40.590278     249.1077    320.61637    562.78922    80.458083    284.38178    528.07211    45.672273    142.32493    385.38521   -97.077794   -13335.472    197.91016 
    4650    40.594313    40.594313    40.594313   -36.483052   -43.388388    198.35753   -283.52696     7.304162    248.50043   -233.49781   -73.364929    168.17523   -313.70976   -13336.259    200.57068 
    4700    40.596271    40.596271    40.596271   -162.12355   -160.59482     80.34778   -401.37694   -175.19352    66.296738   -415.56668   -150.58232    90.187591   -391.64142   -13336.155    201.50807 
    4750    40.592916    40.592916    40.592916    73.064448    98.496599    340.46625   -141.67292    218.68878    460.13392   -22.062392   -97.992039    143.31902   -338.67293   -13336.665     203.6226 
    4800    40.592243    40.592243    40.592243    93.558524    177.60258    419.23043   -62.825584   -87.323114    154.84509   -327.39081    190.39611    433.54095   -48.524541   -13336.604    204.63746 
    4850    40.595451    40.595451    40.595451    4.2171739   -108.36622    134.34825   -347.53699    56.758562    298.64685   -183.26437    64.259175    306.82894   -175.16496   -13334.982    202.63372 
    4900     40.59738     40.59738     40.59738   -207.49532   -38.513481    203.59712   -278.08347   -236.77389     4.984538     -476.814   -347.19859   -103.16344   -584.98689   -13335.657    205.06988 
    4950    40.592949    40.592949    40.592949    160.16595    79.901741    322.15063    -159.9975    153.84852    396.17824   -85.983008    246.74758    487.75888    5.4262068   -13333.532    202.08895 
    5000    40.593071    40.593071    40.593071    183.41074     268.5787    510.55035    28.384541     243.1868     486.1636    4.0309692    38.466717    278.07445   -204.11639   -13334.242    204.58527 
    5050    40.598517    40.598517    40.598517   -115.69735   -166.07939    75.514383   -406.01425     -169.547    73.244432   -408.59881   -11.465649    230.63734   -251.05016   -13334.019    205.27643 
    5100     40.59878     40.59878     40.59878   -111.70343    -8.370906    232.72873   -248.99804   -166.12906    73.555314   -408.15089   -160.61033    81.167028   -400.46062   -13332.452    203.37832 
    5150    40.594255    40.594255    40.594255    96.931121    101.97383    343.69267   -138.29912    87.628943    327.34329   -154.62645    101.19059    344.05024   -137.96083   -13334.964    209.35602 
    5200    40.594043    40.594043    40.594043    196.29774    273.67141    516.70623    34.667795    221.69784    465.64532   -16.295018    93.523963    336.86834   -145.16478   -13335.021    210.58986 
    5250     40.59947     40.59947     40.59947   -89.380203   -116.97376    123.83203   -357.72007   -109.49403    132.34889   -349.41911    -41.67282    201.44117   -280.19073   -13330.257    202.50162 
    5300    40.599859    40.599859    40.599859   -145.25531   -136.63669    104.91177    -376.6647   -209.45351    32.943053   -448.64902   -89.675735    151.61309   -329.97836   -13332.957    208.84095 
    5350    40.595213    40.595213    40.595213    222.90062    257.82359    500.10723    18.165677    316.73027    557.67388    75.622074    94.147998     335.2571   -146.72599   -13332.065    208.23568 
    5400    40.596174    40.596174    40.596174    152.99394    182.46696    424.44448   -57.439064    168.26953    408.87956   -73.105531    108.24535    348.92675   -133.01391   -13331.528    208.31029 
    5450    40.601169    40.601169    40.601169   -137.60144   -286.80303   -47.192124   -528.77676   -30.046473    211.31143   -270.30805   -95.954809    145.28736   -336.28436   -13330.969    208.33875 
    5500    40.601195    40.601195    40.601195   -223.23281   -155.64611    84.859192   -396.58369   -294.77355   -53.302608   -534.79316   -219.27877    21.309557   -460.16866   -13333.433    214.21786 
    5550    40.595615    40.595615    40.595615    182.19163    236.97313    478.00124   -3.9336647    219.29512    461.26738    -20.67043    90.306631    333.57668   -148.31364   -13332.625    213.77091 
    5600     40.59647     40.59647     40.59647    157.71549    95.081188    337.40091   -144.46073    126.56426     368.3851   -113.63425    251.50101    496.05324    14.042991    -13331.02    211.77575 
    5650    40.602086    40.602086    40.602086   -122.48126   -162.13077    81.617321   -399.96083   -127.35932    114.65892   -366.97883   -77.953682    162.35745   -319.29552   -13328.959    208.89658 
    5700    40.602031    40.602031    40.602031   -129.57349   -144.97713    96.357339   -385.01401    -92.19506    149.69803   -331.69452   -151.54828    89.318958   -392.19635   -13330.973    213.90323 
    5750    40.597351    40.597351    40.597351    249.95841     130.2933    372.64796   -109.20058    256.42866     497.0387    15.139932    363.15327     606.7145    124.79388   -13329.355    211.87752 
    5800    40.599001    40.599001    40.599001    81.368288    70.461749    312.62726   -169.12505    220.52608    461.41528   -20.289333   -46.882963    192.78276   -289.01353    -13329.51    213.28364 
    5850    40.603186    40.603186    40.603186   -204.96413   -200.81552     38.38791   -442.99398   -191.63639    49.527286   -432.03273   -222.44049    17.964808   -463.45958   -13330.974    217.21937 
    5900    40.602446    40.602446    40.602446   -126.97389   -248.41884   -6.0882416   -487.66992   -16.958909    228.23733   -253.36617   -115.54392    126.72242    -354.8636    -13329.54    215.52932 
    5950    40.598403    40.598403    40.598403     257.9828    272.70332    515.02978    33.163519    348.64877    590.02366    108.15842    152.59632    394.35208   -87.548547   -13327.614    212.91421 
    6000     40.60021     40.60021     40.60021    86.846298    101.33594    342.68492   -138.97124   -18.435667    222.77722   -259.08905    177.63862    419.36627   -62.395025   -13327.324    213.44455 
    6050     40.60381     40.60381     40.60381     -147.965   -193.76594    47.038967   -434.32282   -73.546053    166.62005   -314.71536   -176.58301    63.703297   -417.67416   -13330.172    220.05867 
    6100    40.602318    40.602318    40.602318    -26.95951    24.115571    262.86139   -218.71748    -126.5007    115.21626    -366.4242    21.506596    263.02945   -218.62121   -13327.624    216.21915 
    6150    40.600005    40.600005    40.600005    91.858136   -57.062472    184.20824   -297.45325     204.7372    444.69924   -37.003444    127.89968     371.5275   -110.17883   -13329.971    221.84627 
    6200    40.601871    40.601871    40.601871     18.81411    18.213485    260.25275   -221.36388    68.835547    311.77601   -169.90613   -30.606703    210.24935   -271.45473   -13326.581     216.3745 
    6250    40.604737    40.604737    40.604737   -124.00793   -72.865587    169.22407    -312.0234   -231.27249    10.091308   -471.27449   -67.885715    174.47409   -306.98325    -13327.32    218.88695 
    6300    40.603226    40.603226    40.603226    38.479186    -71.27144    169.82833   -311.62304     210.4996    451.15582   -30.264292   -23.790601    216.32219   -265.10907   -13327.339     220.0188 
    6350    40.602348    40.602348    40.602348    53.655171    168.57174    407.72048   -73.799292   -65.580559    176.49181   -305.08322    57.974335    298.78105   -182.74767   -13327.803    222.00053 
    6400    40.604389    40.604389    40.604389   -55.165601   -243.02272    -1.140479   -482.61488    81.803234    324.25726   -157.30725   -4.2773159    236.40925   -245.04711    -13327.19    221.89227 
    6450    40.605242    40.605242    40.605242   -103.23012   -18.394609    222.35575    -258.9842   -201.09066    39.181706     -442.266   -90.205083    153.11703   -328.47242   -13326.925    222.45568 
    6500    40.603815    40.603815    40.603815    39.068389   -146.98714    95.633183   -385.91938     -28.4868    214.67047   -266.79188    292.67911    535.03085    53.411494   -13326.809    223.30103 
    6550     40.60387     40.60387     40.60387    22.403565    29.280286    272.48606   -209.08707    75.786435    317.94841   -163.59361   -37.856025    205.62538   -275.95013   -13324.708    220.30764 
    6600     40.60543     40.60543     40.60543    36.934272   -27.131059    215.27792   -266.08293    31.251669    273.64585     -207.863     106.6822    347.63551    -133.6685   -13325.152    222.24729 
    6650    40.606492    40.606492    40.606492    27.935899   -38.026677    203.30662   -278.01958    291.58289    533.14706    51.812518   -169.74852    70.239509   -411.13106   -13323.272    219.68455 
    6700    40.605902    40.605902    40.605902   -2.8302171   -32.479587    208.00015   -273.26881   -15.290284    224.71545   -256.56928    39.279221    280.20358   -201.11883   -13325.483    225.03079 
    6750    40.605041    40.605041    40.605041    116.28823    11.166754    251.20243   -230.20982    118.66357    359.35814   -122.14161    219.03438    459.30638   -22.233097     -13324.7    224.58162 
    6800    40.606317    40.606317    40.606317   -94.135085   -116.06994    122.72772   -358.55328   -53.083775    187.85278   -293.62816   -113.25154    127.59674   -353.88882   -13324.612    225.46738 
    6850    40.606909    40.606909    40.606909   -131.72414   -177.87527    62.516208   -418.68839   -112.67255    131.48585   -349.90945   -104.62461    136.55385   -344.75186   -13327.361    231.83937 
    6900    40.606457    40.606457    40.606457    38.770044   -42.543621    200.90929   -280.46906    139.77117    381.90761   -99.484079    19.082584    261.32526    -219.9581    -13323.81    226.02987 
    6950    40.607088    40.607088    40.607088    -35.87355   -57.864929    184.70694   -296.45555   -99.363756    140.27595   -340.95636    49.608035    290.91307   -190.26258   -13325.976    231.28561 
    7000    40.607798    40.607798    40.607798   -21.517973   -27.074967    212.70081   -268.70068    68.888779     309.9048   -171.53654   -106.36773    135.69478   -345.65064   -13321.758    224.17335 
    7050    40.608361    40.608361    40.608361   -85.333283   -62.294957    179.69257   -301.49511   -78.471956    162.88214   -318.41558   -115.23294    125.46098   -355.72345   -13324.227    229.99186 
    7100    40.607551    40.607551    40.607551  -0.32340728   -15.680349    225.18974    -255.9623    51.728357    293.31136   -187.99698    -37.01823    204.75227   -276.53713   -13323.223    229.10019 
    7150     40.60782     40.60782     40.60782    20.921777    45.317835     285.5882   -195.60388   -55.509065    187.34203   -293.91727    72.956561    313.95373   -167.32933   -13323.207    230.11782 
    7200    40.609482    40.609482    40.609482   -77.821672   -101.91746    139.75274   -341.24683    4.9611119    246.23902   -234.86756   -136.50867    107.04089   -374.20868   -13323.495    231.72021 
    7250    40.609913    40.609913    40.609913    50.433017   0.56460385    243.75922   -237.31232    75.008988     316.6578   -164.43938     75.72546    315.80941   -165.32198   -13321.183    228.29296 
    7300     40.60956     40.60956     40.60956    -69.90714   -13.571925    226.96643   -254.12932   -179.09254    63.236306   -418.05091   -17.056953    225.65849   -255.53325   -13321.826    230.56804 
    7350    40.608273    40.608273    40.608273    147.86894    124.22491    367.41263   -113.93373    181.66507    421.85144   -59.636061    137.71684    377.73632   -103.57027   -13319.822    227.72576 
    7400     40.61072     40.61072     40.61072   -38.902497   -22.541514    218.00071   -263.14521   -63.916036     174.6936   -306.45339   -30.249939    211.07554   -270.03579   -13321.343    231.69891 
    7450      40.6122      40.6122      40.6122   -125.41163   -226.57028     15.51708    -465.2378    -33.61997    211.11084   -269.71993   -116.04465     122.2535   -358.56073   -13322.895    235.72868 
    7500    40.610108    40.610108    40.610108   0.23229987   -85.457416    155.97193   -325.08765    5.8911509    246.31874    -234.8053    80.263165    321.99692   -159.07276   -13321.055    233.20319 
    7550    40.608593    40.608593    40.608593    216.78304    152.03962    393.42122   -87.920964    265.65517    508.56781    27.216845    232.65434    476.06529   -5.3208425   -13319.725    231.64868 
    7600    40.612333    40.612333    40.612333   -46.447022   -71.347699     169.3258   -311.56483    11.081953    251.53719   -229.39225    -79.07532    162.97782   -317.91952    -13319.66    232.54909 
    7650    40.614101    40.614101    40.614101    8.5688691   -63.097679    179.02396   -301.74261    126.74828     368.8675   -112.06031   -37.943999    202.74375   -278.18451   -13317.293     228.9811 
    7700    40.612387    40.612387    40.612387   -98.768505   -57.973541    182.63323   -298.15849   -144.42907    94.940811    -386.1022   -93.902904    147.90154   -333.06925   -13319.588    234.44054 
    7750    40.607968    40.607968    40.607968    199.50031    202.77634    444.04067    -37.29658    254.41477    494.82054    13.429853    141.30983    380.02039   -101.17524   -13320.441    237.10839 
    7800    40.611213    40.611213    40.611213    10.113906    81.539417    321.96992   -158.96636    -64.43268    177.06583   -304.14815     13.23498    255.29583    -225.8171   -13320.135    237.51591 
    7850    40.615802    40.615802    40.615802    -190.8177   -123.93483    116.84607   -363.82112   -155.49397    86.361955   -394.53173   -293.02431   -52.402642   -533.18868   -13316.958    232.37563 
    7900    40.614071    40.614071    40.614071   -62.814506    -179.3342    61.208328   -419.51411   -47.023971    194.14261   -286.77618    37.914647    279.34488     -201.569   -13319.654    238.59408 
    7950    40.610522    40.610522    40.610522     61.91862    100.38714    340.58642   -140.62774    136.28653    378.52102   -102.70185   -50.917809    189.50608   -291.62755   -13320.447    241.13365 
    8000    40.612416    40.612416    40.612416    54.480615    36.677358     278.1219   -203.04937    96.889371    340.77934   -140.38956    29.875117    274.55872    -206.5041   -13318.108    237.59574 
    8050    40.616739    40.616739    40.616739   -201.42892   -220.49972    21.461042   -459.12433   -266.56184   -25.756571   -506.46066   -117.22521    123.60586   -357.08901   -13317.484     237.3978 
    8100    40.613917    40.613917    40.613917   -29.516087   -62.473189     178.9168    -301.9654    8.6103831    250.41921   -230.51447   -34.685456    205.27738   -275.51698   -13318.824    240.98117 
    8150    40.611079    40.611079    40.611079    233.41268     250.2191    492.49388    11.322648    199.26147    440.92545   -40.347371    250.75748    494.14662    12.959459   -13316.499    237.46563 
    8200    40.615557    40.615557    40.615557   -73.482497   -143.76325    97.033796   -383.63058    121.83238    363.90897   -116.85558   -198.51662    42.161589   -438.51953   -13318.206    241.75524 
    8250    40.618041    40.618041    40.618041   -99.554299    28.475224     269.5959   -211.11603   -164.46411    77.137728      -403.67   -162.67401    78.045687   -402.57285    -13314.28    235.13872 
    8300    40.614975    40.614975    40.614975    28.031927   -144.03934    96.110422   -384.70572    205.83186    446.57698   -34.348796    22.303256    263.23706   -217.60487   -13316.211    239.85171 
    8350    40.611951    40.611951    40.611951    171.74974    263.70158    506.60865    25.556597    140.68604    383.28926   -97.814741    110.86162    351.17243   -130.05469   -13316.616    241.61323 
    8400    40.614453    40.614453    40.614453    143.17086  -0.11537715      240.207    -240.7576    138.95256    379.90656   -101.16987     290.6754    530.45254    49.513646   -13313.361    236.28983 
    8450    40.618979    40.618979    40.618979   -283.99859   -222.64095    16.335207   -464.15713   -181.34927    58.908044   -421.70271   -448.00554    -206.5534   -687.19248   -13317.732     245.7156 
    8500    40.615661    40.615661    40.615661   -29.771671   -69.689884    169.70151   -311.12032    -99.93417     144.2181   -336.64259    80.309039    321.57275   -159.23806    -13315.56    242.47643 
    8550     40.61192     40.61192     40.61192    275.83701    274.34212    517.88989    36.769038    321.67168    560.29233    79.102724    231.49724    471.48135   -9.6156206   -13315.123     242.6027 
    8600    40.616597    40.616597    40.616597   -150.21221    -307.5939   -65.784958   -546.52981    22.330695    265.53102   -215.26352   -165.37342    76.517826   -404.11226   -13317.089    247.35868 
    8650     40.61938     40.61938     40.61938   -70.949903   -188.44591    53.082595   -427.43264   -23.889919    217.55606   -263.05593  -0.51388247    241.36155   -239.19806   -13313.832    242.01927 
    8700    40.618511    40.618511    40.618511   -118.97868   -41.616921    202.35151   -278.27809   -90.616415    152.39007   -328.31047   -224.70272     15.51676   -465.10434   -13314.804    244.84642 
    8750    40.615356    40.615356    40.615356    184.70792    24.093517    263.86091   -217.02441    267.47839    508.44909    27.488715    262.55184    505.38161    24.535343   -13312.664    241.65958 
    8800     40.61578     40.61578     40.61578    49.124551    51.019324    290.05196   -190.83943    85.170428    324.40366   -156.64671    11.183902    250.88595   -230.06015   -13313.827    244.86054 
    8850    40.617841    40.617841    40.617841   -30.004023   -14.969104    224.35662   -256.36589    14.218623    254.59117   -226.12564   -89.261589     151.7834   -328.91131    -13314.23    246.57563 
    8900    40.618905    40.618905    40.618905   -196.67237   -69.287145     172.1738   -308.43093   -267.14581   -27.841395   -508.46241   -253.58416    -12.88507   -493.40877   -13315.482    249.94202 
    8950    40.616633    40.616633    40.616633    113.56155     17.70615    257.76315   -223.14343    205.62112    447.88827   -32.915858    117.35737    358.80944   -122.00352   -13312.174    244.47327 
    9000    40.617981    40.617981    40.617981   -5.3782871   -96.290796    143.82309   -336.83485    102.10605    345.09924   -135.65322   -21.950111    217.35415   -263.24214   -13315.903    252.62496 
    9050    40.620148    40.620148    40.620148   -48.644761    26.770246    270.88513   -209.58983   -95.187336     144.5258   -336.05143   -77.517195    167.30101   -313.39626   -13311.498    245.02404 
    9100    40.620057    40.620057    40.620057   -49.592958   -174.28861    66.016231   -414.49596   -33.121107     211.4395   -269.04983    58.630846    300.33219   -180.19571   -13312.283    247.47347 
    9150     40.61758     40.61758     40.61758    150.26405    225.47259    467.78495   -12.947081    101.73932     344.1289   -136.69064    123.58025    365.83729   -114.99199   -13310.095    244.16108 
    9200     40.61774     40.61774     40.61774    72.268147    41.329583    283.96633   -196.78227    38.217779    278.82779   -201.86059    137.25708    378.02444   -102.74741   -13311.689    248.16871 
    9250    40.619622    40.619622    40.619622   -84.083887   -149.79255    92.057998   -388.45524    -69.87264    171.84378   -308.70403   -32.586469    208.73372   -271.80896   -13311.349    248.42467 
    9300    40.619538    40.619538    40.619538    119.50181    125.80622    364.65772   -115.89404     23.83651    264.88675    -215.7501    208.86271    449.32593   -31.315966   -13311.853    250.31265 
    9350    40.620623    40.620623    40.620623   -23.026387   -212.93313     27.75044   -452.76908    47.062092    288.38922   -192.25952    96.791877    339.24001   -141.31789   -13310.946    249.45277 
    9400    40.621651    40.621651    40.621651   -110.30374    55.349363    299.10409   -181.40703   -308.53971   -67.569316   -548.03868   -77.720873    162.15881   -318.33156    -13310.94    250.34293 
    9450    40.620796    40.620796    40.620796    119.80518    22.147835    262.66176   -217.96547    168.09362     410.4656   -70.292109    169.17409    409.16975   -71.460852   -13308.678    246.86507 
    9500    40.621436    40.621436    40.621436   -77.654363   -94.095478    147.32927   -333.10939   -169.62014    69.563594   -410.87672    30.752526    273.99663   -206.47369   -13312.361    254.89143 
    9550    40.620956    40.620956    40.620956    80.176844   -81.439503    159.33228   -321.16492    171.10941    410.64296   -69.892181    150.86063    390.39362   -90.160089   -13310.642     252.4677 
    9600    40.623082    40.623082    40.623082   -100.37971   -50.707541    192.12801   -288.20155   -83.798674     158.3758   -322.02016   -166.63292    74.993621   -405.39994   -13311.014    254.06807 
    9650     40.62368     40.62368     40.62368   -96.708169   -111.18675    131.64303    -348.7315   -146.71085    93.514865   -386.86222   -32.226906      208.874   -271.36593   -13309.976    252.94982 
    9700    40.621786    40.621786    40.621786    25.766695   -101.68196    139.85423   -340.55523    193.85198    435.86243   -44.565314   -14.869939    227.08498   -253.42333   -13311.217    256.23031 
    9750    40.621617    40.621617    40.621617    63.783347    45.223363    286.20868   -194.33526    18.202269     262.4707   -218.25051    127.92441    367.05607   -113.39976   -13309.015    252.84887 
    9800    40.623567    40.623567    40.623567    30.108544   -256.64207   -15.438107   -495.90953    218.38384    460.76553   -19.582292    128.58387    366.64861   -113.65162   -13308.817     253.3361 
    9850    40.625018    40.625018    40.625018   -209.09391   -204.87145    35.512043   -444.65247   -333.00963   -92.394219   -572.69093   -89.400642    152.06912   -328.03645    -13310.94    258.31262 
    9900    40.622237    40.622237    40.622237    148.31384    127.49748    369.79122   -110.74086    211.31408    452.59095   -27.975266    106.12996     348.2493   -132.39694   -13307.278    252.08567 
    9950    40.623383    40.623383    40.623383     1.582774    69.834119    310.67016   -169.65712   -163.62004    76.265302   -404.03456    98.534248    342.88922   -137.35775   -13310.401     258.9926 
   10000     40.62607     40.62607     40.62607   -49.067764   -32.888182    208.95948   -271.19821    31.781308    274.77459   -205.38957   -146.09642    95.576181   -384.67007   -13306.221    251.76572 
   10050    40.625601    40.625601    40.625601   -111.26613   -260.75667   -18.064417   -498.19421   -93.751589    147.15496    -333.0985    20.709871    260.42336   -219.73247   -13309.037    258.07207 
   10100     40.62165     40.62165     40.62165    194.77386    28.814092    272.76519   -207.82869    505.48434    747.07979    266.47372    50.023147    292.00223   -188.45286   -13308.396    257.68142 
   10150    40.623957    40.623957    40.623957    148.65111    67.804204    306.41719   -173.97978    36.673761    279.51994   -200.98613    341.47535       583.27    102.85533   -13305.783    253.47093 
   10200    40.629076    40.629076    40.629076   -266.31898   -507.92354   -266.59168   -746.52031   -161.58297     77.82188   -402.06408   -129.45043    113.85374   -366.02296     -13308.7    259.95316 
   10250    40.626239    40.626239    40.626239    139.51768    308.09578    549.42221    69.165948    15.774635    258.06372   -222.12678    94.682613    333.41452   -146.94445    -13303.86    251.42496 
   10300    40.624167    40.624167    40.624167     -32.4434   -82.799664    158.30168   -322.12684   -62.479318    177.40502   -302.95256    47.948784    289.45132   -190.77882   -13309.107    262.41275 
   10350    40.623612    40.623612    40.623612     175.4361    204.33298    444.78316   -35.716694      258.726    502.90835    22.401423     63.24931     303.7841   -176.55706   -13305.282     255.8423 
   10400    40.627102    40.627102    40.627102   -209.12009   -222.42107     16.72306   -463.30829   -245.20351   -5.5567286   -485.73643   -159.73569      82.7023   -397.27089   -13309.194    264.24465 
   10450    40.626953    40.626953    40.626953   -37.296466   -132.87675     109.2911   -370.77587     82.48944    323.53608   -156.56356   -61.502083    180.55728   -299.66692   -13306.088    259.05202 
   10500    40.625844    40.625844    40.625844     3.606221    -58.26973    185.20252   -295.00276   -86.758565    155.42012   -324.90411    155.84696    397.17606   -83.084552   -13306.912    261.45961 
   10550    40.625595    40.625595    40.625595    111.78184    112.94411    352.77245   -127.58349    309.47861    552.15143    71.724816   -87.077194    154.68509   -325.60675    -13304.68    257.95671 
   10600    40.628278    40.628278    40.628278   -8.4171661     70.80722    312.20499   -167.95438   -24.293744    217.10664   -262.97443   -71.764974    168.84303   -311.23342    -13304.87    259.13252 
   10650    40.629525    40.629525    40.629525    -76.00165    29.818683    269.58582    -210.3265    -84.45566    155.70559   -324.16273   -173.36797    68.059173   -411.84262   -13304.625    259.46901 
   10700    40.627011    40.627011    40.627011    47.009139   -16.427123    224.15323   -255.92844    162.61651    402.46314   -77.556533   -5.1619706    235.00109   -245.07871   -13306.004    262.94252 
   10750    40.625683    40.625683    40.625683    101.81504    128.92511    367.82481   -112.57947    169.09554    409.13777   -71.261184    7.4244807    247.02985   -233.38074   -13304.619    261.05812 
   10800    40.628883    40.628883    40.628883   -57.759356   -232.59692    9.6418062   -470.43358   -42.288746    198.19808   -281.87875     101.6076    344.31384   -135.67402   -13305.472    263.48864 
   10850    40.630171    40.630171    40.630171   -214.60569     -342.753   -103.24617   -583.12956   -101.34117    139.13051   -340.85938    -199.7229    42.960234   -436.77882   -13305.818    264.95585 
   10900    40.625775    40.625775    40.625775    151.63751    78.462207    320.02577   -160.34889    158.15176     399.4012     -80.9352    218.29857    459.89364   -20.361709   -13303.888    262.00642 
   10950    40.625825    40.625825    40.625825    156.99311    351.87784    593.16097    112.88542    28.857647    269.43545   -210.84208    90.243849    331.65828   -148.59923   -13304.334    263.65212 
   11000    40.629465    40.629465    40.629465   -4.6147152   -257.73613   -16.453461   -496.39974    122.77483    363.10856   -116.83976    121.11715    359.64168   -120.35028   -13303.002    261.85318 
   11050    40.631044    40.631044    40.631044   -216.10871   -397.60634   -158.83898   -638.68409   -158.54736    83.074407   -396.79535   -92.172443    147.82328   -332.04044   -13305.477     267.4096 
   11100    40.628304    40.628304    40.628304   -8.2088922    -27.43093    216.15023   -263.92417   -7.8096948    233.82147   -246.26542    10.613949    252.95531   -227.07514   -13304.539    266.35772 
   11150    40.626833    40.626833    40.626833    47.524497   -24.750529    216.29837   -263.85893    171.35739    413.94974     -66.2893   -4.0333658    237.41358   -242.66965   -13304.416    266.89007 
   11200    40.628827    40.628827    40.628827    66.135866   -26.759252    214.88323   -265.15732    -54.27607    190.11073   -290.00957    279.44292    522.63816    42.628109   -13302.796     264.5124 
   11250    40.631237    40.631237    40.631237   -205.72997   -313.74178   -70.610758   -550.46504   -196.51809    43.166557   -436.68641   -106.93004    136.28418   -343.50534   -13303.694    267.01032 
   11300    40.627988    40.627988    40.627988    145.36804    303.85977    545.55249    65.352466    46.112924    290.68895   -189.57151    86.131426    326.61527   -153.60464   -13301.625    263.75624 
   11350    40.627598    40.627598    40.627598    123.42655    49.406004    292.15204   -188.09757     151.7312    391.86692    -88.37972    169.14245    410.73021   -69.296033     -13302.5    266.19717 
   11400    40.631013    40.631013    40.631013   -77.358293   -166.48749    75.509885   -404.28591    -50.58186    190.91448   -289.05914   -15.005531    228.39489   -251.50126   -13302.024    266.01716 
   11450    40.632363    40.632363    40.632363   -19.472944    -90.11872      150.759   -328.95727   -33.678407    209.54487     -270.341    65.378293    304.74795   -174.96059    -13300.91    264.60553 
   11500    40.630696    40.630696    40.630696   -3.0508462   -160.00149    83.235931   -396.65253    48.513397    287.56118    -192.3334    102.33555    344.11954   -135.71372   -13301.475    266.43476 
   11550    40.628804    40.628804    40.628804    126.34517    150.27522    390.81645   -89.198298    126.02328    365.82721   -114.18505    102.73703    344.76454   -135.32812   -13302.117    268.41079 
   11600    40.630261    40.630261    40.630261    73.233627   -189.57979    50.115048   -429.95343    117.34552    357.60018   -122.36725    291.93515      532.905    53.010527   -13300.928    266.82904 
   11650    40.634013    40.634013    40.634013   -181.24677   -102.18677     140.2475   -339.24583   -93.849952    146.92093   -332.66758   -347.70358   -107.92788   -587.54841   -13302.663    270.90194 
   11700    40.633111    40.633111    40.633111   -58.957529   -187.11382    52.942567   -426.81206   -111.76711    128.27151   -351.63908    122.00834    359.55442   -120.18024   -13300.459     267.3539 
   11750    40.630416    40.630416    40.630416    24.711564   -45.483729    193.50173   -286.43681    126.59345    366.65122   -113.34474   -6.9750275    235.43846   -244.43957   -13302.282    271.58763 
   11800     40.63046     40.63046     40.63046    26.762155   -93.700409     147.0997   -332.73052     19.32279     260.0125   -219.91938    154.66408    393.58195   -86.250073   -13302.153    272.05155 
   11850    40.633042    40.633042    40.633042   -87.038853   -104.27361    135.95131   -343.77084    -134.4311    107.81746   -371.98537   -22.411855    221.13858   -258.65462   -13300.574    269.69782 
   11900    40.633192    40.633192    40.633192   -79.570443    23.165684    265.05738    -214.5627   -28.753296    210.63621    -269.1562   -233.12372    6.1398621   -473.63484   -13299.843    268.98867 
   11950    40.631173    40.631173    40.631173    118.26227     10.00073    252.19136   -227.80182    122.41582    362.44515   -117.36722    222.37025    460.88178    -18.92661   -13301.134    272.18158 
   12000    40.632786    40.632786    40.632786   -78.056303    59.459661    298.67228   -181.09676   -129.93546    111.42578   -368.36353   -163.69311    76.888968   -402.79097   -13301.306    273.20595 
   12050    40.633253    40.633253    40.633253   -112.85073   -227.21485    13.313947   -466.31261   -134.45662    105.97963   -373.70665    23.119281    265.63585   -214.07413   -13301.911    275.06268 
   12100    40.631762    40.631762    40.631762    74.823908    125.98572    367.44985   -112.44202   -51.757588    188.63798   -291.28814     150.2436     390.4004   -89.423153   -13300.219    272.47072 
   12150    40.632564    40.632564    40.632564    51.699905    67.557455    310.08538   -169.66924    36.367176    276.30822   -203.47132    51.175083    292.60809   -187.15696   -13299.354    271.46837 
   12200    40.635215    40.635215    40.635215   -52.400902   -178.48675    60.302229    -419.2734   -65.642467    175.76083    -303.8317    86.926515     328.4679    -151.1589   -13298.614    270.70756 
   12250    40.635432    40.635432    40.635432   -130.77979   -126.65134    116.71817   -362.79937   -32.035334     208.8768   -270.71647   -233.65269    6.0761142   -473.39895   -13301.017    276.02303 
   12300    40.632938    40.632938    40.632938    135.49607    51.613656    291.57249   -188.25183    68.905016    310.79264   -169.02818    285.96953    528.10115     48.29879   -13298.193     271.2239 
   12350      40.6338      40.6338      40.6338    110.79204   -4.0624609    235.63633   -244.02996    156.24311     397.0318    -82.60966    180.19546    421.40355   -58.294112   -13298.862    273.17917 
   12400    40.636491    40.636491    40.636491   -84.226133   -156.34843     83.26352   -396.21737   -53.223318    186.76419    -292.6624   -43.106656    196.70146   -282.76548   -13298.516    273.16508 
   12450     40.63608     40.63608     40.63608   -105.43112   -113.94969    126.30235    -353.3089    31.671273    273.77186   -205.88363   -234.01495    5.2882331   -474.20941   -13299.057    274.85802 
   12500     40.63349     40.63349     40.63349    73.301941   -126.24504    115.77495   -363.86975     99.61075    339.04606   -140.78846    246.54011    487.25168    7.6217579   -13299.132    275.65091 
   12550    40.634765    40.634765    40.634765    108.36807    158.23465    399.39779     -80.2613    4.7940989    245.35079   -234.33436    162.07545    400.99346   -78.677452   -13297.624     273.3763 
   12600    40.638009    40.638009    40.638009   -209.13169   -344.18259   -105.56197   -584.95643   -95.649934    144.22298   -335.25333   -187.56254    53.394236   -426.04786   -13298.598     275.8979 
   12650    40.635318    40.635318    40.635318    42.289504    47.830192    286.83958    -192.8089   -45.030418    196.82367   -282.75708    124.06874    364.29484   -115.40835   -13299.196    277.68473 
   12700    40.634776    40.634776    40.634776    50.474438   -38.278257    204.62542   -275.05525    52.429299    295.70619   -184.00008    137.27227    378.26908    -101.3602    -13298.83    277.60061 
   12750    40.637413    40.637413    40.637413   -54.674044    116.52329    360.23036    -119.3202   -89.556189    151.15087   -328.25815   -190.98924    52.431435   -426.95632   -13297.222    275.11887 
   12800    40.637637    40.637637    40.637637    17.392318    -212.4068    27.431626   -452.25708    113.15086    355.04046   -124.49316     151.4329    392.77152   -86.615997   -13296.433    274.21775 
   12850    40.636444    40.636444    40.636444   -3.2089293    27.118558    267.83469   -211.88041   -64.830864    174.81138   -304.89375    28.085518     269.6545   -209.99275   -13296.615    275.18459 
   12900    40.635496    40.635496    40.635496    112.85919   -16.130395    223.25491   -256.34666    171.77843    411.56044   -68.056028    182.92953    423.31892   -56.337185   -13296.632    275.83382 
   12950     40.63761     40.63761     40.63761    70.575063    60.800672    300.24955   -179.18294    54.946595     296.3285   -183.04193    95.977923    335.87625   -143.68599   -13296.897    276.95357 
   13000    40.639634    40.639634    40.639634   -170.17992   -259.99103    -18.53472   -497.74154   -351.17303   -109.69538   -588.91856    100.62431    339.55121   -139.69327   -13298.108    279.90085 
   13050    40.637291    40.637291    40.637291   -3.4885987   -69.042692     174.5962   -304.94966    144.65744    387.09126   -92.360679   -86.080541    154.50358   -325.01315    -13297.37    279.07051 
   13100    40.635236    40.635236    40.635236    285.64911    315.25233    555.44122    75.552303    260.62272    500.91732    21.054466    281.07229    522.90202    43.233911   -13293.252    271.69647 
   13150    40.639057    40.639057    40.639057   -181.74363   -167.99126    74.869831   -404.46187   -151.01727    88.347636   -391.07355   -226.22236     16.09892   -463.14185   -13298.159     281.7789 
   13200     40.63981     40.63981     40.63981    56.183701   -181.40784    60.160705   -419.18505    247.79395    488.55632    9.1618575      102.165    341.53699    -137.7295   -13294.232    274.76961 
   13250    40.638489    40.638489    40.638489   -86.426982   -235.51017    1.3731246   -478.02632   -189.17544    49.583985   -429.87523    165.40466    406.68927   -72.858163   -13297.241    281.17201 
   13300    40.635856    40.635856    40.635856    92.943918    58.114107    298.07716   -181.58492    243.30267    484.92825    5.2571586    -22.58502    216.75985   -262.94719   -13296.341    280.00382 
   13350    40.637821    40.637821    40.637821   -11.807637   -71.060899    169.66697   -309.88324   -55.137929    185.78662   -293.68395    90.775916    331.63458   -147.76873   -13297.248    282.32932 
   13400    40.640089    40.640089    40.640089   -244.51189   -222.86359    20.256751   -459.17029   -325.95106   -82.668137   -561.91088     -184.721    54.009954   -425.30458   -13296.377    281.21349 
   13450    40.637708    40.637708    40.637708    224.67057    299.08332    539.40448    59.770746    228.42859    468.90362   -10.608856     146.4998    388.09601   -91.359493   -13293.736    276.66879 
   13500    40.638508    40.638508    40.638508   -35.183139   -224.25489    16.720092    -462.7993   -23.668273    213.09029   -266.30278    142.37375    383.58426   -95.706247    -13294.82     279.3269 
   13550    40.638004    40.638004    40.638004   -29.545736   -110.31045     129.5013   -349.96804    48.517033    289.90286   -189.55124   -26.843796    211.94975   -267.44829   -13296.986    284.07303 
   13600    40.637313    40.637313    40.637313    2.9985382    -20.30025    216.72381   -262.75845   -156.28401    87.693832   -392.01229    185.57988    427.22978   -52.211967   -13296.215    283.12797 
   13650    40.638396    40.638396    40.638396   -14.068008   -114.53994    128.06626   -351.40543    18.101605    257.43835   -222.09499    54.234306    296.45066   -183.09149   -13294.578    280.50422 
   13700     40.63977     40.63977     40.63977   -24.028045   -31.566892    208.83623   -270.57084   -88.182613    153.07507   -326.38569     47.66537    289.89954   -189.59695   -13294.035    279.99381 
   13750     40.63924     40.63924     40.63924    52.050265    -17.10691    225.31948   -254.09011   -89.977532    154.28419    -325.2461    263.23524    503.76345    24.339138   -13293.941    280.34795 
   13800    40.638391    40.638391    40.638391    110.32958    153.57904    395.09786   -84.429931  -0.92167679    237.07535   -242.42389    178.33139    419.96698   -59.632591   -13292.726    278.53424 
   13850    40.638572    40.638572    40.638572     76.64713   -45.554201    195.28154   -284.22482    116.22915    355.55576   -123.88945    159.26645    397.51864   -81.992618   -13294.325    282.15374 
   13900    40.640473    40.640473    40.640473     9.791836   -57.548615    182.93809   -296.34663    19.475116    259.78287   -219.51719    67.449007    305.86173   -173.40255   -13293.875     281.8037 
   13950    40.642547    40.642547    40.642547   -155.24301   -131.91731    107.36446   -371.74323   -131.80256     107.6464   -371.56406   -202.00915    38.154471   -440.98621   -13295.158    284.80494 
   14000     40.64039     40.64039     40.64039   -35.655012   -332.61646   -93.823708   -573.24981     52.87647    294.15411   -185.25648    172.77495    414.08695   -65.317309   -13293.769    282.62806 
   14050    40.638549    40.638549    40.638549    49.507167    87.248983     328.2285   -151.26226    4.9390984    246.60161   -232.80332    56.333419     297.5658   -181.94614   -13295.744    286.96311 
   14100    40.639947    40.639947    40.639947      2.72087    13.003139    255.58042   -223.89655   -31.598315    208.86512   -270.49825    26.757785    270.20157    -209.1381   -13294.216    284.51509 
   14150    40.641101    40.641101    40.641101    30.233658   -3.9348283    236.22921   -243.06295    187.21131    428.85631   -50.399733   -92.575504    147.78516   -331.36652   -13291.686    280.12516 
   14200    40.641083    40.641083    40.641083   -50.158484   -149.02153    91.722586   -387.58649   -41.156181    199.89865   -279.38028    39.702255    278.16503   -201.10146   -13294.162    285.40899 
   14250    40.641189    40.641189    40.641189    22.345014    12.646576    254.78997   -224.49376   -142.41608    102.59991   -376.74804    196.80455    437.71915   -41.667555   -13294.206    285.98202 
   14300    40.641404    40.641404    40.641404    104.07924    43.143855    284.60921   -194.69557    68.220708    307.90731    -171.5882    200.87317    442.65591   -36.704498   -13290.024    278.38251 
   14350    40.641892    40.641892    40.641892    -1.845087   -72.708735    168.89947   -310.45073   -198.09654    44.719897   -434.47595    265.27002    503.17817    23.885873   -13293.086    284.79306 
   14400    40.641417    40.641417    40.641417   -36.180675   -153.97295    89.770938   -389.56966   -44.451724    196.03506   -282.99333    89.882649     328.7451   -150.51648   -13295.188     289.3449 
   14450    40.640686    40.640686    40.640686    108.74009    143.41713    382.91486   -96.561551    101.92335    340.48026   -139.01922    80.879783    325.47854   -153.72243   -13291.498    282.67855 
   14500    40.643262    40.643262    40.643262   -14.583012    32.320591    273.86514    -205.3448   -48.607513    192.52074    -286.7413   -27.462113    212.62316   -266.56188   -13292.327    284.74998 
   14550    40.642986    40.642986    40.642986   -37.790055   -226.65181    12.400668   -466.80504     65.67136    306.80321   -172.42907     47.61028    288.97743   -190.18552   -13292.161    284.89494 
   14600    40.640718    40.640718    40.640718    64.243243    64.196799    305.42004   -174.11864   -6.1570565     235.7009   -243.74651    134.68999     375.9573   -103.47891   -13292.745    286.48662 
   14650    40.641474    40.641474    40.641474    18.583595    65.058129    307.96026   -171.44903   -126.14258    114.12981   -365.28667    116.83524     355.5915   -123.73913   -13292.072    285.64295 
   14700    40.643283    40.643283    40.643283   -80.770125     20.17634    262.27173   -217.04886   -145.49623    96.657236   -382.49074   -116.99048     127.0588   -352.13981   -13293.395    288.65391 
   14750      40.6432      40.6432      40.6432    18.825638    12.131751    255.27317   -224.02391   -5.8742923    236.83862   -242.33133    50.219456    291.81428   -187.36631    -13291.05    284.57408 
   14800    40.641828    40.641828    40.641828    59.688144     13.38137    255.53305   -223.65975   -6.9829497    234.22827   -245.15157    172.66601    413.21849   -66.054649   -13291.847    286.56654 
   14850    40.641895    40.641895    40.641895    66.260735    -31.36407    207.90405   -271.37486    59.560317    304.67884   -174.67327    170.58596    409.69852   -69.613044   -13291.946     287.1986 
   14900    40.644253    40.644253    40.644253    -137.8918   -28.810621    211.45611     -267.566   -283.00416   -43.084295    -522.1815   -101.86061     140.5357   -338.49306   -13293.074    289.82247 
   14950    40.643903    40.643903    40.643903   -25.902299   -149.35746    92.512629   -386.64064   -19.989706    223.01638   -255.99412     91.64027     333.5452   -145.61117   -13291.409    287.03537 
   15000    40.641649    40.641649    40.641649     121.2001    369.62337    611.27776    132.00319   -105.35529    135.38107   -343.93206    99.332208    340.94061   -138.30834    -13291.13    286.92694 
   15050    40.640804    40.640804    40.640804    124.25808    130.95532    371.13291   -108.31384    266.91166    507.67429    28.259451   -25.092751    215.50096   -263.95866   -13290.189    285.52842 
   15100    40.643721    40.643721    40.643721    68.421529    56.283599    297.78211   -181.40187    34.445267    275.59514   -203.65565    114.53572    354.79824   -124.30909    -13289.81    285.21211 
   15150    40.646227    40.646227    40.646227   -260.38134   -424.20211   -184.27684   -663.15167   -211.45708    28.463921   -450.52192   -145.48484    92.840337   -386.06598   -13291.683    289.25668 
   15200    40.641762    40.641762    40.641762    130.30459    204.55067     443.8268   -35.530687    116.31639    356.14972   -123.23501    70.046715    310.94199   -168.51463   -13290.562    287.49797 
   15250    40.641099    40.641099    40.641099    98.566659     46.09651    286.09527   -193.25613    79.674937    320.17839   -159.20432    169.92853     410.9322   -68.369956   -13292.078    290.84329 
   15300    40.644544    40.644544    40.644544   -118.84699    75.931577    314.50121   -164.52167   -140.47862    99.513001    -379.6033   -291.99393   -50.532881   -529.61114   -13292.477    292.02294 
   15350    40.645904    40.645904    40.645904   -177.19528   -169.86276    71.492575   -407.46408   -274.56886   -32.331644   -511.36088   -87.154236    150.75338   -328.33259   -13291.589    290.70199 
   15400    40.643297    40.643297    40.643297    83.933268    152.76898    394.10453   -85.147292      41.9908    281.46049   -197.80909    57.040018    297.69808   -181.65712   -13289.785    287.61095 
   15450    40.643212    40.643212    40.643212   -47.128333    -3.393349    236.95628   -242.21418   -127.31612    112.70551     -366.445   -10.675524    230.44808   -248.50356   -13293.994    296.15045 
   15500    40.644556    40.644556    40.644556   -10.913815    130.34848    371.47573   -107.65975   -50.513648    191.25525   -287.85577   -112.57628    127.67894   -351.56223   -13289.964    288.73837 
   15550    40.645592    40.645592    40.645592   -114.97909   -134.85099    106.91434   -372.20851   -47.571431    192.86565   -286.14324   -162.51484    80.216168   -398.85186   -13290.329    289.82883 
   15600    40.643746    40.643746    40.643746    55.880874    222.32778    462.60879   -16.498088   -81.345277    160.50811   -318.67513    26.660114    267.48242   -211.60462   -13290.832    291.18802 
   15650    40.643304    40.643304    40.643304    147.72957    187.86622    426.18749    -53.18738    99.284361     340.5453   -138.76124    156.03812    396.33796   -82.866306   -13288.079    286.24089 
   15700    40.645435    40.645435    40.645435   -95.613541    108.29415    350.55449   -128.47726   -140.73087    98.277471    -380.7032    -254.4039   -17.001911     -495.944   -13291.127    292.51058 
   15750    40.645221    40.645221    40.645221   -119.59063   -210.43333    31.273456   -447.66777     -83.1876     155.1307   -323.84251   -65.150955    176.98957   -302.22755    -13290.72    292.09127 
   15800     40.64282     40.64282     40.64282    128.44945    151.43527    392.27227   -86.846592   -10.250141    232.83835   -246.42249    244.16322    483.81411    4.5235198   -13290.004    291.06987 
   15850    40.643562    40.643562    40.643562    255.12946    184.87633    426.22117   -53.173372    204.18276    443.76338   -35.669807    376.32928    617.11125    137.85624    -13286.28     284.2209 
   15900    40.648933    40.648933    40.648933   -203.49251    -85.01199    154.49802   -324.32438   -224.27456    14.975491   -463.78754   -301.19097   -60.229681   -539.03134   -13289.703    291.20079 
   15950    40.647235    40.647235    40.647235   -177.93799   -277.47371   -39.676572   -518.51047   -130.23204    111.76007   -366.99535   -126.10822    113.00235   -365.84266   -13291.204    294.46058 
   16000    40.641642    40.641642    40.641642    253.28201    245.03511    487.16701    7.7894202    116.57843    358.33815   -120.99209    398.23248    637.10588    157.80879   -13290.572    293.59034 
   16050     40.64468     40.64468     40.64468    44.585677   -2.5265583    237.25615   -241.77616    193.21688    435.40037   -43.785668   -56.933291    187.30868   -291.85916   -13289.491    291.84188 
   16100    40.648092    40.648092    40.648092   -96.521565   -56.646929    183.16094   -295.71242   -213.35102    25.942968   -452.95406   -19.566745    218.79595    -260.1059   -13287.606    288.53645 
   16150    40.646183    40.646183    40.646183   -124.85479    -223.7641    14.148446   -464.80343    -140.8099    101.16274   -377.90801   -9.9903647    229.28993   -249.60484   -13291.657    296.70436 
   16200    40.643683    40.643683    40.643683    260.25256    311.88632    553.45077    74.221966    121.74351    361.88483    -117.3862    347.12785    587.18801    107.97452   -13286.817    287.67145 
   16250    40.647248    40.647248    40.647248   -64.881933    27.348632    266.84963   -212.09106   -187.98853    49.012111   -429.85329   -34.005901    204.03917   -274.79358   -13289.246    292.70305 
   16300    40.647707    40.647707    40.647707   -300.11993   -413.03993   -174.46401   -653.23402   -163.64314    77.101224   -401.60235    -323.6767   -83.490673   -562.26035   -13292.628    299.56755 
   16350    40.643982    40.643982    40.643982     184.8353    291.46572    534.79095    55.698413    92.583257    333.33277   -145.90472    170.45693    411.33844   -67.722986   -13288.662    292.21654 
   16400    40.646359    40.646359    40.646359   -120.05301   -36.129501    204.81754   -274.05859   -117.08587    124.36459    -354.6361   -206.94367    36.461936    -442.4606   -13290.463    296.02097 
   16450    40.646194    40.646194    40.646194     131.3871    117.35014    359.75233    -119.0431    123.33839    364.87114   -114.20778    153.47277    395.76503   -83.168918   -13286.527    288.71751 
   16500    40.645997    40.645997    40.645997    19.115891    199.68744    439.79901   -39.198286   -44.688078    195.53937   -283.52659   -97.651693    141.90144   -336.93901   -13287.923    291.72469 
   16550    40.645018    40.645018    40.645018      139.161    245.82592    485.83743     6.727468    67.598466    306.94089   -172.26695     104.0586    344.99193   -134.18019   -13286.999    290.23117 
   16600    40.646961    40.646961    40.646961   -47.628543   -26.188985    211.68312   -267.27893   -115.06211    126.12911   -352.80731   -1.6345282    236.24343   -242.70243   -13288.658    293.73898 
   16650    40.647639    40.647639    40.647639   -163.65753   -132.37627    108.09003   -370.75603   -199.92358    39.941133   -438.96702   -158.67272    82.119692   -396.76048   -13289.088    294.86789 
   16700    40.644928    40.644928    40.644928    90.328838    3.7104478    244.32281   -234.74568    156.31857    399.15935   -79.831071     110.9575     351.8712   -127.15507   -13289.441    295.84883 
   16750    40.645008    40.645008    40.645008    66.487621    308.01568    548.83491    69.636739   -9.2102034    230.26157   -248.90261   -99.342608    141.05697   -338.05522   -13287.397    292.18604 
   16800    40.646982    40.646982    40.646982   -28.647079    -1.732685    239.34584   -239.60727   -113.97574    124.10354   -354.86603    29.767187    271.02103   -207.83572   -13288.147    293.92404 
   16850    40.647575    40.647575    40.647575   -113.98103   -112.42947    130.37289   -348.53007   -158.39772    81.123787   -397.74377   -71.115905    166.87418   -311.98844   -13289.385     296.6021 
   16900     40.64558     40.64558     40.64558    185.06392    171.88758    412.02447   -67.089971    257.47412    501.10302    21.962811    125.83005    366.78275   -112.27842   -13286.361    291.02729 
   16950    40.646624    40.646624    40.646624   -8.3386466    105.91063     345.3771   -133.53378   -153.59331    85.496704   -393.52262    22.666735    263.16414   -215.79398   -13288.359    295.16891 
   17000    40.647892    40.647892    40.647892     -84.9798   -202.79434    37.167838   -441.63412   -84.437064    155.41271   -323.47045    32.292003    272.23245   -206.75128   -13288.971    296.61817 
   17050    40.647433    40.647433    40.647433   -41.121248    62.970544     303.9987   -174.96305    -258.0537    -16.58441   -495.57627    71.719408    311.78741   -167.13247   -13287.587    294.20613 
   17100    40.646208    40.646208    40.646208    51.590538   -157.36983    82.307808   -396.81888    181.58593    419.66822   -59.339274    130.55551    373.24249    -105.7834   -13288.503    296.24409 
   17150     40.64691     40.64691     40.64691   -65.900093    88.764333    327.48404   -151.37782   -136.20971    105.05393   -374.00554    -150.2549    91.976249    -386.9136   -13288.567    296.63092 
   17200    40.647071    40.647071    40.647071   -5.7301942    85.350031    327.08487   -151.95721   -56.817588    181.83829   -297.14741   -45.723026    196.00641   -282.89428   -13287.799    295.40475 
   17250    40.647511    40.647511    40.647511    -25.19417   -189.67004    51.955563   -426.88766    87.685232    331.56108   -147.37605    26.402299    267.49158   -211.46771   -13287.151     294.4074 
   17300    40.646197    40.646197    40.646197    51.128973   -28.626207     210.1823   -268.83932   -66.967949    172.94403   -306.25809    248.98108    488.93835    9.8500753   -13286.795    293.97096 
   17350    40.645704    40.645704    40.645704     25.76403    133.32117    376.93306   -102.07173   -41.976564    199.89366   -279.10143    -14.05252     226.7888    -252.3624   -13287.693    295.95127 
   17400    40.646821    40.646821    40.646821    88.993293   -51.853742    187.87193   -291.01175    109.37425    350.42764     -128.617    209.45937    448.46763    -30.46588   -13287.471    295.76596 
   17450    40.649304    40.649304    40.649304    -91.48287    7.8513218    250.27955   -228.39696   -111.95574    125.06232   -353.79779   -170.34419     70.85295   -407.96364   -13287.294    295.65469 
   17500     40.64965     40.64965     40.64965   -125.92975   -340.24098   -97.725686   -576.32786    26.244848    266.92245   -211.93776   -63.793135    176.15485    -302.6084   -13288.019    297.29323 
   17550    40.646417    40.646417    40.646417    4.3014998   -46.704835    195.04978    -283.9144   -108.84987    134.83402   -344.19457     168.4592    408.19321   -70.684203   -13288.223    297.92335 
   17600    40.644359    40.644359    40.644359    139.68143    106.22348    348.84091    -130.3368    162.31823    404.70846   -74.458425    150.50258    391.10314   -88.026683   -13287.957    297.64168 
   17650    40.647422    40.647422    40.647422    14.878034    216.79361    459.53352   -19.491473   -132.52787    106.69724   -372.35526   -39.631644    200.01292   -278.93656   -13285.756    293.60247 
   17700    40.650624    40.650624    40.650624   -138.79927   -55.326369     184.4195   -294.18615   -197.14582    43.355972   -435.38042   -163.92561    77.517596   -401.12211   -13288.721    299.56013 
   17750    40.649172    40.649172    40.649172   -36.150917    61.241998    301.71433   -177.09413    19.197546    261.08974   -217.83112    -188.8923    53.233985   -425.61387    -13286.87    296.19526 
   17800    40.646619    40.646619    40.646619    134.11957     266.8086    507.93289    28.844532    61.829198    303.45767   -175.76433    73.720902    313.69552   -165.31402   -13285.681    294.11104 
   17850    40.648224    40.648224    40.648224   -10.097739   -112.46807    129.25215   -349.68482   -4.1572798     235.1876    -243.7169    86.332135    325.31091   -153.48496   -13287.112    297.09284 
   17900    40.649757    40.649757    40.649757   -213.19533    -135.9982    102.47393   -376.24886   -465.20502   -223.67893   -702.33198   -38.382757    201.66991   -277.01449   -13288.333    299.66476 
   17950    40.646153    40.646153    40.646153     133.7404    157.47713    399.26065   -79.764545    242.56937    484.54157    5.5354829    1.1747135    240.10201   -238.88801   -13286.412    296.14748 
   18000    40.646559    40.646559    40.646559    169.63043    205.26381    445.20483   -33.840795    36.418296    275.17107   -203.83583    267.20919    510.88835    31.984339   -13287.075    297.62351 
   18050    40.652159    40.652159    40.652159   -295.84138   -172.97238    68.173629   -410.28404   -283.00239   -41.573204   -520.12741   -431.54937   -190.07844   -668.59325    -13288.39     300.3592 
   18100    40.650501    40.650501    40.650501    -73.75406   -73.999733    166.97923   -311.80932    -130.0967    111.13772   -367.65654   -17.165743    223.87604   -254.87321   -13285.795    295.52623 
   18150    40.646245    40.646245    40.646245    96.166344    155.87866    397.52525   -81.610468   -60.233594    180.51403    -298.5437    192.85397    432.79224   -46.144026   -13287.652    299.30984 
   18200    40.646927    40.646927    40.646927    175.47057    206.98394    446.98745   -32.048701     341.3466    582.88617    103.85616   -21.918825    219.29448   -259.64073   -13285.156    294.66771 
   18250    40.652093    40.652093    40.652093   -179.84718   -56.152416    185.18979   -293.31428   -468.95038   -229.39271   -707.91591   -14.438737    225.56009   -253.04006   -13286.688    297.81787 
   18300     40.65108     40.65108     40.65108   -146.48119   -204.13115    36.445064   -442.18997   -120.05816    119.48689   -359.21081   -115.25425    124.27316   -354.41672   -13286.354    297.34563 
   18350    40.647339    40.647339    40.647339    152.34576    345.38026     587.7775    108.87221    116.05076    358.54884   -120.61872   -4.3937254     238.9245   -239.95843   -13287.164    299.08915 
   18400    40.648314    40.648314    40.648314    39.840227    111.98087    351.76576   -127.08998    -97.70683    143.77562     -335.333    105.24664    347.04985   -131.76946   -13284.387    293.89244 
   18450    40.649518    40.649518    40.649518   -43.171992   -2.8361551    237.05782   -241.60741     129.5971    371.45783   -107.40902   -256.27692   -17.357654   -496.06026   -13286.612    298.36329 
   18500    40.648505    40.648505    40.648505    101.24795    218.24174    458.57346   -20.330292    15.561833    254.09592   -224.85939     69.94029    310.30439    -168.5193    -13284.19    293.83806 
   18550    40.648958    40.648958    40.648958   -52.247421   -4.6820598    235.08231   -243.72244   -196.79381    43.815772   -434.86857    44.733607    282.87838   -195.89728   -13288.345    302.03487 
   18600    40.649113    40.649113    40.649113   -56.733612   -3.5033343    237.74003   -241.09145   -90.042583    150.35097   -328.49071    -76.65492    161.91604   -316.86576   -13286.397    298.41916 
   18650    40.648364    40.648364    40.648364    68.655145    224.00438    465.16901   -13.752122   -188.23487    49.822121   -429.14778    170.19593    411.48169   -67.412812   -13286.073    297.94127 
   18700    40.650336    40.650336    40.650336   -80.376999   -141.46978    100.41658   -378.26338   -13.513316    228.00213     -250.785     -86.1479     155.8122   -322.88874   -13285.705    297.38366 
   18750    40.650298    40.650298    40.650298   -128.58808   -83.145517     154.7497   -323.88739    -205.1903    38.226489    -440.5029   -97.428425    141.39816   -337.09842   -13287.988     301.9554 
   18800    40.646816    40.646816    40.646816    138.77851    312.50042    552.91403    73.880926    83.938646    326.02444   -153.07323     19.89647    260.01065   -218.99591   -13284.734    295.80138 
   18850    40.648234    40.648234    40.648234    30.728254   -38.662071    204.54876   -274.38503   -7.3471006     231.5677   -247.38468    138.19393     381.7895   -97.099678   -13286.842    300.01921 
   18900    40.650992    40.650992    40.650992    -42.95928    148.55719    388.65116   -89.985805   -127.39375    115.66358   -362.98595   -150.04128    90.426992   -388.28945   -13285.424    297.41421 
   18950    40.650288    40.650288    40.650288   -100.85335    -181.3983    61.543618   -417.20199    62.860203    302.72368   -175.98559   -184.02196     56.12202   -422.54143   -13286.265    299.17496 
   19000    40.647024    40.647024    40.647024    214.95262    284.83887    524.43412    45.451191    51.056801    291.27688   -187.78396    308.96218    549.08051    70.165696   -13285.026    296.90714 
   19050    40.649705    40.649705    40.649705   -81.133724   -129.00732     111.9002   -366.84116    75.547217    315.70773   -162.95454   -189.94107    50.940249   -427.70425   -13286.857    300.57186 
[...]
   13800        0.138    291.25069    7.7123916  0.021712303 -0.0064641626 -0.021747989    7.6906313     7.734031    150.55078   -13025.096   -25758.799 
   13850       0.1385    288.55819    7.6958233 -0.022898302 -0.084094538 -0.021748668    7.6739694    7.7173702      149.159   -13022.024   -25296.101 
   13900        0.139    292.21313    7.7793834 -0.018596694  0.033121535 -0.021715397    7.7573606    7.8006947    151.04827   -13022.219   -25979.694 
   13950       0.1395    292.80851    7.7626524   0.03200342  0.059693509 -0.021692809    7.7411307    7.7844186    151.35603   -13020.818   -26181.164 
   14000         0.14    290.78192    7.7739784 -0.018391636 0.00024523942 -0.021694163    7.7519595    7.7952504    150.30847   -13018.072   -25852.773 
   14050       0.1405    292.55995    7.8008559 -0.054400551  0.010070867 -0.021700682    7.7792995    7.8226032    151.22755   -13017.273   -25855.087 
   14100        0.141    290.98435    7.8449078 0.0028284285 -0.032554213 -0.021680222    7.8231655     7.866428    150.41311   -13014.743   -26050.607 
   14150       0.1415    296.18122    7.8575383  0.043051585  0.037247456  -0.02166276    7.8356312    7.8788585    153.09942   -13015.707   -26459.458 
   14200        0.142    294.12159    7.8437331  -0.02390802 -0.0041379011 -0.021657069    7.8221684    7.8653838    152.03478   -13012.916   -26052.291 
   14250       0.1425    287.19968    7.7478812 -0.033567345 -0.002019977 -0.021650784    7.7261193    7.7693216    148.45677   -13007.631   -25707.646 
   14300        0.143    293.71432    7.8738105  0.019746234  0.023631537 -0.021626318    7.8520422    7.8951955    151.82426   -13009.286   -26390.628 
   14350       0.1435     291.4975    7.9045649 0.0057878559  0.018934398 -0.021611112    7.8831622    7.9262845    150.67836   -13006.402   -26430.957 
   14400        0.144     294.6357    7.8741604 -0.046018615 0.00047032948 -0.021618915    7.8523153    7.8954534    152.30053   -13006.298   -26095.374 
   14450       0.1445    292.14967    7.8781755 0.0080106477 -0.008594513 -0.021601182    7.8565682    7.8996701    151.01547   -13003.285   -26258.639 
   14500        0.145     290.8319    7.8916896  0.021238627 -0.0060794099   -0.0215743    7.8700708    7.9131186     150.3343   -13000.867   -26356.163 
   14550       0.1455     289.7379     7.878053  0.036487353 -0.022518208 -0.021563098    7.8564489    7.8994735     149.7688   -12998.563    -26306.74 
   14600        0.146    291.05198    7.8755564 0.0084610282 -0.023920782 -0.021552472    7.8540369    7.8970402    150.44807    -12997.51   -26200.322 
   14650       0.1465    290.14168    7.8880396  0.011861846  -0.01807914  -0.02154043    7.8663637    7.9093428    149.97752   -12995.301   -26272.741 
   14700        0.147    289.85403    7.8562697  0.029594156 -0.0032762703 -0.021525417    7.8347103    7.8776585    149.82883   -12993.412   -26275.292 
   14750       0.1475    284.83157    7.7802611 0.0071037338 -0.022309076 -0.021520162    7.7587067     7.801644    147.23266   -12989.101   -25883.519 
   14800        0.148    295.22257    7.7739472  0.010271893 -0.036002251 -0.021515832    7.7524155    7.7953445    152.60389   -12992.754    -25827.39 
   14850       0.1485    291.85515    7.6392409 -0.022401768 0.0090253166 -0.021501716    7.6175305    7.6604312    150.86323    -12989.31   -25419.548 
   14900        0.149    295.96817    7.5426105  0.010334563   0.05186927 -0.021481443     7.521031    7.5638907     152.9893   -12989.735   -25349.381 
   14950       0.1495    295.25224    7.4039377  0.010039178 -0.001891253 -0.021486547    7.3823921    7.4252616    152.61922   -12987.716   -24706.952 
   15000         0.15    304.02056    7.2650055 -0.071123596  0.034185168 -0.021499449     7.243402    7.2862976    157.15167   -12990.627   -24093.557 
   15050       0.1505    309.56698    7.1267705 -0.049078844  0.019062772 -0.021482469    7.1051385    7.1479998    160.01867   -12991.928   -23655.848 
   15100        0.151    306.69809     6.911152 -0.068385816   0.01273007  -0.02144601    6.8894298    6.9322175    158.53572   -12988.961   -22851.654 
   15150       0.1515    319.26741    6.7401749  0.038975677  0.063540545   -0.0214086    6.7187935    6.7615062    165.03294   -12994.037    -22808.97 
   15200        0.152    319.28619    6.4117552  0.048372635 0.0019629842 -0.021413214    6.3902421    6.4329644    165.04264   -12992.724   -21540.303 
   15250       0.1525     335.4747    6.0896801  0.031858152 -0.071686451  -0.02144764    6.0679186    6.1107115    173.41067   -12999.863   -20166.173 
   15300        0.153    337.88645    5.7313163 -0.0086257228 -0.056823532 -0.021450474    5.7098291    5.7526276    174.65733   -13000.039   -18886.224 
   15350       0.1535    334.72084    5.3875431  0.072478331  -0.03801648 -0.021432116    5.3661679    5.4089295    173.02099   -12997.514    -18073.35 
   15400        0.154     342.0304    5.0719578  0.057930295  0.068710984 -0.021442513     5.050177    5.0929607    176.79939   -13000.538   -17328.664 
   15450       0.1545     346.5106    4.7211677  0.004679539 -0.010202206 -0.021487391    4.6996309    4.7425055    179.11525   -13002.263   -15718.817 
   15500        0.155    347.72231    4.3780797 -0.065055253 -0.0039264244 -0.021530627     4.356418    4.3993805     179.7416   -13002.419    -14363.66 
   15550       0.1555    345.72085    4.1566868 -0.078497099  0.058041973  -0.02153304    4.1350051    4.1779729    178.70702   -13001.037   -13787.439 
   15600        0.156    352.91346    4.0470676 -0.00032413902   0.11750658 -0.021531549     4.025592    4.0685572    182.42496   -13004.544   -13880.834 
   15650       0.1565    355.30306    3.9546563  -0.03687998  0.018411789 -0.021562574    3.9332337     3.976261    183.66017   -13005.686   -13120.627 
   15700        0.157    353.64653    3.7956129  0.017236398 -0.020414122 -0.021597817    3.7738088    3.8169065     182.8039   -13004.714   -12641.451 
   15750       0.1575    361.69497    3.7141687   0.06307154  0.023943058 -0.021624668    3.6923755    3.7355269    186.96422   -13008.807   -12670.611 
   15800        0.158    360.52666    3.6251051   0.01936415 -0.059177906 -0.021678021    3.6035637    3.6468217    186.36031   -13008.159   -11950.971 
   15850       0.1585    364.75668    3.6227972  0.032174451 -0.079266508 -0.021701289    3.6009301    3.6442348    188.54686   -13010.272   -11919.017 
   15900        0.159    362.85533    3.5756819 -0.044065223  0.017372756 -0.021691482    3.5540826    3.5973669    187.56403   -13009.253   -11829.965 
   15950       0.1595    363.19391    3.5803512 -0.013534165  0.076080543 -0.021665133    3.5586018     3.601833    187.73904   -13009.373   -12142.992 
   16000         0.16    359.91317    3.4550027  0.011224552  0.079797756 -0.021671315    3.4332328    3.4764761    186.04319   -13007.653   -11820.083 
   16050       0.1605    360.95119    3.4214138 -0.010860946  0.021842636 -0.021709225    3.3996155    3.4429353    186.57975   -13008.178   -11441.318 
   16100        0.161    364.10444    3.3476955 -0.043325111 -0.037770807 -0.021750856    3.3260183    3.3694223    188.20971   -13009.804   -10888.665 
   16150       0.1615    368.76526    3.2747162 -0.028793028 0.0003051527 -0.021752601    3.2530034     3.296411    190.61894   -13012.249   -10820.761 
   16200        0.162    368.50231    3.3067163  0.061524771 -0.056567645 -0.021724227    3.2846191    3.3279703    190.48302   -13012.162   -11038.911 
   16250       0.1625     360.1726    3.3071438  0.061398264 -0.051713849 -0.021707267    3.2853116    3.3286284    186.17729   -13007.922   -11056.094 
   16300        0.163    363.11155    3.2374907  0.042433084  0.043106488 -0.021718371    3.2155951    3.2589347    187.69647   -13009.558   -11076.768 
   16350       0.1635    362.59563    3.1608747 -0.039909799 -0.011993331 -0.021771442    3.1391438    3.1825902    187.42979   -13009.419   -10363.239 
   16400        0.164    368.58005    3.1163309 -0.054304993  -0.06283763 -0.021794355    3.0942635    3.1377568     190.5232   -13012.631   -9997.2944 
   16450       0.1645    372.76075    3.1361261  0.029011491  0.050938188 -0.021767362    3.1144294    3.1578682    192.68425   -13014.936   -10720.253 
   16500        0.165    363.92767    3.0526071   0.04346032  0.049082515 -0.021759748    3.0307112    3.0741346    188.11833   -13010.527   -10483.833 
   16550       0.1655    375.26214    3.0226861  0.042125017  0.027289623 -0.021789272    3.0006592     3.044142    193.97725   -13016.577   -10307.003 
   16600        0.166    371.62968    2.9128993 -0.031234485 -0.049523321 -0.021830547    2.8909651    2.9345314    192.09959   -13014.888   -9440.4717 
   16650       0.1665    367.44987    2.7947826 -0.066465404  0.023118567 -0.021836801    2.7726662    2.8162446      189.939    -13012.95   -9171.4525 
   16700        0.167    375.99725    2.7648834 0.0035489738  0.063080841 -0.021820146    2.7426179    2.7861632    194.35723   -13017.633   -9438.3774 
   16750       0.1675    371.57801    2.6312173  0.039958914 0.0070719807  -0.02184231    2.6093717    2.6529606    192.07288   -13015.646   -8927.4941 
   16800        0.168    374.14634    2.5423812 -0.004835991 -0.015992686 -0.021871903    2.5203444    2.5639933    193.40048   -13017.298    -8405.175 
   16850       0.1685      381.124     2.481223 -0.040733142  0.049126321 -0.021890754    2.4594292    2.5031155    197.00731   -13021.273   -8298.7207 
   16900        0.169    377.06017    2.3996955  0.025391186 -0.063563393 -0.021914786    2.3775144     2.421249    194.90667    -13019.55   -7871.7444 
   16950       0.1695     383.5371    2.2911985   0.09374905 -0.029740813 -0.021931215    2.2692704    2.3130384    198.25467   -13023.327   -7850.6892 
   17000         0.17    379.69442    2.2146934  0.060914119 0.0058934643 -0.021965773    2.1925221    2.2363594    196.26834   -13021.827   -7605.0034 
   17050       0.1705    383.21702    2.0259605 -0.057646675 -0.0090487664 -0.022028273    2.0038927    2.0478561    198.08922   -13024.158   -6530.8835 
   17100        0.171    382.15449    1.9527077 -0.078602414 -0.0060991189 -0.022063323    1.9306784    1.9747128    197.53998   -13024.114   -6226.6871 
   17150       0.1715    390.65633    1.8887578 -0.029227298  0.061931236 -0.022058236    1.8667671    1.9107911    201.93468   -13029.068   -6404.8723 
   17200        0.172    392.76807    1.8357501 -0.0016333964  0.068984594 -0.022059843    1.8135013     1.857529    203.02626   -13030.769    -6343.671 
   17250       0.1725    389.99611    1.7162119 -0.054745577  0.099005688 -0.022096492    1.6938462    1.7379481     201.5934   -13030.018   -5868.2401 
   17300        0.173    387.15937    1.5332674 -0.020325244 -0.0051990511  -0.02213572    1.5108992    1.5550801    200.12706   -13029.259   -5025.8105 
   17350       0.1735    385.15763    1.5110376 -0.036093519  -0.10308301 -0.022151048    1.4885237    1.5327354    199.09234   -13028.855   -4572.8701 
   17400        0.174    390.57938    1.5910174 -0.0060414409  0.025585585 -0.022116512    1.5688413    1.6129832     201.8949   -13032.353   -5368.5386 
   17450       0.1745     384.1063    1.5527367  0.056312722  0.040261646 -0.022100018     1.530832    1.5749402    198.54889   -13029.683   -5497.7035 
   17500        0.175    391.28815    1.4632812  0.087926805 0.0058239707 -0.022142813    1.4408917    1.4850869    202.26127   -13034.099   -5190.1067 
   17550       0.1755    395.84288    1.4590561   0.07744611 -0.087129541 -0.022205702    1.4367264    1.4810491    204.61566   -13037.179   -4831.2421 
   17600        0.176    395.75652    1.4574467 0.0016722445  -0.12201378 -0.022237231    1.4350258    1.4794119    204.57102   -13037.887   -4457.0171 
   17650       0.1765    392.83818    1.4650782 -0.018908973 -0.037848887 -0.022210388    1.4426815    1.4870135     203.0625   -13037.153   -4694.4012 
   17700        0.177    398.90382    1.6160879  0.095692735  0.055333214 -0.022147167    1.5938969    1.6381021     206.1979   -13041.051   -5890.3797 
   17750       0.1775    402.05164    1.6190144  0.041591843   0.12626917 -0.022177689    1.5969105    1.6411775    207.82504   -13043.454   -5956.2515 
   17800        0.178    406.51766    1.3685035  -0.06015576  0.045226521 -0.022285001    1.3461727    1.3906557    210.13358   -13046.554   -4511.9142 
   17850       0.1785    403.12593    1.2814832  -0.15996605 -0.069381455 -0.022335755     1.259094    1.3036797    208.38036   -13045.607   -3507.1191 
   17900        0.179    403.86429     1.362311 -0.033662106  0.028568733 -0.022285829    1.3396665     1.384152    208.76202   -13046.859   -4524.0589 
   17950       0.1795    404.93553    1.4269753  0.056394132   0.13666424 -0.022230173    1.4045038    1.4488774    209.31576   -13048.273   -5400.1122 
   18000         0.18    407.81479    1.3546732   0.13564015  0.061893527 -0.022265788    1.3321934     1.376639    210.80408   -13050.677   -5174.0228 
   18050       0.1805      411.591    1.2389993 -0.010407261  -0.05374392 -0.022366595    1.2160853    1.2607353    212.75605   -13053.548   -3916.1603 
   18100        0.181    409.64188    1.1754713 -0.057073209  -0.20378237 -0.022426065    1.1528644    1.1976344    211.74852   -13053.432   -3048.7192 
   18150       0.1815    411.17805    1.2158507  0.009822922 -0.056779603 -0.022379792    1.1934896     1.238166    212.54259   -13055.232   -3896.3133 
   18200        0.182    405.70759    1.2827927   0.11026115  0.084096093 -0.022312734    1.2600175     1.304558    209.71484   -13053.351   -4923.8331 
   18250       0.1825    414.08035    1.3014939  0.063108558   0.13471345 -0.022327224    1.2787929    1.3233632    214.04282   -13058.655   -4997.7197 
   18300        0.183    411.14037    1.1682992   -0.1015738 -0.025194645 -0.022421405    1.1461519    1.1909117    212.52311   -13058.092   -3471.7692 
   18350       0.1835    407.68327    1.1290221  -0.11180324 -0.074161023 -0.022448677    1.1065416     1.151357    210.73609   -13057.243   -3143.5262 
   18400        0.184    413.40339    1.1873292  0.031672072  0.061322204 -0.022394049    1.1649417    1.2096472    213.69289   -13061.185    -4267.745 
   18450       0.1845    409.51187    1.1821528   0.13072436  0.020107133 -0.022395286    1.1593937    1.2041017    211.68132   -13060.176   -4443.2809 
   18500        0.185     411.4069    1.0979031  0.067985641 -0.036154967 -0.022454561     1.075167    1.1199947    212.66088    -13062.21   -3765.7792 
   18550       0.1855    418.28181    1.0097126  0.017648244  -0.09057091 -0.022536864   0.98694156    1.0319357     216.2146   -13066.824   -3122.6331 
   18600        0.186    415.78492   0.95073773 -0.074940763 -0.031755127 -0.022560824   0.92804922   0.97309125    214.92393   -13066.586   -2813.4728 
   18650       0.1865     414.6891   0.96743062 -0.014297429 -0.011833429 -0.022532428   0.94502955   0.99001402    214.35749   -13067.087   -3137.6659 
   18700        0.187    407.15103    1.0483484  0.025364924   0.10177936  -0.02249107    1.0250699    1.0699714    210.46097   -13064.222   -3918.3091 
   18750       0.1875    417.02863    1.0167717 -0.039711883  0.048223459 -0.022500806   0.99427624    1.0391977    215.56682   -13070.375    -3417.611 
   18800        0.188    414.42847    0.9619183 -0.049335527  0.018947268 -0.022531177   0.93953251   0.98451507    214.22277   -13070.102   -3105.1001 
   18850       0.1885    418.13968   0.91723668  0.036316617 -0.062688048 -0.022548218   0.89465062   0.93966789    216.14113   -13073.089   -2969.5508 
   18900        0.189    413.13697   0.95666965   0.08651165 -0.061218342 -0.022542843   0.93452816   0.97953466    213.55518   -13071.573   -3273.2099 
   18950       0.1895    414.62588    1.0968674  0.075894004 0.0045338374 -0.022526884    1.0740929    1.1190677    214.32481   -13073.424   -3924.3174 
   19000         0.19    404.68701    1.0785285 -0.049953746 -0.010254662  -0.02253617    1.0557415    1.1007351     209.1873   -13069.318   -3394.4004 
   19050       0.1905     417.9898     1.167389 -0.037750638  0.063169018 -0.022528643    1.1447828    1.1897617    216.06366   -13077.205   -3976.0246 
   19100        0.191    408.74635    1.0938976 -0.044617618   0.05119539 -0.022539206    1.0710392    1.1160389    211.28562   -13073.469   -3668.2512 
   19150       0.1915    412.61364    1.1561929 -0.026460128 0.0098700505 -0.022540226    1.1335414    1.1785437    213.28466   -13076.513   -3798.6761 
   19200        0.192    424.29872    1.2267294  0.020991878 -0.00087700265 -0.022535023    1.2040009    1.2489935    219.32481   -13083.591   -4156.1477 
   19250       0.1925    413.85043    1.2587886  0.057799821 -0.079879113 -0.022535612    1.2360661    1.2810599    213.92397   -13079.232   -4122.3643 
   19300        0.193    416.40341    1.3043736   0.12121524 -0.057169341 -0.022534561     1.281425    1.3264166    215.24364   -13081.596   -4561.3984 
   19350       0.1935    414.41568    1.3480591  0.039266983 -0.089024876 -0.022535408    1.3257781    1.3707713    214.21615   -13081.651   -4327.6707 
   19400        0.194    416.73492     1.305128  0.022209319  0.052278979 -0.022535339    1.2827008    1.3276937      215.415   -13083.883   -4598.7209 
   19450       0.1945    411.51137    1.2689652 -0.046798522  0.060517901 -0.022549106    1.2460315    1.2910524    212.71489   -13082.152   -4275.6152 
   19500        0.195    409.75983    1.1540679 -0.038616738  0.067029986 -0.022582328    1.1313316    1.1764193    211.80949   -13082.239   -3941.6039 
   19550       0.1955    408.79631    1.1350381 -0.013343913 -0.052341632  -0.02260835    1.1121599    1.1573001    211.31144   -13082.765   -3564.5086 
   19600        0.196    410.44065    1.2025847 -0.046174651 -0.028864944 -0.022592576    1.1799108    1.2250193    212.16142   -13084.609   -3758.4838 
   19650       0.1965    406.29645    1.2361511 0.0033384422  0.048176759 -0.022559318    1.2132396    1.2582813    210.01923   -13083.467   -4292.2212 
   19700        0.197    411.18681     1.194101  0.066357446  0.078022778 -0.022558476    1.1717549    1.2167957    212.54712   -13087.005    -4461.604 
   19750       0.1975    412.89506    1.1645585  0.025107153  -0.01793132 -0.022614741    1.1419797    1.1871342    213.43013   -13088.926    -3905.781 
   19800        0.198    404.05349    1.0724971  -0.11986189  -0.12866493 -0.022664458    1.0497445     1.094999    208.85982   -13085.358   -2746.5677 
   19850       0.1985    406.43138    1.1333225  0.031244558 -0.083534394 -0.022611166    1.1105443    1.1556916    210.08898   -13087.618   -3603.4424 
   19900        0.199    412.73965    1.2414044   0.13286855   0.08738096 -0.022540944    1.2187861    1.2637918     213.3498   -13091.886   -4872.1798 
   19950       0.1995    410.58819    1.2056831   0.02645145   0.11659084  -0.02257986    1.1829483    1.2280322    212.23768   -13091.811   -4495.7512 
   20000          0.2    410.43872    1.1150869 -0.084432827 -0.058750672 -0.022664795    1.0920867    1.1373426    212.16042    -13092.73   -3239.6782 
Loop time of 1115.38 on 4 procs for 20000 steps with 4000 atoms

Pair  time (%) = 998.113 (89.4867)
Neigh time (%) = 0.466726 (0.0418447)
Comm  time (%) = 77.6121 (6.95838)
Outpt time (%) = 0.823024 (0.0737889)
Other time (%) = 38.3611 (3.4393)

Nlocal:    1000 ave 1012 max 982 min
Histogram: 1 0 0 0 0 1 0 0 1 1
Nghost:    3723.25 ave 3736 max 3709 min
Histogram: 1 0 0 1 0 0 0 1 0 1
Neighs:    68902.8 ave 71691 max 65731 min
Histogram: 1 0 0 1 0 0 0 1 0 1
FullNghs:  0 ave 0 max 0 min
Histogram: 4 0 0 0 0 0 0 0 0 0

Total # of neighbors = 275611
Ave neighs/atom = 68.9027
Neighbor list builds = 85
Dangerous builds = 0

######################################
# SIMULATION DONE
print "All done"
All done
