LAMMPS (28 Jun 2014)
# Input file for uniaxial tensile loading of single crystal aluminum
# Mark Tschopp, November 2010

# ------------------------ INITIALIZATION ----------------------------
units 		metal
dimension	3
boundary	p	p	p
atom_style	atomic
variable latparam equal 4.05

# ----------------------- ATOM DEFINITION ----------------------------
lattice		fcc ${latparam}
lattice		fcc 4.05
Lattice spacing in x,y,z = 4.05 4.05 4.05
region		whole block 0 10 0 10 0 10
create_box	1 whole
Created orthogonal box = (0 0 0) to (40.5 40.5 40.5)
  1 by 2 by 2 MPI processor grid
lattice 	fcc ${latparam} orient x 1 0 0 orient y 0 1 0 orient z 0 0 1
lattice 	fcc 4.05 orient x 1 0 0 orient y 0 1 0 orient z 0 0 1
Lattice spacing in x,y,z = 4.05 4.05 4.05
create_atoms	1 region whole
Created 4000 atoms

# ------------------------ FORCE FIELDS ------------------------------
pair_style	eam/alloy
pair_coeff	* * Al99.NegFRho.NegRhoR.PosPhiR.eam.alloy Al

# ------------------------- SETTINGS ---------------------------------
compute csym all centro/atom fcc
compute peratom all pe/atom

######################################
# EQUILIBRATION
reset_timestep	0
timestep 0.001
velocity all create 300 12345 mom yes rot no
fix 1 all npt temp 300 300 1 iso 0 0 1 drag 1

# Set thermo output
thermo 1000
thermo_style custom step lx ly lz press pxx pyy pzz pe temp

# Run for at least 10 picosecond (assuming 1 fs timestep)
run 20000
Memory usage per processor = 3.04301 Mbytes
Step Lx Ly Lz Press Pxx Pyy Pzz PotEng Temp 
       0         40.5         40.5         40.5    2799.9035    2750.7704    2838.4343    2810.5058   -13434.415          300 
    1000    40.562451    40.562451    40.562451     874.9349    863.50224    847.27424    914.02821   -13355.567     165.1909 
    2000    40.576448    40.576448    40.576448    267.04227    204.78612    292.84223    303.49844   -13350.818    178.61509 
    3000    40.585299    40.585299    40.585299    109.74134    24.051953    207.86751    97.304573   -13344.421    189.24542 
    4000     40.59309     40.59309     40.59309    58.787377    17.034011    29.007764    130.32036   -13335.036    194.08911 
    5000    40.597962    40.597962    40.597962    188.03205    259.51864    248.06885    56.508648   -13328.709    204.60183 
    6000    40.605097    40.605097    40.605097    89.004813     122.9008   -23.441632    167.55527   -13321.792    213.47225 
    7000    40.612514    40.612514    40.612514   -7.3934007     9.492762     67.26036   -98.933325    -13316.29    224.33392 
    8000     40.61678     40.61678     40.61678    119.52988    129.76634    178.59812    50.225175   -13311.496    235.55398 
    9000    40.623083    40.623083    40.623083    9.5875693   -109.25051    117.67499    20.338236   -13309.781    251.54225 
   10000    40.630842    40.630842    40.630842   -22.848551   -48.110836    117.51262   -137.94743   -13300.625    251.71492 
   11000    40.633911    40.633911    40.633911   -2.0341472   -68.848898    18.716952    44.029504   -13298.227    263.40438 
   12000    40.637892    40.637892    40.637892   -79.647555   -11.573754   -127.51013   -99.858783   -13295.969    273.69152 
   13000    40.645291    40.645291    40.645291   -216.86168   -311.65994   -189.51267   -149.41244   -13292.091    279.08498 
   14000    40.646054    40.646054    40.646054   -98.473081   -103.21005   -108.10875   -84.100441    -13287.56    281.45634 
   15000    40.646553    40.646553    40.646553    128.18374    67.836986    168.26949    148.44473   -13283.813    283.62162 
   16000    40.646708    40.646708    40.646708    355.25653    551.33753    319.20738    195.22469    -13281.94    287.72816 
   17000    40.650738    40.650738    40.650738    148.01999    200.07328    171.52553    72.461155   -13281.505    293.01604 
   18000    40.650718    40.650718    40.650718     190.7721    164.00992    215.61155    192.69483   -13280.712    296.15549 
   19000    40.654303    40.654303    40.654303   -25.138248    146.10088   -68.899036   -152.61659   -13281.166    300.21912 
   20000     40.65051     40.65051     40.65051    204.72159    159.82364    285.34302     168.9981   -13279.162    298.26746 
Loop time of 275.483 on 4 procs for 20000 steps with 4000 atoms

Pair  time (%) = 220.932 (80.198)
Neigh time (%) = 0 (0)
Comm  time (%) = 45.5852 (16.5474)
Outpt time (%) = 0.00620025 (0.00225068)
Other time (%) = 8.95968 (3.25235)

Nlocal:    1000 ave 1000 max 1000 min
Histogram: 4 0 0 0 0 0 0 0 0 0
Nghost:    4235 ave 4235 max 4235 min
Histogram: 4 0 0 0 0 0 0 0 0 0
Neighs:    70000 ave 72653 max 67302 min
Histogram: 1 0 1 0 0 0 0 1 0 1
FullNghs:  0 ave 0 max 0 min
Histogram: 4 0 0 0 0 0 0 0 0 0

Total # of neighbors = 280000
Ave neighs/atom = 70
Neighbor list builds = 0
Dangerous builds = 0
unfix 1

# Store final cell length for strain calculations
variable tmp equal "lx"
variable L0 equal ${tmp}
variable L0 equal 40.6505103419705
print "Initial Length, L0: ${L0}"
Initial Length, L0: 40.6505103419705

######################################
# DEFORMATION
reset_timestep	0

fix		1 all npt temp 300 300 1 y 0 0 1 z 0 0 1 drag 1
variable srate equal 1.0e10
variable srate1 equal "v_srate / 1.0e12"
fix		2 all deform 1 x erate ${srate1} units box remap x
fix		2 all deform 1 x erate 0.01 units box remap x

# Output strain and stress info to file
# for units metal, pressure is in [bars] = 100 [kPa] = 1/10000 [GPa]
# p2, p3, p4 are in GPa
variable strain equal "(lx - v_L0)/v_L0"
variable p1 equal "v_strain"
variable p2 equal "-pxx/10000"
variable p3 equal "-pyy/10000"
variable p4 equal "-pzz/10000"
fix def1 all print 20 "${p1} ${p2} ${p3} ${p4}" file  Al99.NegFRho.NegRhoR.PosPhiR.eam.alloy.def1.txt screen no

# Use cfg for AtomEye
#dump 		1 all cfg 250 dump.tensile_*.cfg id type xs ys zs c_csym c_peratom fx fy fz
#dump_modify 1 element Al

# Display thermo
thermo 	1000
thermo_style	custom step v_strain temp v_p2 v_p3 v_p4 ke pe press

run		20000
Memory usage per processor = 3.04301 Mbytes
Step strain Temp p2 p3 p4 KinEng PotEng Press 
       0 3.4958613e-16    298.26746 -0.015982364 -0.028534302  -0.01689981    154.17782   -13279.162    204.72159 
    1000         0.01    299.47657   0.64232152   0.02589526  0.029888459    154.80283    -13277.25   -2327.0174 
    2000         0.02    302.52903    1.2657274 -0.0014094718 0.0094646081    156.38068   -13273.483   -4245.9418 
    3000         0.03    301.95907    1.9197796  0.002615151  0.036593557    156.08606   -13265.138   -6529.9611 
    4000         0.04    297.86589     2.491524 -0.011581066  0.017130883    153.97025   -13252.329   -8323.5794 
    5000         0.05    302.59873     3.115871 0.00048637716  0.011236036    156.41671    -13241.48   -10425.312 
    6000         0.06     298.9666    3.6974805  0.021543189  0.056068409    154.53922   -13223.877    -12583.64 
    7000         0.07    296.00919    4.2501738  0.060883802 0.0048858036     153.0105    -13204.23   -14386.478 
    8000         0.08    302.29679    4.8333801 -0.012017392 -0.038251392    156.26063   -13187.082   -15943.705 
    9000         0.09    297.11758    5.3748824 0.0080723261  0.021869442    153.58344   -13161.755    -18016.08 
   10000          0.1    294.86506    5.9400576  0.036373322  0.024964564    152.41909    -13135.69   -20004.652 
   11000         0.11    293.87195    6.3803628 -0.021984524 -0.025879858    151.90574   -13108.127   -21108.328 
   12000         0.12    294.17599    6.9129454 -0.017426215  0.036473087     152.0629   -13078.976   -23106.641 
   13000         0.13    297.27762    7.3416987  0.010888575 -0.037858369    153.66617   -13049.336    -24382.43 
   14000         0.14    287.54758    7.7011673 0.0090978212 -0.046338894     148.6366   -13011.103   -25546.421 
   15000         0.15    296.25924    7.2929645 -0.016788622  0.061190209    153.13976   -12981.336   -24457.887 
   16000         0.16     381.3724    2.7275514  0.016386464   0.05577876    197.13571   -13016.655   -9332.3889 
   17000         0.17     396.7743    1.7090056 -0.075245384  -0.02236716    205.09712   -13035.619   -5371.3102 
   18000         0.18    399.53564    1.5358163 -0.013505345 -0.057235625     206.5245   -13052.814   -4883.5844 
   19000         0.19    397.12833    1.4209053 0.0028441619   -0.0562576    205.28013    -13068.25   -4558.3063 
   20000          0.2    395.63847    1.6685933 -0.021305514  0.093289908       204.51   -13083.101   -5801.9258 
Loop time of 402.188 on 4 procs for 20000 steps with 4000 atoms

Pair  time (%) = 300.482 (74.7118)
Neigh time (%) = 0.55183 (0.137207)
Comm  time (%) = 71.6129 (17.8058)
Outpt time (%) = 0.00366849 (0.000912132)
Other time (%) = 29.5376 (7.34423)

Nlocal:    1000 ave 1007 max 993 min
Histogram: 1 0 1 0 0 0 0 1 0 1
Nghost:    3783 ave 3789 max 3774 min
Histogram: 1 0 0 0 0 1 0 0 1 1
Neighs:    68792.5 ave 70216 max 67100 min
Histogram: 1 1 0 0 0 0 0 0 0 2
FullNghs:  0 ave 0 max 0 min
Histogram: 4 0 0 0 0 0 0 0 0 0

Total # of neighbors = 275170
Ave neighs/atom = 68.7925
Neighbor list builds = 87
Dangerous builds = 0

######################################
# SIMULATION DONE
print "All done"
All done
