
# ----------------------- ATOM DEFINITION ----------------------------
lattice		fcc ${latparam}
lattice		fcc 4.05
Lattice spacing in x,y,z = 4.05 4.05 4.05
region		whole block 0 12 0 12 0 12
create_box	1 whole
Created orthogonal box = (0 0 0) to (48.6 48.6 48.6)
  1 by 2 by 2 MPI processor grid
lattice 	fcc ${latparam} orient x 1 0 0 orient y 0 1 0 orient z 0 0 1
lattice 	fcc 4.05 orient x 1 0 0 orient y 0 1 0 orient z 0 0 1
Lattice spacing in x,y,z = 4.05 4.05 4.05
create_atoms	1 region whole
Created 6912 atoms

# ------------------------ FORCE FIELDS ------------------------------

#****************USE THIS TO TEST******************
pair_style	eam/rad
pair_coeff 			* * Al99.PC0.05.eam.alloy.rad.txt Al # pc = 0.5

# ------------------------- SETTINGS ---------------------------------
compute csym all centro/atom fcc
compute peratom all pe/atom

######################################
# EQUILIBRATION
reset_timestep	0
timestep	0.001 # default
# timestep	0.0001 # tiny time step
velocity all create 300 12345 mom yes rot no
fix 1 all npt temp 300 300 1 iso 0 0 1 drag 1

# Set thermo output
thermo 50
# thermo 1 # debug mode

# thermo_style custom step lx ly lz press pxx pyy pzz pe temp
# IMPLEMENTATION HERE

# VERSION add rad variables .v1 .v2
# thermo_style custom step lx ly lz press pxx pyy pzz pxxrad pyyrad pzzrad pe temp

# VERSION ublb separation .v3
thermo_style custom step lx ly lz press pxx pxxub pxxlb pyy pyyub pyylb pzz pzzub pzzlb pe temp

# Run for at least 10 picosecond (assuming 1 fs timestep)
run 	20000 # default
Memory usage per processor = 7.95402 Mbytes
Step Lx Ly Lz Press Pxx Pxxub Pxxlb Pyy Pyyub Pyylb Pzz Pzzub Pzzlb PotEng Temp 
       0         48.6         48.6         48.6     2496.386    2451.7623    245.71825   -240.26454    2520.4586    245.71825   -240.26454     2516.937    245.71825   -240.26454    -23224.32          300 
      50    48.673041    48.673041    48.673041     852.0468    911.67896    1174.1131    688.97569    844.53941    1107.9159    622.66225    799.92203    1062.6376    577.45254   -23050.764    104.74463 
     100    48.760912    48.760912    48.760912   -4427.7962   -4413.3731   -4164.6953   -4642.2216   -4459.8044   -4210.5877   -4688.1842    -4410.211   -4160.8836   -4638.4545   -23108.062    170.21443 
     150    48.680077    48.680077    48.680077    530.62794    530.21765    779.05928    295.44702    500.30673    748.56632     265.1248    561.35944        810.8    327.23674   -23066.334    123.52598 
     200    48.621044    48.621044    48.621044    3170.2645    3242.0508    3486.4382    2998.7698    3091.5624    3335.1843    2847.5262    3177.1802    3419.4427    2931.7128   -23079.827     139.9894 
     250    48.678635    48.678635    48.678635    199.58148    154.01236    391.41086   -92.047438    236.89273    475.40554     -7.99329    207.83935    446.00816   -37.423367   -23084.585    145.80114 
     300    48.725258    48.725258    48.725258   -2178.1679   -2165.6282   -1927.9553   -2408.2747   -2199.2204   -1962.3043   -2442.5619   -2169.6551   -1932.9163   -2413.1948   -23089.638    152.49909 
     350    48.684235    48.684235    48.684235   -315.82879   -243.16682   -2.5759094   -485.52258   -383.71805   -141.41936   -624.37248   -320.60149   -78.192519   -561.07205   -23097.254     161.5629 
     400    48.646576    48.646576    48.646576    1781.6578    1761.2488    2006.6517    1520.8249    1811.2289    2056.5476    1570.7667    1772.4958    2017.5458    1531.7035   -23088.241    152.43278 
     450    48.679957    48.679957    48.679957    83.754641     89.85984    333.61086   -149.75828    45.655735    286.91722   -196.49016    115.74835     358.7685   -124.67042   -23086.824    151.55301 
     500    48.709624    48.709624    48.709624   -1335.2159   -1340.1186   -1098.7041   -1580.0344   -1305.8483   -1064.4053   -1545.6876   -1359.6809   -1119.7171   -1601.0269   -23086.094    151.73053 
     550    48.683988    48.683988    48.683988   -30.668778   -66.660112    174.42542   -308.80842   -57.839798    183.82268   -299.34367    32.493577    274.57003     -208.513   -23085.967    152.42232 
     600    48.660027    48.660027    48.660027    1109.3946    1186.5281    1428.4465    943.67818    1091.0112    1331.9985    847.25162    1050.6447    1292.4117    807.65393   -23088.624    156.41975 
     650    48.681759    48.681759    48.681759    47.144583    8.9360318    251.32223   -231.98206    54.220992    296.35996   -186.86334    78.276726    320.54193   -162.69936   -23088.562    157.24015 
     700    48.702912    48.702912    48.702912   -1040.4161   -1022.6996   -782.03435   -1263.8007   -1069.3919     -827.839   -1309.6756   -1029.1568   -788.23661   -1270.0597   -23087.614    157.20847 
     750    48.684252    48.684252    48.684252   -101.89735   -137.63719    104.00712   -379.22391   -84.077018     157.2556   -325.95463   -83.977851     158.2608   -324.92815   -23087.759    158.30199 
     800    48.666245    48.666245    48.666245    851.69778    870.69784    1114.9292    630.49507    760.34249    1005.0106    520.50214    924.05302    1168.4135     683.9758   -23085.415    156.68343 
     850    48.682879    48.682879    48.682879    45.283585    25.461638    268.16033   -215.00478    39.147155    282.06133   -201.24442    71.241963    312.49408   -170.79181   -23083.675    155.69778 
     900    48.698988    48.698988    48.698988    -721.1681   -686.86327    -444.2168   -926.18371   -765.90698   -524.88166    -1006.928   -710.73405   -468.87781   -950.91293   -23087.802     161.3492 
     950    48.685507    48.685507    48.685507   -32.580848   -12.530709    229.84149   -253.41893   -40.348487    203.80978   -279.45223   -44.863348    198.38954   -284.80288   -23079.104    152.58073 
    1000    48.671563    48.671563    48.671563    691.27509    765.77142    1007.8773     523.8998    660.35012    901.36099    417.37113    647.70372    890.19229    406.27235   -23085.847    161.16557 
    1050    48.684022    48.684022    48.684022    74.817226    94.491596    334.86342   -148.44856    104.49433    345.00673   -138.31096    25.465748     266.0319   -217.26259   -23080.529    156.20485 
    1100    48.697693    48.697693    48.697693   -663.58464   -679.68316   -438.32743   -920.49709   -753.26963   -510.59875   -992.83151   -557.80112   -315.54997   -797.72696   -23084.844    162.04398 
    1150    48.687134    48.687134    48.687134   -79.935003   -98.377647    143.41518   -339.43506   -72.973264     169.1558   -313.75986   -68.454097    173.75395   -309.09351   -23085.934    164.28171 
    1200    48.675453    48.675453    48.675453    561.02538    558.39683    801.77455     317.7575     478.7594     722.7333    238.70711     645.9199    889.74813     405.8447   -23077.106    155.41991 
    1250    48.685417    48.685417    48.685417     96.38082    133.48517    375.60947   -107.55019    109.50391    350.24687   -132.73285    46.153388    287.71717   -195.38059   -23083.868    164.00561 
    1300    48.696961    48.696961    48.696961   -456.10644   -399.24351   -155.97745    -638.4423   -471.92398   -228.97729   -711.42056   -497.15183    -255.3729   -737.79007   -23077.425    157.81784 
    1350    48.688634    48.688634    48.688634   -90.679121   -73.650483    167.40178   -315.43589   -127.29516    113.63555    -369.2883   -71.091716    170.36292   -312.42643   -23082.599     164.6358 
    1400    48.678121    48.678121    48.678121    507.69178     554.4714    796.49152    312.81501    450.35808    692.27215    208.57432    518.24587    760.73136     277.0924   -23078.751    161.36299 
    1450    48.687497    48.687497    48.687497   -39.138775   -61.107462    180.40729   -302.63516   -98.736247    142.26803   -340.73387    42.427384    283.50652   -199.45192   -23081.559    165.52548 
    1500    48.696039    48.696039    48.696039   -413.41528   -358.07579   -116.10414   -598.67445   -394.42103    -151.9328    -634.4876   -487.74902   -245.32963   -727.88694   -23080.844      165.759 
    1550    48.688594    48.688594    48.688594    49.904932    37.730511     281.9056   -201.10275   -14.366551    228.71338    -254.3039    126.35083    369.05338   -113.97462   -23076.154    161.52792 
    1600    48.682005    48.682005    48.682005    283.34848    305.27237    544.82019    61.517863    272.37586    513.39238    30.013324    272.39721    512.39301    29.070758   -23081.157    168.18889 
    1650    48.688818    48.688818    48.688818    22.617655    45.220742    288.06819   -195.06403   -15.654054    226.97803   -256.13389    38.286277    281.40543   -201.70868   -23077.566    165.17243 
    1700    48.696716    48.696716    48.696716   -419.98244   -422.07482   -179.04636   -661.43248   -468.50319    -224.7449   -707.19833    -369.3693   -125.23232   -607.59866   -23078.631    167.40314 
    1750    48.688437    48.688437    48.688437    113.95733    121.23645    362.86642   -120.06799    22.212473    263.38794   -219.64666    198.42307    439.88739   -43.030765   -23073.967    163.23073 
    1800    48.683612    48.683612    48.683612    292.48559    319.41225    561.13278    77.703572    251.85441     494.0957    10.775866    306.19012    548.46749    65.110934   -23079.124    170.04105 
    1850    48.690979    48.690979    48.690979      -9.9818     80.45051    323.19456   -159.69137   -125.24851    117.84354   -365.15271    14.852602    258.42407   -224.45494   -23073.041    164.25807 
    1900    48.695967    48.695967    48.695967   -238.49055   -237.41566    2.7348596   -479.87839   -221.47249     18.64522   -464.02114    -256.5835   -16.282384   -498.81827   -23073.504     165.8295 
    1950    48.690166    48.690166    48.690166   -43.070144     41.20675    283.56756   -199.31204   -153.91493    87.746387    -395.2356    -16.50225     224.4838   -258.51398   -23079.215    173.25033 
    2000    48.685677    48.685677    48.685677     271.2924    271.23704    515.23563    32.007077    257.78745    501.18536    17.889072     284.8527    530.20826    46.991142   -23075.736    170.39345 
    2050    48.692008    48.692008    48.692008    5.4531145    33.546903      274.753   -208.27067   -106.54599    135.26079   -347.68899    89.358431    330.63812   -152.35266   -23070.257    165.31075 
    2100    48.697232    48.697232    48.697232    -287.6662   -168.69834    73.851401   -408.61508   -317.09351   -73.407293   -555.90715   -377.20676   -134.95442   -617.41223   -23074.848     171.4769 
    2150    48.691551    48.691551    48.691551    64.695751    65.796814    306.82788   -175.99733    34.374024    274.06337    -208.7983    93.916414    335.13728   -147.68642   -23073.969    171.55453 
    2200    48.688092    48.688092    48.688092    223.57465    305.76422    547.77377    64.600111    230.24148    473.62675   -9.6341816    134.71826    377.20388    -106.0315   -23071.192    169.47559 
    2250    48.693774    48.693774    48.693774   -57.380572    -69.75465     171.0734   -311.56071   -82.221987    159.13062   -323.67677   -20.165079    221.01369   -261.68916    -23074.24    173.93859 
    2300    48.697159    48.697159    48.697159   -210.68621   -152.00421    91.038646   -391.49693    -279.3065   -38.372023   -521.05697   -200.74792    40.627748   -441.96075   -23070.663    170.97301 
    2350    48.693152    48.693152    48.693152    17.461266    25.624941    268.20857   -214.60929    2.8112201    246.48514   -236.28542    23.947636     265.7262   -217.07235   -23073.305    174.96954 
    2400    48.690298    48.690298    48.690298    187.25914    296.17305    538.23206    55.245524    111.04422    352.94001   -130.04961    154.56014    395.55003   -87.545081   -23069.644    171.92734 
    2450    48.695367    48.695367    48.695367   -23.203615   -5.5040328    236.72094   -245.98396   -23.977577    218.39431   -264.28837   -40.129234    202.44623   -280.18667   -23070.863    174.32548 
    2500    48.698396    48.698396    48.698396   -200.97573   -98.690438    141.87132   -340.73037   -291.80944    -51.65163   -534.18986   -212.42731    28.529334   -454.09527    -23069.11    173.42138 
    2550    48.693469    48.693469    48.693469    36.694567    62.768406     304.8209   -177.98972   -53.698338    189.19353   -293.66772    101.01363    344.24319   -138.59234   -23070.785    176.32704 
    2600    48.691137    48.691137    48.691137     263.3279     406.6238    648.79681     165.7658     114.4684    355.67729   -127.42651     268.8915    510.09199    27.113538   -23068.115    174.39571 
    2650    48.697984    48.697984    48.697984   -119.59855   -116.59912    125.70793   -356.83851   -122.95046    118.91875   -363.67208   -119.24608    123.52118   -359.12178   -23067.871    175.15541 
    2700    48.700224    48.700224    48.700224   -230.50409   -158.40968     82.76857   -399.53784   -385.65864   -145.24427   -627.65511   -147.44397    93.707999   -388.48718   -23070.193    178.81608 
    2750    48.694038    48.694038    48.694038    88.988852    63.040704    304.73712   -178.13172     202.0181    444.64587   -38.153616    1.9077469    244.35481   -238.40182   -23067.638    176.99606 
    2800    48.693162    48.693162    48.693162    241.30503    261.00963    503.79778    20.826074    248.05928    490.21801    7.2537526    214.84618     456.0682   -26.781615   -23066.323    176.57268 
    2850    48.699852    48.699852    48.699852   -216.12366   -179.51913    60.942386   -421.52566   -243.74919   -2.3066505   -484.70937   -225.10265    15.753282   -466.68617   -23067.963    179.46269 
    2900    48.699914    48.699914    48.699914   -127.17633   -66.144695    176.34863   -306.16318   -254.33937   -11.698518   -494.28012   -61.044923     181.2519   -301.21231   -23065.867    178.15324 
    2950    48.695501    48.695501    48.695501    136.19866    180.30983    423.09168    -59.71323    145.43206     386.6527   -96.167697    82.854078    322.61011   -160.11622   -23066.624    180.05697 
    3000    48.696462    48.696462    48.696462    80.378497    18.329346    260.71484   -222.04682    100.59097    344.37304   -138.41472    122.21518    365.40308   -117.33315   -23064.854    179.11003 
    3050    48.701308    48.701308    48.701308   -159.69051   -137.12854    103.40382   -378.88838   -162.98782    78.891267   -403.46339   -178.95518    63.527459   -418.81392   -23066.697    182.23551 
    3100    48.699853    48.699853    48.699853   -32.211386    7.4970339     250.1418   -232.43217   -90.224403    152.01239   -330.54972   -13.906789    228.42743   -254.10357   -23063.176    179.33645 
    3150    48.696965    48.696965    48.696965    68.226798    116.07246    358.98409   -123.67579    68.018868    309.90227   -172.73716    20.589062    264.00014   -218.64451   -23064.512    181.88021 
    3200     48.69801     48.69801     48.69801    164.26096    161.44271     402.2179     -80.4956    127.69818    367.91727   -114.79993    203.64198    445.17755   -37.565833   -23060.183    178.08861 
    3250    48.702899    48.702899    48.702899    -240.0724     -225.462    17.121682   -465.16759   -249.93001   -6.8394566    -489.1983   -244.82519   -3.8152966   -486.17744   -23066.154    185.81101 
    3300    48.700603    48.700603    48.700603    23.111695    40.430998    282.75863   -199.87241    34.790454    276.61995   -205.93687   -5.8863667    236.32314   -246.23679   -23059.266     179.1516 
    3350    48.698334    48.698334    48.698334    82.712772    163.77831    405.75211   -76.925035    10.162988    252.74072   -229.95711    74.197013    315.98764   -166.62494   -23063.293    184.70745 
    3400     48.69993     48.69993     48.69993    52.771586    121.34773    363.89859   -118.77344    34.558092    276.54386   -206.10494    2.4089332    244.25847   -238.23243   -23060.815    182.98483 
    3450    48.703205    48.703205    48.703205    -96.85624   -83.775447    158.21735   -324.12948    -77.96745    163.59434   -318.82209   -128.82582    113.50526   -368.70396   -23060.376    183.54135 
    3500     48.70201     48.70201     48.70201   -36.806736    -30.03124     211.9381   -270.42438   -21.540897    219.95079   -262.45271   -58.848072    182.36689   -299.99281   -23062.108    186.53442 
    3550    48.699492    48.699492    48.699492    170.23598    227.68321    468.94267   -13.701806    193.30302    434.86652   -47.772711    89.721712    332.27695   -150.40525   -23057.263    182.15291 
    3600    48.702258    48.702258    48.702258   -86.461352   -109.99909    131.60236   -350.83051   -152.09546    89.152302   -393.30148    2.7104932    242.93349   -239.48554   -23063.178    189.82546 
    3650     48.70392     48.70392     48.70392   -68.668754    -13.54673    228.99075   -253.42479   -61.272813    183.00016   -299.45974   -131.18672    112.58024   -369.86882   -23057.876    184.92579 
    3700    48.702548    48.702548    48.702548   -18.731632    56.015523    296.91746   -185.47924   -142.06352    99.416663   -383.04366    29.853103    272.28391   -210.14765    -23059.21    187.47848 
    3750      48.7004      48.7004      48.7004    163.04015    237.09956    480.62557   -2.0542796    167.63917    409.22602   -73.445541    84.381716    326.38599     -156.276    -23056.77    185.78811 
    3800    48.703741    48.703741    48.703741   -4.1383697    23.304867    266.26866   -216.08615    14.633499    256.46009   -225.96166   -50.353474    191.90553   -290.44775   -23057.401    187.54203 
    3850    48.705829    48.705829    48.705829   -44.958358    28.023303    269.94594   -212.25771   -101.16316    140.03503   -342.24312    -61.73522    179.54804   -302.62931    -23055.16     186.0868 
    3900    48.704139    48.704139    48.704139   -10.494754   -69.204537    173.72498   -308.69547   -51.039495    191.52128   -290.89192     88.75977    329.10766   -153.28175     -23057.3    189.52604 
    3950    48.701966    48.701966    48.701966    151.91265    203.19988    444.82549   -37.789503    57.152283    298.46945   -184.11651     195.3858    437.22442   -45.435713   -23054.495    187.43459 
    4000    48.704531    48.704531    48.704531    27.257068    22.802097    263.31058   -219.17639   -24.532807    217.22401   -265.20063    83.501914    324.52371    -157.9135   -23055.315    189.39556 
    4050    48.707937    48.707937    48.707937    -135.3897   -142.51167    99.024563   -382.96048   -77.766212    164.38686   -317.75146   -185.89122    57.284934   -424.80555   -23057.013    192.33778 
    4100    48.706227    48.706227    48.706227   -33.211251    56.316026    298.17656   -184.02784   -137.40789    105.03216   -377.22615   -18.541889    222.63086   -259.53378   -23055.904    192.15069 
    4150    48.703129    48.703129    48.703129    146.46063    114.63175    356.06855   -126.47191    173.85084    414.72147   -67.708666    150.89931    393.71066   -88.817884   -23054.066    191.13753 
    4200    48.705338    48.705338    48.705338   -14.198573    37.036491    278.34965   -204.06693   -59.616611    183.66993   -298.75933   -20.015599    221.20353   -261.18485   -23054.575    192.74643 
    4250    48.707873    48.707873    48.707873   -48.619682   -10.738218    230.60922   -251.73511   -58.640729    182.57617   -299.82656   -76.480098    165.89906   -316.46295   -23050.459    189.18026 
    4300    48.708021    48.708021    48.708021    -71.47148   -48.596638    193.13063   -288.95449     -27.8045    213.63505    -268.5688    -138.0133    103.08138   -379.07985   -23054.857    195.14745 
    4350    48.705458    48.705458    48.705458    63.737234     125.9259    368.29759    -113.9674   -12.939068     228.7243   -253.69493    78.224869    320.08179   -162.26888   -23052.915    194.02008 
    4400    48.705546    48.705546    48.705546    59.002937     103.2883    344.53309   -137.88284     59.44931    301.43625   -180.85475    14.271204     255.4141   -226.89009   -23054.338     196.6605 
    4450    48.709199    48.709199    48.709199    -72.89735    43.472176    285.16831   -196.93025   -168.73365    74.501433    -407.5965   -93.430572    148.72954   -333.35252   -23052.021    195.10243 
    4500    48.709992    48.709992    48.709992   -62.262826   -4.4683372    238.37326   -243.76692   -88.105552    153.27275   -328.80207   -94.214587    146.66693    -335.4341   -23050.348    194.27189 
    4550    48.707492    48.707492    48.707492    39.697805    75.475628    317.52322   -164.65821    30.079692    271.87362   -210.36395    13.538096    255.63631   -226.57409   -23051.082    196.13285 
    4600    48.706709    48.706709    48.706709     60.40358    64.234795    305.58686   -176.72626    31.469078     272.5213   -209.82813    85.506867    327.49467   -154.74989   -23052.103    198.32523 
    4650    48.708958    48.708958    48.708958    33.704243    191.73979    435.18427   -47.066853   -132.19024    110.42162   -371.88603    41.563181    283.67007   -198.57558   -23047.718    194.44587 
    4700    48.710962    48.710962    48.710962    -27.75816   -36.661123    204.37478   -277.66919     5.248281    245.88878   -236.23424   -51.861636    189.66454   -292.34119   -23047.861    195.64989 
    4750    48.710854    48.710854    48.710854   -58.083649    4.5107352    245.40329   -236.62835   -73.969253    167.78132   -314.32846   -104.79243    137.26543   -344.78559   -23048.622    197.53738 
    4800     48.70916     48.70916     48.70916    58.163947    66.429591    307.50286   -174.68227    14.223558    255.94102   -226.25795    93.838692    334.43611   -147.66821   -23049.787    199.88646 
    4850    48.708912    48.708912    48.708912    42.444235    160.00018     401.4145   -80.819532   -59.991801    182.36086   -299.96397    27.324322    269.41338   -212.77173   -23048.249    199.19907 
    4900    48.710788    48.710788    48.710788   -11.377852   -17.568849    224.59525   -257.50445    -26.80871    213.47013   -268.71499    10.244003    250.84415   -231.26753   -23046.464    198.23601 
    4950    48.712392    48.712392    48.712392   -92.154675   -41.159982    200.70534   -281.12167   -71.287004    170.32931   -311.60567   -164.01704    77.025503   -404.95399   -23050.283    203.54605 
    5000    48.711487    48.711487    48.711487   -6.1328866    65.331073    307.80493   -174.31598   -41.941543    201.02759   -281.07781    -41.78819    200.25106   -281.84662   -23046.329    200.15248 
    5050    48.710748    48.710748    48.710748    55.071847    149.64775    391.67723    -90.59372    -50.24174    191.13199    -291.0847     65.80953    308.11746   -173.99857    -23045.36    200.10204 
    5100    48.712087    48.712087    48.712087   -3.8423891    9.0715651    251.48933   -230.54924   -10.019264    231.06858    -251.0059   -10.579468     232.1011   -250.04131    -23046.26    202.14121 
    5150    48.713296    48.713296    48.713296   -6.5150057    98.881791    340.89854   -141.06921   -93.266524    148.21572   -333.76925   -25.160284    216.92964   -265.02568    -23043.27    199.82653 
    5200    48.713044    48.713044    48.713044   -4.9045659    48.193319    288.69984   -193.31496   -99.984226    141.75039   -340.15479     37.07721    278.17747   -203.73774   -23045.816    203.71421 
    5250    48.712097    48.712097    48.712097    45.631277    110.66047    352.80286   -129.28295  -0.98276298    239.68679   -242.41249    27.216124    266.82145   -215.26534   -23043.262    201.88598 
    5300    48.712838    48.712838    48.712838    10.222252    9.2224678    250.85099   -231.17896   -15.639272    226.29653   -255.70701    37.083562    277.35135   -204.60467   -23045.632    205.56433 
    5350     48.71426     48.71426     48.71426   -83.286142   -107.75919    133.41524   -348.50419   -73.320388    169.36079   -312.61713   -68.778845    173.20392   -308.75768   -23044.988    205.87143 
    5400     48.71465     48.71465     48.71465   -17.735564    40.647081    283.48924   -198.40531   -27.463219    215.00762   -266.87097   -66.390555     177.7892   -304.04752   -23043.395    205.11159 
    5450    48.714613    48.714613    48.714613    21.308331    148.39907    390.94037   -90.975159   -77.699466    164.86008   -317.00619   -6.7746076    235.18297   -246.70921   -23040.805    203.24582 
    5500    48.713384    48.713384    48.713384    63.498502    44.006508    286.07113   -195.99276    64.576837    306.87154    -175.2198     81.91216    321.42755   -160.68536   -23039.826    203.17784 
    5550    48.713955    48.713955    48.713955    92.583592    121.25403    361.87406   -120.15421    108.02564    348.93448   -133.14371    48.471108    290.91848   -191.22719   -23039.402    203.72028 
    5600    48.716884    48.716884    48.716884   -123.14978   -88.612504    152.89095   -328.76319   -258.77853   -17.852935   -499.65059   -22.058316     217.8577   -263.87687   -23042.768    208.51606 
    5650    48.715781    48.715781    48.715781   -34.417487    -3.425837    239.01501   -242.82029   -5.8906203    235.30889   -246.59562   -93.936005    146.54164   -335.33055   -23041.031    207.59182 
    5700    48.714325    48.714325    48.714325    30.082849    108.56369    350.93245    -130.9922     18.52338    259.29734   -222.66793   -36.838526    205.41578   -276.45156   -23043.089    210.91808 
    5750    48.716304    48.716304    48.716304   -41.794827   -134.14463    107.77725    -374.0894    11.871266    255.57107    -226.2765   -3.1111129    240.09972   -241.74583    -23039.06    207.42525 
    5800    48.716989    48.716989    48.716989     46.17322   -40.914046    200.35483    -281.3975    109.23201    349.43717   -132.40997    70.201699    312.50457   -169.28105    -23037.96    207.22119 
    5850    48.716842    48.716842    48.716842   -15.194046   -31.183943    211.03475   -270.77114   -20.284635    222.14405   -259.74174    5.8864411     246.1125   -235.75561    -23038.16    208.45732 
    5900    48.715935    48.715935    48.715935    47.700677    70.916622    310.95529   -171.00167    38.743747    278.86903   -203.00753    33.441661    275.10075   -206.73864   -23038.772    210.16316 
    5950    48.716972    48.716972    48.716972   -36.649946    8.0052481    248.86679   -232.99634   -7.8865321    233.95727   -247.89007   -110.06855     131.5854   -350.29665   -23040.228    212.80463 
    6000    48.718824    48.718824    48.718824   -33.982674    -20.31286    222.85239   -259.04712   -53.017209    189.88121   -292.00145   -28.617952     213.1009   -268.73894   -23034.638    207.55307 
    6050    48.718426    48.718426    48.718426   -14.591404    22.237832    263.96491   -217.83492   -110.22244    131.95469   -349.78693    44.210398    286.58384   -195.13452   -23037.103    211.32859 
    6100    48.716768    48.716768    48.716768    95.892389    71.652623    313.53034   -168.16488    175.76088    417.77613   -64.061987    40.263665    281.75005   -200.15529   -23037.107    212.35244 
    6150    48.718638    48.718638    48.718638      33.1445    71.697395    314.09312   -167.64306   -9.6537607    232.06611   -249.74723    37.389866    280.30533   -201.48268   -23034.548    210.49305 
    6200    48.720271    48.720271    48.720271   -72.467962   -43.124419    198.08302    -283.5499   -93.181639    148.43719   -333.22621   -81.097827    159.77537   -321.89594   -23035.791    212.89929 
    6250    48.718766    48.718766    48.718766    93.579165    142.25427    384.10747   -97.708559    111.06807    352.44114   -129.36677    27.415158    269.49812   -212.23176    -23033.21    211.01287 
    6300    48.719324    48.719324    48.719324    43.819091    157.30654    398.75393   -82.976662   -46.851325    194.20085   -287.41926    21.002052    262.16954   -219.60705    -23035.14    214.18135 
    6350    48.720303    48.720303    48.720303   -90.116467   -133.81921    107.80393    -373.8991   -56.306399    184.77705   -296.86905   -80.223792    160.94976   -320.73993   -23037.038    217.31156 
    6400     48.72031     48.72031     48.72031    17.443789    100.10833    343.25232   -138.50939      -16.696      226.234   -255.63886   -31.080967     211.3234   -270.39017   -23030.839    211.36681 
    6450    48.720137    48.720137    48.720137    62.153282    1.8089834    242.44312   -239.25447    138.81325    379.93761   -101.86101    45.837615    287.38398   -194.33342   -23033.138    214.95068 
    6500    48.720581    48.720581    48.720581    31.066997    93.578896    335.46118     -146.172    62.024362    304.69979   -177.08546   -62.402266    178.75064    -303.0006    -23031.74    214.37943 
    6550    48.722727    48.722727    48.722727   -24.512683   -4.4244302    238.06825   -243.45483    -87.71663    152.91635    -328.6556    18.603012    259.86513   -221.56153   -23032.724    216.48276 
    6600    48.722669    48.722669    48.722669   -57.490337   -94.389998    145.16805   -336.38435    69.897579    311.34649   -170.23668   -147.97859    94.104059   -387.42534   -23031.773     216.4179 
    6650    48.720387    48.720387    48.720387     123.0368    164.40172    405.69103   -76.033703    46.976332    288.22287   -193.54008    157.73235    398.30592   -83.420501    -23031.45    217.04947 
    6700    48.722597    48.722597    48.722597   -35.195879    92.315215    333.80027   -147.85262   -22.627301    218.17756   -263.44381   -175.27555    66.730156   -414.89167   -23030.896     217.4203 
    6750    48.724661    48.724661    48.724661   -72.385364   -57.716605    185.35963   -296.10166   -82.754625    158.77049   -322.63424   -76.684863    163.76387   -317.60883    -23031.51    219.10062 
    6800    48.723306    48.723306    48.723306   -48.991299   -82.617263    158.66067   -322.81084   -55.533774    185.10875   -296.46811   -8.8228601    233.06851   -248.39317   -23031.063    219.59583 
    6850    48.721175    48.721175    48.721175    137.57172     217.8469    459.83075   -21.877258    155.69014    397.14412   -84.671234    39.178131    283.04568   -198.69027   -23030.209    219.62205 
    6900    48.724282    48.724282    48.724282   -15.588173   -63.522166    179.55548   -301.87037    38.891265    282.23773   -199.25819   -22.133618    219.33867   -262.02917   -23029.791    220.14096 
    6950    48.726984    48.726984    48.726984   -92.227141   -115.72216     126.7002   -354.63673   -40.382168    200.75997   -280.59932   -120.57709     120.2876   -360.97365   -23027.578    218.65396 
    7000    48.725203    48.725203    48.725203    17.091947   -51.225606    189.90502   -291.52955    67.229121    308.72377   -172.76577    35.272326    277.02216   -204.46428    -23027.33    219.35537 
    7050    48.722616    48.722616    48.722616    34.049456    31.319057    273.33006   -208.27718    -85.27826     156.4484   -325.15052    156.10757    397.61691   -83.854998    -23030.38     223.7551 
    7100    48.723496    48.723496    48.723496    206.40276    285.86276    527.11036    45.398643    219.00635    461.67461   -19.934076    114.33918    356.30309   -125.28203   -23024.092    217.69411 
    7150    48.728357    48.728357    48.728357    -248.1268   -314.15246   -74.312809   -555.52116   -227.83131    13.121933   -468.04691   -202.39663     38.90159   -442.29596   -23029.216    224.41387 
    7200    48.725352    48.725352    48.725352    64.869048    57.849271    300.04646    -181.5028    9.1007129    250.36954   -231.18205    127.65716    369.00413   -112.54871   -23024.233    219.80307 
    7250    48.723959    48.723959    48.723959    22.175271   -54.704654    186.13257   -295.40839    89.824683    330.91967   -150.69411    31.405784    272.71821   -208.81149   -23028.855    225.95559 
    7300    48.725396    48.725396    48.725396    114.00326    114.66951    355.54271   -125.90562    137.84856     379.9972    -101.5646    89.491718     331.4247   -150.05388   -23026.139    223.88861 
    7350    48.729976    48.729976    48.729976   -133.08475   -170.94032    70.977407   -410.28955   -110.86583    130.02287   -351.15328    -117.4481    124.90171   -356.26477   -23024.285     222.7817 
    7400    48.728925    48.728925    48.728925   -99.703103   -34.780911    207.76208   -273.50849   -55.188888    184.61839   -296.57702   -209.13951    32.299271   -448.96018   -23026.342    226.05512 
    7450    48.724608    48.724608    48.724608    166.57647    106.37867    348.75001   -132.92825    167.01017    409.58569   -71.989684    226.34058    466.81041   -14.742317   -23022.813    223.06971 
    7500    48.726172    48.726172    48.726172    -4.525935    89.375117     329.8507   -151.44571   -27.209763    214.50175   -266.90235   -75.743159    165.90371   -315.43292   -23027.383    229.15768 
    7550    48.728787    48.728787    48.728787     33.08135    -44.53937    195.97365   -285.35563    68.074919    309.23437   -172.05315    75.708501    317.46141   -163.92036   -23019.447    221.23381 
    7600     48.72947     48.72947     48.72947     -165.817   -157.09638    84.623801   -396.53942   -191.99609    48.759638   -432.46163   -148.35852    92.605749   -388.53484   -23025.991    229.51907 
    7650     48.72523     48.72523     48.72523    211.63777     211.4111    451.97835   -29.580829      258.325    499.74902    18.280523    165.17719    407.43518   -74.063594   -23022.742    226.84355 
    7700    48.727307    48.727307    48.727307    53.414515    126.70569     367.7518   -113.69529     100.8151    341.99742   -139.54263   -67.277243    173.72471   -307.70912   -23021.123    225.98527 
    7750    48.731429    48.731429    48.731429   -141.69908   -85.390674    155.42709   -325.75733   -176.36295    65.061529    -416.1491   -163.34361    77.692351   -403.43666   -23022.216    228.16106 
    7800    48.730181    48.730181    48.730181   -74.930575   -130.18239    111.67236    -369.6163    -32.40949    209.63639   -271.70718   -62.199844    179.29464   -301.97562   -23021.149    227.91643 
    7850    48.726264    48.726264    48.726264    168.47699    262.68705    504.40347    22.928441    124.23584    365.00355   -116.55208    118.50807    361.71584   -119.77822   -23020.495    228.14031 
    7900    48.728745    48.728745    48.728745    100.08533    39.283319    280.32035   -200.99688    153.23175      394.294   -87.072517    107.74091     348.6984   -132.63447    -23018.14    226.45557 
    7950    48.733178    48.733178    48.733178   -157.58796   -155.14999    85.499087   -395.48982   -96.147081    143.78727   -337.34576    -221.4668      17.3595   -463.67091   -23021.594    231.27251 
    8000    48.731093    48.731093    48.731093   -45.151895   -91.709048    148.22846   -332.92697    8.0127741    249.10528   -232.09643   -51.759411    189.16324    -292.0411   -23021.672    232.29708 
    8050    48.728895    48.728895    48.728895    53.722566    81.172305    322.73406   -158.67992    -38.95199    202.20037   -279.15792    118.94738    361.88494   -119.43242   -23022.902    234.61462 
    8100    48.731159    48.731159    48.731159   0.52036475    1.8664917    242.99665   -238.20827    67.325339    311.33623   -169.99444   -67.630736     173.3368   -307.98742   -23017.134    229.09434 
    8150     48.73377     48.73377     48.73377    -130.9396    -98.67145    144.60381   -336.38884   -183.96565    57.835048   -423.23685    -110.1817    130.12783   -350.86045   -23021.148     234.5284 
    8200    48.732225    48.732225    48.732225   -1.1241948   -17.411529    223.91816   -257.24263   -9.4352624    231.84052   -249.28615    23.474207    266.82181   -214.29457   -23016.219    229.94866 
    8250    48.730081    48.730081    48.730081    137.78896    133.40913    373.85036   -107.44591    168.65028    409.17867   -72.107498    111.30747    353.00694   -128.27962   -23016.758     231.4887 
    8300    48.732078    48.732078    48.732078     74.63119    90.110452    331.78466   -149.33156    71.452781    312.19095   -168.95122    62.330337     302.4377   -178.75668    -23016.71    232.36265 
    8350    48.735275    48.735275    48.735275   -163.54146   -175.53372    65.783728   -415.19328   -149.64454    91.799477   -389.26241   -165.44612    75.310128   -405.74279   -23016.698    233.27552 
    8400    48.732977    48.732977    48.732977    50.554949    71.351476    312.46807   -168.64512    167.76123    408.96261   -72.203523   -87.447861    155.64794   -325.59815   -23014.236    231.44146 
    8450    48.731614    48.731614    48.731614    129.02195    69.689663    310.75948   -170.35891    171.32415    410.70922   -70.399863    146.05204    386.58009   -94.538509   -23015.651    233.95797 
    8500    48.734443    48.734443    48.734443   -26.110938    20.500865     261.6696   -219.26269   -4.6476322    236.49735   -244.43491   -94.186047    147.65863   -333.29385   -23017.183     236.5931 
    8550    48.736348    48.736348    48.736348   -70.417947   -80.665799    160.64175   -320.32236    14.661026    256.07497   -224.80623   -145.24907    95.858029    -385.0091   -23014.408     234.4058 
    8600    48.734329    48.734329    48.734329   -47.703746    22.909499    262.92209   -218.13619    -12.58396    229.56798    -251.4772   -153.43678    88.069508   -393.06361   -23015.289    236.30471 
    8650    48.732381    48.732381    48.732381    123.50192    198.06682    439.69062   -41.533317    186.69773    428.59423    -52.62321   -14.258808    227.61403   -253.52339   -23015.349    237.28553 
    8700    48.735556    48.735556    48.735556   -38.484082   -184.23022    58.691213   -422.26303    8.3235532    250.52046   -230.39688    60.454416    302.79954   -178.18411   -23014.296    237.01602 
    8750    48.736956    48.736956    48.736956    -80.58042   -49.271862    192.02205   -288.85215   -112.02305     129.2372   -351.68867   -80.446352    161.40581   -319.49391   -23013.907    237.49501 
    8800    48.735098    48.735098    48.735098    77.084585   -23.454731    217.64443   -263.47589    242.36176     482.5263    1.5268875    12.346726    254.13845   -226.96742   -23011.476    235.67909 
    8850      48.7352      48.7352      48.7352    37.708942    112.92323    353.78053   -127.28228   -63.114826    178.45552   -302.60472    63.318424    304.52988   -176.49104   -23012.236    237.43239 
    8900    48.736474    48.736474    48.736474    46.288738    19.980034    260.38391   -220.54877    69.339058    311.12549   -169.84108    49.547122     291.4044   -189.67127   -23009.288    235.03335 
    8950    48.736798    48.736798    48.736798   -48.570787     1.065559    241.84147   -238.97351   -96.587164    142.84606   -338.11926   -50.190756    189.84918   -291.05793   -23013.648    240.81914 
    9000    48.735673    48.735673    48.735673    43.067211    57.762843    299.93759   -181.16651    55.122391    295.01536   -185.97943      16.3164    257.91849   -223.11522   -23012.065    239.93696 
    9050    48.737013    48.737013    48.737013   -3.5838671    66.090365    306.43923   -174.55989    32.759978    274.63474   -206.33591   -109.60194    130.51297   -350.48164    -23009.07    237.47575 
    9100    48.738689    48.738689    48.738689   -91.315937   -104.53738    136.10012   -344.71919    49.319172    290.35583   -190.50085   -218.72961    21.383867   -459.40418    -23013.05    242.82271 
    9150    48.738074    48.738074    48.738074   -36.554764   -105.79384     134.8138   -346.07174    10.440284    251.04728   -229.80013   -14.310737    227.55999   -253.26199   -23011.242       241.69 
    9200    48.736523    48.736523    48.736523    58.876046    64.804757    307.08027     -173.896    102.99717    345.27823   -135.69012    8.8262068    249.80207   -231.20892    -23010.11    241.30911 
    9250    48.737284    48.737284    48.737284    73.239787    13.486534     255.8836   -225.09437    53.425147    294.81939   -186.16417    152.80768    393.01127   -87.949781   -23008.685    240.59794 
    9300    48.739854    48.739854    48.739854   -32.543012    47.809921    289.05727   -191.66615    15.313135    257.52119    -223.1838   -160.75209    81.834203   -398.92385    -23008.78    241.58094 
    9350    48.739768    48.739768    48.739768   -11.622034   -88.075869     151.8782   -328.77921    59.142063    300.34627   -180.39528    -5.932295    237.81966   -242.94067   -23009.077    242.79531 
    9400    48.738041    48.738041    48.738041    94.783209    95.524764    337.66235   -143.31911     251.5242    492.52731    11.561739   -62.699337    177.85659   -303.09701   -23006.031    240.25753 
    9450    48.739294    48.739294    48.739294   0.97898542   -31.926627    209.38614   -271.48372    -88.76287    153.59289   -327.35027    123.62645    363.36318   -117.47056   -23008.748    244.16468 
    9500    48.741237    48.741237    48.741237   -57.642205   -91.745276    150.53588   -330.15154    97.258506    338.20758   -142.51733   -178.43985    63.003541    -417.6692   -23007.429    243.55909 
    9550    48.740384    48.740384    48.740384   -40.168805    112.72366    352.73424   -128.04391   -184.99714    56.638013   -424.14114   -48.232934    193.99346   -286.75413   -23007.851    244.90301 
    9600    48.738631    48.738631    48.738631    102.86632     114.7189    356.30397   -124.55993    109.80382    351.70825   -129.13446     84.07625    324.95302   -155.92265    -23006.73    244.51177 
    9650    48.740838    48.740838    48.740838    20.114516    165.26103    406.88952    -73.78409   -84.936822    156.54921   -324.21378   -19.980657    220.59049   -260.15312    -23005.38    243.86183 
    9700    48.742703    48.742703    48.742703    -89.17118   -100.85105    140.09845   -340.56284   -58.061163    181.51656   -298.96204   -108.60133    131.37512   -349.16412   -23007.123    246.67137 
    9750     48.74119     48.74119     48.74119    1.2701581    119.71837    359.61524   -121.11754   -43.091068     198.0628   -282.65796   -72.816827    168.90957   -311.87144   -23006.576    246.90882 
    9800     48.74101     48.74101     48.74101    25.438493    133.54276    376.20513   -104.57059     -46.2771    195.96592   -284.77733   -10.950184    231.10518   -249.65405   -23006.413    247.57316 
    9850     48.74296     48.74296     48.74296   -84.484781   -80.649671    161.73745   -318.84544   -50.978914    191.47205    -289.1053   -121.82576    119.05949   -361.58479    -23007.14    249.24186 
    9900    48.743127    48.743127    48.743127   -30.596131    154.86101    397.05984    -83.56966    -166.3251    76.547434   -404.07856   -80.324303    163.36272    -317.3413   -23002.315    244.68415 
    9950    48.741235    48.741235    48.741235    127.33009    137.55296    379.09912   -101.72224      207.245    448.64217   -32.213316     37.19232    276.77774   -203.90498   -23002.622     245.8762 
   10000    48.742731    48.742731    48.742731    37.772334    68.321153    308.31192   -172.30904   -41.933086    199.81524     -280.882    86.928934    329.35682   -151.28238   -23002.856    246.97215 
   10050     48.74597     48.74597     48.74597   -172.83583   -177.57921    64.359914   -416.00501   -237.25299    4.0092403   -476.40017   -103.67529    137.21027   -343.24407   -23004.404    249.54726 
   10100    48.743567    48.743567    48.743567   -1.6921312    54.975441    296.34116   -184.23299   -23.642805    215.99854   -264.54866    -36.40903    204.55114   -276.02365   -23004.531    250.52727 
   10150    48.741393    48.741393    48.741393    79.317197    95.678619    337.59212   -143.18725    18.180592    259.87937   -220.91875    124.09238    366.40621   -114.36603    -23002.36    248.92545 
   10200     48.74322     48.74322     48.74322     32.57833    39.096856    280.34256   -200.20587     115.3113    356.83511    -123.8752   -56.673168    183.09037   -297.57193     -23002.1    249.46484 
   10250    48.746285    48.746285    48.746285   -91.113364   -38.140904    202.90617   -277.41201   -79.308438    162.42041   -318.02878   -155.89075    86.016514   -394.39912   -23002.962    251.25331 
   10300    48.745815    48.745815    48.745815   -47.525796   -49.036023    192.67121   -287.70547   -154.86274    85.729222   -394.74604    61.321378    302.16684   -178.22355   -23003.096    252.22719 
   10350    48.743739    48.743739    48.743739    13.173936   -5.3589996    237.45021   -243.23698    90.496774    332.95206   -147.68628   -45.615966    196.54808   -284.00503   -23002.219      252.059 
   10400    48.743855    48.743855    48.743855    114.12933    63.767807     304.4142   -176.25701    59.801089    301.18225   -179.44915    218.81909    460.59245   -20.043021   -22999.036    249.31103 
   10450    48.747399    48.747399    48.747399   -147.81831   -154.03116    86.983354   -393.31246   -188.25168    52.887145   -427.46788   -101.17209    140.69188   -339.60632   -23002.453    253.94887 
   10500    48.746152    48.746152    48.746152    54.436907    37.525487    278.91138   -201.55826    105.70573    347.18258   -133.33853    20.079501    260.30056   -220.13466   -22998.609    250.45983 
   10550    48.744317    48.744317    48.744317    52.138779   -11.100588    230.03074   -250.62515    112.81424    353.28312   -127.38198    54.702691    295.56401   -184.95636   -22999.668    252.45208 
   10600    48.744968    48.744968    48.744968    96.295092    107.30133    346.39457   -134.11469      107.983    348.57161   -132.07855    73.600949    314.34616   -166.24955   -22998.881    252.37223 
   10650    48.748347    48.748347    48.748347   -132.55413   -83.108329    157.38094    -322.9404   -58.032324    181.65752   -298.68179   -256.52173   -16.657827   -497.02732   -23001.021    255.56723 
   10700    48.747983    48.747983    48.747983    -144.9972   -314.88414   -72.276816   -552.60956    -112.8914     129.2632   -351.09457     -7.21606    233.43772   -246.89639   -23001.337     256.7174 
   10750      48.7447      48.7447      48.7447    127.09512    166.95248    407.50037   -72.954326    89.215684    331.32571   -149.31594    125.11721    365.32998   -115.31621   -22998.678    254.54142 
   10800    48.745949    48.745949    48.745949    4.2084405   -180.46296    61.822284   -418.67621    67.814297    308.13538   -172.37871    125.27398    367.27772   -113.23322   -22998.886    255.55994 
   10850     48.74907     48.74907     48.74907   -15.108261    19.497009    259.40864   -220.97064   -71.446427    170.10046   -310.26587    6.6246351    247.24895   -233.04341   -22995.707    252.78941 
   10900    48.749902    48.749902    48.749902   -109.07063   -72.291594    168.65437   -311.64711   -140.12375    100.07008   -380.10814   -114.79655    125.66068   -354.63478   -22996.722    254.71122 
   10950    48.746148    48.746148    48.746148    113.17708    102.80421    343.66438   -136.80458     -4.49558     236.2336    -244.1655    241.22261    482.09887    1.6531124    -22997.33    256.17493 
   11000    48.746279    48.746279    48.746279    29.381746    35.291281    276.29363   -204.23533    34.995511    277.21441   -203.14596    17.858447    260.06532   -220.30779   -22999.422    259.29312 
   11050     48.74927     48.74927     48.74927   -3.9477335    -26.17393    216.55052   -263.71119   -71.596985    170.71593   -309.72482    85.927714    326.44202    -153.9097   -22995.241    255.38531 
   11100     48.75046     48.75046     48.75046   -85.833852   -152.36131    87.951779   -392.26573   -47.957584     192.8037   -287.43597   -57.182661    185.33548   -294.86329    -22994.78    255.63779 
   11150    48.748081    48.748081    48.748081    71.342057    92.091651    333.37114   -147.00447    107.43953    348.23953    -132.2055     14.49499    257.76749   -222.60872   -22995.171    256.84166 
   11200    48.747679    48.747679    48.747679    131.63033    111.38736    352.56032   -127.96468   0.77246553    241.68853   -238.76925    282.73116    523.66798    43.180079   -22992.128    254.20172 
   11250    48.750879    48.750879    48.750879   -29.589164    54.557095    294.12898   -186.06115    25.187185    265.23793    -214.9698   -168.51177    72.212989   -408.01934   -22994.344     257.4429 
   11300    48.751726    48.751726    48.751726    -107.6606   -198.96825    40.771928   -439.44112   -121.00025    119.99297    -360.2161   -3.0132972    236.48876   -243.64396   -22995.687    259.70477 
   11350    48.749485    48.749485    48.749485   -22.863493    40.889807    283.92905   -196.32062    45.567953    285.76816   -194.57813   -155.04824    85.857116   -394.35315   -22996.812    261.71974 
   11400    48.749461    48.749461    48.749461    87.362749    79.560954    321.97961   -158.34414    54.960204    297.03339   -183.25288    127.56709    369.11066   -111.26114   -22993.824    259.12977 
   11450    48.751584    48.751584    48.751584    6.7385575    1.8116094    242.80689   -237.37757    -11.42629    229.34656   -250.87681    29.830353     269.8791   -210.34751   -22990.927    256.63686 
   11500    48.753024    48.753024    48.753024   -117.96047   -104.54329    137.12681   -342.84157   -114.89064    126.62716   -353.32159   -134.44747    106.96492   -372.97581   -22996.002    263.06042 
   11550    48.751024    48.751024    48.751024    1.1282512    89.151604    327.38173   -152.74009   -25.125105    216.03147   -264.19795   -60.641745    179.29565   -300.88834   -22993.574    261.08768 
   11600    48.750089    48.750089    48.750089    43.600027   -10.595246     231.0743   -249.17158        60.33    301.44555   -178.98533    81.065328    324.05438   -156.19648    -22993.24    261.44052 
   11650    48.752148    48.752148    48.752148   -112.40062   -131.13786    108.68562   -371.38841    38.012675    278.01543   -202.12759   -244.07667   -1.4091789   -481.54711   -22995.304    264.48936 
   11700    48.752568    48.752568    48.752568   -55.653186   -5.3602146    237.69822   -242.40278   -41.351732    202.70634   -277.31753   -120.24761    121.48189   -358.58271   -22994.375    264.17567 
   11750    48.751213    48.751213    48.751213    95.110183    82.265827    323.60959   -156.70264    108.91236    349.46849   -130.82045     94.15236    335.60343   -144.57203   -22989.437    259.37887 
   11800    48.751823    48.751823    48.751823     114.7845    260.44381    503.69052    23.426721    115.01027    355.50795   -124.74182   -31.100569    210.74386   -269.52029   -22988.942    259.53989 
   11850    48.755111    48.755111    48.755111    -70.15804   -16.801922    223.22184   -256.79806   -131.42505    110.14091   -369.83557   -62.247146     176.6644   -303.36643   -22988.088    259.30905 
   11900    48.754561    48.754561    48.754561   -46.726035   -29.568348    209.46127    -270.5708    10.325098    251.50223   -228.54109   -120.93486    118.89432   -361.07287    -22991.47    263.81449 
   11950    48.752065    48.752065    48.752065    107.53599    126.17928     367.5893   -112.64055     106.9402    346.99761   -133.32376    89.488499    330.78456   -149.42568   -22988.232    260.90201 
   12000    48.753518    48.753518    48.753518   -41.921227   -164.43384    77.677199   -402.30893    113.02819    353.45639   -126.63084   -74.358024    166.28619   -313.73216   -22994.069    268.15229 
   12050    48.754935    48.754935    48.754935   -17.250252    79.730172    321.47453   -158.42508   -72.992709    168.91929   -311.04632   -58.488219    184.52011   -295.35221    -22989.88    264.17017 
   12100    48.754503    48.754503    48.754503    44.219559    27.379786    267.31879   -212.68102   -47.986644    192.86956   -287.19911    153.26553    394.44934   -85.728828   -22986.782    261.40479 
   12150     48.75467     48.75467     48.75467    58.764341   0.19193316    240.81306    -239.1635    138.88525    380.95575    -99.06344    37.215844    277.19618   -202.90026   -22987.411    262.80271 
   12200    48.755976    48.755976    48.755976   -35.661083   -109.92944    130.37386   -349.59944   -48.715904    192.53828   -287.53557    51.662091    290.83839   -189.04508   -22988.609    264.84227 
   12250     48.75573     48.75573     48.75573   -41.713061   -57.194007    183.36527   -296.59858   -15.544379    224.22014   -255.76842   -52.400797     189.0612   -291.04048   -22989.101    266.08262 
   12300    48.755088    48.755088    48.755088   -29.461158    -141.4674    100.73165   -379.23342   -41.427527    201.93729   -278.08529    94.511456    334.03062    -145.9081   -22989.534     267.2564 
   12350    48.754639    48.754639    48.754639   -24.391849    50.665225     292.0281   -188.04197   -69.598229    169.84175   -310.10228   -54.242543    187.92501   -292.14566   -22990.017    268.48801 
   12400    48.755317    48.755317    48.755317    83.109776    28.208449    270.34985   -209.66917    169.03307     410.4085   -69.659594    52.087814    293.82099   -186.24469   -22986.108    264.78772 
   12450     48.75824     48.75824     48.75824   -151.63112   -114.82671    125.52156   -354.33405   -263.72472   -22.377722    -502.1271   -76.341935    166.71465   -313.09458   -22989.343    269.08936 
   12500    48.756303    48.756303    48.756303    86.364124   -53.658056    185.91651   -294.13641    173.52809    416.99882   -62.963227    139.22234    380.05307   -99.995103   -22983.043    262.71008 
   12550    48.755384    48.755384    48.755384     47.20149   -33.218622    208.69174   -271.29779    40.754955    281.00412     -199.016    134.06814    373.16911   -106.85278   -22987.421    268.28546 
   12600    48.756271    48.756271    48.756271    72.107985    36.362019     275.9642   -203.96661    15.311931    256.18406    -223.7573    164.65001    405.95998   -73.978879   -22985.053    266.30049 
   12650     48.75878     48.75878     48.75878   -135.51743   -273.73386   -32.997276   -512.74857   -97.858055    142.01067   -337.72539   -34.960369    205.93881   -273.83086   -22986.084    268.11972 
   12700     48.75684     48.75684     48.75684   -8.0401115    5.3747519    247.48785   -232.43348   -36.707702    204.33979   -275.54594    7.2126156    247.51829   -232.37424   -22987.266    270.10275 
   12750    48.755467    48.755467    48.755467    128.94427   -4.3300643    236.46956   -243.52722    129.85787    369.82412   -110.18084    261.30499    502.98667    22.925366   -22985.009    268.23301 
   12800    48.759241    48.759241    48.759241   -157.33117   -314.10896   -72.881171   -552.63288   -5.6334891    236.27057   -243.54702   -152.25105    87.764831   -391.98325   -22986.965    271.07488 
   12850    48.758807    48.758807    48.758807    22.232607    4.9592243    246.12262   -233.62882     39.39387     280.0664   -199.88841    22.344728    263.60094   -216.21041   -22982.591      266.827 
   12900    48.756879    48.756879    48.756879   -39.389439   -126.91023    114.21389   -365.62676    46.890503    288.43291   -191.47894    -38.14859    202.89676   -277.02149   -22985.833    271.10454 
   12950    48.754675    48.754675    48.754675    240.20106    182.89176    423.87832    -56.15938    191.19933    430.39972   -49.678933    346.51209    586.84612    106.74378   -22983.775    269.44335 
   13000    48.759975    48.759975    48.759975   -45.850702   -171.37726    70.105897   -409.62904    -49.96524     190.6222   -289.15672    83.790393    325.18818   -154.59866   -22982.205    268.31372 
   13050    48.763028    48.763028    48.763028   -217.22938   -167.66075    72.266622   -407.21237   -253.90318   -13.576519   -493.02205    -230.1242    11.079897   -468.40082   -22984.736    271.78527 
   13100    48.758045    48.758045    48.758045    61.178518   -60.898087     180.1416   -299.65271    144.16285    385.72749   -94.118859     100.2708    341.25208   -138.59604   -22984.171     271.7817 
   13150    48.756655    48.756655    48.756655    195.36177    201.32613    441.62224    -38.29891    181.43659      422.483   -57.462103    203.32258    445.21897   -34.792305   -22982.896    270.98278 
   13200    48.761345    48.761345    48.761345    -164.0258    -221.8966    19.286094   -460.37865   -186.08619    55.019835   -424.47805   -84.094621    156.26204   -323.40584   -22983.972    272.81083 
   13250    48.761982    48.761982    48.761982   -61.242059   -28.854596    212.44497   -267.07168   -67.987216    173.88803   -305.63441   -86.884365    155.31754   -324.18898   -22981.589     270.7621 
   13300    48.759655    48.759655    48.759655   -1.4175521   -44.946113    196.21619   -283.46173   -90.938303    148.32258   -331.34319    131.63176    371.47263   -108.33554   -22983.637    273.67565 
   13350    48.757944    48.757944    48.757944    162.57413     107.2536     347.4311   -132.37975    187.56104    428.96691   -50.988402    192.90776    432.90212   -46.986167   -22980.665    270.95829 
   13400    48.761342    48.761342    48.761342   -86.225802   -73.489276     166.5858   -312.97154   -67.284445    172.98105   -306.66193   -117.90369    123.02295   -356.65387   -22984.301    275.63917 
   13450    48.762346    48.762346    48.762346   -2.6865727   -19.543899    220.81664   -258.77482   -104.51874    137.66658   -342.01414    116.00292    356.12217   -123.51152   -22978.795    270.07928 
   13500    48.760905    48.760905    48.760905     10.34466    4.1239291    245.30261   -234.42496   -33.166107    205.79996   -273.90379    60.076157    300.16572    -179.6018   -22980.858    272.98865 
   13550    48.759646    48.759646    48.759646   -8.4226869   -190.55435    49.256465   -430.46804    73.340301    313.74538    -166.0455    91.945987    335.00652   -144.82024   -22982.252    275.14676 
   13600    48.760721    48.760721    48.760721    119.45214    135.38204    375.23457   -104.45917    28.483799    269.74479    -209.9546     194.4906    434.74536   -45.008219    -22979.09    272.20375 
   13650    48.763928    48.763928    48.763928   -171.96911    -182.5508    57.299915   -422.17666    -170.3028    70.185407    -409.2981   -163.05373    76.860927   -402.65404   -22982.126    276.19283 
   13700    48.762004    48.762004    48.762004    28.059002    32.135713    272.54137    -207.0865    28.502163    268.80712   -210.83321    23.539129    264.19166   -215.42658   -22978.902    273.16931 
   13750    48.760335    48.760335    48.760335   -18.386718   -116.42034     124.3687   -355.33331    131.41475     370.2508   -109.45707   -70.154568    171.06752   -308.75109   -22982.917    278.25051 
   13800    48.760693    48.760693    48.760693    163.25154    207.04234    447.77335   -32.047924    115.87634    358.05862   -121.69305    166.83593    408.30466   -71.509881   -22977.348    272.59241 
   13850    48.765377    48.765377    48.765377   -159.98305   -380.71631   -137.24604   -616.70405   -17.111731    223.78307   -255.66637    -82.12112    157.18943   -322.23177   -22979.504    275.58342 
   13900    48.763581    48.763581    48.763581    -69.92738    14.889693    255.48019   -224.07567    -172.2418    68.262353    -411.2207   -52.430032    187.66221   -291.83344   -22977.816    274.26791 
   13950    48.759197    48.759197    48.759197    198.70994    37.528519    276.95474   -202.93395    328.13235    568.39358    88.494814    230.46895    473.18213   -6.6521157   -22979.066    276.23675 
   14000    48.762199    48.762199    48.762199    57.842898    228.91759    471.46941   -8.1494358   -96.527768    144.06247   -335.57154    41.138876     282.4233   -197.35136   -22977.405     274.9388 
   14050    48.766548    48.766548    48.766548   -157.31452   -213.74171    25.807993   -453.49068   -171.66311    70.250709     -409.023   -86.538745    153.65459   -325.74402   -22978.063    276.24001 
   14100     48.76416     48.76416     48.76416   -14.757866   -65.012593    176.07419   -303.54203     21.05272      260.154   -219.34178  -0.31372514      240.182   -239.36853   -22976.829    275.41462 
   14150    48.760811    48.760811    48.760811    142.45332    158.04931    399.48681   -80.236665    146.95348    388.10805   -91.607881    122.35715    363.02531   -116.72794   -22978.382    277.71143 
   14200      48.7629      48.7629      48.7629    124.99481    114.48896    355.55872   -124.04686   0.96997579    240.92124   -238.70544    259.52548      499.518    19.939259   -22975.801    275.37533 
   14250    48.767806    48.767806    48.767806   -156.03348   -270.14548   -31.286184   -510.46643   -102.64382    137.43096   -341.75678   -95.311142    145.17888   -334.12587   -22976.084    276.24317 
   14300    48.764891    48.764891    48.764891   -83.870844    16.172737    256.60223   -222.84768   -252.10082   -11.263029   -490.78648   -15.684453    222.17231   -257.30976   -22979.429    280.52993 
   14350    48.760782    48.760782    48.760782    126.37166    117.91295    360.56924   -119.23095    191.67749    433.58865   -46.195741    69.524552    311.94774   -167.97205   -22976.043     277.2768 
   14400    48.763435    48.763435    48.763435     32.26501   -53.129426    186.94308   -292.62912    19.977592    262.32808   -217.27229    129.94687    371.14737   -108.38155   -22977.786    279.76772 
   14450    48.766879    48.766879    48.766879   -101.01194   -18.316901    223.22157   -256.13902   -207.50302    34.006453   -445.38058   -77.215902    163.80579   -315.57304   -22975.686    277.94823 
   14500    48.765743    48.765743    48.765743    -102.2345   -181.29903    59.266847   -420.13508   -140.16424    101.90566   -377.49296    14.759761    255.67944   -223.75702   -22977.524    280.53336 
   14550    48.762112    48.762112    48.762112    204.71246    157.31651    400.18389   -79.569322    228.12318    468.40022    -11.24449    228.69771     468.8569    -10.88563   -22974.319    277.47046 
   14600    48.764934    48.764934    48.764934   -13.868742   -16.919243    223.48949   -255.95446   -55.858868     184.2956    -295.1842    31.171885    272.24484   -207.20806   -22974.582    278.28552 
   14650    48.766874    48.766874    48.766874   -138.26091   -201.52928    36.219998    -443.0975   -123.75596    114.69841   -364.66481   -89.497483    151.59122    -327.8067    -22978.21    282.86865 
   14700    48.765228    48.765228    48.765228    2.2428694   -59.107303    182.64397   -296.78932     126.3544     368.9562   -110.51628    -60.51849    180.24355   -299.23435   -22974.669    279.41249 
   14750    48.764422    48.764422    48.764422     133.6238    61.234006    303.04685   -176.47705    130.22901    369.20878   -110.35057    209.40838     450.4069   -29.104975   -22974.597    279.84703 
   14800    48.766691    48.766691    48.766691    -52.37333   -87.642658    153.33107   -326.18786    3.8478999    243.95133   -235.41623   -73.325232    167.48303    -311.9892   -22975.261    281.09609 
   14850    48.768624    48.768624    48.768624   -94.097786   -188.57613    52.747374   -426.55078   -154.03742    86.235662   -392.94975    60.320186    300.08674    -179.1876   -22974.729      281.004 
   14900    48.767952    48.767952    48.767952   -169.09061   -12.401599    229.18017   -250.20313   -315.26007   -73.443999   -552.61631   -179.61016    62.271087   -416.99024   -22979.354    286.68404 
   14950    48.763957    48.763957    48.763957    264.78177    116.00404    355.41286   -124.25421    419.02135    659.66603    180.08869    259.31993    500.96544    21.289377   -22969.954     276.6566 
   15000     48.76812     48.76812     48.76812   -69.563632   -146.42762    95.536844   -383.73917   -1.4485486    240.55455   -238.66451   -60.814731    179.45992   -299.84046   -22975.552    283.41295 
   15050    48.770371    48.770371    48.770371   -202.81721    -238.8058    3.4634848   -475.64616   -173.25952    69.014071   -410.09195    -196.3863    44.353739   -434.74615   -22975.546    283.90006 
   15100    48.765077    48.765077    48.765077    219.26329    124.20716    364.78342   -114.81783    286.49541    527.96439    48.471846    247.08731      488.963    9.4280436   -22969.076    277.13891 
   15150    48.765203    48.765203    48.765203    89.979409    97.932726    338.28762   -141.23267    89.468962    327.98657   -151.53344    82.536538    324.34008   -155.23088   -22974.077    283.21575 
   15200    48.769176    48.769176    48.769176   -11.116562   -147.07871    92.909339   -386.41567    95.856917    337.14281   -142.13324    17.872103    257.24734   -222.11149   -22969.597    278.67239 
   15250    48.770168    48.770168    48.770168   -197.87391   -261.58835   -20.493486   -499.59273   -119.04671    119.89983   -359.27593   -212.98666    28.117562   -450.96602   -22975.913     286.2165 
   15300    48.765832    48.765832    48.765832    137.10212    93.726871    335.18535   -144.36744      124.681    365.13418   -114.39231    192.89848    434.80744   -44.673398   -22971.705    281.97762 
   15350    48.766995    48.766995    48.766995     6.443881   -55.739438    184.09533   -295.23671    147.86747    389.33193   -90.059592   -72.796387    166.82339   -312.62811   -22973.776    284.76597 
   15400    48.769896    48.769896    48.769896   -67.261897    -44.00069    196.68651   -282.52403   -58.977529    180.67462   -298.58088   -98.807472     141.7552   -337.42848   -22971.824     283.0424 
   15450    48.770795    48.770795    48.770795   -126.38169   -201.48345    39.175313   -439.97487   -80.596035    163.81851   -315.25996   -97.065595    142.36458   -336.89324   -22972.753    284.54165 
   15500    48.767554    48.767554    48.767554    122.55782    75.946429     318.1789   -161.25904    26.384059     267.2921   -212.10269    265.34297    504.99906    25.667517    -22970.52    282.49901 
   15550     48.76755     48.76755     48.76755    47.068829    70.970946    310.16413    -169.2247    -25.80388    214.76232   -264.63175    96.039421    339.79249   -139.58531   -22970.324    282.73234 
   15600    48.769113    48.769113    48.769113   -49.601289   -314.94725   -75.277772   -554.44559    57.258511    297.15198   -182.04755    108.88487    346.44261   -132.81256   -22974.324    287.66232 
   15650    48.769058    48.769058    48.769058    -43.72359    89.243634    329.10954   -150.17473   -220.25087    21.918695   -457.35183  -0.16353643    240.48637   -238.86428   -22970.967    284.34385 
   15700    48.768495    48.768495    48.768495    2.3021315   -95.102662    145.12108   -334.23593    16.894122    255.57311   -223.72291    85.114935    325.78244   -153.59519   -22971.124    284.96064 
   15750    48.768399    48.768399    48.768399   -18.710285   -33.143664    210.06869    -269.3715   -19.413267     221.0901   -258.28668   -3.5739237     234.7844   -244.59692   -22970.763    284.99022 
   15800    48.768731    48.768731    48.768731   -31.412138   -144.45047    96.009386   -383.42073   -34.749403    205.31544   -273.99936    84.963458    326.67453   -152.63633   -22972.104    286.92276 
   15850    48.769502    48.769502    48.769502    3.7486121   -41.349074    201.62918   -277.70621    39.355076    280.04371   -199.26002    13.239835    255.81965   -223.40819   -22969.518    284.45851 
   15900    48.769642    48.769642    48.769642    14.011822    68.836626    309.33476   -169.89625   -149.20894    93.932052   -385.36395    122.40778    361.82877   -117.41972   -22969.592    284.97248 
   15950    48.768476    48.768476    48.768476    143.67193    68.512201    307.81238   -171.56439    240.91769     481.6167    2.2639142     121.5859    362.34745   -117.02233   -22966.433    281.85595 
   16000    48.770711    48.770711    48.770711   -119.64321   -145.99705    93.823483   -385.37088   -247.33352   -7.1882026   -486.43958    34.400933    274.19696   -204.93512   -22971.442    287.87973 
   16050    48.770224    48.770224    48.770224    -24.34395   -112.80802    127.08844   -352.28244   -72.384858    168.83038   -310.44176    112.16103    353.34503   -125.95688   -22968.303    284.77888 
   16100    48.769203    48.769203    48.769203    37.884755   -76.499963    165.27541   -313.98532    38.600755    279.35937   -199.91603    151.55347    392.53282   -86.793076   -22968.618    285.54692 
   16150    48.769506    48.769506    48.769506   -7.5073264   -49.229588    192.90599   -286.37931   -34.779179     205.1343   -274.02762    61.486788    301.75207   -177.46998   -22971.255    288.91466 
   16200     48.76954     48.76954     48.76954    106.72676    52.095552    293.47029   -185.84877    154.82153    395.87454   -83.416587    113.26321    354.96284   -124.37653   -22965.667    283.06441 
   16250    48.770839    48.770839    48.770839   -46.942155   -99.265185    140.71467   -338.49961   -27.033685    214.58132   -264.71825   -14.527594    224.87181   -254.40118   -22968.432    286.56378 
   16300    48.769598    48.769598    48.769598    51.473826    36.468482    277.37563   -201.99579    17.254926    256.05393   -223.27428    100.69807    341.01797   -138.29461   -22967.312    285.70569 
   16350    48.769767    48.769767    48.769767   -10.485094   -102.97529    136.11716   -343.23486    12.090414    253.60637   -225.65936    59.429597    301.07765   -178.26817   -22969.598    288.65876 
   16400    48.771513    48.771513    48.771513    14.100085    5.0567687    245.60802   -233.48587   -73.721355    166.38292   -312.84808    110.96484    352.34307   -126.83405   -22967.935    287.18917 
   16450    48.772791    48.772791    48.772791   -161.78285   -286.15813   -44.476876   -523.54427     -191.842    48.329493   -430.68218    -7.348407     231.0924   -248.01559   -22970.272    290.19341 
   16500    48.769935    48.769935    48.769935     50.79708    57.524056    297.91179   -181.37097    -43.56986    197.57342   -281.79344    138.43704     380.5106   -98.765836   -22968.088    288.13034 
   16550    48.770325    48.770325    48.770325    48.370882    110.69674    351.53859   -127.71639     10.33475    251.55384   -227.68513    24.081155    265.82886   -213.41626    -22969.72    290.34175 
   16600    48.772494    48.772494    48.772494   -56.351144   -165.86015    76.006118   -403.13726   -122.72793    118.71734   -360.38942    119.53465    361.31218   -117.87822    -22965.27    285.73506 
   16650    48.771516    48.771516    48.771516    34.733867    117.17692    355.72319   -123.50597   -130.78469    112.35575   -366.88494    117.80937    357.63906   -121.61764   -22965.164     285.9911 
   16700    48.770054    48.770054    48.770054    73.462583   -172.22754    68.638038   -410.58885    72.546875    313.00669   -166.23295    320.06842    561.68988    82.403641   -22966.647     288.0253 
   16750    48.771386    48.771386    48.771386    89.752596    172.17182    410.91719   -68.206571    -3.497828    235.52382   -243.62571    100.58379    340.77937   -138.42491   -22966.038     287.7127 
   16800     48.77536     48.77536     48.77536   -221.05233   -208.86471    30.877003   -448.00422   -309.85512   -68.608731   -547.43148   -144.43716    95.461361   -383.43553   -22969.232    291.65233 
   16850    48.772668    48.772668    48.772668    -35.76116    155.00979    397.26967   -81.835387   -109.85253    127.92488    -351.0244   -152.44074    89.077636   -390.02476   -22966.851    289.34783 
   16900    48.768658    48.768658    48.768658    115.68656     214.7652    454.40498    -24.94772    -89.14561     153.2797   -326.18683     221.4401    461.74373   -17.554368   -22968.944    292.04934 
   16950    48.770522    48.770522    48.770522    48.543687    145.96999    386.33808   -92.945978    11.043448    250.50532   -228.71689   -11.382373    230.23756   -249.10073   -22966.147    289.26888 
   17000    48.774766    48.774766    48.774766   -241.56563   -208.85282    30.256178   -448.64829   -296.95441   -54.912712   -533.98642   -218.88964    21.457941   -457.50084   -22968.443    292.18828 
   17050    48.772792    48.772792    48.772792    -7.912087   -50.838876    192.28234   -286.87928    121.03697     361.8045   -117.26061   -93.934352    148.25008   -330.92159   -22965.507    289.24588 
   17100    48.770222    48.770222    48.770222    114.97347    207.19208    449.31252   -29.934236    15.162155    257.15077   -222.11893    122.56618    362.73159   -116.64138   -22964.281    288.22336 
   17150    48.770872    48.770872    48.770872    125.26032    267.13285    507.68582    28.430564    5.1334063     244.3325   -234.87916    103.51469    344.71626   -134.57813   -22966.305    290.83248 
   17200    48.775459    48.775459    48.775459   -104.29051   -213.84706     27.47928   -451.57231   -131.37293    109.62616   -369.24089    32.348461    274.35457   -204.68993   -22964.179     288.7879 
   17250    48.774854    48.774854    48.774854   -170.12729   -122.46793    116.30592   -362.68353   -146.67108    95.079844   -383.82033   -241.24288   -1.2943143   -480.22639   -22968.558    294.02779 
   17300    48.769485    48.769485    48.769485    192.50428    155.14489    397.41952   -81.931291    83.127771    324.15348   -155.21243    339.24018    579.94886    100.54016   -22965.107    290.49348 
   17350    48.771943    48.771943    48.771943   -12.417448   -141.28018    100.15903   -378.99563   -31.820242    208.75656   -270.44746    135.84807    375.29023   -103.89738   -22966.674    292.57586 
   17400    48.775006    48.775006    48.775006   -108.57596   -148.72601    90.554385   -388.37767    11.067915    252.08141   -226.93129   -188.06978    53.351659   -425.64362   -22965.781    291.89716 
   17450    48.774527    48.774527    48.774527   -70.332829   -3.4412459    237.64324   -241.35287   -175.70196    67.190684   -411.73315   -31.855281    207.69147   -271.23744   -22965.836     292.2784 
   17500    48.772401    48.772401    48.772401    11.847967    14.303498    255.22954   -223.90214    73.446007     315.1792   -163.95963   -52.205604    188.85831   -290.29087   -22964.627    291.24453 
   17550    48.771594    48.771594    48.771594    92.629131    97.108399    339.19578   -140.01317    69.921836    308.08851   -171.09745    110.85716    352.67129   -126.50972   -22965.502    292.53735 
   17600    48.774817    48.774817    48.774817   -77.755272   -28.913959    212.06398   -266.95415   -36.954793    203.74101   -275.18505   -167.39706    73.866497   -405.19351   -22964.159    291.34425 
   17650    48.775644    48.775644    48.775644   -51.265631   -85.020999    155.81078   -323.14096   -54.337326    186.57466   -292.37899    -14.43857    226.17896   -252.76059   -22963.452    290.86602 
   17700    48.773549    48.773549    48.773549    89.851615   0.80068109    242.86193   -236.18233    64.892954    306.38713   -172.62599    203.86121    442.12107    -36.99793   -22965.012    292.91844 
   17750    48.774525    48.774525    48.774525    42.323694    72.531736    312.36066   -166.64963    1.9285559    243.50203   -235.53837    52.510789    295.95752   -183.13802   -22962.952    290.91047 
   17800    48.776435    48.776435    48.776435   -142.06947   -254.36884   -12.815636    -491.6039    -91.03256    149.78823   -329.02931      -80.807    160.28936   -318.53157   -22963.755     292.1093 
   17850    48.773069    48.773069    48.773069    55.922287    213.76152    453.84207    -25.25347   -59.482903    181.04494   -298.03742    13.488247    253.25437   -225.78339   -22967.317     296.3902 
   17900    48.772317    48.772317    48.772317    192.00618    242.19742    482.79487    3.5464982    232.57988    474.29457   -4.9862667    101.24124    344.90285   -134.34276   -22960.381    288.90669 
   17950    48.777517    48.777517    48.777517   -140.67799    -141.3108    99.659138   -379.16176   -207.07296    32.593029   -446.23093    -73.65021    165.07297   -313.81335       -22965    294.36554 
   18000    48.777654    48.777654    48.777654   -186.37819   -295.29987   -53.910224   -532.71516   -105.78835    136.38629   -342.43002   -158.04634    84.237384    -394.5221   -22963.466    292.93023 
   18050     48.77227     48.77227     48.77227    247.88272    219.89368    460.58481   -18.695682    272.04798    511.72707    32.542324    251.70649    492.21409    13.008831   -22961.391    290.89309 
   18100    48.774347    48.774347    48.774347   -15.201224   -93.307449    148.35144   -330.68676   -6.6478955    232.38526   -246.66728    54.351673    295.88355   -183.15375   -22964.337    294.46994 
   18150    48.777139    48.777139    48.777139   -73.796235    11.821877    251.53556   -227.32239     63.23753    306.30373   -172.51185   -296.44811   -57.353503   -536.23077   -22962.564    292.76426 
   18200    48.776701    48.776701    48.776701   -39.502592   -209.24006    32.824714   -446.06938    58.541138    298.24979   -180.65736    32.191144    272.64971   -206.23597   -22961.328    291.65355 
   18250    48.774762    48.774762    48.774762    35.580832    150.27919    391.05284   -88.004615    129.82667    369.29682   -109.77237   -173.36336    67.674067   -411.39502   -22962.179    292.87866 
   18300    48.773484    48.773484    48.773484    142.61056    41.887725    280.99248   -198.11995    197.17707    438.02551   -41.076441     188.7669    428.66541   -50.520409   -22963.014    294.08328 
   18350    48.776829    48.776829    48.776829   -40.810631   -190.84381    49.894058   -429.00972   -9.6868418    228.34956   -250.57696    78.098753    318.01118   -160.93594   -22962.825    294.13315 
   18400    48.779687    48.779687    48.779687   -152.61164   -132.53672    107.02249   -371.60711   -84.018791    158.39214   -320.23347   -241.27942    1.1692736   -477.54606   -22963.706    295.38248 
   18450    48.776444    48.776444    48.776444   -11.702118   -110.99632    129.15395   -349.70213    -57.82372    182.82394   -295.95463    133.71369    374.73783   -104.22444   -22962.038    293.77452 
   18500    48.772811    48.772811    48.772811     329.2691    551.26439    792.04872    312.76636    280.97809    521.01655    41.784472    155.56481    395.62893   -83.562365    -22959.58    291.27656 
   18550     48.77852     48.77852     48.77852   -165.34168   -401.97236   -161.92803   -640.75349   -65.753884    173.73819   -304.97813   -28.298792    211.40977    -267.3784   -22963.805    296.25641 
   18600    48.779455    48.779455    48.779455   -119.66699    -62.95623    177.64382   -301.16398   -207.93587    32.713563   -445.83648   -88.108882    153.07542   -325.75452   -22961.699    294.14643 
   18650    48.775328    48.775328    48.775328     82.13257   -83.635736    156.40538    -322.5914   -44.072132    196.47017   -282.52419    374.10558    613.67676    134.59697   -22961.514    294.18614 
   18700    48.775123    48.775123    48.775123    31.059662    59.708962     300.6023    -178.4201   -64.190274    177.50558   -301.38093    97.660299    339.06023   -139.93335   -22963.986    297.19847 
   18750    48.777788    48.777788    48.777788    77.769834   -11.373497    228.84799   -250.04509    55.108636    297.46632   -181.39181    189.57436    428.78802    -50.17724   -22956.724    289.30871 
   18800    48.779704    48.779704    48.779704   -131.79883    -194.0432    45.756476   -432.93758   -98.083582     140.2927   -338.33391    -103.2697     136.1488   -342.54773   -22962.486    295.99857 
   18850    48.776437    48.776437    48.776437    30.898465    181.96768    421.65652   -57.288653   -99.232545    140.50867   -338.35739    9.9602643    249.06633   -229.86541   -22961.134    294.71693 
   18900    48.776044    48.776044    48.776044    72.915046     112.1016    353.75877   -125.23956    2.4951607    242.75932   -236.06735    104.14838    344.76387   -134.16042   -22962.391    296.35955 
   18950    48.778923    48.778923    48.778923   -25.669289    61.272216    303.98005   -174.78804   -180.87355    58.874789   -419.89617    42.593465    283.29884   -195.45005   -22959.941    293.85082 
   19000    48.778454    48.778454    48.778454   -5.0976752   -46.430897    192.90238   -285.89969    51.585856    292.38862   -186.46011   -20.447985    219.34299   -259.49287   -22959.913     294.0482 
   19050    48.776582    48.776582    48.776582     7.288887    9.9035808    251.15756    -227.7034   -46.241175    195.61155   -283.27747    58.204255    297.91451   -180.93845   -22963.045    297.77852 
[...]
   13800        0.138    288.75226    7.6826753  0.026910678  0.028673142  -0.02171937    7.6608223    7.7041643    257.94726    -22505.39   -25794.197 
   13850       0.1385    292.52418    7.7141569  0.018490275 -0.024841704 -0.021731918    7.6924748     7.735842    261.31678   -22505.862   -25692.685 
   13900        0.139    293.30152    7.6781311 -0.010780338 -0.047368452 -0.021737555    7.6564746    7.6998531     262.0112   -22503.637   -25399.941 
   13950       0.1395     291.9536     7.711752  0.012193307 -0.011030103 -0.021709834    7.6899009    7.7332233    260.80707   -22499.536   -25709.717 
   14000         0.14     291.4108    7.7690803    0.0218621  0.056092387 -0.021681462    7.7473156    7.7905807    260.32218   -22496.121   -26156.783 
   14050       0.1405    295.28589     7.823112  0.025723195  0.022614282 -0.021683737    7.8014403      7.84471    263.78387   -22496.653   -26238.165 
   14100        0.141    293.23286    7.7798242 -0.026811373 -0.055683363 -0.021705015    7.7580035    7.8013159    261.94986    -22491.87   -25657.765 
   14150       0.1415    288.62122    7.7819928 -0.050466451 -0.042912123 -0.021687878    7.7603565    7.8036341     257.8302   -22484.822   -25628.714 
   14200        0.142     290.6879    7.8638476  0.050267189  0.023499378 -0.021633756    7.8421096    7.8852779     259.6764   -22483.724   -26458.714 
   14250       0.1425     290.7588    7.8974955  0.039524747  0.044864766 -0.021609844    7.8758159    7.9189362    259.73974   -22480.819   -26606.283 
   14300        0.143    290.49929    7.8643036 -0.017125579 -0.010667569 -0.021635043    7.8426074    7.8857782    259.50791   -22477.629   -26121.702 
   14350       0.1435     291.6346    7.8823146 -0.020504342 -0.059263446 -0.021641813    7.8606699    7.9038542     260.5221   -22475.661   -26008.489 
   14400        0.144    292.96853    7.9276076 -0.017755623 0.0061107435 -0.021610407    7.9060585    7.9491793    261.71373   -22473.879   -26386.542 
   14450       0.1445    293.90158    7.9492826  0.039718238  0.057504335 -0.021570588    7.9274754     7.970516    262.54724   -22471.724   -26821.684 
   14500        0.145    290.66347    7.9371476  0.026290807  0.036956844 -0.021565819    7.9155536    7.9585843    259.65457    -22465.84   -26667.984 
   14550       0.1455    286.41374    7.8929189 -0.044381796  -0.06510265 -0.021583694    7.8712978    7.9143641    255.85822   -22459.057   -25944.782 
   14600        0.146     289.6108    7.9534965 -0.048063016 -0.00065363401 -0.021566449    7.9317908    7.9748226    258.71421   -22458.917   -26349.266 
   14650       0.1465    288.93004    7.9886411 -0.0023973253   0.03717726  -0.02152622    7.9671127    8.0100631    258.10608   -22455.298   -26744.737 
   14700        0.147    292.35925            8  0.036231541  0.049656302 -0.021509161    7.9783734    8.0212894    261.16945   -22455.349   -26952.959 
   14750       0.1475    289.10093    7.9590408 -0.013898297 -0.0077400069 -0.021518862    7.9374093    7.9803446    258.25874   -22449.435   -26458.008 
   14800        0.148    286.50514    7.9379335 -0.055245835 -0.022473319 -0.021524714    7.9163319    7.9592785    255.93987   -22444.108   -26200.715 
   14850       0.1485    290.30468    7.9880813 0.0082192861 -0.010271872 -0.021500855     7.966537    8.0094357    259.33407   -22444.483   -26620.096 
   14900        0.149    289.76187    7.9823206  0.028590785 0.0018129954 -0.021475803    7.9608323    8.0036804    258.84916   -22440.975   -26709.081 
   14950       0.1495    287.02215    7.9569833  0.025679307 -0.011448932 -0.021464338    7.9354835    7.9783081    256.40172    -22435.51   -26570.712 
   15000         0.15    286.64011    7.8998013 -0.0014300613 -0.040457421 -0.021463209    7.8781263    7.9209489    256.06044    -22432.16   -26193.046 
   15050       0.1505    287.12861     7.853488 -0.012862347 -0.010203755 -0.021447369    7.8321436    7.8749339    256.49683   -22429.608   -26101.406 
   15100        0.151    290.73093    7.8277531  0.016412554   0.03045508 -0.021432494    7.8060731    7.8488336    259.71484   -22429.848   -26248.736 
   15150       0.1515    297.47807    7.7498197  0.046617728 -0.016075336 -0.021436069     7.728543    7.7713105    265.74218   -22432.931    -25934.54 
   15200        0.152    298.05194    7.5657749 -0.010824981 -0.038100858 -0.021448239    7.5441589    7.5869508    266.25483   -22430.556   -25056.164 
   15250       0.1525    299.54449    7.3938292 -0.025285874 0.0017161319 -0.021426938    7.3723748    7.4151234    267.58815   -22429.071   -24567.532 
   15300        0.153    300.98747    7.1601028  0.047057515  0.028303791 -0.021393247     7.138558    7.1812388    268.87718   -22427.628   -24118.214 
   15350       0.1535    310.39201     6.888042  0.063536847  0.061977152 -0.021394744    6.8663345    6.9090186    277.27841   -22433.439    -23378.52 
   15400        0.154    314.67146    6.4979756 -0.012496204 -0.056318759 -0.021436809     6.476477     6.519246    281.10132   -22434.844   -21430.536 
   15450       0.1545    327.24075     6.106468 -0.018855626 -0.049710048 -0.021456229    6.0848929    6.1277014    292.32968   -22443.858   -20126.341 
   15500        0.155    334.59841    5.6925948  0.010586238 0.00070186307  -0.02144615    5.6708782    5.7136664     298.9024   -22448.491   -19012.943 
   15550       0.1555    349.31948    5.2244488  0.072064551  0.031236145 -0.021444835    5.2029871    5.2457727    312.05298   -22460.039   -17759.165 
   15600        0.156     355.3336    4.7600565  0.044606313 -0.0016305111 -0.021481677    4.7384428    4.7813029     317.4255   -22464.197   -16010.108 
   15650       0.1565    363.47722    4.2966342 -0.002745487 -0.070271172 -0.021533914    4.2749456    4.3179115    324.70033   -22470.653   -14078.725 
   15700        0.157    368.61477    3.8993044  0.013338811 -0.016097132 -0.021561378    3.8774568     3.920478    329.28979   -22474.771   -12988.487 
   15750       0.1575    369.41292    3.5104797  0.015809887  0.068616328 -0.021587255    3.4887274    3.5318004    330.00279   -22475.308    -11983.02 
   15800        0.158    375.30828    3.1087533  0.023732088  0.074296379 -0.021654181    3.0868373    3.1300454    335.26922    -22480.67   -10689.273 
   15850       0.1585    377.76992     2.714652 -0.078490557   0.03643966 -0.021751634    2.6927569    2.7361614    337.46824   -22483.165   -8908.6704 
   15900        0.159    376.48192    2.5219164  -0.13185484 -0.010023048 -0.021805162    2.5000399    2.5435519    336.31765   -22482.355   -7933.4618 
   15950       0.1595    380.93366    2.4002567   0.04042512  0.014181532 -0.021799655    2.3783442    2.4218451    340.29447   -22486.734   -8182.8778 
   16000         0.16    375.42356    2.2150486   0.11495709  0.028577692 -0.021819426    2.1930669    2.2366071     335.3722   -22482.226   -7861.9445 
   16050       0.1605    384.21577    2.0661152  0.025885535 -0.0010954844 -0.021894549    2.0443504    2.0880426    343.22643   -22490.605   -6969.6841 
   16100        0.161    382.06102    1.8941556 -0.029935343 -0.081797895 -0.021962332     1.871915    1.9157445    341.30155   -22489.203    -5941.408 
   16150       0.1615    384.10512    1.8174558  0.026064013 -0.0099060132 -0.021974088    1.7951781    1.8390317    343.12758   -22491.672   -6112.0459 
   16200        0.162    384.47271    1.7367083  0.037526137  0.045268797 -0.021988147     1.714487    1.7583686    343.45595   -22492.749   -6065.0107 
   16250       0.1625    385.04187    1.6995017 -0.023643905  0.010577643 -0.022022282    1.6775656    1.7215162    343.96439   -22494.064   -5621.4516 
   16300        0.163    388.14448    1.6993474 -0.079658137 -0.0038421661 -0.022051003    1.6773388    1.7213474    346.73601    -22497.67    -5386.157 
   16350       0.1635    391.99377    1.7149367 0.0041808273 -0.034294332 -0.022042792    1.6926644    1.7366569    350.17464   -22502.001   -5616.0775 
   16400        0.164    395.09251    1.6855153  0.073030563  0.068483477 -0.022030694    1.6634995    1.7074675    352.94281   -22505.711   -6090.0979 
   16450       0.1645    389.52753    1.6229367 -0.026757925 -0.0033455374 -0.022064743    1.6008456    1.6448821    347.97151   -22501.733   -5309.4441 
   16500        0.165    392.07354    1.5645568 -0.057103367  0.025753812 -0.022093593      1.54268    1.5867746     350.2459   -22505.017    -5110.691 
   16550       0.1655    394.46555    1.6218289 -0.027663951 0.0043644653 -0.022095897    1.5996913    1.6437908    352.38273    -22508.17   -5328.4315 
   16600        0.166    392.60842    1.6927813 -0.022761615   0.02122733 -0.022078112    1.6705635    1.7146271    350.72373   -22507.523   -5637.4901 
   16650       0.1665    395.53237    1.8055204  0.051080321  0.034375335  -0.02205901    1.7833712    1.8273966    353.33574   -22511.128   -6303.2535 
   16700        0.167      395.153    1.7707006  0.048984847  0.022584508 -0.022085312    1.7484415    1.7925199    352.99684   -22511.796   -6140.8999 
   16750       0.1675    396.17518    1.7054824 -0.039500866 -0.024085014 -0.022129038    1.6831864    1.7273532    353.90997   -22513.727   -5472.9883 
   16800        0.168    389.67323    1.6989832   -0.0849006 -0.056388829 -0.022127273    1.6763756    1.7205392    348.10167   -22508.929   -5192.3127 
   16850       0.1685    397.34189    1.7582293 -0.00029760606  0.093829854 -0.022082147    1.7360747    1.7801474    354.95221   -22516.844   -6172.5386 
   16900        0.169    391.89852    1.8392689  0.021581336  0.037471997 -0.022069205    1.8170402    1.8610867    350.08956    -22513.07   -6327.7406 
   16950       0.1695     396.1292    1.7995122 -0.032150481 0.0044032173 -0.022093809    1.7776269     1.821723     353.8689   -22517.915   -5905.8831 
   17000         0.17    400.59785    1.7555823  0.022742241  -0.02380874 -0.022106434    1.7333595    1.7774815    357.86082   -22522.965   -5848.3859 
   17050       0.1705    398.90313    1.7254575  0.038777737 -0.034720387 -0.022116324    1.7032609    1.7474025    356.34689   -22522.526   -5765.0495 
   17100        0.171    398.76299    1.7279209 -0.021446827 0.0032208425 -0.022123752    1.7056779    1.7498347     356.2217   -22523.504    -5698.983 
   17150       0.1715    398.13241    1.6687542  0.027875407   0.03073286 -0.022126807    1.6463602    1.6905232    355.65839   -22524.069   -5757.8747 
   17200        0.172    394.43559    1.6565309 -0.017436251  0.024942964 -0.022135653    1.6341929    1.6783736    352.35596   -22521.901   -5546.7922 
   17250       0.1725    402.09926    1.6763526 -0.019804257  0.049306872 -0.022153546    1.6541012    1.6983187    359.20205   -22529.896   -5686.1841 
   17300        0.173    398.26906    1.5680766 -0.029838546  0.029934548 -0.022181664     1.545541    1.5898151    355.78046   -22527.627    -5227.242 
   17350       0.1735    394.90819    1.5142694 -0.062088489  0.020855484 -0.022191905    1.4920542    1.5363485    352.77814   -22525.859   -4910.1212 
   17400        0.174    401.52169    1.5337286  0.043584562 -0.029430199  -0.02219097    1.5112002     1.555493    358.68609   -22532.963     -5159.61 
   17450       0.1745    406.97001    1.5486535  0.058863393 -0.0085530688 -0.022187417    1.5262925    1.5705787    363.55318   -22538.988   -5329.8794 
   17500        0.175    397.84795     1.533348  0.020708208  0.022944204 -0.022196132    1.5111095    1.5554125    355.40428   -22532.054   -5256.6681 
   17550       0.1755     399.2178    1.4876212  0.044015129 -0.024268781 -0.022216995    1.4654502    1.5097956      356.628   -22534.492   -5024.5585 
   17600        0.176    403.36423    1.4685605  0.024656215 -0.0090536755 -0.022238124    1.4459647    1.4903531    360.33207   -22539.409   -4947.2101 
   17650       0.1765    398.42297    1.4521946 -0.063278589 -0.036599979 -0.022252987    1.4297977    1.4742155    355.91796   -22536.232   -4507.7202 
   17700        0.177    398.86731    1.4943303  0.013047831  0.016907347 -0.022217858    1.4721602    1.5165071     356.3149   -22537.855   -5080.9515 
   17750       0.1775    401.68618    1.4913261  0.067798979   0.10237101 -0.022204896    1.4689072    1.5132284    358.83303   -22541.609   -5538.3203 
   17800        0.178    395.81289    1.4569681 -0.0082520029 -0.024561112 -0.022252245    1.4345029    1.4789199    353.58633    -22537.63   -4747.1834 
   17850       0.1785    395.67966    1.3873598 -0.013466828  -0.10108806 -0.022295636    1.3649801    1.4094847    353.46731   -22538.726   -4242.6831 
   17900        0.179    395.62514    1.4386352 -0.027731464 -0.014570421 -0.022275799    1.4159816    1.4604466    353.41861   -22539.912   -4654.4442 
   17950       0.1795    394.54812    1.4948823  0.048411908  0.069021338 -0.022240061    1.4725304    1.5169228    352.45649   -22540.152   -5374.3852 
   18000         0.18    399.22127    1.4866673  0.027718992   0.01757213 -0.022251464    1.4644713    1.5088868    356.63109   -22545.551    -5106.528 
   18050       0.1805    397.58542    1.4074578 -0.048225123 0.0081853242 -0.022292454    1.3850269    1.4295253    355.16976   -22545.297   -4558.0601 
   18100        0.181    394.33455    1.3830889 -0.026886787 -0.0069466518 -0.022299917     1.360717      1.40523     352.2657   -22543.614   -4497.5184 
   18150       0.1815    398.37842    1.3981841    0.0327587 0.0067723351 -0.022286768    1.3757891    1.4202758    355.87816   -22548.449   -4792.3837 
   18200        0.182    392.51968    1.4399454 0.0081682388 -0.068047851 -0.022283904    1.4175042    1.4619851    350.64445   -22544.435   -4600.2193 
   18250       0.1825     398.6401     1.458477  0.047919526  0.028171495 -0.022266268    1.4361587    1.4806042    356.11192   -22551.103   -5115.2268 
   18300        0.183    391.01128    1.4553953  -0.02796104  0.054949077 -0.022280217    1.4331425     1.477616    349.29697   -22545.481   -4941.2778 
   18350       0.1835    393.66159     1.439493 -0.047413482 0.0017328556 -0.022301904    1.4170925    1.4616102    351.66453   -22549.009   -4646.0414 
   18400        0.184    388.95954      1.39404 -0.019367082 0.0070084999 -0.022307598    1.3717913    1.4163202    347.46411    -22545.99   -4605.6047 
   18450       0.1845    391.57713    1.4318708 -0.0034201163 0.0033009616 -0.022298366     1.409199    1.4537097    349.80246   -22549.503   -4772.5056 
   18500        0.185    389.44709    1.3953486   0.03650524 -0.024219432 -0.022295444    1.3731804    1.4176849    347.89965   -22548.761   -4692.1146 
   18550       0.1855    393.81558    1.4031904  0.022439323 -0.0032283624 -0.022297289    1.3806834    1.4251918    351.80209    -22553.84    -4741.338 
   18600        0.186    392.42886    1.3986356 -0.0040093531  0.013567801 -0.022305063    1.3762041    1.4207281    350.56332   -22553.775     -4693.98 
   18650       0.1865    394.20238    1.3629492 -0.039317944 -0.0027711603  -0.02232209    1.3403347    1.3848931    352.14763    -22556.54   -4402.8669 
   18700        0.187    387.24341    1.4240971 -0.017168752 -0.023385227 -0.022309108    1.4017502    1.4462822    345.93107   -22551.494   -4611.8105 
   18750       0.1875    394.93958    1.5097344  0.013494518  0.061687038 -0.022276762    1.4874001    1.5318679    352.80618    -22559.51   -5283.0531 
   18800        0.188     393.3827    1.4978211  0.034726502  0.045367404   -0.0222886    1.4752983    1.5197895     351.4154   -22559.287   -5259.7165 
   18850       0.1885     392.8799    1.4256763 -0.027676304 0.0046474514 -0.022327153    1.4033326     1.447902    350.96624    -22560.02   -4675.4915 
   18900        0.189     393.3354    1.3555611  0.013657044 -0.062259619 -0.022364551    1.3329323    1.3775772    351.37314   -22561.579   -4356.5283 
   18950       0.1895    391.40318    1.3685601 -0.023391762 -0.015021984 -0.022367878    1.3461048    1.3907564    349.64706    -22561.03   -4433.8213 
   19000         0.19    395.24929    1.3664655  0.024363821  0.021590514 -0.022356408    1.3439062    1.3885347    353.08285    -22565.66    -4708.066 
   19050       0.1905    386.67635    1.3173922  0.041574728  0.018483682 -0.022362821    1.2948718    1.3395129    345.42451   -22559.201    -4591.502 
   19100        0.191    393.58212    1.2799425 -0.0080193603 -0.053990483 -0.022389505    1.2574355    1.3021306    351.59354   -22566.572   -4059.7756 
   19150       0.1915    393.53923    1.2405492 -0.040479773 -0.0099716341  -0.02239514    1.2180224    1.2627287    351.55523   -22567.734   -3966.9928 
   19200        0.192    392.30508    1.2554616 -0.024221646  0.035639307 -0.022374365    1.2329086    1.2775733    350.45274   -22567.839   -4222.9308 
   19250       0.1925    393.99002    1.3564542 -0.015325606   0.10413797 -0.022353235    1.3339491    1.3785715    351.95793   -22570.567   -4817.5553 
   19300        0.193    393.68692    1.3312268  0.028216406  0.048747502 -0.022387891    1.3086882    1.3533806    351.68716   -22571.566   -4693.9689 
   19350       0.1935     386.8148    1.2955111 -0.030175014  -0.10014279 -0.022422276    1.2729534    1.3177151    345.54818    -22566.57   -3883.9775 
   19400        0.194    396.03269    1.3585527 -0.011363802 -0.016982834  -0.02240491    1.3360632    1.3807903    353.78268   -22575.966   -4434.0202 
   19450       0.1945    390.27147     1.387284  0.029374774 -0.0047448568 -0.022378941    1.3647793    1.4094541    348.63609    -22571.99   -4706.3798 
   19500        0.195    394.13428    1.4226049   0.12127652 0.0040247441 -0.022361768    1.4002105    1.4448508     352.0868   -22576.602   -5159.6873 
   19550       0.1955    391.92528    1.3436539  0.073998943 -0.029582169 -0.022403175     1.320867    1.3655909    350.11346   -22575.854   -4626.9022 
   19600        0.196    392.97631    1.2916053  -0.02774753 -0.078605297 -0.022440368    1.2692015    1.3140004    351.05237   -22578.015   -3950.8416 
   19650       0.1965    394.75876    1.3392753 -0.090597307   0.04906128 -0.022424334    1.3166129    1.3613794    352.64465   -22580.738   -4325.7975 
   19700        0.197    387.05513    1.3901872 -0.060708061   0.11649728 -0.022380532     1.367621    1.4122991    345.76287    -22574.98   -4819.9213 
   19750       0.1975    386.91418    1.3817974  0.045952869   0.05769473 -0.022371778    1.3593667     1.404027    345.63696   -22576.012   -4951.4832 
   19800        0.198     387.5193    1.3246187  0.005480054 0.0070825892 -0.022405994    1.3021326    1.3468618    346.17753   -22577.721   -4457.2712 
   19850       0.1985    388.56334    1.2948145 -0.016916325 -0.086228684 -0.022437817    1.2721129    1.3169069    347.11019   -22579.772   -3972.2317 
   19900        0.199    389.45843    1.3108945 -0.048736236 0.0067739814 -0.022433257    1.2884468    1.3332316    347.90978   -22581.718   -4229.7741 
   19950       0.1995    386.87487     1.329797  0.024628871  0.044053469 -0.022403054    1.3069762    1.3517004    345.60184   -22580.562   -4661.5978 
   20000          0.2    386.11333    1.3084429  0.064872239  0.032070004 -0.022411325    1.2858596    1.3306001    344.92155   -22581.036   -4684.6172 
Loop time of 3525.94 on 4 procs for 20000 steps with 6912 atoms

Pair  time (%) = 2984.22 (84.6362)
Neigh time (%) = 1.1266 (0.0319519)
Comm  time (%) = 324.524 (9.20391)
Outpt time (%) = 0.975254 (0.0276594)
Other time (%) = 215.093 (6.10029)

Nlocal:    1728 ave 1758 max 1698 min
Histogram: 1 0 0 0 1 1 0 0 0 1
Nghost:    4958.5 ave 4980 max 4924 min
Histogram: 1 0 0 0 0 0 1 0 1 1
Neighs:    118842 ave 120713 max 116474 min
Histogram: 1 0 0 0 0 0 2 0 0 1
FullNghs:  0 ave 0 max 0 min
Histogram: 4 0 0 0 0 0 0 0 0 0

Total # of neighbors = 475369
Ave neighs/atom = 68.7745
Neighbor list builds = 92
Dangerous builds = 0

######################################
# SIMULATION DONE
print "All done"
All done
