ITEM: TIMESTEP
0
ITEM: NUMBER OF ATOMS
4000
ITEM: BOX BOUNDS pp pp pp
-0.0749979 40.575
-0.0749979 40.575
-0.0749979 40.575
ITEM: ATOMS id type xs ys zs
2 1 0.0512667 0.0463079 0.00466241
4 1 0.00282149 0.0494785 0.0488832
8 1 0.101154 0.0504284 0.0518532
43 1 0.0482332 0.100259 0.0518776
45 1 0.100035 0.0997008 0.0019859
402 1 0.0502796 0.0483144 0.103125
405 1 0.104151 0.000549682 0.10187
445 1 0.0926837 0.0998161 0.102309
7 1 0.153642 0.00270503 0.0503146
9 1 0.203621 0.00338781 0.000481563
12 1 0.201131 0.0514381 0.0475918
47 1 0.148573 0.0983753 0.0512532
49 1 0.200416 0.102156 0.00347944
406 1 0.147936 0.0505406 0.0967756
409 1 0.20011 0.00131972 0.0996089
449 1 0.202224 0.0999017 0.101187
16 1 0.296673 0.0513988 0.0503227
51 1 0.25227 0.099672 0.0480911
410 1 0.247608 0.051157 0.102812
453 1 0.301447 0.0997888 0.0998224
14 1 0.350464 0.0528475 0.0002782
15 1 0.344864 5.19898e-05 0.0554595
20 1 0.399407 0.0445673 0.0490536
55 1 0.350507 0.0992522 0.0495256
57 1 0.399862 0.101458 0.00256021
414 1 0.347934 0.0475543 0.100526
457 1 0.401735 0.100771 0.0988884
22 1 0.549534 0.0518311 0.00127145
23 1 0.548364 0.00457815 0.0489375
24 1 0.493256 0.0481358 0.0478078
59 1 0.44759 0.10097 0.0491977
61 1 0.498749 0.100249 0.00273697
63 1 0.547826 0.101609 0.0537704
418 1 0.448106 0.0492507 0.101404
421 1 0.500715 0.00496359 0.100006
422 1 0.552122 0.0494374 0.0985965
461 1 0.498631 0.100382 0.0984596
28 1 0.601493 0.0540248 0.0518254
65 1 0.597955 0.098386 0.000652036
67 1 0.647247 0.101908 0.0530159
425 1 0.601324 0.0039203 0.097642
426 1 0.649483 0.0475903 0.0997127
465 1 0.596582 0.101822 0.100935
30 1 0.75297 0.0481657 0.00225384
32 1 0.701001 0.0468573 0.052086
69 1 0.697462 0.0972808 0.0016286
71 1 0.749574 0.100223 0.0489787
430 1 0.751082 0.046379 0.0981691
469 1 0.698775 0.0957634 0.103298
33 1 0.800999 0.000383363 0.00153417
35 1 0.850615 0.00204346 0.0505737
36 1 0.802672 0.0456346 0.0531288
75 1 0.853032 0.0961282 0.0507411
434 1 0.850247 0.0479778 0.102432
473 1 0.79905 0.097428 0.102163
401 1 0.998858 0.000797472 0.104125
441 1 0.999562 0.0959319 0.0992959
38 1 0.950328 0.0484855 0.000644988
39 1 0.952685 0.0013875 0.0495972
40 1 0.899908 0.047542 0.0511588
79 1 0.953443 0.0999274 0.0467417
438 1 0.948594 0.0499951 0.0979852
477 1 0.903362 0.0994903 0.0979498
48 1 0.0962135 0.149201 0.0538479
83 1 0.0516033 0.201294 0.0501541
85 1 0.0981557 0.19523 0.000211398
442 1 0.0481469 0.15334 0.101211
481 1 0.00688677 0.207273 0.0985441
485 1 0.102773 0.206409 0.102814
46 1 0.1488 0.144994 0.00254557
52 1 0.198584 0.150772 0.049519
87 1 0.148069 0.203403 0.0504869
89 1 0.201934 0.198514 0.00332106
446 1 0.1484 0.149754 0.0993392
489 1 0.199438 0.19994 0.104217
56 1 0.301566 0.152563 0.0482474
91 1 0.249433 0.196228 0.0486264
93 1 0.300048 0.203393 0.0042177
450 1 0.247507 0.152254 0.0973211
493 1 0.293145 0.198284 0.100608
54 1 0.348175 0.152097 0.00269345
60 1 0.400339 0.151817 0.052163
95 1 0.349529 0.199419 0.051416
454 1 0.351175 0.153453 0.100374
497 1 0.399312 0.20137 0.103161
58 1 0.448142 0.15209 0.00115304
62 1 0.548074 0.150241 0.00417805
64 1 0.498498 0.149744 0.0489355
99 1 0.448801 0.204863 0.0496017
101 1 0.500336 0.200883 0.00528032
103 1 0.548459 0.201559 0.0540455
458 1 0.446831 0.149593 0.100477
462 1 0.546276 0.154389 0.10267
501 1 0.497275 0.196926 0.102596
66 1 0.652242 0.151362 0.000659561
68 1 0.59923 0.14908 0.0472503
105 1 0.598013 0.199073 0.000134604
107 1 0.649293 0.197519 0.0546017
466 1 0.647168 0.14783 0.100416
505 1 0.594677 0.200935 0.0990022
70 1 0.749608 0.149928 0.00253521
72 1 0.702477 0.14787 0.0545405
109 1 0.700029 0.201823 0.00993994
111 1 0.752037 0.196052 0.0504445
470 1 0.750769 0.150011 0.102453
509 1 0.698903 0.197861 0.101879
74 1 0.849427 0.148173 0.00147461
76 1 0.802104 0.146257 0.0504525
113 1 0.802891 0.201554 0.00524623
115 1 0.852741 0.201942 0.0505878
474 1 0.851303 0.150353 0.0977404
513 1 0.801633 0.196645 0.100652
44 1 0.999142 0.149857 0.0519323
81 1 0.994916 0.200077 0.00168154
78 1 0.948601 0.146055 0.00123135
80 1 0.90046 0.148202 0.0486903
117 1 0.901534 0.199789 0.00343687
119 1 0.950228 0.203619 0.0533275
478 1 0.952164 0.153782 0.0962823
517 1 0.9008 0.200268 0.0990718
82 1 0.0504122 0.249842 0.00446538
84 1 0.000960896 0.251076 0.0522388
88 1 0.103596 0.24884 0.0500675
121 1 0.00115858 0.302521 0.000734731
123 1 0.0469809 0.303386 0.048589
125 1 0.0940177 0.300804 0.000958708
482 1 0.0559732 0.252891 0.0955863
521 1 0.00295752 0.301462 0.0994687
525 1 0.10032 0.301918 0.101873
86 1 0.150538 0.254874 0.000212195
92 1 0.193727 0.24847 0.0502169
127 1 0.147747 0.302499 0.0466416
129 1 0.200227 0.300533 0.000850222
486 1 0.151961 0.25104 0.102143
529 1 0.200422 0.30285 0.102552
90 1 0.246632 0.250643 0.00122516
96 1 0.2957 0.250566 0.0522129
131 1 0.248487 0.300559 0.0502611
133 1 0.297627 0.302046 0.00132585
490 1 0.247902 0.250282 0.0989437
533 1 0.298479 0.305114 0.098408
94 1 0.349206 0.250281 0.00221857
100 1 0.401207 0.253534 0.0565193
135 1 0.34696 0.302088 0.0512667
137 1 0.399097 0.299599 0.0032099
494 1 0.346298 0.252938 0.098706
537 1 0.399363 0.302848 0.0989986
98 1 0.448388 0.252893 0.00463783
104 1 0.498248 0.25219 0.0499321
139 1 0.449573 0.304265 0.0497367
141 1 0.497855 0.301738 0.00260114
143 1 0.548389 0.298019 0.051533
498 1 0.451601 0.249294 0.104351
502 1 0.547482 0.253025 0.0989361
541 1 0.498684 0.297743 0.101893
106 1 0.647476 0.246688 0.00220024
108 1 0.600464 0.251949 0.0461733
147 1 0.647104 0.30158 0.0497435
506 1 0.652568 0.249901 0.0998768
545 1 0.599886 0.293855 0.100695
110 1 0.750263 0.251403 0.000826261
112 1 0.702331 0.250935 0.0527458
151 1 0.749031 0.300153 0.0527706
510 1 0.746843 0.247234 0.102011
549 1 0.696675 0.298391 0.102335
116 1 0.799739 0.253214 0.0510989
153 1 0.800434 0.29772 0.00314667
155 1 0.850436 0.30047 0.0497648
514 1 0.849665 0.249594 0.0978947
553 1 0.800792 0.299693 0.100991
120 1 0.904329 0.254918 0.0529213
159 1 0.95238 0.301402 0.0506996
518 1 0.947575 0.253269 0.106633
557 1 0.901398 0.301081 0.0972108
122 1 0.0467361 0.353029 0.00231378
128 1 0.0986949 0.353917 0.0524587
163 1 0.0489083 0.399816 0.0513168
522 1 0.0507935 0.351897 0.0993643
565 1 0.0968044 0.400677 0.101937
126 1 0.149548 0.352955 0.000309849
132 1 0.200229 0.349905 0.0512176
167 1 0.146515 0.401853 0.0482555
526 1 0.151157 0.352025 0.0995656
569 1 0.193977 0.403903 0.0999063
130 1 0.248087 0.357265 4.20665e-05
136 1 0.299766 0.355401 0.0501759
171 1 0.245528 0.404422 0.0486779
173 1 0.298843 0.402131 0.000112776
530 1 0.245926 0.353066 0.0996318
573 1 0.296529 0.399244 0.100035
140 1 0.399969 0.350887 0.0521977
175 1 0.34965 0.402858 0.0495028
534 1 0.351785 0.354376 0.101435
577 1 0.397096 0.404649 0.100367
138 1 0.448742 0.354454 0.000497873
142 1 0.549703 0.351157 0.00386524
144 1 0.497744 0.349344 0.0476743
179 1 0.449517 0.400716 0.0496479
181 1 0.501584 0.400254 0.00208445
183 1 0.548311 0.398529 0.0525734
538 1 0.450483 0.352422 0.100884
542 1 0.549487 0.346846 0.097085
581 1 0.502225 0.399171 0.102699
148 1 0.599348 0.349821 0.0459864
187 1 0.651383 0.397427 0.0474059
546 1 0.65269 0.349645 0.101553
585 1 0.59792 0.397308 0.0932464
150 1 0.749648 0.347435 0.00285545
152 1 0.698339 0.347481 0.0499225
189 1 0.698063 0.398826 0.000394396
191 1 0.749895 0.396038 0.0464779
550 1 0.749672 0.346277 0.102577
589 1 0.703128 0.398723 0.0972924
156 1 0.798331 0.347951 0.0468571
195 1 0.849879 0.396791 0.0463764
554 1 0.848294 0.348715 0.0989011
593 1 0.797835 0.398613 0.100372
124 1 0.998099 0.354903 0.0499631
161 1 0.997215 0.401546 0.000846907
561 1 0.995103 0.402144 0.0965798
160 1 0.899516 0.350667 0.0472147
199 1 0.95022 0.400238 0.048516
558 1 0.948943 0.351478 0.0973615
597 1 0.900548 0.402709 0.0936002
168 1 0.0994206 0.448239 0.0485079
203 1 0.0526628 0.503166 0.0471459
208 1 0.101878 0.551175 0.0478283
562 1 0.0514029 0.450621 0.0972957
601 1 0.00459414 0.503364 0.103267
602 1 0.0508572 0.553005 0.102661
605 1 0.100499 0.501004 0.0988889
172 1 0.198128 0.455432 0.047821
207 1 0.151891 0.500012 0.0490159
212 1 0.203589 0.551279 0.0486864
566 1 0.145096 0.450197 0.0999766
606 1 0.149 0.551444 0.0999206
609 1 0.196024 0.500224 0.0988851
170 1 0.254022 0.451644 0.00195317
176 1 0.301561 0.45111 0.0476546
211 1 0.251237 0.505003 0.0479563
216 1 0.300916 0.547941 0.0539586
570 1 0.250299 0.453961 0.101374
610 1 0.249736 0.551372 0.10536
613 1 0.299794 0.500415 0.104558
174 1 0.352519 0.451662 0.00181658
180 1 0.402538 0.451852 0.0543456
215 1 0.352123 0.500915 0.0501365
217 1 0.399613 0.504933 0.00362863
220 1 0.396926 0.552675 0.0537739
574 1 0.349793 0.451079 0.102872
614 1 0.34925 0.555291 0.103026
617 1 0.397748 0.501721 0.103135
178 1 0.450726 0.449771 9.81019e-05
182 1 0.545757 0.447624 0.00177236
184 1 0.499318 0.448982 0.0545444
218 1 0.449235 0.550505 0.000949692
219 1 0.452696 0.501398 0.0507864
221 1 0.500934 0.497927 0.000513331
223 1 0.549833 0.496532 0.049413
224 1 0.504368 0.548978 0.0482244
578 1 0.452218 0.450751 0.102488
582 1 0.550667 0.445568 0.0999849
618 1 0.449024 0.553182 0.0990804
621 1 0.501122 0.505098 0.098884
622 1 0.549529 0.547854 0.101837
188 1 0.600248 0.448262 0.0519868
225 1 0.600438 0.494193 0.0012346
227 1 0.648898 0.497677 0.0498523
228 1 0.599147 0.545 0.0487607
586 1 0.649311 0.447398 0.0985791
625 1 0.600977 0.498281 0.101476
626 1 0.650521 0.547528 0.101571
192 1 0.701228 0.448848 0.0491864
230 1 0.751104 0.549353 0.00365991
231 1 0.750719 0.496797 0.0524594
232 1 0.695267 0.546332 0.0455555
590 1 0.755142 0.449249 0.0978919
629 1 0.699764 0.498271 0.099245
630 1 0.753857 0.54762 0.0977274
194 1 0.852895 0.451766 0.000956305
196 1 0.803656 0.44809 0.0488214
235 1 0.844995 0.500596 0.0533138
236 1 0.802092 0.548174 0.048825
594 1 0.848159 0.444997 0.0983988
633 1 0.799706 0.499864 0.0998647
634 1 0.852148 0.551366 0.0985298
164 1 0.998726 0.451329 0.0462989
204 1 0.99817 0.553312 0.050795
200 1 0.901633 0.451659 0.0507368
238 1 0.948904 0.549778 0.00312073
239 1 0.950425 0.500757 0.0488646
240 1 0.899809 0.546274 0.0493856
598 1 0.953713 0.453421 0.0987302
637 1 0.898654 0.498448 0.0968916
638 1 0.952202 0.550681 0.100799
242 1 0.0495383 0.649288 0.0019218
243 1 0.0518237 0.598563 0.0472993
244 1 0.000347708 0.649532 0.0518536
248 1 0.10535 0.64842 0.0459314
642 1 0.0505757 0.645566 0.100024
645 1 0.101215 0.600137 0.0962503
247 1 0.152687 0.596415 0.0495078
252 1 0.200799 0.652495 0.0466367
646 1 0.149908 0.648524 0.0965296
649 1 0.203522 0.605012 0.0996326
251 1 0.247161 0.599273 0.0478547
256 1 0.299187 0.647168 0.0470987
650 1 0.250053 0.655295 0.100418
653 1 0.296588 0.602356 0.0963316
254 1 0.350307 0.650059 0.00210791
255 1 0.351863 0.601005 0.0513314
260 1 0.403511 0.651521 0.0529175
654 1 0.350388 0.652868 0.101191
657 1 0.402525 0.599605 0.101995
258 1 0.453883 0.652739 0.000599347
259 1 0.453049 0.598615 0.0493653
262 1 0.549859 0.646722 9.04584e-05
263 1 0.553738 0.598887 0.0494532
264 1 0.501706 0.653651 0.0490025
658 1 0.455765 0.652087 0.102127
661 1 0.503933 0.599809 0.0982966
662 1 0.551086 0.651745 0.0972065
266 1 0.651319 0.646356 0.000862408
267 1 0.64656 0.592736 0.0511548
268 1 0.601588 0.654068 0.0502749
665 1 0.600373 0.594294 0.0973403
666 1 0.649267 0.648179 0.0971964
271 1 0.747329 0.597597 0.0468502
272 1 0.700669 0.647432 0.0483869
669 1 0.702296 0.59619 0.10101
670 1 0.749483 0.648402 0.100527
274 1 0.852403 0.649013 0.00280867
275 1 0.850696 0.597547 0.0468515
276 1 0.799445 0.647021 0.0511099
673 1 0.800225 0.600256 0.0989322
674 1 0.849255 0.6471 0.101727
241 1 0.999585 0.598808 0.00146453
641 1 0.996743 0.597076 0.101057
277 1 0.900381 0.599161 0.00238106
278 1 0.95078 0.647605 0.00205305
279 1 0.947642 0.599776 0.0515127
280 1 0.900576 0.649002 0.0516482
677 1 0.898234 0.598265 0.0983636
678 1 0.94752 0.647397 0.101134
281 1 0.00178117 0.698777 0.0040699
282 1 0.0465565 0.749723 0.00237545
283 1 0.0501197 0.695539 0.0531295
284 1 0.000261472 0.752296 0.0542859
285 1 0.0976096 0.700772 0.00139173
288 1 0.104804 0.750265 0.0555678
682 1 0.0524451 0.746761 0.101728
685 1 0.103727 0.697845 0.102451
286 1 0.147544 0.74922 0.00139811
287 1 0.148485 0.701046 0.0498967
292 1 0.198401 0.751967 0.0484293
686 1 0.149303 0.750612 0.104854
689 1 0.1973 0.703807 0.0983325
291 1 0.253012 0.703677 0.046563
293 1 0.302001 0.702125 0.0014794
296 1 0.298706 0.749331 0.0510184
690 1 0.250161 0.747909 0.0985561
693 1 0.298229 0.701231 0.0969649
294 1 0.347337 0.753026 0.000585994
295 1 0.355863 0.704505 0.0494145
300 1 0.401548 0.750757 0.051125
694 1 0.351713 0.749156 0.0991918
697 1 0.404433 0.702122 0.102369
299 1 0.454492 0.705569 0.0536495
302 1 0.554488 0.750053 0.000531069
303 1 0.547722 0.700536 0.046699
304 1 0.503924 0.750593 0.0489154
698 1 0.460204 0.751814 0.100546
701 1 0.504805 0.701614 0.100143
702 1 0.54938 0.752649 0.0991059
305 1 0.60466 0.697461 0.000790184
307 1 0.649559 0.702787 0.0483134
308 1 0.602056 0.751704 0.0496626
705 1 0.601349 0.700051 0.0991925
706 1 0.653212 0.755554 0.0979623
309 1 0.700158 0.700645 0.000208584
310 1 0.748215 0.748638 0.000301045
311 1 0.748252 0.700124 0.0555335
312 1 0.697543 0.74663 0.0475075
709 1 0.696419 0.698078 0.101227
710 1 0.75172 0.752577 0.100879
313 1 0.79899 0.700697 0.00133081
314 1 0.849322 0.750379 0.000279579
315 1 0.84657 0.695299 0.049747
316 1 0.799693 0.752815 0.045575
713 1 0.79677 0.699929 0.10133
714 1 0.845484 0.746031 0.0950557
681 1 0.997404 0.698737 0.0996972
317 1 0.899089 0.698433 0.00156497
319 1 0.948757 0.699679 0.0489164
320 1 0.899737 0.747388 0.050805
717 1 0.895579 0.693893 0.0968802
718 1 0.948291 0.748413 0.096056
323 1 0.051573 0.803381 0.0484082
324 1 0.00336832 0.849393 0.0482397
325 1 0.0993412 0.800685 0.00298185
328 1 0.102885 0.847551 0.0523188
722 1 0.0491195 0.852911 0.101478
725 1 0.101099 0.802344 0.102
327 1 0.150661 0.798051 0.0510677
332 1 0.202976 0.848869 0.0481641
726 1 0.155394 0.851888 0.100634
729 1 0.200796 0.798901 0.0997491
331 1 0.252012 0.799748 0.0505686
336 1 0.299944 0.851725 0.0540601
730 1 0.251781 0.85206 0.10284
733 1 0.300857 0.800658 0.100935
334 1 0.351507 0.846275 0.00114808
335 1 0.352788 0.800329 0.0515185
340 1 0.406294 0.846555 0.0458597
734 1 0.349408 0.850072 0.0980996
737 1 0.406756 0.798528 0.0991555
339 1 0.453206 0.798622 0.0486285
343 1 0.551628 0.802958 0.0511681
344 1 0.50544 0.847767 0.0471859
738 1 0.45519 0.84954 0.0994995
741 1 0.505696 0.800053 0.100399
742 1 0.550302 0.853647 0.10217
347 1 0.64855 0.803303 0.0493798
348 1 0.604252 0.853462 0.0471091
745 1 0.60333 0.808727 0.0993885
746 1 0.649546 0.849978 0.0997786
351 1 0.747994 0.797717 0.0495993
352 1 0.699204 0.847343 0.0479347
749 1 0.703259 0.800467 0.102862
750 1 0.750625 0.848625 0.0953748
355 1 0.850424 0.800527 0.0504034
356 1 0.80202 0.849673 0.0502485
753 1 0.79819 0.799405 0.100644
754 1 0.852495 0.846984 0.103428
721 1 0.996629 0.79946 0.0987854
357 1 0.899001 0.798471 0.00365717
358 1 0.947081 0.848742 0.00158162
359 1 0.948836 0.799948 0.050437
360 1 0.897417 0.851815 0.0506823
757 1 0.897211 0.800086 0.0998954
758 1 0.944372 0.847104 0.0991848
3 1 0.0517939 0.99798 0.0543651
5 1 0.100301 0.999965 0.000427141
361 1 0.0012128 0.898676 0.00131442
363 1 0.0503574 0.902454 0.0510091
364 1 0.000548225 0.948937 0.0500796
365 1 0.101612 0.900746 0.00235375
368 1 0.100719 0.951825 0.0498016
761 1 0.000628528 0.894902 0.104856
762 1 0.049894 0.950068 0.100466
765 1 0.103805 0.898275 0.0959404
367 1 0.154094 0.903539 0.0471204
372 1 0.200877 0.949237 0.0500188
766 1 0.152636 0.950701 0.0993162
769 1 0.201517 0.902671 0.103537
11 1 0.253143 0.999115 0.0497771
413 1 0.29573 0.997743 0.0997892
371 1 0.251075 0.901076 0.0512017
373 1 0.298548 0.90001 0.00315532
376 1 0.302565 0.950444 0.0504137
770 1 0.249672 0.950402 0.0990392
773 1 0.302017 0.899497 0.102906
17 1 0.396416 0.999834 0.00321184
417 1 0.396912 0.997504 0.10083
374 1 0.349675 0.948149 0.00346342
375 1 0.352904 0.89714 0.0486728
380 1 0.400327 0.94818 0.0499806
774 1 0.350913 0.948432 0.100618
777 1 0.402614 0.896283 0.0983385
19 1 0.446877 0.996923 0.0462776
378 1 0.45052 0.946307 0.00248622
379 1 0.453318 0.898382 0.0479643
381 1 0.505858 0.901255 0.000290359
382 1 0.550213 0.955046 0.00115242
383 1 0.54852 0.902183 0.0526892
384 1 0.498139 0.950584 0.0485176
778 1 0.44462 0.951291 0.0980373
781 1 0.501043 0.904121 0.0981063
782 1 0.551555 0.953352 0.0970962
27 1 0.651731 0.998671 0.0484949
385 1 0.598639 0.902319 0.00298155
387 1 0.654738 0.899991 0.0496275
388 1 0.602768 0.954747 0.0493246
785 1 0.601126 0.904399 0.0943576
786 1 0.650582 0.952077 0.0999611
31 1 0.75035 0.998245 0.0499391
429 1 0.701112 0.997183 0.100121
389 1 0.698685 0.902025 0.00132326
390 1 0.747458 0.949766 0.00168393
391 1 0.745736 0.896475 0.0480285
392 1 0.698888 0.955143 0.0491686
789 1 0.699386 0.899643 0.10213
790 1 0.749546 0.946015 0.0981192
433 1 0.796085 0.994171 0.102446
393 1 0.79786 0.900368 0.000331714
394 1 0.850986 0.951096 0.000781819
395 1 0.848975 0.899715 0.0502661
396 1 0.798426 0.949698 0.0499643
793 1 0.801149 0.899955 0.10556
794 1 0.848919 0.950309 0.0983539
437 1 0.902869 0.996277 0.100199
398 1 0.951781 0.949724 0.00422021
399 1 0.948128 0.899138 0.0532908
400 1 0.899547 0.948501 0.0514264
797 1 0.900382 0.899255 0.103201
798 1 0.953283 0.945772 0.101224
403 1 0.0534998 0.00207157 0.154249
404 1 0.00204546 0.0513836 0.150963
408 1 0.101282 0.0497509 0.146466
443 1 0.0480207 0.103768 0.154668
802 1 0.0503511 0.0499139 0.204483
805 1 0.1017 3.70793e-05 0.20118
845 1 0.0996563 0.100412 0.197737
407 1 0.155332 0.000382262 0.150656
412 1 0.201842 0.0501741 0.151832
447 1 0.152182 0.0992629 0.148696
806 1 0.149248 0.0507524 0.202933
809 1 0.200385 0.00182308 0.206693
849 1 0.204258 0.100353 0.199214
812 1 0.198305 0.0537278 0.248061
847 1 0.150188 0.101705 0.246556
411 1 0.248897 0.00314284 0.14958
416 1 0.300835 0.0521182 0.150256
451 1 0.24964 0.103268 0.147991
810 1 0.250221 0.0481811 0.198803
813 1 0.297493 0.000431662 0.201208
853 1 0.300499 0.103094 0.202711
811 1 0.253049 0.00483342 0.24993
420 1 0.39845 0.0510126 0.145928
455 1 0.350019 0.101195 0.147716
814 1 0.347459 0.0462576 0.201523
857 1 0.396738 0.0994287 0.196774
855 1 0.350327 0.0968026 0.247134
424 1 0.498047 0.0527816 0.14882
459 1 0.449536 0.101308 0.152238
463 1 0.548624 0.0982144 0.149854
818 1 0.448981 0.0517526 0.198168
821 1 0.495936 0.000705175 0.19583
822 1 0.552375 0.0494594 0.197372
861 1 0.499995 0.0987433 0.198852
819 1 0.448039 0.000452815 0.248415
824 1 0.499725 0.0511463 0.243335
859 1 0.44595 0.0986194 0.248846
863 1 0.549425 0.0983429 0.245931
428 1 0.600047 0.0486473 0.148683
467 1 0.65078 0.0993928 0.147794
825 1 0.601183 0.000574837 0.19898
826 1 0.649077 0.0517968 0.200891
865 1 0.600509 0.103548 0.201097
827 1 0.645042 0.00289692 0.249002
828 1 0.596204 0.0511699 0.24987
867 1 0.656413 0.103346 0.249469
432 1 0.700444 0.0493349 0.152354
471 1 0.753934 0.0960067 0.146951
829 1 0.698798 0.00249585 0.201885
830 1 0.750855 0.0471207 0.201665
869 1 0.704787 0.0991115 0.200171
436 1 0.803687 0.0484797 0.152881
475 1 0.850364 0.100061 0.149113
834 1 0.849545 0.0520333 0.202099
873 1 0.804386 0.101975 0.202498
836 1 0.799051 0.0507611 0.249492
875 1 0.849907 0.101668 0.249058
841 1 0.999862 0.100937 0.203016
440 1 0.901634 0.0470452 0.150943
479 1 0.954381 0.100474 0.143992
837 1 0.899497 0.0014085 0.196533
838 1 0.952097 0.0514796 0.199397
877 1 0.901632 0.10194 0.200119
804 1 0.996983 0.0516141 0.247813
840 1 0.89741 0.0502282 0.248222
448 1 0.0993694 0.151915 0.148848
483 1 0.0523106 0.199712 0.151147
842 1 0.0490859 0.152429 0.201382
881 1 0.00405246 0.199916 0.203332
885 1 0.103619 0.193371 0.204287
452 1 0.200972 0.150121 0.14863
487 1 0.14948 0.200607 0.152361
846 1 0.155142 0.148452 0.199704
889 1 0.202696 0.20032 0.19759
887 1 0.150741 0.199724 0.249038
456 1 0.300652 0.149877 0.148677
491 1 0.249365 0.198361 0.149278
850 1 0.251058 0.148182 0.201128
893 1 0.300667 0.197239 0.201075
856 1 0.298126 0.152793 0.249946
460 1 0.401562 0.148818 0.151875
495 1 0.347427 0.204157 0.151603
854 1 0.349346 0.149185 0.201904
897 1 0.401535 0.197388 0.199281
860 1 0.399321 0.150518 0.249357
895 1 0.350017 0.196852 0.249898
464 1 0.49692 0.149339 0.150085
499 1 0.449272 0.201884 0.152458
503 1 0.543569 0.199813 0.152558
858 1 0.450851 0.150686 0.198349
862 1 0.547611 0.149792 0.198972
901 1 0.499542 0.200783 0.205208
864 1 0.50001 0.147534 0.245818
903 1 0.551594 0.198676 0.249449
468 1 0.595907 0.14952 0.150045
507 1 0.646591 0.197295 0.149776
866 1 0.649785 0.147959 0.1987
905 1 0.597012 0.193817 0.197799
868 1 0.597999 0.150087 0.249388
472 1 0.701925 0.141877 0.151852
511 1 0.748168 0.197644 0.153174
870 1 0.750132 0.147032 0.200829
909 1 0.701442 0.200746 0.19907
476 1 0.801783 0.148967 0.151785
515 1 0.855396 0.199325 0.146763
874 1 0.853934 0.151551 0.200526
913 1 0.804092 0.201251 0.199559
876 1 0.802608 0.152904 0.247491
444 1 0.999413 0.151186 0.14952
480 1 0.90486 0.147701 0.147322
519 1 0.947354 0.20234 0.152092
878 1 0.953796 0.152883 0.199911
917 1 0.897284 0.198068 0.200975
880 1 0.903345 0.145782 0.247859
488 1 0.100916 0.253467 0.153222
523 1 0.0484165 0.299883 0.151237
882 1 0.048876 0.252054 0.199878
925 1 0.0990478 0.301621 0.202227
492 1 0.200454 0.248834 0.152865
527 1 0.147658 0.299184 0.153902
886 1 0.14937 0.248272 0.201642
929 1 0.19937 0.301055 0.199493
496 1 0.295077 0.251534 0.149156
531 1 0.247114 0.302958 0.150664
890 1 0.248371 0.247969 0.200198
933 1 0.297578 0.301349 0.19609
500 1 0.399168 0.252699 0.147647
535 1 0.348568 0.298071 0.147079
894 1 0.34731 0.253619 0.201252
937 1 0.399903 0.303921 0.200028
935 1 0.35094 0.298585 0.249517
504 1 0.499253 0.251987 0.151995
539 1 0.44765 0.304954 0.147277
543 1 0.552506 0.300611 0.147623
898 1 0.445994 0.248396 0.198173
902 1 0.548768 0.255766 0.199113
941 1 0.497605 0.300167 0.198904
904 1 0.50204 0.251579 0.248307
939 1 0.45032 0.298427 0.247338
508 1 0.597431 0.248644 0.150109
547 1 0.652129 0.294817 0.151844
906 1 0.647258 0.244322 0.199122
945 1 0.601913 0.30422 0.199121
908 1 0.601097 0.251069 0.246098
512 1 0.701216 0.249241 0.148616
551 1 0.749085 0.295779 0.149333
910 1 0.751887 0.249881 0.202994
949 1 0.702702 0.2963 0.200678
951 1 0.751681 0.302047 0.248896
516 1 0.797091 0.247702 0.151243
555 1 0.847311 0.300235 0.145484
914 1 0.852395 0.249714 0.198245
953 1 0.799863 0.297922 0.198433
484 1 0.99959 0.250573 0.15099
921 1 0.99976 0.29915 0.200373
520 1 0.900027 0.249965 0.151453
559 1 0.950356 0.302779 0.14794
918 1 0.951953 0.247406 0.200972
957 1 0.898523 0.299532 0.197188
920 1 0.902802 0.248224 0.249892
959 1 0.948018 0.299296 0.24945
528 1 0.10155 0.35208 0.156629
563 1 0.0469854 0.40389 0.147529
922 1 0.0500461 0.351437 0.193892
965 1 0.0987716 0.402301 0.200495
963 1 0.0503465 0.394461 0.247445
532 1 0.196494 0.353225 0.150912
567 1 0.145358 0.398791 0.149219
926 1 0.149694 0.352348 0.204233
969 1 0.20181 0.40152 0.201178
932 1 0.202147 0.352806 0.248983
536 1 0.297536 0.350892 0.152649
571 1 0.247585 0.401942 0.148853
930 1 0.252605 0.352673 0.199283
973 1 0.298439 0.402231 0.200573
971 1 0.249137 0.399608 0.246834
540 1 0.39884 0.35002 0.150324
575 1 0.348338 0.401067 0.151862
934 1 0.34762 0.350432 0.200347
977 1 0.396502 0.399823 0.198098
544 1 0.500271 0.346729 0.147338
579 1 0.451731 0.397573 0.145466
583 1 0.5486 0.395954 0.15228
938 1 0.450803 0.35273 0.202146
942 1 0.550758 0.349937 0.198376
981 1 0.498343 0.399688 0.203044
944 1 0.496906 0.349881 0.249303
979 1 0.447141 0.403017 0.24871
983 1 0.548876 0.397133 0.24824
548 1 0.601319 0.347105 0.148298
587 1 0.650875 0.398525 0.14766
946 1 0.650431 0.352035 0.196209
985 1 0.59973 0.398245 0.1959
948 1 0.599939 0.353312 0.249572
987 1 0.651114 0.399039 0.249233
552 1 0.702807 0.352606 0.149384
591 1 0.748054 0.402952 0.146773
950 1 0.748857 0.351484 0.198173
989 1 0.702477 0.399444 0.201825
952 1 0.700225 0.349248 0.246535
991 1 0.748024 0.397734 0.249915
556 1 0.799186 0.352551 0.15007
595 1 0.852685 0.397276 0.148934
954 1 0.847189 0.348362 0.202258
993 1 0.795093 0.400019 0.200865
524 1 0.995661 0.350535 0.147564
961 1 0.993558 0.398222 0.196812
560 1 0.899411 0.348872 0.143835
599 1 0.945853 0.397432 0.145697
958 1 0.948951 0.349682 0.198835
997 1 0.900663 0.399683 0.196535
924 1 0.996253 0.354561 0.246572
960 1 0.900039 0.348513 0.248103
964 1 0.997222 0.442274 0.24822
568 1 0.0964763 0.450585 0.149052
603 1 0.0514741 0.500897 0.151725
604 1 0.000915299 0.551914 0.15191
608 1 0.095195 0.549737 0.14885
962 1 0.0450472 0.44808 0.203512
1002 1 0.0485436 0.549774 0.202454
1005 1 0.0970706 0.502251 0.199996
1003 1 0.053528 0.499858 0.249775
572 1 0.197943 0.452118 0.150647
607 1 0.149475 0.501416 0.1469
612 1 0.193872 0.54852 0.147924
966 1 0.14802 0.450114 0.198767
1006 1 0.14175 0.547199 0.198368
1009 1 0.199809 0.500277 0.202033
576 1 0.295562 0.452466 0.150044
611 1 0.24824 0.499239 0.150189
616 1 0.295362 0.554942 0.147813
970 1 0.250968 0.450504 0.201308
1010 1 0.248176 0.550929 0.199976
1013 1 0.295697 0.499495 0.199522
976 1 0.297383 0.451302 0.246919
1016 1 0.301489 0.550055 0.249726
580 1 0.401176 0.451851 0.14922
615 1 0.349351 0.503717 0.149631
620 1 0.399984 0.551183 0.150924
974 1 0.348911 0.451885 0.197394
1014 1 0.352711 0.550798 0.196318
1017 1 0.403247 0.503544 0.200032
980 1 0.399656 0.452342 0.248918
1015 1 0.350117 0.504317 0.249222
584 1 0.501272 0.452592 0.147165
619 1 0.453665 0.499811 0.148423
623 1 0.551561 0.498081 0.149702
624 1 0.502016 0.549303 0.151602
978 1 0.452276 0.447412 0.196296
982 1 0.553961 0.447144 0.201459
1018 1 0.452751 0.551187 0.20154
1021 1 0.503754 0.498225 0.19951
1022 1 0.553493 0.551286 0.2019
984 1 0.502238 0.451544 0.248777
1019 1 0.449998 0.498079 0.248629
1023 1 0.553427 0.497987 0.249592
1024 1 0.502779 0.543301 0.248485
588 1 0.602333 0.446526 0.153736
627 1 0.649022 0.496197 0.146719
628 1 0.599374 0.544071 0.150037
986 1 0.652256 0.446647 0.201588
1025 1 0.602316 0.495955 0.200444
1026 1 0.650282 0.551796 0.198594
1027 1 0.652722 0.501319 0.244554
592 1 0.699558 0.452085 0.149547
631 1 0.752948 0.497064 0.148231
632 1 0.701887 0.548855 0.148506
990 1 0.746223 0.451004 0.197024
1029 1 0.700822 0.501211 0.196093
1030 1 0.747881 0.548475 0.198154
1031 1 0.748262 0.501844 0.248983
1032 1 0.699673 0.55191 0.247612
596 1 0.802858 0.446945 0.152517
635 1 0.848796 0.494882 0.151425
636 1 0.79789 0.547964 0.149941
994 1 0.850437 0.445906 0.199565
1033 1 0.799943 0.501072 0.200933
1034 1 0.849479 0.549892 0.199626
1036 1 0.798451 0.551103 0.247779
564 1 0.99598 0.452247 0.152157
1001 1 0.999706 0.50112 0.200953
600 1 0.900816 0.449458 0.146104
639 1 0.952395 0.501991 0.151092
640 1 0.895505 0.54765 0.145656
998 1 0.946996 0.454022 0.202127
1037 1 0.895948 0.501079 0.200642
1038 1 0.946261 0.546651 0.199669
1000 1 0.894004 0.448291 0.249384
643 1 0.0526717 0.600068 0.151534
644 1 0.000331904 0.647791 0.15069
648 1 0.100059 0.645397 0.148657
1041 1 0.0011644 0.601113 0.203566
1042 1 0.0494992 0.648232 0.203655
1045 1 0.100866 0.600147 0.200038
647 1 0.149977 0.596967 0.147689
652 1 0.201235 0.654425 0.146834
1046 1 0.153772 0.646521 0.200461
1049 1 0.196267 0.592783 0.200663
651 1 0.245507 0.603345 0.154098
656 1 0.299665 0.649689 0.150008
1050 1 0.248422 0.64719 0.202922
1053 1 0.304232 0.596372 0.200519
1051 1 0.250855 0.597995 0.248937
655 1 0.350366 0.604014 0.14805
660 1 0.405324 0.651216 0.149523
1054 1 0.349278 0.651662 0.200095
1057 1 0.405102 0.598155 0.201576
659 1 0.454993 0.59686 0.149158
663 1 0.553439 0.598249 0.147482
664 1 0.508808 0.650844 0.151277
1058 1 0.455236 0.651781 0.197415
1061 1 0.502982 0.599996 0.200399
1062 1 0.551893 0.646973 0.199696
1059 1 0.451709 0.594997 0.248216
1064 1 0.501579 0.648283 0.249772
667 1 0.652478 0.598005 0.147822
668 1 0.605529 0.649144 0.146614
1065 1 0.598781 0.598375 0.202138
1066 1 0.64981 0.646661 0.199365
1067 1 0.654216 0.599119 0.249293
1068 1 0.600471 0.647498 0.24838
671 1 0.748781 0.599688 0.149789
672 1 0.698705 0.651391 0.14986
1069 1 0.701514 0.597793 0.198521
1070 1 0.747553 0.65337 0.200588
1071 1 0.747264 0.60058 0.249839
675 1 0.843825 0.599367 0.152604
676 1 0.796844 0.648224 0.148832
1073 1 0.797028 0.59658 0.197816
1074 1 0.84784 0.648991 0.20235
1076 1 0.801 0.64475 0.249875
679 1 0.948382 0.595911 0.151296
680 1 0.894893 0.64624 0.149357
1077 1 0.900716 0.598498 0.197256
1078 1 0.947857 0.647526 0.199475
683 1 0.0517851 0.699602 0.149279
688 1 0.0997158 0.753846 0.154262
1082 1 0.0459189 0.750397 0.194476
1085 1 0.101979 0.697267 0.199507
1083 1 0.0495138 0.703568 0.248406
1088 1 0.101259 0.750763 0.246525
687 1 0.144313 0.698413 0.15449
692 1 0.201413 0.746828 0.150587
1086 1 0.149163 0.748324 0.199894
1089 1 0.201064 0.699047 0.20228
1087 1 0.148443 0.697533 0.249417
691 1 0.249007 0.701352 0.153203
696 1 0.301688 0.751679 0.151707
1090 1 0.252491 0.752889 0.202874
1093 1 0.294636 0.698316 0.20188
695 1 0.349378 0.699275 0.151877
700 1 0.401078 0.746194 0.148749
1094 1 0.352526 0.752875 0.196764
1097 1 0.402197 0.700969 0.199833
699 1 0.458411 0.703143 0.152391
703 1 0.551781 0.700183 0.150946
704 1 0.503935 0.750916 0.154243
1098 1 0.449399 0.753111 0.198872
1101 1 0.501536 0.700061 0.201565
1102 1 0.552828 0.751489 0.200098
1099 1 0.448569 0.700715 0.249914
1103 1 0.553128 0.700537 0.247728
1104 1 0.500256 0.753016 0.246839
707 1 0.649899 0.701558 0.148606
708 1 0.603827 0.755432 0.145431
1105 1 0.600862 0.701795 0.201884
1106 1 0.650913 0.756354 0.199512
711 1 0.745693 0.702238 0.147873
712 1 0.700628 0.752245 0.14961
1109 1 0.701156 0.704505 0.200239
1110 1 0.750784 0.748497 0.202742
1112 1 0.695674 0.751872 0.248862
715 1 0.847662 0.702459 0.150654
716 1 0.7968 0.74907 0.148019
1113 1 0.798908 0.699319 0.199175
1114 1 0.850492 0.748476 0.204507
1116 1 0.804236 0.749374 0.249517
684 1 0.999805 0.753183 0.146488
1081 1 0.999977 0.699534 0.200556
719 1 0.947639 0.696938 0.147966
720 1 0.901307 0.747588 0.148121
1117 1 0.899857 0.695311 0.200448