
# ----------------------- ATOM DEFINITION ----------------------------
lattice		fcc ${latparam}
lattice		fcc 4.05
Lattice spacing in x,y,z = 4.05 4.05 4.05
region		whole block 0 10 0 10 0 10
create_box	1 whole
Created orthogonal box = (0 0 0) to (40.5 40.5 40.5)
  1 by 2 by 2 MPI processor grid
lattice 	fcc ${latparam} orient x 1 0 0 orient y 0 1 0 orient z 0 0 1
lattice 	fcc 4.05 orient x 1 0 0 orient y 0 1 0 orient z 0 0 1
Lattice spacing in x,y,z = 4.05 4.05 4.05
create_atoms	1 region whole
Created 4000 atoms

# ------------------------ FORCE FIELDS ------------------------------

#****************USE THIS TO TEST******************
pair_style	eam/rad
pair_coeff 			* * Al99.PC0.5.eam.alloy.rad.txt Al # pc = 0.5   error generating

# ------------------------- SETTINGS ---------------------------------
compute csym all centro/atom fcc
compute peratom all pe/atom

######################################
# EQUILIBRATION
reset_timestep	0
timestep	0.001 # default
# timestep	0.0001 # tiny time step
velocity all create 300 12345 mom yes rot no
fix 1 all npt temp 300 300 1 iso 0 0 1 drag 1

# Set thermo output
thermo 50
# thermo 1 # debug mode

# thermo_style custom step lx ly lz press pxx pyy pzz pe temp
# IMPLEMENTATION HERE

# VERSION add rad variables .v1 .v2
# thermo_style custom step lx ly lz press pxx pyy pzz pxxrad pyyrad pzzrad pe temp

# VERSION ublb separation .v3
thermo_style custom step lx ly lz press pxx pxxub pxxlb pyy pyyub pyylb pzz pzzub pzzlb pe temp

# Run for at least 10 picosecond (assuming 1 fs timestep)
run 	20000 # default
Memory usage per processor = 7.82687 Mbytes
Step Lx Ly Lz Press Pxx Pxxub Pxxlb Pyy Pyyub Pyylb Pzz Pzzub Pzzlb PotEng Temp 
       0         40.5         40.5         40.5    2496.1233    2446.9902    4216.5535   -4211.1029    2534.6541    4216.5535   -4211.1029    2506.7256    4216.5535   -4211.1029       -13440          300 
      50      40.5611      40.5611      40.5611    907.43706    837.10986    5092.1095    -3373.546    946.43161    5204.0452   -3265.3098    938.76971    5195.5934   -3274.1454   -13338.819    103.27149 
     100    40.636867    40.636867    40.636867   -4611.4186   -4606.0751   -439.07652   -8749.1331   -4633.2987    -466.3401   -8774.5968   -4594.8821    -427.3476   -8736.5088   -13373.529    171.80729 
     150    40.566371    40.566371    40.566371    544.64066    509.57779    4729.7399   -3690.9801    622.24374    4840.7636   -3576.6742    502.10046    4722.5727   -3699.7365   -13348.908    124.16109 
     200    40.511722    40.511722    40.511722    3547.2897    3643.2596    7895.6291   -608.86955    3485.9867    7741.5901   -766.32345    3512.6228    7767.5283   -738.69869   -13355.216     137.9072 
     250    40.565785    40.565785    40.565785    166.93066    90.523527    4299.4913   -4119.9442    218.10474    4424.8152   -3990.4459    192.16371     4399.395    -4016.903   -13359.502    146.72328 
     300    40.611235    40.611235    40.611235   -2466.5664   -2412.8394    1764.9576   -6591.1772   -2483.9007    1691.9278    -6663.458   -2502.9592    1676.4279   -6681.4572   -13360.111    149.21075 
     350    40.571353    40.571353    40.571353   -408.34084   -482.42607    3721.5542   -4683.6036   -346.38838    3858.7408   -4547.9734   -396.20806    3806.1957   -4597.5564   -13367.339    163.76556 
     400    40.532306    40.532306    40.532306    2225.5431    2279.8069    6518.5111   -1950.3134    2296.6157    6535.0628   -1937.1214    2100.2067    6341.9342   -2132.6579   -13359.854    150.41108 
     450    40.566044    40.566044    40.566044    2.0377845   -40.092854    4170.6438   -4245.7836   -31.888362    4177.9044   -4237.5265     78.09457     4286.981   -4128.8023    -13363.08    157.36643 
     500    40.595966    40.595966    40.595966   -1611.3461   -1655.3283    2537.2415   -5839.6463   -1479.2164    2713.8888   -5663.7999   -1699.4934    2490.6007   -5884.4109   -13359.404    151.32857 
     550    40.570848    40.570848    40.570848   -161.85418   -150.03728    4056.9425    -4354.014   -167.20465     4039.986   -4370.6868   -168.32062     4038.382   -4370.2043   -13360.736    154.75593 
     600    40.545092    40.545092    40.545092    1385.8336    1414.2998    5641.0193    -2807.882    1433.0694    5660.5508   -2790.3831    1310.1316    5535.2721   -2910.4009   -13361.915    158.16074 
     650    40.566235    40.566235    40.566235    212.56633    184.02753    4398.2955   -4025.9628    245.48283     4459.505   -3966.0411    208.18862    4424.0418   -4004.1989   -13358.104    151.74194 
     700    40.589999    40.589999    40.589999   -1217.4105   -1343.5854    2852.9118   -5534.2672   -1126.2179    3068.5108   -5314.3869   -1182.4283    3012.3972   -5374.2825   -13360.206    156.93263 
     750    40.572933    40.572933    40.572933   -250.38158   -286.45411    3919.9423   -4486.6104   -263.19279    3945.9752   -4464.7345   -201.49783    4006.9425   -4399.8153   -13360.538    158.57849 
     800    40.551356    40.551356    40.551356    1208.6566    1078.2928    5302.2335   -3145.2854    1322.2307     5547.522   -2901.8621    1225.4462    5449.9216   -2997.4186   -13357.161    153.20685 
     850    40.567647    40.567647    40.567647     35.88215    27.354765    4237.0195   -4177.2703    95.437303    4304.1761   -4109.0788   -15.145617    4193.7567    -4220.511   -13362.171    163.91834 
     900    40.586566    40.586566    40.586566   -905.95525   -936.83022    3262.8968   -5129.1891   -840.20578    3358.5608   -5031.3164   -940.82976    3258.8144   -5130.7161   -13360.501    161.82509 
     950    40.575685    40.575685    40.575685   -242.27646    -258.0676     3953.187   -4458.4069   -191.53537    4019.1429   -4392.3086    -277.2264    3933.6316   -4479.6961   -13355.043     152.3172 
    1000    40.557624    40.557624    40.557624    865.78368    854.28577    5071.4969   -3358.3485     838.0004    5053.7535   -3374.4651    905.06486    5123.5034   -3308.4304   -13361.124    165.23426 
    1050    40.567354    40.567354    40.567354    296.20892     232.8234    4450.2678   -3977.8064     412.4804    4629.6892   -3799.4387    243.32297    4461.5512   -3966.6688   -13352.949    150.47937 
    1100    40.584443    40.584443    40.584443   -762.38408   -853.89575    3345.8773   -5047.2909   -674.30507    3525.1186   -4866.6844   -758.95143    3437.2589   -4952.1143   -13360.466    166.16585 
    1150    40.575983    40.575983    40.575983    -142.2806   -201.77341     4008.085   -4406.4466   -30.014093    4175.7011   -4232.2262    -195.0543    4011.9776   -4395.3806    -13353.75    154.27323 
    1200    40.562401    40.562401    40.562401    595.06575    539.95132    4754.7187   -3676.1528    625.63845    4840.3853   -3585.0288    619.60749    4834.0872   -3591.6448    -13359.83    167.17798 
    1250    40.569413    40.569413    40.569413    166.79261    92.903564     4307.207   -4115.5437    250.18713    4463.6666   -3959.2327    157.28713     4372.065   -4051.4165   -13356.017    160.90148 
    1300    40.581899    40.581899    40.581899   -560.61752   -582.11355    3620.0643   -4776.1914   -449.93781      3754.37   -4647.9463   -649.80119    3554.7005   -4849.1654   -13357.596    165.08945 
    1350    40.575948    40.575948    40.575948    -187.6128   -340.24911    3867.0455   -4541.9868   -119.43237    4088.4819   -4320.5453   -103.15693     4105.266   -4303.7919   -13356.829    164.72703 
    1400    40.566127    40.566127    40.566127    565.86425    499.12344    4715.3987   -3713.2655    641.64272    4859.1033   -3566.8794    556.82658    4774.4047   -3656.0141   -13354.386    161.14085 
    1450    40.572988    40.572988    40.572988    -8.561472    -54.13345    4155.7875   -4257.7843   -9.1404528    4201.5185   -4212.7233    37.589487    4246.7775    -4163.576   -13356.765    166.86433 
    1500    40.579794    40.579794    40.579794   -267.41446   -332.77441    3873.3993   -4534.6031   -176.15609    4028.2634   -4377.6136   -293.31287    3912.0123   -4494.7354   -13353.672    162.03422 
    1550    40.576834    40.576834    40.576834   -220.87916   -335.60203    3870.4751   -4536.5481   -207.98546    3999.6007   -4409.6139   -119.05001    4088.3428   -4317.5039    -13357.33    170.23169 
    1600     40.56902     40.56902     40.56902    377.81634    358.40758    4574.1692   -3851.9539    458.79305    4673.7882   -3751.0565    316.24838    4532.8428   -3893.1429   -13352.705    162.42694 
    1650    40.573333    40.573333    40.573333    121.60248    65.830518    4276.6012   -4137.0502    161.88969     4373.982    -4040.818    137.08722    4346.7871   -4069.0717     -13355.4    168.76756 
    1700    40.580701    40.580701    40.580701   -351.25931   -404.48696    3802.0023   -4607.0393   -356.71365     3847.985   -4558.5495   -292.57732    3913.3572   -4496.2983   -13352.169    163.67705 
    1750    40.576849    40.576849    40.576849   -32.167301   -50.678233    4158.7898   -4250.5942   -63.920617    4143.5697   -4264.6298    18.096946    4227.8678   -4181.0246   -13355.552    171.33506 
    1800    40.570697    40.570697    40.570697    303.86959    205.87186    4419.0674   -4005.7339    337.67696    4553.0159   -3867.7673    368.05996    4581.1389   -3842.7554   -13351.254    164.18628 
    1850    40.573832    40.573832    40.573832    241.25661    160.65476    4370.2934   -4044.3625    291.81867    4502.0999   -3915.7142    271.29639    4481.1627   -3933.7033   -13351.989    166.73526 
    1900    40.582525    40.582525    40.582525   -408.49907   -517.11515     3686.448     -4715.53    -372.3218    3827.9803   -4569.9396   -336.06028    3865.0033   -4534.1457    -13355.88     175.4205 
    1950    40.579035    40.579035    40.579035   -121.18037    -78.31077    4131.9632   -4283.5808   -80.564036    4132.1396   -4284.8693    -204.6663    4006.0957   -4407.6267   -13350.032    165.23107 
    2000     40.57151     40.57151     40.57151    262.28188    197.36064    4409.3889   -4010.0327    289.69509    4501.2968   -3914.9189     299.7899    4510.3224   -3904.1603   -13356.433    178.77171 
    2050     40.57415     40.57415     40.57415    291.00696    438.91963    4652.5058    -3763.755    282.96388    4496.8802   -3924.2622    151.13737    4366.0615   -4055.6605   -13349.034    165.59547 
    2100    40.583714    40.583714    40.583714   -349.64824   -571.69905    3633.6667   -4771.7909   -278.61218    3926.9654   -4479.1395   -198.63349    4002.4014   -4395.8477    -13352.82     174.0797 
    2150    40.580896    40.580896    40.580896   -115.46102   -185.78203    4022.6003   -4392.3368   -83.935203    4123.8812    -4288.055   -76.665824    4135.3916   -4280.2122   -13348.342    166.55152 
    2200    40.573232    40.573232    40.573232    266.96923    327.53375    4540.0285   -3877.9388    145.53519     4355.207    -4059.995    327.83874    4537.1922   -3876.9769   -13352.358    175.46306 
    2250    40.574827    40.574827    40.574827    151.21048    253.25725    4464.2989   -3952.9631    168.12758    4377.1325   -4036.9584    32.246605    4243.0386   -4176.1361   -13351.993    175.91954 
    2300    40.582519    40.582519    40.582519   -229.92012   -262.55007    3945.8891   -4464.4552   -227.80284    3978.7825    -4427.732   -199.40745      4007.66   -4396.0755   -13351.098    175.32277 
    2350    40.582472    40.582472    40.582472   -261.47493   -230.22332    3974.6789   -4429.0574   -223.18601    3980.5567   -4420.2129   -331.01546    3875.4645   -4530.5048   -13351.015     176.3209 
    2400    40.575117    40.575117    40.575117    304.99838    318.71288    4531.6922   -3885.6461    230.82389    4447.2907   -3976.4074    365.45835    4578.9881   -3842.7973    -13348.88    173.33846 
    2450    40.576041    40.576041    40.576041    115.98281   -49.519186     4162.536   -4256.6627    231.81908    4442.5621    -3975.858    165.64854    4376.0346   -4039.4163   -13349.774    176.22576 
    2500    40.581993    40.581993    40.581993    -86.32248   -223.14465    3985.4691   -4424.6267   -50.962736    4157.1727   -4250.4695    15.139951     4225.125   -4186.2715   -13348.601    175.08643 
    2550    40.583873    40.583873    40.583873   -280.78867    -329.5054    3876.8515   -4526.7239   -351.60669    3852.7213   -4548.3047   -161.25393    4044.6422   -4361.2265   -13350.803    180.51146 
    2600    40.577203    40.577203    40.577203    317.49535    231.68198    4444.5708   -3979.0169    393.67729     4603.149   -3812.9431    327.12677    4539.5249   -3879.4349    -13345.69    171.77884 
    2650    40.578933    40.578933    40.578933    13.030925    144.96731    4355.4393    -4059.687   -44.713472    4166.7981   -4249.4585   -61.161069    4149.0283    -4265.566   -13350.912    183.01571 
    2700    40.583518    40.583518    40.583518   -174.83865   -293.93299    3916.2899   -4496.2501   -111.84152    4095.2905   -4312.5939   -118.74145    4087.9077   -4321.8132   -13346.798    176.21518 
    2750    40.582481    40.582481    40.582481   -39.748764   -65.184794    4142.7741   -4267.0904    -87.13603    4119.0783   -4288.0784    33.074533    4243.2535   -4166.8185   -13348.669    180.97912 
    2800    40.578705    40.578705    40.578705    108.86451   -19.945463    4189.6305   -4227.4958    191.66526    4401.8858   -4014.7191    154.87373    4366.7984   -4052.7105   -13346.376    177.70923 
    2850    40.579322    40.579322    40.579322    124.53218    81.912131    4293.5793   -4121.8917    124.60452    4334.7567   -4078.9944     167.0799    4377.3777   -4039.5698   -13349.584    185.05983 
    2900    40.584645    40.584645    40.584645   -69.825092    -152.5521    4057.1744   -4352.8476   -33.708358    4175.3675   -4232.6501   -23.214815    4185.8579   -4223.5591   -13345.868     179.0187 
    2950    40.585359    40.585359    40.585359   -182.56258   -154.04171    4049.8231   -4354.2733   -313.08375    3891.6226   -4513.4398   -80.562296    4123.9228    -4285.071   -13345.484    179.44392 
    3000    40.580393    40.580393    40.580393    103.06038     17.74205    4228.9376   -4187.2077    199.86076     4406.924    -4004.874    91.578338    4302.5683   -4115.1239   -13349.988    189.30398 
    3050    40.580507    40.580507    40.580507    62.168107    44.094515    4255.4229   -4163.2099    20.509683     4234.855   -4184.5642    121.90012    4334.5634   -4079.7386   -13345.218    181.21565 
    3100    40.584708    40.584708    40.584708   -107.42179   -223.08689    3986.1948   -4425.4738   -59.455111    4149.3888   -4263.5019   -39.723375    4169.1056   -4242.6081   -13347.434     186.6605 
    3150    40.585857    40.585857    40.585857   -139.90607   -193.02274    4015.5392   -4393.0418   -102.84206    4106.5974   -4303.1342    -123.8534    4086.4587     -4321.31   -13344.327    181.78994 
    3200    40.582817    40.582817    40.582817    56.136466   -25.815173    4181.5657   -4228.5105    83.857537      4291.11   -4119.5571    110.36703    4319.5137   -4091.4954   -13346.758    187.66531 
    3250    40.582883    40.582883    40.582883    202.40337    154.08445    4367.1052   -4049.1881    136.98617    4347.9802   -4065.0416    316.13948    4526.8261   -3889.8339   -13343.925    183.32635 
    3300    40.587578    40.587578    40.587578    -209.4339   -371.94849    3834.3334   -4572.3936   -87.698913    4116.5391   -4285.0872   -168.65429    4036.1919    -4367.403   -13345.062    186.68197 
    3350    40.586577    40.586577    40.586577   -9.0566859   -69.573038    4136.5265   -4272.3598   -16.305688     4189.388   -4218.6179    58.708669    4264.9739   -4142.9393    -13343.41    184.64018 
    3400    40.584833    40.584833    40.584833    -4.464904   -169.79656    4038.0691   -4372.7414    46.672382    4254.9318    -4154.804    109.72947    4316.2615   -4091.7983   -13346.346    191.46455 
    3450    40.585451    40.585451    40.585451    9.8032381   -98.559471    4109.2921   -4300.3849    71.647379    4280.7064   -4130.7806    56.321806    4263.2304   -4142.6724   -13344.024    188.12534 
    3500    40.587697    40.587697    40.587697   -73.255431   -198.59139    4009.8817   -4397.8912   -60.277768     4145.502    -4257.738    39.102863    4243.4355   -4158.9961   -13344.644    190.47515 
    3550    40.586958    40.586958    40.586958    -56.96485   -70.538578    4138.3092   -4274.7334    6.9900731    4214.0442   -4193.1861   -107.34605    4100.5881   -4308.0638   -13342.497     187.4769 
    3600    40.585183    40.585183    40.585183    109.67337    96.750394    4308.1124   -4108.3015    58.529928    4271.2129   -4147.1808    173.73977    4383.3055   -4027.2877   -13342.391    188.41229 
    3650    40.586887    40.586887    40.586887   -3.9723187   -11.668849    4199.7888   -4211.2313   -45.333257    4162.2719   -4246.8186    45.085149    4253.1268   -4155.6023   -13342.044    188.88701 
    3700    40.588496    40.588496    40.588496   -27.142131   -83.336603    4121.3221   -4281.9325   -12.131481    4193.8443   -4212.7292    14.041689    4219.5839   -4184.6082   -13342.511    190.95338 
    3750    40.588371    40.588371    40.588371   -6.0911329    43.936973    4249.4465   -4153.0283   -56.088694    4149.0118   -4255.1793   -6.1216783    4198.9946   -4203.5596   -13342.317    191.72699 
    3800    40.587518    40.587518    40.587518    21.179747   -96.321442    4112.6679    -4297.594    156.68462    4365.7768   -4044.4984    3.1760619    4209.4325    -4198.172    -13342.31    192.86572 
    3850    40.588168    40.588168    40.588168    103.71552    51.378646    4260.5922   -4147.7775    75.437151    4285.1326   -4125.5059    184.33078    4395.5432    -4014.929   -13339.435    188.43341 
    3900    40.590071    40.590071    40.590071   -61.991803    41.084916    4246.3157   -4160.4777   -163.63867    4043.3979   -4363.9301   -63.421652    4141.5235   -4262.8776   -13340.244    191.15887 
    3950     40.58905     40.58905     40.58905    26.629811   -116.89505    4090.2951    -4318.096    111.68117     4318.837   -4089.8328    85.103306    4292.7221   -4115.5691   -13340.459    192.71663 
    4000     40.58814     40.58814     40.58814    64.030856    18.996702    4228.0271   -4182.9274    37.882754    4247.0406   -4166.5188    135.21311    4342.7169   -4064.9634   -13340.476    193.89746 
    4050     40.58928     40.58928     40.58928    51.730888    26.058107    4232.0732   -4176.2059    48.279046    4257.9647   -4153.0955    80.855511    4284.8956   -4120.8362   -13339.217    192.61086 
    4100    40.591447    40.591447    40.591447    -69.41407   -80.629256    4123.1973   -4280.1274   -72.506139    4132.3915   -4273.2396   -55.106814    4148.5997    -4252.884   -13342.948    200.98044 
    4150    40.591167    40.591167    40.591167     -59.3496   -170.66274    4040.2642   -4371.7893   -23.297654    4185.2544    -4224.418    15.911595    4223.8887   -4181.0401    -13338.58    193.66416 
    4200    40.589402    40.589402    40.589402    126.45049    102.31182    4313.2563    -4102.587    28.361074     4238.576   -4174.5941    248.67858     4455.784   -3953.6398   -13337.074    191.89142 
    4250    40.590375    40.590375    40.590375   -5.8786185    -95.14102    4110.6996   -4295.1778    71.464313    4276.6132   -4131.1642    6.0408519    4211.4508   -4194.4152   -13339.822    198.35283 
    4300    40.592312    40.592312    40.592312   -99.932489   -134.35608    4071.4299    -4331.494   -92.003546    4114.6125   -4291.8105   -73.437843    4131.0246   -4271.1288   -13339.728    199.31371 
    4350    40.591432    40.591432    40.591432    30.669897   -17.453823     4189.518   -4217.3653    116.38325     4322.876   -4083.2363   -6.9197307    4199.5623   -4207.3086   -13337.239    195.64072 
    4400    40.590868    40.590868    40.590868    6.1809803   -68.690877    4135.8536   -4268.5425    32.701826    4238.8574   -4166.0086    54.531992    4260.6275   -4144.5031   -13340.043     202.2069 
    4450    40.592123    40.592123    40.592123   -2.7294806    31.335042    4237.9282   -4168.0251   -35.521345    4170.6079   -4237.0431   -4.0021387    4203.9815   -4202.0201   -13337.875    199.15199 
    4500    40.593642    40.593642    40.593642   -65.462705    36.313648    4243.3183   -4161.6803   -97.154892     4109.364   -4294.4167   -135.54687    4068.9409   -4334.4532    -13337.41     199.3838 
    4550    40.592338    40.592338    40.592338   -64.277171   -161.69941    4043.1586   -4361.6434   -86.840811      4121.03   -4286.6339    55.708711    4262.3393   -4142.5245   -13338.207    202.07086 
    4600    40.590278    40.590278    40.590278     249.1077    320.61637    4528.8834    -3880.394    284.38178    4495.6326   -3916.6456    142.32493    4353.7602    -4060.201   -13335.472    197.91016 
    4650    40.594313    40.594313    40.594313   -36.483052   -43.388388    4160.3987   -4240.2319     7.304162    4212.1715    -4191.834   -73.364929    4130.4513   -4270.6572   -13336.259    200.57068 
    4700    40.596271    40.596271    40.596271   -162.12355   -160.59482     4041.192   -4356.8154   -175.19352    4029.5397   -4373.3984   -150.58232    4052.3849    -4348.424   -13336.155    201.50807 
    4750    40.592916    40.592916    40.592916    73.064448    98.496599    4305.6298   -4101.5214    218.68878    4426.0154   -3982.6153   -97.992039    4106.4717   -4296.4977   -13336.665     203.6226 
    4800    40.592243    40.592243    40.592243    93.558524    177.60258    4382.4277    -4020.731   -87.323114    4121.7165   -4288.9682    190.39611    4396.8298   -4006.5332   -13336.604    204.63746 
    4850    40.595451    40.595451    40.595451    4.2171739   -108.36622    4097.1732   -4304.9663    56.758562    4261.6697   -4140.8866    64.259175    4271.0961    -4134.028   -13334.982    202.63372 
    4900     40.59738     40.59738     40.59738   -207.49532   -38.513481    4163.8417     -4232.89   -236.77389    3967.5716   -4433.9603   -347.19859    3860.2126   -4542.9203   -13335.657    205.06988 
    4950    40.592949    40.592949    40.592949    160.16595    79.901741    4287.4359   -4119.9258    153.84852    4361.4879    -4045.941    246.74758    4455.6261   -3957.0742   -13333.532    202.08895 
    5000    40.593071    40.593071    40.593071    183.41074     268.5787    4475.6709   -3931.3614     243.1868    4451.2198   -3955.6537    38.466717    4244.5185   -4165.1889   -13334.242    204.58527 
    5050    40.598517    40.598517    40.598517   -115.69735   -166.07939    4034.7071   -4359.6995     -169.547    4037.4043   -4367.2379   -11.465649    4191.8113   -4206.7027   -13334.019    205.27643 
    5100     40.59878     40.59878     40.59878   -111.70343    -8.370906    4194.6821   -4205.4049   -166.12906    4035.8034   -4364.8428   -160.61033    4041.9086   -4355.6518   -13332.452    203.37832 
    5150    40.594255    40.594255    40.594255    96.931121    101.97383    4307.4146   -4096.6473    87.628943    4290.7707   -4112.6869    101.19059    4307.8868    -4096.435   -13334.964    209.35602 
    5200    40.594043    40.594043    40.594043    196.29774    273.67141     4480.588   -3923.8715    221.69784    4428.3339   -3973.6355    93.523963    4301.0552   -4103.9975   -13335.021    210.58986 
    5250     40.59947     40.59947     40.59947   -89.380203   -116.97376    4083.6785   -4311.9319   -109.49403    4095.5276   -4306.9517    -41.67282    4162.5344   -4235.6367   -13330.257    202.50162 
    5300    40.599859    40.599859    40.599859   -145.25531   -136.63669     4065.162   -4331.3813   -209.45351    3994.0546   -4404.2348   -89.675735    4112.1824   -4285.0128   -13332.957    208.84095 
    5350    40.595213    40.595213    40.595213    222.90062    257.82359    4463.1582   -3939.3988    316.73027    4522.7399   -3883.9544    94.147998    4299.5925   -4105.5738   -13332.065    208.23568 
    5400    40.596174    40.596174    40.596174    152.99394    182.46696     4387.432   -4014.8952    168.26953    4373.6024   -4032.2909    108.24535    4312.7514   -4091.3009   -13331.528    208.31029 
    5450    40.601169    40.601169    40.601169   -137.60144   -286.80303    3914.5156   -4484.8456   -30.046473    4173.1155   -4226.4609   -95.954809    4106.2912   -4291.6459   -13330.969    208.33875 
    5500    40.601195    40.601195    40.601195   -223.23281   -155.64611    4044.3267   -4350.4685   -294.77355    3906.9272   -4489.4503   -219.27877    3981.1165   -4414.3981   -13333.433    214.21786 
    5550    40.595615    40.595615    40.595615    182.19163    236.97313    4441.5415    -3962.007    219.29512    4424.8403   -3978.7798    90.306631     4296.372   -4105.6506   -13332.625    213.77091 
    5600     40.59647     40.59647     40.59647    157.71549    95.081188    4300.5132    -4102.055    126.56426    4333.5795   -4073.3102    251.50101    4460.8091   -3945.1914    -13331.02    211.77575 
    5650    40.602086    40.602086    40.602086   -122.48126   -162.13077    4043.6686   -4356.2669   -127.35932     4077.187   -4323.7625   -77.953682    4125.3291   -4276.5178   -13328.959    208.89658 
    5700    40.602031    40.602031    40.602031   -129.57349   -144.97713    4055.0592   -4338.0816    -92.19506    4108.6146   -4284.9714   -151.54828    4050.2022   -4347.4378   -13330.973    213.90323 
    5750    40.597351    40.597351    40.597351    249.95841     130.2933    4336.1041   -4067.0562    256.42866    4460.6245   -3942.8433    363.15327    4570.4395   -3833.3348   -13329.355    211.87752 
    5800    40.599001    40.599001    40.599001    81.368288    70.461749     4275.396   -4126.2402    220.52608     4422.928    -3976.153   -46.882963    4156.3694   -4246.9476    -13329.51    213.28364 
    5850    40.603186    40.603186    40.603186   -204.96413   -200.81552    3998.4236   -4397.3282   -191.63639    4011.6976    -4388.504   -222.44049    3978.0535   -4417.8441   -13330.974    217.21937 
    5900    40.602446    40.602446    40.602446   -126.97389   -248.41884    3956.3982   -4444.4152   -16.958909    4190.6589   -4210.0506   -115.54392    4088.5376    -4310.936    -13329.54    215.52932 
    5950    40.598403    40.598403    40.598403     257.9828    272.70332    4479.0663   -3925.1899    348.64877     4553.758   -3849.8893    152.59632    4358.8847   -4046.4023   -13327.614    212.91421 
    6000     40.60021     40.60021     40.60021    86.846298    101.33594    4304.5377   -4095.1158   -18.435667    4188.0591   -4218.6541    177.63862    4382.4209   -4019.7418   -13327.324    213.44455 
    6050     40.60381     40.60381     40.60381     -147.965   -193.76594     4006.807   -4388.3709   -73.546053    4125.5503   -4267.9291   -176.58301    4023.5584   -4371.7965   -13330.172    220.05867 
    6100    40.602318    40.602318    40.602318    -26.95951    24.115571    4224.6986   -4174.7626    -126.5007    4078.1827    -4323.581    21.506596    4226.0789   -4175.8789   -13327.624    216.21915 
    6150    40.600005    40.600005    40.600005    91.858136   -57.062472    4146.3996   -4253.9988     204.7372    4406.8711   -3993.5284    127.89968     4334.081   -4067.0781   -13329.971    221.84627 
    6200    40.601871    40.601871    40.601871     18.81411    18.213485    4222.4825   -4177.7991    68.835547    4274.7039   -4127.0525   -30.606703    4174.0596   -4229.4711   -13326.581     216.3745 
    6250    40.604737    40.604737    40.604737   -124.00793   -72.865587     4127.566   -4264.5277   -231.27249    3970.1228   -4425.4686   -67.885715    4135.8742   -4262.5436    -13327.32    218.88695 
    6300    40.603226    40.603226    40.603226    38.479186    -71.27144    4130.7547   -4266.7561     210.4996    4410.5391    -3983.849   -23.790601    4176.5095   -4219.4978   -13327.339     220.0188 
    6350    40.602348    40.602348    40.602348    53.655171    168.57174    4368.8178   -4029.1186   -65.580559    4138.5765   -4261.3869    57.974335    4259.8366   -4138.0295   -13327.803    222.00053 
    6400    40.604389    40.604389    40.604389   -55.165601   -243.02272    3960.8712   -4438.7871    81.803234    4286.8676   -4114.0774   -4.2773159    4197.4624   -4200.2647    -13327.19    221.89227 
    6450    40.605242    40.605242    40.605242   -103.23012   -18.394609    4182.2441   -4213.0113   -201.09066    4000.9808   -4398.1961   -90.205083    4117.1335   -4286.6248   -13326.925    222.45568 
    6500    40.603815    40.603815    40.603815    39.068389   -146.98714    4058.2746   -4342.7204     -28.4868    4175.7732   -4222.0569    292.67911    4498.1266   -3903.8411   -13326.809    223.30103 
    6550     40.60387     40.60387     40.60387    22.403565    29.280286    4235.0838   -4165.7948    75.786435    4279.9811   -4119.7307   -37.856025    4168.4872   -4232.9034   -13324.708    220.30764 
    6600     40.60543     40.60543     40.60543    36.934272   -27.131059    4175.6427   -4220.5493    31.251669    4236.3859    -4164.695     106.6822     4306.986   -4087.1255   -13325.152    222.24729 
    6650    40.606492    40.606492    40.606492    27.935899   -38.026677    4163.9387   -4232.6615    291.58289    4493.2617   -3902.2985   -169.74852    4031.2367   -4366.1374   -13323.272    219.68455 
    6700    40.605902    40.605902    40.605902   -2.8302171   -32.479587    4167.2854   -4226.6463   -15.290284    4184.3878   -4210.3256    39.279221    4240.0105   -4155.0167   -13325.483    225.03079 
    6750    40.605041    40.605041    40.605041    116.28823    11.166754    4212.3502   -4185.4587    118.66357    4321.6408   -4078.5261    219.03438    4421.6255   -3978.6588     -13324.7    224.58162 
    6800    40.606317    40.606317    40.606317   -94.135085   -116.06994    4082.2246    -4312.084   -53.083775    4150.8118   -4250.6148   -113.25154    4090.5055   -4310.8223   -13324.612    225.46738 
    6850    40.606909    40.606909    40.606909   -131.72414   -177.87527    4021.4328   -4371.7013   -112.67255     4093.589   -4306.1064   -104.62461    4097.0876   -4299.3846   -13327.361    231.83937 
    6900    40.606457    40.606457    40.606457    38.770044   -42.543621    4162.0173   -4235.6017    139.77117    4343.3383   -4054.9389    19.082584    4221.0672   -4173.7292    -13323.81    226.02987 
    6950    40.607088    40.607088    40.607088    -35.87355   -57.864929    4142.8148   -4248.6433   -99.363756    4100.0153   -4294.7726    49.608035    4249.1127   -4142.5348   -13325.976    231.28561 
    7000    40.607798    40.607798    40.607798   -21.517973   -27.074967    4174.8459   -4224.7674    68.888779     4272.701   -4128.2396   -106.36773       4097.2   -4301.0806   -13321.758    224.17335 
    7050    40.608361    40.608361    40.608361   -85.333283   -62.294957    4138.9427   -4254.7312   -78.471956    4124.1319   -4273.6438   -115.23294    4085.0361   -4309.2868   -13324.227    229.99186 
    7100    40.607551    40.607551    40.607551  -0.32340728   -15.680349    4183.4776   -4208.2567    51.728357    4253.8496   -4142.5486    -37.01823    4165.2553   -4231.0496   -13323.223    229.10019 
    7150     40.60782     40.60782     40.60782    20.921777    45.317835     4244.499   -4148.4601   -55.509065    4147.8428   -4248.3586    72.956561    4274.4871   -4121.8101   -13323.207    230.11782 
    7200    40.609482    40.609482    40.609482   -77.821672   -101.91746    4096.6361   -4292.0903    4.9611119    4204.8395   -4187.4231   -136.50867    4068.3178   -4329.4363   -13323.495    231.72021 
    7250    40.609913    40.609913    40.609913    50.433017   0.56460385    4201.9134   -4189.3375    75.008988    4275.6057   -4117.2685     75.72546    4275.2125   -4118.5952   -13321.183    228.29296 
    7300     40.60956     40.60956     40.60956    -69.90714   -13.571925    4185.2399   -4206.3063   -179.09254    4025.1187   -4373.8207   -17.056953     4185.653   -4209.4288   -13321.826    230.56804 
    7350    40.608273    40.608273    40.608273    147.86894    124.22491    4328.9239    -4069.353    181.66507    4385.4586   -4017.1455    137.71684     4338.672    -4058.411   -13319.822    227.72576 
    7400     40.61072     40.61072     40.61072   -38.902497   -22.541514     4177.992   -4216.9654   -63.916036    4135.0251   -4260.6128   -30.249939    4170.6707   -4223.4615   -13321.343    231.69891 
    7450      40.6122      40.6122      40.6122   -125.41163   -226.57028    3970.7461   -4414.3522    -33.61997    4167.0795   -4219.5686   -116.04465     4077.977   -4308.1656   -13322.895    235.72868 
    7500    40.610108    40.610108    40.610108   0.23229987   -85.457416    4114.6764   -4277.6531    5.8911509     4205.808   -4188.1577    80.263165    4280.2032   -4111.1448   -13321.055    233.20319 
    7550    40.608593    40.608593    40.608593    216.78304    152.03962    4355.1903   -4043.5618    265.65517    4470.4359   -3928.5071    232.65434    4438.2509   -3961.3736   -13319.725    231.64868 
    7600    40.612333    40.612333    40.612333   -46.447022   -71.347699    4126.2435   -4262.2713    11.081953    4209.1782   -4180.8348    -79.07532    4120.0657    -4268.799    -13319.66    232.54909 
    7650    40.614101    40.614101    40.614101    8.5688691   -63.097679    4135.2101   -4251.6013    126.74828    4327.4148   -4064.2762   -37.943999    4161.3761   -4230.4908   -13317.293     228.9811 
    7700    40.612387    40.612387    40.612387   -98.768505   -57.973541    4137.9479   -4247.2542   -144.42907    4054.7188   -4339.6395   -93.902904    4105.9598    -4284.896   -13319.588    234.44054 
    7750    40.607968    40.607968    40.607968    199.50031    202.77634    4405.4177   -3992.5561    254.41477    4457.0876   -3942.7266    141.30983    4338.9442   -4053.9893   -13320.441    237.10839 
    7800    40.611213    40.611213    40.611213    10.113906    81.539417    4279.0242    -4109.861    -64.43268    4138.7006   -4259.6262     13.23498    4214.8851   -4179.2521   -13320.135    237.51591 
    7850    40.615802    40.615802    40.615802    -190.8177   -123.93483     4072.289   -4312.8626   -155.49397    4045.3789   -4347.1463   -293.02431    3905.3514   -4484.5354   -13316.958    232.37563 
    7900    40.614071    40.614071    40.614071   -62.814506    -179.3342    4017.0185   -4369.0441   -47.023971     4152.681   -4239.0246    37.914647    4237.6887   -4153.6289   -13319.654    238.59408 
    7950    40.610522    40.610522    40.610522     61.91862    100.38714    4301.2121   -4095.0872    136.28653    4339.8355   -4057.8546   -50.917809    4149.4127   -4245.3736   -13320.447    241.13365 
    8000    40.612416    40.612416    40.612416    54.480615    36.677358    4239.6332   -4158.2747    96.889371     4302.106   -4095.4361    29.875117    4234.2423    -4159.919   -13318.108    237.59574 
    8050    40.616739    40.616739    40.616739   -201.42892   -220.49972      3976.21   -4407.5006   -266.56184    3931.1768   -4457.0082   -117.22521    4080.0026   -4307.1202   -13317.484     237.3978 
    8100    40.613917    40.613917    40.613917   -29.516087   -62.473189    4136.9796     -4253.73    8.6103831    4208.9966   -4182.7992   -34.685456    4161.8506   -4225.7914   -13318.824    240.98117 
    8150    40.611079    40.611079    40.611079    233.41268     250.2191    4453.0166   -3942.9072    199.26147    4403.0131   -3996.1442    250.75748    4454.7719   -3941.3713   -13316.499    237.46563 
    8200    40.615557    40.615557    40.615557   -73.482497   -143.76325    4052.7521   -4333.0161    121.83238    4320.4523   -4067.0743   -198.51662    3998.1955   -4388.2208   -13318.206    241.75524 
    8250    40.618041    40.618041    40.618041   -99.554299    28.475224    4226.8754   -4161.8858   -164.46411    4036.3901    -4356.401   -162.67401    4034.0714   -4352.0915    -13314.28    235.13872 
    8300    40.614975    40.614975    40.614975    28.031927   -144.03934    4053.7806    -4336.008    205.83186     4405.441   -3986.8433    22.303256     4220.888   -4168.8927   -13316.211    239.85171 
    8350    40.611951    40.611951    40.611951    171.74974    263.70158    4465.7214   -3927.2741    140.68604    4343.5579   -4051.8059    110.86162    4312.8585   -4085.4538   -13316.616    241.61323 
    8400    40.614453    40.614453    40.614453    143.17086  -0.11537715    4199.8161   -4193.9073    138.95256    4341.1343   -4055.9288     290.6754    4488.8114   -3902.3885   -13313.361    236.28983 
    8450    40.618979    40.618979    40.618979   -283.99859   -222.64095    3971.1218   -4412.5019   -181.34927    4015.8062   -4372.1646   -448.00554    3750.6953   -4638.0056   -13317.732     245.7156 
    8500    40.615661    40.615661    40.615661   -29.771671   -69.689884    4127.5929   -4262.5899    -99.93417    4103.2284   -4289.2393    80.309039    4278.8661   -4110.1153    -13315.56    242.47643 
    8550     40.61192     40.61192     40.61192    275.83701    274.34212    4478.0216     -3917.03    321.67168    4521.8929   -3876.1503    231.49724     4431.239   -3963.0272   -13315.123     242.6027 
    8600    40.616597    40.616597    40.616597   -150.21221    -307.5939    3892.0449   -4497.9189    22.330695    4223.6915   -4166.9707   -165.37342    4031.7994   -4352.9641   -13317.089    247.35868 
    8650     40.61938     40.61938     40.61938   -70.949903   -188.44591     4008.899   -4376.6838   -23.889919    4174.5175   -4213.4478  -0.51388247    4196.9519   -4188.2303   -13313.832    242.01927 
    8700    40.618511    40.618511    40.618511   -118.97868   -41.616921    4158.9769   -4228.4036   -90.616415    4110.6044   -4280.0341   -224.70272    3971.6063   -4414.7012   -13314.804    244.84642 
    8750    40.615356    40.615356    40.615356    184.70792    24.093517    4222.6496   -4169.3001    267.47839     4468.248   -3925.7916    262.55184    4462.7967   -3926.3717   -13312.664    241.65958 
    8800     40.61578     40.61578     40.61578    49.124551    51.019324    4249.1662   -4143.5047    85.170428    4286.0217   -4111.8098    11.183902    4210.4156   -4183.1352   -13313.827    244.86054 
    8850    40.617841    40.617841    40.617841   -30.004023   -14.969104    4182.2753   -4207.7501    14.218623    4212.3269   -4177.3431   -89.261589    4109.0377   -4279.6411    -13314.23    246.57563 
    8900    40.618905    40.618905    40.618905   -196.67237   -69.287145    4128.6541   -4258.4199   -267.14581      3929.24   -4459.0345   -253.58416    3942.3344   -4442.1329   -13315.482    249.94202 
    8950    40.616633    40.616633    40.616633    113.56155     17.70615    4218.0432   -4176.8672    205.62112      4405.73   -3984.2127    117.35737    4316.9737   -4073.6332   -13312.174    244.47327 
    9000    40.617981    40.617981    40.617981   -5.3782871   -96.290796    4100.8609   -4287.3911    102.10605    4303.4082   -4087.4755   -21.950111    4173.1961   -4212.6087   -13315.903    252.62496 
    9050    40.620148    40.620148    40.620148   -48.644761    26.770246    4226.1509   -4158.2068   -95.187336    4101.5178   -4286.3954   -77.517195    4125.8205   -4265.2611   -13311.498    245.02404 
    9100    40.620057    40.620057    40.620057   -49.592958   -174.28861    4021.8669    -4363.734   -33.121107    4167.0354   -4218.0404    58.630846    4255.8108   -4129.0667   -13312.283    247.47347 
    9150     40.61758     40.61758     40.61758    150.26405    225.47259    4424.9778   -3963.5541    101.73932    4303.2419   -4089.2188    123.58025    4324.6108   -4067.1734   -13310.095    244.16108 
    9200     40.61774     40.61774     40.61774    72.268147    41.329583    4242.0678   -4148.2853    38.217779    4235.9228   -4152.3687    137.25708    4335.9517   -4054.0743   -13311.689    248.16871 
    9250    40.619622    40.619622    40.619622   -84.083887   -149.79255    4047.7682   -4337.5395    -69.87264    4128.0532   -4258.2834   -32.586469    4164.4096   -4220.8532   -13311.349    248.42467 
    9300    40.619538    40.619538    40.619538    119.50181    125.80622    4320.4687   -4065.0954     23.83651    4222.5767   -4166.8124    208.86271    4406.2014   -3981.5933   -13311.853    250.31265 
    9350    40.620623    40.620623    40.620623   -23.026387   -212.93313    3984.3618   -4402.6998    47.062092    4246.6494   -4143.8382    96.791877    4295.6547   -4091.0504   -13310.946    249.45277 
    9400    40.621651    40.621651    40.621651   -110.30374    55.349363    4255.4363   -4131.0259   -308.53971    3888.9652    -4497.871   -77.720873    4118.3229   -4267.7751    -13310.94    250.34293 
    9450    40.620796    40.620796    40.620796    119.80518    22.147835    4220.6741   -4169.2172    168.09362    4370.2812   -4023.3415    169.17409    4367.0219   -4022.5481   -13308.678    246.86507 
    9500    40.621436    40.621436    40.621436   -77.654363   -94.095478    4102.6946   -4281.8221   -169.62014    4025.4378   -4360.0868    30.752526    4229.5566   -4155.3725   -13312.361    254.89143 
    9550    40.620956    40.620956    40.620956    80.176844   -81.439503    4115.3852   -4270.5253    171.10941    4367.2648    -4019.821    150.86063    4347.1311   -4040.2113   -13310.642     252.4677 
    9600    40.623082    40.623082    40.623082   -100.37971   -50.707541     4146.853   -4236.1707   -83.798674    4114.3927   -4271.2869   -166.63292    4030.8635   -4354.5167   -13311.014    254.06807 
    9650     40.62368     40.62368     40.62368   -96.708169   -111.18675    4087.3501    -4297.648   -146.71085     4049.486   -4336.0261   -32.226906    4162.3608   -4218.0584   -13309.976    252.94982 
    9700    40.621786    40.621786    40.621786    25.766695   -101.68196     4095.302   -4289.2667    193.85198    4391.1421   -3993.1197   -14.869939    4183.9587   -4203.5702   -13311.217    256.23031 
    9750    40.621617    40.621617    40.621617    63.783347    45.223363    4243.1692   -4144.5518    18.202269    4222.2817   -4171.3299    127.92441    4322.8344   -4062.4378   -13309.015    252.84887 
    9800    40.623567    40.623567    40.623567    30.108544   -256.64207    3942.1245    -4446.654    218.38384    4415.8048   -3967.8064    128.58387    4320.8436   -4061.0334   -13308.817     253.3361 
    9850    40.625018    40.625018    40.625018   -209.09391   -204.87145    3988.9877   -4391.3365   -333.00963    3863.5482   -4521.8335   -89.400642    4104.0574   -4273.2413    -13310.94    258.31262 
    9900    40.622237    40.622237    40.622237    148.31384    127.49748    4326.8921   -4061.0284    211.31408    4410.5425   -3979.1207    106.12996    4306.9512   -4084.2856   -13307.278    252.08567 
    9950    40.623383    40.623383    40.623383     1.582774    69.834119    4265.4836   -4117.6912   -163.62004    4031.0488   -4352.0301    98.534248    4296.2752   -4083.9648   -13310.401     258.9926 
   10000     40.62607     40.62607     40.62607   -49.067764   -32.888182    4162.5282   -4217.8481    31.781308    4228.6438    -4152.341   -146.09642     4050.767   -4332.9477   -13306.221    251.76572 
   10050    40.625601    40.625601    40.625601   -111.26613   -260.75667     3935.317   -4444.7363   -93.751589    4102.1649   -4281.2727    20.709871    4213.4998   -4165.9759   -13309.037    258.07207 
   10100     40.62165     40.62165     40.62165    194.77386    28.814092    4230.6174   -4158.8967    505.48434    4704.6651   -3684.3307    50.023147    4247.8873   -4137.5479   -13308.396    257.68142 
   10150    40.623957    40.623957    40.623957    148.65111    67.804204    4262.7744   -4123.4423    36.673761    4237.3623   -4151.9339    341.47535    4539.1188    -3846.093   -13305.783    253.47093 
   10200    40.629076    40.629076    40.629076   -266.31898   -507.92354    3685.6429    -4691.852   -161.58297    4028.9354   -4346.2655   -129.45043    4065.0413   -4310.3094     -13308.7    259.95316 
   10250    40.626239    40.626239    40.626239    139.51768    308.09578    4504.2916   -3878.6833    15.774635    4212.4679    -4169.513    94.682613    4290.5113   -4097.0162    -13303.86    251.42496 
   10300    40.624167    40.624167    40.624167     -32.4434   -82.799664    4115.6138   -4272.6332   -62.479318    4132.9408    -4251.684    47.948784    4242.8052   -4137.3349   -13309.107    262.41275 
   10350    40.623612    40.623612    40.623612     175.4361    204.33298    4402.2765   -3986.3168      258.726    4460.3505   -3928.1426     63.24931    4258.7345   -4124.6223   -13305.282     255.8423 
   10400    40.627102    40.627102    40.627102   -209.12009   -222.42107     3969.152   -4408.8634   -245.20351    3949.2102    -4433.625   -159.73569    4034.1332   -4341.8189   -13309.194    264.24465 
   10450    40.626953    40.626953    40.626953   -37.296466   -132.87675    4061.9967   -4316.5394     82.48944    4276.7208   -4102.8118   -61.502083    4136.0638   -4248.2273   -13306.088    259.05202 
   10500    40.625844    40.625844    40.625844     3.606221    -58.26973    4139.7761   -4242.6736   -86.758565    4111.5516   -4274.1237    155.84696    4351.9169   -4030.9243   -13306.912    261.45961 
   10550    40.625595    40.625595    40.625595    111.78184    112.94411    4309.3207   -4077.1383    309.47861    4509.3943   -3878.5167   -87.077194    4110.2461   -4274.1751    -13304.68    257.95671 
   10600    40.628278    40.628278    40.628278   -8.4171661     70.80722    4267.0134   -4115.7725   -24.293744    4171.0203   -4209.9028   -71.764974    4122.2726    -4257.679    -13304.87    259.13252 
   10650    40.629525    40.629525    40.629525    -76.00165    29.818683    4221.4852   -4155.1582    -84.45566    4107.1622   -4268.5606   -173.36797    4019.7381   -4356.4555   -13304.625    259.46901 
   10700    40.627011    40.627011    40.627011    47.009139   -16.427123    4177.2518   -4202.0801    162.61651     4354.502   -4022.6556   -5.1619706    4187.8751   -4191.0087   -13306.004    262.94252 
   10750    40.625683    40.625683    40.625683    101.81504    128.92511     4325.165   -4062.9736    169.09554    4366.1535   -4021.3345    7.4244807    4204.2311   -4183.6434   -13304.619    261.05812 
   10800    40.628883    40.628883    40.628883   -57.759356   -232.59692    3964.2722    -4418.054   -42.288746    4152.3119   -4228.9893     101.6076    4296.6382   -4080.9863   -13305.472    263.48864 
   10850    40.630171    40.630171    40.630171   -214.60569     -342.753    3848.9197   -4528.2512   -101.34117    4092.3668   -4287.0365    -199.7229    3992.6371   -4379.4098   -13305.818    264.95585 
   10900    40.625775    40.625775    40.625775    151.63751    78.462207    4276.9219   -4110.2683    158.15176    4355.5603   -4030.1035    218.29857    4414.5346   -3968.0339   -13303.888    262.00642 
   10950    40.625825    40.625825    40.625825    156.99311    351.87784    4547.8649   -3834.8648    28.857647    4224.8401   -4159.3054    90.243849    4286.9155   -4096.8964   -13304.334    263.65212 
   11000    40.629465    40.629465    40.629465   -4.6147152   -257.73613    3936.2417   -4441.9611    122.77483     4315.323   -4061.9218    121.11715    4312.6768   -4066.2607   -13303.002    261.85318 
   11050    40.631044    40.631044    40.631044   -216.10871   -397.60634    3793.2584   -4583.6961   -158.54736     4035.293     -4341.93   -92.172443    4100.0344   -4277.1736   -13305.477     267.4096 
   11100    40.628304    40.628304    40.628304   -8.2088922    -27.43093    4169.5337   -4210.2579   -7.8096948    4187.9515   -4193.3503    10.613949    4206.1123   -4173.1828   -13304.539    266.35772 
   11150    40.626833    40.626833    40.626833    47.524497   -24.750529    4170.1172   -4210.7013    171.35739    4369.1687   -4014.5271   -4.0333658    4190.4101   -4188.6968   -13304.416    266.89007 
   11200    40.628827    40.628827    40.628827    66.135866   -26.759252    4168.0123   -4211.1993    -54.27607    4145.1933   -4237.9881    279.44292    4475.2166   -3902.8661   -13302.796     264.5124 
   11250    40.631237    40.631237    40.631237   -205.72997   -313.74178    3881.2602   -4495.2384   -196.51809    3995.3794   -4381.7917   -106.93004    4087.0675   -4287.1896   -13303.694    267.01032 
   11300    40.627988    40.627988    40.627988    145.36804    303.85977    4500.3968     -3882.41    46.112924    4246.9854   -4138.7856    86.131426    4282.1838   -4102.0817   -13301.625    263.75624 
   11350    40.627598    40.627598    40.627598    123.42655    49.406004    4248.0093   -4136.9081     151.7312    4347.7123   -4037.1741    169.14245    4363.0231   -4014.5542     -13302.5    266.19717 
   11400    40.631013    40.631013    40.631013   -77.358293   -166.48749    4026.7253   -4348.3464    -50.58186    4144.3732     -4235.36   -15.005531    4180.7231   -4196.6734   -13302.024    266.01716 
   11450    40.632363    40.632363    40.632363   -19.472944    -90.11872    4101.0697   -4272.0578   -33.678407    4162.6478    -4216.232    65.378293    4255.0017   -4118.0057    -13300.91    264.60553 
   11500    40.630696    40.630696    40.630696   -3.0508462   -160.00149    4035.5033   -4341.7853    48.513397    4239.7292   -4137.3547    102.33555    4294.9596   -4079.4161   -13301.475    266.43476 
   11550    40.628804    40.628804    40.628804    126.34517    150.27522    4343.4362   -4034.7346    126.02328    4318.8245   -4060.0927    102.73703    4298.9422   -4082.4267   -13302.117    268.41079 
   11600    40.630261    40.630261    40.630261    73.233627   -189.57979    4004.6972   -4377.3831    117.34552    4310.3741   -4067.9836    291.93515    4484.8892   -3891.8262   -13300.928    266.82904 
   11650    40.634013    40.634013    40.634013   -181.24677   -102.18677    4087.8375   -4279.6063   -93.849952    4096.3241   -4274.8331   -347.70358    3842.6674   -4530.9022   -13302.663    270.90194 
   11700    40.633111    40.633111    40.633111   -58.957529   -187.11382    4004.4649   -4371.1107   -111.76711    4082.2019     -4298.35    122.00834     4310.536   -4063.9363   -13300.459     267.3539 
   11750    40.630416    40.630416    40.630416    24.711564   -45.483729     4146.347   -4232.1299    126.59345    4320.0238    -4059.558   -6.9750275    4187.4372   -4189.2765   -13302.282    271.58763 
   11800     40.63046     40.63046     40.63046    26.762155   -93.700409     4098.119   -4276.6215     19.32279    4212.5042   -4165.2822    154.66408    4344.7635   -4030.3062   -13302.153    272.05155 
   11850    40.633042    40.633042    40.633042   -87.038853   -104.27361    4086.8075   -4287.3978    -134.4311    4060.1555   -4317.0973   -22.411855    4173.1924   -4203.4746   -13300.574    269.69782 
   11900    40.633192    40.633192    40.633192   -79.570443    23.165684    4213.9495   -4156.1886   -28.753296     4162.589    -4213.832   -233.12372    3958.5012   -4418.7232   -13299.843    268.98867 
   11950    40.631173    40.631173    40.631173    118.26227     10.00073    4206.5206   -4174.9311    122.41582    4313.7056   -4061.4252    222.37025     4411.726   -3962.5867   -13301.134    272.18158 
   12000    40.632786    40.632786    40.632786   -78.056303    59.459661    4249.9452   -4125.1604   -129.93546    4063.3063   -4313.0433   -163.69311    4027.2063   -4345.9047   -13301.306    273.20595 
   12050    40.633253    40.633253    40.633253   -112.85073   -227.21485    3963.2253    -4409.014   -134.45662    4056.3252   -4316.8299    23.119281    4216.4308   -4157.6533   -13301.911    275.06268 
   12100    40.631762    40.631762    40.631762    74.823908    125.98572    4319.9319    -4057.717   -51.757588    4141.8433   -4237.2872     150.2436    4341.9815   -4033.7996   -13300.219    272.47072 
   12150    40.632564    40.632564    40.632564    51.699905    67.557455    4261.2047   -4113.5533    36.367176    4227.3103   -4147.2284    51.175083    4244.1746   -4131.4855   -13299.354    271.46837 
   12200    40.635215    40.635215    40.635215   -52.400902   -178.48675    4010.5532   -4362.1802   -65.642467    4125.5266   -4246.2491    86.926515    4278.7782   -4094.1309   -13298.614    270.70756 
   12250    40.635432    40.635432    40.635432   -130.77979   -126.65134    4066.0524   -4304.8497   -32.035334    4158.8903   -4213.4426   -233.65269    3954.9622   -4415.0128   -13301.017    276.02303 
   12300    40.632938    40.632938    40.632938    135.49607    51.613656    4244.2251   -4133.6189    68.905016    4262.9041   -4113.8597    285.96953    4479.6902   -3896.0161   -13298.193     271.2239 
   12350      40.6338      40.6338      40.6338    110.79204   -4.0624609     4186.127   -4187.2214    156.24311     4346.639   -4024.9343    180.19546    4372.2123   -4001.8055   -13298.862    273.17917 
   12400    40.636491    40.636491    40.636491   -84.226133   -156.34843    4032.5348   -4338.1212   -53.223318    4134.9929   -4233.5273   -43.106656    4145.6096   -4224.3029   -13298.516    273.16508 
   12450     40.63608     40.63608     40.63608   -105.43112   -113.94969     4077.269   -4296.8881    31.671273    4225.2673   -4149.9863   -234.01495    3954.8026   -4416.3527   -13299.057    274.85802 
   12500     40.63349     40.63349     40.63349    73.301941   -126.24504    4065.9255   -4306.7231     99.61075    4291.9131   -4086.3458    246.54011    4436.9263   -3934.7467   -13299.132    275.65091 
   12550    40.634765    40.634765    40.634765    108.36807    158.23465    4350.0575   -4023.5529    4.7940989    4196.7813   -4178.3987    162.07545    4351.8673   -4022.1907   -13297.624     273.3763 
   12600    40.638009    40.638009    40.638009   -209.13169   -344.18259    3843.5558   -4526.6737   -95.649934    4093.7948   -4277.4353   -187.56254    4003.2351   -4368.4866   -13298.598     275.8979 
   12650    40.635318    40.635318    40.635318    42.289504    47.830192    4237.9146   -4136.5141   -45.030418    4147.2071     -4225.77    124.06874    4315.9911   -4059.7377   -13299.196    277.68473 
   12700    40.634776    40.634776    40.634776    50.474438   -38.278257    4156.1335   -4219.2278    52.429299    4247.3405    -4128.305    137.27227    4328.5282   -4044.2975    -13298.83    277.60061 
   12750    40.637413    40.637413    40.637413   -54.674044    116.52329    4310.5766   -4062.2105   -89.556189    4100.0037   -4269.6585   -190.98924    4000.8159   -4367.8781   -13297.222    275.11887 
   12800    40.637637    40.637637    40.637637    17.392318    -212.4068    3980.9651   -4398.3159    113.15086    4305.3365    -4067.305     151.4329    4340.8172   -4027.2031   -13296.433    274.21775 
   12850    40.636444    40.636444    40.636444   -3.2089293    27.118558     4220.451   -4157.0529   -64.830864    4127.6465   -4250.2761    28.085518    4221.1531   -4154.0629   -13296.615    275.18459 
   12900    40.635496    40.635496    40.635496    112.85919   -16.130395    4173.7086    -4199.395    171.77843    4362.1015   -4011.1983    182.92953     4374.581   -4000.1965   -13296.632    275.83382 
   12950     40.63761     40.63761     40.63761    70.575063    60.800672     4249.162    -4120.632    54.946595    4244.5412   -4123.7915    95.977923    4287.0898   -4087.4318   -13296.897    276.95357 
   13000    40.639634    40.639634    40.639634   -170.17992   -259.99103    3928.4709   -4437.2519   -351.17303    3837.9539   -4529.0787    100.62431    4286.6927   -4079.3548   -13298.108    279.90085 
   13050    40.637291    40.637291    40.637291   -3.4885987   -69.042692    4125.3073   -4248.2286    144.65744    4336.1341   -4033.9746   -86.080541    4104.7209   -4267.8037    -13297.37    279.07051 
   13100    40.635236    40.635236    40.635236    285.64911    315.25233    4509.8504   -3871.3459    260.62272    4455.1919   -3925.7018    281.07229    4474.0524   -3900.4098   -13293.252    271.69647 
   13150    40.639057    40.639057    40.639057   -181.74363   -167.99126    4023.2175   -4345.3568   -151.01727     4038.469   -4333.7378   -226.22236    3963.0943   -4402.6924   -13298.159     281.7789 
   13200     40.63981     40.63981     40.63981    56.183701   -181.40784     4009.459    -4360.894    247.79395    4437.8968   -3932.5813      102.165    4289.3899   -4077.9931   -13294.232    274.76961 
   13250    40.638489    40.638489    40.638489   -86.426982   -235.51017    3950.6798   -4419.8611   -189.17544    4000.0381   -4372.8585    165.40466    4357.6646   -4016.3688   -13297.241    281.17201 
   13300    40.635856    40.635856    40.635856    92.943918    58.114107    4249.6016   -4125.6624    243.30267    4436.2803   -3938.6484    -22.58502    4169.3452   -4208.0897   -13296.341    280.00382 
   13350    40.637821    40.637821    40.637821   -11.807637   -71.060899    4120.6333   -4253.4293   -55.137929    4135.7813   -4236.2525    90.775916    4280.2337   -4088.9519   -13297.248    282.32932 
   13400    40.640089    40.640089    40.640089   -244.51189   -222.86359    3970.9078   -4402.2797   -325.95106    3865.2547   -4502.2943     -184.721    4002.4557   -4366.2219   -13296.377    281.21349 
   13450    40.637708    40.637708    40.637708    224.67057    299.08332     4491.377   -3884.6518    228.42859    4419.1285   -3953.2855     146.4998    4337.3736   -4033.0872   -13293.736    276.66879 
   13500    40.638508    40.638508    40.638508   -35.183139   -224.25489    3967.8726   -4406.4042   -23.668273    4161.9732    -4207.639    142.37375    4330.7685   -4035.3446    -13294.82     279.3269 
   13550    40.638004    40.638004    40.638004   -29.545736   -110.31045    4079.6324   -4292.6511    48.517033    4239.4149   -4131.6168   -26.843796    4160.8029   -4208.8659   -13296.986    284.07303 
   13600    40.637313    40.637313    40.637313    2.9985382    -20.30025    4166.2205    -4204.795   -156.28401    4041.2838   -4338.1406    185.57988    4376.0298   -3993.5648   -13296.215    283.12797 
   13650    40.638396    40.638396    40.638396   -14.068008   -114.53994    4078.0748   -4293.8753    18.101605    4208.6792   -4165.8027    54.234306    4247.4179   -4126.5138   -13294.578    280.50422 
   13700     40.63977     40.63977     40.63977   -24.028045   -31.566892    4158.3382   -4212.5469   -88.182613    4103.7737   -4269.5512     47.66537    4241.1742   -4133.3344   -13294.035    279.99381 
   13750     40.63924     40.63924     40.63924    52.050265    -17.10691    4174.9772     -4196.17   -89.977532    4105.9732   -4269.3568    263.23524    4452.9337   -3917.2595   -13293.941    280.34795 
   13800    40.638391    40.638391    40.638391    110.32958    153.57904    4345.7289   -4027.5175  -0.92167679    4187.7008   -4185.5056    178.33139    4371.7003   -4003.8135   -13292.726    278.53424 
   13850    40.638572    40.638572    40.638572     76.64713   -45.554201    4146.1446    -4227.548    116.22915    4304.9219   -4065.7248    159.26645    4348.3027   -4025.2393   -13294.325    282.15374 
   13900    40.640473    40.640473    40.640473     9.791836   -57.548615     4131.718   -4237.5106    19.475116    4208.1811   -4160.3043    67.449007    4253.8022   -4113.7389   -13293.875     281.8037 
   13950    40.642547    40.642547    40.642547   -155.24301   -131.91731    4054.2347   -4311.0406   -131.80256    4055.9737   -4312.3199   -202.00915    3985.7299   -4380.9853   -13295.158    284.80494 
   14000     40.64039     40.64039     40.64039   -35.655012   -332.61646    3857.2325   -4516.6921     52.87647    4244.3885   -4127.8742    172.77495    4363.8596   -4007.4771   -13293.769    282.62806 
   14050    40.638549    40.638549    40.638549    49.507167    87.248983    4278.6419   -4094.1743    4.9390984    4195.9097   -4174.6137    56.333419    4248.3955   -4125.2878   -13295.744    286.96311 
   14100    40.639947    40.639947    40.639947      2.72087    13.003139    4206.3259   -4167.1101   -31.598315     4158.085   -4212.1886    26.757785    4219.0714   -4150.4843   -13294.216    284.51509 
   14150    40.641101    40.641101    40.641101    30.233658   -3.9348283    4185.1082   -4184.2251    187.21131    4376.7324   -3990.5566   -92.575504    4094.8044    -4270.661   -13291.686    280.12516 
   14200    40.641083    40.641083    40.641083   -50.158484   -149.02153    4041.1104   -4329.3578   -41.156181    4148.7706   -4220.6551    39.702255    4226.4575   -4141.8004   -13294.162    285.40899 
   14250    40.641189    40.641189    40.641189    22.345014    12.646576    4203.6475   -4165.7362   -142.41608    4052.9726   -4319.5072    196.80455    4387.5374   -3983.8793   -13294.206    285.98202 
   14300    40.641404    40.641404    40.641404    104.07924    43.143855    4233.5389   -4135.9399    68.220708    4260.1438   -4116.1365    200.87317    4392.3616    -3978.719   -13290.024    278.38251 
   14350    40.641892    40.641892    40.641892    -1.845087   -72.708735    4119.0692   -4252.9644   -198.09654    3993.1756   -4375.2934    265.27002      4451.89   -3917.1716   -13293.086    284.79306 
   14400    40.641417    40.641417    40.641417   -36.180675   -153.97295    4040.0133    -4332.221   -44.451724    4141.3504   -4220.7161    89.882649    4277.0492   -4091.2231   -13295.188     289.3449 
   14450    40.640686    40.640686    40.640686    108.74009    143.41713    4334.3831   -4040.3339    101.92335    4292.2319   -4083.0671    80.879783    4272.5207   -4093.0916   -13291.498    282.67855 
   14500    40.643262    40.643262    40.643262   -14.583012    32.320591    4222.8089   -4146.5907   -48.607513    4142.2984   -4228.8294   -27.462113    4161.0744   -4207.3236   -13292.327    284.74998 
   14550    40.642986    40.642986    40.642986   -37.790055   -226.65181    3961.4516   -4408.1697     65.67136    4255.7456   -4113.6883     47.61028    4236.7193   -4130.2469   -13292.161    284.89494 
   14600    40.640718    40.640718    40.640718    64.243243    64.196799    4257.3764   -4118.4472   -6.1570565    4186.9131   -4187.3409    134.68999    4326.7643   -4046.6668   -13292.745    286.48662 
   14650    40.641474    40.641474    40.641474    18.583595    65.058129     4258.876   -4114.7148   -126.14258    4065.5194   -4309.0217    116.83524    4305.1571    -4065.653   -13292.072    285.64295 
   14700    40.643283    40.643283    40.643283   -80.770125     20.17634     4212.513    -4159.625   -145.49623    4044.8834   -4323.0474   -116.99048     4075.672   -4293.0798   -13293.395    288.65391 
   14750      40.6432      40.6432      40.6432    18.825638    12.131751    4205.1957   -4166.2174   -5.8742923    4185.1539   -4182.9173    50.219456    4240.1789   -4128.0097    -13291.05    284.57408 
   14800    40.641828    40.641828    40.641828    59.688144     13.38137    4203.1376   -4163.5574   -6.9829497     4185.231   -4188.4372    172.66601    4362.0899   -4007.2257   -13291.847    286.56654 
   14850    40.641895    40.641895    40.641895    66.260735    -31.36407    4156.9603   -4212.7511    59.560317    4254.8072   -4117.1313    170.58596    4359.2984   -4011.5344   -13291.946     287.1986 
   14900    40.644253    40.644253    40.644253    -137.8918   -28.810621    4157.7926   -4206.1756   -283.00416    3905.3219   -4462.8677   -101.86061    4087.3536    -4277.576   -13293.074    289.82247 
   14950    40.643903    40.643903    40.643903   -25.902299   -149.35746    4040.6875    -4327.097   -19.989706    4168.8456   -4194.1107     91.64027    4281.5008   -4085.8694   -13291.409    287.03537 
   15000    40.641649    40.641649    40.641649     121.2001    369.62337    4559.3506   -3808.4218   -105.35529    4085.1462   -4286.0433    99.332208    4289.3793   -4079.0979    -13291.13    286.92694 
   15050    40.640804    40.640804    40.640804    124.25808    130.95532    4321.9462   -4051.4262    266.91166    4457.6584   -3914.0284   -25.092751     4167.099    -4207.849   -13290.189    285.52842 
   15100    40.643721    40.643721    40.643721    68.421529    56.283599    4246.5061   -4122.3334    34.445267    4225.2878   -4145.5377    114.53572    4302.3278   -4064.0464    -13289.81    285.21211 
   15150    40.646227    40.646227    40.646227   -260.38134   -424.20211    3761.2195   -4600.8685   -211.45708     3975.674   -4389.9468   -145.48484    4038.5958    -4324.046   -13291.683    289.25668 
   15200    40.641762    40.641762    40.641762    130.30459    204.55067    4393.7443   -3977.7389    116.31639    4306.6244   -4066.0083    70.046715     4262.872   -4112.7248   -13290.562    287.49797 
   15250    40.641099    40.641099    40.641099    98.566659     46.09651    4235.4774   -4134.9951    79.674937     4270.392   -4101.7775    169.92853    4359.9153    -4009.716   -13292.078    290.84329 
   15300    40.644544    40.644544    40.644544   -118.84699    75.931577    4260.5015   -4102.7972   -140.47862    4047.9324   -4320.2878   -291.99393    3897.6302   -4470.0466   -13292.477    292.02294 
   15350    40.645904    40.645904    40.645904   -177.19528   -169.86276    4017.7424    -4345.933   -274.56886    3915.2562   -4451.1593   -87.154236    4099.6676   -4269.4578   -13291.589    290.70199 
   15400    40.643297    40.643297    40.643297    83.933268    152.76898    4343.2059   -4026.4738      41.9908    4231.2745   -4139.8334    57.040018    4249.1833   -4125.3471   -13289.785    287.61095 
   15450    40.643212    40.643212    40.643212   -47.128333    -3.393349    4184.8484   -4182.4611   -127.31612    4060.9075   -4306.9922   -10.675524    4175.4083   -4185.8229   -13293.994    296.15045 
   15500    40.644556    40.644556    40.644556   -10.913815    130.34848    4319.6689   -4048.0282   -50.513648    4139.3706   -4228.1532   -112.57628    4078.0343   -4294.0964   -13289.964    288.73837 
   15550    40.645592    40.645592    40.645592   -114.97909   -134.85099    4055.6789   -4313.1669   -47.571431    4139.7801    -4225.257   -162.51484    4028.4342   -4339.2518   -13290.329    289.82883 
   15600    40.643746    40.643746    40.643746    55.880874    222.32778    4409.5086   -3955.6729   -81.345277    4109.4182    -4259.845    26.660114     4214.941   -4151.3311   -13290.832    291.18802 
   15650    40.643304    40.643304    40.643304    147.72957    187.86622    4376.9651   -3996.1767    99.284361    4290.8642   -4081.2877    156.03812    4344.9622   -4023.7118   -13288.079    286.24089 
   15700    40.645435    40.645435    40.645435   -95.613541    108.29415    4297.2587   -4067.4024   -140.73087    4045.2548   -4319.9002    -254.4039    3929.5692    -4434.732   -13291.127    292.51058 
   15750    40.645221    40.645221    40.645221   -119.59063   -210.43333    3977.0571   -4385.6616     -83.1876    4101.5263   -4262.4382   -65.150955    4127.1225   -4244.5427    -13290.72    292.09127 
   15800     40.64282     40.64282     40.64282    128.44945    151.43527    4339.1701   -4025.9962   -10.250141    4182.4713   -4188.3065    244.16322    4433.4055   -3937.3113   -13290.004    291.06987 
   15850    40.643562    40.643562    40.643562    255.12946    184.87633    4377.6123   -3996.7066    204.18276    4396.1545   -3980.1957    376.32928    4566.1752    -3803.357    -13286.28     284.2209 
   15900    40.648933    40.648933    40.648933   -203.49251    -85.01199    4100.2941     -4262.23   -224.27456    3960.3365    -4401.255   -301.19097    3885.8368   -4477.1966   -13289.703    291.20079 
   15950    40.647235    40.647235    40.647235   -177.93799   -277.47371    3905.8622   -4456.2069   -130.23204    4055.7977    -4303.192   -126.10822    4058.8803   -4303.8706   -13291.204    294.46058 
   16000    40.641642    40.641642    40.641642    253.28201    245.03511    4437.3257   -3934.6675    116.57843    4308.4231     -4063.36    398.23248    4585.9283   -3783.3091   -13290.572    293.59034 
   16050     40.64468     40.64468     40.64468    44.585677   -2.5265583    4184.0297   -4180.7563    193.21688    4384.6824    -3985.257   -56.933291    4136.3161   -4233.0721   -13289.491    291.84188 
   16100    40.648092    40.648092    40.648092   -96.521565   -56.646929    4129.3899   -4233.9897   -213.35102    3973.1943   -4392.2554   -19.566745    4165.6566    -4198.997   -13287.606    288.53645 
   16150    40.646183    40.646183    40.646183   -124.85479    -223.7641    3960.7329   -4403.5604    -140.8099     4049.805   -4318.7244   -9.9903647    4175.0824   -4187.5911   -13291.657    296.70436 
   16200    40.643683    40.643683    40.643683    260.25256    311.88632    4502.4081    -3866.873    121.74351     4312.132   -4059.7614    347.12785    4536.0394   -3833.0169   -13286.817    287.67145 
   16250    40.647248    40.647248    40.647248   -64.881933    27.348632    4213.3959   -4150.7587   -187.98853    3995.2475   -4368.2124   -34.005901    4149.3265   -4212.1941   -13289.246    292.70305 
   16300    40.647707    40.647707    40.647707   -300.11993   -413.03993    3770.6519   -4590.5399   -163.64314     4020.812   -4337.5092    -323.6767    3861.2834   -4499.2209   -13292.628    299.56755 
   16350    40.643982    40.643982    40.643982     184.8353    291.46572    4481.9182   -3883.6073    92.583257    4283.3671   -4088.1008    170.45693    4358.2843   -4006.8476   -13288.662    292.21654 
   16400    40.646359    40.646359    40.646359   -120.05301   -36.129501    4149.8843    -4211.313   -117.08587    4071.9295   -4294.3735   -206.94367    3982.6964   -4380.8535   -13290.463    296.02097 
   16450    40.646194    40.646194    40.646194     131.3871    117.35014    4303.9763   -4055.3501    123.33839     4313.129   -4054.5353    153.47277    4341.8978   -4021.3721   -13286.527    288.71751 
   16500    40.645997    40.645997    40.645997    19.115891    199.68744    4386.3411   -3977.8567   -44.688078    4143.6397   -4223.7466   -97.651693    4086.7731   -4273.9462   -13287.923    291.72469 
   16550    40.645018    40.645018    40.645018      139.161    245.82592    4433.9593   -3933.5261    67.598466    4256.6053   -4114.0611     104.0586    4294.3503   -4075.6681   -13286.999    290.23117 
   16600    40.646961    40.646961    40.646961   -47.628543   -26.188985    4158.5664   -4206.2601   -115.06211    4072.9695   -4291.7558   -1.6345282    4183.3742   -4181.9252   -13288.658    293.73898 
   16650    40.647639    40.647639    40.647639   -163.65753   -132.37627    4053.8315   -4308.5767   -199.92358    3986.7483   -4377.8407   -158.67272    4028.8673   -4335.5882   -13289.088    294.86789 
   16700    40.644928    40.644928    40.644928    90.328838    3.7104478    4191.9839   -4174.6011    156.31857    4345.5482   -4018.4048     110.9575    4298.5352   -4066.0149   -13289.441    295.84883 
   16750    40.645008    40.645008    40.645008    66.487621    308.01568    4497.7271      -3871.4   -9.2102034    4179.4702     -4190.26   -99.342608    4089.6602   -4278.8138   -13287.397    292.18604 
   16800    40.646982    40.646982    40.646982   -28.647079    -1.732685     4186.077   -4178.4387   -113.97574    4071.5079   -4294.3691    29.767187    4216.5269   -4145.4466   -13288.147    293.92404 
   16850    40.647575    40.647575    40.647575   -113.98103   -112.42947    4076.8387   -4287.1041   -158.39772    4027.4515   -4336.1764   -71.115905    4112.8219   -4250.0501   -13289.385     296.6021 
   16900     40.64558     40.64558     40.64558    185.06392    171.88758    4360.7316   -4007.9048    257.47412    4450.1274   -3919.1703    125.83005    4314.3632   -4051.9696   -13286.361    291.02729 
   16950    40.646624    40.646624    40.646624   -8.3386466    105.91063    4291.1276   -4071.4081   -153.59331    4033.9638   -4334.1073    22.666735    4209.7437   -4154.4913   -13288.359    295.16891 
   17000    40.647892    40.647892    40.647892     -84.9798   -202.79434     3982.915   -4379.4681   -84.437064    4102.0342   -4262.1685    32.292003    4220.0784   -4146.6784   -13288.971    296.61817 
   17050    40.647433    40.647433    40.647433   -41.121248    62.970544    4251.4058   -4114.4209    -258.0537    3932.1216   -4436.3257    71.719408    4258.1793   -4105.5763   -13287.587    294.20613 
   17100    40.646208    40.646208    40.646208    51.590538   -157.36983    4031.6793   -4338.3313    181.58593    4367.0674   -3998.8811    130.55551    4320.5324   -4045.2168   -13288.503    296.24409 
   17150     40.64691     40.64691     40.64691   -65.900093    88.764333    4272.8502     -4088.86   -136.20971    4053.8225   -4314.8984    -150.2549    4038.1204   -4325.1604   -13288.567    296.63092 
   17200    40.647071    40.647071    40.647071   -5.7301942    85.350031    4275.3033   -4092.2951   -56.817588    4129.5462   -4236.9741   -45.723026    4142.4732    -4221.479   -13287.799    295.40475 
   17250    40.647511    40.647511    40.647511    -25.19417   -189.67004    3997.8844   -4364.8757    87.685232    4278.2822    -4086.155    26.402299    4214.8932    -4150.928   -13287.151     294.4074 
   17300    40.646197    40.646197    40.646197    51.128973   -28.626207    4157.6393   -4208.4169   -66.967949    4123.5831   -4249.0067    248.98108    4437.2788   -3930.5957   -13286.795    293.97096 
   17350    40.645704    40.645704    40.645704     25.76403    133.32117    4323.7085   -4040.9891   -41.976564    4146.8761    -4218.219    -14.05252    4176.3826   -4194.0725   -13287.693    295.95127 
   17400    40.646821    40.646821    40.646821    88.993293   -51.853742    4133.9528   -4229.1482    109.37425    4298.7139   -4068.9573    209.45937    4394.8238   -3968.8976   -13287.471    295.76596 
   17450    40.649304    40.649304    40.649304    -91.48287    7.8513218    4194.0348   -4164.2036   -111.95574    4072.0817   -4292.8538   -170.34419    4017.5523   -4346.6986   -13287.294    295.65469 
   17500     40.64965     40.64965     40.64965   -125.92975   -340.24098    3845.9035   -4511.9738    26.244848    4213.4809   -4150.5228   -63.793135    4122.1428   -4240.6037   -13288.019    297.29323 
   17550    40.646417    40.646417    40.646417    4.3014998   -46.704835    4141.8601    -4222.854   -108.84987    4082.6958   -4284.1822     168.4592    4353.9149   -4008.5335   -13288.223    297.92335 
   17600    40.644359    40.644359    40.644359    139.68143    106.22348     4297.889   -4071.5254    162.31823    4353.4227   -4015.3096    150.50258    4339.2838   -4028.3485   -13287.957    297.64168 
   17650    40.647422    40.647422    40.647422    14.878034    216.79361    4407.3456    -3959.323   -132.52787    4055.5158   -4313.1918   -39.631644    4147.5023   -4218.4344   -13285.756    293.60247 
   17700    40.650624    40.650624    40.650624   -138.79927   -55.326369    4128.3157   -4230.1087   -197.14582    3989.4295    -4373.476   -163.92561    4022.3315   -4337.9565   -13288.721    299.56013 
   17750    40.649172    40.649172    40.649172   -36.150917    61.241998    4247.4902   -4114.8649    19.197546    4208.7637   -4157.4975    -188.8923    4000.3778   -4364.7407    -13286.87    296.19526 
   17800    40.646619    40.646619    40.646619    134.11957     266.8086    4456.1473   -3911.4283    61.829198    4254.1373   -4118.5066    73.720902     4261.799   -4105.4847   -13285.681    294.11104 
   17850    40.648224    40.648224    40.648224   -10.097739   -112.46807     4076.562   -4289.0382   -4.1572798    4182.2302   -4182.8105    86.332135    4270.7314   -4090.9505   -13287.112    297.09284 
   17900    40.649757    40.649757    40.649757   -213.19533    -135.9982    4047.2736   -4313.0982   -465.20502    3720.8694   -4638.9361   -38.382757    4146.1086   -4213.5043   -13288.333    299.66476 
   17950    40.646153    40.646153    40.646153     133.7404    157.47713    4346.6544    -4019.255    242.56937    4431.7021    -3933.714    1.1747135    4187.4849   -4178.3671   -13286.412    296.14748 
   18000    40.646559    40.646559    40.646559    169.63043    205.26381    4393.1758   -3973.8859    36.418296    4223.0925   -4143.8262    267.20919    4456.4041   -3905.5975   -13287.075    297.62351 
   18050    40.652159    40.652159    40.652159   -295.84138   -172.97238    4010.2592   -4344.3385   -283.00239    3902.8582   -4456.5294   -431.54937    3753.5033   -4604.1347    -13288.39     300.3592 
   18100    40.650501    40.650501    40.650501    -73.75406   -73.999733    4113.5006   -4250.2723    -130.0967    4058.1351   -4306.5962   -17.165743    4169.3664   -4192.3146   -13285.795    295.52623 
   18150    40.646245    40.646245    40.646245    96.166344    155.87866    4346.5902   -4022.7673   -60.233594    4129.3595   -4239.4783    192.85397    4378.6689   -3984.1152   -13287.652    299.30984 
   18200    40.646927    40.646927    40.646927    175.47057    206.98394    4395.1635   -3972.2106     341.3466    4530.5715   -3835.8235   -21.918825    4166.3629   -4198.6987   -13285.156    294.66771 
   18250    40.652093    40.652093    40.652093   -179.84718   -56.152416    4128.3149   -4228.3789   -468.95038     3714.778   -4644.0143   -14.438737    4169.6096   -4189.0327   -13286.688    297.81787 
   18300     40.65108     40.65108     40.65108   -146.48119   -204.13115    3981.3346   -4379.0177   -120.05816    4064.7203   -4296.3772   -115.25425    4069.7765   -4291.8553   -13286.354    297.34563 
   18350    40.647339    40.647339    40.647339    152.34576    345.38026    4534.1367   -3829.5423    116.05076    4309.0328   -4063.1671   -4.3937254    4185.0974   -4178.1844   -13287.164    299.08915 
   18400    40.648314    40.648314    40.648314    39.840227    111.98087    4297.6544   -4064.9638    -97.70683    4094.1638   -4277.7058    105.24664    4292.3302   -4069.0362   -13284.387    293.89244 
   18450    40.649518    40.649518    40.649518   -43.171992   -2.8361551    4181.1572   -4177.7021     129.5971    4318.4542   -4046.3865   -256.27692    3927.6294   -4433.0467   -13286.612    298.36329 
   18500    40.648505    40.648505    40.648505    101.24795    218.24174    4405.6464   -3959.3531    15.561833    4202.0845   -4164.8027     69.94029    4255.7469   -4105.9264    -13284.19    293.83806 
   18550    40.648958    40.648958    40.648958   -52.247421   -4.6820598     4181.443   -4182.1321   -196.79381    3987.9274   -4371.0422    44.733607    4228.2413   -4133.3102   -13288.345    302.03487 
   18600    40.649113    40.649113    40.649113   -56.733612   -3.5033343    4184.6033   -4179.9209   -90.042583    4096.8051   -4266.9058    -76.65492    4107.3598   -4254.2909   -13286.397    298.41916 
   18650    40.648364    40.648364    40.648364    68.655145    224.00438    4412.6631   -3953.2181   -188.23487    3998.0904   -4369.3913    170.19593    4358.2734   -4006.1685   -13286.073    297.94127 
   18700    40.650336    40.650336    40.650336   -80.376999   -141.46978      4045.78   -4315.5629   -13.513316    4174.1501   -4188.8741     -86.1479    4100.6782    -4259.697   -13285.705    297.38366 
   18750    40.650298    40.650298    40.650298   -128.58808   -83.145517    4099.2273   -4260.3704    -205.1903    3983.9824   -4378.2648   -97.428425    4083.0441   -4270.7692   -13287.988     301.9554 
   18800    40.646816    40.646816    40.646816    138.77851    312.50042    4500.8072   -3866.0281    83.938646    4275.3849   -4094.4455     19.89647    4207.5404   -4158.5544   -13284.734    295.80138 
   18850    40.648234    40.648234    40.648234    30.728254   -38.662071    4152.1185   -4213.9894   -7.3471006    4179.2013   -4187.0544    138.19393    4328.2171   -4035.5816   -13286.842    300.01921 
   18900    40.650992    40.650992    40.650992    -42.95928    148.55719    4332.9779   -4026.2145   -127.39375    4060.4667   -4299.6872   -150.04128    4036.3608   -4326.1152   -13285.424    297.41421 
   18950    40.650288    40.650288    40.650288   -100.85335    -181.3983    4007.8318   -4355.4457    62.860203    4247.6069   -4112.8189   -184.02196    4000.5538    -4358.927   -13286.265    299.17496 
   19000    40.647024    40.647024    40.647024    214.95262    284.83887    4472.0398   -3894.1713    51.056801    4240.3112   -4128.8263    308.96218    4494.5186   -3867.3015   -13285.026    296.90714 
[...]
   13800        0.138    291.25069    7.7123916  0.021712303 -0.0064641626  -0.38973146    7.3226476    8.0992498    150.55078   -13025.096   -25758.799 
   13850       0.1385    288.55819    7.6958233 -0.022898302 -0.084094538  -0.38970836    7.3060094     8.082559      149.159   -13022.024   -25296.101 
   13900        0.139    292.21313    7.7793834 -0.018596694  0.033121535  -0.38918953    7.3898851    8.1653863    151.04827   -13022.219   -25979.694 
   13950       0.1395    292.80851    7.7626524   0.03200342  0.059693509  -0.38878052    7.3740433    8.1487021    151.35603   -13020.818   -26181.164 
   14000         0.14    290.78192    7.7739784 -0.018391636 0.00024523942  -0.38879249    7.3848599    8.1595442    150.30847   -13018.072   -25852.773 
   14050       0.1405    292.55995    7.8008559 -0.054400551  0.010070867  -0.38899976    7.4120006    8.1870978    151.22755   -13017.273   -25855.087 
   14100        0.141    290.98435    7.8449078 0.0028284285 -0.032554213  -0.38866573    7.4561797    8.2305978    150.41311   -13014.743   -26050.607 
   14150       0.1415    296.18122    7.8575383  0.043051585  0.037247456  -0.38841416    7.4688787    8.2427822    153.09942   -13015.707   -26459.458 
   14200        0.142    294.12159    7.8437331  -0.02390802 -0.0041379011  -0.38829911    7.4555264    8.2291906    152.03478   -13012.916   -26052.291 
   14250       0.1425    287.19968    7.7478812 -0.033567345 -0.002019977  -0.38811096    7.3596586    8.1329272    148.45677   -13007.631   -25707.646 
   14300        0.143    293.71432    7.8738105  0.019746234  0.023631537  -0.38785265    7.4858154    8.2585641    151.82426   -13009.286   -26390.628 
   14350       0.1435     291.4975    7.9045649 0.0057878559  0.018934398  -0.38754385    7.5172299    8.2893473    150.67836   -13006.402   -26430.957 
   14400        0.144     294.6357    7.8741604 -0.046018615 0.00047032948   -0.3876782    7.4862552    8.2586411    152.30053   -13006.298   -26095.374 
   14450       0.1445    292.14967    7.8781755 0.0080106477 -0.008594513   -0.3873665    7.4908028    8.2625471    151.01547   -13003.285   -26258.639 
   14500        0.145     290.8319    7.8916896  0.021238627 -0.0060794099  -0.38689608    7.5047487    8.2755423     150.3343   -13000.867   -26356.163 
   14550       0.1455     289.7379     7.878053  0.036487353 -0.022518208  -0.38670847    7.4913038     8.261701     149.7688   -12998.563    -26306.74 
   14600        0.146    291.05198    7.8755564 0.0084610282 -0.023920782  -0.38652758    7.4890615    8.2590921    150.44807    -12997.51   -26200.322 
   14650       0.1465    290.14168    7.8880396  0.011861846  -0.01807914  -0.38633601    7.5015676    8.2712084    149.97752   -12995.301   -26272.741 
   14700        0.147    289.85403    7.8562697  0.029594156 -0.0032762703  -0.38606892    7.4701666    8.2392518    149.82883   -12993.412   -26275.292 
   14750       0.1475    284.83157    7.7802611 0.0071037338 -0.022309076  -0.38585971    7.3943673    8.1630226    147.23266   -12989.101   -25883.519 
   14800        0.148    295.22257    7.7739472  0.010271893 -0.036002251  -0.38577842     7.388153    8.1566582    152.60389   -12992.754    -25827.39 
   14850       0.1485    291.85515    7.6392409 -0.022401768 0.0090253166  -0.38541707    7.2536145    8.0213918    150.86323    -12989.31   -25419.548 
   14900        0.149    295.96817    7.5426105  0.010334563   0.05186927  -0.38500038    7.1575122    7.9244449     152.9893   -12989.735   -25349.381 
   14950       0.1495    295.25224    7.4039377  0.010039178 -0.001891253  -0.38498119    7.0188978    7.7857837    152.61922   -12987.716   -24706.952 
   15000         0.15    304.02056    7.2650055 -0.071123596  0.034185168  -0.38511871    6.8797832    7.6469522    157.15167   -12990.627   -24093.557 
   15050       0.1505    309.56698    7.1267705 -0.049078844  0.019062772  -0.38463329     6.741989     7.508181    160.01867   -12991.928   -23655.848 
   15100        0.151    306.69809     6.911152 -0.068385816   0.01273007  -0.38370885    6.5271685    7.2914914    158.53572   -12988.961   -22851.654 
   15150       0.1515    319.26741    6.7401749  0.038975677  0.063540545  -0.38286206    6.3573428    7.1199691    165.03294   -12994.037    -22808.97 
   15200        0.152    319.28619    6.4117552  0.048372635 0.0019629842  -0.38250675    6.0291522     6.791083    165.04264   -12992.724   -21540.303 
   15250       0.1525     335.4747    6.0896801  0.031858152 -0.071686451  -0.38281109    5.7065582     6.469151    173.41067   -12999.863   -20166.173 
   15300        0.153    337.88645    5.7313163 -0.0086257228 -0.056823532  -0.38241221    5.3488711    6.1106699    174.65733   -13000.039   -18886.224 
   15350       0.1535    334.72084    5.3875431  0.072478331  -0.03801648  -0.38161448    5.0059905    5.7661946    173.02099   -12997.514    -18073.35 
   15400        0.154     342.0304    5.0719578  0.057930295  0.068710984  -0.38139037    4.6902334    5.4500268    176.79939   -13000.538   -17328.664 
   15450       0.1545     346.5106    4.7211677  0.004679539 -0.010202206  -0.38180835    4.3393146    5.0999839    179.11525   -13002.263   -15718.817 
   15500        0.155    347.72231    4.3780797 -0.065055253 -0.0039264244  -0.38217733    3.9957748    4.7572234     179.7416   -13002.419    -14363.66 
   15550       0.1555    345.72085    4.1566868 -0.078497099  0.058041973  -0.38187775    3.7746622    4.5355239    178.70702   -13001.037   -13787.439 
   15600        0.156    352.91346    4.0470676 -0.00032413902   0.11750658  -0.38167284     3.665452     4.425918    182.42496   -13004.544   -13880.834 
   15650       0.1565    355.30306    3.9546563  -0.03687998  0.018411789  -0.38207073    3.5727265    4.3339961    183.66017   -13005.686   -13120.627 
   15700        0.157    353.64653    3.7956129  0.017236398 -0.020414122  -0.38259926    3.4128052    4.1751247     182.8039   -13004.714   -12641.451 
   15750       0.1575    361.69497    3.7141687   0.06307154  0.023943058  -0.38297191    3.3310268    4.0940963    186.96422   -13008.807   -12670.611 
   15800        0.158    360.52666    3.6251051   0.01936415 -0.059177906  -0.38381742    3.2414236    4.0061844    186.36031   -13008.159   -11950.971 
   15850       0.1585    364.75668    3.6227972  0.032174451 -0.079266508  -0.38418681    3.2384436    4.0039481    188.54686   -13010.272   -11919.017 
   15900        0.159    362.85533    3.5756819 -0.044065223  0.017372756  -0.38398003    3.1917938    3.9568641    187.56403   -13009.253   -11829.965 
   15950       0.1595    363.19391    3.5803512 -0.013534165  0.076080543  -0.38348018    3.1967861    3.9608467    187.73904   -13009.373   -12142.992 
   16000         0.16    359.91317    3.4550027  0.011224552  0.079797756  -0.38352185    3.0713819    3.8355174    186.04319   -13007.653   -11820.083 
   16050       0.1605    360.95119    3.4214138 -0.010860946  0.021842636   -0.3841378    3.0371876    3.8025751    186.57975   -13008.178   -11441.318 
   16100        0.161    364.10444    3.3476955 -0.043325111 -0.037770807   -0.3848783    2.9628916    3.7297918    188.20971   -13009.804   -10888.665 
   16150       0.1615    368.76526    3.2747162 -0.028793028 0.0003051527  -0.38471044     2.890047    3.6566158    190.61894   -13012.249   -10820.761 
   16200        0.162    368.50231    3.3067163  0.061524771 -0.056567645  -0.38418402    2.9221584    3.6876757    190.48302   -13012.162   -11038.911 
   16250       0.1625     360.1726    3.3071438  0.061398264 -0.051713849  -0.38386841    2.9231501    3.6880251    186.17729   -13007.922   -11056.094 
   16300        0.163    363.11155    3.2374907  0.042433084  0.043106488  -0.38396294    2.8533507    3.6184346    187.69647   -13009.558   -11076.768 
   16350       0.1635    362.59563    3.1608747 -0.039909799 -0.011993331   -0.3848253    2.7760904    3.5429221    187.42979   -13009.419   -10363.239 
   16400        0.164    368.58005    3.1163309 -0.054304993  -0.06283763  -0.38517834     2.730878    3.4984407     190.5232   -13012.631   -9997.2944 
   16450       0.1645    372.76075    3.1361261  0.029011491  0.050938188  -0.38466269    2.7515345    3.5180581    192.68425   -13014.936   -10720.253 
   16500        0.165    363.92767    3.0526071   0.04346032  0.049082515  -0.38448158    2.6679885    3.4341414    188.11833   -13010.527   -10483.833 
   16550       0.1655    375.26214    3.0226861  0.042125017  0.027289623  -0.38497638    2.6374709    3.4046273    193.97725   -13016.577   -10307.003 
   16600        0.166    371.62968    2.9128993 -0.031234485 -0.049523321  -0.38564902    2.5271458     3.295673    192.09959   -13014.888   -9440.4717 
   16650       0.1665    367.44987    2.7947826 -0.066465404  0.023118567  -0.38570064    2.4088012    3.1774222      189.939    -13012.95   -9171.4525 
   16700        0.167    375.99725    2.7648834 0.0035489738  0.063080841   -0.3853521    2.3790841    3.1470125    194.35723   -13017.633   -9438.3774 
   16750       0.1675    371.57801    2.6312173  0.039958914 0.0070719807  -0.38563089    2.2455834    3.0140518    192.07288   -13015.646   -8927.4941 
   16800        0.168    374.14634    2.5423812 -0.004835991 -0.015992686  -0.38613389    2.1560812    2.9255768    193.40048   -13017.298    -8405.175 
   16850       0.1685      381.124     2.481223 -0.040733142  0.049126321  -0.38642594    2.0948937    2.8649689    197.00731   -13021.273   -8298.7207 
   16900        0.169    377.06017    2.3996955  0.025391186 -0.063563393  -0.38677992    2.0126489    2.7834392    194.90667    -13019.55   -7871.7444 
   16950       0.1695     383.5371    2.2911985   0.09374905 -0.029740813  -0.38698094    1.9042205     2.675429    198.25467   -13023.327   -7850.6892 
   17000         0.17    379.69442    2.2146934  0.060914119 0.0058934643   -0.3874848    1.8270034    2.5992275    196.26834   -13021.827   -7605.0034 
   17050       0.1705    383.21702    2.0259605 -0.057646675 -0.0090487664  -0.38849853    1.6374231     2.411708    198.08922   -13024.158   -6530.8835 
   17100        0.171    382.15449    1.9527077 -0.078602414 -0.0060991189  -0.38894104    1.5638009    2.3389964    197.53998   -13024.114   -6226.6871 
   17150       0.1715    390.65633    1.8887578 -0.029227298  0.061931236  -0.38870158    1.5001251    2.2748365    201.93468   -13029.068   -6404.8723 
   17200        0.172    392.76807    1.8357501 -0.0016333964  0.068984594  -0.38852476    1.4470362    2.2214127    203.02626   -13030.769    -6343.671 
   17250       0.1725    389.99611    1.7162119 -0.054745577  0.099005688  -0.38901371    1.3269284    2.1023055     201.5934   -13030.018   -5868.2401 
   17300        0.173    387.15937    1.5332674 -0.020325244 -0.0051990511   -0.3895077    1.1435275    1.9199126    200.12706   -13029.259   -5025.8105 
   17350       0.1735    385.15763    1.5110376 -0.036093519  -0.10308301  -0.38983315    1.1208412    1.8978757    199.09234   -13028.855   -4572.8701 
   17400        0.174    390.57938    1.5910174 -0.0060414409  0.025585585  -0.38924969    1.2017082    1.9775598     201.8949   -13032.353   -5368.5386 
   17450       0.1745     384.1063    1.5527367  0.056312722  0.040261646   -0.3889588    1.1639735     1.939224    198.54889   -13029.683   -5497.7035 
   17500        0.175    391.28815    1.4632812  0.087926805 0.0058239707  -0.38955841    1.0734757    1.8499652    202.26127   -13034.099   -5190.1067 
   17550       0.1755    395.84288    1.4590561   0.07744611 -0.087129541  -0.39072051    1.0682101      1.84707    204.61566   -13037.179   -4831.2421 
   17600        0.176    395.75652    1.4574467 0.0016722445  -0.12201378  -0.39127696    1.0659849    1.8459719    204.57102   -13037.887   -4457.0171 
   17650       0.1765    392.83818    1.4650782 -0.018908973 -0.037848887  -0.39082432    1.0740671    1.8531364     203.0625   -13037.153   -4694.4012 
   17700        0.177    398.90382    1.6160879  0.095692735  0.055333214  -0.38977839    1.2262653    2.0032311     206.1979   -13041.051   -5890.3797 
   17750       0.1775    402.05164    1.6190144  0.041591843   0.12626917  -0.39024374    1.2288445    2.0067613    207.82504   -13043.454   -5956.2515 
   17800        0.178    406.51766    1.3685035  -0.06015576  0.045226521  -0.39198097   0.97647708    1.7579161    210.13358   -13046.554   -4511.9142 
   17850       0.1785    403.12593    1.2814832  -0.15996605 -0.069381455  -0.39274172   0.88868836    1.6716806    208.38036   -13045.607   -3507.1191 
   17900        0.179    403.86429     1.362311 -0.033662106  0.028568733  -0.39192102   0.97003145    1.7513719    208.76202   -13046.859   -4524.0589 
   17950       0.1795    404.93553    1.4269753  0.056394132   0.13666424  -0.39097756    1.0357565    1.8151913    209.31576   -13048.273   -5400.1122 
   18000         0.18    407.81479    1.3546732   0.13564015  0.061893527  -0.39148662   0.96297269    1.7434498    210.80408   -13050.677   -5174.0228 
   18050       0.1805      411.591    1.2389993 -0.010407261  -0.05374392  -0.39312697   0.84532261    1.6291578    212.75605   -13053.548   -3916.1603 
   18100        0.181    409.64188    1.1754713 -0.057073209  -0.20378237  -0.39408066   0.78120983    1.5669882    211.74852   -13053.432   -3048.7192 
   18150       0.1815    411.17805    1.2158507  0.009822922 -0.056779603  -0.39331221   0.82255632    1.6067656    212.54259   -13055.232   -3896.3133 
   18200        0.182    405.70759    1.2827927   0.11026115  0.084096093   -0.3921601   0.89016925    1.6720235    209.71484   -13053.351   -4923.8331 
   18250       0.1825    414.08035    1.3014939  0.063108558   0.13471345  -0.39244946   0.90866969    1.6911238    214.04282   -13058.655   -4997.7197 
   18300        0.183    411.14037    1.1682992   -0.1015738 -0.025194645  -0.39405678   0.77451761    1.5602287    212.52311   -13058.092   -3471.7692 
   18350       0.1835    407.68327    1.1290221  -0.11180324 -0.074161023  -0.39452038   0.73446935    1.5211333    210.73609   -13057.243   -3143.5262 
   18400        0.184    413.40339    1.1873292  0.031672072  0.061322204  -0.39352298   0.79381231    1.5784643    213.69289   -13061.185    -4267.745 
   18450       0.1845    409.51187    1.1821528   0.13072436  0.020107133  -0.39363426   0.78815374    1.5730241    211.68132   -13060.176   -4443.2809 
   18500        0.185     411.4069    1.0979031  0.067985641 -0.036154967  -0.39455941   0.70306088    1.4898177    212.66088    -13062.21   -3765.7792 
   18550       0.1855    418.28181    1.0097126  0.017648244  -0.09057091  -0.39598126   0.61349734    1.4031521     216.2146   -13066.824   -3122.6331 
   18600        0.186    415.78492   0.95073773 -0.074940763 -0.031755127  -0.39632031   0.55428968    1.3446233    214.92393   -13066.586   -2813.4728 
   18650       0.1865     414.6891   0.96743062 -0.014297429 -0.011833429  -0.39584748   0.57171469      1.36108    214.35749   -13067.087   -3137.6659 
   18700        0.187    407.15103    1.0483484  0.025364924   0.10177936  -0.39523129   0.65232829    1.4404475    210.46097   -13064.222   -3918.3091 
   18750       0.1875    417.02863    1.0167717 -0.039711883  0.048223459   -0.3953465   0.62142957    1.4097974    215.56682   -13070.375    -3417.611 
   18800        0.188    414.42847    0.9619183 -0.049335527  0.018947268  -0.39587528   0.56618887    1.3556299    214.22277   -13070.102   -3105.1001 
   18850       0.1885    418.13968   0.91723668  0.036316617 -0.062688048  -0.39602931   0.52116944    1.3109349    216.14113   -13073.089   -2969.5508 
   18900        0.189    413.13697   0.95666965   0.08651165 -0.061218342   -0.3959829   0.56108825    1.3507598    213.55518   -13071.573   -3273.2099 
   18950       0.1895    414.62588    1.0968674  0.075894004 0.0045338374  -0.39573133   0.70088786    1.4900584    214.32481   -13073.424   -3924.3174 
   19000         0.19    404.68701    1.0785285 -0.049953746 -0.010254662  -0.39591535   0.68236175    1.4719063     209.1873   -13069.318   -3394.4004 
   19050       0.1905     417.9898     1.167389 -0.037750638  0.063169018  -0.39577149   0.77153907    1.5608062    216.06366   -13077.205   -3976.0246 
   19100        0.191    408.74635    1.0938976 -0.044617618   0.05119539  -0.39589137   0.69768639    1.4871875    211.28562   -13073.469   -3668.2512 
   19150       0.1915    412.61364    1.1561929 -0.026460128 0.0098700505  -0.39595362   0.76012671    1.5497653    213.28466   -13076.513   -3798.6761 
   19200        0.192    424.29872    1.2267294  0.020991878 -0.00087700265  -0.39580029   0.83073503    1.6200901    219.32481   -13083.591   -4156.1477 
   19250       0.1925    413.85043    1.2587886  0.057799821 -0.079879113  -0.39590069   0.86270056    1.6522544    213.92397   -13079.232   -4122.3643 
   19300        0.193    416.40341    1.3043736   0.12121524 -0.057169341  -0.39596225   0.90799584      1.69767    215.24364   -13081.596   -4561.3984 
   19350       0.1935    414.41568    1.3480591  0.039266983 -0.089024876  -0.39597457   0.95233921    1.7420343    214.21615   -13081.651   -4327.6707 
   19400        0.194    416.73492     1.305128  0.022209319  0.052278979   -0.3958867   0.90934996    1.6988708      215.415   -13083.883   -4598.7209 
   19450       0.1945    411.51137    1.2689652 -0.046798522  0.060517901  -0.39611453   0.87246531    1.6624511    212.71489   -13082.152   -4275.6152 
   19500        0.195    409.75983    1.1540679 -0.038616738  0.067029986  -0.39654302   0.75737131    1.5482288    211.80949   -13082.239   -3941.6039 
   19550       0.1955    408.79631    1.1350381 -0.013343913 -0.052341632  -0.39705866   0.73770893    1.5296056    211.31144   -13082.765   -3564.5086 
   19600        0.196    410.44065    1.2025847 -0.046174651 -0.028864944  -0.39679572   0.80570801    1.5970812    212.16142   -13084.609   -3758.4838 
   19650       0.1965    406.29645    1.2361511 0.0033384422  0.048176759  -0.39625006   0.83954815    1.6298192    210.01923   -13083.467   -4292.2212 
   19700        0.197    411.18681     1.194101  0.066357446  0.078022778  -0.39605628   0.79825711    1.5881651    212.54712   -13087.005    -4461.604 
   19750       0.1975    412.89506    1.1645585  0.025107153  -0.01793132  -0.39701307   0.76758085    1.5594341    213.43013   -13088.926    -3905.781 
   19800        0.198    404.05349    1.0724971  -0.11986189  -0.12866493  -0.39787232   0.67453666    1.4681266    208.85982   -13085.358   -2746.5677 
   19850       0.1985    406.43138    1.1333225  0.031244558 -0.083534394  -0.39692822   0.73622718    1.5279115    210.08898   -13087.618   -3603.4424 
   19900        0.199    412.73965    1.2414044   0.13286855   0.08738096  -0.39568258   0.84564366    1.6348052     213.3498   -13091.886   -4872.1798 
   19950       0.1995    410.58819    1.2056831   0.02645145   0.11659084  -0.39635845   0.80916925    1.5996927    212.23768   -13091.811   -4495.7512 
   20000          0.2    410.43872    1.1150869 -0.084432827 -0.058750672  -0.39775436   0.71699645    1.5103724    212.16042    -13092.73   -3239.6782 
Loop time of 1541.84 on 4 procs for 20000 steps with 4000 atoms

Pair  time (%) = 1321.44 (85.7055)
Neigh time (%) = 0.526343 (0.0341373)
Comm  time (%) = 134.892 (8.74877)
Outpt time (%) = 16.5963 (1.07639)
Other time (%) = 68.384 (4.43521)

Nlocal:    1000 ave 1012 max 982 min
Histogram: 1 0 0 0 0 1 0 0 1 1
Nghost:    3723.25 ave 3736 max 3709 min
Histogram: 1 0 0 1 0 0 0 1 0 1
Neighs:    68902.8 ave 71691 max 65731 min
Histogram: 1 0 0 1 0 0 0 1 0 1
FullNghs:  0 ave 0 max 0 min
Histogram: 4 0 0 0 0 0 0 0 0 0

Total # of neighbors = 275611
Ave neighs/atom = 68.9027
Neighbor list builds = 85
Dangerous builds = 0

######################################
# SIMULATION DONE
print "All done"
All done
