
# ----------------------- ATOM DEFINITION ----------------------------
lattice		fcc ${latparam}
lattice		fcc 4.05
Lattice spacing in x,y,z = 4.05 4.05 4.05
region		whole block 0 14 0 14 0 14
create_box	1 whole
Created orthogonal box = (0 0 0) to (56.7 56.7 56.7)
  1 by 2 by 2 MPI processor grid
lattice 	fcc ${latparam} orient x 1 0 0 orient y 0 1 0 orient z 0 0 1
lattice 	fcc 4.05 orient x 1 0 0 orient y 0 1 0 orient z 0 0 1
Lattice spacing in x,y,z = 4.05 4.05 4.05
create_atoms	1 region whole
Created 10976 atoms

# ------------------------ FORCE FIELDS ------------------------------

#****************USE THIS TO TEST******************
pair_style	eam/rad
pair_coeff 		* * Al99.PC0.05.eam.alloy.rad.txt Al # pc = 0.5   error generating


# to test with error = 0 use this potential
# pair_coeff	* * Al99.eam.alloy.005pcrad_NULL_noerror Al

#****************USE THIS TO RUN REFRENCE***********
# pair_style	eam/alloy
# pair_coeff	* * Al99.eam.alloy Al

# ------------------------- SETTINGS ---------------------------------
compute csym all centro/atom fcc
compute peratom all pe/atom

######################################
# EQUILIBRATION
reset_timestep	0
timestep	0.001 # default
# timestep	0.0001 # tiny time step
velocity all create 300 12345 mom yes rot no
fix 1 all npt temp 300 300 1 iso 0 0 1 drag 1

# Set thermo output
thermo 50
# thermo 1 # debug mode

# thermo_style custom step lx ly lz press pxx pyy pzz pe temp
# IMPLEMENTATION HERE

# VERSION add rad variables .v1 .v2
# thermo_style custom step lx ly lz press pxx pyy pzz pxxrad pyyrad pzzrad pe temp

# VERSION ublb separation .v3
thermo_style custom step lx ly lz press pxx pxxrad pyy pyyrad pzz pzzrad pe temp

# Run for at least 10 picosecond (assuming 1 fs timestep)
run 	20000 # default
Memory usage per processor = 5.80699 Mbytes
Step Lx Ly Lz Press Pxx Pxxrad Pyy Pyyrad Pzz Pzzrad PotEng Temp 
       0         56.7         56.7         56.7    2496.5196    2454.4963    242.99145    2519.8171    242.99145    2515.2453    242.99145    -36879.36          300 
      50    56.784859    56.784859    56.784859    902.09853    998.94619    242.49817    861.90863    242.56136    845.44078    242.54945   -36603.807    104.79024 
     100    56.885066    56.885066    56.885066   -4306.9915   -4305.3116    238.77172   -4298.2013     238.7977   -4317.4617    238.83106   -36693.797    169.48504 
     150    56.794165    56.794165    56.794165    499.51447    541.75107    241.64462    473.93504    241.67804    482.85731    241.70451   -36629.356    124.08705 
     200    56.732407    56.732407    56.732407    2848.6888    2841.3292    243.54298    2840.1988    243.61225    2864.5384    243.62518   -36648.826    138.99861 
     250    56.791772    56.791772    56.791772      162.813    148.62455    241.68421    202.83345    241.66048    136.98101    241.69034   -36659.532    147.00042 
     300    56.837362    56.837362    56.837362   -1784.9005   -1752.9576    240.35551   -1802.5487    240.34795   -1799.1952    240.35182   -36664.505    151.36635 
     350    56.798011    56.798011    56.798011   -343.34692   -308.44403    241.44938   -330.12831    241.39874   -391.46843    241.42861   -36678.755    161.95211 
     400    56.760076    56.760076    56.760076    1513.7688    1531.0644     242.6719    1473.5106     242.6742    1536.7313    242.70594   -36663.857    152.32121 
     450    56.792604    56.792604    56.792604    91.791936    92.441628     241.6536    98.298277    241.67769    84.635902    241.66363   -36662.091     151.7901 
     500    56.822718    56.822718    56.822718   -1101.2584   -1095.7792    240.77154    -1101.353    240.76545   -1106.6429    240.74688   -36659.955    151.20573 
     550    56.799016    56.799016    56.799016   -88.274292   -55.419951    241.47213   -186.17716    241.47703   -23.225762    241.50219    -36661.39    153.02203 
     600    56.774001    56.774001    56.774001    857.57303    848.55267    242.20326    914.11147    242.23848    810.05495    242.25055   -36667.442    158.21602 
     650    56.792244    56.792244    56.792244     201.8819     184.0495      241.723    162.26066    241.73638    259.33554    241.76451   -36659.397    153.38348 
     700    56.815679    56.815679    56.815679   -863.47295    -853.2323    240.95697   -843.12697    241.00893   -894.05959    240.98758   -36660.483    155.08104 
     750     56.79954     56.79954     56.79954   -138.86796   -140.35725    241.41579   -131.66214    241.47265   -144.58448    241.45363   -36662.181    157.14995 
     800    56.779969    56.779969    56.779969    742.36954    749.83042    242.04424     683.4876    242.09063    793.79061    242.05488   -36659.129    155.93389 
     850    56.794346    56.794346    56.794346    128.98364    137.93134    241.64958    125.01194    241.64076    124.00765    241.68153   -36660.641    157.89694 
     900    56.812641    56.812641    56.812641   -590.64813   -559.07401    241.11963   -679.07684     241.1547   -533.79353    241.16542   -36653.023    153.45426 
     950    56.802032    56.802032    56.802032   -175.40181   -249.95955    241.38755   -91.157204     241.4507   -185.08868    241.41293   -36659.638    159.02515 
    1000    56.785499    56.785499    56.785499     503.1207    491.57291     241.8649     526.3538    241.90053    491.43541    241.88645   -36661.883    161.54845 
    1050    56.794444    56.794444    56.794444    217.86986    245.38872    241.67062    189.89687    241.72394    218.32398    241.69876   -36650.753    154.62858 
    1100    56.810552    56.810552    56.810552   -541.47595   -515.72507    241.16115   -560.96887    241.14761    -547.7339    241.17946   -36659.361    161.63198 
    1150    56.802078    56.802078    56.802078   -155.40533   -149.31378    241.39906   -181.61257    241.39878   -135.28965    241.37868   -36660.918    163.66699 
    1200     56.78923     56.78923     56.78923    470.87317    467.50457    241.87201    502.22108    241.91874    442.89385    241.89898   -36647.038    154.82072 
    1250    56.797682    56.797682    56.797682    119.32274    114.49144     241.5474    122.82547    241.54761    120.65131    241.56189   -36655.956    162.04526 
    1300     56.80929     56.80929     56.80929   -374.65972   -426.63131    241.27985   -322.91615    241.28385   -374.43171    241.26632   -36649.032     158.1179 
    1350    56.802656    56.802656    56.802656   -131.67424   -123.69907    241.38955   -151.29544    241.41358   -120.02822    241.42545   -36656.521    164.32607 
    1400    56.792253    56.792253    56.792253     333.7521    344.99452    241.75847    360.26481    241.74033    295.99696    241.79246    -36652.58    162.50957 
    1450    56.799093    56.799093    56.799093    138.39769    156.43558    241.60585     59.32061    241.61235    199.43688    241.60389   -36647.828    160.08835 
    1500    56.809623    56.809623    56.809623   -395.03134   -333.37419    241.20959   -398.55063    241.18456   -453.16919    241.23097   -36653.387    164.97469 
    1550     56.80318     56.80318     56.80318    24.732353  -0.91167841    241.46763    26.036089    241.44091    49.072649    241.45462   -36645.151    160.10329 
    1600    56.796324    56.796324    56.796324    208.86929    252.66911    241.57095    194.83136     241.5787     179.1074    241.61028   -36654.461    167.63598 
    1650    56.801231    56.801231    56.801231      70.0307    61.680608    241.56472    43.508846    241.52615    104.90265     241.5032   -36645.671    162.38179 
    1700    56.808933    56.808933    56.808933   -270.45522   -273.87922    241.27557   -228.37574    241.30722   -309.11069    241.33312   -36647.885    164.89895 
    1750    56.804735    56.804735    56.804735   -59.461898   -86.922931    241.38128    -98.30916    241.40709    6.8463964    241.41054    -36649.31    166.85283 
    1800    56.798162    56.798162    56.798162    226.71822    267.17271    241.55795    252.39978    241.60582    160.58216    241.61852   -36645.527    165.14801 
    1850    56.801538    56.801538    56.801538    119.80034    140.63399    241.52628    113.67452    241.52779    105.09252    241.51852    -36644.63    165.47466 
    1900    56.809836    56.809836    56.809836   -214.86873   -185.47779    241.28033   -211.01714    241.25627   -248.11124    241.28886   -36646.288    167.59094 
    1950    56.808329    56.808329    56.808329   -144.12638   -141.83771     241.2925   -135.50137    241.30462   -155.04008    241.35229   -36643.579    166.63493 
    2000    56.800682    56.800682    56.800682    212.40029    151.34683    241.50437    259.31391      241.553    226.54014    241.56181   -36643.425    167.49409 
    2050    56.802521    56.802521    56.802521    100.65499    75.249048    241.46207    56.190505    241.50824    170.52543    241.48183   -36643.741     168.6746 
    2100    56.809571    56.809571    56.809571    -146.8269   -80.335646    241.28722   -127.99001    241.31553   -232.15503    241.30414   -36640.815    167.57057 
    2150    56.808895    56.808895    56.808895   -165.27325   -191.13675    241.32545   -166.54245    241.30984   -138.14054    241.29227   -36644.098    170.83838 
    2200    56.801313    56.801313    56.801313    222.08781    255.75477    241.58416     244.7199    241.61199    165.78875     241.6105   -36634.804     165.2564 
    2250    56.803543    56.803543    56.803543    119.59981    150.43417    241.43496    95.565628    241.45342    112.79964    241.46674   -36645.922    174.04965 
    2300    56.811357    56.811357    56.811357   -177.10421   -205.43945    241.31374   -186.68732     241.2719   -139.18586    241.32582   -36634.934    167.26935 
    2350    56.810834    56.810834    56.810834   -147.57357   -119.78179     241.2169   -148.60926     241.2567   -174.32964    241.28276   -36642.182    173.33274 
    2400    56.804038    56.804038    56.804038    197.44655    212.01527    241.52245     196.5496    241.50619    183.77479    241.51276   -36634.813    169.10765 
    2450    56.805659    56.805659    56.805659    99.580396    86.934756    241.43492    111.74025    241.46131    100.06618    241.45486   -36639.839    173.61106 
    2500    56.812136    56.812136    56.812136   -157.16811    -130.0075     241.1799   -133.15348    241.23033   -208.34334    241.22416   -36638.445    173.59141 
    2550    56.811276    56.811276    56.811276   -86.471514   -117.97122      241.277   -107.48598    241.27784   -33.957338    241.28174   -36635.105    172.20581 
    2600    56.806512    56.806512    56.806512    84.228888    137.95082    241.44751    101.39973    241.44596    13.336109    241.48405   -36636.206    173.93935 
    2650    56.807459    56.807459    56.807459     189.9063    165.27678    241.43562    150.92293     241.4708    253.51919    241.44859   -36630.259    170.70949 
    2700    56.814656    56.814656    56.814656   -194.41013   -148.31935    241.12504   -166.55308    241.14899   -268.35797    241.16819   -36634.286     174.5138 
    2750     56.81318     56.81318     56.81318   -50.885643    -31.91255    241.20415   -72.238321    241.26433   -48.506057    241.26608   -36632.943    174.53856 
    2800    56.808273    56.808273    56.808273    120.07452    77.423285    241.38993    147.71871    241.38441    135.08155    241.41524   -36632.175    174.95634 
    2850    56.809386    56.809386    56.809386    64.598916    93.289406    241.32158    49.252297    241.33065    51.255046    241.32667   -36635.363    178.17319 
    2900    56.814028    56.814028    56.814028   -55.129096   -78.864562    241.24353   -23.927303    241.24444   -62.595424    241.25699   -36628.162    174.06308 
    2950    56.814566    56.814566    56.814566   -136.69039   -121.09987    241.20567   -138.22883    241.21916   -150.74247    241.22746    -36632.76    178.27162 
    3000    56.810436    56.810436    56.810436    109.18596    170.82853     241.3847    82.313316     241.3979    74.416023    241.41016   -36627.321    175.39548 
    3050    56.811695    56.811695    56.811695    20.251311     45.62127    241.25424    28.352535    241.25834   -13.219872    241.31872   -36633.224    180.52378 
    3100    56.814668    56.814668    56.814668   -22.502512    59.902641    241.23104   -81.618592     241.2433   -45.791584    241.26212   -36625.036    175.72114 
    3150    56.814591    56.814591    56.814591   -35.232453   -56.415597    241.22333   -62.292386     241.1928    13.010624    241.19601   -36627.386    178.34874 
    3200    56.812239    56.812239    56.812239    90.408292    160.66081    241.27934    76.940756    241.35052    33.623312    241.29747   -36626.453    178.65798 
    3250    56.813104    56.813104    56.813104    22.961587     6.770234    241.27529    44.998436    241.28757    17.116089    241.30335   -36626.931    179.95943 
    3300    56.815222    56.815222    56.815222   -33.469201   -23.912364    241.21746   -21.628313    241.25974   -54.866925    241.21124    -36624.85    179.46152 
    3350     56.81547     56.81547     56.81547   -25.746731   -25.939475    241.22558   -66.221943     241.2385    14.921226    241.22427   -36626.345    181.48254 
    3400     56.81445     56.81445     56.81445    33.843209    20.163178     241.2828    3.6846816     241.3028    77.681767    241.31129   -36623.713      180.591 
    3450    56.815405    56.815405    56.815405    22.937435    74.244986    241.20551    6.2431304    241.22898    -11.67581    241.22407   -36623.977    181.74162 
    3500    56.817351    56.817351    56.817351   -84.758116   -7.0286601    241.12129   -112.68599    241.18662    -134.5597    241.16273   -36624.288     182.9346 
    3550     56.81621     56.81621     56.81621   -19.992649   -22.654179    241.20273    5.2074259    241.20963   -42.531193    241.22263   -36626.071    185.15775 
    3600    56.815602    56.815602    56.815602    62.134913    102.05969    241.24607     96.33748     241.3077   -11.992432    241.26347   -36619.622    181.57613 
    3650    56.817749    56.817749    56.817749   -21.981849   -32.824025    241.16372   -62.313942    241.18302    29.192421    241.17453   -36622.046    184.25338 
    3700    56.818585    56.818585    56.818585    20.576408     -9.14837    241.13533    58.205133    241.14809    12.672462    241.18181   -36617.535    182.04252 
    3750    56.818699    56.818699    56.818699   -43.632583    59.035682    241.13749   -90.581382    241.20021    -99.35205    241.16136   -36618.972    184.02075 
    3800    56.816887    56.816887    56.816887    83.562808    74.779099    241.21765    120.44089    241.23428    55.468432    241.24098    -36618.35    184.54917 
    3850    56.817924    56.817924    56.817924    -33.09368    62.598131    241.14277   -69.980935    241.15617   -91.898236     241.2097    -36619.45    186.29073 
    3900    56.818517    56.818517    56.818517    44.629959    -61.09072    241.23791    93.302172    241.23049    101.67842    241.19148   -36615.198    184.26597 
    3950    56.820277    56.820277    56.820277   -75.500498    80.567175    241.11359   -150.85782    241.11434   -156.21085    241.13905   -36618.567    187.59759 
    4000    56.818961    56.818961    56.818961   -3.7770912   -60.200129    241.13304    21.493653    241.15024    27.375202    241.13931   -36618.094    188.24366 
    4050    56.817582    56.817582    56.817582    73.757411    92.072684    241.20151    124.00241    241.22616    5.1971405     241.2001    -36614.79    186.87303 
    4100    56.819967    56.819967    56.819967    17.817512    66.644366    241.10916   -10.256969    241.12687   -2.9348596    241.14527    -36615.54     188.3738 
    4150    56.822251    56.822251    56.822251   -49.465144   -33.893451    241.06294  -0.32570531    241.07228   -114.17628    241.10859   -36612.746    187.36599 
    4200    56.821996    56.821996    56.821996   -33.529823    19.149617    241.11399   -32.741396    241.10989   -86.997689    241.10207   -36612.256    187.98551 
    4250    56.819964    56.819964    56.819964    50.098739    146.10926    241.20511    32.823337    241.12178   -28.636376    241.16309   -36614.199    190.32293 
    4300    56.820632    56.820632    56.820632    64.912277    62.766518    241.17797    87.491558    241.18386    44.478754    241.13818   -36609.728    188.13535 
    4350    56.823611    56.823611    56.823611    -58.39621   -31.140897    241.03288   -73.925314    241.06064   -70.122418    241.05676   -36613.227     191.5677 
    4400    56.823259    56.823259    56.823259   -9.0427375    78.854089    241.08099   -72.116352    241.08295    -33.86595    241.06265   -36609.141    189.65047 
    4450    56.822138    56.822138    56.822138    56.918326    59.648655    241.08781    46.011883    241.10919     65.09444    241.12381   -36609.657     190.9818 
    4500    56.822493    56.822493    56.822493     77.48494     81.01056    241.09506    30.516858    241.13676     120.9274    241.11452   -36607.546    190.45783 
    4550    56.824715    56.824715    56.824715   -83.059038   -83.381745    241.04422   -76.207965    241.03548   -89.587404    241.04012   -36610.122    193.23604 
    4600    56.823997    56.823997    56.823997    30.055534    45.312323    241.07808   -17.828612    241.08662    62.682891    241.11134   -36605.622    191.03117 
    4650    56.823985    56.823985    56.823985    10.785894    35.608394    241.07744   -53.049642    241.11742    49.798929    241.09139   -36607.771    193.50116 
    4700    56.825125    56.825125    56.825125   -35.181355   -79.387804    241.01867   -50.998502    241.02861    24.842242     241.0121   -36608.818    195.20666 
    4750    56.825408    56.825408    56.825408   -13.021697    32.129655    241.00466   -2.5216482    240.99724   -68.673097    241.02523   -36607.626    195.32824 
    4800    56.825224    56.825224    56.825224    26.421248    75.432699    241.03599   -48.484882    241.02412    52.315926    241.07255   -36603.167    193.15013 
    4850    56.825395    56.825395    56.825395    38.815424    47.281607     241.0721    15.986633    241.06159    53.178033      241.075   -36603.314     194.2155 
    4900    56.826447    56.826447    56.826447    12.525212  -0.10950453    241.09088   -27.068108    241.04454    64.753248     241.0358   -36603.265    195.13621 
    4950    56.827025    56.827025    56.827025   -34.159233   -65.767832    241.03773    37.927447    240.99122   -74.637313    241.00868   -36602.003    195.20947 
    5000    56.826764    56.826764    56.826764    38.145329    59.881707    241.04748   -22.042354    241.00501    76.596634    241.02467     -36602.8    196.72743 
    5050    56.827639    56.827639    56.827639   -79.478654   -77.603486    240.98888   -78.354051    240.94939   -82.478424     241.0038   -36604.845    199.13332 
    5100    56.826552    56.826552    56.826552    17.012551    42.983495    241.00938   -17.871701    241.05862     25.92586    241.02954   -36601.642    197.83325 
    5150    56.826641    56.826641    56.826641    62.852475    47.628594    241.06243    85.596847    241.04847    55.331985     241.0586   -36599.148     197.0341 
    5200    56.828869    56.828869    56.828869   -100.09446   -34.194426    240.96211   -136.41262     240.9759   -129.67635     240.9625   -36602.107    200.07479 
    5250    56.828622    56.828622    56.828622    35.387857    20.353323     240.9886    64.423688    240.98761    21.386561    240.96895   -36598.621      198.576 
    5300    56.829253    56.829253    56.829253   -20.328524   -41.128295     240.9864    17.351121    240.96564   -37.208397    240.97197   -36599.584    200.21399 
    5350    56.830268    56.830268    56.830268   -6.7244489   -47.055805    240.94992   -7.6169841    240.96722    34.499442    240.94037   -36597.724    199.85127 
    5400    56.830263    56.830263    56.830263   -47.150556   -4.3288913    240.96012   -28.785953    240.92209   -108.33682    240.95764   -36597.505    200.66006 
    5450     56.82875     56.82875     56.82875    62.311852    29.596818    241.02025    80.504935    241.02819    76.833802    241.02592   -36594.218    199.28944 
    5500    56.829679    56.829679    56.829679    11.113108    56.462825    240.95772    13.029437    240.97159   -36.152938    240.98496   -36596.722    202.01252 
    5550    56.831164    56.831164    56.831164    10.212174    24.493259     240.9467    62.804326    240.90695   -56.661063    240.93089   -36593.796    200.90222 
    5600    56.831854    56.831854    56.831854   -43.200361     70.49338    240.86057   -100.96228    240.89029   -99.132183    240.87443   -36595.792    203.26658 
    5650    56.829702    56.829702    56.829702    62.122766    66.922577    240.99237    76.931183    241.00037    42.514539    241.02229   -36591.352     201.0894 
    5700    56.830376    56.830376    56.830376    90.499452    118.91219    240.98842    88.140474    240.98283    64.445694    240.98331   -36590.971    201.76369 
    5750    56.833678    56.833678    56.833678   -53.949935   -67.386511    240.87024   -41.318186    240.88668   -53.145107    240.88675   -36590.789    202.59202 
    5800    56.833086    56.833086    56.833086   -17.443168    18.640278    240.88434     1.601541    240.88786   -72.571323    240.87415   -36591.628    204.12867 
    5850    56.831668    56.831668    56.831668    21.588045    104.69248    240.93636   -1.9532295    240.93282   -37.975117    240.93382   -36593.275    206.23968 
    5900    56.833042    56.833042    56.833042   -10.044456   -51.790523     240.8739   -26.983696    240.90674    48.640851     240.8705   -36592.862    206.89137 
    5950    56.835719    56.835719    56.835719   -95.641188   -11.295904     240.7992   -153.93025    240.78055   -121.69741    240.83482   -36591.107    206.60204 
    6000    56.835469    56.835469    56.835469   -28.910472   -55.322506    240.82619   -51.562022    240.82533    20.153111    240.80931   -36589.228    206.22335 
    6050    56.833792    56.833792    56.833792    4.4468802   -13.273139    240.85616   -14.786089    240.81843    41.399869    240.81003   -36591.988    209.11802 
    6100     56.83334     56.83334     56.83334    81.670586    156.31433    240.91985    72.355332    240.92246    16.342095    240.91206   -36585.851    205.73458 
    6150    56.836103    56.836103    56.836103    6.9606108    42.499517    240.83576   -95.351665    240.86719     73.73398    240.87039   -36583.229     204.8259 
    6200    56.837187    56.837187    56.837187   -85.683342   -58.746043    240.74638   -119.57313    240.78649   -78.730852    240.79918   -36587.826    209.01139 
    6250    56.835224    56.835224    56.835224    46.557464    11.000205    240.80105    102.03221    240.83923     26.63998    240.85487   -36586.464    208.98991 
    6300    56.835566    56.835566    56.835566    22.125043    17.103128     240.8156    33.197947    240.80913    16.074055    240.80008   -36587.504    210.66813 
    6350    56.837503    56.837503    56.837503    5.2271789    86.083859    240.81665   -79.903922    240.78158    9.5015994    240.81727   -36582.128    207.81466 
    6400    56.838923    56.838923    56.838923   -61.703902   -59.176325     240.7469    -74.08968    240.74836     -51.8457     240.7635   -36583.059    209.40881 
    6450    56.836761    56.836761    56.836761    56.396771    88.837311    240.81431    51.569539    240.88018    28.783464    240.88544   -36578.652    207.24096 
    6500    56.836108    56.836108    56.836108    49.211136   -24.838062    240.81787    91.962389    240.82186     80.50908    240.83461   -36585.172    212.76915 
    6550    56.838454    56.838454    56.838454   -1.2242697    86.582859    240.73807    -38.88591    240.78488   -51.369758    240.71732   -36580.595    210.47932 
    6600    56.839994    56.839994    56.839994   -59.870032   -17.199496    240.72841   -58.927804    240.72931    -103.4828    240.73409   -36580.512    211.35667 
    6650    56.838715    56.838715    56.838715    -36.53991   -66.152555    240.81668   -66.132468     240.7831    22.665292    240.77611   -36583.116    214.11978 
    6700    56.837653    56.837653    56.837653    48.353054    83.638153    240.83073    91.985822    240.83861   -30.564814    240.82441   -36579.102    212.21985 
    6750    56.839513    56.839513    56.839513   -29.270936   -37.189601     240.7381   -78.341109    240.74006    27.717902    240.74678   -36581.904    215.12928 
    6800    56.841066    56.841066    56.841066   -27.690294    21.344941    240.69605   -26.669752     240.6856    -77.74607    240.72481   -36578.832    213.89257 
    6850    56.840841    56.840841    56.840841   -79.412144   -63.207777    240.68657   -119.94333    240.71537   -55.085321    240.71673   -36579.623     215.3783 
    6900    56.838307    56.838307    56.838307    125.62454    173.93467    240.82336    122.99403    240.84296    79.944913    240.86837    -36574.73    212.85514 
    6950    56.840922    56.840922    56.840922   -27.583068    8.5269478    240.73715   -93.896212    240.75268    2.6200617    240.76648   -36578.108    216.15684 
    7000     56.84355     56.84355     56.84355   -78.813867   -49.875381    240.65646   -48.257275    240.66129   -138.30894    240.65094   -36577.526    216.67301 
    7050    56.842369    56.842369    56.842369   -29.831921   -2.4035377    240.72041    0.4535994    240.71295   -87.545825     240.6984   -36574.636    215.55852 
    7100    56.841144    56.841144    56.841144    18.095139    5.3815645     240.7492    35.431048    240.74195    13.472803    240.72226   -36577.254    218.32475 
    7150    56.841853    56.841853    56.841853     74.02273    142.27436    240.74925    10.184172    240.76644    69.609655    240.73094   -36570.558    214.52697 
    7200    56.844136    56.844136    56.844136   -84.718317   -173.26202    240.60301    27.274815    240.63678   -108.16774    240.62605   -36575.306    218.79281 
    7250    56.842781    56.842781    56.842781    61.081133    74.973469     240.7062    8.7315841    240.70409    99.538347    240.70054   -36570.546    216.35732 
    7300    56.842824    56.842824    56.842824    9.9311418    40.584082    240.70426    15.125693    240.69044   -25.916349    240.72766    -36572.28    218.49125 
    7350    56.844445    56.844445    56.844445   -5.1000228    13.511658    240.65975   -52.870357    240.62728     24.05863    240.62713   -36572.403    219.49535 
    7400    56.844932    56.844932    56.844932    6.7807896    -19.81658    240.63668    92.444764    240.70428   -52.285815    240.63513   -36567.925    217.25048 
    7450    56.845196    56.845196    56.845196   -33.953192   -47.871966    240.63378   -1.8206271    240.68117   -52.166982    240.63474   -36570.389    219.89354 
    7500    56.844349    56.844349    56.844349    61.584437    128.99101    240.66178   -56.200387    240.67699    111.96268    240.64166   -36568.318    219.34903 
    7550    56.845377    56.845377    56.845377    -26.47981    11.161814    240.60204   -44.107721    240.60205   -46.493521    240.64053   -36569.707    221.23597 
    7600    56.845895    56.845895    56.845895    24.289188    17.957796    240.64603    17.051605    240.63034    37.858163    240.63831   -36567.298    220.44913 
    7650    56.845724    56.845724    56.845724   -4.6138572   -16.183617     240.6278    9.4486186    240.62273   -7.1065727    240.62914   -36566.614     220.8707 
    7700    56.845572    56.845572    56.845572     37.04861    90.512447    240.64681   -19.102755    240.65154    39.736137    240.65198   -36565.665    221.10437 
    7750    56.846259    56.846259    56.846259     31.87068    16.585386    240.64006     49.49833    240.67169    29.528323    240.65301   -36562.473    219.75672 
    7800    56.847283    56.847283    56.847283   -52.020832   -24.613647    240.57386   -62.853994    240.60408   -68.594854    240.61273   -36569.616    225.69392 
    7850    56.847821    56.847821    56.847821   -53.068473   -155.14515    240.56576    29.182226    240.54261   -33.242494    240.57222   -36566.415     224.3339 
    7900    56.846915    56.846915    56.846915    6.4147915    123.26922    240.58616   -128.56465    240.58177    24.539801    240.59124   -36567.423    225.95089 
    7950    56.847204    56.847204    56.847204    2.6732696    5.7306465    240.62762   -22.913786     240.6312    25.202948    240.62631   -36563.023    223.73679 
    8000    56.848235    56.848235    56.848235   -19.302297   -39.483374    240.59013     47.61011    240.60444   -66.033628    240.57491   -36562.119     223.9973 
    8050    56.848381    56.848381    56.848381    2.5413274   -31.801816    240.56477   -42.517043    240.56289    81.942841    240.57945   -36564.746    226.74195 
    8100    56.849428    56.849428    56.849428   -13.064817    61.818735    240.54411   -9.9016425    240.56975   -91.111543     240.5963   -36560.412    224.57892 
    8150    56.849918    56.849918    56.849918   -1.5112566   -12.717261    240.56633    41.696862    240.52929    -33.51337    240.52247   -36559.674    224.94523 
    8200    56.849628    56.849628    56.849628   0.84488228    17.307874    240.54544    4.3877269    240.57525   -19.160954    240.54421   -36561.257    226.95346 
    8250    56.849403    56.849403    56.849403   -29.905704   -39.518304    240.60219   -10.896355    240.58862   -39.302452     240.5683   -36558.918    226.18667 
    8300    56.849121    56.849121    56.849121     52.03452    112.34156    240.59675    28.907556    240.55509     14.85444    240.59441   -36558.526    226.79595 
    8350    56.850498    56.850498    56.850498    1.1136224   -38.200408    240.51745    1.0060852    240.49526     40.53519    240.54426   -36559.113    228.09591 
    8400    56.852008    56.852008    56.852008    -49.73858    3.7715073    240.49879   -72.316596    240.47832   -80.670651    240.46819   -36560.144    229.70153 
    8450    56.852167    56.852167    56.852167   -46.970025   -86.744564    240.49157    33.550086    240.47164   -87.715597    240.51237   -36556.694    228.14968 
    8500    56.851005    56.851005    56.851005     80.66316    149.65051    240.54603    55.970375    240.54748    36.368592     240.5325   -36555.688     228.3191 
    8550     56.85178     56.85178     56.85178    43.098919    73.636639    240.55001    60.299207     240.5156   -4.6390878    240.55545   -36553.166    227.41461 
    8600    56.853684    56.853684    56.853684   -62.527142   -32.620803    240.48939   -7.7784827    240.45763   -147.18214     240.4778   -36557.545    231.37648 
    8650    56.853352    56.853352    56.853352   -54.810131    -38.09181    240.45752   -97.230377    240.52069   -29.108205    240.44822   -36555.339    230.69017 
    8700    56.851777    56.851777    56.851777    57.351269    83.767126    240.49237     143.8738    240.49574   -55.587118    240.50407   -36555.655     231.7864 
    8750    56.852298    56.852298    56.852298     53.47167    157.20548    240.50794    49.977405    240.50194   -46.767879    240.50186   -36553.086    230.84571 
    8800    56.854658    56.854658    56.854658    12.525858   -68.642565    240.46511     59.77739    240.40706    46.442749    240.46043   -36550.328    229.76459 
    8850    56.856032    56.856032    56.856032   -97.914841   -24.964722    240.40457   -165.74703    240.34891   -103.03277    240.42729   -36554.174    233.34105 
    8900    56.853011    56.853011    56.853011    86.985605    116.74187    240.49408    120.88361    240.48284    23.331331    240.50296   -36549.193    230.68843 
    8950    56.852752    56.852752    56.852752    43.310976     66.67455    240.50884    97.313596    240.49026   -34.055219    240.48915   -36554.393    235.21666 
    9000    56.856027    56.856027    56.856027   -34.744341   -12.770337    240.41149   -10.443599    240.49814   -81.019086    240.41843    -36549.71    232.76866 
    9050    56.857701    56.857701    56.857701   -98.795279   -90.378524    240.36123   -20.592726    240.35844   -185.41459    240.39416   -36549.926    233.78176 
    9100     56.85447     56.85447     56.85447    61.588367    95.269547     240.4763   0.21579166    240.48237    89.279762    240.48766   -36547.306    232.78602 
    9150    56.853832    56.853832    56.853832    104.62124    83.584872    240.44602    153.53306    240.46552    76.745781    240.48512    -36548.71    234.63202 
    9200    56.857402    56.857402    56.857402    -74.12141   -17.922546    240.36624   -113.43995    240.37013   -91.001733    240.37776   -36550.584    236.80488 
    9250    56.858281    56.858281    56.858281   -21.664656    12.531836    240.37531   -22.488838    240.40685   -55.036966    240.38356   -36544.417    233.30188 
    9300    56.857061    56.857061    56.857061   -14.670366    11.389467     240.3615   -14.238474    240.39324   -41.162092    240.38399   -36548.393    236.95215 
    9350    56.855451    56.855451    56.855451    179.03332    293.18646    240.47237    98.503148    240.45669    145.41036    240.47437   -36542.077    233.34848 
    9400    56.858931    56.858931    56.858931   -48.330915   -80.119583    240.38235   -20.798809    240.38743   -44.074353    240.38436   -36543.424    235.13415 
    9450    56.860053    56.860053    56.860053   -62.019081    71.776319    240.35891   -177.68385    240.30843   -80.149714    240.33646   -36544.395    236.65916 
    9500    56.857363    56.857363    56.857363    22.144485      132.798    240.39683   -23.244274    240.39155    -43.12027    240.40437   -36544.959     237.8969 
    9550    56.856718    56.856718    56.856718    88.130772    6.5372717    240.45143    83.265386    240.42122    174.58966    240.42246   -36543.834     237.9386 
    9600    56.860512    56.860512    56.860512   -58.123824   -7.9858301    240.30713   -155.78403    240.28036   -10.601614    240.31306   -36545.919    240.24223 
    9650    56.860916    56.860916    56.860916   -93.302354   -46.686435    240.32456   -74.977827    240.30559    -158.2428     240.3259   -36542.017    238.32636 
    9700    56.857253    56.857253    56.857253    144.07492     194.7485     240.4297     9.211564    240.45904     228.2647    240.48013    -36538.83    236.90287 
    9750    56.858936    56.858936    56.858936    46.091304   -13.778146    240.35215    78.138092    240.34194    73.913966    240.35922   -36544.506    241.73059 
    9800    56.863063    56.863063    56.863063   -98.435868   -93.690357    240.24658   -144.10596    240.23434   -57.511289    240.28164   -36539.211    238.82299 
    9850    56.863398    56.863398    56.863398   -166.44632   -179.36678    240.22812   -189.96593    240.21991   -130.00627    240.20427   -36544.697    243.50753 
    9900    56.858424    56.858424    56.858424     154.6618    270.05072    240.41234    39.171054    240.40964    154.76364    240.42698   -36537.051    238.94449 
    9950    56.859051    56.859051    56.859051    105.68897   -24.106795    240.41009    222.96105    240.36492    118.21267    240.40899   -36537.101    239.79416 
   10000    56.864491    56.864491    56.864491   -142.01079   -15.189103    240.15145   -194.73627    240.16885   -216.10699    240.21889   -36541.157    243.47305 
   10050    56.864017    56.864017    56.864017   -100.58665   -103.34204    240.27049   -148.12735    240.22699   -50.290552    240.22091   -36538.363    242.31793 
   10100    56.860065    56.860065    56.860065    99.031098    120.48734    240.33913    140.57911    240.32723    36.026836    240.36051   -36539.302    243.78778 
   10150    56.861316    56.861316    56.861316    94.920897    208.18636    240.32265    2.5628354    240.33223    74.013497    240.36603   -36534.772    241.40333 
   10200    56.866052    56.866052    56.866052   -160.16343   -259.04395    240.18807   -103.60708    240.15406   -117.83925    240.20396   -36539.644     245.6404 
   10250    56.864812    56.864812    56.864812   -26.597891   -15.466019    240.19608   -46.329533    240.22029   -17.998121    240.24832    -36533.43    242.06683 
   10300    56.861445    56.861445    56.861445    149.76929    126.29124    240.32108    141.06916    240.30332    181.94746     240.3017   -36533.981     243.2582 
   10350    56.862821    56.862821    56.862821    11.487024    51.906567    240.30243    56.814679     240.2444   -74.260174    240.29929    -36534.68    244.55298 
   10400    56.865893    56.865893    56.865893   -35.474758   -12.459707    240.19614   -17.783992    240.18595   -76.180575    240.20119   -36532.537    243.83525 
   10450    56.866326    56.866326    56.866326   -51.546655   -89.188483    240.18182   -32.574048    240.16117   -32.877432    240.14787   -36535.173    246.49081 
   10500    56.864493    56.864493    56.864493    47.091711    83.029365    240.27697    43.683905    240.27441    14.561862    240.26086   -36530.875    244.24843 
   10550    56.865536    56.865536    56.865536    13.125265   -9.8126416    240.17908   -31.079632    240.20887    80.268068    240.21053   -36534.847    247.83816 
   10600    56.867189    56.867189    56.867189   -40.285396   -58.533814    240.18005   -71.440551    240.15694    9.1181759    240.18573   -36529.547    244.88805 
   10650    56.866544    56.866544    56.866544   -18.510448   -60.434257    240.18874   -10.587505    240.17483    15.490418    240.22982   -36531.633    247.14421 
   10700    56.865061    56.865061    56.865061    33.536942    47.157644    240.21207    2.4967929    240.19777     50.95639    240.22399   -36534.489    249.94018 
   10750    56.867196    56.867196    56.867196   0.12503737   -8.5946339    240.17911   -34.294356    240.15195    43.264102    240.14288   -36530.161    247.66722 
   10800    56.869507    56.869507    56.869507   -99.133764   -105.07185    240.09374   -45.764678    240.11899   -146.56476    240.12758   -36530.212    248.48353 
   10850     56.86729     56.86729     56.86729  0.080019596    61.348077    240.17866   -60.368734    240.19203  -0.73928425    240.19231   -36529.742    248.92105 
   10900    56.866329    56.866329    56.866329    78.433456    76.985378    240.20659    118.89892    240.22796    39.416073    240.24396   -36528.432    248.76914 
   10950    56.869308    56.869308    56.869308   -57.767166    25.148891    240.14448   -105.80808    240.10584   -92.642312    240.16892   -36527.111     248.6038 
   11000    56.869779    56.869779    56.869779   -91.992592    -97.54218    240.10064    -5.355358    240.09472   -173.08024    240.12815   -36527.205    249.44124 
   11050     56.86616     56.86616     56.86616    177.64919    197.87623    240.22849    157.66529    240.19806    177.40605    240.22327    -36523.86    247.85071 
   11100    56.868122    56.868122    56.868122   -14.480279   -38.943133    240.16311    7.9216503     240.1293   -12.419354    240.15298   -36528.225    251.68765 
   11150    56.870895    56.870895    56.870895   -47.086327   -41.688967     240.0677    45.607891    240.07961   -145.17791    240.09243   -36524.672    249.94351 
   11200    56.870861    56.870861    56.870861   -104.78092   -135.90639    240.04866   -90.136313     240.0709   -88.300072    240.07827   -36527.959    253.01625 
   11250    56.867992    56.867992    56.867992    80.906383   -4.3126116    240.12992    142.35539    240.18046    104.67637    240.19246   -36525.763    252.21917 
   11300     56.86846     56.86846     56.86846    65.605904    93.841189    240.18791    23.717776    240.14402    79.258747    240.18396   -36521.399    249.89766 
   11350    56.871106    56.871106    56.871106   -6.8129354     18.12323    240.12549    39.509997    240.04046   -78.072033    240.06965   -36522.876     251.6836 
   11400    56.872009    56.872009    56.872009   -51.276761   -42.002175    240.06494   -43.549156    240.06465   -68.278952    240.08123   -36522.258    251.99223 
   11450    56.869785    56.869785    56.869785    110.31365   -23.285011    240.10928    179.32469    240.13062    174.90128    240.18475   -36519.156    250.54758 
   11500    56.870827    56.870827    56.870827    9.5936307   -24.980564    240.12284     5.408319    240.10223    48.353137    240.09963   -36524.096    254.76989 
   11550    56.873401    56.873401    56.873401   -36.903003   -95.946526    240.07202    16.419421    239.99317   -31.181905    240.07193    -36520.69    253.10383 
   11600    56.873767    56.873767    56.873767   -131.43001   -22.182242    240.00202   -228.87976    239.99549   -143.22802    239.97083   -36524.429    256.47714 
   11650    56.870768    56.870768    56.870768    39.895285    81.191456    240.16134    74.332659    240.07273    -35.83826    240.10371   -36519.263    253.56795 
   11700    56.870642    56.870642    56.870642    116.35714    45.884615    240.12207    212.79541    240.11135     90.39139    240.11722   -36520.309    255.04007 
   11750    56.874513    56.874513    56.874513   -63.424314   -126.60176    240.01675    -70.14658    239.98734    6.4753977     240.0231    -36516.31    252.94374 
   11800    56.875355    56.875355    56.875355   -46.467621   -124.81582    239.93109    17.302101    239.97571   -31.889145    240.02399   -36517.383    254.42658 
   11850    56.872232    56.872232    56.872232    11.273582    5.6962853    240.06926   -58.665426      240.034    86.789888    240.00633   -36523.065    259.15449 
   11900    56.871383    56.871383    56.871383    131.23855     122.7201    240.10108    134.17837     240.0762    136.81718    240.11085   -36515.889    254.80974 
   11950    56.875942    56.875942    56.875942   -58.773173   -89.044764    239.97633    46.925168    239.93697   -134.19992    240.00673   -36516.043    255.63296 
   12000    56.877243    56.877243    56.877243   -112.75466   -166.64461    239.95339   -63.296873    239.94078    -108.3225     239.9699   -36517.685    257.49977 
   12050    56.873147    56.873147    56.873147    30.408748    -40.79625     240.0022    73.423791    240.05371    58.598702    240.03342    -36518.19     258.5689 
   12100    56.871671    56.871671    56.871671    78.478824    47.418831    240.10402    171.36936    240.07316    16.648278    240.10927   -36518.697    259.63154 
   12150    56.876291    56.876291    56.876291    25.244223   -87.837616    239.99318    25.323282    239.94494      138.247    240.01082   -36511.572    255.30816 
   12200    56.879789    56.879789    56.879789   -226.38531   -268.72931    239.86943   -284.52783    239.88277    -125.8988    239.86023   -36516.693    259.62406 
   12250      56.8744      56.8744      56.8744    82.328458    82.536055    240.04895    43.289565    240.02618    121.15975    240.07519   -36513.706    258.21483 
   12300    56.873284    56.873284    56.873284    98.238805    102.61493     240.0934    90.400461    240.03335    101.70102    240.03464   -36516.042    260.56037 
   12350    56.878201    56.878201    56.878201   -90.078247   -48.878113    239.91844    -211.4649    239.88786   -9.8917284    239.93297   -36513.119    259.19362 
   12400    56.879037    56.879037    56.879037   -110.77093   -177.64656    239.88691    -61.00398    239.84265   -93.662263    239.87568   -36512.978    259.78949 
   12450    56.874417    56.874417    56.874417    111.06738    93.587059    240.05012   -6.5624922    240.00582    246.17757    240.06949   -36511.412    259.37022 
   12500    56.874435    56.874435    56.874435    73.470654    67.603124    240.04434       112.65    240.00641    40.158833    240.01851   -36513.708    261.67062 
   12550    56.878852    56.878852    56.878852   -72.342631   -74.556477    239.90907   -169.99685    239.88504     27.52543    239.89275   -36511.151    260.54548 
   12600    56.880396    56.880396    56.880396   -113.40605   -136.41379    239.88116   -111.61178    239.84457   -92.192588    239.87523   -36510.586    260.82595 
   12650    56.876809    56.876809    56.876809    94.900239    51.106993    239.96458    102.13513    239.96182     131.4586    239.99564   -36509.516    260.74703 
   12700    56.876831    56.876831    56.876831    114.29304    104.93348    239.95449     52.91547    239.93145    185.03016     239.9942   -36508.534    260.72966 
   12750    56.880955    56.880955    56.880955   -117.61029   -247.83019    239.86368   -103.61401    239.86315   -1.3866525    239.86475   -36510.399    262.71518 
   12800    56.880292    56.880292    56.880292     -74.6217    -127.3411    239.87789   -87.819847     239.8599   -8.7041567    239.86797   -36508.402    261.97231 
   12850     56.87693     56.87693     56.87693    1.9888575   -81.001986    239.92935   -46.088433      239.919    133.05699     239.9607   -36513.031     265.9018 
   12900    56.876706    56.876706    56.876706     190.3332    135.19266    240.00901     164.5141    239.94989    271.29284    240.02703   -36507.282    262.50415 
   12950    56.882883    56.882883    56.882883   -137.55546   -142.03366    239.82009   -145.21792    239.79189   -125.41481    239.83323   -36504.888    261.47154 
   13000    56.881865    56.881865    56.881865   -65.635646   -118.89377    239.82318   -105.50936    239.79038    27.496196    239.84862   -36507.297     263.8234 
   13050    56.877028    56.877028    56.877028    172.86677    152.03358    240.00604    185.09563    239.98665    181.47109    240.02065   -36503.199    261.58511 
   13100    56.879123    56.879123    56.879123    47.774233    22.971729    239.92054     51.28416    239.90126    69.066811     239.9024   -36506.812    264.78001 
   13150    56.883432    56.883432    56.883432   -94.522645   -80.953606    239.79291   -164.16606    239.74247   -38.448267    239.81115   -36506.489    265.20091 
   13200    56.882902    56.882902    56.882902   -102.95001   -202.48202     239.8396   -98.462739    239.80042   -7.9052703    239.81389   -36506.679    265.97758 
   13250    56.879345    56.879345    56.879345    91.447866    91.588398    239.94362    26.421968    239.91121    156.33323    239.94597   -36504.664    265.19617 
   13300    56.880694    56.880694    56.880694    45.362014   -34.526738     239.8309   -21.428192    239.83801    192.04097    239.88879   -36503.804    265.22997 
   13350    56.883482    56.883482    56.883482   -43.744955     30.30167    239.77253   -149.44213    239.81639   -12.094406    239.81813   -36503.078    265.35302 
   13400    56.883273    56.883273    56.883273   -83.270707   -250.81007    239.82443    -69.75202    239.80314    70.749973    239.82301   -36502.819    265.79797 
   13450    56.880651    56.880651    56.880651    94.995331    87.080967    239.90874    26.766256    239.84136    171.13877    239.90139   -36505.268    268.15402 
   13500    56.882817    56.882817    56.882817    11.039394   -85.394829    239.82861   -1.2770372    239.83047    119.79005    239.86821    -36501.22    265.91984 
   13550    56.885608    56.885608    56.885608   -126.19796   -185.37594     239.7217   -179.35941    239.71889   -13.858531    239.74986   -36503.521    268.16696 
   13600    56.883271    56.883271    56.883271    7.7697774   -20.829806    239.83759    14.108163    239.78631    30.030976    239.81973   -36502.467    268.03814 
   13650    56.880992    56.880992    56.880992    129.73929    134.60778    239.89622    52.275088    239.86963    202.33501    239.93083   -36497.797     265.3611 
   13700    56.883536    56.883536    56.883536    20.036436   -37.388856    239.85152    13.804319    239.82043    83.693844    239.85533   -36499.037    266.84377 
   13750    56.886699    56.886699    56.886699   -119.60191   -21.258941    239.73942   -184.20056     239.7028   -153.34624    239.73408   -36500.644    268.58652 
   13800    56.884057    56.884057    56.884057    57.499664    11.151808    239.85003    108.74949    239.79026    52.597694    239.78581   -36495.958    265.89087 
   13850    56.882384    56.882384    56.882384    41.858702    50.551686    239.84355   -58.438601    239.85462    133.46302    239.86474   -36502.253     270.9349 
   13900    56.883933    56.883933    56.883933    20.025314    46.874906    239.82622   -10.333844    239.82995    23.534881    239.78432   -36499.628    269.68676 
   13950    56.887095    56.887095    56.887095   -81.994839   -39.117717     239.7391   -99.861373    239.70044   -107.00543     239.6843   -36499.046    269.87428 
   14000    56.885961    56.885961    56.885961   -15.150204    35.574007    239.75527   -120.44713    239.70752    39.422512    239.76498   -36497.156    269.13761 
   14050    56.883223    56.883223    56.883223     71.72275   -26.049342    239.84824    115.22173    239.84083    125.99586    239.84051   -36498.583    270.73053 
   14100    56.884343    56.884343    56.884343    47.340636   -3.1082221    239.84272   -57.011195    239.80917    202.14132    239.82776    -36495.75    269.31997 
   14150    56.887212    56.887212    56.887212   -55.697285   -25.085652    239.75452   -2.3125438     239.7498   -139.69366    239.75405   -36496.282    270.27759 
   14200    56.886997    56.886997    56.886997    3.9619965    -13.11553    239.72865   -83.996182    239.75692     108.9977    239.70573   -36493.867    269.15885 
   14250    56.885501    56.885501    56.885501    26.191782   -54.725124    239.80739    81.992712    239.75835    51.307757    239.77908   -36495.107    270.61429 
   14300    56.885732    56.885732    56.885732    122.64097    26.009676    239.78104    12.225796    239.76228    329.68743    239.80559   -36493.471    270.03763 
   14350    56.888853    56.888853    56.888853   -78.200624   -120.07071    239.67373   -116.43934    239.65567    1.9081829    239.65731   -36495.543     272.0728 
   14400    56.888301    56.888301    56.888301    34.735356     24.40051    239.69885    85.186215    239.68403   -5.3806591    239.66961   -36493.947    271.51493 
   14450    56.887517    56.887517    56.887517   -37.240188    10.622599    239.76003   -203.19189    239.73216    80.848725    239.73429   -36495.427    273.12083 
   14500    56.886974    56.886974    56.886974    68.439582   -1.9800165    239.74691    66.640628    239.74728    140.65813    239.75598    -36493.29    272.17676 
   14550    56.889182    56.889182    56.889182   -55.682303    -39.50121    239.67249   -136.77517    239.66508    9.2294733    239.69848   -36494.711    273.73873 
   14600    56.889012    56.889012    56.889012   -28.985119   -59.231916     239.6751   -98.993684    239.71824    71.270241    239.70769   -36491.986    272.37513 
   14650    56.887361    56.887361    56.887361    78.585364    133.42277    239.73549   -1.5960223    239.73989    103.92935     239.7522   -36491.714    272.73443 
   14700     56.88862     56.88862     56.88862   -58.734077   -109.27115    239.68451   -81.900589    239.66695    14.969513    239.66976   -36496.283    276.50653 
   14750    56.888985    56.888985    56.888985    2.8537523   -3.9073304    239.72556   -66.283683    239.70299     78.75227    239.70831   -36490.696    273.11182 
   14800    56.888907    56.888907    56.888907   -19.161858    63.275425    239.71201   -60.661225    239.69251   -60.099773    239.70374   -36491.934    274.52754 
   14850    56.888173    56.888173    56.888173    109.46163    47.787793    239.75194   -58.210391    239.68948     338.8075    239.69433   -36490.365    273.96442 
   14900    56.890606    56.890606    56.890606   -95.053114   0.02339692    239.63917   -116.76286    239.64279   -168.41988    239.67148   -36492.375    275.92029 
   14950    56.889994    56.889994    56.889994   -5.0220196   -183.77503    239.67179    -38.54847    239.67603    207.25744    239.66466   -36488.616    273.80589 
   15000    56.888459    56.888459    56.888459    46.855633    78.737891    239.70425    36.647109    239.71538    25.181898    239.70873    -36490.19    275.44536 
   15050    56.888954    56.888954    56.888954   -9.6023083   -45.904425    239.71907   -87.367039     239.6927    104.46454    239.71286   -36491.154    276.65452 
   15100    56.890451    56.890451    56.890451   -56.774675   -103.84046    239.66721   -109.49569    239.67556    43.012124    239.68266   -36489.274    275.85398 
   15150    56.890424    56.890424    56.890424   -48.379254   -153.65101    239.61009   -105.85689    239.63541    114.37015    239.65716     -36491.3    277.80969 
   15200    56.888784    56.888784    56.888784    87.634494    6.1356522    239.69473    60.741603    239.68313    196.02623    239.71315    -36488.51    276.36227 
   15250    56.889785    56.889785    56.889785    17.949486    16.762174    239.72767   -57.338962    239.68786    94.425247    239.70442   -36487.023    275.82512 
   15300    56.891642    56.891642    56.891642   -16.241548    -170.6282    239.66059   -33.433419    239.63437    155.33698    239.65257    -36484.64    274.65311 
   15350    56.891835    56.891835    56.891835   -91.586952    -42.59379    239.60231   -185.66837    239.60111   -46.498693    239.60688   -36491.454    279.96609 
   15400    56.888615    56.888615    56.888615     93.52794     17.90775     239.7745    101.62042    239.72315    161.05564    239.73071   -36484.232     275.3798 
   15450    56.889808    56.889808    56.889808    24.496751    21.211802    239.62822   -41.941334    239.69734    94.219784    239.66141   -36492.192    281.49334 
   15500    56.893711    56.893711    56.893711   -79.327417    17.560948    239.60005   -208.20825    239.55668   -47.334947    239.57973   -36483.487    275.85208 
   15550    56.894081    56.894081    56.894081   -110.56586   -192.66487    239.57876   -118.01076    239.56383   -21.021957    239.60635   -36486.493    278.46794 
   15600    56.890352    56.890352    56.890352    75.978322    172.69339    239.67783   -12.268976    239.67195    67.510555    239.69144   -36485.173    278.03425 
   15650    56.890031    56.890031    56.890031     96.64499   -45.235391    239.67405    164.63391    239.65026    170.53645    239.68513   -36487.039    279.84381 
   15700    56.894261    56.894261    56.894261   -64.779364  -0.62616814    239.56098    -189.6787    239.58724   -4.0332253    239.56878    -36483.87    278.09467 
   15750    56.895239    56.895239    56.895239   -153.86075   -166.33989     239.5476   -226.81014    239.54365   -68.432202    239.55551   -36484.831    279.25601 
   15800    56.890182    56.890182    56.890182    109.47489    85.922129    239.67536    101.99214    239.66833    140.51039    239.68801   -36485.302     280.0696 
   15850     56.89035     56.89035     56.89035    129.72671    269.95725    239.73886   -35.161723    239.69368    154.38459    239.72084   -36481.614    277.94646 
   15900    56.895714    56.895714    56.895714   -120.26386   -167.85487    239.54206   -169.06464    239.50614   -23.872081    239.48185   -36484.823    280.68573 
   15950    56.895102    56.895102    56.895102      1.02705    5.6256019    239.56449   -127.80941     239.5518    125.26495    239.53946   -36479.801     277.6167 
   16000    56.892119    56.892119    56.892119    4.7798054   -50.749444    239.61238    72.843386    239.64354   -7.7545262    239.63622    -36484.82     281.6239 
   16050    56.890863    56.890863    56.890863    132.03736    130.46402    239.67423    177.70368    239.68549    87.944372    239.68628   -36482.017    280.11367 
   16100    56.895353    56.895353    56.895353   -124.30315   -227.30463    239.56043   -141.70884    239.52935   -3.8959851    239.53193    -36484.77     282.5132 
   16150    56.896306    56.896306    56.896306   -35.547615   -21.799319    239.53522   -9.2031044    239.53639   -75.640422    239.50574   -36479.637    279.35484 
   16200    56.894415    56.894415    56.894415    3.8988613    38.419817    239.55373   -105.90283    239.51157    79.179594    239.58548   -36483.752    282.71271 
   16250    56.893072    56.893072    56.893072    79.305946    22.663096    239.61465    120.62195    239.62827     94.63279    239.63297     -36480.1    280.59077 
   16300     56.89519     56.89519     56.89519   -9.8924863   -0.6872959     239.5737    86.985758    239.53548   -115.97592    239.53211    -36481.33    281.90493 
   16350    56.897382    56.897382    56.897382   -61.315561   -189.29669    239.49677    -54.13282    239.51586    59.482827    239.49214   -36480.244    281.58518 
   16400    56.896242    56.896242    56.896242   -51.190417   -111.86702    239.52737    23.031555    239.50179   -64.735788    239.55226   -36480.512    282.22032 
   16450    56.892598    56.892598    56.892598    91.000737    76.839873     239.5874    61.303641    239.63372     134.8587      239.608   -36482.957    284.38789 
   16500    56.893676    56.893676    56.893676    113.26595     101.7218     239.6555    4.2529178    239.63634    233.82312    239.67025   -36477.056    280.65897 
   16550    56.899087    56.899087    56.899087   -166.69439   -76.455215     239.4697   -196.12207    239.47086   -227.50588     239.4583   -36480.716    283.67129 
   16600     56.89754     56.89754     56.89754   -82.928843   -94.856268    239.52593   -91.094291     239.5116   -62.835969     239.5012   -36477.149    281.58546 
   16650    56.893507    56.893507    56.893507    85.482249     70.02492    239.62578     183.6632    239.58712    2.7586236    239.60609   -36482.221     285.5919 
   16700    56.895371    56.895371    56.895371    29.242499   -36.844139    239.53941   -34.295597    239.58057    158.86723    239.56128    -36480.65    284.91048 
   16750    56.899242    56.899242    56.899242   -133.97359   -189.87329    239.42672   -149.70926    239.45452   -62.338205    239.41708   -36480.302    285.08948 
   16800     56.89736     56.89736     56.89736    -42.21128   -152.62765    239.55747    55.818335     239.5001   -29.824528    239.52304   -36475.564    282.16438 
   16850    56.893391    56.893391    56.893391    126.68614    143.15799    239.64215    51.078636    239.59222    185.82179    239.64359   -36477.734    284.10823 
   16900    56.894884    56.894884    56.894884    18.389256    33.022407    239.59033    31.334208    239.56848    -9.188847    239.56232   -36480.696    286.60557 
   16950    56.898539    56.898539    56.898539   -12.804635   -73.880937    239.47344    24.667248    239.51001    10.799782    239.49511   -36471.667    280.64556 
   17000    56.898567    56.898567    56.898567    -166.8334   -318.53861     239.4448   -114.40747    239.48385   -67.554108    239.45802   -36480.812    287.49934 
   17050    56.894072    56.894072    56.894072    174.08261    181.10178    239.60865    128.37928    239.59369    212.76676    239.59712   -36477.414    285.50288 
   17100    56.897545    56.897545    56.897545   -33.210443   -10.415349    239.52017   -95.581551    239.52795    6.3655691    239.55242   -36476.858    285.51089 
   17150    56.900399    56.900399    56.900399    -127.7804   -230.66536     239.4954    33.370157    239.39538   -186.04601    239.42787   -36475.928    285.25104 
   17200     56.89737     56.89737     56.89737    14.858068    48.547291    239.49472    7.7513973    239.48712   -11.724484    239.53037   -36475.227    285.15371 
   17250    56.895166    56.895166    56.895166    118.24412    37.743761    239.56326    149.12933    239.57388    167.85926    239.56382    -36475.58    285.79471 
   17300    56.898769    56.898769    56.898769    35.926509    39.911572    239.48893    106.52294    239.49757    -38.65499    239.49402   -36471.852    283.55397 
   17350    56.901476    56.901476    56.901476   -180.36056   -141.64241    239.37965   -192.22136    239.39092    -207.2179    239.35645    -36477.36    287.82397 
   17400    56.897641    56.897641    56.897641    74.546656   -22.614377    239.53164    196.49332    239.55585     49.76102    239.47864   -36473.785    285.68451 
   17450    56.896932    56.896932    56.896932    49.535166    165.97287    239.51962    43.716308    239.54606   -61.083679    239.52286   -36476.859    288.23247 
   17500         56.9         56.9         56.9   -81.307318   -117.66651    239.46871   -13.920099    239.47193   -112.33534    239.46188   -36475.984    287.99008 
   17550    56.900448    56.900448    56.900448   -51.675045   -47.685359     239.4065   -80.208059    239.40308   -27.131718    239.43355   -36474.303    287.17715 
   17600    56.898187    56.898187    56.898187    14.245509   -24.822849    239.51596    14.056305    239.50827     53.50307    239.49027   -36474.852    287.93118 
   17650    56.897512    56.897512    56.897512    92.916973    34.009693    239.57522    134.24025    239.56608    110.50098    239.55872   -36469.551    284.55683 
   17700    56.900523    56.900523    56.900523   -65.221952   -31.546235    239.40827   -58.522486    239.41883   -105.59713    239.38337   -36475.898    289.39429 
   17750    56.901025    56.901025    56.901025    50.774743   -71.077213    239.43533    115.03504    239.44301     108.3664    239.39855   -36467.539    283.86121 
   17800    56.900786    56.900786    56.900786   -60.399228   -59.232473    239.41676   -121.02071    239.45997  -0.94450644    239.44477   -36472.929    288.01699 
   17850    56.898885    56.898885    56.898885    51.889462    21.461743    239.45782    70.720234    239.47989    63.486408    239.48784   -36474.015    289.13842 
   17900     56.89887     56.89887     56.89887   -1.8572999   -57.578366    239.46044    39.687414    239.50775    12.319053     239.4473   -36476.015     290.9011 
   17950    56.901286    56.901286    56.901286   -84.676158   -101.36299    239.43697    -39.34843    239.41524   -113.31705    239.39859   -36470.845    287.60354 
   18000    56.900863    56.900863    56.900863   -7.2039125   -133.93108    239.41196    67.836861    239.41535    44.482481    239.40098   -36472.136    288.86297 
   18050    56.899079    56.899079    56.899079    33.890866    21.778321    239.49212    93.262497    239.47435    -13.36822       239.45   -36471.793    288.96082 
   18100    56.899822    56.899822    56.899822    79.771296    17.590111    239.45605    35.900828    239.46477    185.82295    239.47559   -36469.364    287.58767 
   18150    56.902796    56.902796    56.902796   -119.96418   -35.861939    239.35395   -156.49004    239.36486   -167.54057    239.37452   -36473.081    290.54298 
   18200    56.901628    56.901628    56.901628   -16.542004   -129.92454    239.43568    53.932955    239.41098    26.365573    239.39951   -36470.705    289.20074 
   18250    56.899576    56.899576    56.899576    106.97648    67.395059    239.49611    122.83403    239.49403    130.70034    239.49151   -36467.606    287.34527 
   18300    56.901164    56.901164    56.901164   -15.706688    -89.67526    239.38779    63.422843    239.40881   -20.867649    239.39281   -36472.438    291.08109 
   18350    56.901959    56.901959    56.901959   -19.834482   -127.18268    239.40652   -10.441325    239.42776    78.120562     239.4178   -36466.372     287.1258 
   18400    56.901838    56.901838    56.901838    -57.22142    -79.76832    239.42807   -10.526403    239.38433   -81.369537    239.39738   -36472.805    291.98154 
   18450    56.900672    56.900672    56.900672    14.577977   -46.539506    239.45222    18.723834    239.43181    71.549601    239.44442    -36469.86    290.22739 
   18500    56.900791    56.900791    56.900791    64.472862   -6.9038745    239.45193    115.04193    239.48115    85.280529    239.42384   -36467.652    288.98767 
   18550    56.902627    56.902627    56.902627   -68.282136   -66.280978    239.38189    23.901883    239.37114   -162.46731    239.41629   -36470.486    291.30047 
   18600    56.902356    56.902356    56.902356    30.544851   -103.07124    239.41736    162.63439    239.42524    32.071408    239.40143   -36465.289    287.94819 
   18650    56.902716    56.902716    56.902716   -29.087181     26.46055    239.41685    29.573316    239.37254   -143.29541    239.35219   -36470.661    292.04574 
   18700    56.902556    56.902556    56.902556   -38.740462   -148.43534    239.39856    33.970324    239.38567   -1.7563655    239.35003   -36470.863    292.49436 
   18750    56.902017    56.902017    56.902017    40.209098     50.13563    239.43704     143.0576    239.38297   -72.565936    239.37118   -36467.328    290.30636 
   18800    56.902739    56.902739    56.902739   -44.561075   -166.50627    239.34242      59.4161    239.40324   -26.593058    239.39178   -36468.328    291.31118 
   18850    56.902455    56.902455    56.902455    7.6091179   -6.3864649    239.39368    111.12675    239.42237   -81.912932    239.38389   -36466.434    290.27402 
   18900    56.902478    56.902478    56.902478   -52.684446   -208.10316    239.37001    86.497832    239.36912   -36.448012    239.33064   -36471.431    294.09244 
   18950    56.901924    56.901924    56.901924    150.88448    107.23343    239.42431    256.76477    239.44193    88.655248    239.39963   -36460.623    286.76389 
   19000    56.904845    56.904845    56.904845   -56.082955   -131.49194    239.35722    9.0974236    239.33084   -45.854344    239.28038   -36466.406    291.13058 
   19050     56.90388     56.90388     56.90388    21.734336    94.764283    239.36772    82.619778    239.35952   -112.18105     239.3445   -36465.708    290.92348 
   19100    56.902119    56.902119    56.902119    58.887463   -45.623564      239.434    60.423422    239.42039    161.86253    239.42577   -36465.271    290.89615 
   19150     56.90299     56.90299     56.90299     77.58439     9.296725     239.3792    188.42152    239.38232    35.034926    239.38237   -36465.306    291.19772 
   19200    56.906701    56.906701    56.906701   -179.68072   -208.29894    239.28921   -116.05113    239.26615   -214.69209    239.23647   -36469.856    294.68024 
   19250    56.904597    56.904597    56.904597    -67.91332   -152.49575    239.36488    54.704163    239.32614   -105.94837    239.28208   -36468.426    293.94645 
   19300    56.900673    56.900673    56.900673     156.6538     142.3088    239.49621    216.66298    239.48913    110.98963    239.49668   -36462.905    290.32298 
   19350    56.903949    56.903949    56.903949   -21.897213     3.875611    239.39061   -84.124337    239.35327    14.557088    239.36626     -36466.2    292.91438 
   19400     56.90604     56.90604     56.90604   -24.660184   -147.61785    239.31449    95.144586    239.33836   -21.507287    239.28536   -36462.244    290.39448 
   19450    56.904176    56.904176    56.904176    30.321321    116.72935    239.37445    30.787828    239.35363   -56.553218    239.38989   -36461.182    289.91054 
   19500    56.902541    56.902541    56.902541    65.386947   -19.019564    239.42422    158.47369    239.38272    56.706712    239.36139   -36465.346    293.11156 
   19550    56.903713    56.903713    56.903713    37.964816    61.996981    239.36889  -0.40581315    239.36058    52.303281    239.33927   -36464.588    292.83634 
   19600    56.906517    56.906517    56.906517    -163.8516   -125.91828    239.31611    -117.7395    239.24641   -247.89703     239.2611   -36468.109    295.57511 
   19650    56.904206    56.904206    56.904206    36.818347   -41.071972    239.39314    27.799236      239.358    123.72778    239.34013    -36463.33    292.45932 
   19700    56.903019    56.903019    56.903019    10.535685     72.77921    239.41538    119.03947     239.3834   -160.21162    239.39751   -36467.166    295.41402 
   19750    56.904016    56.904016    56.904016    48.565688   -63.054086    239.39828    124.97374    239.37859    83.777405    239.39865   -36462.063    292.06514 
   19800    56.907156    56.907156    56.907156    -111.9198   -72.951335    239.27204    -27.14055    239.28666   -235.66751    239.24352   -36463.167    293.09177 
   19850    56.904496    56.904496    56.904496    62.852719   -109.97575    239.39505    127.03046    239.33406    171.50344    239.38255   -36461.237    291.97365 
   19900    56.902451    56.902451    56.902451    93.848379    77.373843    239.44901    155.30352    239.39994     48.86777    239.42315   -36464.455    294.48097 
   19950    56.905626    56.905626    56.905626   -14.679569   -76.713473    239.33348    142.89491    239.30301   -110.22014    239.29974   -36464.807    294.96662 
   20000    56.907236    56.907236    56.907236   -156.57533   -113.86783    239.31508   -220.05685    239.27989   -135.80132    239.25923   -36465.179    295.46089 
Loop time of 2359.57 on 4 procs for 20000 steps with 10976 atoms

Pair  time (%) = 2216.35 (93.9305)
Neigh time (%) = 0 (0)
Comm  time (%) = 98.7577 (4.18542)
Outpt time (%) = 0.0897641 (0.00380426)
Other time (%) = 44.3674 (1.88032)

Nlocal:    2744 ave 2744 max 2744 min
Histogram: 4 0 0 0 0 0 0 0 0 0
Nghost:    7043 ave 7043 max 7043 min
Histogram: 4 0 0 0 0 0 0 0 0 0
Neighs:    192080 ave 197279 max 186816 min
Histogram: 1 0 1 0 0 0 0 1 0 1
FullNghs:  0 ave 0 max 0 min
Histogram: 4 0 0 0 0 0 0 0 0 0

Total # of neighbors = 768320
Ave neighs/atom = 70
Neighbor list builds = 0
Dangerous builds = 0
# run 	200000

# Use this if debug
# run 	1000
# run 200
unfix 1

# Store final cell length for strain calculations
variable tmp equal "lx"
variable L0 equal ${tmp}
variable L0 equal 56.9072358451624
print "Initial Length, L0: ${L0}"
Initial Length, L0: 56.9072358451624

######################################
# DEFORMATION
reset_timestep	0
set atom * xrad 0 yrad 0 zrad 0 vxrad 0 vyrad 0 vzrad 0
  10976 settings made for xrad
  10976 settings made for yrad
  10976 settings made for zrad
  10976 settings made for vxrad
  10976 settings made for vyrad
  10976 settings made for vzrad
fix		1 all npt temp 300 300 1 y 0 0 1 z 0 0 1 drag 1

variable srate equal 1.0e10
# variable srate equal 1.0e9 # tiny time step

variable srate1 equal "v_srate / 1.0e12"
fix		2 all deform 1 x erate ${srate1} units box remap x
fix		2 all deform 1 x erate 0.01 units box remap x

# Output strain and stress info to file
# for units metal, pressure is in [bars] = 100 [kPa] = 1/10000 [GPa]
# p2, p3, p4 are in GPa
variable strain equal "(lx - v_L0)/v_L0"
variable p1 equal "v_strain"
variable p2 equal "-pxx/10000"
variable p3 equal "-pyy/10000"
variable p4 equal "-pzz/10000"

# fix def1 all print 100 "${p1} ${p2} ${p3} ${p4}" file Al99.eam_rad.alloy.def1.txt screen no
# IMPLEMENTATION HERE
variable p5 equal "-pxxrad/10000"

# VERSION add rad variables
variable p6 equal "-pyyrad/10000"
variable p7 equal "-pzzrad/10000"

# VERSION ublb coupled/decoupled scheme
# variable p6 equal "-pxxub/10000"
# variable p7 equal "-pxxlb/10000"

fix def1 all print 20 "${p1} ${p2} ${p3} ${p4} ${p5} ${p6} ${p7}" file Al99.eam_rad.alloy.def1.txt screen no

# Use cfg for AtomEye
# dump 		1 all cfg 250 dump.tensile_*.cfg mass type xs ys zs c_csym c_peratom fx fy fz
# dump_modify 1 element Al

# print output to a text file every n timesteps
# dump		2 all custom 50 dump.xyz_rvf_rad.tensile_*.txt mass type id x y z vx vy vz fx fy fz xrad yrad zrad vxrad vyrad vzrad fxrad fyrad fzrad # use for rad developement
# dump		2 all custom 50 dump.xyz_rvf_rad.tensile_*.txt mass type id x y z vx vy vz fx fy fz xrad yrad zrad vxrad vyrad vzrad fxrad fyrad fzrad xub yub zub vxub vyub vzub fxub fyub fzub xlb ylb zlb vxlb vylb vzlb fxlb fylb fzlb # use for ublb developement

# Display thermo
thermo 	50
# thermo 1
# thermo_style	custom step v_strain temp v_p2 v_p3 v_p4 ke pe press

# IMPLEMENTATION HERE
thermo_style	custom step v_strain temp v_p2 v_p3 v_p4 v_p5 v_p6 v_p7 ke pe press
run	20000
Memory usage per processor = 5.80699 Mbytes
Step strain Temp p2 p3 p4 p5 p6 p7 KinEng PotEng Press 
       0 1.2485982e-16    295.46089  0.011386783  0.022005685  0.013580132 -0.023931508 -0.023927989 -0.023925923    419.14972   -36465.179   -156.57533 
      50       0.0005    293.27274  0.057687975 0.0094716523  0.035426005 -0.023911066 -0.023907324 -0.023909829    416.04553   -36461.903   -341.95211 
     100        0.001    295.32862  0.076317447  0.027763491 0.0067757458 -0.023905393 -0.023910212          nan    418.96207   -36464.588   -369.52228 
     150       0.0015    293.83637   0.08997412  -0.01774816 -0.015297265 -0.023911157 -0.023922068 -0.023924271    416.84512    -36462.19   -189.76232 
     200        0.002    295.05614   0.13183994 -0.018516257  -0.03038331 -0.023892802 -0.023910308          nan    418.57551   -36463.586    -276.4679 
     250       0.0025    294.73529   0.20813863   0.02588544  0.013726901 -0.023864294 -0.023880801 -0.023884116    418.12035   -36462.748   -825.83657 
     300        0.003    294.53211   0.21659017  0.039304955   0.03387894 -0.023849021 -0.023872622          nan    417.83211   -36462.033   -965.91354 
     350       0.0035    291.94931   0.22239965 -0.019201956 0.0037376044 -0.023871154  -0.02389397 -0.023888272    414.16807   -36457.917   -689.78432 
     400        0.004    295.70627   0.25237531 -0.027170251  -0.02392998 -0.023869104 -0.023899142          nan    419.49782   -36462.737   -670.91693 
     450       0.0045    292.68531   0.29202952 -0.023491838 -0.010331117 -0.023847847 -0.023884839 -0.023883227    415.21219   -36457.917   -860.68854 
     500        0.005      292.482   0.35850609  0.019357532   0.01531217 -0.023810484 -0.023849003          nan    414.92376    -36457.05    -1310.586 
     550       0.0055    295.92075    0.3867294  0.045450563  0.041480782 -0.023796097 -0.023833103  -0.02383243    419.80208   -36461.315   -1578.8692 
     600        0.006    292.20901    0.3789053 -0.028725815 -0.011564242 -0.023824329  -0.02386668          nan    414.53649   -36455.415   -1128.7175 
     650       0.0065    296.18503   0.39848394 -0.023293402 -0.045250679 -0.023822156 -0.023873946 -0.023869968      420.177    -36460.38   -1099.7995 
     700        0.007    295.51506   0.46512284 0.0074086378 -0.003844022 -0.023794085 -0.023843013          nan    419.22655   -36458.747   -1562.2915 
     750       0.0075    292.64248     0.513846  0.027516936  0.027330985 -0.023762208 -0.023811958 -0.023813581    415.15142   -36453.948   -1895.6464 
     800        0.008    296.41895   0.54268207  0.032511559  0.015154699 -0.023759683 -0.023817096          nan    420.50884   -36458.574   -1967.8278 
     850       0.0085    292.59701   0.54007776  -0.03363451 -0.015864837 -0.023777401 -0.023842057  -0.02384132    415.08692   -36452.399   -1635.2614 
     900        0.009    295.07787   0.56016248 -0.033815601 -0.019787595 -0.023774862 -0.023837192          nan    418.60635   -36455.139   -1688.5309 
     950       0.0095    297.02455   0.63079113 -0.0017021252  0.014841645  -0.02374333 -0.023808522 -0.023801396    421.36797   -36457.105   -2146.4355 
    1000         0.01    295.03759   0.66349274   0.02775836  0.037666319 -0.023722558 -0.023789793          nan     418.5492   -36453.478   -2429.7247 
    1050       0.0105    294.15311   0.68581031 0.0052588853 -0.00063910556 -0.023727047 -0.023796067 -0.023800194    417.29445   -36451.398   -2301.4336 
    1100        0.011    295.53332   0.69960463 -0.0017277438 -0.027028374 -0.023736229  -0.02380777          nan    419.25246   -36452.504   -2236.1617 
    1150       0.0115    292.66809   0.72355413 -0.020295756 -0.018589432 -0.023725375 -0.023800046  -0.02379915    415.18776   -36447.581   -2282.2298 
    1200        0.012    294.53672   0.78045285  0.016450376 0.0014808566  -0.02370143  -0.02377471          nan    417.83866    -36449.36   -2661.2803 
    1250       0.0125    295.60234   0.81107946  0.016678115  0.029100695 -0.023689242  -0.02376553  -0.02376818    419.35037   -36449.985   -2856.1942 
    1300        0.013    294.76048   0.85176015 -0.019984258 -0.016228112 -0.023694844  -0.02377605          nan    418.15609    -36447.89   -2718.4926 
    1350       0.0135    298.05156   0.87830813 -0.0024854693 0.0032443436  -0.02368359 -0.023764692 -0.023764993    422.82491   -36451.631   -2930.2233 
    1400        0.014    295.09491   0.89336657  0.017964663 -5.2913956e-05  -0.02367361 -0.023758578          nan    418.63053    -36446.51   -3037.5944 
    1450       0.0145    298.72412   0.94521544 -0.0040091964  0.016848399 -0.023664685 -0.023747373 -0.023748654    423.77903   -36450.715   -3193.5155 
    1500        0.015    295.69921    0.9494761 0.0033108082 0.0013225805 -0.023664847 -0.023750379          nan     419.4878   -36445.476    -3180.365 
    1550       0.0155    297.77775    1.0064101 -0.010525734 -0.0080838691  -0.02365698 -0.023747883 -0.023745838    422.43647   -36447.455   -3292.6683 
    1600        0.016    293.46688    1.0384923 -0.0063931646 -0.0080269744 -0.023643118 -0.023735128          nan    416.32095   -36440.358   -3413.5737 
    1650       0.0165    295.08776    1.0741857   0.01407183  0.022765425 -0.023627845 -0.023717708 -0.023717399    418.62038   -36441.659   -3703.4099 
    1700        0.017    295.59899     1.095631 0.0011802077  0.012010819 -0.023624394 -0.023716042          nan    419.34562   -36441.379   -3696.0736 
    1750       0.0175    295.02411    1.1106474 -0.0034155846 -0.025584683  -0.02363459 -0.023729007 -0.023727602    418.53008   -36439.542   -3605.4905 
    1800        0.018    297.01713    1.1336487 -0.015525408 -0.0075209269 -0.023624752 -0.023725235          nan    421.35744   -36441.339   -3702.0079 
    1850       0.0185    300.17469    1.2136081   0.01693093  0.009021607 -0.023605125 -0.023703427 -0.023701684    425.83685   -36444.763   -4131.8687 
    1900        0.019    297.59555    1.2395656  0.016744376  0.027394894 -0.023589961 -0.023691609          nan      422.178   -36440.038   -4279.0163 
    1950       0.0195    298.39526    1.2563342  0.016793025  0.013007001 -0.023588938 -0.023690307 -0.023692858     423.3125   -36440.093   -4287.1142 
    2000         0.02    295.72362    1.2558001 -0.027208958 -0.021504302 -0.023598346 -0.023703004          nan    419.52242   -36435.211   -4023.6229 
    2050       0.0205    296.20355    1.3003895 -0.0047702722 -0.010082862 -0.023587178 -0.023690521 -0.023688817    420.20327   -36434.781   -4285.1212 
    2100        0.021    298.17352    1.3489254   0.03515663  0.012070137 -0.023564832 -0.023670997          nan    422.99793   -36436.455   -4653.8404 
    2150       0.0215    298.76655    1.3873449 0.0049521174  0.016708745 -0.023559684 -0.023667994 -0.023665865    423.83922   -36436.162   -4696.6857 
    2200        0.022    296.78942    1.3942373 0.0048185234 -0.0076853575 -0.023564171 -0.023672971          nan    421.03441   -36432.205   -4637.9017 
    2250       0.0225    297.79753    1.4334741 -0.017478562 -0.0031714277 -0.023557117 -0.023669403 -0.023668057    422.46453   -36432.468   -4709.4138 
    2300        0.023    296.71425    1.4599895 -0.012727055  0.007527436 -0.023547577 -0.023658804          nan    420.92777   -36429.751   -4849.2995 
    2350       0.0235    299.91865    1.5161718  0.010189809 0.0083513142 -0.023531039 -0.023643502 -0.023641373    425.47362   -36433.095   -5115.7096 
    2400        0.024    296.41066    1.5402632  0.011921529  0.012230047 -0.023521615 -0.023636688          nan    420.49708   -36426.913   -5214.7159 
    2450       0.0245    294.47641    1.5593634 -0.00029469463 -0.0050295662 -0.023524295  -0.02363461 -0.023638253    417.75309   -36422.936   -5180.1305 
    2500        0.025     296.3824    1.5864188 0.0076580227 -0.022102143 -0.023522067 -0.023638915          nan      420.457   -36424.396   -5239.9157 
    2550       0.0255    298.40447    1.6311695 -0.013509533 -0.00055213534 -0.023513556 -0.023630346 -0.023629856    423.32556   -36426.011   -5390.3596 
    2600        0.026    297.53336    1.6582787 -0.0024034006 0.0079950822 -0.023502615 -0.023620365          nan    422.08978   -36423.498   -5546.2344 
    2650       0.0265    296.22877    1.6927174  0.014513097 0.0044758221 -0.023493687 -0.023611456 -0.023609859    420.23905   -36420.366   -5705.6878 
[...]
   13800        0.138    296.30988    7.7264835 -0.0027485387 0.0014745999 -0.021666929 -0.022146126          nan    420.35411    -35751.54   -25750.699 
   13850       0.1385       288.96    7.6998112 -0.034259768 -0.027161205 -0.021649699 -0.022133078 -0.022127788    409.92735   -35736.542   -25461.301 
   13900        0.139    293.85696    7.7812373  0.035025019  0.033328983 -0.021612556 -0.022094892          nan    416.87432   -35738.891   -26165.304 
   13950       0.1395    289.89032    7.7814708  0.023370264  0.035296534 -0.021600805 -0.022083316 -0.022079447    411.24713   -35728.648   -26133.792 
   14000         0.14    289.97753    7.7489252 -0.018827889 -0.011569022 -0.021618173 -0.022105646          nan    411.37085   -35724.164   -25728.428 
   14050       0.1405    289.98138    7.7846782 -0.041597514 -0.044381697 -0.021617578 -0.022105896 -0.022109624    411.37631    -35719.53    -25662.33 
   14100        0.141    295.03898    7.8491131  0.017537104 0.0018052168 -0.021581359 -0.022075754          nan    418.55117   -35722.062   -26228.185 
   14150       0.1415    289.83869    7.8484485   0.02580111  0.024830215 -0.021548329 -0.022036199  -0.02203972    411.17389   -35710.016   -26330.266 
   14200        0.142    287.48236    7.8108341 0.0085789913  0.010934354 -0.021543911 -0.022026445          nan    407.83112   -35702.023   -26101.158 
   14250       0.1425    288.99463    7.8412594 -0.0067648427 -0.012278153 -0.021550446 -0.022036856 -0.022037426    409.97648   -35699.511   -26074.055 
   14300        0.143    292.33699    7.8939512 -0.013743638 -0.014108475 -0.021543794 -0.022039015          nan    414.71806   -35699.554    -26220.33 
   14350       0.1435    290.77098     7.910269 -0.0070699886 -0.00059011484 -0.021527275 -0.022023207 -0.022022377    412.49647   -35692.626    -26342.03 
   14400        0.144    290.48838    7.9195567  0.028659963  0.010205896 -0.021501804 -0.021993698          nan    412.09556   -35687.517   -26528.075 
   14450       0.1445    291.70634    7.9319108  0.022068791 0.0095060177 -0.021489547 -0.021988127 -0.021989234    413.82339   -35684.536   -26544.952 
   14500        0.145     290.3184    7.9384843 -0.018436775 -0.0032479938 -0.021490467 -0.021990758          nan    411.85442   -35677.838   -26389.332 
   14550       0.1455     289.9328    7.9352757 -0.015114984 -0.012575446 -0.021480851 -0.021984535 -0.021981414    411.30739   -35672.567   -26358.618 
   14600        0.146    291.72175    7.9901279 0.0050393041  0.028825262 -0.021453303 -0.021958252          nan    413.84526   -35670.363   -26746.642 
   14650       0.1465    290.11336    8.0253642  0.014348781  0.047754679 -0.021434293  -0.02194003 -0.021938456    411.56354   -35663.309   -26958.225 
   14700        0.147    288.79943    8.0297227  0.010749372 -0.011207202 -0.021435741 -0.021946427          nan    409.69956   -35656.672   -26764.216 
   14750       0.1475    290.26495    8.0182761 -0.00074894018 -0.034965089 -0.021437899 -0.021949637 -0.021955014    411.77859   -35653.958    -26608.54 
   14800        0.148    289.62924    7.9982341 -0.013213696  -0.03457433 -0.021417896 -0.021933328          nan    410.87675   -35648.292   -26501.487 
   14850       0.1485    286.96169    8.0185381  0.011143968  0.021288624 -0.021379062 -0.021891433 -0.021886038    407.09249    -35639.74   -26836.569 
   14900        0.149    288.98118    8.0558972  0.057960849  0.049637762 -0.021360255 -0.021866001          nan     409.9574   -35637.804   -27211.653 
   14950       0.1495    289.01778    7.9996903 -0.014742261 -0.0039228924 -0.021381566 -0.021892764 -0.021891652    410.00932   -35633.085   -26603.417 
   15000         0.15    286.62174    7.9692228 -0.082468419 -0.040347847 -0.021389621 -0.021905752          nan    406.61023   -35624.891   -26154.689 
   15050       0.1505    292.46993    8.0166851 0.0033424006  0.012080427 -0.021350524 -0.021861307 -0.021862709    414.90664   -35628.411   -26773.693 
   15100        0.151    287.89803    7.9844486  0.053813876  0.037807227 -0.021313358 -0.021815797          nan     408.4208   -35617.137   -26920.232 
   15150       0.1515    290.38834    7.9629307  0.022582597  0.028063389 -0.021314514 -0.021823657 -0.021825862    411.95364   -35615.915   -26711.922 
   15200        0.152    294.28424    7.8321697 -0.026459244 -0.0055005615 -0.021339394 -0.021844483          nan    417.48048   -35616.731     -26000.7 
   15250       0.1525    290.47009    7.7014074 -0.082931084  -0.03448637 -0.021332788 -0.021835723 -0.021832768    412.06961   -35606.676   -25279.966 
   15300        0.153     296.6385    7.6319036  0.050008002  0.023540494 -0.021281373 -0.021765084          nan     420.8203   -35610.867    -25684.84 
   15350       0.1535    299.41614    7.4387776  0.064281831  0.050601561 -0.021261644 -0.021736475 -0.021748115    424.76074   -35610.332    -25178.87 
   15400        0.154    301.29052    7.1592265 -0.017327003 -0.0064242405 -0.021282345 -0.021759577          nan     427.4198   -35608.713   -23784.918 
   15450       0.1545    308.72795    6.9173589 -0.051089066 -0.029140471 -0.021300338 -0.021766647  -0.02177631    437.97076   -35615.146   -22790.431 
   15500        0.155    319.92192    6.6649972 0.0026873248   0.01730906 -0.021281984 -0.021738573          nan    453.85087   -35627.159   -22283.312 
   15550       0.1555    322.06963    6.3248071  0.010005928  0.032679379 -0.021260977 -0.021701506 -0.021712741    456.89767   -35626.628   -21224.975 
   15600        0.156    328.55422    5.9077002  0.027397498  0.005701724 -0.021264464 -0.021689408          nan    466.09691   -35632.644   -19802.665 
   15650       0.1565     340.8582    5.5442611  0.021091368  0.005564779 -0.021281575 -0.021701466 -0.021703105     483.5517   -35647.318   -18569.724 
   15700        0.157    346.27958    5.0842955 -0.031775185  0.023820014 -0.021310577 -0.021718663          nan    491.24263   -35652.705   -16921.135 
   15750       0.1575    355.18296     4.635059  0.025094704 -0.0039712163 -0.021338663 -0.021719814 -0.021715683    503.87324   -35663.569   -15520.608 
   15800        0.158    361.10523    4.1971544  0.017246741  0.020451469 -0.021369854 -0.021732634          nan    512.27475   -35670.744   -14116.176 
   15850       0.1585    369.55096    3.7466142   0.02074527  0.038331722  -0.02142465 -0.021758098 -0.021750542    524.25612    -35682.06   -12685.637 
   15900        0.159     375.5655    3.3742521 -0.021095012  0.059274151  -0.02149312  -0.02180857          nan    532.78852   -35690.376   -11374.771 
   15950       0.1595    379.04177    3.0432665 -0.014446619 -0.021673653 -0.021567515 -0.021856754 -0.021853868    537.72006   -35695.371   -10023.821 
   16000         0.16    379.92678    2.8276468  0.010064476 -0.041742038 -0.021610933 -0.021887285          nan    538.97556   -35696.778   -9319.8974 
   16050       0.1605    387.54055     2.629365 0.0053976331 -0.005522166 -0.021640134 -0.021897795 -0.021896425    549.77669   -35707.895   -8764.1349 
   16100        0.161    386.68562    2.4122732  0.039903063   0.05222917 -0.021666206 -0.021900892          nan    548.56386   -35707.132   -8348.0181 
   16150       0.1615    389.44281    2.2004563  0.026635087  0.070211302 -0.021721556 -0.021937038  -0.02193547    552.47529   -35711.714   -7657.6755 
   16200        0.162    390.16052    1.9870604  -0.01937689  0.019113238 -0.021808172     -0.02201          nan    553.49345   -35713.576   -6622.6559 
   16250       0.1625    394.06034    1.8625449 -0.013048892 -0.068258688 -0.021876383 -0.022058459 -0.022067002    559.02586   -35720.043   -5937.4577 
   16300        0.163     397.9926    1.8009305 -0.0021458278 -0.027445366 -0.021893714 -0.022071034          nan    564.60428    -35726.73   -5904.4643 
   16350       0.1635    401.40609    1.7957831  0.013860253  0.033540539 -0.021882401  -0.02205976  -0.02205818    569.44676   -35732.836   -6143.9463 
   16400        0.164    399.58754    1.7638636  0.011513189   0.05053043 -0.021884976 -0.022060558          nan    566.86691   -35731.643   -6086.3573 
   16450       0.1645    405.36139     1.723638 -0.0034006896  0.035872435 -0.021918418 -0.022088679 -0.022091134    575.05787   -35741.296   -5853.6991 
   16500        0.165     398.0605    1.6686895 -0.020190414 -0.017259672 -0.021959519 -0.022121844          nan     564.7006   -35732.428   -5437.4647 
   16550       0.1655    406.51705    1.7426292 -0.008646618 -0.0024595852 -0.021966047 -0.022130083 -0.022130555    576.69732   -35745.959   -5771.7433 
   16600        0.166    405.32867     1.730211  0.013699956 -0.0003380409 -0.021964375 -0.022126166          nan    575.01144   -35745.843   -5811.9098 
   16650       0.1665    406.59924    1.7183125    0.0420151 0.0065652145 -0.021973184 -0.022127758 -0.022135538    576.81392   -35749.278   -5889.6428 
   16700        0.167    407.51475    1.6777445  0.041000754 -0.034329629 -0.022003897 -0.022149737          nan    578.11269   -35752.262   -5614.7186 
   16750       0.1675    407.82254    1.6354209  0.014368307 -0.029455367 -0.022020736 -0.022173349 -0.022170794    578.54933    -35754.43   -5401.1128 
   16800        0.168    403.83679    1.5675996 -0.028416259 0.0098043631 -0.022032663 -0.022184101          nan    572.89502   -35750.554   -5163.2925 
   16850       0.1685    412.57274    1.5842888 0.0067690676   0.01401804 -0.022034416 -0.022185906 -0.022186423     585.2881   -35764.753   -5350.2531 
   16900        0.169    406.63033    1.5628295 -0.018169853  0.051586882 -0.022046969 -0.022196496          nan    576.85803    -35758.15   -5320.8218 
   16950       0.1695    409.86583    1.5422848 -0.00080168736  0.016815172 -0.022061516 -0.022209002  -0.02220872    581.44801   -35764.622   -5194.3276 
   17000         0.17    413.08292    1.4859646 0.0057949976  0.019213777 -0.022093039 -0.022235403          nan    586.01186   -35771.107   -5036.5778 
   17050       0.1705    406.19138    1.4508524 -0.014719966 -0.039549717 -0.022111974 -0.022254308 -0.022250165    576.23532   -35763.234   -4655.2757 
   17100        0.171    413.86931    1.4770525  0.015324763  0.041949202 -0.022105248 -0.022245326          nan    587.12745   -35776.077   -5114.4214 
   17150       0.1715    412.50221    1.4690727 -0.067223309   0.05927853 -0.022105364 -0.022257126 -0.022243741    585.18805   -35776.152   -4870.4263 
   17200        0.172    411.38542    1.4585425   -0.0402102  0.034977637 -0.022107824  -0.02226134          nan    583.60374   -35776.665   -4844.3666 
   17250       0.1725    411.14693    1.3940659 -0.0068661703 0.0073449551 -0.022113739 -0.022255957 -0.022254484     583.2654   -35778.413   -4648.4824 
   17300        0.173    411.27109    1.3577092  0.071411831 0.0044979415 -0.022112839 -0.022243619          nan    583.44155    -35780.59   -4778.7299 
   17350       0.1735    409.24467    1.3283691  0.021427888 0.00078017032 -0.022142049 -0.022269118 -0.022274998     580.5668    -35779.78   -4501.9238 
   17400        0.174    407.79077    1.2902152 -0.019359244 -0.033973845 -0.022165201 -0.022294343          nan    578.50426   -35779.733   -4122.9403 
   17450       0.1745    409.64402    1.2880231   0.02784765 -0.019019509  -0.02216996 -0.022289158 -0.022299847    581.13333   -35784.431   -4322.8374 
   17500        0.175    408.54452    1.3171809 0.0080497279 -0.00073097733 -0.022162907 -0.022290628          nan    579.57355   -35784.929   -4414.9989 
   17550       0.1755     411.0385    1.3251673   0.03833705  0.013007667 -0.022163936 -0.022292769 -0.022296328    583.11159    -35790.56   -4588.3734 
   17600        0.176    404.61257    1.3204611  0.018842217 -0.070001359 -0.022180322 -0.022305906          nan    573.99556   -35783.533   -4231.0067 
   17650       0.1765     410.7671    1.3272333  0.045537407 -0.031600715 -0.022176947  -0.02230455 -0.022309366    582.72657    -35794.36   -4470.5666 
   17700        0.177    410.77912    1.2984699 0.0050552697   0.01886508 -0.022176605 -0.022305461          nan    582.74362   -35796.494   -4407.9674 
   17750       0.1775    405.87036    1.2809837 -0.051061548  0.060217982 -0.022182291 -0.022313841 -0.022298463     575.7799   -35791.571   -4300.4669 
   17800        0.178    410.09707    1.2650152 -0.013359407  0.068870941 -0.022197234 -0.022322666          nan    581.77604   -35799.636   -4401.7559 
   17850       0.1785    406.27031    1.2220397 -0.078646859  0.014455914  -0.02221945 -0.022345245 -0.022330316    576.34728   -35796.322    -3859.496 
   17900        0.179    412.48993    1.2166644 0.0077532856 0.0019136803 -0.022214858 -0.022329033          nan    585.17063   -35807.268   -4087.7714 
   17950       0.1795    404.77749    1.2472991  0.056447597 -0.018268344 -0.022205481 -0.022318914 -0.022324492    574.22953   -35798.385   -4284.9279 
   18000         0.18    404.59168    1.2683907 0.0045549183 -0.015451653 -0.022205213 -0.022328027          nan    573.96593   -35800.184   -4191.6465 
   18050       0.1805    406.24532    1.2785388 -0.019264735    0.0195639 -0.022201434 -0.022330467 -0.022329153    576.31183   -35804.553   -4262.7933 
   18100        0.181    401.89463    1.3194536 -0.006541122 0.0022045589 -0.022198371 -0.022327118          nan    570.13982   -35800.421   -4383.7235 
   18150       0.1815    404.14414    1.2998056 -0.011477391  0.042437356 -0.022201921 -0.022327374 -0.022324057    573.33104     -35805.6   -4435.8852 
   18200        0.182    402.69466     1.304922 -0.0082823506 -0.016952631 -0.022210826  -0.02234204          nan    571.27477   -35805.558   -4265.6232 
   18250       0.1825    404.66663    1.2871054 -0.0047798632 -0.0021487542 -0.022216828 -0.022343418  -0.02233865    574.07226   -35810.335   -4267.2558 
   18300        0.183    404.58946    1.2923382  0.012759673 0.00025999061 -0.022212584  -0.02233784          nan    573.96279   -35812.233    -4351.193 
   18350       0.1835    403.44418    1.2525263  0.014775288 -0.0035062623 -0.022216927 -0.022338847 -0.022337789    572.33806   -35812.604   -4212.6512 
   18400        0.184    404.68895    1.2837895  -0.03612358  0.029918596  -0.02221537 -0.022349454          nan    574.10393   -35816.376   -4258.6151 
   18450       0.1845     403.0725    1.2671802 0.0032072494  0.017435908 -0.022220088 -0.022348009 -0.022342463    571.81078   -35816.078   -4292.7445 
   18500        0.185    404.69095    1.2529339  0.015144581 -0.013482451 -0.022229485 -0.022353858          nan    574.10677   -35820.385   -4181.9867 
   18550       0.1855    401.99799    1.2339585  0.041586476 -0.029730402 -0.022240204 -0.022350831 -0.022361501    570.28644   -35818.544   -4152.7152 
   18600        0.186    400.82536    1.2703028 0.0055480561 -0.039046025 -0.022238242 -0.022357653          nan    568.62291   -35818.852   -4122.6828 
   18650       0.1865     402.2406    1.3418276 -0.0059898593 -0.0094712951 -0.022222926 -0.022349388 -0.022344203    570.63062   -35822.771   -4421.2214 
   18700        0.187    398.75275    1.3671674  0.016542326  0.059735802 -0.022204308 -0.022330963          nan    565.68265   -35819.695    -4811.485 
   18750       0.1875    403.43544    1.3421725 0.0091452405  0.057807971 -0.022219052 -0.022345579 -0.022331661    572.32566   -35828.255   -4697.0856 
   18800        0.188    399.69444    1.2887816  -0.06009271 -0.027013274 -0.022253923 -0.022381599          nan    567.01857   -35824.825   -4005.5855 
   18850       0.1885    404.30493    1.2994755 -0.017934796 -0.032438439 -0.022246717 -0.022378715  -0.02237049    573.55915   -35833.254   -4163.6744 
   18900        0.189    393.39198    1.2819174  0.016664238  0.038376275 -0.022223639 -0.022350986          nan    558.07771   -35819.684   -4456.5263 
   18950       0.1895    400.18654    1.3486323  0.041089674  0.025774137 -0.022219116 -0.022344364 -0.022339427    567.71667   -35831.197   -4718.3204 
   19000         0.19    397.88018    1.3380786 -0.0024057504 -0.0065765941 -0.022238253 -0.022372139          nan     564.4448   -35829.759   -4430.3207 
   19050       0.1905    395.72265    1.2608355  0.033726215 -0.076005524 -0.022259845 -0.022375227 -0.022381356    561.38405   -35828.523   -4061.8541 
   19100        0.191    395.84596    1.3014359 -0.020275048 0.0054240521 -0.022248815 -0.022374777          nan    561.55899   -35830.531   -4288.6163 
   19150       0.1915    399.14672    1.2925455  0.017427547  0.062836666 -0.022244087 -0.022362924 -0.022356724    566.24154   -35837.029   -4576.0325 
   19200        0.192    400.52984     1.306795 -0.018733426  0.037956805  -0.02226073 -0.022385525          nan    568.20368   -35840.839   -4420.0611 
   19250       0.1925    396.51276    1.3183496 -0.037382034  -0.04583756 -0.022266794 -0.022395809 -0.022394947    562.50494    -35836.96   -4117.1002 
   19300        0.193    394.27349    1.3503012 0.0064326352 -0.020853792 -0.022243881 -0.022371881          nan    559.32823   -35835.576   -4452.9333 
   19350       0.1935    392.57904    1.3727875  0.068722683   0.04101264 -0.022224674 -0.022342888  -0.02234963    556.92444   -35834.898   -4941.7429 
   19400        0.194    394.18691    1.3814851  0.070259378 -0.016144152 -0.022248929 -0.022363932          nan    559.20541   -35838.954   -4785.3344 
   19450       0.1945    397.82924    1.3256543 -0.043462659 -0.043144624 -0.022296819 -0.022417299  -0.02241403    564.37253   -35845.888   -4130.1568 
   19500        0.195    391.95499    1.2864335 -0.047492329 -0.020975516 -0.022301005 -0.022418772          nan    556.03915   -35839.297   -4059.8855 
   19550       0.1955    394.98576    1.3571342  0.002894658  0.022816038 -0.022261494  -0.02238147 -0.022379076    560.33869   -35845.319   -4609.4829 
   19600        0.196    388.71922    1.3657999  0.034857979  0.054085438  -0.02224219  -0.02235639          nan    551.44878   -35838.123   -4849.1444 
   19650       0.1965    391.48875    1.3591392 0.0010046413   0.02211426 -0.022260826 -0.022381567 -0.022372355    555.37773   -35843.742   -4607.5272 
   19700        0.197    388.63259    1.3483387 -0.0036523267 -0.060029417 -0.022281007 -0.022404229          nan    551.32588   -35841.348   -4282.1898 
   19750       0.1975    389.20137    1.3823025  -0.02686557  0.013266564 -0.022268757 -0.022400017 -0.022393408    552.13278   -35843.774   -4562.3451 
   19800        0.198    393.53346    1.3897544  0.032311664 0.0084938129 -0.022247972 -0.022381445          nan     558.2784   -35851.548   -4768.5328 
   19850       0.1985    383.94661    1.3787722 -0.013984136 -0.022041509 -0.022245509   -0.0223824 -0.022378866    544.67822   -35839.571   -4475.8219 
   19900        0.199    383.94404    1.3643796 0.0080654404 0.0023176823 -0.022241796 -0.022375429          nan    544.67457   -35841.164   -4582.5425 
   19950       0.1995    390.89761    1.3717939  0.047137796  0.022691103 -0.022244882  -0.02237642 -0.022376574    554.53911   -35852.622   -4805.4094 
   20000          0.2    385.31393    1.3706464 -0.015604183 -0.033765673 -0.022266858 -0.022401554          nan    546.61793   -35846.284   -4404.2551 
Loop time of 2810.57 on 4 procs for 20000 steps with 10976 atoms

Pair  time (%) = 2659.72 (94.6329)
Neigh time (%) = 1.66002 (0.0590636)
Comm  time (%) = 99.3321 (3.53423)
Outpt time (%) = 0.0977447 (0.00347775)
Other time (%) = 49.7576 (1.77037)

Nlocal:    2744 ave 2762 max 2722 min
Histogram: 1 0 1 0 0 0 0 0 0 2
Nghost:    6334 ave 6398 max 6276 min
Histogram: 2 0 0 0 0 0 0 0 1 1
Neighs:    188234 ave 189874 max 186804 min
Histogram: 2 0 0 0 0 0 0 1 0 1
FullNghs:  0 ave 0 max 0 min
Histogram: 4 0 0 0 0 0 0 0 0 0

Total # of neighbors = 752936
Ave neighs/atom = 68.5984
Neighbor list builds = 110
Dangerous builds = 0

######################################
# SIMULATION DONE
print "All done"
All done
