
# ----------------------- ATOM DEFINITION ----------------------------
lattice		fcc ${latparam}
lattice		fcc 4.05
Lattice spacing in x,y,z = 4.05 4.05 4.05
region		whole block 0 14 0 14 0 14
create_box	1 whole
Created orthogonal box = (0 0 0) to (56.7 56.7 56.7)
  1 by 2 by 2 MPI processor grid
lattice 	fcc ${latparam} orient x 1 0 0 orient y 0 1 0 orient z 0 0 1
lattice 	fcc 4.05 orient x 1 0 0 orient y 0 1 0 orient z 0 0 1
Lattice spacing in x,y,z = 4.05 4.05 4.05
create_atoms	1 region whole
Created 10976 atoms

# ------------------------ FORCE FIELDS ------------------------------

#****************USE THIS TO TEST******************
pair_style	eam/rad
pair_coeff 		* * Al99.PC0.05.eam.alloy.rad.txt Al # pc = 0.5   error generating

# to test with error = 0 use this potential
# pair_coeff	* * Al99.eam.alloy.005pcrad_NULL_noerror Al

#****************USE THIS TO RUN REFRENCE***********
# pair_style	eam/alloy
# pair_coeff	* * Al99.eam.alloy Al

# ------------------------- SETTINGS ---------------------------------
compute csym all centro/atom fcc
compute peratom all pe/atom

######################################
# EQUILIBRATION
reset_timestep	0
timestep	0.001 # default
# timestep	0.0001 # tiny time step
velocity all create 300 12345 mom yes rot no
fix 1 all npt temp 300 300 1 iso 0 0 1 drag 1

# Set thermo output
thermo 50
# thermo 1 # debug mode

# thermo_style custom step lx ly lz press pxx pyy pzz pe temp
# IMPLEMENTATION HERE

# VERSION add rad variables .v1 .v2
# thermo_style custom step lx ly lz press pxx pyy pzz pxxrad pyyrad pzzrad pe temp

# VERSION ublb separation .v3
thermo_style custom step lx ly lz press pxx pxxrad pyy pyyrad pzz pzzrad pe temp

# Run for at least 10 picosecond (assuming 1 fs timestep)
run 	20000 # default
Memory usage per processor = 5.80699 Mbytes
Step Lx Ly Lz Press Pxx Pxxrad Pyy Pyyrad Pzz Pzzrad PotEng Temp 
       0         56.7         56.7         56.7    2496.5196    2454.4963    242.99145    2519.8171    242.99145    2515.2453     485.9829    -36879.36          300 
      50    56.784859    56.784859    56.784859    902.09853    998.94619    7535.1091    861.90863    7568.4881    845.44078    486.47774   -36603.807    104.79024 
     100    56.885066    56.885066    56.885066   -4306.9915   -4305.3116    12826.029   -4298.2013    13375.372   -4317.4617    479.98288   -36693.797    169.48504 
     150    56.794165    56.794165    56.794165    499.51447    541.75107    9000.9047    473.93504    9188.8734    482.85731    485.07233   -36629.356    124.08705 
     200    56.732407    56.732407    56.732407    2848.6888    2841.3292    10335.783    2840.1988    10700.444    2864.5384    489.15345   -36648.826    138.99861 
     250    56.791772    56.791772    56.791772      162.813    148.62455    10911.689    202.83345     11225.45    136.98101     485.3574   -36659.532    147.00042 
     300    56.837362    56.837362    56.837362   -1784.9005   -1752.9576    11376.773   -1802.5487    11723.465   -1799.1952    482.74259   -36664.505    151.36635 
     350    56.798011    56.798011    56.798011   -343.34692   -308.44403    12404.725   -330.12831    12376.406   -391.46843    485.07453   -36678.755    161.95211 
     400    56.760076    56.760076    56.760076    1513.7688    1531.0644    11425.824    1473.5106    11630.451    1536.7313    487.48981   -36663.857    152.32121 
     450    56.792604    56.792604    56.792604    91.791936    92.441628     11630.76    98.298277    11844.567    84.635902    485.40265   -36662.091     151.7901 
     500    56.822718    56.822718    56.822718   -1101.2584   -1095.7792    11476.405    -1101.353    11542.199   -1106.6429    483.53689   -36659.955    151.20573 
     550    56.799016    56.799016    56.799016   -88.274292   -55.419951    11536.158   -186.17716    11607.426   -23.225762    485.06573    -36661.39    153.02203 
     600    56.774001    56.774001    56.774001    857.57303    848.55267    11929.176    914.11147     12184.04    810.05495    486.66782   -36667.442    158.21602 
     650    56.792244    56.792244    56.792244     201.8819     184.0495    11302.618    162.26066    11622.213    259.33554    485.57622   -36659.397    153.38348 
     700    56.815679    56.815679    56.815679   -863.47295    -853.2323    11537.199   -843.12697    12000.224   -894.05959    484.06339   -36660.483    155.08104 
     750     56.79954     56.79954     56.79954   -138.86796   -140.35725    11775.799   -131.66214    12126.514   -144.58448    485.03574   -36662.181    157.14995 
     800    56.779969    56.779969    56.779969    742.36954    749.83042    12032.212     683.4876    12071.347    793.79061    486.26487   -36659.129    155.93389 
     850    56.794346    56.794346    56.794346    128.98364    137.93134    11984.005    125.01194    12276.513    124.00765     485.5376   -36660.641    157.89694 
     900    56.812641    56.812641    56.812641   -590.64813   -559.07401    11652.245   -679.07684     11654.24   -533.79353    484.41874   -36653.023    153.45426 
     950    56.802032    56.802032    56.802032   -175.40181   -249.95955    12028.792   -91.157204    12078.723   -185.08868      484.962   -36659.638    159.02515 
    1000    56.785499    56.785499    56.785499     503.1207    491.57291    12051.387     526.3538    12506.109    491.43541    485.95216   -36661.883    161.54845 
    1050    56.794444    56.794444    56.794444    217.86986    245.38872    11718.721    189.89687     11749.47    218.32398    485.53421   -36650.753    154.62858 
    1100    56.810552    56.810552    56.810552   -541.47595   -515.72507      12358.2   -560.96887    12183.491    -547.7339     484.5617   -36659.361    161.63198 
    1150    56.802078    56.802078    56.802078   -155.40533   -149.31378    12569.869   -181.61257    12513.975   -135.28965    484.99504   -36660.918    163.66699 
    1200     56.78923     56.78923     56.78923    470.87317    467.50457    11684.758    502.22108    11801.159    442.89385    485.88131   -36647.038    154.82072 
    1250    56.797682    56.797682    56.797682    119.32274    114.49144    12138.995    122.82547    12689.383    120.65131    485.31742   -36655.956    162.04526 
    1300     56.80929     56.80929     56.80929   -374.65972   -426.63131    11820.146   -322.91615     12372.14   -374.43171    484.69922   -36649.032     158.1179 
    1350    56.802656    56.802656    56.802656   -131.67424   -123.69907    12447.145   -151.29544    12746.864   -120.02822    485.11649   -36656.521    164.32607 
    1400    56.792253    56.792253    56.792253     333.7521    344.99452     12432.46    360.26481    12551.966    295.99696    485.79879    -36652.58    162.50957 
    1450    56.799093    56.799093    56.799093    138.39769    156.43558    12302.212     59.32061    12144.298    199.43688    485.44592   -36647.828    160.08835 
    1500    56.809623    56.809623    56.809623   -395.03134   -333.37419    12616.312   -398.55063    12713.446   -453.16919    484.71089   -36653.387    164.97469 
    1550     56.80318     56.80318     56.80318    24.732353  -0.91167841    12160.291    26.036089    12472.086    49.072649    485.11132   -36645.151    160.10329 
    1600    56.796324    56.796324    56.796324    208.86929    252.66911    12783.254    194.83136     12822.44     179.1074    485.51435   -36654.461    167.63598 
    1650    56.801231    56.801231    56.801231      70.0307    61.680608    12427.146    43.508846     12475.41    104.90265    485.25275   -36645.671    162.38179 
    1700    56.808933    56.808933    56.808933   -270.45522   -273.87922    12690.623   -228.37574     12719.77   -309.11069     484.9266   -36647.885    164.89895 
    1750    56.804735    56.804735    56.804735   -59.461898   -86.922931    12639.428    -98.30916    12910.532    6.8463964    485.14847    -36649.31    166.85283 
    1800    56.798162    56.798162    56.798162    226.71822    267.17271    12674.672    252.39978    12632.413    160.58216    485.47393   -36645.527    165.14801 
    1850    56.801538    56.801538    56.801538    119.80034    140.63399    12635.634    113.67452    12674.191    105.09252    485.31075    -36644.63    165.47466 
    1900    56.809836    56.809836    56.809836   -214.86873   -185.47779     12725.18   -211.01714    12758.474   -248.11124    484.85834   -36646.288    167.59094 
    1950    56.808329    56.808329    56.808329   -144.12638   -141.83771    12700.243   -135.50137    12892.175   -155.04008    484.98526   -36643.579    166.63493 
    2000    56.800682    56.800682    56.800682    212.40029    151.34683     12652.65    259.31391    12964.012    226.54014    485.44708   -36643.425    167.49409 
    2050    56.802521    56.802521    56.802521    100.65499    75.249048     12787.95    56.190505    13000.396    170.52543    485.30672   -36643.741     168.6746 
    2100    56.809571    56.809571    56.809571    -146.8269   -80.335646    12878.674   -127.99001    12807.011   -232.15503    484.88241   -36640.815    167.57057 
    2150    56.808895    56.808895    56.808895   -165.27325   -191.13675    13036.589   -166.54245    13232.722   -138.14054    484.94265   -36644.098    170.83838 
    2200    56.801313    56.801313    56.801313    222.08781    255.75477    12733.314     244.7199    12549.291    165.78875    485.47541   -36634.804     165.2564 
    2250    56.803543    56.803543    56.803543    119.59981    150.43417    13390.143    95.565628    13430.482    112.79964    485.34275   -36645.922    174.04965 
    2300    56.811357    56.811357    56.811357   -177.10421   -205.43945    12764.663   -186.68732    13132.102   -139.18586    484.98327   -36634.934    167.26935 
    2350    56.810834    56.810834    56.810834   -147.57357   -119.78179    13332.922   -148.60926    13360.792   -174.32964    484.96677   -36642.182    173.33274 
    2400    56.804038    56.804038    56.804038    197.44655    212.01527    12851.109     196.5496    13213.903    183.77479    485.34243   -36634.813    169.10765 
    2450    56.805659    56.805659    56.805659    99.580396    86.934756    13169.477    111.74025    13647.326    100.06618    485.32856   -36639.839    173.61106 
    2500    56.812136    56.812136    56.812136   -157.16811    -130.0075    13304.784   -133.15348    13155.213   -208.34334       484.83   -36638.445    173.59141 
    2550    56.811276    56.811276    56.811276   -86.471514   -117.97122    13168.246   -107.48598    13382.099   -33.957338    484.97558   -36635.105    172.20581 
    2600    56.806512    56.806512    56.806512    84.228888    137.95082    13433.184    101.39973    13297.051    13.336109    485.34542   -36636.206    173.93935 
    2650    56.807459    56.807459    56.807459     189.9063    165.27678    13097.785    150.92293    13289.362    253.51919    485.30132   -36630.259    170.70949 
    2700    56.814656    56.814656    56.814656   -194.41013   -148.31935    13501.182   -166.55308    13588.052   -268.35797    484.73682   -36634.286     174.5138 
    2750     56.81318     56.81318     56.81318   -50.885643    -31.91255    13389.188   -72.238321    13389.228   -48.506057    484.93729   -36632.943    174.53856 
    2800    56.808273    56.808273    56.808273    120.07452    77.423285     13251.37    147.71871    13550.301    135.08155    485.26425   -36632.175    174.95634 
    2850    56.809386    56.809386    56.809386    64.598916    93.289406    13722.626    49.252297    13883.514    51.255046    485.15609   -36635.363    178.17319 
    2900    56.814028    56.814028    56.814028   -55.129096   -78.864562     13295.15   -23.927303    13438.294   -62.595424    484.91536   -36628.162    174.06308 
    2950    56.814566    56.814566    56.814566   -136.69039   -121.09987    13835.392   -138.22883    13797.322   -150.74247    484.95282    -36632.76    178.27162 
    3000    56.810436    56.810436    56.810436    109.18596    170.82853    13634.934    82.313316    13313.096    74.416023    485.26106   -36627.321    175.39548 
    3050    56.811695    56.811695    56.811695    20.251311     45.62127    14207.645    28.352535    14102.199   -13.219872    485.14748   -36633.224    180.52378 
    3100    56.814668    56.814668    56.814668   -22.502512    59.902641    13865.529   -81.618592      13552.1   -45.791584    484.95538   -36625.036    175.72114 
    3150    56.814591    56.814591    56.814591   -35.232453   -56.415597      13909.5   -62.292386    13966.381    13.010624    484.90049   -36627.386    178.34874 
    3200    56.812239    56.812239    56.812239    90.408292    160.66081    13819.537    76.940756    13748.127    33.623312    485.08707   -36626.453    178.65798 
    3250    56.813104    56.813104    56.813104    22.961587     6.770234    13805.238    44.998436    14159.003    17.116089    485.11211   -36626.931    179.95943 
    3300    56.815222    56.815222    56.815222   -33.469201   -23.912364    14046.227   -21.628313    13942.311   -54.866925    484.94952    -36624.85    179.46152 
    3350     56.81547     56.81547     56.81547   -25.746731   -25.939475    14268.779   -66.221943    14076.465    14.921226    485.00984   -36626.345    181.48254 
    3400     56.81445     56.81445     56.81445    33.843209    20.163178    14157.632    3.6846816    14269.027    77.681767    485.15241   -36623.713      180.591 
    3450    56.815405    56.815405    56.815405    22.937435    74.244986    14104.154    6.2431304     14432.72    -11.67581    484.98416   -36623.977    181.74162 
    3500    56.817351    56.817351    56.817351   -84.758116   -7.0286601    14198.137   -112.68599    14112.121    -134.5597    484.83568   -36624.288     182.9346 
    3550     56.81621     56.81621     56.81621   -19.992649   -22.654179    14283.563    5.2074259    14416.409   -42.531193     484.9751   -36626.071    185.15775 
    3600    56.815602    56.815602    56.815602    62.134913    102.05969    14157.931     96.33748    14140.497   -11.992432    485.05457   -36619.622    181.57613 
    3650    56.817749    56.817749    56.817749   -21.981849   -32.824025    14344.373   -62.313942    14471.203    29.192421    484.94271   -36622.046    184.25338 
    3700    56.818585    56.818585    56.818585    20.576408     -9.14837    14373.994    58.205133    13828.663    12.672462    484.90939   -36617.535    182.04252 
    3750    56.818699    56.818699    56.818699   -43.632583    59.035682    14383.283   -90.581382    14392.933    -99.35205    484.88021   -36618.972    184.02075 
    3800    56.816887    56.816887    56.816887    83.562808    74.779099    14353.363    120.44089    14349.524    55.468432    485.03513    -36618.35    184.54917 
    3850    56.817924    56.817924    56.817924    -33.09368    62.598131    14360.139   -69.980935    14181.271   -91.898236    484.96227    -36619.45    186.29073 
    3900    56.818517    56.818517    56.818517    44.629959    -61.09072    14239.963    93.302172    14363.658    101.67842    485.01155   -36615.198    184.26597 
    3950    56.820277    56.820277    56.820277   -75.500498    80.567175    14656.189   -150.85782    14463.984   -156.21085    484.85566   -36618.567    187.59759 
    4000    56.818961    56.818961    56.818961   -3.7770912   -60.200129    14558.583    21.493653    14954.123    27.375202    484.93967   -36618.094    188.24366 
    4050    56.817582    56.817582    56.817582    73.757411    92.072684    14419.449    124.00241    14611.611    5.1971405    484.98233    -36614.79    186.87303 
    4100    56.819967    56.819967    56.819967    17.817512    66.644366    14648.602   -10.256969    14899.626   -2.9348596    484.93442    -36615.54     188.3738 
    4150    56.822251    56.822251    56.822251   -49.465144   -33.893451    14757.989  -0.32570531    14607.183   -114.17628    484.80455   -36612.746    187.36599 
    4200    56.821996    56.821996    56.821996   -33.529823    19.149617    15045.794   -32.741396    14542.567   -86.997689    484.81957   -36612.256    187.98551 
    4250    56.819964    56.819964    56.819964    50.098739    146.10926    14780.585    32.823337    14810.407   -28.636376    484.94578   -36614.199    190.32293 
    4300    56.820632    56.820632    56.820632    64.912277    62.766518    14736.377    87.491558     14719.09    44.478754    484.91171   -36609.728    188.13535 
    4350    56.823611    56.823611    56.823611    -58.39621   -31.140897    14914.533   -73.925314    14868.166   -70.122418      484.731   -36613.227     191.5677 
    4400    56.823259    56.823259    56.823259   -9.0427375    78.854089    14905.624   -72.116352    14739.496    -33.86595    484.75962   -36609.141    189.65047 
    4450    56.822138    56.822138    56.822138    56.918326    59.648655     14898.07    46.011883    15104.843     65.09444    484.89484   -36609.657     190.9818 
    4500    56.822493    56.822493    56.822493     77.48494     81.01056    14652.815    30.516858    14951.426     120.9274    484.86536   -36607.546    190.45783 
    4550    56.824715    56.824715    56.824715   -83.059038   -83.381745    15084.797   -76.207965    15114.429   -89.587404    484.69044   -36610.122    193.23604 
    4600    56.823997    56.823997    56.823997    30.055534    45.312323    15131.101   -17.828612    14849.131    62.682891    484.85604   -36605.622    191.03117 
    4650    56.823985    56.823985    56.823985    10.785894    35.608394    15301.064   -53.049642    15075.682    49.798929     484.8696   -36607.771    193.50116 
    4700    56.825125    56.825125    56.825125   -35.181355   -79.387804    15232.474   -50.998502     15416.13    24.842242    484.73146   -36608.818    195.20666 
    4750    56.825408    56.825408    56.825408   -13.021697    32.129655    15090.959   -2.5216482    15265.129   -68.673097    484.73877   -36607.626    195.32824 
    4800    56.825224    56.825224    56.825224    26.421248    75.432699    15096.171   -48.484882    15014.467    52.315926    484.81236   -36603.167    193.15013 
    4850    56.825395    56.825395    56.825395    38.815424    47.281607     14870.69    15.986633    14964.955    53.178033    484.80208   -36603.314     194.2155 
    4900    56.826447    56.826447    56.826447    12.525212  -0.10950453    15193.726   -27.068108    15021.975    64.753248    484.81102   -36603.265    195.13621 
    4950    56.827025    56.827025    56.827025   -34.159233   -65.767832    15300.629    37.927447    15309.551   -74.637313     484.6903   -36602.003    195.20947 
    5000    56.826764    56.826764    56.826764    38.145329    59.881707    15506.549   -22.042354     15599.74    76.596634    484.81238     -36602.8    196.72743 
    5050    56.827639    56.827639    56.827639   -79.478654   -77.603486    15809.356   -78.354051    15481.104   -82.478424    484.74925   -36604.845    199.13332 
    5100    56.826552    56.826552    56.826552    17.012551    42.983495    15236.214   -17.871701    15301.224     25.92586    484.80855   -36601.642    197.83325 
    5150    56.826641    56.826641    56.826641    62.852475    47.628594    15465.175    85.596847    15374.889    55.331985    484.80777   -36599.148     197.0341 
    5200    56.828869    56.828869    56.828869   -100.09446   -34.194426    15520.621   -136.41262    15499.465   -129.67635    484.63236   -36602.107    200.07479 
    5250    56.828622    56.828622    56.828622    35.387857    20.353323    15414.809    64.423688    15804.187    21.386561    484.71981   -36598.621      198.576 
    5300    56.829253    56.829253    56.829253   -20.328524   -41.128295    15721.829    17.351121    15743.664   -37.208397    484.70926   -36599.584    200.21399 
    5350    56.830268    56.830268    56.830268   -6.7244489   -47.055805      15554.6   -7.6169841    15976.456    34.499442    484.67806   -36597.724    199.85127 
    5400    56.830263    56.830263    56.830263   -47.150556   -4.3288913     15433.55   -28.785953    15705.394   -108.33682    484.65645   -36597.505    200.66006 
    5450     56.82875     56.82875     56.82875    62.311852    29.596818    15985.444    80.504935    15658.628    76.833802    484.82377   -36594.218    199.28944 
    5500    56.829679    56.829679    56.829679    11.113108    56.462825    15823.577    13.029437      15715.5   -36.152938    484.76491   -36596.722    202.01252 
    5550    56.831164    56.831164    56.831164    10.212174    24.493259    15764.167    62.804326    15770.242   -56.661063    484.66529   -36593.796    200.90222 
    5600    56.831854    56.831854    56.831854   -43.200361     70.49338    15980.545   -100.96228    16008.972   -99.132183    484.56098   -36595.792    203.26658 
    5650    56.829702    56.829702    56.829702    62.122766    66.922577     16076.13    76.931183    16047.846    42.514539    484.82257   -36591.352     201.0894 
    5700    56.830376    56.830376    56.830376    90.499452    118.91219    15865.668    88.140474    15981.358    64.445694    484.77816   -36590.971    201.76369 
    5750    56.833678    56.833678    56.833678   -53.949935   -67.386511    15581.494   -41.318186    15997.537   -53.145107    484.58656   -36590.789    202.59202 
    5800    56.833086    56.833086    56.833086   -17.443168    18.640278    16082.794     1.601541    15992.402   -72.571323    484.53749   -36591.628    204.12867 
    5850    56.831668    56.831668    56.831668    21.588045    104.69248    16195.394   -1.9532295    16046.042   -37.975117    484.72345   -36593.275    206.23968 
    5900    56.833042    56.833042    56.833042   -10.044456   -51.790523    16233.116   -26.983696    16238.449    48.640851    484.68381   -36592.862    206.89137 
    5950    56.835719    56.835719    56.835719   -95.641188   -11.295904     16139.57   -153.93025    16143.072   -121.69741    484.52131   -36591.107    206.60204 
    6000    56.835469    56.835469    56.835469   -28.910472   -55.322506    16199.823   -51.562022    16566.872    20.153111    484.53186   -36589.228    206.22335 
    6050    56.833792    56.833792    56.833792    4.4468802   -13.273139    16588.764   -14.786089    16650.889    41.399869    484.56272   -36591.988    209.11802 
    6100     56.83334     56.83334     56.83334    81.670586    156.31433    16281.775    72.355332    16323.141    16.342095    484.72995   -36585.851    205.73458 
    6150    56.836103    56.836103    56.836103    6.9606108    42.499517    16140.778   -95.351665    16048.004     73.73398    484.56457   -36583.229     204.8259 
    6200    56.837187    56.837187    56.837187   -85.683342   -58.746043    16583.655   -119.57313    16774.046   -78.730852    484.54474   -36587.826    209.01139 
    6250    56.835224    56.835224    56.835224    46.557464    11.000205    16494.874    102.03221    16668.709     26.63998    484.65185   -36586.464    208.98991 
    6300    56.835566    56.835566    56.835566    22.125043    17.103128    16768.575    33.197947    16929.061    16.074055    484.55502   -36587.504    210.66813 
    6350    56.837503    56.837503    56.837503    5.2271789    86.083859    16289.744   -79.903922    16480.555    9.5015994    484.51202   -36582.128    207.81466 
    6400    56.838923    56.838923    56.838923   -61.703902   -59.176325    16630.014    -74.08968    16615.758     -51.8457    484.42896   -36583.059    209.40881 
    6450    56.836761    56.836761    56.836761    56.396771    88.837311    16160.182    51.569539    16206.953    28.783464    484.61318   -36578.652    207.24096 
    6500    56.836108    56.836108    56.836108    49.211136   -24.838062    16559.175    91.962389    16975.236     80.50908    484.62986   -36585.172    212.76915 
    6550    56.838454    56.838454    56.838454   -1.2242697    86.582859    16586.239    -38.88591    16329.338   -51.369758    484.38798   -36580.595    210.47932 
    6600    56.839994    56.839994    56.839994   -59.870032   -17.199496    16321.923   -58.927804    16786.799    -103.4828    484.37148   -36580.512    211.35667 
    6650    56.838715    56.838715    56.838715    -36.53991   -66.152555    17043.098   -66.132468    16991.243    22.665292    484.56511   -36583.116    214.11978 
    6700    56.837653    56.837653    56.837653    48.353054    83.638153    16803.803    91.985822    16916.033   -30.564814    484.58258   -36579.102    212.21985 
    6750    56.839513    56.839513    56.839513   -29.270936   -37.189601    17115.292   -78.341109     16985.06    27.717902    484.54116   -36581.904    215.12928 
    6800    56.841066    56.841066    56.841066   -27.690294    21.344941    16770.666   -26.669752     17062.93    -77.74607    484.41689   -36578.832    213.89257 
    6850    56.840841    56.840841    56.840841   -79.412144   -63.207777      17075.2   -119.94333    17075.205   -55.085321    484.44585   -36579.623     215.3783 
    6900    56.838307    56.838307    56.838307    125.62454    173.93467    16779.184    122.99403    16719.846    79.944913    484.67201    -36574.73    212.85514 
    6950    56.840922    56.840922    56.840922   -27.583068    8.5269478    17111.456   -93.896212    17175.433    2.6200617    484.54189   -36578.108    216.15684 
    7000     56.84355     56.84355     56.84355   -78.813867   -49.875381    17087.728   -48.257275    17373.524   -138.30894    484.26656   -36577.526    216.67301 
    7050    56.842369    56.842369    56.842369   -29.831921   -2.4035377    17068.889    0.4535994    17133.256   -87.545825    484.36797   -36574.636    215.55852 
    7100    56.841144    56.841144    56.841144    18.095139    5.3815645      17318.5    35.431048    17287.963    13.472803    484.45196   -36577.254    218.32475 
    7150    56.841853    56.841853    56.841853     74.02273    142.27436    17020.611    10.184172    16836.006    69.609655    484.45191   -36570.558    214.52697 
    7200    56.844136    56.844136    56.844136   -84.718317   -173.26202    17022.811    27.274815    17740.703   -108.16774    484.29833   -36575.306    218.79281 
    7250    56.842781    56.842781    56.842781    61.081133    74.973469    16717.474    8.7315841    17133.672    99.538347    484.42778   -36570.546    216.35732 
    7300    56.842824    56.842824    56.842824    9.9311418    40.584082    17229.568    15.125693    17304.335   -25.916349    484.52351    -36572.28    218.49125 
    7350    56.844445    56.844445    56.844445   -5.1000228    13.511658    17427.143   -52.870357    17386.241     24.05863     484.3813   -36572.403    219.49535 
    7400    56.844932    56.844932    56.844932    6.7807896    -19.81658    17173.754    92.444764    17480.875   -52.285815    484.29156   -36567.925    217.25048 
    7450    56.845196    56.845196    56.845196   -33.953192   -47.871966    17018.005   -1.8206271    17212.087   -52.166982    484.28943   -36570.389    219.89354 
    7500    56.844349    56.844349    56.844349    61.584437    128.99101     17738.15   -56.200387    17362.563    111.96268    484.38919   -36568.318    219.34903 
    7550    56.845377    56.845377    56.845377    -26.47981    11.161814    17565.622   -44.107721    17610.983   -46.493521    484.37612   -36569.707    221.23597 
    7600    56.845895    56.845895    56.845895    24.289188    17.957796    17524.414    17.051605    17616.155    37.858163    484.33885   -36567.298    220.44913 
    7650    56.845724    56.845724    56.845724   -4.6138572   -16.183617    17604.104    9.4486186     17741.31   -7.1065727    484.31952   -36566.614     220.8707 
    7700    56.845572    56.845572    56.845572     37.04861    90.512447    17530.096   -19.102755    17316.753    39.736137    484.39245   -36565.665    221.10437 
    7750    56.846259    56.846259    56.846259     31.87068    16.585386    17360.413     49.49833    17194.297    29.528323    484.40069   -36562.473    219.75672 
    7800    56.847283    56.847283    56.847283   -52.020832   -24.613647    17881.521   -62.853994    18048.189   -68.594854    484.38075   -36569.616    225.69392 
    7850    56.847821    56.847821    56.847821   -53.068473   -155.14515    17365.366    29.182226    18148.381   -33.242494    484.30586   -36566.415     224.3339 
    7900    56.846915    56.846915    56.846915    6.4147915    123.26922     18237.57   -128.56465    18168.385    24.539801     484.4035   -36567.423    225.95089 
    7950    56.847204    56.847204    56.847204    2.6732696    5.7306465     17517.66   -22.913786    17670.596    25.202948    484.39038   -36563.023    223.73679 
    8000    56.848235    56.848235    56.848235   -19.302297   -39.483374    18180.316     47.61011    17906.003   -66.033628    484.26428   -36562.119     223.9973 
    8050    56.848381    56.848381    56.848381    2.5413274   -31.801816    18116.443   -42.517043    17961.803    81.942841    484.34307   -36564.746    226.74195 
    8100    56.849428    56.849428    56.849428   -13.064817    61.818735    17847.401   -9.9016425    17537.282   -91.111543    484.33108   -36560.412    224.57892 
    8150    56.849918    56.849918    56.849918   -1.5112566   -12.717261    17846.198    41.696862    17776.265    -33.51337    484.18293   -36559.674    224.94523 
    8200    56.849628    56.849628    56.849628   0.84488228    17.307874    17874.016    4.3877269    18170.916   -19.160954     484.2377   -36561.257    226.95346 
    8250    56.849403    56.849403    56.849403   -29.905704   -39.518304    18014.997   -10.896355    18221.186   -39.302452    484.31342   -36558.918    226.18667 
    8300    56.849121    56.849121    56.849121     52.03452    112.34156    17996.828    28.907556    18102.421     14.85444    484.36835   -36558.526    226.79595 
    8350    56.850498    56.850498    56.850498    1.1136224   -38.200408     17954.05    1.0060852    18189.277     40.53519    484.28179   -36559.113    228.09591 
    8400    56.852008    56.852008    56.852008    -49.73858    3.7715073    18405.796   -72.316596     18312.22   -80.670651    484.17665   -36560.144    229.70153 
    8450    56.852167    56.852167    56.852167   -46.970025   -86.744564    18302.039    33.550086     18276.13   -87.715597    484.24547   -36556.694    228.14968 
    8500    56.851005    56.851005    56.851005     80.66316    149.65051    18185.422    55.970375    18393.249    36.368592    484.25253   -36555.688     228.3191 
    8550     56.85178     56.85178     56.85178    43.098919    73.636639    18227.364    60.299207    18013.748   -4.6390878    484.29315   -36553.166    227.41461 
    8600    56.853684    56.853684    56.853684   -62.527142   -32.620803    18301.567   -7.7784827     18260.13   -147.18214    484.18096   -36557.545    231.37648 
    8650    56.853352    56.853352    56.853352   -54.810131    -38.09181    18514.247   -97.230377    18261.364   -29.108205    484.16176   -36555.339    230.69017 
    8700    56.851777    56.851777    56.851777    57.351269    83.767126    18425.013     143.8738    18151.309   -55.587118    484.20313   -36555.655     231.7864 
    8750    56.852298    56.852298    56.852298     53.47167    157.20548    18243.185    49.977405    18165.744   -46.767879    484.22504   -36553.086    230.84571 
    8800    56.854658    56.854658    56.854658    12.525858   -68.642565    18467.875     59.77739    18395.718    46.442749    484.16348   -36550.328    229.76459 
    8850    56.856032    56.856032    56.856032   -97.914841   -24.964722    18754.594   -165.74703    18331.336   -103.03277    484.11024   -36554.174    233.34105 
    8900    56.853011    56.853011    56.853011    86.985605    116.74187    18592.826    120.88361    18478.807    23.331331    484.26245   -36549.193    230.68843 
    8950    56.852752    56.852752    56.852752    43.310976     66.67455    18878.729    97.313596    19045.036   -34.055219    484.25337   -36554.393    235.21666 
    9000    56.856027    56.856027    56.856027   -34.744341   -12.770337     18690.36   -10.443599    18509.045   -81.019086    484.12537    -36549.71    232.76866 
    9050    56.857701    56.857701    56.857701   -98.795279   -90.378524    18371.721   -20.592726    18934.563   -185.41459    484.07474   -36549.926    233.78176 
    9100     56.85447     56.85447     56.85447    61.588367    95.269547    18797.833   0.21579166    18304.327    89.279762     484.2834   -36547.306    232.78602 
    9150    56.853832    56.853832    56.853832    104.62124    83.584872     18858.24    153.53306    18810.316    76.745781    484.27226    -36548.71    234.63202 
    9200    56.857402    56.857402    56.857402    -74.12141   -17.922546     19035.99   -113.43995      18924.8   -91.001733    484.08536   -36550.584    236.80488 
    9250    56.858281    56.858281    56.858281   -21.664656    12.531836    18386.842   -22.488838    18738.198   -55.036966    484.00351   -36544.417    233.30188 
    9300    56.857061    56.857061    56.857061   -14.670366    11.389467      18993.2   -14.238474    19133.096   -41.162092    484.07324   -36548.393    236.95215 
    9350    56.855451    56.855451    56.855451    179.03332    293.18646    18594.444    98.503148    18646.347    145.41036    484.21171   -36542.077    233.34848 
    9400    56.858931    56.858931    56.858931   -48.330915   -80.119583    19025.853   -20.798809    18672.877   -44.074353    484.12229   -36543.424    235.13415 
    9450    56.860053    56.860053    56.860053   -62.019081    71.776319    19299.464   -177.68385    18957.685   -80.149714    483.98473   -36544.395    236.65916 
    9500    56.857363    56.857363    56.857363    22.144485      132.798    19188.884   -23.244274    18939.968    -43.12027      484.136   -36544.959     237.8969 
    9550    56.856718    56.856718    56.856718    88.130772    6.5372717    19187.572    83.265386    19346.066    174.58966    484.27031   -36543.834     237.9386 
    9600    56.860512    56.860512    56.860512   -58.123824   -7.9858301     19201.55   -155.78403    19213.741   -10.601614    483.99243   -36545.919    240.24223 
    9650    56.860916    56.860916    56.860916   -93.302354   -46.686435      19006.3   -74.977827    18991.103    -158.2428    483.99477   -36542.017    238.32636 
    9700    56.857253    56.857253    56.857253    144.07492     194.7485    18911.568     9.211564    19089.511     228.2647    484.34031    -36538.83    236.90287 
    9750    56.858936    56.858936    56.858936    46.091304   -13.778146    19093.589    78.138092    19632.027    73.913966    484.14362   -36544.506    241.73059 
    9800    56.863063    56.863063    56.863063   -98.435868   -93.690357    19361.194   -144.10596    18998.205   -57.511289    483.94932   -36539.211    238.82299 
    9850    56.863398    56.863398    56.863398   -166.44632   -179.36678    19703.573   -189.96593    19598.196   -130.00627    483.84734   -36544.697    243.50753 
    9900    56.858424    56.858424    56.858424     154.6618    270.05072    19028.587    39.171054     19038.25    154.76364    484.20904   -36537.051    238.94449 
    9950    56.859051    56.859051    56.859051    105.68897   -24.106795    18963.113    222.96105    19198.076    118.21267    484.23155   -36537.101    239.79416 
   10000    56.864491    56.864491    56.864491   -142.01079   -15.189103     19657.43   -194.73627    19388.788   -216.10699    483.87872   -36541.157    243.47305 
   10050    56.864017    56.864017    56.864017   -100.58665   -103.34204    19458.398   -148.12735    19581.448   -50.290552    483.92384   -36538.363    242.31793 
   10100    56.860065    56.860065    56.860065    99.031098    120.48734    19269.179    140.57911    19538.557    36.026836    484.10543   -36539.302    243.78778 
   10150    56.861316    56.861316    56.861316    94.920897    208.18636    19816.068    2.5628354    19159.694    74.013497    484.15341   -36534.772    241.40333 
   10200    56.866052    56.866052    56.866052   -160.16343   -259.04395    19660.955   -103.60708     20071.15   -117.83925    483.96576   -36539.644     245.6404 
   10250    56.864812    56.864812    56.864812   -26.597891   -15.466019    19515.281   -46.329533    19161.053   -17.998121    483.95964    -36533.43    242.06683 
   10300    56.861445    56.861445    56.861445    149.76929    126.29124    19724.375    141.06916    19764.753    181.94746    484.07602   -36533.981     243.2582 
   10350    56.862821    56.862821    56.862821    11.487024    51.906567    19716.726    56.814679    19410.499   -74.260174    484.03343    -36534.68    244.55298 
   10400    56.865893    56.865893    56.865893   -35.474758   -12.459707    19703.276   -17.783992    19664.919   -76.180575    483.88224   -36532.537    243.83525 
   10450    56.866326    56.866326    56.866326   -51.546655   -89.188483    19500.823   -32.574048    19944.239   -32.877432    483.82106   -36535.173    246.49081 
   10500    56.864493    56.864493    56.864493    47.091711    83.029365    19494.166    43.683905    19441.385    14.561862    483.91648   -36530.875    244.24843 
   10550    56.865536    56.865536    56.865536    13.125265   -9.8126416    20001.296   -31.079632    20007.535    80.268068    483.94009   -36534.847    247.83816 
   10600    56.867189    56.867189    56.867189   -40.285396   -58.533814    19571.444   -71.440551    19798.834    9.1181759    483.84082   -36529.547    244.88805 
   10650    56.866544    56.866544    56.866544   -18.510448   -60.434257    19833.552   -10.587505    20073.133    15.490418    483.99869   -36531.633    247.14421 
   10700    56.865061    56.865061    56.865061    33.536942    47.157644     20002.45    2.4967929    20213.749     50.95639    483.99519   -36534.489    249.94018 
   10750    56.867196    56.867196    56.867196   0.12503737   -8.5946339    19974.503   -34.294356    19708.284    43.264102    483.84416   -36530.161    247.66722 
   10800    56.869507    56.869507    56.869507   -99.133764   -105.07185    19688.588   -45.764678    19964.486   -146.56476    483.76072   -36530.212    248.48353 
   10850     56.86729     56.86729     56.86729  0.080019596    61.348077    19882.266   -60.368734    19629.477  -0.73928425    483.88074   -36529.742    248.92105 
   10900    56.866329    56.866329    56.866329    78.433456    76.985378    19936.133    118.89892    19676.327    39.416073    483.97219   -36528.432    248.76914 
   10950    56.869308    56.869308    56.869308   -57.767166    25.148891    20362.656   -105.80808    19749.548   -92.642312    483.84869   -36527.111     248.6038 
   11000    56.869779    56.869779    56.869779   -91.992592    -97.54218    20273.201    -5.355358    20014.235   -173.08024    483.78049   -36527.205    249.44124 
   11050     56.86616     56.86616     56.86616    177.64919    197.87623    19881.589    157.66529     20092.92    177.40605    484.00014    -36523.86    247.85071 
   11100    56.868122    56.868122    56.868122   -14.480279   -38.943133    20243.864    7.9216503    20230.278   -12.419354    483.87463   -36528.225    251.68765 
   11150    56.870895    56.870895    56.870895   -47.086327   -41.688967    20231.094    45.607891    20147.813   -145.17791    483.70598   -36524.672    249.94351 
   11200    56.870861    56.870861    56.870861   -104.78092   -135.90639    20772.833   -90.136313    20561.913   -88.300072    483.81309   -36527.959    253.01625 
   11250    56.867992    56.867992    56.867992    80.906383   -4.3126116    19990.536    142.35539    20379.834    104.67637    483.98524   -36525.763    252.21917 
   11300     56.86846     56.86846     56.86846    65.605904    93.841189    20022.167    23.717776    19666.593    79.258747    483.86979   -36521.399    249.89766 
   11350    56.871106    56.871106    56.871106   -6.8129354     18.12323    20425.446    39.509997    20113.076   -78.072033     483.6477   -36522.876     251.6836 
   11400    56.872009    56.872009    56.872009   -51.276761   -42.002175    20179.033   -43.549156    19792.278   -68.278952    483.68164   -36522.258    251.99223 
   11450    56.869785    56.869785    56.869785    110.31365   -23.285011    20193.594    179.32469     20477.45    174.90128     483.9566   -36519.156    250.54758 
   11500    56.870827    56.870827    56.870827    9.5936307   -24.980564     20641.13     5.408319    20316.499    48.353137    483.89011   -36524.096    254.76989 
   11550    56.873401    56.873401    56.873401   -36.903003   -95.946526    20320.804    16.419421    20295.091   -31.181905    483.70577    -36520.69    253.10383 
   11600    56.873767    56.873767    56.873767   -131.43001   -22.182242    20958.089   -228.87976    20429.467   -143.22802    483.55628   -36524.429    256.47714 
   11650    56.870768    56.870768    56.870768    39.895285    81.191456    20157.525    74.332659     20084.09    -35.83826    483.70278   -36519.263    253.56795 
   11700    56.870642    56.870642    56.870642    116.35714    45.884615      20736.7    212.79541    20899.959     90.39139    483.87701   -36520.309    255.04007 
   11750    56.874513    56.874513    56.874513   -63.424314   -126.60176    20678.952    -70.14658    20458.023    6.4753977    483.72815    -36516.31    252.94374 
   11800    56.875355    56.875355    56.875355   -46.467621   -124.81582    20677.075    17.302101    20508.947   -31.889145    483.67347   -36517.383    254.42658 
   11850    56.872232    56.872232    56.872232    11.273582    5.6962853    20905.207   -58.665426    20975.186    86.789888    483.82134   -36523.065    259.15449 
   11900    56.871383    56.871383    56.871383    131.23855     122.7201    20213.174    134.17837     20215.45    136.81718    483.81854   -36515.889    254.80974 
   11950    56.875942    56.875942    56.875942   -58.773173   -89.044764    20866.426    46.925168    20698.064   -134.19992     483.6254   -36516.043    255.63296 
   12000    56.877243    56.877243    56.877243   -112.75466   -166.64461    20636.831   -63.296873    20971.611    -108.3225     483.6227   -36517.685    257.49977 
   12050    56.873147    56.873147    56.873147    30.408748    -40.79625    21167.154    73.423791    20842.973    58.598702    483.70976    -36518.19     258.5689 
   12100    56.871671    56.871671    56.871671    78.478824    47.418831    20660.814    171.36936     20853.58    16.648278    483.86187   -36518.697    259.63154 
   12150    56.876291    56.876291    56.876291    25.244223   -87.837616    20733.723    25.323282    20440.239      138.247    483.62387   -36511.572    255.30816 
   12200    56.879789    56.879789    56.879789   -226.38531   -268.72931    21296.871   -284.52783    21112.875    -125.8988    483.41362   -36516.693    259.62406 
   12250      56.8744      56.8744      56.8744    82.328458    82.536055    20879.841    43.289565    20844.349    121.15975    483.76136   -36513.706    258.21483 
   12300    56.873284    56.873284    56.873284    98.238805    102.61493    20802.955    90.400461    20773.544    101.70102    483.76478   -36516.042    260.56037 
   12350    56.878201    56.878201    56.878201   -90.078247   -48.878113    21266.681    -211.4649    21041.519   -9.8917284     483.5266   -36513.119    259.19362 
   12400    56.879037    56.879037    56.879037   -110.77093   -177.64656      20819.9    -61.00398    21149.417   -93.662263    483.47837   -36512.978    259.78949 
   12450    56.874417    56.874417    56.874417    111.06738    93.587059    21234.981   -6.5624922    21011.162    246.17757    483.84355   -36511.412    259.37022 
   12500    56.874435    56.874435    56.874435    73.470654    67.603124     21401.24       112.65    21175.625    40.158833    483.72186   -36513.708    261.67062 
   12550    56.878852    56.878852    56.878852   -72.342631   -74.556477    21083.114   -169.99685    20948.675     27.52543    483.45205   -36511.151    260.54548 
   12600    56.880396    56.880396    56.880396   -113.40605   -136.41379    20673.606   -111.61178      20762.8   -92.192588    483.45747   -36510.586    260.82595 
   12650    56.876809    56.876809    56.876809    94.900239    51.106993    20895.345    102.13513    20799.815     131.4586    483.74185   -36509.516    260.74703 
   12700    56.876831    56.876831    56.876831    114.29304    104.93348    21214.886     52.91547    21168.714    185.03016    483.69786   -36508.534    260.72966 
   12750    56.880955    56.880955    56.880955   -117.61029   -247.83019    21169.788   -103.61401    21164.541   -1.3866525    483.46594   -36510.399    262.71518 
   12800    56.880292    56.880292    56.880292     -74.6217    -127.3411    21092.946   -87.819847    21051.908   -8.7041567    483.47406   -36508.402    261.97231 
   12850     56.87693     56.87693     56.87693    1.9888575   -81.001986    21608.623   -46.088433     21831.79    133.05699     483.7209   -36513.031     265.9018 
   12900    56.876706    56.876706    56.876706     190.3332    135.19266     21416.48     164.5141    20969.346    271.29284    483.77187   -36507.282    262.50415 
   12950    56.882883    56.882883    56.882883   -137.55546   -142.03366    21227.113   -145.21792    21197.205   -125.41481    483.38354   -36504.888    261.47154 
   13000    56.881865    56.881865    56.881865   -65.635646   -118.89377    21550.341   -105.50936    21568.639    27.496196     483.4447   -36507.297     263.8234 
   13050    56.877028    56.877028    56.877028    172.86677    152.03358    21123.813    185.09563     21271.61    181.47109    483.69503   -36503.199    261.58511 
   13100    56.879123    56.879123    56.879123    47.774233    22.971729     21167.99     51.28416    21443.326    69.066811    483.56145   -36506.812    264.78001 
   13150    56.883432    56.883432    56.883432   -94.522645   -80.953606     21717.39   -164.16606    21431.281   -38.448267    483.39842   -36506.489    265.20091 
   13200    56.882902    56.882902    56.882902   -102.95001   -202.48202      21915.6   -98.462739    21536.439   -7.9052703     483.4606   -36506.679    265.97758 
   13250    56.879345    56.879345    56.879345    91.447866    91.588398     21157.97    26.421968    21352.999    156.33323    483.71567   -36504.664    265.19617 
   13300    56.880694    56.880694    56.880694    45.362014   -34.526738    21644.957   -21.428192    21345.912    192.04097    483.57702   -36503.804    265.22997 
   13350    56.883482    56.883482    56.883482   -43.744955     30.30167    21443.889   -149.44213    21237.762   -12.094406    483.40003   -36503.078    265.35302 
   13400    56.883273    56.883273    56.883273   -83.270707   -250.81007    21687.804    -69.75202    21471.242    70.749973    483.45821   -36502.819    265.79797 
   13450    56.880651    56.880651    56.880651    94.995331    87.080967    22024.734    26.766256    21503.961    171.13877    483.60336   -36505.268    268.15402 
   13500    56.882817    56.882817    56.882817    11.039394   -85.394829    21789.429   -1.2770372    21591.266    119.79005     483.5366    -36501.22    265.91984 
   13550    56.885608    56.885608    56.885608   -126.19796   -185.37594    21939.313   -179.35941    21292.025   -13.858531    483.27516   -36503.521    268.16696 
   13600    56.883271    56.883271    56.883271    7.7697774   -20.829806    21424.654    14.108163    21882.955    30.030976    483.46629   -36502.467    268.03814 
   13650    56.880992    56.880992    56.880992    129.73929    134.60778    21420.123    52.275088    21704.141    202.33501    483.67882   -36497.797     265.3611 
   13700    56.883536    56.883536    56.883536    20.036436   -37.388856    21554.316    13.804319    21819.263    83.693844    483.48056   -36499.037    266.84377 
   13750    56.886699    56.886699    56.886699   -119.60191   -21.258941    22056.723   -184.20056    21655.384   -153.34624    483.25534   -36500.644    268.58652 
   13800    56.884057    56.884057    56.884057    57.499664    11.151808    21408.323    108.74949    21706.499    52.597694    483.35667   -36495.958    265.89087 
   13850    56.882384    56.882384    56.882384    41.858702    50.551686    21860.739   -58.438601    22073.156    133.46302    483.58333   -36502.253     270.9349 
   13900    56.883933    56.883933    56.883933    20.025314    46.874906    21815.702   -10.333844     22135.92    23.534881    483.47529   -36499.628    269.68676 
   13950    56.887095    56.887095    56.887095   -81.994839   -39.117717    21865.187   -99.861373    22044.073   -107.00543    483.20788   -36499.046    269.87428 
   14000    56.885961    56.885961    56.885961   -15.150204    35.574007    21780.499   -120.44713    22269.939    39.422512    483.33969   -36497.156    269.13761 
   14050    56.883223    56.883223    56.883223     71.72275   -26.049342    21938.495    115.22173    21917.912    125.99586    483.55978   -36498.583    270.73053 
   14100    56.884343    56.884343    56.884343    47.340636   -3.1082221    21661.193   -57.011195     22359.68    202.14132    483.55281    -36495.75    269.31997 
   14150    56.887212    56.887212    56.887212   -55.697285   -25.085652    21705.139   -2.3125438    21531.338   -139.69366    483.22582   -36496.282    270.27759 
   14200    56.886997    56.886997    56.886997    3.9619965    -13.11553    22006.992   -83.996182    21720.169     108.9977    483.21729   -36493.867    269.15885 
   14250    56.885501    56.885501    56.885501    26.191782   -54.725124    22008.662    81.992712    22586.756    51.307757    483.45156   -36495.107    270.61429 
   14300    56.885732    56.885732    56.885732    122.64097    26.009676    22051.881    12.225796    21815.647    329.68743    483.49564   -36493.471    270.03763 
   14350    56.888853    56.888853    56.888853   -78.200624   -120.07071     21947.44   -116.43934    22071.183    1.9081829    483.19454   -36495.543     272.0728 
   14400    56.888301    56.888301    56.888301    34.735356     24.40051    21944.335    85.186215    22395.892   -5.3806591    483.13288   -36493.947    271.51493 
   14450    56.887517    56.887517    56.887517   -37.240188    10.622599    22564.155   -203.19189    22062.517    80.848725     483.3596   -36495.427    273.12083 
   14500    56.886974    56.886974    56.886974    68.439582   -1.9800165    22475.244    66.640628    22194.952    140.65813    483.42447    -36493.29    272.17676 
   14550    56.889182    56.889182    56.889182   -55.682303    -39.50121    22203.183   -136.77517    21932.565    9.2294733    483.28138   -36494.711    273.73873 
   14600    56.889012    56.889012    56.889012   -28.985119   -59.231916    22215.813   -98.993684    22148.809    71.270241    483.34662   -36491.986    272.37513 
   14650    56.887361    56.887361    56.887361    78.585364    133.42277    22154.717   -1.5960223    22063.063    103.92935    483.38512   -36491.714    272.73443 
   14700     56.88862     56.88862     56.88862   -58.734077   -109.27115    22346.746   -81.900589    22371.301    14.969513    483.28905   -36496.283    276.50653 
   14750    56.888985    56.888985    56.888985    2.8537523   -3.9073304     22047.15   -66.283683    22470.926     78.75227    483.30445   -36490.696    273.11182 
   14800    56.888907    56.888907    56.888907   -19.161858    63.275425    22200.469   -60.661225    21959.863   -60.099773    483.27344   -36491.934    274.52754 
   14850    56.888173    56.888173    56.888173    109.46163    47.787793    22518.002   -58.210391    22363.055     338.8075    483.37669   -36490.365    273.96442 
   14900    56.890606    56.890606    56.890606   -95.053114   0.02339692    22324.204   -116.76286    22468.401   -168.41988    483.21188   -36492.375    275.92029 
   14950    56.889994    56.889994    56.889994   -5.0220196   -183.77503    22095.033    -38.54847    22311.934    207.25744    483.27994   -36488.616    273.80589 
   15000    56.888459    56.888459    56.888459    46.855633    78.737891    22452.272    36.647109    22078.498    25.181898     483.3136    -36490.19    275.44536 
   15050    56.888954    56.888954    56.888954   -9.6023083   -45.904425    22902.305   -87.367039     22242.98    104.46454    483.40874   -36491.154    276.65452 
   15100    56.890451    56.890451    56.890451   -56.774675   -103.84046    22133.404   -109.49569    22720.492    43.012124     483.3322   -36489.274    275.85398 
   15150    56.890424    56.890424    56.890424   -48.379254   -153.65101      22697.4   -105.85689     22707.34    114.37015    483.38026     -36491.3    277.80969 
   15200    56.888784    56.888784    56.888784    87.634494    6.1356522    22641.345    60.741603    22642.653    196.02623    483.43207    -36488.51    276.36227 
   15250    56.889785    56.889785    56.889785    17.949486    16.762174    22421.469   -57.338962    22112.771    94.425247    483.30599   -36487.023    275.82512 
   15300    56.891642    56.891642    56.891642   -16.241548    -170.6282    22315.018   -33.433419    22280.708    155.33698    483.27681    -36484.64    274.65311 
   15350    56.891835    56.891835    56.891835   -91.586952    -42.59379      22863.6   -185.66837    22793.491   -46.498693    483.22362   -36491.454    279.96609 
   15400    56.888615    56.888615    56.888615     93.52794     17.90775    22030.553    101.62042    22476.354    161.05564    483.35962   -36484.232     275.3798 
   15450    56.889808    56.889808    56.889808    24.496751    21.211802    22787.474   -41.941334    22977.759    94.219784    483.33535   -36492.192    281.49334 
   15500    56.893711    56.893711    56.893711   -79.327417    17.560948    22466.379   -208.20825    22259.571   -47.334947    483.09068   -36483.487    275.85208 
   15550    56.894081    56.894081    56.894081   -110.56586   -192.66487    22794.387   -118.01076    22668.395   -21.021957    483.19028   -36486.493    278.46794 
   15600    56.890352    56.890352    56.890352    75.978322    172.69339    22605.489   -12.268976    22628.839    67.510555    483.34252   -36485.173    278.03425 
   15650    56.890031    56.890031    56.890031     96.64499   -45.235391    22701.547    164.63391     23064.69    170.53645    483.35661   -36487.039    279.84381 
   15700    56.894261    56.894261    56.894261   -64.779364  -0.62616814    22390.506    -189.6787    22813.423   -4.0332253    483.12944    -36483.87    278.09467 
   15750    56.895239    56.895239    56.895239   -153.86075   -166.33989    22657.911   -226.81014    22762.837   -68.432202    483.13112   -36484.831    279.25601 
   15800    56.890182    56.890182    56.890182    109.47489    85.922129    22836.425    101.99214     22506.62    140.51039    483.35607   -36485.302     280.0696 
   15850     56.89035     56.89035     56.89035    129.72671    269.95725    22670.612   -35.161723    22480.617    154.38459    483.35598   -36481.614    277.94646 
   15900    56.895714    56.895714    56.895714   -120.26386   -167.85487    22876.171   -169.06464    23110.501   -23.872081    483.00397   -36484.823    280.68573 
   15950    56.895102    56.895102    56.895102      1.02705    5.6256019    22716.071   -127.80941    22682.757    125.26495    483.01303   -36479.801     277.6167 
   16000    56.892119    56.892119    56.892119    4.7798054   -50.749444    22699.184    72.843386    23200.117   -7.7545262    483.23621    -36484.82     281.6239 
   16050    56.890863    56.890863    56.890863    132.03736    130.46402    22814.433    177.70368    22682.596    87.944372    483.35119   -36482.017    280.11367 
   16100    56.895353    56.895353    56.895353   -124.30315   -227.30463     23172.21   -141.70884    23048.404   -3.8959851    483.12843    -36484.77     282.5132 
   16150    56.896306    56.896306    56.896306   -35.547615   -21.799319    22924.014   -9.2031044    22513.573   -75.640422    482.95429   -36479.637    279.35484 
   16200    56.894415    56.894415    56.894415    3.8988613    38.419817    23137.512   -105.90283    23023.687    79.179594    483.18376   -36483.752    282.71271 
   16250    56.893072    56.893072    56.893072    79.305946    22.663096    22839.264    120.62195    22835.705     94.63279    483.29438     -36480.1    280.59077 
   16300     56.89519     56.89519     56.89519   -9.8924863   -0.6872959    23123.577    86.985758    22552.496   -115.97592    483.05168    -36481.33    281.90493 
   16350    56.897382    56.897382    56.897382   -61.315561   -189.29669    23101.081    -54.13282    23025.777    59.482827    483.07235   -36480.244    281.58518 
   16400    56.896242    56.896242    56.896242   -51.190417   -111.86702    23067.415    23.031555    22903.414   -64.735788    483.15471   -36480.512    282.22032 
   16450    56.892598    56.892598    56.892598    91.000737    76.839873    23296.138    61.303641    23337.219     134.8587    483.32527   -36482.957    284.38789 
   16500    56.893676    56.893676    56.893676    113.26595     101.7218    23497.098    4.2529178    22843.409    233.82312    483.41341   -36477.056    280.65897 
   16550    56.899087    56.899087    56.899087   -166.69439   -76.455215    23128.941   -196.12207    22756.137   -227.50588    482.97626   -36480.716    283.67129 
   16600     56.89754     56.89754     56.89754   -82.928843   -94.856268    23054.827   -91.094291    22794.991   -62.835969    483.03615   -36477.149    281.58546 
   16650    56.893507    56.893507    56.893507    85.482249     70.02492    23123.348     183.6632    23459.125    2.7586236    483.29236   -36482.221     285.5919 
   16700    56.895371    56.895371    56.895371    29.242499   -36.844139    23002.096   -34.295597    23925.147    158.86723    483.29414    -36480.65    284.91048 
   16750    56.899242    56.899242    56.899242   -133.97359   -189.87329    23486.407   -149.70926    23408.843   -62.338205    482.94675   -36480.302    285.08948 
   16800     56.89736     56.89736     56.89736    -42.21128   -152.62765    22935.805    55.818335    23286.823   -29.824528    483.15613   -36475.564    282.16438 
   16850    56.893391    56.893391    56.893391    126.68614    143.15799    23036.796    51.078636    23108.451    185.82179    483.32569   -36477.734    284.10823 
   16900    56.894884    56.894884    56.894884    18.389256    33.022407    23635.295    31.334208    23237.837    -9.188847     483.2845   -36480.696    286.60557 
   16950    56.898539    56.898539    56.898539   -12.804635   -73.880937    22974.242    24.667248    22935.841    10.799782    482.99195   -36471.667    280.64556 
   17000    56.898567    56.898567    56.898567    -166.8334   -318.53861    23185.053   -114.40747    23557.548   -67.554108     483.0799   -36480.812    287.49934 
   17050    56.894072    56.894072    56.894072    174.08261    181.10178    23607.999    128.37928    23513.583    212.76676    483.27225   -36477.414    285.50288 
   17100    56.897545    56.897545    56.897545   -33.210443   -10.415349    23592.424   -95.581551    22831.556    6.3655691    483.18625   -36476.858    285.51089 
   17150    56.900399    56.900399    56.900399    -127.7804   -230.66536    23094.692    33.370157    23341.128   -186.04601    483.01422   -36475.928    285.25104 
   17200     56.89737     56.89737     56.89737    14.858068    48.547291    23045.129    7.7513973    22774.522   -11.724484    483.15253   -36475.227    285.15371 
   17250    56.895166    56.895166    56.895166    118.24412    37.743761    23210.804    149.12933    23596.767    167.85926    483.30313    -36475.58    285.79471 
   17300    56.898769    56.898769    56.898769    35.926509    39.911572    23074.663    106.52294    23363.663    -38.65499    483.05893   -36471.852    283.55397 
   17350    56.901476    56.901476    56.901476   -180.36056   -141.64241     23686.55   -192.22136    23683.067    -207.2179    482.82101    -36477.36    287.82397 
   17400    56.897641    56.897641    56.897641    74.546656   -22.614377    22787.469    196.49332    23179.266     49.76102    483.07891   -36473.785    285.68451 
   17450    56.896932    56.896932    56.896932    49.535166    165.97287    23126.175    43.716308    23498.118   -61.083679    483.08342   -36476.859    288.23247 
   17500         56.9         56.9         56.9   -81.307318   -117.66651    23391.251   -13.920099    23575.089   -112.33534    483.04848   -36475.984    287.99008 
   17550    56.900448    56.900448    56.900448   -51.675045   -47.685359    23084.913   -80.208059    23495.655   -27.131718    482.95955   -36474.303    287.17715 
   17600    56.898187    56.898187    56.898187    14.245509   -24.822849    23209.075    14.056305    23849.757     53.50307    483.04221   -36474.852    287.93118 
   17650    56.897512    56.897512    56.897512    92.916973    34.009693    23184.803    134.24025    23380.813    110.50098    483.11236   -36469.551    284.55683 
   17700    56.900523    56.900523    56.900523   -65.221952   -31.546235    23044.694   -58.522486    23505.724   -105.59713    482.80157   -36475.898    289.39429 
   17750    56.901025    56.901025    56.901025    50.774743   -71.077213    22986.241    115.03504    23228.402     108.3664    482.87742   -36467.539    283.86121 
   17800    56.900786    56.900786    56.900786   -60.399228   -59.232473    23434.567   -121.02071    23471.328  -0.94450644    483.02831   -36472.929    288.01699 
   17850    56.898885    56.898885    56.898885    51.889462    21.461743    23410.552    70.720234    23607.019    63.486408    483.06576   -36474.015    289.13842 
   17900     56.89887     56.89887     56.89887   -1.8572999   -57.578366    24004.974    39.687414    23854.515    12.319053    483.05694   -36476.015     290.9011 
   17950    56.901286    56.901286    56.901286   -84.676158   -101.36299    22898.262    -39.34843    23332.065   -113.31705     482.8722   -36470.845    287.60354 
   18000    56.900863    56.900863    56.900863   -7.2039125   -133.93108    23449.073    67.836861    23751.823    44.482481    482.96622   -36472.136    288.86297 
   18050    56.899079    56.899079    56.899079    33.890866    21.778321    23432.613    93.262497     23863.89    -13.36822    483.00636   -36471.793    288.96082 
   18100    56.899822    56.899822    56.899822    79.771296    17.590111    23848.044    35.900828    23549.126    185.82295    483.11406   -36469.364    287.58767 
   18150    56.902796    56.902796    56.902796   -119.96418   -35.861939    23690.124   -156.49004    23551.145   -167.54057    482.85867   -36473.081    290.54298 
   18200    56.901628    56.901628    56.901628   -16.542004   -129.92454    23318.234    53.932955    23689.971    26.365573    482.92957   -36470.705    289.20074 
   18250    56.899576    56.899576    56.899576    106.97648    67.395059    23360.619    122.83403    23376.305    130.70034    483.09969   -36467.606    287.34527 
   18300    56.901164    56.901164    56.901164   -15.706688    -89.67526    23807.228    63.422843    23569.803   -20.867649    482.91023   -36472.438    291.08109 
   18350    56.901959    56.901959    56.901959   -19.834482   -127.18268    23644.562   -10.441325    23761.996    78.120562    482.93095   -36466.372     287.1258 
   18400    56.901838    56.901838    56.901838    -57.22142    -79.76832    23881.206   -10.526403    23766.753   -81.369537    482.97298   -36472.805    291.98154 
   18450    56.900672    56.900672    56.900672    14.577977   -46.539506    23172.659    18.723834    24012.749    71.549601    483.03004    -36469.86    290.22739 
   18500    56.900791    56.900791    56.900791    64.472862   -6.9038745    23485.977    115.04193    23667.757    85.280529    483.00024   -36467.652    288.98767 
   18550    56.902627    56.902627    56.902627   -68.282136   -66.280978    23353.711    23.901883    23495.934   -162.46731    482.93353   -36470.486    291.30047 
   18600    56.902356    56.902356    56.902356    30.544851   -103.07124    23320.086    162.63439    23671.806    32.071408    482.94119   -36465.289    287.94819 
   18650    56.902716    56.902716    56.902716   -29.087181     26.46055    23874.925    29.573316    23532.874   -143.29541    482.82964   -36470.661    292.04574 
   18700    56.902556    56.902556    56.902556   -38.740462   -148.43534    24093.085    33.970324    23866.757   -1.7563655    482.86076   -36470.863    292.49436 
   18750    56.902017    56.902017    56.902017    40.209098     50.13563    23616.593     143.0576    23619.232   -72.565936    482.86003   -36467.328    290.30636 
   18800    56.902739    56.902739    56.902739   -44.561075   -166.50627    23354.117      59.4161    23684.462   -26.593058     482.8446   -36468.328    291.31118 
   18850    56.902455    56.902455    56.902455    7.6091179   -6.3864649    23327.883    111.12675    23777.432   -81.912932    482.84595   -36466.434    290.27402 
   18900    56.902478    56.902478    56.902478   -52.684446   -208.10316     24127.75    86.497832    24340.786   -36.448012    482.84167   -36471.431    294.09244 
   18950    56.901924    56.901924    56.901924    150.88448    107.23343    23317.847    256.76477    23026.406    88.655248    482.82093   -36460.623    286.76389 
   19000    56.904845    56.904845    56.904845   -56.082955   -131.49194    23934.462    9.0974236    24078.259   -45.854344    482.71111   -36466.406    291.13058 
   19050     56.90388     56.90388     56.90388    21.734336    94.764283    23801.508    82.619778    23863.189   -112.18105    482.74805   -36465.708    290.92348 
   19100    56.902119    56.902119    56.902119    58.887463   -45.623564    23942.583    60.423422    23688.572    161.86253    483.01988   -36465.271    290.89615 
   19150     56.90299     56.90299     56.90299     77.58439     9.296725     23516.29    188.42152    23813.779    35.034926     482.9516   -36465.306    291.19772 
   19200    56.906701    56.906701    56.906701   -179.68072   -208.29894    23605.623   -116.05113    23943.248   -214.69209    482.56973   -36469.856    294.68024 
   19250    56.904597    56.904597    56.904597    -67.91332   -152.49575    23684.298    54.704163    24046.546   -105.94837    482.76586   -36468.426    293.94645 
   19300    56.900673    56.900673    56.900673     156.6538     142.3088    23390.246    216.66298    23966.183    110.98963    483.13171   -36462.905    290.32298 
   19350    56.903949    56.903949    56.903949   -21.897213     3.875611    23973.354   -84.124337    24123.458    14.557088    482.99906     -36466.2    292.91438 
   19400     56.90604     56.90604     56.90604   -24.660184   -147.61785    23783.468    95.144586    23607.008   -21.507287     482.7556   -36462.244    290.39448 
   19450    56.904176    56.904176    56.904176    30.321321    116.72935    23493.089    30.787828    23876.957   -56.553218    482.88663   -36461.182    289.91054 
   19500    56.902541    56.902541    56.902541    65.386947   -19.019564    23510.392    158.47369    24092.689    56.706712    482.94307   -36465.346    293.11156 
   19550    56.903713    56.903713    56.903713    37.964816    61.996981    24270.027  -0.40581315    23813.618    52.303281    482.88424   -36464.588    292.83634 
   19600    56.906517    56.906517    56.906517    -163.8516   -125.91828    24452.602    -117.7395    24243.336   -247.89703    482.68232   -36468.109    295.57511 
   19650    56.904206    56.904206    56.904206    36.818347   -41.071972    23589.453    27.799236    23810.868    123.72778    482.87401    -36463.33    292.45932 
   19700    56.903019    56.903019    56.903019    10.535685     72.77921    23834.608    119.03947    23994.821   -160.21162     482.9624   -36467.166    295.41402 
   19750    56.904016    56.904016    56.904016    48.565688   -63.054086    23380.373    124.97374     24019.22    83.777405    482.95011   -36462.063    292.06514 
   19800    56.907156    56.907156    56.907156    -111.9198   -72.951335    24363.874    -27.14055    23890.571   -235.66751    482.69277   -36463.167    293.09177 
   19850    56.904496    56.904496    56.904496    62.852719   -109.97575    23506.678    127.03046     23993.96    171.50344    482.94378   -36461.237    291.97365 
   19900    56.902451    56.902451    56.902451    93.848379    77.373843    24250.923    155.30352    23998.399     48.86777    483.00539   -36464.455    294.48097 
   19950    56.905626    56.905626    56.905626   -14.679569   -76.713473    24026.197    142.89491    23883.742   -110.22014    482.66975   -36464.807    294.96662 
   20000    56.907236    56.907236    56.907236   -156.57533   -113.86783    24027.222   -220.05685    24133.692   -135.80132    482.72657   -36465.179    295.46089 
Loop time of 2294.12 on 4 procs for 20000 steps with 10976 atoms

Pair  time (%) = 2155.81 (93.9714)
Neigh time (%) = 0 (0)
Comm  time (%) = 94.1427 (4.10365)
Outpt time (%) = 0.660901 (0.0288085)
Other time (%) = 43.5 (1.89615)

Nlocal:    2744 ave 2744 max 2744 min
Histogram: 4 0 0 0 0 0 0 0 0 0
Nghost:    7043 ave 7043 max 7043 min
Histogram: 4 0 0 0 0 0 0 0 0 0
Neighs:    192080 ave 197279 max 186816 min
Histogram: 1 0 1 0 0 0 0 1 0 1
FullNghs:  0 ave 0 max 0 min
Histogram: 4 0 0 0 0 0 0 0 0 0

Total # of neighbors = 768320
Ave neighs/atom = 70
Neighbor list builds = 0
Dangerous builds = 0
# run 	200000

# Use this if debug
# run 	1000
# run 200
unfix 1

# Store final cell length for strain calculations
variable tmp equal "lx"
variable L0 equal ${tmp}
variable L0 equal 56.9072358451624
print "Initial Length, L0: ${L0}"
Initial Length, L0: 56.9072358451624

######################################
# DEFORMATION
reset_timestep	0
set atom * xrad 0 yrad 0 zrad 0 vxrad 0 vyrad 0 vzrad 0
  10976 settings made for xrad
  10976 settings made for yrad
  10976 settings made for zrad
  10976 settings made for vxrad
  10976 settings made for vyrad
  10976 settings made for vzrad
fix		1 all npt temp 300 300 1 y 0 0 1 z 0 0 1 drag 1

variable srate equal 1.0e10
# variable srate equal 1.0e9 # tiny time step

variable srate1 equal "v_srate / 1.0e12"
fix		2 all deform 1 x erate ${srate1} units box remap x
fix		2 all deform 1 x erate 0.01 units box remap x

# Output strain and stress info to file
# for units metal, pressure is in [bars] = 100 [kPa] = 1/10000 [GPa]
# p2, p3, p4 are in GPa
variable strain equal "(lx - v_L0)/v_L0"
variable p1 equal "v_strain"
variable p2 equal "-pxx/10000"
variable p3 equal "-pyy/10000"
variable p4 equal "-pzz/10000"

# fix def1 all print 100 "${p1} ${p2} ${p3} ${p4}" file Al99.eam_rad.alloy.def1.txt screen no
# IMPLEMENTATION HERE
variable p5 equal "-pxxrad/10000"

# VERSION add rad variables
variable p6 equal "-pyyrad/10000"
variable p7 equal "-pzzrad/10000"

# VERSION ublb coupled/decoupled scheme
# variable p6 equal "-pxxub/10000"
# variable p7 equal "-pxxlb/10000"

fix def1 all print 20 "${p1} ${p2} ${p3} ${p4} ${p5} ${p6} ${p7}" file Al99.eam_rad.alloy.def1.txt screen no

# Use cfg for AtomEye
# dump 		1 all cfg 250 dump.tensile_*.cfg mass type xs ys zs c_csym c_peratom fx fy fz
# dump_modify 1 element Al

# print output to a text file every n timesteps
# dump		2 all custom 50 dump.xyz_rvf_rad.tensile_*.txt mass type id x y z vx vy vz fx fy fz xrad yrad zrad vxrad vyrad vzrad fxrad fyrad fzrad # use for rad developement
# dump		2 all custom 50 dump.xyz_rvf_rad.tensile_*.txt mass type id x y z vx vy vz fx fy fz xrad yrad zrad vxrad vyrad vzrad fxrad fyrad fzrad xub yub zub vxub vyub vzub fxub fyub fzub xlb ylb zlb vxlb vylb vzlb fxlb fylb fzlb # use for ublb developement

# Display thermo
thermo 	50
# thermo 1
# thermo_style	custom step v_strain temp v_p2 v_p3 v_p4 ke pe press

# IMPLEMENTATION HERE
thermo_style	custom step v_strain temp v_p2 v_p3 v_p4 v_p5 v_p6 v_p7 ke pe press
run	20000
Memory usage per processor = 5.80699 Mbytes
Step strain Temp p2 p3 p4 p5 p6 p7 KinEng PotEng Press 
       0 1.2485982e-16    295.46089  0.011386783  0.022005685  0.013580132 -0.023931508 -0.023927989          nan    419.14972   -36465.179   -156.57533 
      50       0.0005    293.27274  0.057687975 0.0094716523  0.035426005   -2.3576981   -2.3771205          nan    416.04553   -36461.903   -341.95211 
     100        0.001    295.32862  0.076317447  0.027763491 0.0067757458 -0.024330247 -0.024329639          nan    418.96207   -36464.588   -369.52228 
     150       0.0015    293.83637   0.08997412  -0.01774816 -0.015297265   -2.3996417   -2.4055758          nan    416.84512    -36462.19   -189.76232 
     200        0.002    295.05614   0.13183994 -0.018516257  -0.03038331 -0.024309233 -0.024329944          nan    418.57551   -36463.586    -276.4679 
     250       0.0025    294.73529   0.20813863   0.02588544  0.013726901   -2.4087079   -2.4479944          nan    418.12035   -36462.748   -825.83657 
     300        0.003    294.53211   0.21659017  0.039304955   0.03387894  -0.02426951 -0.024292241          nan    417.83211   -36462.033   -965.91354 
     350       0.0035    291.94931   0.22239965 -0.019201956 0.0037376044   -2.3400019   -2.4087198          nan    414.16807   -36457.917   -689.78432 
     400        0.004    295.70627   0.25237531 -0.027170251  -0.02392998 -0.024281101 -0.024327205          nan    419.49782   -36462.737   -670.91693 
     450       0.0045    292.68531   0.29202952 -0.023491838 -0.010331117   -2.3628886   -2.4052477          nan    415.21219   -36457.917   -860.68854 
     500        0.005      292.482   0.35850609  0.019357532   0.01531217  -0.02421729 -0.024268343          nan    414.92376    -36457.05    -1310.586 
     550       0.0055    295.92075    0.3867294  0.045450563  0.041480782   -2.4070264   -2.4391478          nan    419.80208   -36461.315   -1578.8692 
     600        0.006    292.20901    0.3789053 -0.028725815 -0.011564242 -0.024233212 -0.024295155          nan    414.53649   -36455.415   -1128.7175 
     650       0.0065    296.18503   0.39848394 -0.023293402 -0.045250679   -2.3959705   -2.4274143          nan      420.177    -36460.38   -1099.7995 
     700        0.007    295.51506   0.46512284 0.0074086378 -0.003844022 -0.024208858 -0.024266689          nan    419.22655   -36458.747   -1562.2915 
     750       0.0075    292.64248     0.513846  0.027516936  0.027330985   -2.3687645   -2.4078426          nan    415.15142   -36453.948   -1895.6464 
     800        0.008    296.41895   0.54268207  0.032511559  0.015154699  -0.02417819  -0.02423816          nan    420.50884   -36458.574   -1967.8278 
     850       0.0085    292.59701   0.54007776  -0.03363451 -0.015864837   -2.3902793   -2.3622738          nan    415.08692   -36452.399   -1635.2614 
     900        0.009    295.07787   0.56016248 -0.033815601 -0.019787595 -0.024195368 -0.024256906          nan    418.60635   -36455.139   -1688.5309 
     950       0.0095    297.02455   0.63079113 -0.0017021252  0.014841645   -2.3949609   -2.4400468          nan    421.36797   -36457.105   -2146.4355 
    1000         0.01    295.03759   0.66349274   0.02775836  0.037666319 -0.024149113 -0.024205281          nan     418.5492   -36453.478   -2429.7247 
    1050       0.0105    294.15311   0.68581031 0.0052588853 -0.00063910556   -2.3806284   -2.3938678          nan    417.29445   -36451.398   -2301.4336 
    1100        0.011    295.53332   0.69960463 -0.0017277438 -0.027028374 -0.024152346 -0.024228678          nan    419.25246   -36452.504   -2236.1617 
    1150       0.0115    292.66809   0.72355413 -0.020295756 -0.018589432    -2.375009   -2.3755816          nan    415.18776   -36447.581   -2282.2298 
    1200        0.012    294.53672   0.78045285  0.016450376 0.0014808566 -0.024128472 -0.024195333          nan    417.83866    -36449.36   -2661.2803 
    1250       0.0125    295.60234   0.81107946  0.016678115  0.029100695    -2.422657   -2.4122825          nan    419.35037   -36449.985   -2856.1942 
    1300        0.013    294.76048   0.85176015 -0.019984258 -0.016228112 -0.024108929 -0.024191108          nan    418.15609    -36447.89   -2718.4926 
    1350       0.0135    298.05156   0.87830813 -0.0024854693 0.0032443436     -2.38506   -2.4425833          nan    422.82491   -36451.631   -2930.2233 
    1400        0.014    295.09491   0.89336657  0.017964663 -5.2913956e-05 -0.024097319 -0.024172249          nan    418.63053    -36446.51   -3037.5944 
    1450       0.0145    298.72412   0.94521544 -0.0040091964  0.016848399   -2.4445839    -2.409896          nan    423.77903   -36450.715   -3193.5155 
    1500        0.015    295.69921    0.9494761 0.0033108082 0.0013225805 -0.024091012 -0.024177819          nan     419.4878   -36445.476    -3180.365 
    1550       0.0155    297.77775    1.0064101 -0.010525734 -0.0080838691   -2.3788356   -2.4566876          nan    422.43647   -36447.455   -3292.6683 
    1600        0.016    293.46688    1.0384923 -0.0063931646 -0.0080269744  -0.02405565  -0.02415206          nan    416.32095   -36440.358   -3413.5737 
    1650       0.0165    295.08776    1.0741857   0.01407183  0.022765425   -2.4120889   -2.4032608          nan    418.62038   -36441.659   -3703.4099 
    1700        0.017    295.59899     1.095631 0.0011802077  0.012010819 -0.024046853 -0.024140201          nan    419.34562   -36441.379   -3696.0736 
    1750       0.0175    295.02411    1.1106474 -0.0034155846 -0.025584683    -2.360138   -2.3964085          nan    418.53008   -36439.542   -3605.4905 
    1800        0.018    297.01713    1.1336487 -0.015525408 -0.0075209269 -0.024052277 -0.024154371          nan    421.35744   -36441.339   -3702.0079 
    1850       0.0185    300.17469    1.2136081   0.01693093  0.009021607   -2.4389266   -2.4712738          nan    425.83685   -36444.763   -4131.8687 
    1900        0.019    297.59555    1.2395656  0.016744376  0.027394894 -0.024010985 -0.024117556          nan      422.178   -36440.038   -4279.0163 
    1950       0.0195    298.39526    1.2563342  0.016793025  0.013007001   -2.4309546   -2.4253651          nan     423.3125   -36440.093   -4287.1142 
    2000         0.02    295.72362    1.2558001 -0.027208958 -0.021504302 -0.024031225 -0.024120545          nan    419.52242   -36435.211   -4023.6229 
    2050       0.0205    296.20355    1.3003895 -0.0047702722 -0.010082862   -2.4397316   -2.4274448          nan    420.20327   -36434.781   -4285.1212 
    2100        0.021    298.17352    1.3489254   0.03515663  0.012070137 -0.023990368 -0.024090256          nan    422.99793   -36436.455   -4653.8404 
    2150       0.0215    298.76655    1.3873449 0.0049521174  0.016708745   -2.4020994   -2.4883838          nan    423.83922   -36436.162   -4696.6857 
    2200        0.022    296.78942    1.3942373 0.0048185234 -0.0076853575 -0.023985787 -0.024089812          nan    421.03441   -36432.205   -4637.9017 
    2250       0.0225    297.79753    1.4334741 -0.017478562 -0.0031714277   -2.4287634   -2.4003725          nan    422.46453   -36432.468   -4709.4138 
    2300        0.023    296.71425    1.4599895 -0.012727055  0.007527436 -0.023973089 -0.024076872          nan    420.92777   -36429.751   -4849.2995 
    2350       0.0235    299.91865    1.5161718  0.010189809 0.0083513142    -2.408362   -2.4502183          nan    425.47362   -36433.095   -5115.7096 
    2400        0.024    296.41066    1.5402632  0.011921529  0.012230047 -0.023945181 -0.024057959          nan    420.49708   -36426.913   -5214.7159 
    2450       0.0245    294.47641    1.5593634 -0.00029469463 -0.0050295662   -2.3557874    -2.413982          nan    417.75309   -36422.936   -5180.1305 
    2500        0.025     296.3824    1.5864188 0.0076580227 -0.022102143  -0.02395096  -0.02405247          nan      420.457   -36424.396   -5239.9157 
    2550       0.0255    298.40447    1.6311695 -0.013509533 -0.00055213534   -2.4386177   -2.4640342          nan    423.32556   -36426.011   -5390.3596 
    2600        0.026    297.53336    1.6582787 -0.0024034006 0.0079950822 -0.023930648  -0.02404156          nan    422.08978   -36423.498   -5546.2344 
    2650       0.0265    296.22877    1.6927174  0.014513097 0.0044758221    -2.412053    -2.404939          nan    420.23905   -36420.366   -5705.6878 
[...]
   13800        0.138    296.30988    7.7264835 -0.0027485387 0.0014745999  -0.02206907 -0.022553911          nan    420.35411    -35751.54   -25750.699 
   13850       0.1385       288.96    7.6998112 -0.034259768 -0.027161205   -2.2602909   -2.2978255          nan    409.92735   -35736.542   -25461.301 
   13900        0.139    293.85696    7.7812373  0.035025019  0.033328983 -0.022016579 -0.022492857          nan    416.87432   -35738.891   -26165.304 
   13950       0.1395    289.89032    7.7814708  0.023370264  0.035296534   -2.2733336   -2.2283086          nan    411.24713   -35728.648   -26133.792 
   14000         0.14    289.97753    7.7489252 -0.018827889 -0.011569022 -0.022018221 -0.022503372          nan    411.37085   -35724.164   -25728.428 
   14050       0.1405    289.98138    7.7846782 -0.041597514 -0.044381697   -2.2963454   -2.2200011          nan    411.37631    -35719.53    -25662.33 
   14100        0.141    295.03898    7.8491131  0.017537104 0.0018052168 -0.021981902 -0.022481472          nan    418.55117   -35722.062   -26228.185 
   14150       0.1415    289.83869    7.8484485   0.02580111  0.024830215    -2.245573   -2.2433669          nan    411.17389   -35710.016   -26330.266 
   14200        0.142    287.48236    7.8108341 0.0085789913  0.010934354 -0.021934122 -0.022413846          nan    407.83112   -35702.023   -26101.158 
   14250       0.1425    288.99463    7.8412594 -0.0067648427 -0.012278153   -2.2661657    -2.212672          nan    409.97648   -35699.511   -26074.055 
   14300        0.143    292.33699    7.8939512 -0.013743638 -0.014108475 -0.021928472 -0.022441783          nan    414.71806   -35699.554    -26220.33 
   14350       0.1435    290.77098     7.910269 -0.0070699886 -0.00059011484   -2.2582009   -2.2754105          nan    412.49647   -35692.626    -26342.03 
   14400        0.144    290.48838    7.9195567  0.028659963  0.010205896 -0.021900226 -0.022385077          nan    412.09556   -35687.517   -26528.075 
   14450       0.1445    291.70634    7.9319108  0.022068791 0.0095060177   -2.2365446   -2.3324033          nan    413.82339   -35684.536   -26544.952 
   14500        0.145     290.3184    7.9384843 -0.018436775 -0.0032479938 -0.021886432 -0.022381895          nan    411.85442   -35677.838   -26389.332 
   14550       0.1455     289.9328    7.9352757 -0.015114984 -0.012575446   -2.2663167   -2.3029282          nan    411.30739   -35672.567   -26358.618 
   14600        0.146    291.72175    7.9901279 0.0050393041  0.028825262 -0.021842903  -0.02235749          nan    413.84526   -35670.363   -26746.642 
   14650       0.1465    290.11336    8.0253642  0.014348781  0.047754679   -2.2477267   -2.2580508          nan    411.56354   -35663.309   -26958.225 
   14700        0.147    288.79943    8.0297227  0.010749372 -0.011207202 -0.021828391 -0.022335167          nan    409.69956   -35656.672   -26764.216 
   14750       0.1475    290.26495    8.0182761 -0.00074894018 -0.034965089   -2.2399499   -2.2873865          nan    411.77859   -35653.958    -26608.54 
   14800        0.148    289.62924    7.9982341 -0.013213696  -0.03457433 -0.021807688 -0.022328196          nan    410.87675   -35648.292   -26501.487 
   14850       0.1485    286.96169    8.0185381  0.011143968  0.021288624   -2.2101269   -2.2695048          nan    407.09249    -35639.74   -26836.569 
   14900        0.149    288.98118    8.0558972  0.057960849  0.049637762 -0.021752232 -0.022254079          nan     409.9574   -35637.804   -27211.653 
   14950       0.1495    289.01778    7.9996903 -0.014742261 -0.0039228924    -2.268606   -2.2654522          nan    410.00932   -35633.085   -26603.417 
   15000         0.15    286.62174    7.9692228 -0.082468419 -0.040347847 -0.021775229 -0.022295465          nan    406.61023   -35624.891   -26154.689 
   15050       0.1505    292.46993    8.0166851 0.0033424006  0.012080427   -2.2389749   -2.2594433          nan    414.90664   -35628.411   -26773.693 
   15100        0.151    287.89803    7.9844486  0.053813876  0.037807227 -0.021701294 -0.022208203          nan     408.4208   -35617.137   -26920.232 
   15150       0.1515    290.38834    7.9629307  0.022582597  0.028063389   -2.2372427   -2.2295265          nan    411.95364   -35615.915   -26711.922 
   15200        0.152    294.28424    7.8321697 -0.026459244 -0.0055005615 -0.021731691 -0.022244116          nan    417.48048   -35616.731     -26000.7 
   15250       0.1525    290.47009    7.7014074 -0.082931084  -0.03448637    -2.205515   -2.2694479          nan    412.06961   -35606.676   -25279.966 
   15300        0.153     296.6385    7.6319036  0.050008002  0.023540494 -0.021688012  -0.02216721          nan     420.8203   -35610.867    -25684.84 
   15350       0.1535    299.41614    7.4387776  0.064281831  0.050601561    -2.290917   -2.3070083          nan    424.76074   -35610.332    -25178.87 
   15400        0.154    301.29052    7.1592265 -0.017327003 -0.0064242405 -0.021699222 -0.022162996          nan     427.4198   -35608.713   -23784.918 
   15450       0.1545    308.72795    6.9173589 -0.051089066 -0.029140471   -2.3495715   -2.3709167          nan    437.97076   -35615.146   -22790.431 
   15500        0.155    319.92192    6.6649972 0.0026873248   0.01730906 -0.021724262 -0.022175054          nan    453.85087   -35627.159   -22283.312 
   15550       0.1555    322.06963    6.3248071  0.010005928  0.032679379   -2.5271715   -2.4568181          nan    456.89767   -35626.628   -21224.975 
   15600        0.156    328.55422    5.9077002  0.027397498  0.005701724 -0.021730986 -0.022123479          nan    466.09691   -35632.644   -19802.665 
   15650       0.1565     340.8582    5.5442611  0.021091368  0.005564779   -2.7359403   -2.6642503          nan     483.5517   -35647.318   -18569.724 
   15700        0.157    346.27958    5.0842955 -0.031775185  0.023820014 -0.021808931 -0.022174186          nan    491.24263   -35652.705   -16921.135 
   15750       0.1575    355.18296     4.635059  0.025094704 -0.0039712163   -2.8851689   -2.7354156          nan    503.87324   -35663.569   -15520.608 
   15800        0.158    361.10523    4.1971544  0.017246741  0.020451469 -0.021896272  -0.02221127          nan    512.27475   -35670.744   -14116.176 
   15850       0.1585    369.55096    3.7466142   0.02074527  0.038331722   -3.0432892   -2.8230341          nan    524.25612    -35682.06   -12685.637 
   15900        0.159     375.5655    3.3742521 -0.021095012  0.059274151 -0.022033001 -0.022312358          nan    532.78852   -35690.376   -11374.771 
   15950       0.1595    379.04177    3.0432665 -0.014446619 -0.021673653   -3.1171413   -2.9167672          nan    537.72006   -35695.371   -10023.821 
   16000         0.16    379.92678    2.8276468  0.010064476 -0.041742038 -0.022173639 -0.022395129          nan    538.97556   -35696.778   -9319.8974 
   16050       0.1605    387.54055     2.629365 0.0053976331 -0.005522166   -3.1581718   -3.0705195          nan    549.77669   -35707.895   -8764.1349 
   16100        0.161    386.68562    2.4122732  0.039903063   0.05222917 -0.022228957 -0.022429674          nan    548.56386   -35707.132   -8348.0181 
   16150       0.1615    389.44281    2.2004563  0.026635087  0.070211302   -3.1702369   -3.0868557          nan    552.47529   -35711.714   -7657.6755 
   16200        0.162    390.16052    1.9870604  -0.01937689  0.019113238 -0.022368088 -0.022552827          nan    553.49345   -35713.576   -6622.6559 
   16250       0.1625    394.06034    1.8625449 -0.013048892 -0.068258688   -3.2394163   -3.1240097          nan    559.02586   -35720.043   -5937.4577 
   16300        0.163     397.9926    1.8009305 -0.0021458278 -0.027445366 -0.022463891 -0.022626627          nan    564.60428    -35726.73   -5904.4643 
   16350       0.1635    401.40609    1.7957831  0.013860253  0.033540539   -3.3593707   -3.1842828          nan    569.44676   -35732.836   -6143.9463 
   16400        0.164    399.58754    1.7638636  0.011513189   0.05053043  -0.02246625 -0.022605491          nan    566.86691   -35731.643   -6086.3573 
   16450       0.1645    405.36139     1.723638 -0.0034006896  0.035872435   -3.3041786   -3.2423997          nan    575.05787   -35741.296   -5853.6991 
   16500        0.165     398.0605    1.6686895 -0.020190414 -0.017259672 -0.022533237 -0.022665912          nan     564.7006   -35732.428   -5437.4647 
   16550       0.1655    406.51705    1.7426292 -0.008646618 -0.0024595852   -3.3424688   -3.2687177          nan    576.69732   -35745.959   -5771.7433 
   16600        0.166    405.32867     1.730211  0.013699956 -0.0003380409 -0.022537481 -0.022688069          nan    575.01144   -35745.843   -5811.9098 
   16650       0.1665    406.59924    1.7183125    0.0420151 0.0065652145   -3.2982094    -3.303219          nan    576.81392   -35749.278   -5889.6428 
   16700        0.167    407.51475    1.6777445  0.041000754 -0.034329629 -0.022585552 -0.022709818          nan    578.11269   -35752.262   -5614.7186 
   16750       0.1675    407.82254    1.6354209  0.014368307 -0.029455367   -3.3905226   -3.3070435          nan    578.54933    -35754.43   -5401.1128 
   16800        0.168    403.83679    1.5675996 -0.028416259 0.0098043631 -0.022603221 -0.022755229          nan    572.89502   -35750.554   -5163.2925 
   16850       0.1685    412.57274    1.5842888 0.0067690676   0.01401804   -3.2794921   -3.3108899          nan     585.2881   -35764.753   -5350.2531 
   16900        0.169    406.63033    1.5628295 -0.018169853  0.051586882 -0.022619548 -0.022780704          nan    576.85803    -35758.15   -5320.8218 
   16950       0.1695    409.86583    1.5422848 -0.00080168736  0.016815172   -3.2795454   -3.3815396          nan    581.44801   -35764.622   -5194.3276 
   17000         0.17    413.08292    1.4859646 0.0057949976  0.019213777 -0.022679611 -0.022810073          nan    586.01186   -35771.107   -5036.5778 
   17050       0.1705    406.19138    1.4508524 -0.014719966 -0.039549717   -3.3306227   -3.2962655          nan    576.23532   -35763.234   -4655.2757 
   17100        0.171    413.86931    1.4770525  0.015324763  0.041949202 -0.022697261 -0.022823145          nan    587.12745   -35776.077   -5114.4214 
   17150       0.1715    412.50221    1.4690727 -0.067223309   0.05927853   -3.3397523   -3.3386522          nan    585.18805   -35776.152   -4870.4263 
   17200        0.172    411.38542    1.4585425   -0.0402102  0.034977637 -0.022679747   -0.0228506          nan    583.60374   -35776.665   -4844.3666 
   17250       0.1725    411.14693    1.3940659 -0.0068661703 0.0073449551   -3.3793036   -3.3217368          nan     583.2654   -35778.413   -4648.4824 
   17300        0.173    411.27109    1.3577092  0.071411831 0.0044979415 -0.022701406 -0.022819822          nan    583.44155    -35780.59   -4778.7299 
   17350       0.1735    409.24467    1.3283691  0.021427888 0.00078017032   -3.3082162   -3.3654936          nan     580.5668    -35779.78   -4501.9238 
   17400        0.174    407.79077    1.2902152 -0.019359244 -0.033973845 -0.022745259 -0.022861287          nan    578.50426   -35779.733   -4122.9403 
   17450       0.1745    409.64402    1.2880231   0.02784765 -0.019019509   -3.3281925   -3.3439987          nan    581.13333   -35784.431   -4322.8374 
   17500        0.175    408.54452    1.3171809 0.0080497279 -0.00073097733 -0.022750014 -0.022861984          nan    579.57355   -35784.929   -4414.9989 
   17550       0.1755     411.0385    1.3251673   0.03833705  0.013007667   -3.3268987   -3.3509059          nan    583.11159    -35790.56   -4588.3734 
   17600        0.176    404.61257    1.3204611  0.018842217 -0.070001359 -0.022739046  -0.02287655          nan    573.99556   -35783.533   -4231.0067 
   17650       0.1765     410.7671    1.3272333  0.045537407 -0.031600715   -3.3888183   -3.3569461          nan    582.72657    -35794.36   -4470.5666 
   17700        0.177    410.77912    1.2984699 0.0050552697   0.01886508 -0.022752569  -0.02287171          nan    582.74362   -35796.494   -4407.9674 
   17750       0.1775    405.87036    1.2809837 -0.051061548  0.060217982   -3.2934662   -3.3211436          nan     575.7799   -35791.571   -4300.4669 
   17800        0.178    410.09707    1.2650152 -0.013359407  0.068870941 -0.022771064  -0.02289365          nan    581.77604   -35799.636   -4401.7559 
   17850       0.1785    406.27031    1.2220397 -0.078646859  0.014455914   -3.3153135   -3.2980534          nan    576.34728   -35796.322    -3859.496 
   17900        0.179    412.48993    1.2166644 0.0077532856 0.0019136803 -0.022803739 -0.022902546          nan    585.17063   -35807.268   -4087.7714 
   17950       0.1795    404.77749    1.2472991  0.056447597 -0.018268344   -3.3190838   -3.2881284          nan    574.22953   -35798.385   -4284.9279 
   18000         0.18    404.59168    1.2683907 0.0045549183 -0.015451653   -0.0227692 -0.022905366          nan    573.96593   -35800.184   -4191.6465 
   18050       0.1805    406.24532    1.2785388 -0.019264735    0.0195639   -3.3088251   -3.3098264          nan    576.31183   -35804.553   -4262.7933 
   18100        0.181    401.89463    1.3194536 -0.006541122 0.0022045589 -0.022764651 -0.022886486          nan    570.13982   -35800.421   -4383.7235 
   18150       0.1815    404.14414    1.2998056 -0.011477391  0.042437356   -3.2634081   -3.2747547          nan    573.33104     -35805.6   -4435.8852 
   18200        0.182    402.69466     1.304922 -0.0082823506 -0.016952631 -0.022794351 -0.022908953          nan    571.27477   -35805.558   -4265.6232 
   18250       0.1825    404.66663    1.2871054 -0.0047798632 -0.0021487542   -3.2884239   -3.2231601          nan    574.07226   -35810.335   -4267.2558 
   18300        0.183    404.58946    1.2923382  0.012759673 0.00025999061 -0.022781758 -0.022909775          nan    573.96279   -35812.233    -4351.193 
   18350       0.1835    403.44418    1.2525263  0.014775288 -0.0035062623   -3.3223391   -3.2352411          nan    572.33806   -35812.604   -4212.6512 
   18400        0.184    404.68895    1.2837895  -0.03612358  0.029918596 -0.022782762 -0.022916595          nan    574.10393   -35816.376   -4258.6151 
   18450       0.1845     403.0725    1.2671802 0.0032072494  0.017435908   -3.2913787   -3.3157549          nan    571.81078   -35816.078   -4292.7445 
   18500        0.185    404.69095    1.2529339  0.015144581 -0.013482451 -0.022805261 -0.022912661          nan    574.10677   -35820.385   -4181.9867 
   18550       0.1855    401.99799    1.2339585  0.041586476 -0.029730402      -3.3043   -3.2844966          nan    570.28644   -35818.544   -4152.7152 
   18600        0.186    400.82536    1.2703028 0.0055480561 -0.039046025 -0.022814471 -0.022911194          nan    568.62291   -35818.852   -4122.6828 
   18650       0.1865     402.2406    1.3418276 -0.0059898593 -0.0094712951   -3.3164267   -3.1878374          nan    570.63062   -35822.771   -4421.2214 
   18700        0.187    398.75275    1.3671674  0.016542326  0.059735802 -0.022757927 -0.022896684          nan    565.68265   -35819.695    -4811.485 
   18750       0.1875    403.43544    1.3421725 0.0091452405  0.057807971   -3.2841873   -3.2156605          nan    572.32566   -35828.255   -4697.0856 
   18800        0.188    399.69444    1.2887816  -0.06009271 -0.027013274 -0.022811385 -0.022946945          nan    567.01857   -35824.825   -4005.5855 
   18850       0.1885    404.30493    1.2994755 -0.017934796 -0.032438439   -3.3398572   -3.3092268          nan    573.55915   -35833.254   -4163.6744 
   18900        0.189    393.39198    1.2819174  0.016664238  0.038376275 -0.022784857  -0.02289712          nan    558.07771   -35819.684   -4456.5263 
   18950       0.1895    400.18654    1.3486323  0.041089674  0.025774137   -3.2678217   -3.2872784          nan    567.71667   -35831.197   -4718.3204 
   19000         0.19    397.88018    1.3380786 -0.0024057504 -0.0065765941 -0.022797188 -0.022930512          nan     564.4448   -35829.759   -4430.3207 
   19050       0.1905    395.72265    1.2608355  0.033726215 -0.076005524   -3.2083155   -3.1548517          nan    561.38405   -35828.523   -4061.8541 
   19100        0.191    395.84596    1.3014359 -0.020275048 0.0054240521 -0.022811385 -0.022934254          nan    561.55899   -35830.531   -4288.6163 
   19150       0.1915    399.14672    1.2925455  0.017427547  0.062836666   -3.2703028   -3.2529123          nan    566.24154   -35837.029   -4576.0325 
   19200        0.192    400.52984     1.306795 -0.018733426  0.037956805 -0.022828751 -0.022946117          nan    568.20368   -35840.839   -4420.0611 
   19250       0.1925    396.51276    1.3183496 -0.037382034  -0.04583756   -3.3132556   -3.1830939          nan    562.50494    -35836.96   -4117.1002 
   19300        0.193    394.27349    1.3503012 0.0064326352 -0.020853792  -0.02280048 -0.022928318          nan    559.32823   -35835.576   -4452.9333 
   19350       0.1935    392.57904    1.3727875  0.068722683   0.04101264   -3.1821106   -3.1964546          nan    556.92444   -35834.898   -4941.7429 
   19400        0.194    394.18691    1.3814851  0.070259378 -0.016144152 -0.022805847 -0.022912886          nan    559.20541   -35838.954   -4785.3344 
   19450       0.1945    397.82924    1.3256543 -0.043462659 -0.043144624   -3.2439347   -3.2212672          nan    564.37253   -35845.888   -4130.1568 
   19500        0.195    391.95499    1.2864335 -0.047492329 -0.020975516 -0.022851785 -0.022974755          nan    556.03915   -35839.297   -4059.8855 
   19550       0.1955    394.98576    1.3571342  0.002894658  0.022816038   -3.2110154   -3.2715805          nan    560.33869   -35845.319   -4609.4829 
   19600        0.196    388.71922    1.3657999  0.034857979  0.054085438 -0.022791419 -0.022898589          nan    551.44878   -35838.123   -4849.1444 
   19650       0.1965    391.48875    1.3591392 0.0010046413   0.02211426   -3.1707541   -3.2006262          nan    555.37773   -35843.742   -4607.5272 
   19700        0.197    388.63259    1.3483387 -0.0036523267 -0.060029417 -0.022830442 -0.022947518          nan    551.32588   -35841.348   -4282.1898 
   19750       0.1975    389.20137    1.3823025  -0.02686557  0.013266564   -3.1196025   -3.1728389          nan    552.13278   -35843.774   -4562.3451 
   19800        0.198    393.53346    1.3897544  0.032311664 0.0084938129 -0.022817965  -0.02292103          nan     558.2784   -35851.548   -4768.5328 
   19850       0.1985    383.94661    1.3787722 -0.013984136 -0.022041509   -3.1357923   -3.0816456          nan    544.67822   -35839.571   -4475.8219 
   19900        0.199    383.94404    1.3643796 0.0080654404 0.0023176823 -0.022783184 -0.022910371          nan    544.67457   -35841.164   -4582.5425 
   19950       0.1995    390.89761    1.3717939  0.047137796  0.022691103   -3.1726682   -3.1379759          nan    554.53911   -35852.622   -4805.4094 
   20000          0.2    385.31393    1.3706464 -0.015604183 -0.033765673 -0.022808094  -0.02293404          nan    546.61793   -35846.284   -4404.2551 
Loop time of 2790.73 on 4 procs for 20000 steps with 10976 atoms

Pair  time (%) = 2615.93 (93.7363)
Neigh time (%) = 1.66292 (0.0595871)
Comm  time (%) = 93.4244 (3.34767)
Outpt time (%) = 0.379311 (0.0135918)
Other time (%) = 79.3362 (2.84285)

Nlocal:    2744 ave 2762 max 2722 min
Histogram: 1 0 1 0 0 0 0 0 0 2
Nghost:    6334 ave 6398 max 6276 min
Histogram: 2 0 0 0 0 0 0 0 1 1
Neighs:    188234 ave 189874 max 186804 min
Histogram: 2 0 0 0 0 0 0 1 0 1
FullNghs:  0 ave 0 max 0 min
Histogram: 4 0 0 0 0 0 0 0 0 0

Total # of neighbors = 752936
Ave neighs/atom = 68.5984
Neighbor list builds = 110
Dangerous builds = 0

######################################
# SIMULATION DONE
print "All done"
All done
