LAMMPS (28 Jun 2014)
# Input file for uniaxial tensile loading of single crystal aluminum
# Mark Tschopp, November 2010

# ------------------------ INITIALIZATION ----------------------------
units 		metal
dimension	3
boundary	p	p	p
atom_style	atomic
variable latparam equal 4.05

# ----------------------- ATOM DEFINITION ----------------------------
lattice		fcc ${latparam}
lattice		fcc 4.05
Lattice spacing in x,y,z = 4.05 4.05 4.05
region		whole block 0 10 0 10 0 10
create_box	1 whole
Created orthogonal box = (0 0 0) to (40.5 40.5 40.5)
  1 by 2 by 2 MPI processor grid
lattice 	fcc ${latparam} orient x 1 0 0 orient y 0 1 0 orient z 0 0 1
lattice 	fcc 4.05 orient x 1 0 0 orient y 0 1 0 orient z 0 0 1
Lattice spacing in x,y,z = 4.05 4.05 4.05
create_atoms	1 region whole
Created 4000 atoms

# ------------------------ FORCE FIELDS ------------------------------
pair_style	eam/alloy
pair_coeff	* * Al99.PosFRho.ZeroRhoR.PosPhiR.eam.alloy Al

# ------------------------- SETTINGS ---------------------------------
compute csym all centro/atom fcc
compute peratom all pe/atom

######################################
# EQUILIBRATION
reset_timestep	0
timestep 0.001
velocity all create 300 12345 mom yes rot no
fix 1 all npt temp 300 300 1 iso 0 0 1 drag 1

# Set thermo output
thermo 1000
thermo_style custom step lx ly lz press pxx pyy pzz pe temp

# Run for at least 10 picosecond (assuming 1 fs timestep)
run 20000
Memory usage per processor = 3.04301 Mbytes
Step Lx Ly Lz Press Pxx Pyy Pzz PotEng Temp 
       0         40.5         40.5         40.5    2818.7369    2769.6038    2857.2678    2829.3392   -13425.776          300 
    1000    40.562815    40.562815    40.562815    874.22326    862.67164    846.62152    913.37663   -13346.933    165.19226 
    2000    40.576831    40.576831    40.576831    266.21847    204.38894    291.35678    302.90969   -13342.171    178.59123 
    3000    40.585692    40.585692    40.585692    108.20262    22.409906    206.49572    95.702235   -13335.797    189.26584 
    4000    40.593475    40.593475    40.593475    57.204945    16.080011     26.97483       128.56   -13326.407    194.09823 
    5000    40.598312    40.598312    40.598312    189.85716    258.76781    249.47943    61.324238    -13320.09    204.63124 
    6000    40.605444    40.605444    40.605444    90.530865    128.98594   -24.202429    166.80908    -13313.18    213.51688 
    7000    40.612876    40.612876    40.612876   -5.4850103    14.313151    67.580239   -98.348421   -13307.678    224.37826 
    8000    40.617081    40.617081    40.617081    131.47391    144.38352      194.003    56.035217   -13302.672    235.18933 
    9000    40.623478    40.623478    40.623478    9.4676631   -111.32374    114.86816    24.858567   -13301.114    251.48034 
   10000    40.631185    40.631185    40.631185   -14.013785   -47.329033    131.07527   -125.78759   -13291.928     251.5967 
   11000    40.634422    40.634422    40.634422    -24.80999     -80.2951   -11.995572    17.860702   -13289.858     263.9221 
   12000    40.638311    40.638311    40.638311   -72.422489    -12.45699   -116.85627   -87.954205   -13287.116    273.27543 
   13000    40.645634    40.645634    40.645634   -204.96416   -306.50466   -164.96483   -143.42299   -13283.185    278.56798 
   14000    40.646322    40.646322    40.646322   -84.660151   -74.737492    -96.78285   -82.460111   -13278.917    281.44997 
   15000     40.64687     40.64687     40.64687    105.03391    12.670066    152.13024    150.30143   -13275.413    284.08293 
   16000    40.646264    40.646264    40.646264    336.75816    618.13357    248.68256    143.45835   -13274.414    289.86438 
   17000    40.651143    40.651143    40.651143    153.59686    210.52046    224.66513    25.604985   -13273.489    294.20067 
   18000    40.652731    40.652731    40.652731    184.93982    155.28765    283.49983    116.03197   -13270.785    293.63186 
   19000     40.65242     40.65242     40.65242    44.268967    28.408716     121.5583    -17.16011   -13273.988    303.00873 
   20000    40.652863    40.652863    40.652863    176.72451    87.893987    250.27114     192.0084   -13270.166    297.53489 
Loop time of 244.386 on 4 procs for 20000 steps with 4000 atoms

Pair  time (%) = 204.849 (83.822)
Neigh time (%) = 0 (0)
Comm  time (%) = 31.0709 (12.7139)
Outpt time (%) = 0.00276327 (0.0011307)
Other time (%) = 8.46302 (3.46297)

Nlocal:    1000 ave 1000 max 1000 min
Histogram: 4 0 0 0 0 0 0 0 0 0
Nghost:    4235 ave 4235 max 4235 min
Histogram: 4 0 0 0 0 0 0 0 0 0
Neighs:    70000 ave 72653 max 67302 min
Histogram: 1 0 1 0 0 0 0 1 0 1
FullNghs:  0 ave 0 max 0 min
Histogram: 4 0 0 0 0 0 0 0 0 0

Total # of neighbors = 280000
Ave neighs/atom = 70
Neighbor list builds = 0
Dangerous builds = 0
unfix 1

# Store final cell length for strain calculations
variable tmp equal "lx"
variable L0 equal ${tmp}
variable L0 equal 40.6528629846078
print "Initial Length, L0: ${L0}"
Initial Length, L0: 40.6528629846078

######################################
# DEFORMATION
reset_timestep	0

fix		1 all npt temp 300 300 1 y 0 0 1 z 0 0 1 drag 1
variable srate equal 1.0e10
variable srate1 equal "v_srate / 1.0e12"
fix		2 all deform 1 x erate ${srate1} units box remap x
fix		2 all deform 1 x erate 0.01 units box remap x

# Output strain and stress info to file
# for units metal, pressure is in [bars] = 100 [kPa] = 1/10000 [GPa]
# p2, p3, p4 are in GPa
variable strain equal "(lx - v_L0)/v_L0"
variable p1 equal "v_strain"
variable p2 equal "-pxx/10000"
variable p3 equal "-pyy/10000"
variable p4 equal "-pzz/10000"
fix def1 all print 20 "${p1} ${p2} ${p3} ${p4}" file  Al99.PosFRho.ZeroRhoR.PosPhiR.eam.alloy.def1.txt screen no

# Use cfg for AtomEye
#dump 		1 all cfg 250 dump.tensile_*.cfg id type xs ys zs c_csym c_peratom fx fy fz
#dump_modify 1 element Al

# Display thermo
thermo 	1000
thermo_style	custom step v_strain temp v_p2 v_p3 v_p4 ke pe press

run		20000
Memory usage per processor = 3.04301 Mbytes
Step strain Temp p2 p3 p4 KinEng PotEng Press 
       0 8.7391475e-16    297.53489 -0.0087893987 -0.025027114  -0.01920084    153.79915   -13270.166    176.72451 
    1000         0.01    299.60091   0.62275547 -0.0029661627 -0.011413128     154.8671   -13268.699   -2027.9206 
    2000         0.02    295.92621    1.2869088 0.00070303317  0.025409963    152.96761   -13261.444   -4376.7392 
    3000         0.03    300.27358    1.9430802  0.043217482  0.051017547    155.21481   -13255.588   -6791.0508 
    4000         0.04    298.93257    2.5349109   -0.0259286 0.0030194355    154.52163   -13244.106   -8373.3392 
    5000         0.05    298.04229    3.1385283  0.011776386  0.038175099    154.06143   -13230.305   -10628.266 
    6000         0.06    302.24126    3.7180575 -0.0084860094  0.039626953    156.23193   -13216.718   -12497.328 
    7000         0.07    301.70695    4.3195192  0.016477779  0.038471545    155.95574   -13198.359   -14581.562 
    8000         0.08    297.34358    4.8372888 -0.063141643 -0.032187906    153.70026   -13175.655   -15806.531 
    9000         0.09    299.72729    5.4310883  0.061941552  0.040644358    154.93243   -13154.226   -18445.581 
   10000          0.1    295.02941    5.9129797 -0.011191579 -0.046012282    152.50404   -13126.923   -19519.253 
   11000         0.11    300.12305    6.4430052 0.00055677117 0.0054203888      155.137   -13102.504   -21496.608 
   12000         0.12    291.11781    6.9241848 -0.049637059  0.010160252    150.48209   -13068.636   -22949.027 
   13000         0.13    292.03605    7.3575774  -0.03923444 -0.0060471927    150.95674   -13037.768   -24374.319 
   14000         0.14    293.84913    7.7940927  0.034200592  0.033523548    151.89394   -13005.373   -26206.056 
   15000         0.15    287.04209    7.9343871 -0.066726233 0.0015084532     148.3753   -12967.056   -26230.564 
   16000         0.16    349.68077    3.9226594    0.1042012  0.013808095    180.75395   -12976.865   -13468.896 
   17000         0.17    402.04833    1.7773962 0.0087839468  0.094734095    207.82334   -13008.113   -6269.7142 
   18000         0.18    398.05939    1.3492434 0.0071351959  -0.05204828     205.7614   -13022.063   -4347.7676 
   19000         0.19    402.78456     1.363833 -0.095566857 -0.098009841     208.2039   -13042.247   -3900.8542 
   20000          0.2    391.97771     1.703246  -0.15868272 -0.0087859858    202.61771   -13051.785   -5119.2577 
Loop time of 323.881 on 4 procs for 20000 steps with 4000 atoms

Pair  time (%) = 269.503 (83.2107)
Neigh time (%) = 0.513596 (0.158576)
Comm  time (%) = 41.6408 (12.8568)
Outpt time (%) = 0.00283664 (0.00087583)
Other time (%) = 12.2202 (3.77305)

Nlocal:    1000 ave 1009 max 991 min
Histogram: 1 0 0 0 1 1 0 0 0 1
Nghost:    3770 ave 3772 max 3769 min
Histogram: 2 0 0 1 0 0 0 0 0 1
Neighs:    68689.2 ave 70480 max 66911 min
Histogram: 1 0 0 0 1 1 0 0 0 1
FullNghs:  0 ave 0 max 0 min
Histogram: 4 0 0 0 0 0 0 0 0 0

Total # of neighbors = 274757
Ave neighs/atom = 68.6893
Neighbor list builds = 85
Dangerous builds = 0

######################################
# SIMULATION DONE
print "All done"
All done
