LAMMPS (28 Jun 2014)
# Input file for uniaxial tensile loading of single crystal aluminum
# Mark Tschopp, November 2010

# ------------------------ INITIALIZATION ----------------------------
units 		metal
dimension	3
boundary	p	p	p
atom_style	atomic
variable latparam equal 4.05

# ----------------------- ATOM DEFINITION ----------------------------
lattice		fcc ${latparam}
lattice		fcc 4.05
Lattice spacing in x,y,z = 4.05 4.05 4.05
region		whole block 0 10 0 10 0 10
create_box	1 whole
Created orthogonal box = (0 0 0) to (40.5 40.5 40.5)
  1 by 2 by 2 MPI processor grid
lattice 	fcc ${latparam} orient x 1 0 0 orient y 0 1 0 orient z 0 0 1
lattice 	fcc 4.05 orient x 1 0 0 orient y 0 1 0 orient z 0 0 1
Lattice spacing in x,y,z = 4.05 4.05 4.05
create_atoms	1 region whole
Created 4000 atoms

# ------------------------ FORCE FIELDS ------------------------------
pair_style	eam/alloy
pair_coeff	* * Al99.ZeroFRho.NegRhoR.PosPhiR.eam.alloy Al

# ------------------------- SETTINGS ---------------------------------
compute csym all centro/atom fcc
compute peratom all pe/atom

######################################
# EQUILIBRATION
reset_timestep	0
timestep 0.001
velocity all create 300 12345 mom yes rot no
fix 1 all npt temp 300 300 1 iso 0 0 1 drag 1

# Set thermo output
thermo 1000
thermo_style custom step lx ly lz press pxx pyy pzz pe temp

# Run for at least 10 picosecond (assuming 1 fs timestep)
run 20000
Memory usage per processor = 3.04301 Mbytes
Step Lx Ly Lz Press Pxx Pyy Pzz PotEng Temp 
       0         40.5         40.5         40.5    2799.9105    2750.7774    2838.4413    2810.5128   -13430.095          300 
    1000    40.562484    40.562484    40.562484    874.44618    862.99054    846.78557    913.56243   -13351.247    165.19105 
    2000    40.576486    40.576486    40.576486    266.51162    204.28367    292.23612    303.01506   -13346.496    178.61148 
    3000    40.585341    40.585341    40.585341    109.07458    23.295438     207.2249    96.703392   -13340.103    189.24897 
    4000    40.593133    40.593133    40.593133    58.305191    16.619746    28.448886    129.84694   -13330.715    194.08618 
    5000    40.597997    40.597997    40.597997    188.15437    259.39016    248.16343    56.909517   -13324.391    204.60488 
    6000    40.605132    40.605132    40.605132    89.239683    123.76061   -23.494569    167.45301   -13317.475    213.47668 
    7000    40.612553    40.612553    40.612553    -7.379054    9.4080122    67.315392   -98.860566   -13311.971    224.33615 
    8000    40.616816    40.616816    40.616816    120.84727    132.47622    179.83885    50.226745   -13307.158    235.51832 
    9000    40.623127    40.623127    40.623127    8.8676315   -109.51204    116.26875    19.846185   -13305.468    251.55479 
   10000    40.630884    40.630884    40.630884   -21.135332   -47.028563    120.09757     -136.475   -13296.281    251.66664 
   11000    40.633984    40.633984    40.633984   -6.0167266   -72.570092    14.321424    40.198488   -13293.948    263.48375 
   12000    40.637954    40.637954    40.637954   -79.702447   -11.928816   -126.22977   -100.94876   -13291.626    273.64935 
   13000    40.645411    40.645411    40.645411   -220.12043   -315.31863   -195.24712   -149.79554   -13287.757    279.05759 
   14000    40.646152    40.646152    40.646152   -102.10247    -107.4345    -104.2093   -94.663617    -13283.26    281.49751 
   15000    40.646585    40.646585    40.646585    125.03956    64.588905    152.65666    157.87313   -13279.552    283.73554 
   16000    40.646242    40.646242    40.646242    380.39862    638.07287    320.99919    182.12379   -13277.624    287.73015 
   17000    40.650786    40.650786    40.650786    171.48408    252.66604    202.91424    58.871978     -13277.4    293.42136 
   18000    40.650053    40.650053    40.650053    236.38691    185.87309    256.39421    266.89343   -13276.626    296.60833 
   19000    40.654797    40.654797    40.654797   -41.041489    40.172557   -45.674747   -117.62228   -13276.232    299.04135 
   20000    40.651672    40.651672    40.651672    85.320947   -36.717002     211.2824    81.397439   -13275.636    299.83775 
Loop time of 455.939 on 4 procs for 20000 steps with 4000 atoms

Pair  time (%) = 293.39 (64.3487)
Neigh time (%) = 0 (0)
Comm  time (%) = 106.607 (23.3818)
Outpt time (%) = 0.0179072 (0.00392755)
Other time (%) = 55.9234 (12.2656)

Nlocal:    1000 ave 1000 max 1000 min
Histogram: 4 0 0 0 0 0 0 0 0 0
Nghost:    4235 ave 4235 max 4235 min
Histogram: 4 0 0 0 0 0 0 0 0 0
Neighs:    70000 ave 72653 max 67302 min
Histogram: 1 0 1 0 0 0 0 1 0 1
FullNghs:  0 ave 0 max 0 min
Histogram: 4 0 0 0 0 0 0 0 0 0

Total # of neighbors = 280000
Ave neighs/atom = 70
Neighbor list builds = 0
Dangerous builds = 0
unfix 1

# Store final cell length for strain calculations
variable tmp equal "lx"
variable L0 equal ${tmp}
variable L0 equal 40.6516718248551
print "Initial Length, L0: ${L0}"
Initial Length, L0: 40.6516718248551

######################################
# DEFORMATION
reset_timestep	0

fix		1 all npt temp 300 300 1 y 0 0 1 z 0 0 1 drag 1
variable srate equal 1.0e10
variable srate1 equal "v_srate / 1.0e12"
fix		2 all deform 1 x erate ${srate1} units box remap x
fix		2 all deform 1 x erate 0.01 units box remap x

# Output strain and stress info to file
# for units metal, pressure is in [bars] = 100 [kPa] = 1/10000 [GPa]
# p2, p3, p4 are in GPa
variable strain equal "(lx - v_L0)/v_L0"
variable p1 equal "v_strain"
variable p2 equal "-pxx/10000"
variable p3 equal "-pyy/10000"
variable p4 equal "-pzz/10000"
fix def1 all print 20 "${p1} ${p2} ${p3} ${p4}" file  Al99.ZeroFRho.NegRhoR.PosPhiR.eam.alloy.def1.txt screen no

# Use cfg for AtomEye
#dump 		1 all cfg 250 dump.tensile_*.cfg id type xs ys zs c_csym c_peratom fx fy fz
#dump_modify 1 element Al

# Display thermo
thermo 	1000
thermo_style	custom step v_strain temp v_p2 v_p3 v_p4 ke pe press

run		20000
Memory usage per processor = 3.04301 Mbytes
Step strain Temp p2 p3 p4 KinEng PotEng Press 
       0 3.4957614e-16    299.83775 0.0036717002  -0.02112824 -0.0081397439    154.98953   -13275.636    85.320947 
    1000         0.01     298.1032   0.65925292 0.0094175568  0.025720299    154.09292   -13272.232   -2314.6359 
    2000         0.02    301.00197    1.2671229 0.00013788084 -0.010162396    155.59132   -13268.391   -4190.3281 
    3000         0.03    294.05936    1.8981997 4.979329e-05 -0.010475305    152.00261   -13256.714   -6292.5805 
    4000         0.04    301.68434    2.5441989 -0.011059635  0.014477177    155.94405   -13249.912   -8492.0547 
    5000         0.05    301.74387    3.1018861  0.027151259 -0.0046097361    155.97482   -13236.656   -10414.759 
    6000         0.06    296.08246    3.6614879 0.0045211909  0.020047184    153.04837   -13218.034   -12286.854 
    7000         0.07    298.23375    4.3035238   0.03716228  0.024112892     154.1604   -13200.957    -14549.33 
    8000         0.08    295.28118    4.8182775 -0.050286033 -0.014153259    152.63419   -13178.979   -15846.127 
    9000         0.09    298.72213    5.3833708  0.023816673  0.024214994    154.41285   -13158.137   -18104.675 
   10000          0.1    300.17957    5.8796255 -0.064360162 -0.077895604    155.16622   -13134.058   -19124.566 
   11000         0.11    301.98084     6.491725  0.048689306  0.015571199    156.09731   -13107.787   -21853.285 
   12000         0.12    297.09439    6.9682218 -0.0099665386 -0.0011098874    153.57145   -13075.925   -23190.484 
   13000         0.13    291.06526    7.3474463 -0.0014462438 -0.00066190592    150.45493   -13041.462    -24484.46 
   14000         0.14    299.66663    7.8251846 0.0077506747  -0.02362591    154.90107   -13012.648   -26031.031 
   15000         0.15     291.9858     7.843922  0.053536903  0.065037517    150.93076   -12973.952   -26541.655 
   16000         0.16    382.19952    2.5334435   0.11191297  0.021004011    197.56326   -13004.992   -8887.8682 
   17000         0.17    404.43362    1.5722109  0.056883291 -0.092468242    209.05632   -13028.958   -5122.0866 
   18000         0.18    402.28171    1.3164937 -0.031026308   0.11197894    207.94397   -13045.349   -4658.1545 
   19000         0.19    396.69014    1.5132275  0.079537374  0.078724049    205.05362   -13060.618   -5571.6298 
   20000          0.2    393.13814     1.269584 -0.0020024162   -0.1322499    203.21756   -13075.087   -3784.4389 
Loop time of 348.93 on 4 procs for 20000 steps with 4000 atoms

Pair  time (%) = 279 (79.9587)
Neigh time (%) = 0.515118 (0.147628)
Comm  time (%) = 51.7506 (14.8312)
Outpt time (%) = 0.00293064 (0.000839894)
Other time (%) = 17.6615 (5.06163)

Nlocal:    1000 ave 1022 max 979 min
Histogram: 1 0 1 0 0 0 1 0 0 1
Nghost:    3717.5 ave 3755 max 3689 min
Histogram: 1 0 0 1 1 0 0 0 0 1
Neighs:    68706 ave 71227 max 66077 min
Histogram: 1 0 0 0 1 0 1 0 0 1
FullNghs:  0 ave 0 max 0 min
Histogram: 4 0 0 0 0 0 0 0 0 0

Total # of neighbors = 274824
Ave neighs/atom = 68.706
Neighbor list builds = 84
Dangerous builds = 0

######################################
# SIMULATION DONE
print "All done"
All done
