LAMMPS (28 Jun 2014)
# Input file for uniaxial tensile loading of single crystal aluminum
# Mark Tschopp, November 2010

# ------------------------ INITIALIZATION ----------------------------
units 		metal
dimension	3
boundary	p	p	p
atom_style	atomic
variable latparam equal 4.05

# ----------------------- ATOM DEFINITION ----------------------------
lattice		fcc ${latparam}
lattice		fcc 4.05
Lattice spacing in x,y,z = 4.05 4.05 4.05
region		whole block 0 10 0 10 0 10
create_box	1 whole
Created orthogonal box = (0 0 0) to (40.5 40.5 40.5)
  1 by 2 by 2 MPI processor grid
lattice 	fcc ${latparam} orient x 1 0 0 orient y 0 1 0 orient z 0 0 1
lattice 	fcc 4.05 orient x 1 0 0 orient y 0 1 0 orient z 0 0 1
Lattice spacing in x,y,z = 4.05 4.05 4.05
create_atoms	1 region whole
Created 4000 atoms

# ------------------------ FORCE FIELDS ------------------------------
pair_style	eam/alloy
pair_coeff	* * Al99.NegFRho.ZeroRhoR.NegPhiR.eam.alloy Al

# ------------------------- SETTINGS ---------------------------------
compute csym all centro/atom fcc
compute peratom all pe/atom

######################################
# EQUILIBRATION
reset_timestep	0
timestep 0.001
velocity all create 300 12345 mom yes rot no
fix 1 all npt temp 300 300 1 iso 0 0 1 drag 1

# Set thermo output
thermo 1000
thermo_style custom step lx ly lz press pxx pyy pzz pe temp

# Run for at least 10 picosecond (assuming 1 fs timestep)
run 20000
Memory usage per processor = 3.04301 Mbytes
Step Lx Ly Lz Press Pxx Pyy Pzz PotEng Temp 
       0         40.5         40.5         40.5    2173.5097    2124.3766    2212.0405     2184.112   -13454.224          300 
    1000    40.552422    40.552422    40.552422    857.76563    846.31252    829.89519    897.08918   -13375.322    165.27853 
    2000    40.566185    40.566185    40.566185    258.87062    190.94879    288.72915     296.9339   -13370.692     178.9348 
    3000    40.575095    40.575095    40.575095    97.557222    13.016875    192.31965    87.335137   -13364.174    189.31965 
    4000      40.5828      40.5828      40.5828    71.528772    23.026008     48.34945    143.21086   -13354.551    193.69388 
    5000     40.58785     40.58785     40.58785    173.07758    272.63385    231.94167    14.657228   -13348.453      204.638 
    6000    40.594927    40.594927    40.594927    83.013671    76.549761   -12.488058    184.97931   -13341.557     213.5332 
    7000    40.602719    40.602719    40.602719   -36.916723   -60.602682    63.065994   -113.21348   -13335.861    223.99883 
    8000    40.607886    40.607886    40.607886   -23.491722   -79.384172    10.110975   -1.2019674   -13333.298    239.51566 
    9000     40.61254     40.61254     40.61254   -17.383633   -67.497576    99.971738   -84.625062   -13330.238    252.87903 
   10000    40.620779    40.620779    40.620779   -78.040161   -58.802113   -53.832253   -121.48612   -13320.849    252.57133 
   11000    40.625871    40.625871    40.625871   -111.06284    -462.7211     140.4944   -10.961825   -13317.299    262.00633 
   12000    40.626965    40.626965    40.626965   -10.190717    87.699707   -29.313309   -88.958549   -13315.356    272.85964 
   13000    40.632603    40.632603    40.632603   -36.485831   -152.44921   -204.02259    247.01431   -13311.948    279.10616 
   14000    40.633054    40.633054    40.633054    157.93108   -79.629717    165.51114     387.9118   -13307.291    281.19156 
   15000     40.63713     40.63713     40.63713    177.96984    185.44847    128.16568    220.29537   -13304.428    285.03953 
   16000    40.637967    40.637967    40.637967      144.103    254.61857    144.51222    33.178214    -13303.01    289.99391 
   17000    40.639713    40.639713    40.639713    70.975862     121.4453    86.619091    4.8631991   -13304.192    298.42895 
   18000    40.642943    40.642943    40.642943   -22.581573    17.289525    233.20159   -318.23583   -13302.596    299.96284 
   19000    40.645743    40.645743    40.645743    -61.98401    57.728241   -261.74148    18.061206   -13298.836     295.8983 
   20000    40.646845    40.646845    40.646845   -4.6690998    110.19131  -0.65989633   -123.53871   -13296.494    293.26002 
Loop time of 205.768 on 4 procs for 20000 steps with 4000 atoms

Pair  time (%) = 185.058 (89.9353)
Neigh time (%) = 0 (0)
Comm  time (%) = 14.9942 (7.28695)
Outpt time (%) = 0.00263071 (0.00127848)
Other time (%) = 5.71305 (2.77645)

Nlocal:    1000 ave 1000 max 1000 min
Histogram: 4 0 0 0 0 0 0 0 0 0
Nghost:    4235 ave 4235 max 4235 min
Histogram: 4 0 0 0 0 0 0 0 0 0
Neighs:    70000 ave 72653 max 67302 min
Histogram: 1 0 1 0 0 0 0 1 0 1
FullNghs:  0 ave 0 max 0 min
Histogram: 4 0 0 0 0 0 0 0 0 0

Total # of neighbors = 280000
Ave neighs/atom = 70
Neighbor list builds = 0
Dangerous builds = 0
unfix 1

# Store final cell length for strain calculations
variable tmp equal "lx"
variable L0 equal ${tmp}
variable L0 equal 40.6468447927897
print "Initial Length, L0: ${L0}"
Initial Length, L0: 40.6468447927897

######################################
# DEFORMATION
reset_timestep	0

fix		1 all npt temp 300 300 1 y 0 0 1 z 0 0 1 drag 1
variable srate equal 1.0e10
variable srate1 equal "v_srate / 1.0e12"
fix		2 all deform 1 x erate ${srate1} units box remap x
fix		2 all deform 1 x erate 0.01 units box remap x

# Output strain and stress info to file
# for units metal, pressure is in [bars] = 100 [kPa] = 1/10000 [GPa]
# p2, p3, p4 are in GPa
variable strain equal "(lx - v_L0)/v_L0"
variable p1 equal "v_strain"
variable p2 equal "-pxx/10000"
variable p3 equal "-pyy/10000"
variable p4 equal "-pzz/10000"
fix def1 all print 20 "${p1} ${p2} ${p3} ${p4}" file  Al99.NegFRho.ZeroRhoR.NegPhiR.eam.alloy.def1.txt screen no

# Use cfg for AtomEye
#dump 		1 all cfg 250 dump.tensile_*.cfg id type xs ys zs c_csym c_peratom fx fy fz
#dump_modify 1 element Al

# Display thermo
thermo 	1000
thermo_style	custom step v_strain temp v_p2 v_p3 v_p4 ke pe press

run		20000
Memory usage per processor = 3.04301 Mbytes
Step strain Temp p2 p3 p4 KinEng PotEng Press 
       0 -1.048853e-15    293.26002 -0.011019131 6.5989633e-05  0.012353871    151.58942   -13296.494   -4.6690998 
    1000         0.01    300.05573   0.63752448 0.00023038468 -0.0037810977     155.1022   -13297.434   -2113.2459 
    2000         0.02    299.06741    1.2776086 0.0023182598  0.017992267    154.59133    -13291.54   -4326.3971 
    3000         0.03    297.42728     1.891554 0.0080571774  0.011958229    153.74353   -13282.618    -6371.898 
    4000         0.04    295.39021    2.5348356 0.0026955673  0.014521622    152.69054   -13270.805   -8506.8426 
    5000         0.05    301.34049    3.1349415   0.03096367   0.02477761    155.76631   -13260.557   -10635.609 
    6000         0.06    296.76622    3.6954883 -0.011542822 -0.017128346    153.40182   -13242.451   -12222.724 
    7000         0.07    296.65604    4.2822431 -0.011104899 -0.036626032    153.34487   -13224.297   -14115.041 
    8000         0.08    301.85377    4.8607268 0.0020809694 0.0070729663    156.03163   -13206.569   -16232.936 
    9000         0.09    292.55874    5.4002497  0.016918012 -0.008526501    151.22692   -13179.063   -18028.804 
   10000          0.1    293.19055    5.9284144  0.021103036 0.0067974799    151.55351   -13154.453   -19854.383 
   11000         0.11    290.95438    6.4323548 -0.0085420171 -0.092968471    150.39761   -13126.162   -21102.814 
   12000         0.12    295.47226    6.9876532  0.090863649   0.12488186    152.73296    -13099.17   -24011.329 
   13000         0.13    294.34244    7.3723949 -0.032654866 -0.065133217    152.14894   -13067.238    -24248.69 
   14000         0.14    291.45046     7.821978 0.0085389206  0.013602114    150.65404   -13032.352   -26147.064 
   15000         0.15    291.72844    8.0157656 -0.025919213  0.006466192    150.79773    -12997.56   -26654.375 
   16000         0.16    382.12601    2.8036433 -0.077992586  0.025036051    197.52526   -13021.146   -9168.9557 
   17000         0.17    404.62315    1.5321958  0.044632455   0.21471553    209.15429   -13045.789   -5971.8125 
   18000         0.18    410.43232    1.0193934   0.12507558  0.047401143    212.15711   -13068.364   -3972.9005 
   19000         0.19    402.11832   0.73663799 -0.030080753 -0.076607915    207.85951   -13084.937   -2099.8311 
   20000          0.2    407.94924   0.55952558 0.0022436636 -0.0038952948    210.87358   -13109.498   -1859.5798 
Loop time of 263.326 on 4 procs for 20000 steps with 4000 atoms

Pair  time (%) = 238.683 (90.6416)
Neigh time (%) = 0.456377 (0.173313)
Comm  time (%) = 17.2362 (6.54559)
Outpt time (%) = 0.00355953 (0.00135176)
Other time (%) = 6.94689 (2.63814)

Nlocal:    1000 ave 1010 max 993 min
Histogram: 2 0 0 0 0 1 0 0 0 1
Nghost:    3750.75 ave 3771 max 3739 min
Histogram: 1 1 1 0 0 0 0 0 0 1
Neighs:    69195 ave 70466 max 67128 min
Histogram: 1 0 0 0 1 0 0 0 0 2
FullNghs:  0 ave 0 max 0 min
Histogram: 4 0 0 0 0 0 0 0 0 0

Total # of neighbors = 276780
Ave neighs/atom = 69.195
Neighbor list builds = 80
Dangerous builds = 0

######################################
# SIMULATION DONE
print "All done"
All done
