LAMMPS (28 Jun 2014)
# Input file for uniaxial tensile loading of single crystal aluminum
# Mark Tschopp, November 2010

# ------------------------ INITIALIZATION ----------------------------
units 		metal
dimension	3
boundary	p	p	p
atom_style	atomic
variable latparam equal 4.05

# ----------------------- ATOM DEFINITION ----------------------------
lattice		fcc ${latparam}
lattice		fcc 4.05
Lattice spacing in x,y,z = 4.05 4.05 4.05
region		whole block 0 10 0 10 0 10
create_box	1 whole
Created orthogonal box = (0 0 0) to (40.5 40.5 40.5)
  1 by 2 by 2 MPI processor grid
lattice 	fcc ${latparam} orient x 1 0 0 orient y 0 1 0 orient z 0 0 1
lattice 	fcc 4.05 orient x 1 0 0 orient y 0 1 0 orient z 0 0 1
Lattice spacing in x,y,z = 4.05 4.05 4.05
create_atoms	1 region whole
Created 4000 atoms

# ------------------------ FORCE FIELDS ------------------------------
pair_style	eam/alloy
pair_coeff	* * Al99.ZeroFRho.NegRhoR.ZeroPhiR.eam.alloy Al

# ------------------------- SETTINGS ---------------------------------
compute csym all centro/atom fcc
compute peratom all pe/atom

######################################
# EQUILIBRATION
reset_timestep	0
timestep 0.001
velocity all create 300 12345 mom yes rot no
fix 1 all npt temp 300 300 1 iso 0 0 1 drag 1

# Set thermo output
thermo 1000
thermo_style custom step lx ly lz press pxx pyy pzz pe temp

# Run for at least 10 picosecond (assuming 1 fs timestep)
run 20000
Memory usage per processor = 3.04301 Mbytes
Step Lx Ly Lz Press Pxx Pyy Pzz PotEng Temp 
       0         40.5         40.5         40.5    2477.2959    2428.1627    2515.8267    2487.8982       -13440          300 
    1000    40.557325    40.557325    40.557325    865.52539    854.09988    837.69829    904.77799   -13361.119    165.23339 
    2000    40.571203    40.571203    40.571203    262.09034     196.8123    290.04138    299.41734   -13356.435    178.78592 
    3000    40.580085    40.580085    40.580085      103.237    17.892286    199.82723    91.991483   -13349.974    189.28526 
    4000    40.587839    40.587839    40.587839    64.701006    19.199051    38.707079    136.19689   -13340.463    193.88152 
    5000    40.592793    40.592793    40.592793    181.33534    268.37097    241.33466    34.300392   -13334.232    204.57339 
    6000     40.59993     40.59993     40.59993    85.714754    97.105115   -17.731321    177.77047   -13327.312    213.42914 
    7000    40.607515    40.607515    40.607515   -22.805034   -30.526969    68.465549   -106.35368   -13321.729    224.12473 
    8000    40.612196    40.612196    40.612196    45.292174    26.414408    85.051051    24.411063   -13318.237    237.85278 
    9000    40.617676    40.617676    40.617676   -6.2133085   -93.300039    103.20861   -28.548495   -13315.907    252.64031 
   10000    40.625805    40.625805    40.625805   -55.021863   -36.733699    22.421053   -150.75294   -13306.271    251.87052 
   11000    40.629292    40.629292    40.629292   -8.7917078   -272.46878    130.54174    115.55191   -13302.961    261.78024 
   12000    40.632444    40.632444    40.632444   -71.774333    64.869277   -113.84216   -166.35012   -13301.193    272.99294 
   13000    40.639016    40.639016    40.639016    -135.1521   -229.04221   -319.43875    143.02466   -13297.995    279.68655 
   14000    40.639558    40.639558    40.639558   0.83405085   -302.74512    80.399634    224.84763   -13293.867    282.81866 
   15000    40.641833    40.641833    40.641833    79.179644    337.21922   -157.81189    58.131603   -13291.497     287.6353 
   16000    40.642288    40.642288    40.642288    178.87223    132.34673    116.19977     288.0702   -13291.094    294.60192 
   17000    40.647789    40.647789    40.647789   -123.67663   -255.46883   -173.82336    58.262304   -13288.368    295.45836 
   18000     40.64756     40.64756     40.64756    107.11841    127.93879    64.237048    129.17939   -13287.935    299.26297 
   19000    40.648081    40.648081    40.648081    130.32063    80.434456    216.66353    93.863901    -13284.27    295.42909 
   20000    40.647946    40.647946    40.647946    24.104911    150.67615   -137.03241    58.670984   -13287.198    302.98722 
Loop time of 269.843 on 4 procs for 20000 steps with 4000 atoms

Pair  time (%) = 219.04 (81.173)
Neigh time (%) = 0 (0)
Comm  time (%) = 40.1941 (14.8954)
Outpt time (%) = 0.00375682 (0.00139223)
Other time (%) = 10.6053 (3.93019)

Nlocal:    1000 ave 1000 max 1000 min
Histogram: 4 0 0 0 0 0 0 0 0 0
Nghost:    4235 ave 4235 max 4235 min
Histogram: 4 0 0 0 0 0 0 0 0 0
Neighs:    70000 ave 72653 max 67302 min
Histogram: 1 0 1 0 0 0 0 1 0 1
FullNghs:  0 ave 0 max 0 min
Histogram: 4 0 0 0 0 0 0 0 0 0

Total # of neighbors = 280000
Ave neighs/atom = 70
Neighbor list builds = 0
Dangerous builds = 0
unfix 1

# Store final cell length for strain calculations
variable tmp equal "lx"
variable L0 equal ${tmp}
variable L0 equal 40.6479456380621
print "Initial Length, L0: ${L0}"
Initial Length, L0: 40.6479456380621

######################################
# DEFORMATION
reset_timestep	0

fix		1 all npt temp 300 300 1 y 0 0 1 z 0 0 1 drag 1
variable srate equal 1.0e10
variable srate1 equal "v_srate / 1.0e12"
fix		2 all deform 1 x erate ${srate1} units box remap x
fix		2 all deform 1 x erate 0.01 units box remap x

# Output strain and stress info to file
# for units metal, pressure is in [bars] = 100 [kPa] = 1/10000 [GPa]
# p2, p3, p4 are in GPa
variable strain equal "(lx - v_L0)/v_L0"
variable p1 equal "v_strain"
variable p2 equal "-pxx/10000"
variable p3 equal "-pyy/10000"
variable p4 equal "-pzz/10000"
fix def1 all print 20 "${p1} ${p2} ${p3} ${p4}" file  Al99.ZeroFRho.NegRhoR.ZeroPhiR.eam.alloy.def1.txt screen no

# Use cfg for AtomEye
#dump 		1 all cfg 250 dump.tensile_*.cfg id type xs ys zs c_csym c_peratom fx fy fz
#dump_modify 1 element Al

# Display thermo
thermo 	1000
thermo_style	custom step v_strain temp v_p2 v_p3 v_p4 ke pe press

run		20000
Memory usage per processor = 3.04301 Mbytes
Step strain Temp p2 p3 p4 KinEng PotEng Press 
       0 -8.7402048e-16    302.98722 -0.015067615  0.013703241 -0.0058670984    156.61752   -13287.198    24.104911 
    1000         0.01    300.19013   0.65266898  0.016079847  0.032661137    155.17168   -13283.264   -2338.0332 
    2000         0.02    296.22612    1.2952566 -0.013206302 0.0032343863    153.12263   -13275.824   -4284.2822 
    3000         0.03     301.8252    1.9069307 -0.0054022089 -0.0061409254    156.01686   -13270.593   -6317.9584 
    4000         0.04    292.87302    2.5153378 -0.035092328 -0.036451109    151.38938   -13255.252   -8145.9813 
    5000         0.05    296.83879     3.139492   0.05106153  0.016129919    153.43933   -13244.008   -10688.945 
    6000         0.06    302.05824     3.733602  0.042583162   0.02939239    156.13733    -13230.96   -12685.259 
    7000         0.07    298.74129    4.2793102  0.015668701 -0.012728935    154.42275   -13211.123   -14274.167 
    8000         0.08    294.97347    4.7971759 -0.0071320442 -0.032789021    152.47513   -13188.811   -15857.516 
    9000         0.09    298.90145    5.4110657 -0.013184239 -0.0083887664    154.50554   -13168.244   -17964.975 
   10000          0.1    297.47855    5.9408356  0.035474368  0.031189569    153.77003   -13142.552   -20024.998 
   11000         0.11    292.30487    6.4362835 -0.0048757563 -0.054465066    151.09569   -13112.716   -21256.476 
   12000         0.12    297.49591    6.9081118 -0.0086414218  0.022988106      153.779    -13086.13   -23074.862 
   13000         0.13    291.13307    7.3843516 0.0044515933 -0.0025810029    150.48998   -13051.486   -24620.741 
   14000         0.14    295.07982    7.8277115   0.01465897 -0.013955641     152.5301   -13020.234   -26094.716 
   15000         0.15    321.20896    6.3853239 -0.063116735 -0.011967066    166.03655   -13000.588   -21034.134 
   16000         0.16    389.89002     2.693839 0.0027668471 0.0017110045    201.53857   -13034.661   -8994.3894 
   17000         0.17    387.31093    2.8214648 -0.0071832969 -0.0078922078    200.20541   -13043.589   -9354.6311 
   18000         0.18    378.93359    2.2563663 0.0052273684   0.02461679    195.87506   -13048.624   -7620.7015 
   19000         0.19    384.23037    2.1329255  0.060917847  0.023120076    198.61303   -13062.972    -7389.878 
   20000          0.2    371.96782    2.3176495  0.033205129  0.081028053    192.27438   -13066.326   -8106.2757 
Loop time of 342.301 on 4 procs for 20000 steps with 4000 atoms

Pair  time (%) = 277.854 (81.1723)
Neigh time (%) = 0.508085 (0.148432)
Comm  time (%) = 49.2449 (14.3864)
Outpt time (%) = 0.0253805 (0.00741467)
Other time (%) = 14.6691 (4.28545)

Nlocal:    1000 ave 1010 max 988 min
Histogram: 1 0 0 0 0 1 1 0 0 1
Nghost:    3730 ave 3746 max 3706 min
Histogram: 1 0 0 0 1 0 0 0 0 2
Neighs:    68699.2 ave 69404 max 67467 min
Histogram: 1 0 0 0 0 1 0 0 0 2
FullNghs:  0 ave 0 max 0 min
Histogram: 4 0 0 0 0 0 0 0 0 0

Total # of neighbors = 274797
Ave neighs/atom = 68.6993
Neighbor list builds = 83
Dangerous builds = 0

######################################
# SIMULATION DONE
print "All done"
All done
