LAMMPS (28 Jun 2014)
# Input file for uniaxial tensile loading of single crystal aluminum
# Mark Tschopp, November 2010

# ------------------------ INITIALIZATION ----------------------------
units 		metal
dimension	3
boundary	p	p	p
atom_style	atomic
variable latparam equal 4.05

# ----------------------- ATOM DEFINITION ----------------------------
lattice		fcc ${latparam}
lattice		fcc 4.05
Lattice spacing in x,y,z = 4.05 4.05 4.05
region		whole block 0 10 0 10 0 10
create_box	1 whole
Created orthogonal box = (0 0 0) to (40.5 40.5 40.5)
  1 by 2 by 2 MPI processor grid
lattice 	fcc ${latparam} orient x 1 0 0 orient y 0 1 0 orient z 0 0 1
lattice 	fcc 4.05 orient x 1 0 0 orient y 0 1 0 orient z 0 0 1
Lattice spacing in x,y,z = 4.05 4.05 4.05
create_atoms	1 region whole
Created 4000 atoms

# ------------------------ FORCE FIELDS ------------------------------
pair_style	eam/alloy
pair_coeff	* * Al99.ZeroFRho.ZeroRhoR.PosPhiR.eam.alloy Al

# ------------------------- SETTINGS ---------------------------------
compute csym all centro/atom fcc
compute peratom all pe/atom

######################################
# EQUILIBRATION
reset_timestep	0
timestep 0.001
velocity all create 300 12345 mom yes rot no
fix 1 all npt temp 300 300 1 iso 0 0 1 drag 1

# Set thermo output
thermo 1000
thermo_style custom step lx ly lz press pxx pyy pzz pe temp

# Run for at least 10 picosecond (assuming 1 fs timestep)
run 20000
Memory usage per processor = 3.04301 Mbytes
Step Lx Ly Lz Press Pxx Pyy Pzz PotEng Temp 
       0         40.5         40.5         40.5    3271.9569    3222.8238    3310.4878    3282.5592   -13415.034          300 
    1000    40.570036    40.570036    40.570036    887.26559    875.59141    860.13461    926.07075   -13336.233    165.13699 
    2000    40.584233    40.584233    40.584233    273.41173     216.1398    295.52426    308.57113   -13331.354    178.31131 
    3000    40.593059    40.593059    40.593059       115.69    30.112142    214.97937     101.9785   -13325.074    189.17622 
    4000    40.600872    40.600872    40.600872    50.230042    15.193532    12.956152    122.54044   -13315.857     194.3556 
    5000    40.605634    40.605634    40.605634    193.60559    237.17478    251.53985    92.102129   -13309.513    204.84471 
    6000    40.612628    40.612628    40.612628    98.386818    171.00003   -28.517834    152.67825   -13302.655    213.84349 
    7000    40.619944    40.619944    40.619944    26.807654     90.84144    69.448331   -79.866809   -13297.061    224.54456 
    8000    40.623824    40.623824    40.623824    227.76109    250.32985    336.14208     96.81135   -13290.268    231.92089 
    9000    40.630973    40.630973    40.630973    45.802102   -87.684866    143.86424    81.226931   -13289.321    249.40403 
   10000     40.63844     40.63844     40.63844      3.06239   -143.35586    197.61499   -45.071952   -13281.399    251.98462 
   11000    40.643556    40.643556    40.643556   -191.27101   -180.59747   -219.20549   -174.01008    -13280.09    265.80188 
   12000     40.64575     40.64575     40.64575   -7.8624254     25.83036   -21.184474   -28.233162   -13274.236    269.16999 
   13000    40.648667    40.648667    40.648667    58.502631   -30.919359    170.17756     36.24969   -13271.169    276.16762 
   14000    40.650717    40.650717    40.650717    63.463335    165.27351    61.349344   -36.232844   -13268.529    282.23358 
   15000    40.656808    40.656808    40.656808   -124.07972    -101.6296   -151.30095   -119.30863    -13268.46    291.50195 
   16000    40.656091    40.656091    40.656091     168.0483     290.6102    99.926919    113.60778   -13264.103    290.84305 
   17000    40.659253    40.659253    40.659253    27.599631    26.625429   -12.463265    68.636729   -13262.426    293.75129 
   18000    40.663471    40.663471    40.663471   -46.080202    101.22477   -69.361308   -170.10406   -13260.467    294.63632 
   19000    40.663698    40.663698    40.663698   -89.860587    37.643745   -200.40696   -106.81855   -13260.337    297.65066 
   20000    40.665218    40.665218    40.665218   -172.06533   -241.11554   -173.07973   -102.00072   -13260.341    299.61341 
Loop time of 294.842 on 4 procs for 20000 steps with 4000 atoms

Pair  time (%) = 227.153 (77.0423)
Neigh time (%) = 0 (0)
Comm  time (%) = 46.4731 (15.762)
Outpt time (%) = 0.0878147 (0.0297837)
Other time (%) = 21.1279 (7.16585)

Nlocal:    1000 ave 1000 max 1000 min
Histogram: 4 0 0 0 0 0 0 0 0 0
Nghost:    4235 ave 4235 max 4235 min
Histogram: 4 0 0 0 0 0 0 0 0 0
Neighs:    70000 ave 72653 max 67302 min
Histogram: 1 0 1 0 0 0 0 1 0 1
FullNghs:  0 ave 0 max 0 min
Histogram: 4 0 0 0 0 0 0 0 0 0

Total # of neighbors = 280000
Ave neighs/atom = 70
Neighbor list builds = 0
Dangerous builds = 0
unfix 1

# Store final cell length for strain calculations
variable tmp equal "lx"
variable L0 equal ${tmp}
variable L0 equal 40.665217666822
print "Initial Length, L0: ${L0}"
Initial Length, L0: 40.665217666822

######################################
# DEFORMATION
reset_timestep	0

fix		1 all npt temp 300 300 1 y 0 0 1 z 0 0 1 drag 1
variable srate equal 1.0e10
variable srate1 equal "v_srate / 1.0e12"
fix		2 all deform 1 x erate ${srate1} units box remap x
fix		2 all deform 1 x erate 0.01 units box remap x

# Output strain and stress info to file
# for units metal, pressure is in [bars] = 100 [kPa] = 1/10000 [GPa]
# p2, p3, p4 are in GPa
variable strain equal "(lx - v_L0)/v_L0"
variable p1 equal "v_strain"
variable p2 equal "-pxx/10000"
variable p3 equal "-pyy/10000"
variable p4 equal "-pzz/10000"
fix def1 all print 20 "${p1} ${p2} ${p3} ${p4}" file  Al99.ZeroFRho.ZeroRhoR.PosPhiR.eam.alloy.def1.txt screen no

# Use cfg for AtomEye
#dump 		1 all cfg 250 dump.tensile_*.cfg id type xs ys zs c_csym c_peratom fx fy fz
#dump_modify 1 element Al

# Display thermo
thermo 	1000
thermo_style	custom step v_strain temp v_p2 v_p3 v_p4 ke pe press

run		20000
Memory usage per processor = 3.04301 Mbytes
Step strain Temp p2 p3 p4 KinEng PotEng Press 
       0 -1.0483791e-15    299.61341  0.024111554  0.017307973  0.010200072    154.87356   -13260.341   -172.06533 
    1000         0.01    302.06982   0.67273014 -0.0011181394  0.020578867    156.14331   -13259.021   -2307.3029 
    2000         0.02    295.35394    1.2536038 -0.053132843 -0.019718475    152.67179   -13250.163   -3935.8415 
    3000         0.03    300.16128    1.8977982 0.0022645197 -0.010644359    155.15676   -13244.483   -6298.0611 
    4000         0.04    301.29792    2.5368185  0.023997639  0.030446804    155.74431   -13234.261    -8637.543 
    5000         0.05    293.32132    3.0892373 -0.032416468 -0.026760042    151.62111   -13216.769   -10100.203 
    6000         0.06    295.61683    3.7147805  0.039967583  0.027913023    152.80769   -13202.188    -12608.87 
    7000         0.07    302.55198    4.2678447 -0.014130194 -0.014352264    156.39254   -13187.683   -14131.208 
    8000         0.08    293.93934    4.7814411 -0.049791829 -0.037250124    151.94057   -13162.841   -15647.997 
    9000         0.09     293.7609    5.3579638 -0.0026323766 -0.0022116934    151.84833   -13140.042   -17843.733 
   10000          0.1    298.34398    5.9401252  0.050953635 -0.012477667    154.21738   -13117.515    -19928.67 
   11000         0.11    297.46628    6.4276694 -0.021039213  0.038391844    153.76369   -13089.985   -21483.407 
   12000         0.12    296.08632    6.9044655 -0.056186817 -0.022799594    153.05037   -13059.874   -22751.597 
   13000         0.13    293.74814    7.3757801  0.093634123  0.012633256    151.84174    -13027.31   -24940.158 
   14000         0.14    292.57684    7.8353461 -0.0056264766   0.03249475    151.23628   -12993.411   -26207.381 
   15000         0.15    334.84619    6.1221984  0.067093173  0.034520229    173.08579   -12982.829   -20746.039 
   16000         0.16    398.45875    2.3591461  0.047372131  0.001613357    205.96784   -13014.045   -8027.1052 
   17000         0.17    420.04251    1.4838021 0.0061207752  0.037456398    217.12473   -13040.419   -5091.2644 
   18000         0.18    411.75886     1.164856  -0.02688593 -0.00037463325    212.84281   -13057.379   -3791.9847 
   19000         0.19    410.90331   0.93795557  0.075094651  0.040882323    212.40057   -13077.128   -3513.1085 
   20000          0.2    406.74603   0.79147342 -0.045819618  0.018727155    210.25163   -13095.254   -2547.9365 
Loop time of 403.966 on 4 procs for 20000 steps with 4000 atoms

Pair  time (%) = 308.375 (76.337)
Neigh time (%) = 0.535001 (0.132437)
Comm  time (%) = 65.7464 (16.2753)
Outpt time (%) = 0.00319362 (0.000790567)
Other time (%) = 29.3057 (7.2545)

Nlocal:    1000 ave 1009 max 988 min
Histogram: 1 0 0 0 0 0 2 0 0 1
Nghost:    3749 ave 3753 max 3746 min
Histogram: 1 1 0 0 0 1 0 0 0 1
Neighs:    68999.8 ave 70884 max 66562 min
Histogram: 1 0 0 1 0 0 0 0 0 2
FullNghs:  0 ave 0 max 0 min
Histogram: 4 0 0 0 0 0 0 0 0 0

Total # of neighbors = 275999
Ave neighs/atom = 68.9998
Neighbor list builds = 86
Dangerous builds = 0

######################################
# SIMULATION DONE
print "All done"
All done
