LAMMPS (28 Jun 2014)
# Input file for uniaxial tensile loading of single crystal aluminum
# Mark Tschopp, November 2010

# ------------------------ INITIALIZATION ----------------------------
units 		metal
dimension	3
boundary	p	p	p
atom_style	atomic
variable latparam equal 4.05

# ----------------------- ATOM DEFINITION ----------------------------
lattice		fcc ${latparam}
lattice		fcc 4.05
Lattice spacing in x,y,z = 4.05 4.05 4.05
region		whole block 0 10 0 10 0 10
create_box	1 whole
Created orthogonal box = (0 0 0) to (40.5 40.5 40.5)
  1 by 2 by 2 MPI processor grid
lattice 	fcc ${latparam} orient x 1 0 0 orient y 0 1 0 orient z 0 0 1
lattice 	fcc 4.05 orient x 1 0 0 orient y 0 1 0 orient z 0 0 1
Lattice spacing in x,y,z = 4.05 4.05 4.05
create_atoms	1 region whole
Created 4000 atoms

# ------------------------ FORCE FIELDS ------------------------------
pair_style	eam/alloy
pair_coeff	* * Al99.NegFRho.ZeroRhoR.ZeroPhiR.eam.alloy Al

# ------------------------- SETTINGS ---------------------------------
compute csym all centro/atom fcc
compute peratom all pe/atom

######################################
# EQUILIBRATION
reset_timestep	0
timestep 0.001
velocity all create 300 12345 mom yes rot no
fix 1 all npt temp 300 300 1 iso 0 0 1 drag 1

# Set thermo output
thermo 1000
thermo_style custom step lx ly lz press pxx pyy pzz pe temp

# Run for at least 10 picosecond (assuming 1 fs timestep)
run 20000
Memory usage per processor = 3.04301 Mbytes
Step Lx Ly Lz Press Pxx Pyy Pzz PotEng Temp 
       0         40.5         40.5         40.5    2496.1243    2446.9912    2534.6552    2506.7266    -13444.32          300 
    1000    40.557592    40.557592    40.557592    866.26278    854.78686     838.4798    905.52169   -13365.444    165.23415 
    2000    40.571473    40.571473    40.571473    262.81511    197.86982    290.30302    300.27248   -13360.754    178.77499 
    3000    40.580351    40.580351    40.580351    103.71531    18.494909    200.47818     92.17283   -13354.306    189.29985 
    4000    40.588098    40.588098    40.588098    64.497577    19.404082    38.420848     135.6678   -13344.798    193.90086 
    5000    40.593037    40.593037    40.593037     183.2293     268.6068    243.04575    38.035343   -13338.561    204.58326 
    6000    40.600175    40.600175    40.600175    86.588898    100.46577   -18.410972     177.7119   -13331.642    213.44218 
    7000    40.607758    40.607758    40.607758   -21.328672    -26.75419     68.91337    -106.1452   -13326.077    224.17187 
    8000    40.612382    40.612382    40.612382    53.279227    33.795662    95.946774    30.095244   -13322.444     237.6268 
    9000    40.617933    40.617933    40.617933   -4.5963542    -95.13354    103.63468   -22.290207   -13320.214     252.6076 
   10000    40.626015    40.626015    40.626015   -49.157624   -32.861578    30.951217   -145.56251   -13310.566    251.81557 
   11000    40.629368    40.629368    40.629368  -0.11426933   -253.79354    129.13114    124.31959   -13307.274    261.76091 
   12000    40.632793    40.632793    40.632793   -84.254542    49.151671   -135.66871   -166.24658   -13305.629    273.21134 
   13000    40.639596    40.639596    40.639596   -167.40013   -259.81861   -349.73554    107.35376   -13302.364    279.77516 
   14000    40.640321    40.640321    40.640321    -33.03526   -328.85667     60.49743    169.25346   -13298.138     282.7204 
   15000    40.641356    40.641356    40.641356    125.62374    379.78277   -114.31309    111.40153   -13295.403    286.83137 
   16000    40.641431    40.641431    40.641431    252.56516     277.7288    79.690126    400.27654   -13295.093    293.97464 
   17000    40.647823    40.647823    40.647823   -48.371236   -189.73286   -18.054974    62.674122    -13292.69    295.45009 
   18000    40.648486    40.648486    40.648486    44.728768    81.273026   0.31372927     52.59955   -13291.501     297.8255 
   19000    40.647327    40.647327    40.647327     223.5163    200.24659    268.10941     202.1929   -13289.657    297.49543 
   20000    40.650262    40.650262    40.650262    46.997333    200.29494    41.828567   -101.13151   -13288.601    297.37703 
Loop time of 379.525 on 4 procs for 20000 steps with 4000 atoms

Pair  time (%) = 261.964 (69.0242)
Neigh time (%) = 0 (0)
Comm  time (%) = 79.6901 (20.9973)
Outpt time (%) = 0.00255048 (0.000672019)
Other time (%) = 37.8684 (9.97784)

Nlocal:    1000 ave 1000 max 1000 min
Histogram: 4 0 0 0 0 0 0 0 0 0
Nghost:    4235 ave 4235 max 4235 min
Histogram: 4 0 0 0 0 0 0 0 0 0
Neighs:    70000 ave 72653 max 67302 min
Histogram: 1 0 1 0 0 0 0 1 0 1
FullNghs:  0 ave 0 max 0 min
Histogram: 4 0 0 0 0 0 0 0 0 0

Total # of neighbors = 280000
Ave neighs/atom = 70
Neighbor list builds = 0
Dangerous builds = 0
unfix 1

# Store final cell length for strain calculations
variable tmp equal "lx"
variable L0 equal ${tmp}
variable L0 equal 40.6502618423502
print "Initial Length, L0: ${L0}"
Initial Length, L0: 40.6502618423502

######################################
# DEFORMATION
reset_timestep	0

fix		1 all npt temp 300 300 1 y 0 0 1 z 0 0 1 drag 1
variable srate equal 1.0e10
variable srate1 equal "v_srate / 1.0e12"
fix		2 all deform 1 x erate ${srate1} units box remap x
fix		2 all deform 1 x erate 0.01 units box remap x

# Output strain and stress info to file
# for units metal, pressure is in [bars] = 100 [kPa] = 1/10000 [GPa]
# p2, p3, p4 are in GPa
variable strain equal "(lx - v_L0)/v_L0"
variable p1 equal "v_strain"
variable p2 equal "-pxx/10000"
variable p3 equal "-pyy/10000"
variable p4 equal "-pzz/10000"
fix def1 all print 20 "${p1} ${p2} ${p3} ${p4}" file  Al99.NegFRho.ZeroRhoR.ZeroPhiR.eam.alloy.def1.txt screen no

# Use cfg for AtomEye
#dump 		1 all cfg 250 dump.tensile_*.cfg id type xs ys zs c_csym c_peratom fx fy fz
#dump_modify 1 element Al

# Display thermo
thermo 	1000
thermo_style	custom step v_strain temp v_p2 v_p3 v_p4 ke pe press

run		20000
Memory usage per processor = 3.04301 Mbytes
Step strain Temp p2 p3 p4 KinEng PotEng Press 
       0 8.7397068e-16    297.37703 -0.020029494 -0.0041828567  0.010113151    153.71755   -13288.601    46.997333 
    1000         0.01    298.75057   0.63381995  0.034329775  0.020291904    154.42755   -13286.856   -2294.8054 
    2000         0.02    300.60541    1.2874364 -0.013907637 -0.0098691108    155.38634     -13282.4   -4212.1987 
    3000         0.03     296.1199    1.8766477 -0.052224856 -0.023616263    153.06773   -13271.943   -6002.6886 
    4000         0.04    296.07504     2.511818  0.023486274 0.0037251927    153.04454   -13261.207   -8463.4315 
    5000         0.05    295.91779    3.1117362 0.0025248972  0.014045018    152.96325   -13247.843   -10427.687 
    6000         0.06    296.72425    3.7237012  0.034609052  0.029135076    153.38013    -13232.48   -12624.818 
    7000         0.07    299.52535     4.276118 0.0030850361 -0.015126988    154.82804   -13215.827   -14213.587 
    8000         0.08    299.31475    4.8360559  0.004257514 0.0057931655    154.71918   -13195.349   -16153.689 
    9000         0.09     298.7784    5.3884788  0.038391499 -0.009052773    154.44194   -13172.433   -18059.392 
   10000          0.1    294.18593    5.9030445 -0.0092328777  0.017014335    152.06804   -13145.165   -19702.753 
   11000         0.11    295.35607     6.413246 -0.055915919 -0.011414218     152.6729   -13118.676   -21153.053 
   12000         0.12    294.21227    6.9324996  0.029597071  0.051493613    152.08165   -13088.775   -23378.634 
   13000         0.13    293.77999    7.4127573  0.061496364  0.027889567     151.8582   -13057.125   -25007.144 
   14000         0.14    290.21166     7.766636 -0.010837494 -0.021693571    150.01369   -13021.958    -25780.35 
   15000         0.15     299.6178    7.2786153  0.013536723 -0.0099357826    154.87583   -12992.396   -24274.054 
   16000         0.16    365.57194    3.1969999  0.060453823 -0.014224229    188.96827   -13017.744   -10810.765 
   17000         0.17    386.89638    2.1410263 -0.017542658 0.0078884702    199.99112   -13035.254   -7104.5737 
   18000         0.18    392.86889    1.4296208 -0.089868979 -0.034261013    203.07838   -13051.738   -4351.6361 
   19000         0.19    403.21708     1.208605   0.11745346 0.0083643492    208.42747   -13074.201   -4448.0759 
   20000          0.2    406.85092    1.1656179  0.069534916   0.02239157    210.30585   -13094.058   -4191.8147 
Loop time of 343.676 on 4 procs for 20000 steps with 4000 atoms

Pair  time (%) = 268.646 (78.1683)
Neigh time (%) = 0.541895 (0.157676)
Comm  time (%) = 52.131 (15.1687)
Outpt time (%) = 0.00295335 (0.000859341)
Other time (%) = 22.3546 (6.50455)

Nlocal:    1000 ave 1007 max 993 min
Histogram: 1 0 0 0 1 1 0 0 0 1
Nghost:    3756.5 ave 3764 max 3748 min
Histogram: 1 1 0 0 0 0 0 0 0 2
Neighs:    68824 ave 70901 max 66746 min
Histogram: 1 1 0 0 0 0 0 0 1 1
FullNghs:  0 ave 0 max 0 min
Histogram: 4 0 0 0 0 0 0 0 0 0

Total # of neighbors = 275296
Ave neighs/atom = 68.824
Neighbor list builds = 89
Dangerous builds = 0

######################################
# SIMULATION DONE
print "All done"
All done
