LAMMPS (28 Jun 2014)
# Input file for uniaxial tensile loading of single crystal aluminum
# Mark Tschopp, November 2010

# ------------------------ INITIALIZATION ----------------------------
units 		metal
dimension	3
boundary	p	p	p
atom_style	atomic
variable latparam equal 4.05

# ----------------------- ATOM DEFINITION ----------------------------
lattice		fcc ${latparam}
lattice		fcc 4.05
Lattice spacing in x,y,z = 4.05 4.05 4.05
region		whole block 0 10 0 10 0 10
create_box	1 whole
Created orthogonal box = (0 0 0) to (40.5 40.5 40.5)
  1 by 2 by 2 MPI processor grid
lattice 	fcc ${latparam} orient x 1 0 0 orient y 0 1 0 orient z 0 0 1
lattice 	fcc 4.05 orient x 1 0 0 orient y 0 1 0 orient z 0 0 1
Lattice spacing in x,y,z = 4.05 4.05 4.05
create_atoms	1 region whole
Created 4000 atoms

# ------------------------ FORCE FIELDS ------------------------------
pair_style	eam/alloy
pair_coeff	* * Al99.ZeroFRho.ZeroRhoR.NegPhiR.eam.alloy Al

# ------------------------- SETTINGS ---------------------------------
compute csym all centro/atom fcc
compute peratom all pe/atom

######################################
# EQUILIBRATION
reset_timestep	0
timestep 0.001
velocity all create 300 12345 mom yes rot no
fix 1 all npt temp 300 300 1 iso 0 0 1 drag 1

# Set thermo output
thermo 1000
thermo_style custom step lx ly lz press pxx pyy pzz pe temp

# Run for at least 10 picosecond (assuming 1 fs timestep)
run 20000
Memory usage per processor = 3.04301 Mbytes
Step Lx Ly Lz Press Pxx Pyy Pzz PotEng Temp 
       0         40.5         40.5         40.5    1720.2897    1671.1565    1758.8205     1730.892   -13464.966          300 
    1000    40.545147    40.545147    40.545147    846.46254    835.05235     818.5957    885.73957   -13386.059    165.34513 
    2000     40.55875     40.55875     40.55875    254.31902    182.38595    287.96796    292.60314   -13381.496    179.13097 
    3000    40.567719    40.567719    40.567719    88.660741    5.4761091    179.69205    80.814065   -13374.867     189.2919 
    4000    40.575367    40.575367    40.575367    82.130514    29.906861    60.141853    156.34283   -13365.123    193.42004 
    5000    40.580607    40.580607    40.580607    152.77629    269.65669    208.14818   -19.475989   -13359.296    204.87917 
    6000    40.587519    40.587519    40.587519    74.511766    47.267886   -5.4415516    181.70896    -13352.51    213.97636 
    7000    40.595614    40.595614    40.595614   -63.716257   -100.48268    32.698153   -123.36424   -13346.538    223.88814 
    8000     40.60166     40.60166     40.60166   -114.53154   -211.32512   -72.556551   -59.712931   -13344.709    240.81653 
    9000    40.605268    40.605268    40.605268   -13.137524   -1.8340087    111.46969   -149.04825   -13340.023    251.00922 
   10000    40.613939    40.613939    40.613939   -153.59071   -181.39457   -151.35835   -128.01921   -13332.278     253.8545 
   11000    40.620438    40.620438    40.620438    -186.1142   -406.65004    23.049442     -174.742   -13328.199    262.25888 
   12000    40.622218    40.622218    40.622218    -97.40916   -241.04595    91.808725   -142.99025   -13325.616    271.85647 
   13000    40.628308    40.628308    40.628308   -428.09495   -458.77274   -389.89743   -435.61468   -13324.862     283.2476 
   14000    40.632226    40.632226    40.632226   -249.19802   -345.01538   -110.38096   -292.19772   -13319.159    283.30358 
   15000    40.632376    40.632376    40.632376   -152.88982   -147.58632     -66.5059   -244.57724   -13315.521    285.59285 
   16000    40.635355    40.635355    40.635355    -128.0248   -221.15382   -233.76014    70.839561   -13314.368     291.0555 
   17000    40.636587    40.636587    40.636587   -233.42866   -190.82364   -160.97244    -348.4899    -13315.49    299.29879 
   18000    40.637096    40.637096    40.637096   -162.72058   -236.45625   -181.94065   -69.764849   -13312.031    297.22211 
   19000    40.641852    40.641852    40.641852   -330.07868   -183.48206   -537.95026   -268.80373   -13310.445    297.32619 
   20000    40.635014    40.635014    40.635014    89.493637     198.2627     62.13005    8.0881562   -13311.158    300.64196 
Loop time of 195.671 on 4 procs for 20000 steps with 4000 atoms

Pair  time (%) = 178.6 (91.2755)
Neigh time (%) = 0 (0)
Comm  time (%) = 11.844 (6.05299)
Outpt time (%) = 0.00222701 (0.00113814)
Other time (%) = 5.2252 (2.6704)

Nlocal:    1000 ave 1000 max 1000 min
Histogram: 4 0 0 0 0 0 0 0 0 0
Nghost:    4235 ave 4235 max 4235 min
Histogram: 4 0 0 0 0 0 0 0 0 0
Neighs:    70000 ave 72653 max 67302 min
Histogram: 1 0 1 0 0 0 0 1 0 1
FullNghs:  0 ave 0 max 0 min
Histogram: 4 0 0 0 0 0 0 0 0 0

Total # of neighbors = 280000
Ave neighs/atom = 70
Neighbor list builds = 0
Dangerous builds = 0
unfix 1

# Store final cell length for strain calculations
variable tmp equal "lx"
variable L0 equal ${tmp}
variable L0 equal 40.6350140544149
print "Initial Length, L0: ${L0}"
Initial Length, L0: 40.6350140544149

######################################
# DEFORMATION
reset_timestep	0

fix		1 all npt temp 300 300 1 y 0 0 1 z 0 0 1 drag 1
variable srate equal 1.0e10
variable srate1 equal "v_srate / 1.0e12"
fix		2 all deform 1 x erate ${srate1} units box remap x
fix		2 all deform 1 x erate 0.01 units box remap x

# Output strain and stress info to file
# for units metal, pressure is in [bars] = 100 [kPa] = 1/10000 [GPa]
# p2, p3, p4 are in GPa
variable strain equal "(lx - v_L0)/v_L0"
variable p1 equal "v_strain"
variable p2 equal "-pxx/10000"
variable p3 equal "-pyy/10000"
variable p4 equal "-pzz/10000"
fix def1 all print 20 "${p1} ${p2} ${p3} ${p4}" file  Al99.ZeroFRho.ZeroRhoR.NegPhiR.eam.alloy.def1.txt screen no

# Use cfg for AtomEye
#dump 		1 all cfg 250 dump.tensile_*.cfg id type xs ys zs c_csym c_peratom fx fy fz
#dump_modify 1 element Al

# Display thermo
thermo 	1000
thermo_style	custom step v_strain temp v_p2 v_p3 v_p4 ke pe press

run		20000
Memory usage per processor = 3.04301 Mbytes
Step strain Temp p2 p3 p4 KinEng PotEng Press 
       0 1.7485972e-16    300.64196  -0.01982627 -0.006213005 -0.00080881562    155.40523   -13311.158    89.493637 
    1000         0.01     296.0301   0.65219371 0.0031511376 -0.010715535    153.02131   -13306.273   -2148.7644 
    2000         0.02    299.73447    1.2719211 -0.012352302 -0.0018516541    154.93614   -13302.873   -4192.3906 
    3000         0.03    301.08224    1.9276565 0.0018790006 -1.331939e-05    155.63282   -13295.496   -6431.7406 
    4000         0.04    301.79811    2.5184126  0.009742114  0.016565674    156.00286   -13285.143   -8482.4012 
    5000         0.05    297.48438    3.1283773 0.0092548671  0.018986268    153.77304    -13269.64   -10522.062 
    6000         0.06    297.68558    3.6899897 -0.002238509 -0.016994468    153.87704   -13254.102   -12235.856 
    7000         0.07    297.86204    4.2618506 -0.069786833  0.015906701    153.96826   -13236.105   -14026.568 
    8000         0.08    294.77129    4.8606314 -0.028112617  0.058602605    152.37062   -13214.137   -16303.738 
    9000         0.09    296.40837    5.3753988 -0.005655687 -0.026675532    153.21684   -13192.309   -17810.225 
   10000          0.1    296.31829     5.944672 -0.033681844 0.0004346026    153.17028   -13167.374   -19704.749 
   11000         0.11    296.54193    6.4788081  0.071716798 -0.011130069    153.28588   -13140.368   -21797.983 
   12000         0.12    300.25962    7.0106994 -0.0094564658 -0.035210654    155.20759   -13112.966   -23220.108 
   13000         0.13    294.54374    7.4401334 0.0085157618 -0.0045335923    152.25299   -13078.604   -24813.719 
   14000         0.14    290.30694    7.7322163 0.0038175944 -0.014909372    150.06294   -13043.107   -25737.082 
   15000         0.15    288.48587    7.9788782 -0.0053942539 -0.016436047    149.12161    -13007.32   -26523.493 
   16000         0.16    386.82482    3.2738667  0.032056742 -0.067315205    199.95413   -13035.043   -10795.361 
   17000         0.17    423.98866    1.6780805  0.024467119  0.044253603    219.16454    -13067.25   -5822.6707 
   18000         0.18    420.14398     1.219826   0.12033776  0.046860799    217.17718   -13085.997   -4623.4153 
   19000         0.19    422.69072    1.0922239 -0.060573357 -0.079169143    218.49362    -13109.51   -3174.9379 
   20000          0.2    405.35536    1.6638645   0.08977355 -0.00031458505    209.53278   -13120.039   -5844.4115 
Loop time of 284.529 on 4 procs for 20000 steps with 4000 atoms

Pair  time (%) = 246.298 (86.5635)
Neigh time (%) = 0.490073 (0.17224)
Comm  time (%) = 24.3858 (8.57059)
Outpt time (%) = 0.00269514 (0.00094723)
Other time (%) = 13.3521 (4.69271)

Nlocal:    1000 ave 1011 max 986 min
Histogram: 1 0 0 1 0 0 0 0 1 1
Nghost:    3748.5 ave 3760 max 3742 min
Histogram: 1 1 1 0 0 0 0 0 0 1
Neighs:    69105 ave 70883 max 67050 min
Histogram: 1 0 0 0 0 1 1 0 0 1
FullNghs:  0 ave 0 max 0 min
Histogram: 4 0 0 0 0 0 0 0 0 0

Total # of neighbors = 276420
Ave neighs/atom = 69.105
Neighbor list builds = 85
Dangerous builds = 0

######################################
# SIMULATION DONE
print "All done"
All done
