
# ----------------------- ATOM DEFINITION ----------------------------
lattice		fcc ${latparam}
lattice		fcc 4.05
Lattice spacing in x,y,z = 4.05 4.05 4.05
region		whole block 0 16 0 16 0 16
create_box	1 whole
Created orthogonal box = (0 0 0) to (64.8 64.8 64.8)
  2 by 1 by 2 MPI processor grid
lattice 	fcc ${latparam} orient x 1 0 0 orient y 0 1 0 orient z 0 0 1
lattice 	fcc 4.05 orient x 1 0 0 orient y 0 1 0 orient z 0 0 1
Lattice spacing in x,y,z = 4.05 4.05 4.05
create_atoms	1 region whole
Created 16384 atoms

# ------------------------ FORCE FIELDS ------------------------------

#****************USE THIS TO TEST******************
pair_style	eam/rad
pair_coeff 		* * Al99.PC0.05.eam.alloy.rad.txt Al # pc = 0.5   error generating

# to test with error = 0 use this potential
# pair_coeff	* * Al99.eam.alloy.005pcrad_NULL_noerror Al

#****************USE THIS TO RUN REFRENCE***********
# pair_style	eam/alloy
# pair_coeff	* * Al99.eam.alloy Al

# ------------------------- SETTINGS ---------------------------------
compute csym all centro/atom fcc
compute peratom all pe/atom

######################################
# EQUILIBRATION
reset_timestep	0
timestep	0.001 # default
# timestep	0.0001 # tiny time step
velocity all create 300 12345 mom yes rot no
fix 1 all npt temp 300 300 1 iso 0 0 1 drag 1

# Set thermo output
thermo 50
# thermo 1 # debug mode

# thermo_style custom step lx ly lz press pxx pyy pzz pe temp
# IMPLEMENTATION HERE

# VERSION add rad variables .v1 .v2
# thermo_style custom step lx ly lz press pxx pyy pzz pxxrad pyyrad pzzrad pe temp

# VERSION ublb separation .v3
thermo_style custom step lx ly lz press pxx pxxrad pyy pyyrad pzz pzzrad pe temp

# Run for at least 10 picosecond (assuming 1 fs timestep)
run 	20000 # default
Memory usage per processor = 5.90433 Mbytes
Step Lx Ly Lz Press Pxx Pxxrad Pyy Pyyrad Pzz Pzzrad PotEng Temp 
       0         64.8         64.8         64.8    2496.5946    2464.3333    242.99145    2508.7809    242.99145    2516.6696     485.9829    -55050.24          300 
      50    64.896706    64.896706    64.896706    860.56085    949.43103    7682.3593    822.00845    7623.9498    810.24307    486.42388   -54640.386    105.49614 
     100    65.005446    65.005446    65.005446   -4102.3745   -4104.9237     12966.39   -4081.9907    13206.886   -4120.2091    480.22562   -54773.083    169.34737 
     150    64.907088    64.907088    64.907088    484.52969    515.48616    8994.8484    475.96207    9263.9443    462.14084     485.0513   -54678.107    124.56271 
     200    64.845387    64.845387    64.845387    2508.6157    2493.3738    10382.808    2511.6845     10430.61    2520.7889    488.61064    -54706.98    139.20862 
     250    64.904149    64.904149    64.904149    143.81178    132.07413    10805.124     152.0707    11309.554    147.29051    485.31355   -54721.637    146.57251 
     300    64.948544    64.948544    64.948544   -1470.5569   -1474.6314    11394.701   -1497.5382     11495.15   -1439.5011    483.14209   -54728.049    150.34907 
     350     64.91112     64.91112     64.91112   -321.25184   -276.42273    12314.995   -390.59413    12191.778   -296.73867    485.08151   -54749.819    161.18582 
     400    64.873529    64.873529    64.873529    1344.5041    1342.6916    11335.992    1345.7421    11592.326    1345.0785    487.16748   -54725.472    150.50327 
     450    64.906123    64.906123    64.906123    16.057935    71.326045    11698.721   -37.018105    11513.554    13.865866    485.36469   -54729.524    153.12426 
     500    64.934384    64.934384    64.934384   -907.51804   -913.42979    11356.327   -917.21901    11428.704    -891.9053    483.91031   -54721.881    150.36869 
     550    64.911149    64.911149    64.911149   -86.223732   -88.312004    11485.805   -89.943239    11500.658   -80.415955    485.16856   -54724.417    152.32973 
     600    64.886962    64.886962    64.886962    810.71522     843.2597    11805.095    770.41775    11941.048    818.46822    486.44247   -54730.919    156.25829 
     650    64.907203    64.907203    64.907203    103.12322    103.37156    11753.313    68.331601    11767.855     137.6665    485.39139   -54725.549    154.50552 
     700    64.929217    64.929217    64.929217   -784.55457   -743.52423    11965.222   -805.31015    11887.163   -804.82932    484.17826   -54727.129    156.12146 
     750    64.911263    64.911263    64.911263   -2.2768646   -7.1166668    11682.456   -15.754097    11955.176     16.04017    485.20446   -54723.502     155.2258 
     800    64.894977    64.894977    64.894977    531.27954    541.11308    11742.838     531.8221     12058.12    520.90344    486.05395   -54725.978    157.25865 
     850    64.908699    64.908699    64.908699    83.269989      91.5132    11845.824    36.159085    11919.771    122.13768    485.37272   -54722.084    156.26393 
     900    64.924682    64.924682    64.924682   -516.92399   -521.23577     11820.31    -522.1347    11915.258    -507.4015    484.53042   -54722.401    157.28073 
     950     64.91247     64.91247     64.91247   -69.108026   -75.357132    12095.093   -84.236667    12008.606   -47.730278    485.16933   -54721.937    157.91846 
    1000    64.898857    64.898857    64.898857    498.02335    483.40561    11903.471    470.08925    11893.349     540.5752    486.06469   -54715.614     155.8034 
    1050    64.911235    64.911235    64.911235    44.683247    10.903167    11925.423    71.727963     12200.16     51.41861    485.34501   -54716.754    157.19439 
    1100    64.923817    64.923817    64.923817   -457.38643   -471.82814     12089.66    -478.0245    12370.318   -422.30664     484.5753   -54718.458    158.88081 
    1150    64.913242    64.913242    64.913242   -30.297346   -28.257071    12281.289   -22.678698    12451.892   -39.956268     485.1739   -54724.952    162.81681 
    1200    64.902829    64.902829    64.902829    387.28708    353.72187    11859.988    364.68411    11910.522    443.45527    485.91199   -54708.669    156.00176 
    1250    64.913092    64.913092    64.913092   -37.782504   -17.813692    12265.866   -58.408683    12479.095   -37.125138    485.20232   -54721.076    162.73117 
    1300    64.921588    64.921588    64.921588   -247.18429      -274.59    12153.757   -240.31197    12048.701    -226.6509    484.80948   -54710.747    158.74756 
    1350    64.914794    64.914794    64.914794   -50.058944   -57.335922    12039.256   -25.937033    12103.631   -66.903877    485.14677    -54710.14    159.32923 
    1400     64.90718     64.90718     64.90718    308.15164      299.236    12379.231    313.08477    12574.582    312.13416    485.56042   -54716.037    163.00318 
    1450    64.915457    64.915457    64.915457   -68.182331   -45.461183     12166.71   -110.28569    12315.041   -48.800117    485.19744   -54708.153    160.15139 
    1500    64.921221    64.921221    64.921221   -222.12004    -260.1734    12646.877   -175.01713    12565.626   -231.16961    484.85551   -54717.857    165.62684 
    1550    64.914891    64.914891    64.914891    84.508989    68.509585    11943.076    76.045396    12099.715    108.97199    485.31052   -54698.634     157.4345 
    1600    64.911514    64.911514    64.911514    179.10262    171.04647    12304.967    199.75421    12835.628    166.50719    485.45726   -54711.252    164.27838 
    1650    64.917196    64.917196    64.917196   -69.216668   -77.641356    12245.717   -28.794477    12600.681   -101.21417    485.19414   -54705.888    162.63245 
    1700      64.9199      64.9199      64.9199   -124.95287   -91.733041    12636.065   -131.46383    12756.461   -151.66172     485.0896   -54709.851    165.38762 
    1750    64.916324    64.916324    64.916324    17.906812     26.35357    12559.544    29.180508    12628.773   -1.8136411    485.25663   -54706.639    164.76164 
    1800    64.914963    64.914963    64.914963    132.33831    129.12402    12500.697    111.60445     12657.37    156.28646    485.32979   -54703.754    164.28487 
    1850    64.918757    64.918757    64.918757   -47.026286   -41.061169    12684.605   -45.325242    12755.549   -54.692448     485.1847   -54705.487    166.00606 
    1900    64.920556    64.920556    64.920556   -67.644229   -68.175359    12744.569    -74.49325    12629.361   -60.264079    485.12525   -54699.368    163.99471 
    1950    64.918703    64.918703    64.918703    4.4279539    43.163473    12607.832   -7.4447635    12825.215   -22.434848    485.20986   -54700.238    165.30024 
    2000    64.916844    64.916844    64.916844    84.515369    101.57458    12684.022    76.675086    12843.544    75.296442     485.3473   -54699.354    165.77466 
    2050     64.91964     64.91964     64.91964   -25.377169   -30.069028    12987.026   -39.312397    13096.938   -6.7500835     485.1279   -54705.018     169.3409 
    2100     64.92101     64.92101     64.92101   -69.637287   -51.749208     12774.02   -108.58252    13007.068   -48.580138     485.0601   -54699.952     167.8488 
    2150    64.919935    64.919935    64.919935     64.77002    111.25353    12796.812    46.591022    12666.668    36.465504     485.1984   -54693.209    165.55076 
    2200    64.921444    64.921444    64.921444   -31.293365    28.953798    12999.753   -79.532145    13130.799   -43.301748    485.14376   -54699.988    169.64218 
    2250    64.921431    64.921431    64.921431   -56.153186   -30.621665    12893.688   -81.837503    12950.748   -56.000389    485.02696   -54695.552    168.44636 
    2300    64.919484    64.919484    64.919484    102.20585    114.06956    12912.448    106.55792    13067.478    85.990079    485.16815   -54696.873    169.97344 
    2350    64.921889    64.921889    64.921889    5.3667074    66.901676    12790.242   -51.399408    12865.774   0.59785414    485.13181   -54689.676    167.45768 
    2400    64.923937    64.923937    64.923937     -70.8674   -69.099774     13081.56   -72.435113    13360.139   -71.067315    484.93401   -54693.907    170.36189 
    2450    64.921683    64.921683    64.921683    38.795441    88.603291    13106.096    -27.56332    12999.718    55.346352    485.15407   -54691.559    170.14627 
    2500    64.921244    64.921244    64.921244    34.281772    17.649698    12995.136    28.512509    13152.355    56.683109    485.21342   -54690.512    170.54889 
    2550    64.923382    64.923382    64.923382   -23.045063    10.201656    13522.257   -27.908162    13633.767   -51.428684     485.0804   -54695.462     173.7817 
    2600    64.925251    64.925251    64.925251   -48.308893   -27.356417    12895.567   -59.004134    13029.921   -58.566128    485.00594   -54684.581    169.53976 
    2650    64.923828    64.923828    64.923828    10.772066    50.569126    13390.469    45.072755    13241.382   -63.325684    485.03605   -54689.739     172.8804 
    2700    64.922631    64.922631    64.922631    41.503128    77.608484    13122.467    6.0269148     13295.28    40.873986    485.26703   -54685.948    171.98139 
    2750    64.924507    64.924507    64.924507    13.926302    66.564428    13396.611   -22.106717    13286.037   -2.6788067    485.16545   -54685.371    172.60524 
    2800    64.926105    64.926105    64.926105   -66.900793   -34.640355    13521.769   -42.237189    13613.828   -123.82483    484.95894   -54688.938    175.19563 
    2850    64.925298    64.925298    64.925298     23.63414     30.31689    13297.835    21.432216    13583.013    19.153315    485.06571   -54683.681    173.61182 
    2900    64.925171    64.925171    64.925171   -9.5255578    28.788704    13657.828    12.687064    13599.737   -70.052441     485.1057   -54687.397     176.2641 
    2950    64.925703    64.925703    64.925703    27.226991    123.72234    13389.027    1.9493504    13287.439   -43.990714    485.17379   -54679.695    173.52513 
    3000    64.927642    64.927642    64.927642   -36.160513   -28.962985     13493.39   -26.459715    13570.891    -53.05884    485.04728   -54680.506    174.80889 
    3050    64.927529    64.927529    64.927529   -19.919289    6.7113271    13720.289   -25.882011    13732.878   -40.587182     485.0097   -54684.291    177.49718 
    3100    64.926679    64.926679    64.926679     26.36626     10.20864    13321.298    56.829536    13884.186    12.060605    485.05867   -54680.729    176.71487 
    3150    64.927597    64.927597    64.927597    23.887023    91.138758    13337.875    33.787624      13390.1   -53.265313    485.08935   -54674.957    174.88876 
    3200    64.928549    64.928549    64.928549   -51.345938   -23.670471    13984.378   -110.14189     13868.08   -20.225453    485.06582   -54681.883    179.06425 
    3250    64.928117    64.928117    64.928117   -2.1282022    37.496193    13824.231    12.411412    13854.185   -56.292212    485.09671   -54679.173    178.68206 
    3300    64.928624    64.928624    64.928624   -35.413114    8.7917753    13672.624   -30.015144    13802.721   -85.015972    485.06569   -54675.925    178.04877 
    3350    64.928311    64.928311    64.928311     38.55506    18.417377    14074.039    69.743563    14080.965    27.504238    485.10283   -54680.779    181.24606 
    3400    64.930178    64.930178    64.930178    10.079993    96.853272    13530.209    -6.139849    13362.594   -60.473445    485.01598   -54667.172    175.71509 
    3450    64.931797    64.931797    64.931797   -83.382733   -136.49785    14026.568   -43.562348    13914.572   -70.087997    485.01938   -54673.118    179.42886 
    3500    64.929604    64.929604    64.929604    47.192489    124.85847    14068.516    52.720913    13942.364   -36.001915    485.03648   -54673.413    180.46486 
    3550    64.928961    64.928961    64.928961    60.043325    57.026722    13863.958    67.763949      13964.1    55.339305    485.06333    -54669.87    179.70124 
    3600    64.930874    64.930874    64.930874   -19.510368    36.514866    13953.474     1.265272    14036.027   -96.311242    485.04251   -54671.363    181.30673 
    3650    64.932912    64.932912    64.932912    -66.82066   -40.386328    14313.727   -80.966851    14325.353   -79.108803    484.91958   -54672.023    182.51599 
    3700    64.932336    64.932336    64.932336   -52.111219   -69.255911    13966.503   -13.105938     14195.62   -73.971809    485.04147   -54670.176    182.54705 
    3750    64.930113    64.930113    64.930113    66.161664    117.67797    14094.497    42.797297    14047.241    38.009729    485.15864   -54668.531    182.67233 
    3800    64.932039    64.932039    64.932039    18.378685    55.199993    14151.339   -36.253423     14246.43    36.189486    485.07519   -54665.402    182.09586 
    3850    64.935035    64.935035    64.935035   -69.920649   -64.191715    14105.645    -22.28254    14141.606   -123.28769    484.85325   -54664.839    182.73132 
    3900    64.934425    64.934425    64.934425    -44.84433   -35.855783    14297.709   -93.038511    14329.868   -5.6386941    484.88966   -54666.355     184.3493 
    3950    64.931657    64.931657    64.931657    108.12242    86.347834    14209.567    164.11022      14360.5    73.909222    485.04503   -54661.144    182.79497 
    4000    64.933259    64.933259    64.933259    39.562897    127.60877    14299.229    1.1038606    14114.581    -10.02394    485.03261   -54661.847    184.02281 
    4050    64.936337    64.936337    64.936337   -69.141502    -76.55805    14226.966   -79.516737    14348.465    -51.34972    484.87593   -54661.831    184.91911 
    4100    64.935494    64.935494    64.935494   -10.468708    33.629516    14424.959   -9.1546272    14425.958   -55.881013    484.93637   -54660.637    185.25636 
    4150    64.933871    64.933871    64.933871    55.054712    50.669504    14524.195    23.079217    14557.489    91.415416    485.03934   -54662.305     186.9483 
    4200    64.935075    64.935075    64.935075    3.1453102    17.354796    14532.259     31.65033     14335.14   -39.569196    485.02626   -54658.337    185.97588 
    4250    64.937269    64.937269    64.937269   -41.894341   -3.4751109    14375.367   -106.35189    14495.862   -15.856028    484.94868   -54657.387    186.42258 
    4300    64.937412    64.937412    64.937412   -35.988985   -46.890645    14602.058   -42.239804      14764.4   -18.836507    484.86188   -54659.204    188.18522 
    4350    64.935136    64.935136    64.935136    66.759734    77.269333    14398.048      76.7378    14389.628    46.272068    484.96686   -54650.597    185.02228 
    4400     64.93534     64.93534     64.93534    93.381852    92.748074    14436.745    74.142821    14622.961    113.25466    485.00329   -54652.897    187.00939 
    4450    64.939127    64.939127    64.939127   -91.106412   -90.393474    14795.601   -83.919238    14709.376   -99.006524    484.81196   -54656.436    189.58001 
    4500    64.939677    64.939677    64.939677   -79.280601   -121.88204    14917.853   -88.768847    14793.879   -27.190916     484.8691   -54654.833    189.72476 
    4550    64.936566    64.936566    64.936566     32.35499    58.160484     14761.38   -14.927284    14755.819     53.83177      485.011   -54653.784     190.1291 
    4600    64.936176    64.936176    64.936176    69.227021    114.12137    14969.207    65.541563    14936.389    28.018133    485.02624   -54654.577     191.4044 
    4650    64.939875    64.939875    64.939875   -28.558605   -4.4595293    14776.777   -63.125106    15229.031    -18.09118    484.81717   -54649.696    190.00281 
    4700    64.941468    64.941468    64.941468   -132.70997   -80.856125    14764.719   -140.19142    15035.688   -177.08238    484.78062   -54649.487    190.79744 
    4750    64.938078    64.938078    64.938078    101.26554    131.75744    14922.117    65.147046    15014.801    106.89212    485.00979   -54647.781    190.89352 
    4800    64.938802    64.938802    64.938802    59.602532    107.84034    15006.331    33.453505    14942.062    37.513747    484.97857   -54647.109    191.47364 
    4850    64.942227    64.942227    64.942227   -58.039397   -13.889691    15023.579   -108.10035     14907.05   -52.128147    484.79384    -54644.85    191.30938 
    4900    64.942279    64.942279    64.942279   -86.126851    -74.33397    15170.569   -78.311838    15065.079   -105.73475    484.80296    -54649.93    194.60258 
    4950    64.938904    64.938904    64.938904    121.18702    153.78082    14880.397     125.0405    14878.558    84.739739     484.9574   -54639.826    190.73082 
    5000    64.940474    64.940474    64.940474    39.941221    104.49265     15016.61    3.2738964    15324.365    12.057119    484.91434   -54644.714    193.93713 
    5050    64.944344    64.944344    64.944344   -69.899311    13.546292    15070.955    -113.7666    15115.639   -109.47762    484.74208   -54642.743    193.90385 
    5100    64.944311    64.944311    64.944311   -49.087349   -32.070386    15300.537   -79.668453    15447.151   -35.523208    484.70936   -54642.432    194.65556 
    5150    64.941672    64.941672    64.941672     53.30495    133.34082    15167.733   -33.421968    15331.698    59.995996    484.94219   -54640.014    194.41031 
    5200    64.942455    64.942455    64.942455    40.272807    44.546297    15355.784    41.094698    15583.051    35.177426    484.91991   -54642.183    196.32928 
    5250    64.945095    64.945095    64.945095   -49.669905    7.0054855    15048.481   -66.160589    15281.603   -89.854611    484.77627   -54635.589    194.11219 
    5300    64.944947    64.944947    64.944947    5.0988099    57.033906    15135.988    4.1364344    15223.689   -45.873911    484.77215   -54635.423    194.92456 
    5350    64.944154    64.944154    64.944154   -10.270997   -3.0025937    15526.862   -33.336722    15747.407    5.5263246    484.74877   -54640.661    198.29749 
    5400      64.9439      64.9439      64.9439    12.283463    99.403511    15427.245   -12.670129    15428.489   -49.882993    484.80951   -54639.041    198.43201 
    5450    64.945657    64.945657    64.945657   -21.563725     18.94493    15746.635   -62.425036    15532.286    -21.21107    484.91087   -54636.863    198.29288 
    5500     64.94652     64.94652     64.94652   -37.181305   -14.514438    15530.076   -48.856993    15371.425   -48.172484    484.78373   -54633.407    197.55327 
    5550    64.945216    64.945216    64.945216    53.996136    74.969407    15575.982    44.219327    15543.436    42.799673    484.87778   -54631.854    197.71413 
    5600    64.945613    64.945613    64.945613    55.025469    19.866462    15420.239    96.117746    15540.035    49.092198    484.87104   -54628.693    197.11657 
    5650    64.948095    64.948095    64.948095   -49.138611   -63.701111    15739.449   -1.0801871    15698.284   -82.634535    484.72073   -54632.032    199.58039 
    5700    64.948588    64.948588    64.948588   -41.508354   -65.677852    15785.332    14.888239    15816.246    -73.73545    484.72572   -54631.141    200.05337 
    5750    64.946948    64.946948    64.946948    31.945903    42.147432    15709.887     61.69119    15731.178   -8.0009137    484.82162   -54627.945     199.4337 
    5800    64.946659    64.946659    64.946659    42.087954    59.053488    16178.009    98.900102     15973.69   -31.689729    484.87103   -54631.694    202.09915 
    5850    64.949267    64.949267    64.949267   -14.274084   -64.076519    16003.891   -8.7334735     15798.19    29.987741    484.75928   -54627.081    200.80366 
    5900    64.950815    64.950815    64.950815   -75.017577   -62.583115    15850.098   -28.380852    15853.283   -134.08876    484.60897   -54627.922    202.09739 
    5950    64.948563    64.948563    64.948563    43.016864    23.529361    15973.095    104.95146    15991.193   0.56977574    484.73414   -54624.707    201.46218 
    6000    64.948104    64.948104    64.948104     31.80873   -14.897012    15943.923    101.73495    16025.193    8.5882487    484.78081   -54626.522    203.20864 
    6050    64.949927    64.949927    64.949927    52.963454    32.797762    15993.235    83.789382    15914.097    42.303218    484.74848   -54622.044    201.98167 
    6100    64.953106    64.953106    64.953106   -87.116688    -42.40576    16156.376   -123.17156    15936.344   -95.772743    484.56391   -54620.703    202.23368 
    6150    64.951555    64.951555    64.951555   -42.642128   -86.849341    16256.329    19.147126    16114.948   -60.224168    484.67833   -54623.606    204.49154 
    6200    64.948846    64.948846    64.948846     101.4011    96.358359    15991.625    136.12392    16286.771    71.721021    484.82576   -54622.736    204.96319 
    6250    64.951467    64.951467    64.951467   -12.139176   -33.221793    16258.867    15.947459    16277.812   -19.143193    484.72072   -54621.307    205.17637 
    6300    64.954438    64.954438    64.954438    -48.92492   -66.028088    16281.563   -73.103334    15754.839   -7.6433381    484.61891   -54618.545    204.75341 
    6350    64.953536    64.953536    64.953536   -70.277798   -71.175085    16237.755   -30.213583    16221.082   -109.44473    484.55006   -54619.706     206.1864 
    6400    64.949736    64.949736    64.949736    103.05567    55.216393    16167.985    171.97203    16206.308    81.978582    484.87623   -54617.148    205.86201 
    6450    64.951892    64.951892    64.951892     89.43345    88.042117    16235.193     58.11642    16322.761    122.14181    484.78542   -54612.898    204.73224 
    6500     64.95675     64.95675     64.95675   -127.71656   -191.02107    16130.446   -79.245796     16629.25   -112.88282    484.49438   -54618.012    208.03112 
    6550     64.95488     64.95488     64.95488   -17.551408    60.709933    16479.696   -80.943872    15967.999   -32.420284    484.59629    -54612.65    206.37744 
    6600    64.951841    64.951841    64.951841    90.972512    71.266448    16422.765    132.80256    16814.577    68.848532     484.8182   -54616.538    209.09467 
    6650    64.954099    64.954099    64.954099    41.757368     106.6738     16224.13    9.7146118    16127.551    8.8836966    484.70486   -54609.603    206.69332 
    6700    64.958015    64.958015    64.958015   -116.22734   -153.42225    16507.993   -76.616182    16445.089   -118.64358    484.47197   -54611.408    208.42506 
    6750    64.955624    64.955624    64.955624    23.155986    45.882826    16259.124    72.588369    16646.968   -49.003237    484.68684    -54607.86    207.62494 
    6800    64.953303    64.953303    64.953303    85.918223    81.856804    16557.918    65.477807    16815.051    110.42006    484.74818   -54610.555    209.77512 
    6850    64.955954    64.955954    64.955954     22.26937    81.092069    16634.911     22.04334    16714.611   -36.327298    484.57283   -54610.298    210.53078 
    6900    64.959266    64.959266    64.959266   -68.929974   -8.9623161    16625.762   -54.435277    16457.503   -143.39233    484.49146   -54606.804    209.75419 
    6950    64.957736    64.957736    64.957736   -50.106943   -43.828659    16637.604   -49.204783    16706.384   -57.287388    484.65643   -54607.424    210.91535 
    7000    64.955119    64.955119    64.955119    66.106542    126.84725    16816.787    42.835122    16753.557    28.637257    484.88782   -54608.173    212.14154 
    7050    64.957113    64.957113    64.957113    14.178771   -10.531493     16795.23     12.91696    16848.704    40.150847    484.70307   -54605.028    211.52693 
    7100    64.960167    64.960167    64.960167   -72.807998    36.591937    16724.663   -62.916229    16792.458    -192.0997    484.47632   -54604.558    212.17661 
    7150    64.959254    64.959254    64.959254   -61.602376   -64.900808    16769.084   -59.364545    17030.078   -60.541776    484.52452    -54604.23    212.89088 
    7200    64.956254    64.956254    64.956254    123.54552    172.55629     16742.03     125.6326    16871.101    72.447667    484.73432   -54601.514    212.47574 
    7250    64.958404    64.958404    64.958404    58.923703    30.988235     16838.87     80.87632    16803.114    64.906554    484.70486   -54599.125    212.21684 
    7300     64.96229     64.96229     64.96229   -98.770076   -20.970111    16971.782   -83.883167    16784.698   -191.45695    484.52587   -54598.515    212.78935 
    7350    64.960905    64.960905    64.960905   -48.813418   -21.658323    17094.291   -84.170425    16924.869   -40.611506    484.55692   -54599.816    214.26976 
    7400    64.956877    64.956877    64.956877    126.33988    165.69152    17027.028    122.38108    17027.627    90.947045    484.69031   -54598.449    214.48916 
    7450    64.958832    64.958832    64.958832    79.562026    94.172815    16988.477    126.77827    17085.588     17.73499    484.48649   -54598.011    215.14879 
    7500    64.963965    64.963965    64.963965   -108.14718   -122.40196    17010.938   -97.702153    17116.125   -104.33742     484.3883   -54597.667    215.84659 
    7550    64.963119    64.963119    64.963119   -66.917066   -123.84621    17246.448   -11.914177    17404.521    -64.99081    484.55195   -54595.285    215.57796 
    7600    64.959538    64.959538    64.959538    66.182822    80.537476    17322.015    50.738374    17132.238    67.272616    484.74429   -54596.151    216.84442 
    7650    64.960724    64.960724    64.960724    30.184446    76.181654    17512.962    58.596622     17234.63   -44.224938    484.59425   -54597.493    218.33962 
    7700    64.965031    64.965031    64.965031   -87.136511   -135.67695    17453.343   -49.067053    17550.074   -76.665531     484.3483   -54597.068    218.99381 
    7750    64.964941    64.964941    64.964941   -67.829257    -4.551791    17264.367   -93.850641    17388.369   -105.08534    484.44624   -54593.181    218.01912 
    7800    64.961087    64.961087    64.961087    59.084462     53.88425    17409.274    105.96377    17414.691    17.405367    484.66809   -54591.383    218.02061 
    7850    64.961408    64.961408    64.961408    129.13434    169.10718    17478.348    154.37631    17324.455     63.91953    484.68735   -54587.815    217.18921 
    7900    64.966644    64.966644    64.966644      -90.527   -56.006322    16988.476   -34.951149    17412.941   -180.62353    484.32193   -54587.053    217.68133 
    7950    64.966919    64.966919    64.966919   -106.88551   -126.67168    17519.494   -59.131279    17688.044   -134.85356    484.32291   -54590.838     220.3208 
    8000    64.962108    64.962108    64.962108    111.30662    192.95032    17252.423    144.78495    17352.879   -3.8154213     484.6189   -54584.225    218.04898 
    8050    64.962706    64.962706    64.962706    99.051536    146.13755    17668.308    31.099086    17463.741    119.91797    484.63196   -54586.072    219.76756 
    8100    64.968171    64.968171    64.968171   -78.427309   -51.945627    17522.802   -80.759501    17512.201    -102.5768    484.30972   -54587.298    221.19468 
    8150    64.968537    64.968537    64.968537   -64.178991   -81.912039    17489.307   -74.911226     17345.03   -35.713707    484.32866   -54582.599    219.82427 
    8200    64.964494    64.964494    64.964494    92.104704    173.93919     17643.21    107.63883     17426.29   -5.2639033    484.45762   -54583.665    221.16941 
    8250    64.964833    64.964833    64.964833    72.410089    66.179221    17788.224    1.3851638    17612.987    149.66588    484.51111    -54585.43    222.84712 
    8300    64.969376    64.969376    64.969376   -64.261577   -68.923488    17501.421   -50.459042    17691.811     -73.4022     484.2506    -54581.63    221.89378 
    8350    64.970168    64.970168    64.970168   -91.435831   -156.98243    17672.425   -62.571213    18231.967   -54.753852    484.29127   -54585.327    224.48301 
    8400    64.966525    64.966525    64.966525    51.258428    37.938134    17672.332    70.480926    17722.522    45.356225    484.45402   -54581.554    223.53664 
    8450    64.966323    64.966323    64.966323    82.221508    74.386881    17495.486    114.87324    17790.074    57.404405    484.51436   -54577.714    222.55921 
    8500    64.970463    64.970463    64.970463   -48.225571   -25.721192    17654.072   -60.380883    17686.962   -58.574638    484.30528   -54575.849    222.51476 
    8550    64.970816    64.970816    64.970816   -93.884933   -54.857474     18125.69   -160.51152    17836.411   -66.285807    484.27872   -54578.427    224.57104 
    8600    64.967101    64.967101    64.967101    139.11742    146.86257    17803.654    194.69844    18097.725    75.791238    484.44914   -54576.432    224.46243 
    8650    64.969173    64.969173    64.969173    3.1483363    28.738074     18086.29   -56.235821    17795.145    36.942755    484.40633   -54575.691    224.94696 
    8700    64.971854    64.971854    64.971854     -68.7698   -116.10651    18262.045   -5.0011582    18461.275   -85.201734    484.22891   -54579.878    227.75265 
    8750    64.971904    64.971904    64.971904   -67.182553   -63.197209    18010.826    -24.01635    18123.661    -114.3341    484.24587   -54576.258    226.87008 
    8800    64.970052    64.970052    64.970052    79.438675    90.911273    17958.851    91.163107    18005.798    56.241646    484.34892   -54570.121    224.79881 
    8850     64.97149     64.97149     64.97149     13.22576    14.066215    17820.709   -14.538886    17791.626    40.149952    484.38322   -54570.592    225.84808 
    8900    64.972718    64.972718    64.972718   -3.9891204    38.631298    18032.303    21.238026    17935.545   -71.836685    484.22033    -54570.84    226.79338 
    8950    64.972266    64.972266    64.972266    35.810372     99.50172    17939.166   -8.2466299    17874.982    16.176028    484.21174   -54569.553    227.00837 
    9000    64.972546    64.972546    64.972546    10.151834    16.591347    18280.412    46.671421    18269.526   -32.807265    484.20008   -54569.906    227.99736 
    9050    64.973538    64.973538    64.973538   -61.331172   -61.403107    18156.208   -116.17613    18394.809    -6.414278    484.23998   -54571.658    229.64311 
    9100    64.972912    64.972912    64.972912    41.898657    84.868777    18460.499    25.581862    18249.629    15.245331    484.28037   -54568.546    228.99296 
    9150    64.974044    64.974044    64.974044   -12.475464   -97.500023    18348.627    45.822851    18419.635    14.250781    484.25188   -54570.802    230.87494 
    9200    64.975684    64.975684    64.975684   -42.705464   -51.891086    18401.945   -11.814993    18357.297   -64.410313    484.14472   -54567.291    230.03132 
    9250    64.974964    64.974964    64.974964    13.672826    13.271093     18357.87    31.793723    18188.162   -4.0463388    484.16635   -54563.834    229.21413 
    9300    64.974192    64.974192    64.974192    59.414045    87.404883    18365.135     25.10489    18169.595    65.732361    484.24352   -54562.266    229.28623 
    9350    64.975523    64.975523    64.975523    1.2853101   -81.530516     18653.11    32.034216    18713.586     53.35223    484.24231   -54565.811     231.7696 
    9400    64.977052    64.977052    64.977052   -96.691083    -72.77632    18479.095   -117.53051    18724.581   -99.766422    484.12754   -54567.915    233.56933 
    9450    64.975363    64.975363    64.975363    27.965824   -29.616366    18679.544    64.292913    18576.982    49.220926    484.25311   -54560.836    231.03533 
    9500    64.975278    64.975278    64.975278    32.875849    67.225627    18406.097    13.100999    18515.773    18.300919    484.18952   -54561.184    232.00474 
    9550    64.976509    64.976509    64.976509   -20.744073   -20.538339    18588.904   -47.177451    18300.126    5.4835722    484.20459   -54559.204    231.87811 
    9600    64.976106    64.976106    64.976106    94.425025    139.05742    18574.852    92.319146    18306.112    51.898514    484.24358   -54554.641    230.52469 
    9650    64.977299    64.977299    64.977299   -19.565453   -94.840849    18584.117    38.464319    18947.981   -2.3198294    484.15337   -54560.418    234.05496 
    9700    64.977223    64.977223    64.977223    34.853728    79.358394    18537.775    12.645233    18549.758    12.557556    484.15881   -54553.728    231.68887 
    9750    64.978038    64.978038    64.978038   -90.959678   -72.711863     18954.27   -31.803723    18802.833   -168.36345    484.12859   -54563.486    237.09357 
    9800    64.977173    64.977173    64.977173    60.245875    96.567211    18740.416   -10.065643    18746.305    94.236056    484.23463   -54553.737    233.28502 
    9850    64.978769    64.978769    64.978769    -9.645999   -45.986779    18651.162     9.149433    18954.055    7.8993487    484.17756   -54557.067    235.65541 
    9900    64.979198    64.979198    64.979198   -33.031717    29.656642     18423.96   -11.812585    18724.911   -116.93921    484.10073   -54552.233    234.16254 
    9950    64.978203    64.978203    64.978203    62.554349    16.910739     18646.83    62.837329    19202.352    107.91498    484.15104   -54555.542    236.51703 
   10000     64.97967     64.97967     64.97967    31.828521    56.100761    18683.596    75.800805    18743.493   -36.416003    484.10764   -54551.297    235.29757 
   10050    64.981801    64.981801    64.981801   -52.862736     14.21204    19080.106   -114.62243    18989.938   -58.177815    484.01343    -54552.58    236.69116 
   10100    64.981127    64.981127    64.981127   -12.936916   -49.443328    18995.872    34.965438     18948.33   -24.332858     484.0667   -54551.557    236.99104 
   10150    64.979724    64.979724    64.979724    54.970747    75.030374    19124.745    47.061192    18990.974    42.820674    484.20778   -54550.064    237.06794 
   10200    64.981265    64.981265    64.981265     15.46661    30.561794    18937.105    15.262408    19137.215    0.5756263    484.10168   -54550.181    237.90143 
   10250    64.983122    64.983122    64.983122   -48.827105    19.773997    19048.196   -134.98479    18921.297   -31.270521    484.06843   -54548.946    238.09972 
   10300    64.983042    64.983042    64.983042    -5.738439   -93.184018    19090.685      11.4012    19132.025    64.567501    484.05725   -54546.775    237.84975 
   10350    64.982695    64.982695    64.982695   -16.447721    20.734412    19047.543   -14.374482    19217.915   -55.703094    484.11945   -54549.214    239.77832 
   10400     64.98193     64.98193     64.98193    54.517596    44.392774    19005.003    31.337576    18919.701    87.822437     484.1238   -54544.677    238.40927 
   10450    64.983325    64.983325    64.983325   -23.488735    85.134561    19393.719   -64.258372    19374.814   -91.342393    484.07124   -54547.768    240.64172 
   10500    64.984392    64.984392    64.984392   -30.345218   -61.109625    19234.016   -5.4884357     19260.58   -24.437593    483.98993   -54547.327    241.20175 
   10550    64.984294    64.984294    64.984294   -3.9050019   -31.725595    19335.891    34.458399    19352.883    -14.44781    483.92618   -54543.044    239.94717 
   10600     64.98362     64.98362     64.98362    73.639837    140.05109    19161.017    51.583083    19025.396    29.285341    484.07094   -54540.571    239.54237 
   10650    64.985282    64.985282    64.985282   -58.570514   -96.819563    19545.202   -92.205685     19268.63    13.313707    484.03751   -54543.497    241.68466 
   10700    64.985165    64.985165    64.985165    17.885728    108.46209    19300.367    26.070146    19492.089   -80.875056    483.99832   -54540.428     240.9996 
   10750    64.985316    64.985316    64.985316    8.2171452   -42.606569    19323.027    12.852897     19387.44    54.405107     484.0632    -54541.11    242.07905 
   10800    64.984934    64.984934    64.984934     32.75143    72.411197    19196.683     5.224387    19149.119    20.618707    484.02914   -54537.746    241.25126 
   10850    64.985818    64.985818    64.985818  -0.72907572    22.929291     19513.72    8.0845054    19614.519   -33.201023    483.94519   -54539.805    242.97649 
   10900    64.987016    64.987016    64.987016   -27.648872    13.052593    19543.306   -72.590281    19664.118   -23.408929    483.97769   -54538.878    243.29431 
   10950    64.986831    64.986831    64.986831   -64.524437   -59.257222    19654.492   -55.407794    19910.117   -78.908294    484.03605   -54539.473    244.32358 
   11000     64.98556     64.98556     64.98556    75.421983    140.82559    19913.687    47.409159    19467.183    38.031202    484.02202   -54538.659    244.68781 
   11050    64.987078    64.987078    64.987078   -9.6118611    48.781073    19392.186   -23.345128    19450.757   -54.271529    483.94565    -54534.81    243.61813 
   11100    64.988415    64.988415    64.988415    7.6343537    6.2778872    19903.066   -10.756686    19768.369     27.38186    483.95815   -54532.112    243.08659 
   11150    64.988464    64.988464    64.988464    -14.28932    4.2676763    19720.119   -32.421669     19658.73   -14.713968    483.96899   -54532.926    244.21383 
   11200    64.988042    64.988042    64.988042   -13.729977    49.181478    19947.059   -41.223785    19832.942   -49.147623    484.02038   -54536.763    246.76628 
   11250    64.988561    64.988561    64.988561   0.92007872    37.187587    19628.945     27.15017    19642.019    -61.57752    484.02582   -54533.341    245.89191 
   11300    64.989519    64.989519    64.989519   -2.7644211    38.384863    19963.449    13.273778     19649.65   -59.951904    483.95738   -54532.188    246.08206 
   11350    64.990476    64.990476    64.990476    -41.42969   0.78071385    19789.532   -79.974049     19795.55   -45.095734    483.84625   -54531.696    246.58568 
   11400    64.989317    64.989317    64.989317    17.859973   0.31705247    19830.983    72.940344    20027.441   -19.677476    483.90481    -54531.55    247.24941 
   11450    64.988663    64.988663    64.988663    77.058992    3.3363355    19875.396    51.023486    19622.799    176.81715    483.97746   -54526.938    245.80222 
   11500    64.990973    64.990973    64.990973   -66.176701   -37.080124    20032.638   -24.077929     19994.67   -137.37205    483.97519   -54532.693    249.24502 
   11550    64.991348    64.991348    64.991348     38.27498    -29.22673    19850.843    47.630922    19958.434    96.420747    483.99927   -54523.445     245.6005 
   11600    64.992424    64.992424    64.992424   -60.605003   -9.3494211    20019.145   -46.603818    20131.431   -125.86177    483.79774   -54531.507    250.13245 
   11650    64.990945    64.990945    64.990945    75.478384    136.49148    19693.001    64.770155    19699.386    25.173514    483.87785   -54523.209    246.93655 
   11700    64.991579    64.991579    64.991579    -56.73892   -76.894686    20318.326   -14.117386    20225.781   -79.204688     483.8355   -54528.913    250.35039 
   11750    64.991141    64.991141    64.991141    90.001387    84.196661    20366.974    60.618181    20271.872    125.18932    484.03268   -54522.336    247.95994 
   11800    64.993062    64.993062    64.993062    -57.16093   -86.173468    20178.831    1.5196547    20150.107   -86.828978     483.8725   -54523.312    249.13309 
   11850    64.992282    64.992282    64.992282   -6.4051942    37.997356    20028.584   -39.256087    20241.954   -17.956852    483.90226   -54524.953    250.62454 
   11900     64.99049     64.99049     64.99049    113.86902    164.97168    19988.096    157.80959    19716.101    18.825784    483.94959   -54520.135    249.05591 
   11950    64.993815    64.993815    64.993815   -38.693103    23.610862    20421.314   -29.998811     20208.35   -109.69136    483.86152   -54525.197    252.15287 
   12000    64.996279    64.996279    64.996279   -105.67284   -73.673109    20373.207    -70.38373    20070.397   -172.96168    483.71717   -54523.036     251.8378 
   12050      64.9938      64.9938      64.9938   -15.384944   -14.347939    20475.312   -16.477556    20525.614   -15.329337    483.91128   -54521.514    251.82233 
   12100    64.992187    64.992187    64.992187    87.259225    154.53453    20511.648    127.87434     20187.67   -20.631194    483.94561   -54519.814    251.71878 
   12150     64.99532     64.99532     64.99532   -29.226165   -63.511866    20322.698    33.361385    20392.313   -57.528014    483.79983   -54520.847     252.9091 
   12200    64.997238    64.997238    64.997238   -107.13491   -47.785506    20400.778   -141.26296    20541.477   -132.35626    483.69589   -54518.816      252.645 
   12250    64.994406    64.994406    64.994406    21.763478    31.438239    20506.565    60.500877    20641.966   -26.648683    483.85223   -54520.074     253.9338 
   12300    64.993308    64.993308    64.993308    44.872048    67.109629    20226.988    83.098465    20733.479    -15.59195    483.92548   -54518.065    253.67531 
   12350    64.996035    64.996035    64.996035     17.94731    42.039793    20236.057    103.86669     20232.12   -92.064551    483.75103   -54514.093    252.48595 
   12400     64.99859     64.99859     64.99859   -96.427861    -60.75979    20464.392   -54.764982    20762.542   -173.75881    483.65687   -54518.575    255.29035 
   12450    64.996965    64.996965    64.996965   -35.367795   -15.157564    20805.505    -20.06903    20844.095   -70.876791    483.79028   -54515.814    254.66939 
   12500     64.99502     64.99502     64.99502    46.527335    100.69795    20818.535   -7.8554605    20504.379    46.739519    483.94662   -54515.351    255.13318 
   12550     64.99663     64.99663     64.99663    10.488067   -9.6800399    20379.066    68.052841     20580.12   -26.908599    483.77071   -54512.474    254.45546 
   12600    64.998752    64.998752    64.998752   -21.346799    70.919178    20729.658   -76.857179    20438.027   -58.102396    483.75598   -54513.127    255.44341 
   12650     64.99881     64.99881     64.99881    -47.97853   -67.125829    20665.898   -32.988068    20635.733   -43.821693    483.71491   -54510.326    254.79481 
   12700    64.996559    64.996559    64.996559     17.99128    23.333446    20656.518   -11.057725    20718.925    41.698119    483.85293   -54511.652    256.09193 
   12750    64.996803    64.996803    64.996803    71.864473    136.99288    20608.091    50.966505    20891.487    27.634031    483.80233   -54511.964    256.90743 
   12800    65.000501    65.000501    65.000501   -84.067739    3.2954419     20636.55   -125.78042    20645.124   -129.71824    483.55387   -54511.625    257.41836 
   12850    65.000385    65.000385    65.000385   -103.79042   -76.363219    20743.441   -84.208979    20950.717   -150.79907    483.64492   -54509.999    257.31219 
   12900    64.997288    64.997288    64.997288    102.89599    149.97672    20943.256    80.143802    20549.708    78.567438    483.81189   -54508.286    257.16696 
   12950    64.998857    64.998857    64.998857    8.1198202    33.073775    20860.689    10.227067    20939.416   -18.941381    483.80933   -54509.863    258.57239 
   13000    65.001336    65.001336    65.001336     4.148757    50.896081    20702.019   -11.761826    20743.893   -26.687984    483.74249   -54499.798     254.4752 
   13050    65.001213    65.001213    65.001213   -67.543318   -63.408973    21211.003   -68.435593    20936.164    -70.78539    483.68429   -54512.052    260.91953 
   13100    64.999437    64.999437    64.999437    63.374919    18.860217    20637.147    141.22191     20949.53    30.042625    483.80853   -54502.337    256.98134 
   13150    65.001316    65.001316    65.001316    3.0805994    87.551328    21285.645   -47.383658     20790.15   -30.925872    483.65422   -54506.677    259.68345 
   13200    65.003166    65.003166    65.003166   -68.636709   -96.357817    21011.204    -16.01032    21055.634    -93.54199    483.57659   -54504.828    259.45868 
   13250    65.001479    65.001479    65.001479    32.653645    37.521556    21033.806   -16.549132    21144.625    76.988512    483.67603   -54501.264    258.42198 
   13300    65.000468    65.000468    65.000468    76.767082    116.47616    20969.191    106.00672     20741.19    7.8183692    483.70494   -54500.986    258.93216 
   13350    65.002986    65.002986    65.002986   -21.808471   -54.704772    20998.137    15.346278    21128.393    -26.06692    483.63229   -54502.687    260.37581 
   13400     65.00484     65.00484     65.00484   -92.323788   -39.295602    21165.693   -196.96892    21173.327   -40.706841    483.52525   -54502.463    260.90699 
   13450    65.003178    65.003178    65.003178    1.2517954     -52.6411    20805.578    125.13733    20895.944   -68.740845    483.55597   -54500.886    260.79843 
   13500    65.000974    65.000974    65.000974    50.716371    148.11696    21358.297   -137.30827    21169.384    141.34043    483.76434    -54501.01     261.4921 
   13550    65.002346    65.002346    65.002346    2.1239661   -47.708913    21014.244    101.42617    21297.002   -47.345358    483.69626   -54500.878    262.05624 
   13600    65.004985    65.004985    65.004985   -20.253338   -22.755128    21105.219   -63.920124    20981.499    25.915238    483.55789   -54496.681    260.70149 
   13650    65.005226    65.005226    65.005226   -87.526899    16.806257    20908.935   -146.15456    21403.921   -133.23239    483.55511   -54501.464    263.58346 
   13700    65.002632    65.002632    65.002632    100.30422    50.569336    20814.764    141.16147    21213.913    109.18186    483.69905    -54494.08     260.7215 
   13750    65.003402    65.003402    65.003402    53.458132    80.512855    21211.267    38.585107    21086.641    41.276434    483.61732   -54497.219    262.82535 
   13800    65.006493    65.006493    65.006493   -76.420954   -104.70327    21344.035   -42.275807    21393.675   -82.283784    483.52209   -54496.528    263.11273 
   13850    65.006436    65.006436    65.006436   -32.329149   -53.062222    21168.444   -39.602029    21537.994   -4.3231964    483.55272   -54494.241    262.64509 
   13900    65.004981    65.004981    65.004981   -53.916576    1.3022331     21268.25     -67.4361    22073.249   -95.615861    483.62901   -54499.937    265.94582 
   13950    65.004154    65.004154    65.004154    77.906495    80.087439    21156.747     65.18167    21556.045    88.450376    483.67134   -54493.826    263.67168 
   14000    65.007407    65.007407    65.007407   -54.849822    60.869217    21649.122    -75.98163    21482.667   -149.43705    483.44794   -54493.804    264.26642 
   14050    65.008317    65.008317    65.008317   -82.389115   -137.87714    21553.571   -10.521322    21797.382   -98.768883    483.52192   -54495.404    265.62948 
   14100    65.005065    65.005065    65.005065    95.948196    170.79844    21572.588   -9.6166365    21419.211    126.66278    483.71281   -54486.898    262.21159 
   14150    65.005911    65.005911    65.005911    22.082133    11.546444     21535.84    75.970525    21457.734   -21.270569    483.67423   -54491.383    264.92977 
   14200    65.007937    65.007937    65.007937    -58.42636   -48.734901    21649.336   -53.355011     21805.14   -73.189167    483.53579    -54493.35    266.45756 
   14250    65.007679    65.007679    65.007679   -16.233876    41.610205    21617.385   -20.009525    21505.071   -70.302309    483.47053   -54491.672     266.2579 
   14300    65.006925    65.006925    65.006925   -10.505199   -65.579534     21474.45    40.409526    21684.033    -6.345588    483.60134   -54490.655    266.36794 
   14350     65.00673     65.00673     65.00673    49.075549    142.86479    21706.802   -19.692486    21364.249    24.054345    483.58486   -54488.047    265.72215 
   14400    65.007994    65.007994    65.007994    16.710179   -15.138417    21236.246    68.778712    21329.597   -3.5097587    483.52989   -54484.438    264.60465 
   14450     65.00909     65.00909     65.00909    -43.69426    59.878317    21617.087   -64.010641    21864.952   -126.95046    483.54635   -54488.473     267.0934 
   14500    65.007568    65.007568    65.007568   -10.921023    2.7990137    21636.968    -23.74924    21751.468   -11.812844    483.63691   -54488.713    267.78771 
   14550     65.00719     65.00719     65.00719    3.3504138    35.229775    21998.609   -52.289683    22321.665    27.111149    483.59846   -54493.302    270.53229 
   14600    65.009272    65.009272    65.009272   -15.108985    15.452593     21655.84    22.641124    21902.702   -83.420671    483.41252   -54486.244    267.77634 
   14650    65.010254    65.010254    65.010254   -91.752327   -112.91136    21845.966   -12.490619    22121.499     -149.855    483.47481   -54489.729    269.99201 
   14700    65.008623    65.008623    65.008623    85.935015    103.89113    21635.452    114.02415    22115.432    39.889762     483.5216   -54482.595    267.18902 
   14750    65.010609    65.010609    65.010609   -10.552316   -25.817004    21554.269   -7.4034931    22167.251    1.5635486    483.49487   -54484.105    268.46838 
   14800    65.011172    65.011172    65.011172   -47.559096   -54.341083    21836.594   -36.163334     21858.78   -52.172872     483.4636   -54480.067    267.12621 
   14850    65.009108    65.009108    65.009108    54.944294    89.664882    21586.557    58.201578    21980.774    16.966422    483.56951   -54481.505    268.36541 
   14900    65.009679    65.009679    65.009679    26.792246    3.1491432    21576.193    3.1822088    21748.516    74.045387     483.4464   -54484.666    270.42309 
   14950    65.011485    65.011485    65.011485     -1.65824    22.471889     21946.08   -38.017178     22086.94    10.570569    483.42319   -54482.398    269.90664 
   15000    65.013386    65.013386    65.013386   -138.37133    -245.5056    21861.738   -95.591916    22637.499   -74.016473    483.38128   -54483.589    271.02236 
   15050    65.010453    65.010453    65.010453    45.442243    69.425153    21987.797   -22.447442    21820.884    89.349019    483.51242   -54479.846    269.80891 
   15100    65.008626    65.008626    65.008626    171.93128     184.4324    21559.173    223.31028    21745.329    108.05117    483.59451   -54474.735    267.94472 
   15150    65.012947    65.012947    65.012947   -62.118027    31.027039    21984.987   -110.53104    22241.416   -106.85008    483.34123   -54480.106    271.02554 
   15200     65.01491     65.01491     65.01491   -66.311121   -84.115941    22229.731   -60.521713    22105.155   -54.295709    483.19527   -54480.086    271.55623 
   15250    65.013048    65.013048    65.013048   -58.251712   -25.907238    22037.765    -153.8837    22276.567    5.0358001    483.44114   -54480.336    272.21323 
   15300     65.01022     65.01022     65.01022    107.10497      37.3931      21756.9    172.90603    21957.662     111.0158    483.56182   -54476.409    270.89648 
   15350    65.013048    65.013048    65.013048    6.9630288    22.901903    21924.294    75.518397    21998.228   -77.531213    483.33329   -54475.588    271.04423 
   15400    65.015961    65.015961    65.015961   -120.74608   -133.19286     22166.74     -44.9016    22393.311   -184.14377    483.19453   -54478.254    272.83791 
   15450    65.012506    65.012506    65.012506    62.279189    110.93293    22105.846    79.757232    22036.345   -3.8525983    483.45106   -54473.458    271.10258 
   15500    65.011012    65.011012    65.011012    32.563301    51.581586    22221.835    55.233134    21986.226    -9.124819    483.52332   -54478.992    274.24166 
   15550    65.012798    65.012798    65.012798    38.679001    28.254017    22041.168   -31.997597     21780.93    119.78058    483.36469   -54472.023    271.47045 
   15600    65.015475    65.015475    65.015475   -113.00022   -43.503041    22569.715   -86.961572    22277.628   -208.53606    483.30161   -54479.229    275.39123 
   15650    65.013988    65.013988    65.013988    33.516209   -38.392273     21852.19    126.62597    22116.119    12.314932     483.4384   -54470.365    271.72068 
   15700    65.013892    65.013892    65.013892   -12.483284    11.545993    22426.618   -3.2541272    22428.449   -45.741718    483.36469   -54475.236    274.53773 
   15750    65.014695    65.014695    65.014695   -6.2480269   -50.028596    22156.214      86.6567    22299.733   -55.372184    483.27283   -54475.806    275.32212 
   15800    65.015646    65.015646    65.015646   -2.5484339    22.841249    22249.069   -24.440238     21758.38    -6.046313    483.35662   -54467.724    272.01642 
   15850    65.015739    65.015739    65.015739    1.7944996    -18.91172    22413.031    72.310908    22195.298   -48.015689    483.33242   -54470.857    274.00323 
   15900    65.015554    65.015554    65.015554   -22.324492    42.314653    22721.219   -46.172967    22185.177   -63.115161    483.28962   -54473.953    275.97205 
   15950    65.015689    65.015689    65.015689    6.6346471   -59.165953    22088.821    86.173101     22360.78   -7.1032074    483.33164   -54472.437    275.75768 
   16000    65.017294    65.017294    65.017294   -56.727692    7.0934448     22263.15      33.9819    22364.953   -211.25842    483.22714   -54473.437    276.72743 
   16050    65.017123    65.017123    65.017123   -5.0597154   -79.497209    22029.846    97.820092    22362.588   -33.502029    483.23027   -54467.162    274.26088 
   16100    65.015248    65.015248    65.015248    41.651353     4.521986    22302.011     90.75755    22410.116    29.674523    483.38733   -54468.167    275.22757 
   16150      65.0158      65.0158      65.0158     70.35859    117.00293    22248.696    52.631225    22113.584    41.441612    483.36164   -54469.126    276.16838 
   16200    65.019601    65.019601    65.019601   -52.930759   -85.384887    22136.758    80.048282    22239.065   -153.45567    483.10229   -54463.959    274.21704 
   16250    65.019243    65.019243    65.019243   -36.847298    89.317408    22407.273   -141.29634    22650.053   -58.562959    483.16887   -54466.691    275.99277 
   16300    65.015942    65.015942    65.015942    37.740344    59.871175     22248.01    118.66012    22704.375    -65.31026    483.43003   -54468.963     277.5491 
   16350    65.015859    65.015859    65.015859    25.590161    19.363696    22916.596    48.932505    22938.111    8.4742814    483.42044   -54470.586    278.79459 
   16400    65.019289    65.019289    65.019289   -36.130788   -30.778719    22500.831   -22.302117    22555.758   -55.311528    483.24365   -54465.101    276.68149 
   16450    65.019655    65.019655    65.019655   -51.876899    21.975224    22523.728   -37.736349    22363.907   -139.86957    483.14183   -54464.084    276.67642 
   16500    65.016357    65.016357    65.016357    53.143815   -32.704092    22389.804    112.16924    22427.804    79.966299    483.34982   -54465.108    277.62941 
   16550    65.016166    65.016166    65.016166    53.266236    92.772185    22532.035     125.1644    22867.238   -58.137875    483.34861   -54465.601     278.3304 
   16600    65.019552    65.019552    65.019552   -43.767156    -83.60245     22520.82   -39.139157    22850.554   -8.5598615    483.18425   -54464.971    278.49631 
   16650    65.021155    65.021155    65.021155    -105.7246   -102.60175    22449.508   -121.21079    22942.521    -93.36126    483.12142   -54465.836     279.3687 
   16700    65.018198    65.018198    65.018198    1.1595646    32.816794    22307.188   0.81236229    22619.988   -30.150462    483.23891   -54463.255     278.6116 
   16750    65.016691    65.016691    65.016691    114.15962    128.41353     22223.27    201.63827    22398.585     12.42704    483.29977   -54460.817    277.91766 
   16800    65.020568    65.020568    65.020568   -27.240336   -30.322576    22507.976   -32.303891    22737.697    -19.09454    483.20124   -54460.945    278.43255 
   16850    65.021841    65.021841    65.021841   -64.657536    3.4651342    22577.873   -154.27829    22178.937   -43.159447    483.06553   -54459.184    278.05516 
   16900    65.018923    65.018923    65.018923    31.536944    28.778775    22394.463    80.439998    22769.121   -14.607942    483.20374   -54462.847    280.23138 
   16950    65.018714    65.018714    65.018714    15.449823    41.991716    22793.746    66.823474    23054.241    -62.46572    483.32397   -54464.573    281.49096 
   17000    65.021634    65.021634    65.021634   -63.182172   -96.269591    22658.055   -45.908221    23109.474   -47.368703     483.1729   -54460.865    280.18194 
   17050    65.022022    65.022022    65.022022   -16.494168     25.14977    22917.129   -37.266088    22643.141   -37.366184    483.09411   -54457.345     278.9623 
   17100    65.020008    65.020008    65.020008    56.617963    28.223817    22302.436     90.17647    22757.879    51.453603     483.2076   -54456.888    279.18476 
   17150    65.020185    65.020185    65.020185    28.324724    6.0551605     22860.17    42.956623    22705.641    35.962388    483.26061   -54458.833    280.54062 
   17200    65.021797    65.021797    65.021797    8.6741434   -20.626293     23204.96    68.754095    22912.545   -22.105372    483.20392   -54459.035    281.06904 
   17250    65.023447    65.023447    65.023447   -71.032762   -119.17381    22862.814   -83.733662     23052.57   -10.190813    483.19195   -54455.991    280.06118 
   17300    65.021845    65.021845    65.021845   -5.6163435    54.636653    23315.809    7.3550402    22753.566   -78.840723    483.22904   -54456.984    280.96098 
   17350     65.02034     65.02034     65.02034    88.800759    32.341657    22832.975     115.5278    22887.199    118.53282    483.21583   -54458.764    282.22728 
   17400    65.023046    65.023046    65.023046   -5.7676901      48.9984    23127.611   -23.567438    22939.031   -42.734032    483.11224   -54455.673    281.18768 
   17450    65.024608    65.024608    65.024608   -41.019949   -83.642371    22744.735   -29.417055    23024.258   -10.000421    483.03289    -54453.27     280.4691 
   17500     65.02279     65.02279     65.02279   -52.294393    -33.37452    23194.889    -29.87695    22735.327   -93.631709    483.15576   -54458.585    283.39456 
   17550    65.020522    65.020522    65.020522    74.425778    45.614875    23068.893    138.54904    23115.349    39.113422    483.28728   -54455.654    282.42222 
   17600    65.023053    65.023053    65.023053   -3.0265697     14.29652    23075.548    41.061451    22857.469    -64.43768    483.17916   -54455.987    282.99059 
   17650    65.026162    65.026162    65.026162   -61.866777    41.605945    23630.789   -121.00946    23042.676   -106.19681    483.10409       -54455    282.93211 
   17700    65.025161    65.025161    65.025161   -70.109818    -100.8315    23201.757   -34.257856     23604.83   -75.240099    483.15668   -54454.496    283.09927 
   17750    65.020543    65.020543    65.020543    140.04881    88.171814     22677.07    192.11292    23071.835    139.86169    483.27166   -54448.636    280.73391 
   17800    65.022824    65.022824    65.022824    80.183471    156.23188    23198.463    166.11584    22617.919   -81.797306    483.12141   -54453.477    283.42088 
   17850    65.028151    65.028151    65.028151   -132.35297   -109.85814    23176.263   -77.842986    23189.095    -209.3578    482.96899   -54453.098    283.64068 
   17900    65.026241    65.026241    65.026241   -87.127413   -77.685703    23306.971   -75.027213    23352.513   -108.66932    483.06309   -54452.402    283.70515 
   17950    65.021543    65.021543    65.021543    116.01116    71.111783    23256.593    151.36528    23171.321     125.5564     483.3206   -54452.462    284.12895 
   18000     65.02299     65.02299     65.02299     61.98417    23.133061    23150.223    115.84368     23597.51     46.97577    483.19152   -54451.506    284.06771 
   18050    65.027859    65.027859    65.027859   -73.919943   -95.352754    23062.769   -44.458946     22900.85   -81.948129    482.97887   -54449.265    283.39432 
   18100    65.028024    65.028024    65.028024   -60.713176   -62.679673    22852.574   -31.397564    22823.072   -88.062291    482.97991   -54444.525     281.5406 
   18150    65.023369    65.023369    65.023369    67.603995   -53.219272    22787.334    256.16721    23405.677  -0.13594975    483.18248   -54452.287    285.59055 
   18200    65.022215    65.022215    65.022215    145.00628    159.89843    23196.713    157.81947    22934.153    117.30094    483.29826   -54446.432    283.20416 
   18250    65.027645    65.027645    65.027645   -88.022508   -265.08929     23233.37    31.333697    23649.638   -30.311926    483.01797   -54450.144    285.33106 
   18300    65.028954    65.028954    65.028954   -129.76512   -121.10681    23285.836   -121.47279    23349.294   -146.71577    482.94227   -54448.977    285.15448 
   18350    65.023541    65.023541    65.023541    85.758803    15.691078    23500.299    58.763115    23674.854    182.82222    483.31074   -54448.687    285.38657 
   18400    65.022745    65.022745    65.022745    181.56379    144.12631    23095.541    234.62391    23424.608    165.94114    483.30269   -54444.088    283.57938 
   18450    65.029073    65.029073    65.029073   -81.587504   -131.97725     22893.51    36.422431    23571.621   -149.20769    482.87965    -54444.45    284.11711 
   18500    65.029373    65.029373    65.029373   -121.52831   -203.59236    23212.673    -110.4694    23642.431   -50.523158    482.97271   -54446.534    285.46264 
   18550    65.023478    65.023478    65.023478    101.28445    118.48629    23360.251    124.35305    23526.958    61.014014    483.28591   -54449.156    287.06003 
   18600    65.024011    65.024011    65.024011    90.475821    66.870527     23522.69     100.7094    23649.353    103.84754     483.3074   -54445.476    285.67684 
   18650    65.029994    65.029994    65.029994   -122.35738   -95.539394    23164.299   -113.32187    23314.833   -158.21088    482.89566   -54448.672    287.54479 
   18700    65.029167    65.029167    65.029167    -85.41387   -93.563021    23350.801   -52.934396    23087.327   -109.74419     482.9079   -54444.862    286.09575 
   18750    65.023966    65.023966    65.023966    211.58184    121.20112    23047.379    312.12171    23024.698     201.4227    483.16387   -54438.842    283.60127 
   18800    65.026896    65.026896    65.026896   -39.678954   -53.846292    23433.501    33.453014    23709.618   -98.643583      483.106   -54447.042    287.82196 
   18850    65.029186    65.029186    65.029186   -38.880516   -63.744145    23285.953   -18.875494    23388.885   -34.021909    483.06289   -54438.872    284.30767 
   18900    65.028073    65.028073    65.028073   -42.708723   -7.7674894    23603.212   -1.8684282    23399.521   -118.49025    482.99688   -54446.462    288.23498 
   18950    65.025881    65.025881    65.025881    42.657124    31.453817    23807.448    66.095816     23245.62     30.42174    483.13731   -54443.985    287.40804 
   19000    65.026351    65.026351    65.026351    83.683138    16.639203    23168.098    92.973784      23414.2    141.43643    483.12924   -54441.231    286.44507 
   19050    65.028881    65.028881    65.028881   -51.658857     10.40396    23506.338    50.251398    23608.216   -215.63193    483.00451   -54441.376    286.84831 
   19100    65.028311    65.028311    65.028311    41.221913    16.043851    23535.969   -29.622398    23244.814    137.24429    483.05029    -54441.02    287.00999 
   19150    65.027852    65.027852    65.027852   -8.6468596    100.07615    23499.785    4.1784316    23770.144   -130.19516    483.05291   -54443.582    288.54827 
   19200    65.027285    65.027285    65.027285    55.459995    36.410795    23204.339    53.494068    23090.221    76.475122    482.96808   -54439.278    286.84083 
   19250    65.028375    65.028375    65.028375    -2.927201   -9.9555226    23576.369    80.756045    23902.315   -79.582126    482.95914    -54445.15    289.93614 
   19300    65.029471    65.029471    65.029471    -16.44996    56.504549    23492.041   -3.5225385    23422.475   -102.33189    482.98157   -54437.931     286.8444 
   19350     65.02948     65.02948     65.02948   -34.867856   -66.860949    23717.231    1.8249377    23731.298   -39.567558    482.97226   -54443.179    289.63992 
   19400    65.028254    65.028254    65.028254    28.148038     33.28184    23694.982    121.78608    23962.827   -70.623808    483.02616   -54441.657    289.23683 
   19450    65.029249    65.029249    65.029249    38.340008    92.900866    23358.053    26.105635    23432.371   -3.9864758    483.01542   -54438.554    288.08217 
   19500    65.031395    65.031395    65.031395   -80.909258   -151.12453     23639.81    18.540277    23531.283   -110.14352    482.87975   -54439.463    288.82272 
   19550     65.02912     65.02912     65.02912     9.829913    83.488214    23552.879   -9.0043645    23622.091    -44.99411    483.02734   -54441.624    290.15212 
   19600    65.027718    65.027718    65.027718    120.10155    115.76796    23314.729    156.49847    23699.989    88.038219    483.14903   -54435.555    287.58845 
   19650    65.031458    65.031458    65.031458   -82.804021   -138.63132    23482.994   -9.5392413    23561.457    -100.2415    482.91456   -54438.788    289.41881 
   19700    65.031794    65.031794    65.031794   -95.656151   -79.384203    23346.271   -76.881766    23978.777   -130.70248    482.91078   -54441.463    290.98717 
   19750    65.028369    65.028369    65.028369    67.007249   -18.059074    23737.655     68.70037    23878.642    150.38045    483.17839   -54438.834    290.04609 
   19800     65.02825     65.02825     65.02825    134.21789    250.86213    23717.667    120.95984    23533.634    30.831709    483.08987   -54434.825    288.44911 
   19850    65.032979    65.032979    65.032979   -53.263187   -75.152009    23471.085    91.907256    23785.811   -176.54481    482.80896   -54434.001    288.35251 
   19900    65.032792    65.032792    65.032792    -81.09111   -30.758059    23865.944   -115.11879    23774.215   -97.396482     482.8451   -54438.097    290.57874 
   19950    65.027695    65.027695    65.027695    117.31052    98.222593    23397.642    180.01347    23644.327    73.695498    483.15322   -54434.714    289.27026 
   20000    65.029204    65.029204    65.029204    58.503433    89.028838    24007.725    36.466642    23861.229    50.014821    483.11192   -54439.173    291.66205 
Loop time of 3966.06 on 4 procs for 20000 steps with 16384 atoms

Pair  time (%) = 3649.61 (92.0209)
Neigh time (%) = 0 (0)
Comm  time (%) = 204.517 (5.15667)
Outpt time (%) = 1.79034 (0.0451415)
Other time (%) = 110.149 (2.7773)

Nlocal:    4096 ave 4096 max 4096 min
Histogram: 4 0 0 0 0 0 0 0 0 0
Nghost:    8717 ave 8717 max 8717 min
Histogram: 4 0 0 0 0 0 0 0 0 0
Neighs:    286720 ave 292352 max 281088 min
Histogram: 2 0 0 0 0 0 0 0 0 2
FullNghs:  0 ave 0 max 0 min
Histogram: 4 0 0 0 0 0 0 0 0 0

Total # of neighbors = 1146880
Ave neighs/atom = 70
Neighbor list builds = 0
Dangerous builds = 0
# run 	200000

# Use this if debug
# run 	1000
# run 200
unfix 1

# Store final cell length for strain calculations
variable tmp equal "lx"
variable L0 equal ${tmp}
variable L0 equal 65.0292040293441
print "Initial Length, L0: ${L0}"
Initial Length, L0: 65.0292040293441

######################################
# DEFORMATION
reset_timestep	0
set atom * xrad 0 yrad 0 zrad 0 vxrad 0 vyrad 0 vzrad 0
  16384 settings made for xrad
  16384 settings made for yrad
  16384 settings made for zrad
  16384 settings made for vxrad
  16384 settings made for vyrad
  16384 settings made for vzrad
fix		1 all npt temp 300 300 1 y 0 0 1 z 0 0 1 drag 1

variable srate equal 1.0e10
# variable srate equal 1.0e9 # tiny time step

variable srate1 equal "v_srate / 1.0e12"
fix		2 all deform 1 x erate ${srate1} units box remap x
fix		2 all deform 1 x erate 0.01 units box remap x

# Output strain and stress info to file
# for units metal, pressure is in [bars] = 100 [kPa] = 1/10000 [GPa]
# p2, p3, p4 are in GPa
variable strain equal "(lx - v_L0)/v_L0"
variable p1 equal "v_strain"
variable p2 equal "-pxx/10000"
variable p3 equal "-pyy/10000"
variable p4 equal "-pzz/10000"

# fix def1 all print 100 "${p1} ${p2} ${p3} ${p4}" file Al99.eam_rad.alloy.def1.txt screen no
# IMPLEMENTATION HERE
variable p5 equal "-pxxrad/10000"

# VERSION add rad variables
variable p6 equal "-pyyrad/10000"
variable p7 equal "-pzzrad/10000"

# VERSION ublb coupled/decoupled scheme
# variable p6 equal "-pxxub/10000"
# variable p7 equal "-pxxlb/10000"

fix def1 all print 20 "${p1} ${p2} ${p3} ${p4} ${p5} ${p6} ${p7}" file Al99.eam_rad.alloy.def1.txt screen no

# Use cfg for AtomEye
# dump 		1 all cfg 250 dump.tensile_*.cfg mass type xs ys zs c_csym c_peratom fx fy fz
# dump_modify 1 element Al

# print output to a text file every n timesteps
# dump		2 all custom 50 dump.xyz_rvf_rad.tensile_*.txt mass type id x y z vx vy vz fx fy fz xrad yrad zrad vxrad vyrad vzrad fxrad fyrad fzrad # use for rad developement
# dump		2 all custom 50 dump.xyz_rvf_rad.tensile_*.txt mass type id x y z vx vy vz fx fy fz xrad yrad zrad vxrad vyrad vzrad fxrad fyrad fzrad xub yub zub vxub vyub vzub fxub fyub fzub xlb ylb zlb vxlb vylb vzlb fxlb fylb fzlb # use for ublb developement

# Display thermo
thermo 	50
# thermo 1
# thermo_style	custom step v_strain temp v_p2 v_p3 v_p4 ke pe press

# IMPLEMENTATION HERE
thermo_style	custom step v_strain temp v_p2 v_p3 v_p4 v_p5 v_p6 v_p7 ke pe press
run	20000
Memory usage per processor = 5.90862 Mbytes
Step strain Temp p2 p3 p4 p5 p6 p7 KinEng PotEng Press 
       0            0    291.66205 -0.0089028838 -0.0036466642 -0.0050014821 -0.023946032 -0.023941306          nan    617.64367   -54439.173    58.503433 
      50       0.0005    291.63353  0.039089639  0.013632449  0.032936288   -2.4071402   -2.3691747          nan    617.58328   -54438.855   -285.52792 
     100        0.001    290.30026  0.072713263  0.012380118  0.017318566 -0.024317019 -0.024338839          nan    614.75986   -54435.668   -341.37316 
     150       0.0015    291.42485  0.089428101 -0.022424274 -0.004813619   -2.3434172   -2.4136764          nan    617.14136    -54437.57   -207.30069 
     200        0.002    290.74457   0.10834932 0.0053879461 -0.015634771 -0.024323339 -0.024325544          nan    615.70075   -54435.542   -327.00832 
     250       0.0025     290.4986   0.16383608  0.011992693 4.6838343e-05   -2.3781607   -2.3866335          nan    615.17987   -54434.346   -586.25203 
     300        0.003    289.34835    0.1891214  0.012486457  0.007984165 -0.024283013 -0.024307498          nan    612.74402   -54431.151   -698.64007 
     350       0.0035    291.43776   0.22636221 0.0021018116 -0.0040730853   -2.4036972   -2.3857125          nan    617.16871   -54434.739    -747.9698 
     400        0.004    289.65682   0.24979058 -0.0098124585 -0.0089095852 -0.024273621 -0.024299394          nan    613.39725   -54430.043   -770.22845 
     450       0.0045    291.72314   0.28866541 -0.0063711314 0.0026746728   -2.3719146   -2.4083909          nan    617.77304   -54433.445   -949.89651 
     500        0.005    292.34391    0.3318371 0.0040886813   0.03106471 -0.024243005 -0.024289818          nan    619.08762   -54433.728   -1223.3017 
     550       0.0055    294.21166   0.35775038  0.014507858   0.01524457   -2.4081958   -2.4262047          nan    623.04289   -54436.609    -1291.676 
     600        0.006    289.88005   0.36769008 -0.013708684 -0.00012953215 -0.024246021 -0.024278103          nan    613.86998    -54426.32   -1179.5062 
     650       0.0065    294.54373   0.41206211 -0.0030559785 -0.014768714   -2.4036491   -2.3832591          nan     623.7461   -54435.041   -1314.1247 
     700        0.007    289.86122   0.45153952 0.0095339883 -0.0053971864 -0.024210146 -0.024258839          nan     613.8301   -54423.948   -1518.9211 
     750       0.0075    292.40199    0.4931569  0.021695156  0.017547819   -2.3611489   -2.3899172          nan    619.21062   -54428.123   -1774.6662 
     800        0.008    290.22525   0.51162883 0.0039405095 -0.010260843  -0.02418928 -0.024246445          nan    614.60099   -54422.289   -1684.3617 
     850       0.0085    291.07925   0.52842631 -0.0097171222 -0.0071000587   -2.3528369   -2.3741255          nan    616.40949   -54422.848   -1705.3638 
     900        0.009    291.66592     0.572513 -0.0070427116 -0.0022931067 -0.024189028 -0.024243158          nan    617.65185   -54422.831   -1877.2573 
     950       0.0095    292.22403   0.60456961 -0.00020114767   0.01110411   -2.3793541   -2.3929884          nan    618.83376   -54422.735   -2051.5752 
    1000         0.01    293.13572   0.65416354 -0.0016026163   0.02320911 -0.024158842 -0.024233165          nan    620.76442   -54423.376   -2252.5668 
    1050       0.0105    291.84075   0.65576224 0.0025683233 0.0036522525   -2.3628956   -2.3485106          nan    618.02209   -54419.336   -2206.6094 
    1100        0.011    294.31916   0.69423781 0.0031726848 -0.021004749 -0.024158534 -0.024220852          nan    623.27055   -54423.275   -2254.6858 
    1150       0.0115    292.59037   0.73637157 -0.0091413243 0.00042324118    -2.356726   -2.3678779          nan    619.60954   -54418.282   -2425.5116 
    1200        0.012    291.78795   0.76108396  0.015905405 0.0085335404 -0.024121606 -0.024198118          nan    617.91028   -54415.233   -2618.4097 
    1250       0.0125     292.9478   0.81005185  0.017866505 0.0098017194   -2.3577247   -2.3941096          nan    620.36646   -54416.322   -2792.4002 
    1300        0.013    292.48153   0.82594928 -0.0060929594 -0.0048545596 -0.024116086 -0.024188954          nan    619.37906   -54413.932   -2716.6725 
    1350       0.0135    295.17579   0.85286263 0.0017445942 -0.0090341867   -2.4939677   -2.3945426          nan    625.08461   -54418.216   -2818.5768 
    1400        0.014    290.53936   0.89167291 -0.014476217 -0.0069443721 -0.024102284 -0.024179411          nan    615.26618   -54406.971   -2900.8411 
    1450       0.0145    292.75065   0.92671553  0.013393384   0.02562936   -2.3860099   -2.3564449          nan    619.94897   -54410.202   -3219.1276 
    1500        0.015    295.11574   0.96989265 0.00048279987  0.023647495 -0.024085732 -0.024164967          nan    624.95743   -54413.727   -3313.4098 
    1550       0.0155    293.76374   0.97325795 -0.0038135042 -0.0070834882   -2.4079916   -2.3845856          nan    622.09436    -54409.37   -3207.8699 
    1600        0.016    294.51056    1.0075178 -0.0034970989 -0.014774608 -0.024085319  -0.02416425          nan    623.67587   -54409.435   -3297.4871 
    1650       0.0165    292.00812      1.04963 0.0043973862 -0.015550221   -2.3597739   -2.3499822          nan    618.37653   -54402.592   -3461.5905 
    1700        0.017    293.66816    1.1042522  0.021356514  0.012708469 -0.024039341 -0.024137159          nan    621.89194   -54404.537   -3794.3908 
    1750       0.0175    295.88821    1.1298066  0.023811223  0.017676739   -2.4402182   -2.4108261          nan    626.59328   -54407.653   -3904.3153 
    1800        0.018    292.39151    1.1296307 -0.027610703  -0.01117653 -0.024050705 -0.024134274          nan    619.18843   -54398.622   -3636.1448 
    1850       0.0185    295.10244    1.1739436 -0.014411121 -0.0043922516   -2.4106821   -2.4069453          nan    624.92927   -54402.728   -3850.4673 
    1900        0.019    295.40761     1.219937 -0.00089515971 0.0049399382 -0.024024544 -0.024120432          nan    625.57553   -54401.713   -4079.9394 
    1950       0.0195    296.05485    1.2531964  0.031737195  0.029788203   -2.4123061   -2.3825493          nan    626.94616   -54401.403   -4382.4061 
    2000         0.02    292.29967    1.2707487 -0.0058944393 0.0089658481 -0.024011742 -0.024113114          nan    618.99393   -54391.752    -4246.067 
    2050       0.0205    294.86035    1.3004202 -0.007174535 -0.021437563   -2.4115485   -2.3994667          nan    624.41661   -54395.438   -4239.3604 
    2100        0.021    293.44196    1.3345252 -0.0049605906 -0.011609398  -0.02399762 -0.024104963          nan    621.41292   -54390.667    -4393.184 
    2150       0.0215    295.22509    1.3737005  0.014504862   0.01637316   -2.4166721   -2.3559706          nan    625.18902   -54392.663   -4681.9283 
    2200        0.022    292.96239    1.4085809 0.0074934937 -0.00075408847 -0.023972413 -0.024081834          nan    620.39736   -54386.063   -4717.7343 
    2250       0.0225    294.40959    1.4376992 -0.0011467685 0.0083742443   -2.3745937   -2.3657595          nan    623.46205   -54387.287   -4816.4224 
    2300        0.023    293.07038    1.4550911 -0.0027791209 -0.024742373 -0.023973158 -0.024083979          nan    620.62605   -54382.596   -4758.5653 
    2350       0.0235    295.85534    1.5006025 -0.0028203207  0.010589191    -2.383271   -2.3657604          nan    626.52367   -54386.614   -5027.9045 
    2400        0.024    295.11232    1.5295571 0.0059744581 0.0089916986  -0.02395524 -0.024061107          nan     624.9502   -54383.137   -5148.4107 
    2450       0.0245    292.74008    1.5547426 0.00016947644  0.012676118   -2.3559944   -2.3626106          nan    619.92657   -54376.189    -5225.294 
    2500        0.025    295.67897     1.587317 -0.0097979755 -0.0080624517 -0.023947061  -0.02406321          nan    626.15018    -54380.47   -5231.5219 
    2550       0.0255    297.38522    1.6332437 0.0032504987 0.00099288502   -2.4215598   -2.4156196          nan    629.76345   -54382.105   -5458.2904 
    2600        0.026    294.01209     1.655255 0.0016228928 0.0024881542 -0.023923446 -0.024046297          nan    622.62029   -54372.967     -5531.22 
    2650       0.0265    294.67979    1.6938126  0.010332482 0.0082859664    -2.390604   -2.3976071          nan    624.03423   -54372.365   -5708.1034 
[...]
   13800        0.138    291.04478    7.7100765  0.025116864  0.020491933 -0.022043455 -0.022518463          nan     616.3365   -53360.812   -25852.284 
   13850       0.1385    291.51861    7.7382622  0.011682168  0.025944087    -2.253282   -2.2840733          nan     617.3399   -53355.004   -25919.628 
   13900        0.139    290.29483    7.7460818 -0.023024333  -0.01759794 -0.022037491 -0.022523764          nan    614.74834   -53345.566   -25684.865 
   13950       0.1395    291.97503    7.7858493 -0.025838676 0.0052134879   -2.2825806   -2.2808568          nan    618.30647   -53342.249    -25884.08 
   14000         0.14    291.32814    7.8244783  0.019659344  0.015252095 -0.022000404 -0.022493048          nan    616.93655   -53333.989   -26197.966 
   14050       0.1405    292.00872    7.8645431  0.015198608  0.029408772   -2.2647699   -2.2848041          nan    618.37779   -53328.493   -26363.835 
   14100        0.141    289.43427    7.8265102 -0.013088092 -0.016648748 -0.021988277 -0.022481624          nan    612.92597   -53316.123   -25989.245 
   14150       0.1415    289.16031    7.8212713 -0.026198965 -0.032965605   -2.2417603   -2.2637191          nan     612.3458   -53308.634   -25873.689 
   14200        0.142    289.88201    7.8584449  0.022851299  0.019017101 -0.021949769 -0.022443301          nan    613.87413   -53303.226   -26334.378 
   14250       0.1425    291.53787    7.9204572  0.032809204  0.033112633   -2.2737722   -2.2797121          nan     617.3807   -53299.759   -26621.263 
   14300        0.143    290.38301    7.8930614 -0.0015763817 -0.020272017 -0.021938231 -0.022439617          nan    614.93509    -53290.33   -26237.377 
   14350       0.1435    289.45291    7.9110067 -0.032753643 -0.026507029    -2.255392   -2.2658885          nan    612.96545   -53281.372   -26172.487 
   14400        0.144    290.65541    7.9386583   0.01872612 0.0086795685 -0.021914542 -0.022408912          nan    615.51193   -53276.903   -26553.547 
   14450       0.1445    289.27663    7.9438435  0.020359268   0.02783822   -2.2282066   -2.2726705          nan    612.59214   -53266.958   -26640.137 
   14500        0.145    288.24473    7.9253352 -0.0019551395 -0.005332819 -0.021883754 -0.022387832          nan    610.40691   -53257.767   -26393.491 
   14550       0.1455     288.1228     7.937292 -0.0071436632 -0.023712615   -2.2346127   -2.2124842          nan    610.14871   -53250.482   -26354.786 
   14600        0.146    289.73322    7.9963718 -0.008315551  0.011616432 -0.021865565 -0.022364052          nan    613.55905   -53246.832   -26665.575 
   14650       0.1465    288.35812    8.0219524  0.018720144 -0.0023470001   -2.2318948   -2.2589758          nan    610.64703   -53236.819   -26794.419 
   14700        0.147    289.19428    8.0323342 0.0023991844 -0.0010004881 -0.021830944 -0.022353196          nan    612.41775   -53231.497    -26779.11 
   14750       0.1475    288.15752    8.0245376 -0.019278776 -0.0085517223   -2.2472134   -2.2482335          nan    610.22223   -53222.191    -26655.69 
   14800        0.148    287.69309    8.0220678 -0.029001169  0.021506594 -0.021806088 -0.022324334          nan    609.23872   -53214.111   -26715.244 
   14850       0.1485    288.11223    8.0699743  0.024772955  0.012796251   -2.2663763   -2.2321886          nan    610.12632   -53207.863   -27025.145 
   14900        0.149    287.66028    8.0699985  0.013724475 -0.00075351667 -0.021774406 -0.022296785          nan    609.16925    -53199.75   -26943.231 
   14950       0.1495    286.49932    8.0552713 -0.026078246 -0.027165977    -2.230716   -2.2380099          nan    606.71071   -53190.128   -26673.424 
   15000         0.15    288.36511    8.0436169 -0.0055405225 -0.023123398 -0.021753601 -0.022268382          nan    610.66184   -53186.944    -26716.51 
   15050       0.1505    287.84796    8.0221898  0.032074638  0.046722049   -2.1999084   -2.2587038          nan    609.56668   -53178.717   -27003.288 
   15100        0.151    289.86503     8.009349  0.022580725  0.013022977 -0.021728947  -0.02223735          nan    613.83818   -53175.875   -26816.509 
   15150       0.1515    289.78785    7.9487241 -0.018514708 -0.031619197   -2.2412896   -2.2370042          nan    613.67473   -53168.607   -26328.634 
   15200        0.152    290.31853    7.8667592 -0.016873746 -0.033512904 -0.021734779 -0.022233826          nan    614.79854   -53162.699   -26054.575 
   15250       0.1525    288.52284    7.7777716  0.018989735 0.0065869689   -2.2172959   -2.2199656          nan    610.99587   -53151.958   -26011.161 
   15300        0.153    292.59979    7.6874063  0.040995206   0.05111153 -0.021684285 -0.022161518          nan    619.62949   -53153.718    -25931.71 
   15350       0.1535    293.44753    7.5105271  -0.01715212  0.010782774   -2.2800304   -2.2757655          nan    621.42472   -53148.786   -25013.859 
   15400        0.154    300.38177    7.3148832 -0.023705618  -0.03372703 -0.021715298 -0.022187592          nan    636.10915   -53156.901   -24191.502 
   15450       0.1545    303.37336     7.099078 -0.005157063 -0.022685555   -2.3706659    -2.351796          nan    642.44434   -53156.917   -23570.784 
   15500        0.155    310.56808    6.8335628  0.028671026  0.061517304 -0.021700679 -0.022138535          nan    657.68038   -53166.129    -23079.17 
   15550       0.1555    319.07102    6.4622776 -0.017969937  0.074104983    -2.526374   -2.4596885          nan    675.68679   -53178.592   -21728.042 
   15600        0.156    328.59338    6.0768926 -0.054305874 0.0032310691  -0.02180691  -0.02219519          nan    695.85201   -53193.752   -20086.059 
   15650       0.1565    339.98605    5.7091227 -0.039253418 -0.011629085   -2.7098747   -2.5900933          nan     719.9779   -53213.419   -18860.801 
   15700        0.157     349.9769    5.3833154  0.014535402  0.024428597   -0.0218507 -0.022201119          nan    741.13522   -53230.814   -18074.265 
   15750       0.1575    356.34055    5.0262823  0.046377412  0.025275241   -2.8882979   -2.7108197          nan    754.61132   -53241.297   -16993.116 
   15800        0.158    363.93805    4.6373933  0.051548958 -0.025566959 -0.021927761 -0.022221428          nan    770.70031   -53255.135   -15544.584 
   15850       0.1585    369.39373    4.2720394  0.011057645  -0.04033417   -2.9999341   -2.8339837          nan    782.25363   -53265.144   -14142.543 
   15900        0.159    376.31002    3.9450294  0.025588824 -0.020515676 -0.022029344 -0.022287423          nan    796.90004   -53278.787   -13167.008 
   15950       0.1595    377.48704    3.6586387  0.055163305 -0.028075241   -3.0814802    -2.870449          nan     799.3926   -53280.681   -12285.756 
   16000         0.16    376.28538    3.3967325  0.017835897  0.040873249 -0.022084636 -0.022323655          nan    796.84787   -53277.693   -11518.139 
   16050       0.1605    381.43001    3.1451302  0.059913572  0.011176456   -3.0667138    -2.975741          nan     807.7425   -53288.357   -10720.734 
   16100        0.161    383.02458    2.9185524 -0.015108025 -0.013841913 -0.022197118 -0.022417664          nan    811.11925    -53291.71   -9632.0082 
   16150       0.1615    382.24622    2.6707841 -0.042510109 -5.8002395e-05   -3.1374017   -2.9857605          nan    809.47096   -53290.255     -8760.72 
   16200        0.162    384.28542    2.5132043 0.0072497602  0.064284504 -0.022257122 -0.022457738          nan     813.7893   -53295.055   -8615.7952 
   16250       0.1625    387.55178    2.3624185  0.017334212   0.05188648   -3.1741656    -3.012902          nan    820.70637   -53302.835   -8105.4639 
   16300        0.163    391.04332    2.2023952 -0.0029853183  0.021283681 -0.022369883  -0.02254448          nan    828.10031   -53311.338   -7402.3119 
   16350       0.1635    393.07265    2.0627596 0.00033388423 -0.033342202   -3.1602634   -3.1326902          nan    832.39776   -53316.903   -6765.8377 
   16400        0.164    392.99985     1.947482   0.01643309 -0.024855808 -0.022466334 -0.022598738          nan    832.24358   -53318.177   -6463.5308 
   16450       0.1645    397.69265    1.8597323  0.044083245  0.021783537   -3.2524457   -3.1118752          nan    842.18138   -53329.736   -6418.6635 
   16500        0.165    399.56344    1.8021243  0.023002338 -0.0032643613 -0.022542647 -0.022650474          nan    846.14309   -53335.512   -6072.8742 
   16550       0.1655    398.63934    1.7065534 -0.048249614 0.0018889645   -3.2576359   -3.1537374          nan    844.18615   -53335.387   -5533.9758 
   16600        0.166    401.63186    1.6554372  0.017345694  0.015262818 -0.022585531 -0.022694669          nan    850.52331   -53343.667   -5626.8189 
   16650       0.1665    406.61402    1.6071214  0.057283454   0.04180605    -3.319429   -3.2121759          nan    861.07388   -53356.368   -5687.3695 
   16700        0.167    404.39975    1.5220623 -0.0071849052 -0.018915642 -0.022654487 -0.022763978          nan    856.38479   -53353.953   -4986.5392 
   16750       0.1675    407.19179    1.5265762 -0.065372073 -0.0070952308   -3.3278069   -3.2831164          nan    862.29742   -53362.136   -4847.0295 
   16800        0.168    405.66592    1.5141962 -0.005861296  0.011501671 -0.022673413 -0.022780057          nan    859.06612   -53361.272   -5066.1219 
   16850       0.1685    407.07406    1.5114259   0.02089229   0.05174981   -3.3023477   -3.2874807          nan     862.0481   -53366.675   -5280.2265 
   16900        0.169    406.63752    1.4741978 -0.015798871  0.017131132 -0.022673114 -0.022786016          nan    861.12365   -53368.237   -4918.4335 
   16950       0.1695    410.66948    1.4646052 -0.020337987  0.017340096   -3.2907134    -3.306041          nan    869.66201   -53379.317   -4872.0243 
   17000         0.17    408.79544    1.4546807 -0.038271172 -0.001544997 -0.022693975 -0.022836957          nan    865.69342   -53377.932    -4716.215 
   17050       0.1705    411.86404    1.4204592   0.04240294 0.0035351829   -3.3762474   -3.2877348          nan    872.19168   -53387.061   -4887.9911 
   17100        0.171    411.47291    1.3799741  0.039945831 -0.014297978 -0.022725478 -0.022821867          nan     871.3634   -53388.914   -4685.4067 
   17150       0.1715     415.6465    1.4015654  0.019159239 -0.010833587   -3.4091318   -3.3503271          nan    880.20169   -53400.492   -4699.6367 
   17200        0.172    411.20364    1.4250032 0.0026900974 -0.025898047 -0.022743005 -0.022850622          nan    870.79318    -53393.82    -4672.651 
   17250       0.1725    413.48119    1.4266051 2.5208323e-05  0.013223685    -3.385211   -3.3571774          nan    875.61629   -53401.357   -4799.5132 
   17300        0.173    415.44619    1.4285964 -0.012139911   0.07535237 -0.022733192 -0.022871143          nan    879.77749   -53408.288   -4972.6961 
   17350       0.1735    415.37694     1.413188 -0.0013389531  0.018443787   -3.3944989    -3.407571          nan    879.63085   -53410.986   -4767.6428 
   17400        0.174    414.08099    1.3238422 0.0067634716 -0.024715985 -0.022789531 -0.022888983          nan    876.88646   -53411.101   -4352.9657 
   17450       0.1745    412.73679    1.3070466  -0.02834393 -0.016673837    -3.380332   -3.3380172          nan    874.03989   -53411.138   -4206.7626 
   17500        0.175    415.30307    1.3450921  0.018904004 -0.0022488516 -0.022764296 -0.022881108          nan    879.47443   -53419.486   -4539.1576 
   17550       0.1755    418.03187    1.3752953  0.011006198  0.025073468   -3.4115062   -3.4219681          nan    885.25312   -53428.211   -4704.5832 
   17600        0.176    414.28934    1.3249708 -0.015053991  0.041946465  -0.02277639 -0.022892767          nan    877.32768   -53423.228   -4506.2108 
   17650       0.1765    418.03552    1.3754292 -0.025543129  0.035982388   -3.4274593   -3.4099549          nan    885.26084   -53434.165   -4619.5616 
   17700        0.177     415.8377    1.3587249 0.0068948774  0.010339238 -0.022811097  -0.02289744          nan    880.60658   -53432.514     -4586.53 
   17750       0.1775    416.87175    1.3043095  0.023693682 -0.030539399   -3.4178281   -3.3902495          nan    882.79637   -53437.644   -4324.8793 
   17800        0.178    413.89216     1.291808 0.0075090475 -0.038840188 -0.022825803  -0.02291578          nan    876.48657   -53434.335   -4201.5895 
   17850       0.1785    416.72334    1.2762378  0.069559726 -0.00091387329   -3.3957503   -3.4241612          nan    882.48209   -53443.399   -4482.9455 
   17900        0.179    418.12239    1.2561465  0.033608055   -0.0038504 -0.022843288 -0.022953577          nan     885.4448   -53449.512   -4286.3473 
   17950       0.1795    412.65072    1.2076882 -0.015397513 -0.055657145   -3.3824404   -3.3152686          nan    873.85763   -53441.036   -3788.7784 
   18000         0.18    413.82535    1.2302221 -0.028155016 -0.010380558 -0.022869333 -0.022974648          nan    876.34511     -53446.6   -3972.2885 
   18050       0.1805    415.34012    1.2437416 0.0036961712  0.056498841   -3.3814236   -3.4343599          nan    879.55287   -53452.829   -4346.4552 
   18100        0.181     417.5726    1.2663258 0.00031224206  0.043030606 -0.022855836 -0.022961654          nan    884.28053   -53460.628   -4365.5622 
   18150       0.1815    411.88227    1.2645511 -0.027130796 -0.044124428   -3.3513411   -3.3294157          nan     872.2303   -53451.581   -3977.6529 
   18200        0.182    416.98469    1.2953278  0.034722518  0.049671954 -0.022844631 -0.022957739          nan    883.03554   -53465.389   -4599.0741 
   18250       0.1825    413.83739    1.2613692  0.018901034  0.050028486   -3.3976101   -3.3775911          nan     876.3706   -53461.831   -4434.3291 
   18300        0.183    417.55101    1.2296757 -0.022344408 -0.025781022 -0.022903675 -0.023002025          nan     884.2348   -53472.782    -3938.501 
   18350       0.1835    415.04557    1.1742498 -0.012003267  -0.04202506   -3.3836027   -3.3767535          nan    878.92911   -53470.543   -3734.0717 
   18400        0.184    411.66665    1.2083913 -0.0043950042  0.011989088   -0.0229064  -0.02300125          nan    871.77368   -53466.462   -4053.2846 
   18450       0.1845    416.80055    1.2153247  0.023400226  0.048485831   -3.4494207   -3.4295679          nan    882.64558   -53480.453   -4290.7024 
   18500        0.185     412.8057     1.215712 -0.032529224 -0.0080820679 -0.022908271 -0.023024181          nan    874.18582   -53475.122   -3917.0023 
   18550       0.1855    416.73391    1.2150063  0.012350915 -0.038932225   -3.3984521    -3.397754          nan    882.50446   -53486.508   -3961.4165 
   18600        0.186    413.19957    1.2222866  0.010146899 -0.028892302 -0.022914011 -0.023012041          nan     875.0199   -53482.093   -4011.8039 
   18650       0.1865    412.71035    1.2645499  0.036487945  0.046083834   -3.3754956   -3.3361433          nan    873.98389   -53484.122   -4490.4057 
   18700        0.187     412.9248    1.2237834  0.023251994 0.00074515253 -0.022914498 -0.023009612          nan    874.43802   -53487.641   -4159.2686 
   18750       0.1875    416.64845    1.1820588 -0.028928542 0.0036902952   -3.4625271   -3.4431399          nan    882.32349   -53498.627   -3856.0684 
   18800        0.188    412.10646    1.1729937 -0.082810006  0.019922057 -0.022941274 -0.023071706          nan    872.70506   -53492.078   -3700.3526 
   18850       0.1885    412.66012     1.209767 -0.012608752  0.032322633   -3.4316758   -3.3787835          nan    873.87753   -53496.361   -4098.2697 
   18900        0.189    413.23056    1.2489481  0.032566484  0.039609264 -0.022907829 -0.023021568          nan    875.08552   -53500.619   -4403.7462 
   18950       0.1895    412.98537    1.2329792  0.033395257  0.005880248   -3.4319029   -3.3798733          nan    874.56629   -53503.143    -4240.849 
   19000         0.19    410.87349    1.2183578 0.0097882894 -0.071825932 -0.022953091 -0.023044179          nan    870.09403   -53501.618   -3854.4007 
   19050       0.1905    412.86009    1.2299516  0.034236549 -0.058206995   -3.4275918   -3.3665272          nan    874.30099   -53508.831   -4019.9372 
   19100        0.191    412.05642    1.2359775  0.047758375 -0.010296066 -0.022920934 -0.023027948          nan    872.59909   -53510.186   -4244.7993 
   19150       0.1915    408.84981    1.2473024 0.0090387394   0.05732094   -3.3196961   -3.3220963          nan    865.80855   -53506.365   -4378.8737 
   19200        0.192    411.45511    1.2649385 -0.00020249289  0.008627884 -0.022946872 -0.023043652          nan     871.3257   -53514.871   -4244.5461 
   19250       0.1925    409.50181    1.2425237 -0.0021758851 -0.022742586   -3.3314317   -3.3676021          nan    867.18926   -53513.669    -4058.684 
   19300        0.193    409.68344    1.2622841 -0.028557543 -0.020079886 -0.022965929 -0.023088152          nan     867.5739   -53516.985   -4045.4888 
   19350       0.1935    407.70952    1.2682982 -0.014618188 0.0098163216   -3.3498555   -3.3197638          nan     863.3938   -53515.698   -4211.6546 
   19400        0.194    407.39248    1.2615625  0.041215451  0.038150602 -0.022941509 -0.023037197          nan     862.7224    -53517.89   -4469.7617 
   19450       0.1945    408.35015    1.2326108  0.032621389  0.030391502   -3.3510328   -3.3167513          nan    864.75043   -53522.831   -4318.7455 
   19500        0.195    407.92211    1.2065539 -0.022165338 -0.032424793 -0.022989992 -0.023089464          nan    863.84399   -53524.819   -3839.8791 
   19550       0.1955    408.80895    1.1814437 -0.033884883 -0.014811411   -3.3285445   -3.3515907          nan    865.72203   -53529.593   -3775.8246 
   19600        0.196    407.01234    1.2287206 -0.013658142 0.0076738521 -0.022980904 -0.023092393          nan     861.9174   -53528.677   -4075.7878 
   19650       0.1965    410.01174    1.2133665  0.037341876   0.09712877   -3.3638472   -3.3524521          nan    868.26914   -53537.967   -4492.7906 
   19700        0.197    407.69594    1.1778383 -0.031116004 0.0010701848 -0.023012673 -0.023106647          nan    863.36503    -53536.07   -3825.9751 
   19750       0.1975    407.83932    1.1211602 -0.034247343 -0.046470917   -3.3216202   -3.2979392          nan    863.66866   -53539.289   -3468.1397 
   19800        0.198      410.608    1.1616433  0.022851323 -0.044943985 -0.023018854 -0.023107595          nan    869.53182   -53548.051   -3798.5022 
   19850       0.1985    408.75353    1.1689764   0.09129606   0.03372633   -3.3359054   -3.3647898          nan    865.60465   -53547.041   -4313.3294 
   19900        0.199    406.73166    1.1636202  0.038160413 0.0013311429 -0.022989505 -0.023091148          nan      861.323   -53545.692   -4010.3726 
   19950       0.1995    406.42809    1.1424564 -0.042039569 -0.0059842948   -3.2995166   -3.3077563          nan    860.68014   -53547.946   -3648.1086 
   20000          0.2    407.29258    1.1308292 -0.059480826 0.0064373617 -0.023019658 -0.023131079          nan    862.51085   -53552.629   -3592.6193 
Loop time of 4538.85 on 4 procs for 20000 steps with 16384 atoms

Pair  time (%) = 4207.58 (92.7014)
Neigh time (%) = 2.75935 (0.060794)
Comm  time (%) = 174.79 (3.85098)
Outpt time (%) = 0.751353 (0.0165538)
Other time (%) = 152.972 (3.37028)

Nlocal:    4096 ave 4146 max 4009 min
Histogram: 1 0 0 0 0 0 0 1 1 1
Nghost:    7414.25 ave 7456 max 7392 min
Histogram: 1 1 1 0 0 0 0 0 0 1
Neighs:    282154 ave 286620 max 275810 min
Histogram: 1 0 0 0 0 1 0 0 1 1
FullNghs:  0 ave 0 max 0 min
Histogram: 4 0 0 0 0 0 0 0 0 0

Total # of neighbors = 1128617
Ave neighs/atom = 68.8853
Neighbor list builds = 121
Dangerous builds = 0

######################################
# SIMULATION DONE
print "All done"
All done
