
# ----------------------- ATOM DEFINITION ----------------------------
lattice		fcc ${latparam}
lattice		fcc 4.05
Lattice spacing in x,y,z = 4.05 4.05 4.05
region		whole block 0 16 0 16 0 16
create_box	1 whole
Created orthogonal box = (0 0 0) to (64.8 64.8 64.8)
  2 by 1 by 2 MPI processor grid
lattice 	fcc ${latparam} orient x 1 0 0 orient y 0 1 0 orient z 0 0 1
lattice 	fcc 4.05 orient x 1 0 0 orient y 0 1 0 orient z 0 0 1
Lattice spacing in x,y,z = 4.05 4.05 4.05
create_atoms	1 region whole
Created 16384 atoms

# ------------------------ FORCE FIELDS ------------------------------

#****************USE THIS TO TEST******************
pair_style	eam/rad
pair_coeff 			* * Al99.PC0.05.eam.alloy.rad.txt Al # pc = 0.5

# ------------------------- SETTINGS ---------------------------------
compute csym all centro/atom fcc
compute peratom all pe/atom

######################################
# EQUILIBRATION
reset_timestep	0
timestep	0.001 # default
# timestep	0.0001 # tiny time step
velocity all create 300 12345 mom yes rot no
fix 1 all npt temp 300 300 1 iso 0 0 1 drag 1

# Set thermo output
thermo 50
# thermo 1 # debug mode

# thermo_style custom step lx ly lz press pxx pyy pzz pe temp
# IMPLEMENTATION HERE

# VERSION add rad variables .v1 .v2
# thermo_style custom step lx ly lz press pxx pyy pzz pxxrad pyyrad pzzrad pe temp

# VERSION ublb separation .v3
thermo_style custom step lx ly lz press pxx pxxub pxxlb pyy pyyub pyylb pzz pzzub pzzlb pe temp

# Run for at least 10 picosecond (assuming 1 fs timestep)
run 	20000 # default
Memory usage per processor = 8.25631 Mbytes
Step Lx Ly Lz Press Pxx Pxxub Pxxlb Pyy Pyyub Pyylb Pzz Pzzub Pzzlb PotEng Temp 
       0         64.8         64.8         64.8    2496.5946    2464.3333    7599.1821    7113.2012    2508.7809     7666.667    7180.6862    2516.6696    7747.6562    7261.6753    -55050.24          300 
      50    64.896706    64.896706    64.896706    860.56085    949.43103    1193.7253    705.13259    822.00845    1066.3637    577.64911    810.24307    1054.5646     565.9174   -54640.386    105.49614 
     100    65.005446    65.005446    65.005446   -4102.3745   -4104.9237   -3863.4191   -4346.5658   -4081.9907   -3840.4716   -4323.6549   -4120.2091   -3878.6881   -4361.8734   -54773.083    169.34737 
     150    64.907088    64.907088    64.907088    484.52969    515.48616    759.23461    271.72496    475.96207    719.72913    232.18355    462.14084    705.91855    218.34961   -54678.107    124.56271 
     200    64.845387    64.845387    64.845387    2508.6157    2493.3738    2738.2589    2248.5594    2511.6845    2756.6089    2266.8291    2520.7889    2765.7171     2275.934    -54706.98    139.20862 
     250    64.904149    64.904149    64.904149    143.81178    132.07413    375.77994   -111.61602     152.0707    395.79322    -91.63464    147.29051    391.01385   -96.417527   -54721.637    146.57251 
     300    64.948544    64.948544    64.948544   -1470.5569   -1474.6314   -1231.9895   -1717.3179   -1497.5382    -1254.867   -1740.2509   -1439.5011   -1196.8507   -1682.2006   -54728.049    150.34907 
     350     64.91112     64.91112     64.91112   -321.25184   -276.42273   -32.856068   -519.97689   -390.59413   -147.02414   -634.15918   -296.73867   -53.170563   -540.29574   -54749.819    161.18582 
     400    64.873529    64.873529    64.873529    1344.5041    1342.6916    1586.9246    1098.4624    1345.7421    1589.9722    1101.5198    1345.0785    1589.3217    1100.8419   -54725.472    150.50327 
     450    64.906123    64.906123    64.906123    16.057935    71.326045    315.04392   -172.37304   -37.018105    206.69003   -280.70941    13.865866    257.59006   -229.83951   -54729.524    153.12426 
     500    64.934384    64.934384    64.934384   -907.51804   -913.42979   -670.40392   -1156.4537   -917.21901   -674.15935   -1160.2741    -891.9053   -648.84256   -1134.9662   -54721.881    150.36869 
     550    64.911149    64.911149    64.911149   -86.223732   -88.312004     155.2601   -331.88988   -89.943239    153.62687   -333.51394   -80.415955    163.16382   -323.99869   -54724.417    152.32973 
     600    64.886962    64.886962    64.886962    810.71522     843.2597    1087.3231    599.19508    770.41775    1014.4912    526.33952    818.46822    1062.5283    574.41065   -54730.919    156.25829 
     650    64.907203    64.907203    64.907203    103.12322    103.37156    346.99339   -140.24954    68.331601    311.97322   -175.30492     137.6665    381.29713   -105.96393   -54725.549    154.50552 
     700    64.929217    64.929217    64.929217   -784.55457   -743.52423   -500.30124   -986.72096   -805.31015   -562.09197    -1048.515   -804.82932   -561.60356   -1048.0339   -54727.129    156.12146 
     750    64.911263    64.911263    64.911263   -2.2768646   -7.1166668    236.40218    -250.6393   -15.754097    227.81801   -259.32715     16.04017    259.60192   -227.52173   -54723.502     155.2258 
     800    64.894977    64.894977    64.894977    531.27954    541.11308      785.021    297.20216     531.8221    775.73909    287.90809    520.90344    764.81291    276.99072   -54725.978    157.25865 
     850    64.908699    64.908699    64.908699    83.269989      91.5132    335.16495    -152.1293    36.159085    279.82676   -207.49882    122.13768    365.81891   -121.53684   -54722.084    156.26393 
     900    64.924682    64.924682    64.924682   -516.92399   -521.23577   -277.95871   -764.50828    -522.1347   -278.85619   -765.40123    -507.4015   -264.09188   -750.70302   -54722.401    157.28073 
     950     64.91247     64.91247     64.91247   -69.108026   -75.357132    168.21747   -318.93078   -84.236667    159.33866   -327.81575   -47.730278    195.84731   -291.30798   -54721.937    157.91846 
    1000    64.898857    64.898857    64.898857    498.02335    483.40561    727.31011    239.50321    470.08925     714.0126    226.16317     540.5752    784.50122    296.64373   -54715.614     155.8034 
    1050    64.911235    64.911235    64.911235    44.683247    10.903167    254.58359   -232.77522    71.727963    315.41867   -171.95781     51.41861    295.10768   -192.26112   -54716.754    157.19439 
    1100    64.923817    64.923817    64.923817   -457.38643   -471.82814   -228.49947   -715.15286    -478.0245   -234.65625   -721.39101   -422.30664   -178.96129   -665.64648   -54718.458    158.88081 
    1150    64.913242    64.913242    64.913242   -30.297346   -28.257071    215.29174   -271.80011   -22.678698    220.90138   -266.25305   -39.956268    203.59601    -283.5043   -54724.952    162.81681 
    1200    64.902829    64.902829    64.902829    387.28708    353.72187    597.62698    109.82798    364.68411     608.6265    120.75009    443.45527    687.39804    199.51907   -54708.669    156.00176 
    1250    64.913092    64.913092    64.913092   -37.782504   -17.813692    225.76242    -261.3904   -58.408683    185.12759   -301.94552   -37.125138    206.45704    -280.7034   -54721.076    162.73117 
    1300    64.921588    64.921588    64.921588   -247.18429      -274.59   -31.100155   -518.08244   -240.31197    3.1832606   -483.80664    -226.6509    16.821939    -470.1251   -54710.747    158.74756 
    1350    64.914794    64.914794    64.914794   -50.058944   -57.335922    186.27234   -300.93232   -25.937033    217.70599   -269.56757   -66.903877    176.69207    -310.4921    -54710.14    159.32923 
    1400     64.90718     64.90718     64.90718    308.15164      299.236    542.97603    55.500475    313.08477    556.84377    69.331789    312.13416    555.87484    68.398642   -54716.037    163.00318 
    1450    64.915457    64.915457    64.915457   -68.182331   -45.461183    198.17814   -289.09081   -110.28569    133.36891   -353.94033   -48.800117    194.82621   -292.42255   -54708.153    160.15139 
    1500    64.921221    64.921221    64.921221   -222.12004    -260.1734   -16.757004   -503.58922   -175.01713    68.416349   -418.44866   -231.16961    12.290501   -474.62534   -54717.857    165.62684 
    1550    64.914891    64.914891    64.914891    84.508989    68.509585    312.15855   -175.14581    76.045396    319.72985   -167.64084    108.97199    352.67391   -134.72998   -54698.634     157.4345 
    1600    64.911514    64.911514    64.911514    179.10262    171.04647    414.71229   -72.614998    199.75421    443.50004   -43.984546    166.50719    410.22543   -77.200706   -54711.252    164.27838 
    1650    64.917196    64.917196    64.917196   -69.216668   -77.641356    165.97878   -321.25345   -28.794477    214.87254   -272.45077   -101.21417    142.41727   -344.84282   -54705.888    162.63245 
    1700      64.9199      64.9199      64.9199   -124.95287   -91.733041    151.81573   -335.27364   -131.46383    112.06472    -374.9872   -151.66172    91.905249   -395.22474   -54709.851    165.38762 
    1750    64.916324    64.916324    64.916324    17.906812     26.35357    270.02294   -217.31493    29.180508    272.79234   -214.42725   -1.8136411    241.82687   -245.45192   -54706.639    164.76164 
    1800    64.914963    64.914963    64.914963    132.33831    129.12402    372.75373   -114.49562    111.60445    355.24462   -132.02531    156.28646    399.96379   -87.378207   -54703.754    164.28487 
    1850    64.918757    64.918757    64.918757   -47.026286   -41.061169    202.49932   -284.61371   -45.325242    198.24471   -288.88681   -54.692448    188.92322   -298.30144   -54705.487    166.00606 
    1900    64.920556    64.920556    64.920556   -67.644229   -68.175359    175.43614   -311.77729    -74.49325    169.14725   -318.12768   -60.264079    183.34428   -303.86391   -54699.368    163.99471 
    1950    64.918703    64.918703    64.918703    4.4279539    43.163473     286.7804   -200.44845   -7.4447635    236.18869   -251.07714   -22.434848    221.22141   -266.09101   -54700.238    165.30024 
    2000    64.916844    64.916844    64.916844    84.515369    101.57458    345.26915   -142.11996    76.675086    320.36066   -167.01348    75.296442    319.01027   -168.41896   -54699.354    165.77466 
    2050     64.91964     64.91964     64.91964   -25.377169   -30.069028    213.49395   -273.63439   -39.312397    204.26246   -282.88571   -6.7500835    236.83676   -250.33828   -54705.018     169.3409 
    2100     64.92101     64.92101     64.92101   -69.637287   -51.749208    191.80608   -295.31055   -108.58252    135.01998   -352.18518   -48.580138    194.99419   -292.16041   -54699.952     167.8488 
    2150    64.919935    64.919935    64.919935     64.77002    111.25353    354.93665   -132.42594    46.591022    290.29235    -197.1083    36.465504    280.14094   -207.20452   -54693.209    165.55076 
    2200    64.921444    64.921444    64.921444   -31.293365    28.953798    272.55649   -214.63541   -79.532145      164.056   -323.11525   -43.301748    200.32839   -286.91512   -54699.988    169.64218 
    2250    64.921431    64.921431    64.921431   -56.153186   -30.621665    212.93655   -274.16416   -81.837503    161.75227   -325.41268   -56.000389    187.57907   -299.56619   -54695.552    168.44636 
    2300    64.919484    64.919484    64.919484    102.20585    114.06956    357.69796   -129.54928    106.55792    350.21794   -137.09071    85.990079    329.62328    -157.6369   -54696.873    169.97344 
    2350    64.921889    64.921889    64.921889    5.3667074    66.901676    310.52093   -176.72332   -51.399408    192.25287   -295.05002   0.59785414    244.24903   -243.05268   -54689.676    167.45768 
    2400    64.923937    64.923937    64.923937     -70.8674   -69.099774     174.4666   -312.67842   -72.435113    171.10366   -315.98177   -71.067315    172.47094   -314.60929   -54693.907    170.36189 
    2450    64.921683    64.921683    64.921683    38.795441    88.603291    332.25729   -155.04309    -27.56332    216.07156   -271.19398    55.346352    298.98746   -188.29527   -54691.559    170.14627 
    2500    64.921244    64.921244    64.921244    34.281772    17.649698    261.30722   -225.99621    28.512509    272.17845   -215.14414    56.683109    300.33323   -186.95249   -54690.512    170.54889 
    2550    64.923382    64.923382    64.923382   -23.045063    10.201656    253.79216   -233.37489   -27.908162    215.70751   -271.50757   -51.428684    192.16965   -295.01568   -54695.462     173.7817 
    2600    64.925251    64.925251    64.925251   -48.308893   -27.356417    216.21719   -270.92843   -59.004134    184.61514   -302.62244   -58.566128    185.03389   -302.15458   -54684.581    169.53976 
    2650    64.923828    64.923828    64.923828    10.772066    50.569126    294.18603   -193.05023    45.072755    288.66544    -198.5252   -63.325684    180.28987   -306.94801   -54689.739     172.8804 
    2700    64.922631    64.922631    64.922631    41.503128    77.608484    321.32134    -166.0996    6.0269148    249.74282    -237.6849    40.873986    284.58041     -202.833   -54685.948    171.98139 
    2750    64.924507    64.924507    64.924507    13.926302    66.564428    310.21889   -177.07777   -22.106717    221.55535   -265.75595   -2.6788067    240.97719   -246.32264   -54685.371    172.60524 
    2800    64.926105    64.926105    64.926105   -66.900793   -34.640355    208.90486     -278.178   -42.237189    201.32383   -285.79436   -123.82483    119.75843   -367.40133   -54688.938    175.19563 
    2850    64.925298    64.925298    64.925298     23.63414     30.31689    273.92381     -213.298    21.432216    265.10259   -222.23878    19.153315    262.75979     -224.459   -54683.681    173.61182 
    2900    64.925171    64.925171    64.925171   -9.5255578    28.788704    272.44114   -214.86284    12.687064    256.31209   -230.93729   -70.052441    173.58237   -313.69514   -54687.397     176.2641 
    2950    64.925703    64.925703    64.925703    27.226991    123.72234    367.35839   -119.89758    1.9493504    245.61208   -241.70763   -43.990714    199.70677   -287.67833   -54679.695    173.52513 
    3000    64.927642    64.927642    64.927642   -36.160513   -28.962985    214.62409   -272.53888   -26.459715    217.12239   -270.02321    -53.05884    190.57651   -296.67031   -54680.506    174.80889 
    3050    64.927529    64.927529    64.927529   -19.919289    6.7113271    250.26133   -236.83102   -25.882011    217.70354   -269.46442   -40.587182    203.00095   -284.16918   -54684.291    177.49718 
    3100    64.926679    64.926679    64.926679     26.36626     10.20864    253.78013   -233.36794    56.829536    300.44769   -186.79649    12.060605    255.68574   -231.57014   -54680.729    176.71487 
    3150    64.927597    64.927597    64.927597    23.887023    91.138758    334.77452   -152.49119    33.787624    277.47028   -209.88423   -53.265313    190.40784   -296.93734   -54674.957    174.88876 
    3200    64.928549    64.928549    64.928549   -51.345938   -23.670471    219.88603   -267.22117   -110.14189    133.43372   -353.70763   -20.225453    223.37619   -263.81906   -54681.883    179.06425 
    3250    64.928117    64.928117    64.928117   -2.1282022    37.496193    281.09731   -206.09876    12.411412    256.04113   -231.21715   -56.292212    187.34043   -299.91793   -54679.173    178.68206 
    3300    64.928624    64.928624    64.928624   -35.413114    8.7917753    252.42213   -234.83864   -30.015144    213.60938   -273.63542   -85.015972    158.64966   -328.67681   -54675.925    178.04877 
    3350    64.928311    64.928311    64.928311     38.55506    18.417377    262.02936   -225.19901    69.743563    313.33705   -173.85063    27.504238    271.13025   -216.12501   -54680.779    181.24606 
    3400    64.930178    64.930178    64.930178    10.079993    96.853272    340.52237   -146.80678    -6.139849    237.56137    -249.8326   -60.473445    183.22062   -304.15844   -54667.172    175.71509 
    3450    64.931797    64.931797    64.931797   -83.382733   -136.49785    107.08637   -380.07207   -43.562348     200.0561   -287.17128   -70.087997    173.53282   -313.70091   -54673.118    179.42886 
    3500    64.929604    64.929604    64.929604    47.192489    124.85847     368.4441   -118.71762    52.720913    296.35861   -190.90987   -36.001915    207.65216   -279.64277   -54673.413    180.46486 
    3550    64.928961    64.928961    64.928961    60.043325    57.026722    300.69676   -186.64509    67.763949     311.4117   -175.88102    55.339305    298.98212   -188.30348    -54669.87    179.70124 
    3600    64.930874    64.930874    64.930874   -19.510368    36.514866     280.1418   -207.10651     1.265272    244.92943   -242.39557   -96.311242    147.32681   -339.94566   -54671.363    181.30673 
    3650    64.932912    64.932912    64.932912    -66.82066   -40.386328    203.20379   -283.96119   -80.966851    162.66848   -324.58452   -79.108803    164.50083   -322.69784   -54672.023    182.51599 
    3700    64.932336    64.932336    64.932336   -52.111219   -69.255911    174.34354   -312.84589   -13.105938    230.50886   -256.70817   -73.971809    169.68745   -317.62331   -54670.176    182.54705 
    3750    64.930113    64.930113    64.930113    66.161664    117.67797    361.33331   -125.98211    42.797297    286.44437   -200.85481    38.009729    281.70796   -205.69206   -54668.531    182.67233 
    3800    64.932039    64.932039    64.932039    18.378685    55.199993    298.86725   -188.46638   -36.253423    207.41037   -279.92207    36.189486    279.86209   -207.48516   -54665.402    182.09586 
    3850    64.935035    64.935035    64.935035   -69.920649   -64.191715      179.391   -307.76661    -22.28254    221.34889   -265.90725   -123.28769    120.32597   -366.89516   -54664.839    182.73132 
    3900    64.934425    64.934425    64.934425    -44.84433   -35.855783    207.66891   -279.37135   -93.038511    150.54556   -336.61872   -5.6386941    237.93074   -249.20034   -54666.355     184.3493 
    3950    64.931657    64.931657    64.931657    108.12242    86.347834    330.05828   -157.36234    164.11022    407.78047   -79.554274    73.909222    317.60349   -169.78175   -54661.144    182.79497 
    4000    64.933259    64.933259    64.933259    39.562897    127.60877    371.27105   -116.04858    1.1038606    244.75249    -242.5402    -10.02394    233.64944   -253.69888   -54661.847    184.02281 
    4050    64.936337    64.936337    64.936337   -69.141502    -76.55805    167.06109   -320.17747   -79.516737    164.08865   -323.11946    -51.34972    192.24861   -294.93974   -54661.831    184.91911 
    4100    64.935494    64.935494    64.935494   -10.468708    33.629516    277.23618   -209.96027   -9.1546272     234.4626   -252.75975   -55.881013    187.75631   -299.50594   -54660.637    185.25636 
    4150    64.933871    64.933871    64.933871    55.054712    50.669504    294.23445   -192.88046    23.079217    266.68537   -220.51621    91.415416    335.06194   -152.21473   -54662.305     186.9483 
    4200    64.935075    64.935075    64.935075    3.1453102    17.354796    260.96789   -226.25506     31.65033    275.31002   -212.00208   -39.569196    204.09687   -283.23537   -54658.337    185.97588 
    4250    64.937269    64.937269    64.937269   -41.894341   -3.4751109    240.13352   -247.08247   -106.35189    137.26384   -349.96859   -15.856028    227.81813   -259.53072   -54657.387    186.42258 
    4300    64.937412    64.937412    64.937412   -35.988985   -46.890645    196.68953    -290.4787   -42.239804    201.35027    -285.8273   -18.836507    224.76969   -262.44379   -54659.204    188.18522 
    4350    64.935136    64.935136    64.935136    66.759734    77.269333    320.92137    -166.3802      76.7378    320.43104   -166.95424    46.272068    289.94758    -197.4009   -54650.597    185.02228 
    4400     64.93534     64.93534     64.93534    93.381852    92.748074    336.43391   -150.93201    74.142821     317.8536   -169.55696    113.25466    356.91258   -130.39273   -54652.897    187.00939 
    4450    64.939127    64.939127    64.939127   -91.106412   -90.393474    153.17332   -333.94627   -83.919238    159.64573   -327.48108   -99.006524     144.5678   -342.57555   -54656.436    189.58001 
    4500    64.939677    64.939677    64.939677   -79.280601   -121.88204    121.65396   -365.40967   -88.768847    154.78512    -332.3185   -27.190916    216.44476   -270.81217   -54654.833    189.72476 
    4550    64.936566    64.936566    64.936566     32.35499    58.160484    301.81072   -185.47584   -14.927284    228.75537   -258.58825     53.83177    297.48973   -189.81483   -54653.784     190.1291 
    4600    64.936176    64.936176    64.936176    69.227021    114.12137    357.71213   -129.45585    65.541563      309.173   -178.08246    28.018133    271.71326   -215.66809   -54654.577     191.4044 
    4650    64.939875    64.939875    64.939875   -28.558605   -4.4595293    239.15806   -248.08666   -63.125106    180.50262   -306.75634    -18.09118    225.49715   -261.68445   -54649.696    190.00281 
    4700    64.941468    64.941468    64.941468   -132.70997   -80.856125    162.68921   -324.40007   -140.19142    103.40492    -383.7891   -177.08238    66.501224   -420.67174   -54649.487    190.79744 
    4750    64.938078    64.938078    64.938078    101.26554    131.75744     375.4085   -111.87812    65.147046    308.82116   -178.52076    106.89212    350.59235   -136.79609   -54647.781    190.89352 
    4800    64.938802    64.938802    64.938802    59.602532    107.84034    351.48311   -135.79362    33.453505    277.07992   -210.16017    37.513747    281.17647   -206.13793   -54647.109    191.47364 
    4850    64.942227    64.942227    64.942227   -58.039397   -13.889691    229.67179   -257.45189   -108.10035    135.46552   -351.66518   -52.128147    191.49837   -295.75277    -54644.85    191.30938 
    4900    64.942279    64.942279    64.942279   -86.126851    -74.33397    169.25653   -317.91672   -78.311838    165.24643   -321.86246   -105.73475    137.84566   -349.30911    -54649.93    194.60258 
    4950    64.938904    64.938904    64.938904    121.18702    153.78082    397.48007   -89.914154     125.0405    368.73006   -118.64173    84.739739     328.4328   -158.94333   -54639.826    190.73082 
    5000    64.940474    64.940474    64.940474    39.941221    104.49265    348.11758   -139.13149    3.2738964    246.95904   -240.40616    12.057119    255.72411   -231.60688   -54644.714    193.93713 
    5050    64.944344    64.944344    64.944344   -69.899311    13.546292    257.09551    -229.9981    -113.7666    129.79253   -357.32161   -109.47762    134.10608   -353.05157   -54642.743    193.90385 
    5100    64.944311    64.944311    64.944311   -49.087349   -32.070386     211.4621   -275.58625   -79.668453    163.89906   -323.22582   -35.523208    208.04422   -279.08085   -54642.432    194.65556 
    5150    64.941672    64.941672    64.941672     53.30495    133.34082    376.91637   -110.23647   -33.421968    210.20544   -277.04075    59.995996    303.66561   -183.67773   -54640.014    194.41031 
    5200    64.942455    64.942455    64.942455    40.272807    44.546297    288.16467   -199.07075    41.094698    284.70366   -202.51594    35.177426    278.84142   -208.48207   -54642.183    196.32928 
    5250    64.945095    64.945095    64.945095   -49.669905    7.0054855    250.62254   -236.60025   -66.160589    177.48737   -309.79682   -89.854611    153.79554   -333.48772   -54635.589    194.11219 
    5300    64.944947    64.944947    64.944947    5.0988099    57.033906    300.63078   -186.55011    4.1364344    247.76747   -239.47992   -45.873911    197.74187   -289.47758   -54635.423    194.92456 
    5350    64.944154    64.944154    64.944154   -10.270997   -3.0025937    240.53964   -246.53972   -33.336722    210.22893   -276.90191    5.5263246    249.10166   -238.04359   -54640.661    198.29749 
    5400      64.9439      64.9439      64.9439    12.283463    99.403511    343.00859   -144.19844   -12.670129    230.94279   -256.28383   -49.882993    193.74517   -293.51295   -54639.041    198.43201 
    5450    64.945657    64.945657    64.945657   -21.563725     18.94493    262.53295   -224.64077   -62.425036    181.16386   -306.01424    -21.21107    222.43954   -264.85996   -54636.863    198.29288 
    5500     64.94652     64.94652     64.94652   -37.181305   -14.514438    229.07787   -258.10539   -48.856993    194.76119   -292.46519   -48.172484    195.45514   -291.79913   -54633.407    197.55327 
    5550    64.945216    64.945216    64.945216    53.996136    74.969407    318.58736   -168.64117    44.219327    287.84296   -199.39627    42.799673     286.4802   -200.86772   -54631.854    197.71413 
    5600    64.945613    64.945613    64.945613    55.025469    19.866462    263.48804   -223.74842    96.117746    339.79512   -147.54852    49.092198    292.76426   -194.57122   -54628.693    197.11657 
    5650    64.948095    64.948095    64.948095   -49.138611   -63.701111     179.9257   -307.31253   -1.0801871    242.50722   -244.65942   -82.634535    160.96584   -326.22604   -54632.032    199.58039 
    5700    64.948588    64.948588    64.948588   -41.508354   -65.677852    177.83377   -309.18085    14.888239    258.44775   -228.66896    -73.73545    169.82765   -317.29143   -54631.141    200.05337 
    5750    64.946948    64.946948    64.946948    31.945903    42.147432    285.77711   -201.47489     61.69119    305.34418   -181.95271   -8.0009137    235.67246   -251.66629   -54627.945     199.4337 
    5800    64.946659    64.946659    64.946659    42.087954    59.053488    302.69166   -184.58061    98.900102    342.49645   -144.69272   -31.689729    211.98898   -275.36042   -54631.694    202.09915 
    5850    64.949267    64.949267    64.949267   -14.274084   -64.076519    179.50292   -307.64744   -8.7334735    234.85362   -252.31119    29.987741    273.62151   -213.63878   -54627.081    200.80366 
    5900    64.950815    64.950815    64.950815   -75.017577   -62.583115    180.92321   -306.08935   -28.380852    215.16421   -271.92319   -134.08876    109.44099   -377.61849   -54627.922    202.09739 
    5950    64.948563    64.948563    64.948563    43.016864    23.529361    267.15332   -220.09404    104.95146    348.60628   -138.69893   0.56977574    244.22689   -243.08644   -54624.707    201.46218 
    6000    64.948104    64.948104    64.948104     31.80873   -14.897012    228.74158   -258.53075    101.73495     345.3607     -141.883    8.5882487    252.22124   -235.04236   -54626.522    203.20864 
    6050    64.949927    64.949927    64.949927    52.963454    32.797762     276.3692   -210.76056    83.789382    327.40629   -159.82039    42.303218    285.94111   -201.32196   -54622.044    201.98167 
    6100    64.953106    64.953106    64.953106   -87.116688    -42.40576    201.18247   -285.98362   -123.17156    120.41033   -366.73965   -95.772743    147.80683   -339.33874   -54620.703    202.23368 
    6150    64.951555    64.951555    64.951555   -42.642128   -86.849341    156.69971   -330.39815    19.147126    262.72745   -224.43316   -60.224168    183.36195   -303.80752   -54623.606    204.49154 
    6200    64.948846    64.948846    64.948846     101.4011    96.358359    340.00534   -147.28174    136.12392    379.77249   -107.51341    71.721021    315.42014   -171.96927   -54622.736    204.96319 
    6250    64.951467    64.951467    64.951467   -12.139176   -33.221793    210.39176   -276.82748    15.947459    259.51629   -227.61524   -19.143193    224.45382   -262.73317   -54621.307    205.17637 
    6300    64.954438    64.954438    64.954438    -48.92492   -66.028088    177.51408   -309.56672   -73.103334     170.4268   -316.63372   -7.6433381    235.97379   -251.25053   -54618.545    204.75341 
    6350    64.953536    64.953536    64.953536   -70.277798   -71.175085    172.40621   -314.74811   -30.213583     213.4352   -273.85115   -109.44473    134.08225   -352.96532   -54619.706     206.1864 
    6400    64.949736    64.949736    64.949736    103.05567    55.216393    298.85927   -188.41638    171.97203       415.62     -71.6706    81.978582    325.70087   -161.73754   -54617.148    205.86201 
    6450    64.951892    64.951892    64.951892     89.43345    88.042117    331.69552   -155.59891     58.11642    301.78041   -185.53891    122.14181    365.85112   -121.56545   -54612.898    204.73224 
    6500     64.95675     64.95675     64.95675   -127.71656   -191.02107     52.45773   -434.49394   -79.245796    164.28392   -322.75747   -112.88282    130.61523   -356.37466   -54618.012    208.03112 
    6550     64.95488     64.95488     64.95488   -17.551408    60.709933    304.30009    -182.8699   -80.943872    162.63744   -324.52128   -32.420284    211.20097   -276.03079    -54612.65    206.37744 
    6600    64.951841    64.951841    64.951841    90.972512    71.266448    314.89841   -172.36514    132.80256    376.37177   -110.76997    68.848532    312.50733   -174.81109   -54616.538    209.09467 
    6650    64.954099    64.954099    64.954099    41.757368     106.6738    350.30855   -136.95374    9.7146118    253.33285   -233.89492    8.8836966    252.55945   -234.77936   -54609.603    206.69332 
    6700    64.958015    64.958015    64.958015   -116.22734   -153.42225    90.158711   -396.98953   -76.616182    166.94635   -320.16625   -118.64358    124.87374   -362.14572   -54611.408    208.42506 
    6750    64.955624    64.955624    64.955624    23.155986    45.882826     289.4556   -197.68821    72.588369    316.19249   -171.01207   -49.003237     194.6566   -292.66186    -54607.86    207.62494 
    6800    64.953303    64.953303    64.953303    85.918223    81.856804    325.43342   -161.71642    65.477807    309.12167   -178.16201    110.42006     354.0918   -133.25232   -54610.555    209.77512 
    6850    64.955954    64.955954    64.955954     22.26937    81.092069    324.67644   -162.48623     22.04334    265.60454   -221.50572   -36.327298    207.25824   -279.90049   -54610.298    210.53078 
    6900    64.959266    64.959266    64.959266   -68.929974   -8.9623161    234.57024   -252.49422   -54.435277    189.09861   -297.96676   -143.39233    100.18978   -386.97286   -54606.804    209.75419 
    6950    64.957736    64.957736    64.957736   -50.106943   -43.828659    199.75042   -287.40849   -49.204783     194.3413   -292.75338   -57.287388    186.34104   -300.92266   -54607.424    210.91535 
    7000    64.955119    64.955119    64.955119    66.106542    126.84725    370.45763   -116.74567    42.835122    286.47267   -200.78911    28.637257    272.35527   -215.06789   -54608.173    212.14154 
    7050    64.957113    64.957113    64.957113    14.178771   -10.531493    233.06032   -254.10544     12.91696    256.54844   -230.70222    40.150847    283.79105   -203.46509   -54605.028    211.52693 
    7100    64.960167    64.960167    64.960167   -72.807998    36.591937    280.12147   -206.93687   -62.916229    180.59475   -306.42126    -192.0997    51.501153   -435.68772   -54604.558    212.17661 
    7150    64.959254    64.959254    64.959254   -61.602376   -64.900808    178.65929   -308.45146   -59.364545     184.1701   -302.89803   -60.541776    183.05713   -304.13493    -54604.23    212.89088 
    7200    64.956254    64.956254    64.956254    123.54552    172.55629    416.20594   -71.085434     125.6326    369.27797   -117.99999    72.447667    316.10991   -171.21281   -54601.514    212.47574 
    7250    64.958404    64.958404    64.958404    58.923703    30.988235    274.62482   -212.64301     80.87632    324.48677   -162.72771    64.906554    308.52429   -178.70737   -54599.125    212.21684 
    7300     64.96229     64.96229     64.96229   -98.770076   -20.970111    222.57534   -264.51121   -83.883167    159.67123   -327.43293   -191.45695    52.178297    -435.0783   -54598.515    212.78935 
    7350    64.960905    64.960905    64.960905   -48.813418   -21.658323    221.94429   -265.25513   -84.170425    159.41715   -327.74588   -40.611506    203.02541    -284.2417   -54599.816    214.26976 
    7400    64.956877    64.956877    64.956877    126.33988    165.69152    409.37911   -77.979604    122.38108    366.01234     -121.236    90.947045    334.57804   -152.67471   -54598.449    214.48916 
    7450    64.958832    64.958832    64.958832    79.562026    94.172815    337.76018    -149.4022    126.77827    370.40066   -116.83834     17.73499    261.32839   -225.84284   -54598.011    215.14879 
    7500    64.963965    64.963965    64.963965   -108.14718   -122.40196    121.06641   -365.86454   -97.702153    145.82029   -341.22133   -104.33742    139.17915   -347.85036   -54597.667    215.84659 
    7550    64.963119    64.963119    64.963119   -66.917066   -123.84621    119.74478   -367.43566   -11.914177    231.63647   -255.45793    -64.99081     178.6586   -308.63771   -54595.285    215.57796 
    7600    64.959538    64.959538    64.959538    66.182822    80.537476    324.21169   -163.13204    50.738374    294.40279   -192.91563    67.272616    310.97949   -176.43182   -54596.151    216.84442 
    7650    64.960724    64.960724    64.960724    30.184446    76.181654    319.77269   -167.40278    58.596622    302.18474   -184.98133   -44.224938       199.38   -287.82189   -54597.493    218.33962 
    7700    64.965031    64.965031    64.965031   -87.136511   -135.67695    107.79992   -379.14105   -49.067053    194.44589   -292.57342   -76.665531    166.83384   -320.15139   -54597.068    218.99381 
    7750    64.964941    64.964941    64.964941   -67.829257    -4.551791    238.92956   -248.02515   -93.850641    149.66483   -337.36943   -105.08534    138.47655   -348.64564   -54593.181    218.01912 
    7800    64.961087    64.961087    64.961087    59.084462     53.88425    297.53914   -189.76327    105.96377      349.601   -137.65989    17.405367    261.11199   -226.29141   -54591.383    218.02061 
    7850    64.961408    64.961408    64.961408    129.13434    169.10718    412.67744   -74.449671    154.37631    397.97812   -89.214344     63.91953    307.60721   -179.75085   -54587.815    217.18921 
    7900    64.966644    64.966644    64.966644      -90.527   -56.006322    187.56805   -299.57572   -34.951149    208.58622   -278.48166   -180.62353     62.94298   -424.18349   -54587.053    217.68133 
    7950    64.966919    64.966919    64.966919   -106.88551   -126.67168    116.86995   -370.20622   -59.131279    184.40174   -302.65903   -134.85356    108.64519   -378.35464   -54590.838     220.3208 
    8000    64.962108    64.962108    64.962108    111.30662    192.95032    436.51197   -50.608896    144.78495    388.43096   -98.859294   -3.8154213    239.85267   -247.47274   -54584.225    218.04898 
    8050    64.962706    64.962706    64.962706    99.051536    146.13755    389.77894   -97.493945    31.099086    274.74645   -212.53124    119.91797    363.63587   -123.78659   -54586.072    219.76756 
    8100    64.968171    64.968171    64.968171   -78.427309   -51.945627    191.54615    -295.4249   -80.759501    162.73486   -324.24673    -102.5768    140.92267    -346.0654   -54587.298    221.19468 
    8150    64.968537    64.968537    64.968537   -64.178991   -81.912039     161.6574   -325.47973   -74.911226    168.64359   -318.45727   -35.713707     207.8188   -279.24495   -54582.599    219.82427 
    8200    64.964494    64.964494    64.964494    92.104704    173.93919    417.56452    -69.67601    107.63883    351.22071   -135.93955   -5.2639033    238.33968   -248.85595   -54583.665    221.16941 
    8250    64.964833    64.964833    64.964833    72.410089    66.179221    309.78342   -177.41654    1.3851638    244.97663   -242.18938    149.66588    393.26816   -93.921975    -54585.43    222.84712 
    8300    64.969376    64.969376    64.969376   -64.261577   -68.923488    174.59231   -312.42421   -50.459042    193.06069   -293.96719     -73.4022    170.18794   -316.98118    -54581.63    221.89378 
    8350    64.970168    64.970168    64.970168   -91.435831   -156.98243    86.471095   -400.42303   -62.571213    180.96127   -306.10134   -54.753852    188.73625   -298.24495   -54585.327    224.48301 
    8400    64.966525    64.966525    64.966525    51.258428    37.938134    281.52692   -205.64763    70.480926    314.09348   -173.12841    45.356225    288.95458    -198.2373   -54581.554    223.53664 
    8450    64.966323    64.966323    64.966323    82.221508    74.386881     318.0077   -169.22803    114.87324     358.5027    -128.7513    57.404405    301.03353   -186.22376   -54577.714    222.55921 
    8500    64.970463    64.970463    64.970463   -48.225571   -25.721192    217.82713   -269.26753   -60.380883    183.16041   -303.91257   -58.574638    185.02138   -302.16573   -54575.849    222.51476 
    8550    64.970816    64.970816    64.970816   -93.884933   -54.857474    188.68198    -298.3901   -160.51152    82.993616   -404.01057   -66.285807    177.28198   -309.83707   -54578.427    224.57104 
    8600    64.967101    64.967101    64.967101    139.11742    146.86257    390.50129   -96.759356    194.69844    438.31684   -48.904017    75.791238    319.40937   -167.81364   -54576.432    224.46243 
    8650    64.969173    64.969173    64.969173    3.1483363    28.738074    272.31226   -214.82372   -56.235821    187.30804   -299.77325    36.942755    280.51755   -206.62355   -54575.691    224.94696 
    8700    64.971854    64.971854    64.971854     -68.7698   -116.10651     127.3697   -359.58283   -5.0011582     238.5389   -248.54157   -85.201734    158.27547   -328.66983   -54579.878    227.75265 
    8750    64.971904    64.971904    64.971904   -67.182553   -63.197209    180.31031   -306.70149    -24.01635    219.50889   -267.53259    -114.3341    129.22986   -357.89272   -54576.258    226.87008 
    8800    64.970052    64.970052    64.970052    79.438675    90.911273    334.53363   -152.70721    91.163107    334.75456   -152.42435    56.241646    299.83685   -187.34594   -54570.121    224.79881 
    8850     64.97149     64.97149     64.97149     13.22576    14.066215    257.60515   -229.46372   -14.538886     229.0682   -258.13517    40.149952    283.78478   -203.47534   -54570.592    225.84808 
    8900    64.972718    64.972718    64.972718   -3.9891204    38.631298    282.11765    -204.8433    21.238026    264.78011   -222.29515   -71.836685    171.69353   -315.35544    -54570.84    226.79338 
    8950    64.972266    64.972266    64.972266    35.810372     99.50172    343.04892   -144.03953   -8.2466299    235.33825   -251.81687    16.176028    259.72265   -227.36614   -54569.553    227.00837 
    9000    64.972546    64.972546    64.972546    10.151834    16.591347    260.22208   -227.03076    46.671421    290.24242   -196.89429   -32.807265     210.7146   -276.31618   -54569.906    227.99736 
    9050    64.973538    64.973538    64.973538   -61.331172   -61.403107    182.11661   -304.90189   -116.17613    127.32674   -359.66601    -6.414278    237.09405   -249.90823   -54571.658    229.64311 
    9100    64.972912    64.972912    64.972912    41.898657    84.868777    328.39607   -158.64361    25.581862     269.1506   -217.97412    15.245331    258.85444   -228.35541   -54568.546    228.99296 
    9150    64.974044    64.974044    64.974044   -12.475464   -97.500023     145.9322   -340.92827    45.822851    289.34872   -197.69284    14.250781    257.77643   -229.27244   -54570.802    230.87494 
    9200    64.975684    64.975684    64.975684   -42.705464   -51.891086    191.64363    -295.4162   -11.814993    231.71992   -255.33552   -64.410313    179.11498   -307.91652   -54567.291    230.03132 
    9250    64.974964    64.974964    64.974964    13.672826    13.271093    256.77809   -230.22476    31.793723     275.2806   -211.67642   -4.0463388     239.4659   -247.54221   -54563.834    229.21413 
    9300    64.974192    64.974192    64.974192    59.414045    87.404883     330.9891   -156.16678     25.10489     268.6642   -218.45033    65.732361    309.31983   -177.84842   -54562.266    229.28623 
    9350    64.975523    64.975523    64.975523    1.2853101   -81.530516     161.9942   -325.05178    32.034216    275.55051   -211.48126     53.35223     296.8875    -190.1812   -54565.811     231.7696 
    9400    64.977052    64.977052    64.977052   -96.691083    -72.77632    170.68144   -316.22273   -117.53051    126.00401   -361.05599   -99.766422    143.73311   -343.25902   -54567.915    233.56933 
    9450    64.975363    64.975363    64.975363    27.965824   -29.616366    213.94362   -273.16862    64.292913    307.90604    -179.3095    49.220926    292.80147   -194.34782   -54560.836    231.03533 
    9500    64.975278    64.975278    64.975278    32.875849    67.225627    310.74138   -176.28154    13.100999    256.62379   -230.40935    18.300919    261.83871   -225.22862   -54561.184    232.00474 
    9550    64.976509    64.976509    64.976509   -20.744073   -20.538339    223.01173   -264.07982   -47.177451    196.36598   -290.71566    5.4835722    249.05737    -238.0833   -54559.204    231.87811 
    9600    64.976106    64.976106    64.976106    94.425025    139.05742    382.55342   -104.43139    92.319146    335.88732   -151.24672    51.898514    295.47685   -191.66756   -54554.641    230.52469 
    9650    64.977299    64.977299    64.977299   -19.565453   -94.840849    148.65496   -338.32744    38.464319    282.01299    -205.0771   -2.3198294    241.22333   -245.85467   -54560.418    234.05496 
    9700    64.977223    64.977223    64.977223    34.853728    79.358394    322.92788   -164.21285    12.645233     256.2219   -230.91844    12.557556    256.13588   -231.01141   -54553.728    231.68887 
    9750    64.978038    64.978038    64.978038   -90.959678   -72.711863    170.82749   -316.24045   -31.803723    211.69017   -275.28841   -168.36345    75.119876   -411.84189   -54563.486    237.09357 
    9800    64.977173    64.977173    64.977173    60.245875    96.567211    340.15371   -147.00527   -10.065643    233.52219   -253.64255    94.236056    337.79152   -149.30699   -54553.737    233.28502 
    9850    64.978769    64.978769    64.978769    -9.645999   -45.986779    197.55133   -289.51001     9.149433     252.6727   -234.35819    7.8993487    251.47354    -235.6622   -54557.067    235.65541 
    9900    64.979198    64.979198    64.979198   -33.031717    29.656642    273.14979   -213.82295   -11.812585    231.69976    -255.3202   -116.93921    126.57757   -360.44613   -54552.233    234.16254 
    9950    64.978203    64.978203    64.978203    62.554349    16.910739    260.41711    -226.5959    62.837329    306.38226   -180.69534    107.91498    351.45566    -135.6164   -54555.542    236.51703 
   10000     64.97967     64.97967     64.97967    31.828521    56.100761    299.62025      -187.41    75.800805    319.31754   -167.69946   -36.416003    207.14246   -279.96776   -54551.297    235.29757 
   10050    64.981801    64.981801    64.981801   -52.862736     14.21204    257.72298   -229.29159   -114.62243    128.86336   -358.10461   -58.177815    185.33344   -301.67476    -54552.58    236.69116 
   10100    64.981127    64.981127    64.981127   -12.936916   -49.443328    194.08712   -292.95897    34.965438    278.48878   -208.55345   -24.332858    219.20853   -267.86737   -54551.557    236.99104 
   10150    64.979724    64.979724    64.979724    54.970747    75.030374    318.59196   -168.52472    47.061192    290.67913   -196.55159    42.820674    286.36048   -200.71142   -54550.064    237.06794 
   10200    64.981265    64.981265    64.981265     15.46661    30.561794    274.06063   -212.92555    15.262408    258.80204   -228.26158    0.5756263    244.15057   -242.99101   -54550.181    237.90143 
   10250    64.983122    64.983122    64.983122   -48.827105    19.773997    263.29489    -223.7284   -134.98479    108.52629   -378.47979   -31.270521    212.23888   -274.77558   -54548.946    238.09972 
   10300    64.983042    64.983042    64.983042    -5.738439   -93.184018    150.32802   -336.68366      11.4012    254.90354   -232.09626    64.567501    308.04771   -178.90288   -54546.775    237.84975 
   10350    64.982695    64.982695    64.982695   -16.447721    20.734412    264.23671   -222.75858   -14.374482    229.12875   -257.86635   -55.703094    187.90323   -299.29633   -54549.214    239.77832 
   10400     64.98193     64.98193     64.98193    54.517596    44.392774     287.9532   -199.15673    31.337576     274.8909   -212.20076    87.822437     331.3476   -155.68918   -54544.677    238.40927 
   10450    64.983325    64.983325    64.983325   -23.488735    85.134561    328.61792   -158.33937   -64.258372    179.25885    -307.7633   -91.342393    152.13625   -334.81453   -54547.768    240.64172 
   10500    64.984392    64.984392    64.984392   -30.345218   -61.109625    182.32611   -304.53959   -5.4884357     237.9846   -248.96534   -24.437593    219.07157   -267.93441   -54547.327    241.20175 
   10550    64.984294    64.984294    64.984294   -3.9050019   -31.725595     211.7264   -275.17975    34.458399     277.9691   -209.05237    -14.44781    229.05872   -257.95069   -54543.044    239.94717 
   10600     64.98362     64.98362     64.98362    73.639837    140.05109     383.6322    -103.5266    51.583083    295.06535   -191.88296    29.285341    272.86137   -214.28478   -54540.571    239.54237 
   10650    64.985282    64.985282    64.985282   -58.570514   -96.819563    146.66553   -340.29489   -92.205685    151.27654   -335.67249    13.313707     256.8195   -230.18096   -54543.497    241.68466 
   10700    64.985165    64.985165    64.985165    17.885728    108.46209    351.98784   -135.05177    26.070146    269.59176   -217.43927   -80.875056    162.60285   -324.34189   -54540.428     240.9996 
   10750    64.985316    64.985316    64.985316    8.2171452   -42.606569    200.85916   -286.05099    12.852897    256.34856   -230.62939    54.405107    298.01511   -189.18183    -54541.11    242.07905 
   10800    64.984934    64.984934    64.984934     32.75143    72.411197    315.96729   -171.13195     5.224387    248.73806   -238.27746    20.618707    264.13622   -222.88343   -54537.746    241.25126 
   10850    64.985818    64.985818    64.985818  -0.72907572    22.929291    266.40897    -220.5347    8.0845054    251.59671   -235.41302   -33.201023    210.29111   -276.67823   -54539.805    242.97649 
   10900    64.987016    64.987016    64.987016   -27.648872    13.052593    256.56514   -230.44906   -72.590281    170.95462   -316.12214   -23.408929    220.05716     -266.865   -54538.878    243.29431 
   10950    64.986831    64.986831    64.986831   -64.524437   -59.257222    184.24964   -302.75331   -55.407794    188.08411   -298.88668   -78.908294    164.61002   -322.41928   -54539.473    244.32358 
   11000     64.98556     64.98556     64.98556    75.421983    140.82559    384.37857   -102.71782    47.409159    290.86575   -196.04282    38.031202    281.60901   -205.53854   -54538.659    244.68781 
   11050    64.987078    64.987078    64.987078   -9.6118611    48.781073    292.32582   -194.75406   -23.345128    220.14157   -266.82463   -54.271529    189.18827   -297.72345    -54534.81    243.61813 
   11100    64.988415    64.988415    64.988415    7.6343537    6.2778872    249.81724   -237.24427   -10.756686    232.79908   -254.29714     27.38186    270.96962   -216.19707   -54532.112    243.08659 
   11150    64.988464    64.988464    64.988464    -14.28932    4.2676763    247.74535   -239.20499   -32.421669    211.04032   -275.87574   -14.713968    228.80547   -258.22214   -54532.926    244.21383 
   11200    64.988042    64.988042    64.988042   -13.729977    49.181478    292.64868   -194.27977   -41.223785    202.24591   -284.68494   -49.147623    194.37444   -292.66512   -54536.763    246.76628 
   11250    64.988561    64.988561    64.988561   0.92007872    37.187587    280.72919   -206.35553     27.15017    270.66068   -216.35278    -61.57752    182.01239   -305.15652   -54533.341    245.89191 
   11300    64.989519    64.989519    64.989519   -2.7644211    38.384863    281.87635   -205.09055    13.273778    256.73787   -230.18175   -59.951904    183.51693   -303.41269   -54532.188    246.08206 
   11350    64.990476    64.990476    64.990476    -41.42969   0.78071385    244.25785   -242.68393   -79.974049    163.46181   -323.39752   -45.095734    198.41446   -288.59284   -54531.696    246.58568 
   11400    64.989317    64.989317    64.989317    17.859973   0.31705247    243.78151   -243.13761    72.940344     316.4131   -170.51415   -19.677476     223.8319   -263.16474    -54531.55    247.24941 
   11450    64.988663    64.988663    64.988663    77.058992    3.3363355    246.91211   -240.22527    51.023486    294.54969   -192.49035    176.81715    420.28476     -66.6429   -54526.938    245.80222 
   11500    64.990973    64.990973    64.990973   -66.176701   -37.080124    206.32893   -280.47924   -24.077929    219.41533   -267.56746   -137.37205    106.15786    -380.8956   -54532.693    249.24502 
   11550    64.991348    64.991348    64.991348     38.27498    -29.22673    214.27805   -272.72304    47.630922    291.10453   -195.83404    96.420747    339.99918   -147.14859   -54523.445     245.6005 
   11600    64.992424    64.992424    64.992424   -60.605003   -9.3494211    234.12493    -252.8122   -46.603818    196.83895   -290.03356   -125.86177    117.62145    -369.3299   -54531.507    250.13245 
   11650    64.990945    64.990945    64.990945    75.478384    136.49148    380.02862   -107.03973    64.770155    308.28416   -178.73589    25.173514    268.64149   -218.27802   -54523.209    246.93655 
   11700    64.991579    64.991579    64.991579    -56.73892   -76.894686    166.62143   -320.39425   -14.117386    229.36295   -257.58344   -79.204688    164.22751   -322.63661   -54528.913    250.35039 
   11750    64.991141    64.991141    64.991141    90.001387    84.196661    327.73772   -159.33443    60.618181    304.15716   -182.90542    125.18932    368.81865   -118.42402   -54522.336    247.95994 
   11800    64.993062    64.993062    64.993062    -57.16093   -86.173468    157.22996   -329.55024    1.5196547    245.04488    -241.9981   -86.828978    156.72853    -330.3684   -54523.312    249.13309 
   11850    64.992282    64.992282    64.992282   -6.4051942    37.997356    281.50073   -205.50006   -39.256087    204.22688   -282.72864   -17.956852    225.48923   -261.38963   -54524.953    250.62454 
   11900     64.99049     64.99049     64.99049    113.86902    164.97168    408.58189   -78.636495    157.80959      401.381    -85.74181    18.825784     262.3711   -224.71603   -54520.135    249.05591 
   11950    64.993815    64.993815    64.993815   -38.693103    23.610862    267.05099   -219.81192   -29.998811     213.4254   -273.41666   -109.69136    133.78537   -353.16105   -54525.197    252.15287 
   12000    64.996279    64.996279    64.996279   -105.67284   -73.673109    169.82467   -317.15609    -70.38373     173.0336   -313.78911   -172.96168    70.462749   -416.36697   -54523.036     251.8378 
   12050      64.9938      64.9938      64.9938   -15.384944   -14.347939    229.06196   -257.74405   -16.477556    227.03033   -259.97466   -15.329337    228.20636   -258.85571   -54521.514    251.82233 
   12100    64.992187    64.992187    64.992187    87.259225    154.53453    398.08417   -89.006196    127.87434    371.44747   -115.68165   -20.631194    222.88511   -264.13609   -54519.814    251.71878 
   12150     64.99532     64.99532     64.99532   -29.226165   -63.511866    179.97366   -306.98103    33.361385    276.80328   -210.06923   -57.528014    185.98657   -301.02589   -54520.847     252.9091 
   12200    64.997238    64.997238    64.997238   -107.13491   -47.785506    195.69833   -291.25413   -141.26296    102.10428   -384.62216   -132.35626    111.07718   -375.78051   -54518.816      252.645 
   12250    64.994406    64.994406    64.994406    21.763478    31.438239    274.87284    -211.9899    60.500877    303.98364   -182.97138   -26.648683    216.86578    -270.1556   -54520.074     253.9338 
   12300    64.993308    64.993308    64.993308    44.872048    67.109629    310.62853   -176.40631    83.098465    326.52506   -160.32045    -15.59195    227.97846   -259.14931   -54518.065    253.67531 
   12350    64.996035    64.996035    64.996035     17.94731    42.039793    285.59692   -201.50545    103.86669    347.44676   -139.69969   -92.064551    151.33432   -335.45319   -54514.093    252.48595 
   12400     64.99859     64.99859     64.99859   -96.427861    -60.75979    182.61782   -304.12711   -54.764982    188.73785   -298.24993   -173.75881    69.648827   -417.15785   -54518.575    255.29035 
   12450    64.996965    64.996965    64.996965   -35.367795   -15.157564    228.29634   -258.60681    -20.06903    223.31223   -263.44279   -70.876791    172.66551   -314.40533   -54515.814    254.66939 
   12500     64.99502     64.99502     64.99502    46.527335    100.69795    344.26139   -142.85147   -7.8554605    235.65019   -251.35337    46.739519    290.27959   -196.78836   -54515.351    255.13318 
   12550     64.99663     64.99663     64.99663    10.488067   -9.6800399    233.76776   -253.11324    68.052841    311.45235   -175.32958   -26.908599    216.60346   -270.40353   -54512.474    254.45546 
   12600    64.998752    64.998752    64.998752   -21.346799    70.919178    314.33077   -172.47677   -76.857179    166.60043   -320.29984   -58.102396    185.32397    -301.5207   -54513.127    255.44341 
   12650     64.99881     64.99881     64.99881    -47.97853   -67.125829     176.3733   -310.62327   -32.988068    210.44258   -276.40718   -43.821693    199.64724   -287.27384   -54510.326    254.79481 
   12700    64.996559    64.996559    64.996559     17.99128    23.333446    266.84095   -220.15063   -11.057725    232.42125   -254.51943    41.698119    285.18935   -201.77958   -54511.652    256.09193 
   12750    64.996803    64.996803    64.996803    71.864473    136.99288    380.47659   -106.46535    50.966505    294.54946   -192.60201    27.634031    271.16062   -215.86567   -54511.964    256.90743 
   12800    65.000501    65.000501    65.000501   -84.067739    3.2954419    246.67384   -240.07386   -125.78042    117.59471   -369.14845   -129.71824    113.61748   -373.05343   -54511.625    257.41836 
   12850    65.000385    65.000385    65.000385   -103.79042   -76.363219    167.12468   -319.84226   -84.208979    159.22724   -327.63409   -150.79907     92.67235   -394.26047   -54509.999    257.31219 
   12900    64.997288    64.997288    64.997288    102.89599    149.97672    393.44512   -93.481668    80.143802    323.63281   -163.33159    78.567438    322.08255   -164.92691   -54508.286    257.16696 
   12950    64.998857    64.998857    64.998857    8.1198202    33.073775    276.49545   -210.33861    10.227067    253.66392   -233.19926   -18.941381    224.57557   -262.45889   -54509.863    258.57239 
   13000    65.001336    65.001336    65.001336     4.148757    50.896081    294.39312   -192.59504   -11.761826    231.71706   -255.22911   -26.687984     216.8017   -270.16142   -54499.798     254.4752 
   13050    65.001213    65.001213    65.001213   -67.543318   -63.408973    180.01909   -306.82635   -68.435593    175.02085   -311.87406    -70.78539    172.61511   -314.17917   -54512.052    260.91953 
   13100    64.999437    64.999437    64.999437    63.374919    18.860217    262.35473   -224.61533    141.22191    384.71444   -102.26489    30.042625    273.60699    -213.5077   -54502.337    256.98134 
   13150    65.001316    65.001316    65.001316    3.0805994    87.551328    330.92229   -155.80393   -47.383658     196.0058   -290.76068   -30.925872    212.59637   -274.42344   -54506.677    259.68345 
   13200    65.003166    65.003166    65.003166   -68.636709   -96.357817    147.06957    -339.7656    -16.01032    227.35862   -259.36942    -93.54199    149.93343   -336.99824   -54504.828    259.45868 
   13250    65.001479    65.001479    65.001479    32.653645    37.521556     280.9947   -205.94522   -16.549132    226.87509   -259.95804    76.988512    320.31667   -166.33633   -54501.264    258.42198 
   13300    65.000468    65.000468    65.000468    76.767082    116.47616    360.01476   -127.05664    106.00672    349.51462   -137.48398    7.8183692    251.29819   -235.66139   -54500.986    258.93216 
   13350    65.002986    65.002986    65.002986   -21.808471   -54.704772    188.68784   -298.09207    15.346278     258.7822   -228.07627    -26.06692    217.42509   -269.53697   -54502.687    260.37581 
   13400     65.00484     65.00484     65.00484   -92.323788   -39.295602    204.06268   -282.64129   -196.96892    46.465953   -440.38712   -40.706841     202.7328   -284.13042   -54502.463    260.90699 
   13450    65.003178    65.003178    65.003178    1.2517954     -52.6411    190.84065   -296.10562    125.13733    368.53698   -118.26558   -68.740845    174.64959   -312.12146   -54500.886    260.79843 
   13500    65.000974    65.000974    65.000974    50.716371    148.11696    391.58887    -95.34352   -137.30827     106.1672   -380.77663    141.34043    384.89325   -102.20337    -54501.01     261.4921 
   13550    65.002346    65.002346    65.002346    2.1239661   -47.708913    195.82963   -291.22959    101.42617    344.95378   -142.07979   -47.345358      196.078   -290.75651   -54500.878    262.05624 
   13600    65.004985    65.004985    65.004985   -20.253338   -22.755128    220.60475    -266.1021   -63.920124    179.45278   -307.28341    25.915238    269.36779   -217.52542   -54496.681    260.70149 
   13650    65.005226    65.005226    65.005226   -87.526899    16.806257    260.24849   -226.62223   -146.15456    97.225039    -389.5165   -133.23239    110.21285   -376.66085   -54501.464    263.58346 
   13700    65.002632    65.002632    65.002632    100.30422    50.569336    294.05121   -192.89235    141.16147    384.60855   -102.26048    109.18186    352.61799    -134.2344    -54494.08     260.7215 
   13750    65.003402    65.003402    65.003402    53.458132    80.512855    323.90015   -162.85715    38.585107    282.05982   -204.87299    41.276434    284.75142   -202.18187   -54497.219    262.82535 
   13800    65.006493    65.006493    65.006493   -76.420954   -104.70327    138.64379   -348.03927   -42.275807    201.09058   -285.63271   -82.283784    161.17704   -325.72698   -54496.528    263.11273 
   13850    65.006436    65.006436    65.006436   -32.329149   -53.062222    190.36156   -296.47989   -39.602029    203.81678   -283.00778   -4.3231964    239.10192    -247.7377   -54494.241    262.64509 
   13900    65.004981    65.004981    65.004981   -53.916576    1.3022331     244.7463   -242.12121     -67.4361    176.04569   -310.90325   -95.615861    147.71759   -338.94109   -54499.937    265.94582 
   13950    65.004154    65.004154    65.004154    77.906495    80.087439    323.66643   -163.47871     65.18167    308.63014   -178.26809    88.450376    331.96157   -155.05248   -54493.826    263.67168 
   14000    65.007407    65.007407    65.007407   -54.849822    60.869217    304.24498   -182.49162    -75.98163     167.3419   -319.29393   -149.43705    93.997543    -392.8688   -54493.804    264.26642 
   14050    65.008317    65.008317    65.008317   -82.389115   -137.87714    105.36462   -381.11044   -10.521322    232.84936   -253.88063   -98.768883    144.69327   -342.21371   -54495.404    265.62948 
   14100    65.005065    65.005065    65.005065    95.948196    170.79844    414.27075   -72.659249   -9.6166365    233.92381   -253.14022    126.66278    370.17464   -116.82875   -54486.898    262.21159 
   14150    65.005911    65.005911    65.005911    22.082133    11.546444    254.95108   -231.84564    75.970525    319.50578   -167.54938   -21.270569    222.20847   -264.73726   -54491.383    264.92977 
   14200    65.007937    65.007937    65.007937    -58.42636   -48.734901    194.65477   -292.11889   -53.355011    189.97131   -296.66638   -73.189167    170.16445   -316.53311    -54493.35    266.45756 
   14250    65.007679    65.007679    65.007679   -16.233876    41.610205    285.04029   -201.79922   -20.009525    223.33749   -263.33544   -70.302309    173.10435   -313.68755   -54491.672     266.2579 
   14300    65.006925    65.006925    65.006925   -10.505199   -65.579534    177.80899   -308.95097    40.409526    283.83893   -203.00048    -6.345588    237.17518   -249.84701   -54490.655    266.36794 
   14350     65.00673     65.00673     65.00673    49.075549    142.86479    386.32993   -100.58781   -19.692486    223.81261   -263.18296    24.054345    267.47191   -219.34468   -54488.047    265.72215 
   14400    65.007994    65.007994    65.007994    16.710179   -15.138417    228.27282   -258.53554    68.778712     312.1784   -174.61167   -3.5097587    239.90349   -246.91418   -54484.438    264.60465 
   14450     65.00909     65.00909     65.00909    -43.69426    59.878317    303.30259   -183.52986   -64.010641    179.41091   -307.41764   -126.95046    116.57462   -370.46113   -54488.473     267.0934 
   14500    65.007568    65.007568    65.007568   -10.921023    2.7990137     246.1959   -240.59561    -23.74924    219.64739   -267.12961   -11.812844     231.6635   -255.26877   -54488.713    267.78771 
   14550     65.00719     65.00719     65.00719    3.3504138    35.229775     278.6513   -208.17323   -52.289683     191.1523   -295.71776    27.111149    270.50012   -216.26495   -54493.302    270.53229 
   14600    65.009272    65.009272    65.009272   -15.108985    15.452593    258.88845    -227.9669    22.641124    266.07965   -220.78613   -83.420671    160.00741   -326.83382   -54486.244    267.77634 
   14650    65.010254    65.010254    65.010254   -91.752327   -112.91136    130.41705   -356.22713   -12.490619    230.87094   -255.84641     -149.855    93.498774   -393.19758   -54489.729    269.99201 
   14700    65.008623    65.008623    65.008623    85.935015    103.89113    347.31476   -139.52269    114.02415     357.5553   -129.48766    39.889762    283.44465   -203.65176   -54482.595    267.18902 
   14750    65.010609    65.010609    65.010609   -10.552316   -25.817004    217.51262   -269.13855   -7.4034931    235.93885    -250.7296    1.5635486    244.96371   -241.82798   -54484.105    268.46838 
   14800    65.011172    65.011172    65.011172   -47.559096   -54.341083    189.12702   -297.79085   -36.163334     207.2404   -279.56872   -52.172872    191.26324   -295.60362   -54480.067    267.12621 
   14850    65.009108    65.009108    65.009108    54.944294    89.664882    333.14463   -153.79316    58.201578    301.64133    -185.2188    16.966422    260.45734   -226.50694   -54481.505    268.36541 
   14900    65.009679    65.009679    65.009679    26.792246    3.1491432    246.56488   -240.24276    3.1822088    246.60275   -240.22216    74.045387    317.44608   -169.32908   -54484.666    270.42309 
   14950    65.011485    65.011485    65.011485     -1.65824    22.471889      265.911   -220.95335   -38.017178    205.49744    -281.5137    10.570569     253.9831   -232.82764   -54482.398    269.90664 
   15000    65.013386    65.013386    65.013386   -138.37133    -245.5056   -2.2435298    -488.7571   -95.591916    147.81452   -338.98104   -74.016473    169.37388   -317.38769   -54483.589    271.02236 
   15050    65.010453    65.010453    65.010453    45.442243    69.425153    312.80211   -173.94017   -22.447442     221.0036   -265.87593    89.349019     332.7805   -154.07117   -54479.846    269.80891 
   15100    65.008626    65.008626    65.008626    171.93128     184.4324    427.92803    -59.04886    223.31028    466.71441   -20.085418    108.05117    351.50222   -135.38296   -54474.735    267.94472 
   15150    65.012947    65.012947    65.012947   -62.118027    31.027039    274.45622   -212.38612   -110.53104    132.88208   -353.93106   -106.85008    136.53992   -350.23275   -54480.106    271.02554 
   15200     65.01491     65.01491     65.01491   -66.311121   -84.115941    159.22554   -327.45225   -60.521713    182.81637   -303.84862   -54.295709    189.06786   -297.64639   -54480.086    271.55623 
   15250    65.013048    65.013048    65.013048   -58.251712   -25.907238    217.38656   -269.19101    -153.8837    89.570329   -397.32563    5.0358001    248.51275   -238.43209   -54480.336    272.21323 
   15300     65.01022     65.01022     65.01022    107.10497      37.3931    280.89299   -206.09395    172.90603    416.40337   -70.578839     111.0158    354.43508   -132.38038   -54476.409    270.89648 
   15350    65.013048    65.013048    65.013048    6.9630288    22.901903     266.3536   -220.52927    75.518397    318.95539   -167.90263   -77.531213     165.8704   -320.91377   -54475.588    271.04423 
   15400    65.015961    65.015961    65.015961   -120.74608   -133.19286     110.1608   -376.52176     -44.9016    198.48317   -288.26351   -184.14377    59.208282   -427.48114   -54478.254    272.83791 
   15450    65.012506    65.012506    65.012506    62.279189    110.93293    354.22123   -132.34393    79.757232    323.21175   -163.67767   -3.8525983     239.5677   -247.25344   -54473.458    271.10258 
   15500    65.011012    65.011012    65.011012    32.563301    51.581586    295.03292   -191.85101    55.233134      298.622   -188.13612    -9.124819    234.28141   -252.50782   -54478.992    274.24166 
   15550    65.012798    65.012798    65.012798    38.679001    28.254017    271.78744   -215.26076   -31.997597    211.39829   -275.38179    119.78058    363.19826   -123.61845   -54472.023    271.47045 
   15600    65.015475    65.015475    65.015475   -113.00022   -43.503041    199.84186   -286.82489   -86.961572    156.42625   -330.33145   -208.53606    34.843172   -451.91343   -54479.229    275.39123 
   15650    65.013988    65.013988    65.013988    33.516209   -38.392273    204.98095   -281.75651    126.62597    370.18301   -116.92233    12.314932    255.80204   -231.15505   -54470.365    271.72068 
   15700    65.013892    65.013892    65.013892   -12.483284    11.545993    255.02993   -231.93131   -3.2541272    240.12588   -246.62174   -45.741718    197.58065   -289.04822   -54475.236    274.53773 
   15750    65.014695    65.014695    65.014695   -6.2480269   -50.028596    193.35021   -293.38884      86.6567    329.95813   -156.62818   -55.372184    188.05732   -298.79263   -54475.806    275.32212 
   15800    65.015646    65.015646    65.015646   -2.5484339    22.841249    266.20214    -220.5036   -24.440238    218.98581   -267.85599    -6.046313     237.3872   -249.46991   -54467.724    272.01642 
   15850    65.015739    65.015739    65.015739    1.7944996    -18.91172     224.5105   -262.32227    72.310908    315.70181    -171.0642   -48.015689    195.31199   -291.33004   -54470.857    274.00323 
   15900    65.015554    65.015554    65.015554   -22.324492    42.314653    285.67904   -201.04054   -46.172967    197.25014   -289.58459   -63.115161    180.29446   -306.51049   -54473.953    275.97205 
   15950    65.015689    65.015689    65.015689    6.6346471   -59.165953    184.23625   -302.54794    86.173101    329.54465   -157.18066   -7.1032074    236.22336   -250.41078   -54472.437    275.75768 
   16000    65.017294    65.017294    65.017294   -56.727692    7.0934448    250.44144   -236.23953      33.9819    277.32771   -209.33552   -211.25842    32.164334    -454.6572   -54473.437    276.72743 
   16050    65.017123    65.017123    65.017123   -5.0597154   -79.497209    163.88644    -322.8715    97.820092    341.24506    -145.5877   -33.502029     209.8943   -276.87909   -54467.162    274.26088 
   16100    65.015248    65.015248    65.015248    41.651353     4.521986    247.96532    -238.9134     90.75755     334.1365   -152.61358    29.674523    273.10394   -213.74183   -54468.167    275.22757 
   16150      65.0158      65.0158      65.0158     70.35859    117.00293    360.41003   -126.38896    52.631225    296.11193   -190.83088    41.441612    284.76068   -201.86937   -54469.126    276.16838 
   16200    65.019601    65.019601    65.019601   -52.930759   -85.384887      158.023    -328.7686    80.048282    323.41947   -163.30956   -153.45567    89.918651   -396.81419   -54463.959    274.21704 
   16250    65.019243    65.019243    65.019243   -36.847298    89.317408     332.6665   -154.00473   -141.29634    102.04278   -384.62918   -58.562959    184.84804   -301.95415   -54466.691    275.99277 
   16300    65.015942    65.015942    65.015942    37.740344    59.871175    303.23288   -183.48014    118.66012    362.09444   -124.76103    -65.31026     178.1495   -308.75758   -54468.963     277.5491 
   16350    65.015859    65.015859    65.015859    25.590161    19.363696    262.77755   -224.03935    48.932505    292.40795   -194.52022    8.4742814    251.86354   -234.89859   -54470.586    278.79459 
   16400    65.019289    65.019289    65.019289   -36.130788   -30.778719    212.50307   -274.03918   -22.302117    221.05704   -265.64638   -55.311528    187.99075   -298.58859   -54465.101    276.68149 
   16450    65.019655    65.019655    65.019655   -51.876899    21.975224    265.38059    -221.4122   -37.736349    205.56942   -281.02618   -139.86957    103.55058   -383.27089   -54464.084    276.67642 
   16500    65.016357    65.016357    65.016357    53.143815   -32.704092    210.74641   -276.13922    112.16924    355.57134   -131.21302    79.966299    323.39046   -163.44719   -54465.108    277.62941 
   16550    65.016166    65.016166    65.016166    53.266236    92.772185    336.05593   -150.49776     125.1644    368.66842   -118.33012   -58.137875    185.29381   -301.55278   -54465.601     278.3304 
   16600    65.019552    65.019552    65.019552   -43.767156    -83.60245    159.79781   -326.98578   -39.139157    204.30763   -282.56973   -8.5598615    234.77631   -251.87913   -54464.971    278.49631 
   16650    65.021155    65.021155    65.021155    -105.7246   -102.60175    140.79382   -345.97613   -121.21079    122.14713   -364.54689    -93.36126    149.88758   -336.58623   -54465.836     279.3687 
   16700    65.018198    65.018198    65.018198    1.1595646    32.816794    276.20044   -210.55059   0.81236229    244.26035   -242.61582   -30.150462    213.22025   -273.50119   -54463.255     278.6116 
   16750    65.016691    65.016691    65.016691    114.15962    128.41353    371.80948   -114.95975    201.63827    445.14291   -41.846789     12.42704    255.90648   -231.03898   -54460.817    277.91766 
   16800    65.020568    65.020568    65.020568   -27.240336   -30.322576    213.02132   -273.64414   -32.303891    211.01375   -275.60015    -19.09454    224.35432   -262.53218   -54460.945    278.43255 
   16850    65.021841    65.021841    65.021841   -64.657536    3.4651342    246.79238   -239.85881   -154.27829    89.069774   -397.61047   -43.159447    200.01518   -286.31555   -54459.184    278.05516 
   16900    65.018923    65.018923    65.018923    31.536944    28.778775    272.20096   -214.62976    80.439998     323.8479   -162.94992   -14.607942    228.75947   -257.96019   -54462.847    280.23138 
   16950    65.018714    65.018714    65.018714    15.449823    41.991716    285.36421   -201.36812    66.823474    310.24417   -176.59184    -62.46572     180.9543   -305.86348   -54464.573    281.49096 
   17000    65.021634    65.021634    65.021634   -63.182172   -96.269591    147.07585   -339.60159   -45.908221    197.55089   -289.35045   -47.368703    196.03737   -290.76543   -54460.865    280.18194 
   17050    65.022022    65.022022    65.022022   -16.494168     25.14977     268.4177   -218.10006   -37.266088    206.01445    -280.5251   -37.366184    205.97771   -280.70042   -54457.345     278.9623 
   17100    65.020008    65.020008    65.020008    56.617963    28.223817    271.59858   -215.13969     90.17647    333.69066   -153.32058    51.453603    294.82597   -191.89258   -54456.888    279.18476 
   17150    65.020185    65.020185    65.020185    28.324724    6.0551605    249.48784   -237.35778    42.956623    286.38851   -200.46513    35.962388    279.40974   -207.47473   -54458.833    280.54062 
   17200    65.021797    65.021797    65.021797    8.6741434   -20.626293    222.70756   -263.94163    68.754095    312.08194   -174.55803   -22.105372    221.16744   -265.35957   -54459.035    281.06904 
   17250    65.023447    65.023447    65.023447   -71.032762   -119.17381    124.17535   -362.49219   -83.733662    159.57973   -327.02015   -10.190813    233.30559   -253.66499   -54455.991    280.06118 
   17300    65.021845    65.021845    65.021845   -5.6163435    54.636653    297.93954    -188.6477    7.3550402    250.62885   -235.90114   -78.840723     164.5651   -322.21989   -54456.984    280.96098 
   17350     65.02034     65.02034     65.02034    88.800759    32.341657    275.75075   -211.05144     115.5278    359.05035   -127.98014    118.53282    361.82838   -124.74457   -54458.764    282.22728 
   17400    65.023046    65.023046    65.023046   -5.7676901      48.9984     292.3197   -194.30644   -23.567438    219.81439   -266.92862   -42.734032    200.59477   -286.05412   -54455.673    281.18768 
   17450    65.024608    65.024608    65.024608   -41.019949   -83.642371     159.7231   -326.98944   -29.417055    213.88943   -272.70404   -10.000421    233.31865    -253.3091    -54453.27     280.4691 
   17500     65.02279     65.02279     65.02279   -52.294393    -33.37452    209.91618   -276.64724    -29.87695    213.48467   -273.22115   -93.631709    149.76459   -337.01244   -54458.585    283.39456 
   17550    65.020522    65.020522    65.020522    74.425778    45.614875    289.09407    -197.8558    138.54904    381.98166    -104.8657    39.113422    282.51522   -204.26863   -54455.654    282.42222 
   17600    65.023053    65.023053    65.023053   -3.0265697     14.29652    257.68217    -229.0737    41.061451    284.39979   -202.26747    -64.43768    178.87929   -307.73785   -54455.987    282.99059 
   17650    65.026162    65.026162    65.026162   -61.866777    41.605945    284.88675   -201.65707   -121.00946    122.28532   -364.29048   -106.19681    137.12665   -349.50952       -54455    282.93211 
   17700    65.025161    65.025161    65.025161   -70.109818    -100.8315    142.46662   -344.11279   -34.257856    209.07293    -277.5749   -75.240099    168.12426   -318.58731   -54454.496    283.09927 
   17750    65.020543    65.020543    65.020543    140.04881    88.171814    331.54847   -155.19313    192.11292    435.54978   -51.298292    139.86169    383.30276   -103.56617   -54448.636    280.73391 
   17800    65.022824    65.022824    65.022824    80.183471    156.23188    399.54189   -87.061598    166.11584    409.56155     -77.3193   -81.797306    161.61615   -325.18747   -54453.477    283.42088 
   17850    65.028151    65.028151    65.028151   -132.35297   -109.85814    133.52666   -353.22116   -77.842986    165.32568   -320.99676    -209.3578    33.884778   -452.57892   -54453.098    283.64068 
   17900    65.026241    65.026241    65.026241   -87.127413   -77.685703    165.64561   -320.99674   -75.027213    168.38568   -318.41466   -108.66932    134.66467   -351.98041   -54452.402    283.70515 
   17950    65.021543    65.021543    65.021543    116.01116    71.111783    314.43432   -172.19046    151.36528    394.78283   -92.024283     125.5564    368.96892   -117.83232   -54452.462    284.12895 
   18000     65.02299     65.02299     65.02299     61.98417    23.133061    266.53559   -220.25321    115.84368    359.25199   -127.54587     46.97577    290.41396   -196.44594   -54451.506    284.06771 
   18050    65.027859    65.027859    65.027859   -73.919943   -95.352754    147.85692    -338.5485   -44.458946     198.8371   -287.73935   -81.948129    161.26808   -325.14267   -54449.265    283.39432 
   18100    65.028024    65.028024    65.028024   -60.713176   -62.679673    180.69601   -306.02882   -31.397564    211.84354   -274.62598   -88.062291     155.3683   -331.47611   -54444.525     281.5406 
   18150    65.023369    65.023369    65.023369    67.603995   -53.219272    190.13669   -296.55385    256.16721    499.52934    12.826642  -0.13594975    243.20578   -243.46368   -54452.287    285.59055 
   18200    65.022215    65.022215    65.022215    145.00628    159.89843    403.31072   -83.496843    157.81947    401.30287   -85.651323    117.30094    360.68317   -126.05942   -54446.432    283.20416 
   18250    65.027645    65.027645    65.027645   -88.022508   -265.08929   -21.809631   -508.35257    31.333697    274.69054   -212.00817   -30.311926    213.02925   -273.63306   -54450.144    285.33106 
   18300    65.028954    65.028954    65.028954   -129.76512   -121.10681     122.1162   -364.31322   -121.47279    121.69351   -364.60713   -146.71577    96.550972   -389.96747   -54448.977    285.15448 
   18350    65.023541    65.023541    65.023541    85.758803    15.691078    259.04644   -227.64732    58.763115    302.13947   -184.59329    182.82222    426.26708   -60.598263   -54448.687    285.38657 
   18400    65.022745    65.022745    65.022745    181.56379    144.12631    387.51682   -99.241701    234.62391    478.08308   -8.8186301    165.94114    409.34821   -77.442799   -54444.088    283.57938 
   18450    65.029073    65.029073    65.029073   -81.587504   -131.97725     111.3299   -375.26515    36.422431     279.7251   -206.86543   -149.20769    94.108635   -392.50693    -54444.45    284.11711 
   18500    65.029373    65.029373    65.029373   -121.52831   -203.59236    39.709461   -446.87373    -110.4694    132.85574   -353.77043   -50.523158    192.72064   -293.75782   -54446.534    285.46264 
   18550    65.023478    65.023478    65.023478    101.28445    118.48629    361.75417   -124.76074    124.35305    367.80331   -119.07922    61.014014    304.37491   -182.32597   -54449.156    287.06003 
   18600    65.024011    65.024011    65.024011    90.475821    66.870527    310.18568   -176.43151     100.7094     344.1997   -142.75786    103.84754    347.35681   -139.64286   -54445.476    285.67684 
   18650    65.029994    65.029994    65.029994   -122.35738   -95.539394    147.85251   -338.91155   -113.32187    129.85262    -356.4817   -158.21088    85.096766     -401.501   -54448.672    287.54479 
   18700    65.029167    65.029167    65.029167    -85.41387   -93.563021    149.67165   -336.78018   -52.934396    190.31108   -296.16751   -109.74419    133.52125   -352.98941   -54444.862    286.09575 
   18750    65.023966    65.023966    65.023966    211.58184    121.20112    364.58753   -122.17465    312.12171    555.61335    68.642868     201.4227    444.82003   -41.950933   -54438.842    283.60127 
   18800    65.026896    65.026896    65.026896   -39.678954   -53.846292    189.41891   -297.09444    33.453014    276.77578   -209.84811   -98.643583    144.72224   -341.98832   -54447.042    287.82196 
   18850    65.029186    65.029186    65.029186   -38.880516   -63.744145    179.62268   -307.08864   -18.875494    224.52589   -262.25352   -34.021909    209.28832   -277.31839   -54438.872    284.30767 
   18900    65.028073    65.028073    65.028073   -42.708723   -7.7674894    235.56531   -251.07808   -1.8684282    241.44101   -245.15817   -118.49025    124.81733   -361.77738   -54446.462    288.23498 
   18950    65.025881    65.025881    65.025881    42.657124    31.453817    274.83025   -211.91563    66.095816    309.42488   -177.21354     30.42174    273.81356   -212.94569   -54443.985    287.40804 
   19000    65.026351    65.026351    65.026351    83.683138    16.639203    259.99562   -226.69589    92.973784    336.32088   -150.35825    141.43643    384.79549    -101.9134   -54441.231    286.44507 
   19050    65.028881    65.028881    65.028881   -51.658857     10.40396    253.75426   -232.92633    50.251398    293.60601   -193.07666   -215.63193    27.700329    -458.9395   -54441.376    286.84831 
[...]
   13800        0.138     291.0299    7.7111157  0.025500103  0.020834532 -0.023093769    7.6879313     7.734299    616.30499   -53360.782   -25858.168 
   13850       0.1385    291.55295    7.7394236   0.01153874  0.026950342 -0.023093515    7.7162224    7.7626237    617.41263   -53355.077   -25926.376 
   13900        0.139    290.29061    7.7466479 -0.023536773 -0.018634746 -0.023100252    7.7234434    7.7698512    614.73942   -53345.556   -25681.588 
   13950       0.1395    291.93136    7.7862873 -0.025621496 0.0038629644 -0.023092388    7.7631063    7.8094671    618.21398   -53342.157   -25881.763 
   14000         0.14    291.33842    7.8252377  0.020565963   0.01574145 -0.023078469      7.80206    7.8484142    616.95833    -53334.01    -26205.15 
   14050       0.1405    291.97752    7.8655004  0.016387198   0.02934082 -0.023071073    7.8423288    7.8886707    618.31173   -53328.426   -26370.761 
   14100        0.141    289.39649    7.8259472 -0.013600531 -0.017778206 -0.023079268    7.8027687    7.8491246    612.84596   -53316.041   -25981.895 
   14150       0.1415    289.20818    7.8217123 -0.026626955 -0.032650881 -0.023078073    7.7985298    7.8448936    612.44719   -53308.733   -25874.781 
   14200        0.142    289.88674    7.8577346  0.023391645  0.018140562 -0.023056295    7.8345753    7.8808927    613.88416   -53303.234   -26330.889 
   14250       0.1425    291.37857    7.9184139  0.030836001  0.033381676 -0.023048081    7.8952601    7.9415665    617.04335    -53299.42   -26608.772 
   14300        0.143    290.47242    7.8930215 -0.0014154426  -0.01723424 -0.023058691    7.8698647    7.9161771    615.12442   -53290.519   -26247.906 
   14350       0.1435    289.50643    7.9103464 -0.032012635 -0.026832144 -0.023058936    7.8871854    7.9335061    613.07878   -53281.484   -26171.672 
   14400        0.144    290.60489    7.9341617  0.017450566  0.008213875 -0.023043321    7.9110153    7.9573068    615.40494   -53276.797   -26532.754 
   14450       0.1445    289.30231    7.9411779  0.020460885  0.027987496 -0.023032921    7.9180496    7.9643051    612.64651   -53267.016   -26632.088 
   14500        0.145    288.33051    7.9269502 -8.0223122e-05 -0.0064340493 -0.023033525    7.9038194    7.9500798    610.58856   -53257.952   -26401.453 
   14550       0.1455    287.99201    7.9397719 -0.0063610067 -0.021948483 -0.023034499    7.9166316    7.9629109    609.87175   -53250.208   -26371.541 
   14600        0.146    289.76323    7.9994346 -0.010150881  0.010675956  -0.02302347    7.9763016    8.0225663     613.6226   -53246.895   -26666.532 
   14650       0.1465    288.20701      8.02394  0.015873964 -0.0030374194 -0.023017479    8.0008133    8.0470653    610.32703   -53236.497   -26789.255 
   14700        0.147     289.2679    8.0378049 0.00098221462 0.0042600684 -0.023013442    8.0146894    8.0609191    612.57365   -53231.647   -26810.157 
   14750       0.1475    288.57609    8.0374921 -0.018190053 -0.0093192723  -0.02301148    8.0143887    8.0605941    611.10863   -53223.066   -26699.942 
   14800        0.148    287.92743    8.0378331 -0.027745931  0.022019179 -0.023002076    8.0147285    8.0609363    609.73498   -53214.586   -26773.688 
   14850       0.1485    288.07573    8.0848705  0.024578286  0.016956582 -0.022991409    8.0617659    8.1079737    610.04903   -53207.759   -27088.018 
   14900        0.149     287.6015    8.0879863  0.014466906 -0.0033123679 -0.022989995    8.0648963    8.1110749    609.04478   -53199.585   -26997.136 
   14950       0.1495    286.13638     8.067195 -0.034653319 -0.031448647 -0.022992783    8.0440974    8.0902912    605.94214   -53189.308    -26670.31 
   15000         0.15    287.88472    8.0486246 -0.0065575869 -0.022651473 -0.022982771    8.0255399    8.0717078    609.64454   -53185.874   -26731.385 
   15050       0.1505    288.02767    8.0339451  0.037787572  0.047023508 -0.022963881    8.0108773    8.0570115    609.94726    -53179.04   -27062.521 
   15100        0.151    288.85067    8.0181018  0.030749667 0.0096561151 -0.022963253    7.9950293    8.0411728    611.69009   -53173.658   -26861.692 
   15150       0.1515    288.65498    7.9654178  -0.02088333 -0.021134802 -0.022973913    7.9423385    7.9884957    611.27569    -53166.13   -26411.332 
   15200        0.152    289.06744    7.8857347 -0.020908579 -0.040880694  -0.02297128    7.8626735    7.9087944    612.14915   -53159.937   -26079.818 
   15250       0.1525    288.80546    7.8188204  0.016504217 0.00095134301 -0.022948093    7.7957753    7.8418639    611.59437   -53152.403    -26120.92 
   15300        0.153    290.74272    7.7382761   0.04368215  0.035320244 -0.022931335    7.7152398    7.7613108    615.69684   -53149.587   -26057.595 
   15350       0.1535    292.55857     7.570775 -0.012606812  0.017099519 -0.022932999    7.5477481    7.5938004    619.54221   -53146.638   -25250.892 
   15400        0.154    297.69504    7.3821388 -0.034079758 -0.012917768 -0.022933986     7.359112    7.4051641    630.41954   -53150.868   -24450.471 
   15450       0.1545    302.55711    7.1677914 0.0034635176 -0.011159766 -0.022917908    7.1447844    7.1907967     640.7158    -53154.75   -23866.984 
   15500        0.155    307.86927    6.8870903  0.018985541  0.030266718 -0.022900122    6.8641125    6.9100664     651.9652   -53159.879   -23121.142 
   15550       0.1555    316.99557    6.5498427 -0.0028240304  0.042077732 -0.022895172    6.5268787    6.5728048    671.29168   -53173.509   -21963.655 
   15600        0.156     325.9974    6.1981613 -0.073321981  0.029898356 -0.022897598    6.1752044    6.2211162    690.35458   -53187.376   -20515.792 
   15650       0.1565    336.70797    5.8208028 -0.026546033 0.0098048954 -0.022888753     5.797866    5.8437375    713.03601   -53205.472   -19346.872 
   15700        0.157    344.82339     5.458233 -0.013203576  0.064129174 -0.022871387    5.4353102    5.4811535    730.22178   -53218.739   -18363.862 
   15750       0.1575    352.25925    5.0838241  0.026954289  0.034903261 -0.022867044    5.0608934    5.1067523    745.96847   -53231.312   -17152.272 
   15800        0.158    363.57633    4.6880835  0.068161473 -0.020896161 -0.022878993     4.665158    4.7110063    769.93431   -53252.753   -15784.496 
   15850       0.1585    367.69683    4.2581198  0.033205611  -0.02842792 -0.022904342    4.2351588    4.2810776    778.66017    -53259.75   -14209.658 
   15900        0.159    373.74335    3.9080551  0.025733556 -0.053422594 -0.022919793    3.8850869    3.9310198     791.4647   -53271.491   -12934.554 
   15950       0.1595    379.18507    3.6130258  0.041056224 -0.0084455354 -0.022923898    3.5900223    3.6360253    802.98845   -53282.413   -12152.121 
   16000         0.16    383.37182    3.3913451  0.072459239  0.035695414 -0.022934069    3.3683127    3.4143733     811.8546   -53291.022   -11664.999 
   16050       0.1605    387.62797    3.1005645  0.024737314   0.04419962 -0.022970553    3.0774855    3.1236388    820.86771   -53300.006   -10565.005 
   16100        0.161     388.8265    2.8100366 -0.0081334059 -0.043900596 -0.023023591     2.786887    2.8331812     823.4058   -53302.697   -9193.3421 
   16150       0.1615    389.89716    2.5703102 0.0020813346 -0.016978679 -0.023052076       2.5471    2.5935147    825.67312   -53305.386   -8518.0427 
   16200        0.162    391.70301    2.3939808  0.042005388 -0.0008163284 -0.023068958    2.3707523    2.4172033    829.49731   -53309.997   -8117.2329 
   16250       0.1625     395.1626    2.2102253  0.051675134  0.024812259 -0.023091461    2.1870153    2.2334288    836.82357   -53318.444   -7622.3756 
   16300        0.163    396.56805    2.0320742  0.011211918  0.032894973  -0.02313168    2.0087704    2.0553709    839.79986    -53322.84   -6920.6037 
   16350       0.1635    401.75379    1.9208256 -0.024938621 -0.0046291868 -0.023162886    1.8974637      1.94418    850.78153   -53335.362   -6304.1927 
   16400        0.164    402.48185    1.8366919 -0.017324158 -0.0098664754 -0.023182547    1.8133246    1.8600511    852.32331   -53338.637   -6031.6709 
   16450       0.1645     403.5191    1.8088489  0.040983548 7.0551787e-05 -0.023185695    1.7854878    1.8322016    854.51986   -53342.741   -6166.3435 
   16500        0.165    407.57328    1.7222691  0.034559338  0.040916661 -0.023200347    1.6989007    1.7456285    863.10528   -53353.392   -5992.4837 
   16550       0.1655    409.16861    1.6193945  0.011545402  0.017893819 -0.023230751      1.59595    1.6428294    866.48367   -53359.001   -5496.1122 
   16600        0.166    409.21244    1.5062035 -0.0045990819 -0.033169297 -0.023262716    1.4826772    1.5297197    866.57649   -53361.404   -4894.7836 
   16650       0.1665    413.40022    1.5110757 0.0021878225 -0.022346445 -0.023269621    1.4875829     1.534558    875.44481   -53372.682   -4969.7237 
   16700        0.167    411.73896    1.4552745 0.0087425524  0.015943813 -0.023272457    1.4317506    1.4787873    871.92682   -53371.693   -4933.2028 
   16750       0.1675    410.47979    1.4083839  0.050751346 0.0095436871 -0.023282355    1.3848682    1.4318879     869.2603   -53371.671   -4895.5963 
   16800        0.168    416.93143    1.3235148  0.044898308 -0.0052950952 -0.023308891    1.3000058    1.3470117    882.92275    -53388.16   -4543.7268 
   16850       0.1685    414.41961    1.2937141 -0.021418983 -0.066737166 -0.023338466    1.2701721    1.3172434    877.60355   -53385.707   -4018.5265 
   16900        0.169    413.94219    1.2565322 -0.013769332 -0.046181981 -0.023337287    1.2329821    1.2800691    876.59253   -53387.596   -3988.6031 
   16950       0.1695     414.5293    1.2815835  0.016834239  0.064026981 -0.023315191    1.2581055    1.3050476    877.83583   -53391.734   -4541.4822 
   17000         0.17    415.45891    1.2703862 0.00038093419    0.1035922  -0.02332138    1.2469376    1.2938204    879.80443   -53396.616   -4581.1976 
   17050       0.1705    417.52942    1.2096961 -0.027112781 -0.022843963 -0.023351119    1.1861978    1.2331794    884.18909   -53404.031   -3865.7979 
   17100        0.171    413.28421    1.1579263 -0.032035791 -0.063332526 -0.023361386    1.1344053    1.1814317    875.19913   -53398.039   -3541.8599 
   17150       0.1715    416.55905    1.2286094 -0.0028680775 0.0009162555 -0.023337337    1.2051792    1.2520236    882.13416   -53408.021   -4088.8587 
   17200        0.172    413.39227    1.2419882  0.023097656  0.061983268 -0.023319049    1.2185263    1.2654335    875.42797   -53404.342   -4423.5638 
   17250       0.1725    416.71083    1.2782886 -0.014467722  0.064260021 -0.023325642    1.2548576    1.3017022    882.45559   -53414.444   -4426.9362 
   17300        0.173    418.81333    1.2716937 -0.033106448 -0.019512289  -0.02334174    1.2482009    1.2951685    886.90798   -53421.927   -4063.5831 
   17350       0.1735    414.05411    1.2152986 -0.011833448 -0.020261418 -0.023343803    1.1918616    1.2387171    876.82954   -53414.873   -3944.0126 
   17400        0.174    415.64929     1.265861  0.017947466  0.025393808 -0.023327456    1.2423781    1.2893245    880.20759   -53421.284   -4364.0075 
   17450       0.1745    416.20769    1.2899603  0.032389752  0.034790655 -0.023329627    1.2665043    1.3133963    881.39011   -53425.508   -4523.8023 
   17500        0.175    415.26578    1.2440719 -0.005806077 -0.022650204 -0.023347914    1.2206194    1.2675036    879.39544   -53426.569    -4052.052 
   17550       0.1755    415.18963    1.2579178 0.0067883265   -0.0260889 -0.023348153     1.234461    1.2813533    879.23419   -53429.391   -4128.7242 
   17600        0.176    416.81552    1.2824667 0.0094796948 0.0077825891 -0.023332651     1.259045    1.3058662    882.67729   -53435.864   -4332.4299 
   17650       0.1765    415.14891    1.2806447  0.023022095  0.015249188 -0.023328875    1.2572257    1.3040408    879.14795    -53435.36   -4396.3865 
   17700        0.177     411.6975    1.2758216 -0.0015040732  0.021114933 -0.023331594     1.252314    1.2993056    871.83902   -53431.064   -4318.1083 
   17750       0.1775    415.10305    1.2648696 -0.031697855  0.029001251 -0.023339865    1.2414014    1.2883134    879.05084   -53441.303   -4207.2434 
   17800        0.178    412.09501    1.2506355 -0.042446095 -0.026565521 -0.023342653    1.2271213    1.2741245    872.68081   -53437.976   -3938.7462 
   17850       0.1785    410.44829    1.2548912   0.04555321  0.021605162 -0.023329509    1.2314062    1.2783504    869.19359   -53437.483    -4406.832 
   17900        0.179    413.05956     1.263376  0.029742612  0.025256771 -0.023333581    1.2399007    1.2868247    874.72341   -53446.048   -4394.5848 
   17950       0.1795     412.3699    1.2194975 -0.0037796691 -0.017925881 -0.023357126    1.1959939    1.2429735    873.26295   -53447.609   -3992.6397 
   18000         0.18    414.96301    1.2183766 -0.0099212519 -0.034571328  -0.02336926    1.1948132    1.2419116    878.75428   -53456.102   -3912.9467 
   18050       0.1805    407.97215    1.2376986 -0.0084589504 -0.057194199 -0.023365009    1.2142036    1.2611645    863.94995   -53444.317   -3906.8181 
   18100        0.181    416.22575     1.282196  0.072436742  0.038325401 -0.023337479    1.2587112    1.3056508    881.42834    -53464.76   -4643.1937 
   18150       0.1815    412.23779    1.2867385  0.013075047  0.021902883 -0.023344988    1.2632082    1.3102379    872.98316   -53459.321   -4405.7213 
   18200        0.182    408.55968    1.2294742 -0.041963535 -0.024165569 -0.023360027     1.205979    1.2529378    865.19416   -53454.459   -3877.8171 
   18250       0.1825    408.71194     1.207572  0.025220585 0.0098297182 -0.023361854    1.1841112    1.2310004    865.51658   -53457.729   -4142.0744 
   18300        0.183    409.88742    1.1646332 0.0025696656  0.015775773 -0.023367622     1.141201    1.1880319    868.00587    -53463.19    -3943.262 
   18350       0.1835    410.59675    1.1634543 -0.0076638886 -0.0022192865 -0.023372314    1.1398804    1.1869938    869.50799   -53467.673   -3845.2371 
   18400        0.184    406.42182    1.1689889 -0.022326792 -0.0093291364 -0.023374284    1.1455407    1.1924018    860.66687    -53461.78     -3791.11 
   18450       0.1845    408.67838    1.2283365 -0.021030418   0.03190437 -0.023359833    1.2048441    1.2517926    865.44551   -53469.474   -4130.7014 
   18500        0.185    409.22241    1.2041164 0.0089661371  0.038183897 -0.023357827    1.1805568    1.2276387    866.59758   -53473.564   -4170.8881 
   18550       0.1855    408.61123    1.1928607   0.01573254  0.030539129 -0.023370186    1.1693559    1.2163272    865.30332   -53475.213   -4130.4412 
   18600        0.186    407.88636    1.1398145    0.0077637 -0.0071253089 -0.023390006    1.1164121    1.1631777    863.76828    -53476.61   -3801.5097 
   18650       0.1865    407.41324     1.127589 -0.0085806955 -0.059709412 -0.023405349    1.1041235     1.151014    862.76637   -53478.514   -3530.9962 
   18700        0.187    404.93896    1.1544392  0.003808115 -0.021375327 -0.023394482    1.1309764    1.1778606    857.52666   -53476.156   -3789.5734 
   18750       0.1875     409.5676    1.2051165   0.02095156  0.027048426  -0.02337431     1.181634    1.2285565    867.32858   -53488.833    -4177.055 
   18800        0.188    408.56478    1.1708706  0.039482106  0.039328918 -0.023374544    1.1475048    1.1941928    865.20496    -53489.59   -4165.6053 
   18850       0.1885    406.14089    1.1394596  0.016645564  -0.01799815 -0.023392058    1.1159753    1.1628993    860.07195    -53487.33   -3793.6902 
   18900        0.189     406.8877     1.095325 0.00064465787 -0.024915377 -0.023404131    1.0717723    1.1188319    861.65346   -53491.778   -3570.1809 
   18950       0.1895    402.31561     1.095385  0.017694709 -0.021688761 -0.023407087    1.0718624    1.1188608    851.97128   -53485.009   -3637.9698 
   19000         0.19    406.21737     1.151761 -0.0024440099  0.012853842 -0.023394317    1.1281495    1.1753244    860.23391   -53496.116   -3873.9027 
   19050       0.1905    402.55255    1.1385286 -0.00030734206  0.032244051 -0.023397276    1.1150305    1.1619775    852.47304   -53491.157    -3901.551 
   19100        0.191    405.95431      1.17636 -0.0065471215 0.0066034155 -0.023392412    1.1528077    1.1998619    859.67683   -53501.141   -3921.3878 
   19150       0.1915    402.64371    1.1559922 -0.033740908   0.02974181 -0.023396422    1.1324889    1.1794437    852.66608   -53496.908   -3839.9768 
   19200        0.192    405.02369    1.1574199 0.0056082475  0.013056696 -0.023394372    1.1338293    1.1809575     857.7061    -53504.73   -3920.2827 
   19250       0.1925    400.97187    1.1328935  0.012597073 0.00046845723 -0.023402004    1.1093219     1.156411    849.12567   -53498.934   -3819.8635 
   19300        0.193    401.47415    1.1245205 -0.022441062 0.0034015387 -0.023405374    1.1009811    1.1480046    850.18935   -53502.758   -3684.9366 
   19350       0.1935    400.64187    1.1346455 -0.0046655512 0.0013065333 -0.023398595    1.1110167    1.1582176    848.42684   -53503.744   -3770.9548 
   19400        0.194    398.30555    1.1566617  0.033840626 -0.016611748 -0.023392833    1.1331596    1.1801061    843.47929   -53501.465   -3912.9687 
   19450       0.1945    403.29285    1.1868155  0.040565928 -0.026159755 -0.023387036    1.1632652    1.2103067    854.04075   -53514.704   -4004.0721 
   19500        0.195    400.67476    1.1715215  0.045199662 -0.024779029 -0.023392202    1.1479853    1.1949976    848.49651   -53511.878   -3973.1405 
   19550       0.1955    399.62234    1.1875827  0.010741955 -0.0072170833 -0.023397213    1.1640794    1.2110248    846.26782   -53512.404   -3970.3587 
   19600        0.196     402.4739    1.1793309 -0.0077933415  0.013179915 -0.023399059    1.1558504     1.202749    852.30649    -53521.08   -3949.0584 
   19650       0.1965     398.3983    1.1625927 -0.0079421021 0.0075835848 -0.023405469    1.1390071    1.1861146    843.67571   -53515.062    -3874.114 
   19700        0.197    401.51457    1.1702424 -0.012813925  0.020318757 -0.023403999    1.1467048     1.193715    850.27493   -53524.302   -3925.8241 
   19750       0.1975    397.16215    1.1786194 -0.020470872  0.033461798 -0.023405569    1.1551888    1.2019839    841.05795   -53517.717   -3972.0343 
   19800        0.198    397.40758    1.1691021  0.016637881  0.010669369 -0.023404955     1.145549     1.192588     841.5777   -53520.851   -3988.0313 
   19850       0.1985     399.8379    1.1693762 -0.00085740585 -0.009528444 -0.023409409    1.1458541    1.1928298    846.72432   -53528.625   -3863.3013 
   19900        0.199    399.19896    1.1261673 -0.0069962986 -0.021033006 -0.023417777    1.1026072    1.1496576    845.37124   -53529.906   -3660.4599 
   19950       0.1995    396.21754    1.1818194 -0.018431718 -0.0069307112 -0.023411984    1.1582206    1.2053472    839.05759   -53526.192   -3854.8567 
   20000          0.2    399.48845    1.2651543  0.019524554  0.032122253 -0.023390206    1.2415957    1.2886407    845.98429   -53535.635   -4389.3372 
Loop time of 4429.7 on 4 procs for 20000 steps with 16384 atoms

Pair  time (%) = 3956.15 (89.3096)
Neigh time (%) = 2.7736 (0.0626138)
Comm  time (%) = 176.129 (3.97609)
Outpt time (%) = 0.204862 (0.00462475)
Other time (%) = 294.445 (6.64707)

Nlocal:    4096 ave 4139 max 4054 min
Histogram: 1 0 0 0 1 1 0 0 0 1
Nghost:    7407.5 ave 7441 max 7377 min
Histogram: 1 0 0 0 2 0 0 0 0 1
Neighs:    281961 ave 285119 max 278569 min
Histogram: 1 0 0 0 1 0 1 0 0 1
FullNghs:  0 ave 0 max 0 min
Histogram: 4 0 0 0 0 0 0 0 0 0

Total # of neighbors = 1127845
Ave neighs/atom = 68.8382
Neighbor list builds = 119
Dangerous builds = 0

######################################
# SIMULATION DONE
print "All done"
All done
