LAMMPS (28 Jun 2014)
# Input file for uniaxial tensile loading of single crystal aluminum
# Mark Tschopp, November 2010

# ------------------------ INITIALIZATION ----------------------------
units 		metal
dimension	3
boundary	p	p	p
atom_style	atomic
variable latparam equal 4.05

# ----------------------- ATOM DEFINITION ----------------------------
lattice		fcc ${latparam}
lattice		fcc 4.05
Lattice spacing in x,y,z = 4.05 4.05 4.05
region		whole block 0 10 0 10 0 10
create_box	1 whole
Created orthogonal box = (0 0 0) to (40.5 40.5 40.5)
  1 by 2 by 2 MPI processor grid
lattice 	fcc ${latparam} orient x 1 0 0 orient y 0 1 0 orient z 0 0 1
lattice 	fcc 4.05 orient x 1 0 0 orient y 0 1 0 orient z 0 0 1
Lattice spacing in x,y,z = 4.05 4.05 4.05
create_atoms	1 region whole
Created 4000 atoms

# ------------------------ FORCE FIELDS ------------------------------
pair_style	eam/alloy
pair_coeff	* * Al99.ZeroFRho.ZeroRhoR.NegPhiR.eam.alloy Al

# ------------------------- SETTINGS ---------------------------------
compute csym all centro/atom fcc
compute peratom all pe/atom

######################################
# EQUILIBRATION
reset_timestep	0
timestep 0.001
velocity all create 300 12345 mom yes rot no
fix 1 all npt temp 300 300 1 iso 0 0 1 drag 1

# Set thermo output
thermo 1000
thermo_style custom step lx ly lz press pxx pyy pzz pe temp

# Run for at least 10 picosecond (assuming 1 fs timestep)
run 20000
Memory usage per processor = 3.04301 Mbytes
Step Lx Ly Lz Press Pxx Pyy Pzz PotEng Temp 
       0         40.5         40.5         40.5    2173.5087    2124.3755    2212.0395     2184.111   -13449.904          300 
    1000    40.552453    40.552453    40.552453    857.29673    845.82253     829.4246    896.64307   -13371.002    165.27861 
    2000    40.566221    40.566221    40.566221    258.33547    190.43052    288.12134    296.45455   -13366.371    178.93191 
    3000    40.575135    40.575135    40.575135    96.911744    12.264479    191.72786    86.742888   -13359.856     189.3245 
    4000    40.582841    40.582841    40.582841    71.074156    22.616788    47.837234    142.76845   -13350.229    193.68981 
    5000    40.587882    40.587882    40.587882    173.31381    272.71588    232.12896    15.096584   -13344.133    204.63881 
    6000    40.594961    40.594961    40.594961    83.327176    77.430193   -12.458603    185.00994   -13337.237      213.533 
    7000    40.602761    40.602761    40.602761   -37.192769   -61.011258    63.067723   -113.63477   -13331.542    223.99945 
    8000    40.607917    40.607917    40.607917   -22.506863   -76.587803    10.766843   -1.6996289   -13328.967    239.49475 
    9000    40.612588    40.612588    40.612588   -17.919449   -68.844287    98.445316   -83.359375   -13325.932    252.90531 
   10000    40.620843    40.620843    40.620843   -79.407901   -59.999124   -54.453908   -123.77067   -13316.513    252.54055 
   11000    40.625944    40.625944    40.625944   -114.18153   -466.14065    136.53993   -12.943877   -13313.035    262.11622 
   12000    40.626927    40.626927    40.626927   -3.9785297    96.942049   -24.192386   -84.685252    -13311.05    272.88854 
   13000    40.632581    40.632581    40.632581   -30.310603   -146.02986   -195.14853    250.24659   -13307.536    278.92907 
   14000    40.633186    40.633186    40.633186    137.33025   -100.07273    156.80505    355.25844   -13303.207    281.65061 
   15000    40.637181    40.637181    40.637181    185.39477     184.4655    136.19985    235.51897   -13300.036    284.90293 
   16000    40.637631    40.637631    40.637631    162.69783    303.75084    135.34622    48.996444   -13298.678    289.97542 
   17000    40.640102    40.640102    40.640102    48.507675    113.33969    93.526011   -61.342675   -13300.391    299.44081 
   18000    40.641923    40.641923    40.641923    94.149985    72.523246    409.84605   -199.91934    -13296.78    297.08665 
   19000     40.64612     40.64612     40.64612   -75.192419    52.729258   -196.72893   -81.577582   -13294.556    295.97831 
   20000    40.647949    40.647949    40.647949   -188.78601   -48.133953   -203.08199   -315.14209   -13294.919    298.51421 
Loop time of 550.449 on 4 procs for 20000 steps with 4000 atoms

Pair  time (%) = 353.052 (64.139)
Neigh time (%) = 0 (0)
Comm  time (%) = 135.675 (24.6481)
Outpt time (%) = 0.0599385 (0.010889)
Other time (%) = 61.6617 (11.2021)

Nlocal:    1000 ave 1000 max 1000 min
Histogram: 4 0 0 0 0 0 0 0 0 0
Nghost:    4235 ave 4235 max 4235 min
Histogram: 4 0 0 0 0 0 0 0 0 0
Neighs:    70000 ave 72653 max 67302 min
Histogram: 1 0 1 0 0 0 0 1 0 1
FullNghs:  0 ave 0 max 0 min
Histogram: 4 0 0 0 0 0 0 0 0 0

Total # of neighbors = 280000
Ave neighs/atom = 70
Neighbor list builds = 0
Dangerous builds = 0
unfix 1

# Store final cell length for strain calculations
variable tmp equal "lx"
variable L0 equal ${tmp}
variable L0 equal 40.6479493653391
print "Initial Length, L0: ${L0}"
Initial Length, L0: 40.6479493653391

######################################
# DEFORMATION
reset_timestep	0

fix		1 all npt temp 300 300 1 y 0 0 1 z 0 0 1 drag 1
variable srate equal 1.0e10
variable srate1 equal "v_srate / 1.0e12"
fix		2 all deform 1 x erate ${srate1} units box remap x
fix		2 all deform 1 x erate 0.01 units box remap x

# Output strain and stress info to file
# for units metal, pressure is in [bars] = 100 [kPa] = 1/10000 [GPa]
# p2, p3, p4 are in GPa
variable strain equal "(lx - v_L0)/v_L0"
variable p1 equal "v_strain"
variable p2 equal "-pxx/10000"
variable p3 equal "-pyy/10000"
variable p4 equal "-pzz/10000"
fix def1 all print 20 "${p1} ${p2} ${p3} ${p4}" file  Al99.ZeroFRho.ZeroRhoR.NegPhiR.eam.alloy.def1.txt screen no

# Use cfg for AtomEye
#dump 		1 all cfg 250 dump.tensile_*.cfg id type xs ys zs c_csym c_peratom fx fy fz
#dump_modify 1 element Al

# Display thermo
thermo 	1000
thermo_style	custom step v_strain temp v_p2 v_p3 v_p4 ke pe press

run		20000
Memory usage per processor = 3.04301 Mbytes
Step strain Temp p2 p3 p4 KinEng PotEng Press 
       0 -6.9921632e-16    298.51421 0.0048133953  0.020308199  0.031514209    154.30537   -13294.919   -188.78601 
    1000         0.01     298.8551   0.62467832  -0.02327623 -0.020313519    154.48159   -13292.548   -1936.9619 
    2000         0.02    300.92905    1.2652964 -0.037440622 -0.0044177058    155.55363   -13288.252   -4078.1268 
    3000         0.03    297.58381    1.9069507 -0.024390789 -0.0066304865    153.82444   -13278.375   -6253.0981 
    4000         0.04    302.43578    2.5655557  0.010997983  0.014309013    156.33248   -13270.052    -8636.209 
    5000         0.05    296.55981    3.1115062  -0.00381176  -0.01763941    153.29512   -13253.657   -10300.184 
    6000         0.06    299.60127    3.7196036 -0.029870867 -0.023146279    154.86729   -13239.454   -12221.955 
    7000         0.07    297.75733     4.289608 -0.0087271784 -0.024176829    153.91413   -13220.403   -14189.013 
    8000         0.08     301.4234    4.8716837  0.042438198  0.088471568    155.80917   -13201.899   -16675.311 
    9000         0.09    295.15267    5.3952238 -0.018979548 -0.063103657    152.56776   -13175.968   -17710.469 
   10000          0.1    296.61782    5.9180194   0.02812164 -0.0049285254    153.32511   -13151.845   -19804.042 
   11000         0.11    298.44516    6.4311034 -0.068871388 -0.024089177    154.26968   -13125.738   -21127.143 
   12000         0.12    298.18294    6.9625054 -0.0097389938 -0.010363927    154.13414   -13096.252   -23141.342 
   13000         0.13    290.15589    7.4385137  0.073918355  0.052095169    149.98486   -13060.687   -25215.091 
   14000         0.14    289.34083    7.7746684 -0.092831247 -0.040891643    149.56355   -13026.906   -25469.818 
   15000         0.15    290.87914    7.9037878   0.04858664 -0.031049734    150.35872   -12992.722   -26404.416 
   16000         0.16    366.89123    3.6705051 0.0062676735  0.014301499    189.65023   -13010.954   -12303.581 
   17000         0.17    375.26092    2.9542199   0.07217967 -0.070748382    193.97661   -13017.307   -9852.1708 
   18000         0.18    404.48308    1.8748589   0.12376655  0.085383382    209.08188   -13042.682   -6946.6963 
   19000         0.19    396.99323    1.5912434  0.021599132  0.038960538     205.2103   -13054.599   -5506.0101 
   20000          0.2    392.43947    1.6540595  0.082673704  0.060889212     202.8564   -13067.346   -5992.0747 
Loop time of 438.52 on 4 procs for 20000 steps with 4000 atoms

Pair  time (%) = 315.217 (71.8822)
Neigh time (%) = 0.503085 (0.114723)
Comm  time (%) = 86.6628 (19.7626)
Outpt time (%) = 0.00314969 (0.000718255)
Other time (%) = 36.1333 (8.23982)

Nlocal:    1000 ave 1027 max 981 min
Histogram: 1 0 0 2 0 0 0 0 0 1
Nghost:    3724.5 ave 3746 max 3710 min
Histogram: 1 1 0 0 1 0 0 0 0 1
Neighs:    68695.5 ave 72317 max 65651 min
Histogram: 1 0 1 0 0 0 1 0 0 1
FullNghs:  0 ave 0 max 0 min
Histogram: 4 0 0 0 0 0 0 0 0 0

Total # of neighbors = 274782
Ave neighs/atom = 68.6955
Neighbor list builds = 82
Dangerous builds = 0

######################################
# SIMULATION DONE
print "All done"
All done
