LAMMPS (28 Jun 2014)
# Input file for uniaxial tensile loading of single crystal aluminum
# Mark Tschopp, November 2010

# ------------------------ INITIALIZATION ----------------------------
units 		metal
dimension	3
boundary	p	p	p
atom_style	atomic
variable latparam equal 4.05

# ----------------------- ATOM DEFINITION ----------------------------
lattice		fcc ${latparam}
lattice		fcc 4.05
Lattice spacing in x,y,z = 4.05 4.05 4.05
region		whole block 0 10 0 10 0 10
create_box	1 whole
Created orthogonal box = (0 0 0) to (40.5 40.5 40.5)
  1 by 2 by 2 MPI processor grid
lattice 	fcc ${latparam} orient x 1 0 0 orient y 0 1 0 orient z 0 0 1
lattice 	fcc 4.05 orient x 1 0 0 orient y 0 1 0 orient z 0 0 1
Lattice spacing in x,y,z = 4.05 4.05 4.05
create_atoms	1 region whole
Created 4000 atoms

# ------------------------ FORCE FIELDS ------------------------------
pair_style	eam/alloy
pair_coeff	* * Al99.posRhoR.eam.alloy Al

# ------------------------- SETTINGS ---------------------------------
compute csym all centro/atom fcc
compute peratom all pe/atom

######################################
# EQUILIBRATION
reset_timestep	0
timestep 0.001
velocity all create 300 12345 mom yes rot no
fix 1 all npt temp 300 300 1 iso 0 0 1 drag 1

# Set thermo output
thermo 50
thermo_style custom step lx ly lz press pxx pyy pzz pe temp

# Run for at least 10 picosecond (assuming 1 fs timestep)
run 20000
Memory usage per processor = 3.04301 Mbytes
Step Lx Ly Lz Press Pxx Pyy Pzz PotEng Temp 
       0         40.5         40.5         40.5    21115.056    21065.923    21153.587    21125.658   -13396.406          300 
      50    40.864991    40.864991    40.864991    9013.8205    8935.5099    9046.2315    9059.7201   -13306.569    90.665263 
     100    41.173627    41.173627    41.173627   -6970.8812   -6974.5266   -6969.9383   -6968.1786   -13335.944    145.09038 
     150     41.10509     41.10509     41.10509   -2986.4375    -3000.356   -2976.7775   -2982.1788   -13322.369    117.46913 
     200    40.964639    40.964639    40.964639    3146.7713    3193.6272    3141.2119    3105.4748   -13335.363    143.86679 
     250    40.970175    40.970175    40.970175     2736.155    2761.2793     2679.773    2767.4127   -13340.398     154.4249 
     300    41.058819    41.058819    41.058819   -1346.0717   -1427.9185   -1240.3221   -1369.9745   -13338.042     150.2698 
     350    41.082653    41.082653    41.082653   -2100.7391   -2118.5549   -2073.9387   -2109.7238   -13330.109    136.11291 
     400    41.031027    41.031027    41.031027    50.704932    10.398413    119.93882     21.77756   -13333.605     143.4263 
     450    40.996721    40.996721    40.996721    1926.7233    2006.9751    1928.3859    1844.8089   -13332.729    142.87638 
     500    41.028246    41.028246    41.028246    84.122628    71.764526    51.814785    128.78857   -13336.018    149.91467 
     550    41.058369    41.058369    41.058369    -1034.568   -1065.2755   -882.73862     -1155.69    -13332.23    143.63449 
     600     41.04733     41.04733     41.04733   -609.93206   -607.30481   -606.41981   -616.07155    -13333.08    146.21128 
     650    41.020243    41.020243    41.020243    759.85843    796.75886    747.90588    734.91056   -13332.236    145.70374 
     700    41.021701    41.021701    41.021701    629.35412    579.54848    703.15495    605.35894   -13332.308    146.88238 
     750    41.044393    41.044393    41.044393   -289.25089   -302.08731    -319.8727   -245.79264   -13332.258    147.77109 
     800     41.05321     41.05321     41.05321   -751.11151   -798.50058   -649.77426   -805.05969   -13329.939    144.37328 
     850    41.035036    41.035036    41.035036    -26.50579   -75.413206   -43.860621    39.756456   -13334.721    154.64158 
     900     41.02145     41.02145     41.02145    875.31062    773.29241    998.58985    854.04961   -13329.926    146.54525 
     950    41.037942    41.037942    41.037942    27.114425    -36.31774    64.227354    53.433663   -13332.084    151.66772 
    1000    41.052507    41.052507    41.052507   -610.22291   -639.09636   -628.90808   -562.66429   -13329.728    148.29963 
    1050    41.045924    41.045924    41.045924   -236.87879   -255.06867   -182.42595   -273.14174   -13330.956    151.71221 
    1100    41.032135    41.032135    41.032135    219.86621    240.85797    220.84872    197.89192   -13331.593    154.06561 
    1150    41.029837    41.029837    41.029837    605.80521    571.89006    671.33364    574.19193    -13328.06    148.36043 
    1200    41.046405    41.046405    41.046405   -341.05107   -404.98895    -241.1675   -376.99678   -13331.939    156.87844 
    1250    41.050535    41.050535    41.050535   -392.44325   -449.86323   -284.49044   -442.97607   -13326.416    147.33439 
    1300     41.03871     41.03871     41.03871    131.04086    87.445264    154.37412     151.3032   -13329.859    155.13068 
    1350    41.032802    41.032802    41.032802    393.73784    383.15492    401.28211    396.77649   -13328.454    153.53255 
    1400    41.042282    41.042282    41.042282    30.284883    23.798487    121.04476   -53.988595   -13328.752    155.17368 
    1450    41.050991    41.050991    41.050991   -417.75019   -445.84982   -355.88779   -451.51295   -13328.798    156.36115 
    1500    41.044861    41.044861    41.044861   -147.32367   -145.16203   -140.39232   -156.41667   -13327.696    155.39964 
    1550    41.035504    41.035504    41.035504    470.01389    451.04783    536.72938    422.26447   -13325.915    153.08352 
    1600    41.040988    41.040988    41.040988    -48.42156   -56.794704    16.536301   -105.00628   -13329.411    160.87663 
    1650    41.047272    41.047272    41.047272   -73.558597   -154.18036   -40.775928   -25.719507   -13325.537    154.58717 
    1700    41.047746    41.047746    41.047746   -142.89911   -107.12647   -157.88277   -163.68808   -13326.114    156.83872 
    1750    41.043814    41.043814    41.043814     49.62219    34.380648    147.22809   -32.742166   -13327.082    159.80602 
    1800    41.042037    41.042037    41.042037    115.41824    79.712647    184.98166    81.560407   -13326.009    158.89952 
    1850    41.045108    41.045108    41.045108    94.816274    162.82841    25.727291    95.893121   -13325.437    158.91595 
    1900    41.050171    41.050171    41.050171   -229.63465   -156.06687    -203.8817   -328.95539   -13325.028    159.22599 
    1950    41.046792    41.046792    41.046792    30.232995    38.734138  -0.96936322     52.93421   -13324.375    159.13744 
    2000    41.043505    41.043505    41.043505    101.03135    69.787639    152.47964    80.826781   -13327.351    165.94733 
    2050     41.04546     41.04546     41.04546    53.672897    40.130627    78.886093    42.001971   -13324.587     161.8226 
    2100    41.050086    41.050086    41.050086    35.267296    59.823223    90.156694   -44.178028   -13321.386    156.77486 
    2150    41.053092    41.053092    41.053092   -275.47816   -317.77603   -250.80652   -257.85192   -13325.489    165.76834 
    2200     41.04772     41.04772     41.04772     93.97743    159.23105    112.72621    9.9750234   -13323.576    163.22801 
    2250    41.044977    41.044977    41.044977     146.2996    60.998384    193.81147    184.08893   -13323.503    164.27127 
    2300    41.048311    41.048311    41.048311    168.01148    91.720471    133.36258    278.95138    -13321.95    162.39717 
    2350    41.055093    41.055093    41.055093    -335.5434   -385.51584   -319.40432   -301.71004   -13324.341    168.10101 
    2400    41.052307    41.052307    41.052307    71.086506    37.807543    35.868145    139.58383   -13320.116    161.10817 
    2450    41.049603    41.049603    41.049603   -51.095299   -37.285721    -9.622689   -106.37749   -13323.628    169.00551 
    2500     41.04834     41.04834     41.04834    104.76902    135.36019      18.0026    160.94426   -13324.123    171.10792 
    2550    41.052208    41.052208    41.052208   -17.103484   -62.802555    127.30702   -115.81492   -13320.756    165.77726 
    2600    41.055942    41.055942    41.055942   -176.17489   -114.45322   -204.21043   -209.86101   -13321.572    168.48268 
    2650    41.052923    41.052923    41.052923    112.25296    107.16888     81.87706    147.71293   -13318.447    163.60782 
    2700    41.050586    41.050586    41.050586    87.728407    53.618815    42.546669    167.01974   -13321.959    171.53935 
    2750    41.052011    41.052011    41.052011    29.156106  -0.42523125    27.575857    60.317693   -13319.628    168.17773 
    2800    41.055758    41.055758    41.055758   -119.10328   -143.43951   -31.801002   -182.06933   -13322.503    174.82326 
    2850    41.056486    41.056486    41.056486   -84.769545   -134.10926   -43.975674   -76.223699   -13318.716     168.6961 
    2900    41.053987    41.053987    41.053987    78.964085     33.16785    177.68674    26.037664   -13319.511     171.3938 
    2950    41.053175    41.053175    41.053175    124.31194    217.69809    152.91108    2.3266497   -13318.619    170.79256 
    3000    41.056723    41.056723    41.056723   -42.907486    -119.3037   0.26186274   -9.6806209   -13319.097     172.8862 
    3050     41.05895     41.05895     41.05895    -129.2234   -39.436526   -117.19807   -231.03559   -13318.317    172.51526 
    3100    41.056414    41.056414    41.056414    7.2452261   -48.825816    76.642833   -6.0813388   -13318.827    174.61632 
    3150    41.054211    41.054211    41.054211    198.54453    228.15731    250.92729    116.54898    -13316.98    172.23901 
    3200    41.058051    41.058051    41.058051     -44.2391   -82.359944   -92.411345    42.053989   -13318.359      176.015 
    3250    41.060946    41.060946    41.060946   -77.894527    -52.56443   -81.234786   -99.884364   -13316.667    173.95526 
    3300    41.060226    41.060226    41.060226   -100.24292   -101.11375   -105.87062   -93.744396   -13317.044    175.83378 
    3350    41.057694    41.057694    41.057694    21.872534     67.21935    73.247803   -74.849552    -13318.27      179.307 
    3400    41.056795    41.056795    41.056795    172.68928    122.71901    214.38811    180.96072   -13315.858    175.78709 
    3450    41.060541    41.060541    41.060541    31.191194     91.29257    22.689032   -20.408021   -13315.747    176.74606 
    3500    41.064306    41.064306    41.064306   -158.81939   -223.50254   -107.56203    -145.3936   -13315.164     176.7886 
    3550    41.061389    41.061389    41.061389    12.632431   -47.888129   -92.477682     178.2631   -13315.372    178.35455 
    3600    41.059122    41.059122    41.059122    55.072741    20.178665    130.86992    14.169637    -13316.07    180.84138 
    3650    41.060174    41.060174    41.060174    45.263241    29.021285    3.4105004    103.35794   -13314.963     179.8985 
    3700    41.063473    41.063473    41.063473    17.553032    15.631705    69.592589     -32.5652   -13314.367    179.85112 
    3750    41.066609    41.066609    41.066609   -218.82808   -234.74328   -204.13214   -217.60882   -13315.597    183.37091 
    3800    41.062716    41.062716    41.062716     166.6592    205.56565    111.94749    182.46448   -13311.586    176.84593 
    3850    41.062852    41.062852    41.062852    85.301079    107.12741    100.24381    48.532013   -13314.001    182.63243 
    3900    41.066576    41.066576    41.066576   -111.53137   -132.64033   -126.77823   -75.175555   -13313.622      183.016 
    3950    41.066219    41.066219    41.066219   -52.954055   -17.658577   -69.664559   -71.539029   -13312.665    182.32331 
    4000    41.062803    41.062803    41.062803    142.39127    199.27771    59.303165    168.59295   -13313.555    185.22713 
    4050    41.064806    41.064806    41.064806     4.424622    12.466971   -41.821383    42.628278   -13312.249    183.84366 
    4100     41.06802     41.06802     41.06802   -38.100531    19.644886    23.983426    -157.9299   -13312.433    185.34068 
    4150    41.068319    41.068319    41.068319   -96.666705   -156.45568   -115.65478   -17.889656   -13311.733    185.17711 
    4200    41.066448    41.066448    41.066448    88.213362    110.72715    9.9061697    144.00676   -13311.145    185.18684 
    4250    41.066983    41.066983    41.066983    88.794985    77.798418    31.526068    157.06047   -13309.951     184.0388 
    4300     41.06974     41.06974     41.06974   -56.989788    22.369817   -98.452351   -94.886831   -13311.494    188.18564 
    4350     41.07005     41.07005     41.07005   -82.900425   -2.9663814   -51.809205   -193.92569   -13310.803    187.96865 
    4400    41.067514    41.067514    41.067514    89.361056    97.401245    10.569742    160.11218   -13309.948     187.4853 
    4450    41.067295    41.067295    41.067295    103.92622    27.594135     151.6412    132.54334   -13309.855    188.46975 
    4500    41.070744    41.070744    41.070744   -68.713412    -23.91205   -230.22437    47.996186   -13310.954    191.71413 
    4550    41.072453    41.072453    41.072453   -45.363391   -19.966311   -126.90674    10.782876   -13309.127    189.36948 
    4600     41.07245     41.07245     41.07245   -48.595999    -100.8528   -69.606701    24.671506   -13309.202    190.64491 
    4650    41.070558    41.070558    41.070558    81.919244    186.50985    10.177586      49.0703   -13308.035     189.5541 
    4700     41.07113     41.07113     41.07113    52.662296   -25.998827     8.356442    175.62927   -13309.081    192.72353 
    4750    41.074188    41.074188    41.074188   -136.18449   -39.725801   -237.97618   -130.85148   -13309.271    194.23897 
    4800    41.073837    41.073837    41.073837    66.634389    61.745789    80.497205    57.660174   -13306.054    189.17391 
    4850    41.074155    41.074155    41.074155   -41.352866   -28.395719   -96.767467    1.1045893   -13308.226    194.49043 
    4900    41.074425    41.074425    41.074425   -6.3044519   -10.348008    -21.73724    13.171892   -13307.843    194.88744 
    4950    41.075033    41.075033    41.075033   -34.830873   -35.198049    -71.17431    1.8797399   -13307.031    194.46676 
    5000    41.074183    41.074183    41.074183    27.165092    129.93701    -113.7872    65.345466   -13307.431    196.38819 
    5050    41.074684    41.074684    41.074684    100.87238   -27.696455    163.36101    166.95257   -13306.257    195.30064 
    5100    41.077744    41.077744    41.077744   -118.71591   -93.789161   -259.40809   -2.9504625   -13306.039     196.0099 
    5150    41.078055    41.078055    41.078055   -63.520927   -83.642945   -22.179346   -84.740489   -13306.878    198.76471 
    5200    41.075928    41.075928    41.075928    104.03854    135.57071    30.706641    145.83827   -13303.599    193.59143 
    5250    41.076051    41.076051    41.076051    79.855457    138.37047    62.202266    38.993633   -13304.907    197.26768 
    5300    41.078208    41.078208    41.078208   -5.3004133   -124.34287   -29.682027    138.12366   -13304.274    197.17442 
    5350    41.079404    41.079404    41.079404   -12.170918    83.548621   -120.60921   0.54783262   -13304.623    198.96814 
    5400    41.079527    41.079527    41.079527   -11.629674   -48.531192   -8.9273218    22.569493   -13303.488     197.9327 
    5450    41.078981    41.078981    41.078981   -64.767623    12.638119   -165.72495   -41.216039   -13305.581    203.12799 
    5500    41.078282    41.078282    41.078282    100.50387    76.277338    128.46306    96.771216   -13303.817    200.84546 
    5550    41.080864    41.080864    41.080864   -122.05752   -101.96705   -156.47341    -107.7321   -13303.745    201.80949 
    5600    41.080238    41.080238    41.080238    156.76179    168.10912    215.75443     86.42181   -13301.026    197.73658 
    5650    41.080931    41.080931    41.080931    52.637529    56.903066     19.65021    81.359311   -13301.141    199.08548 
    5700    41.082046    41.082046    41.082046   -138.08371   -130.10054   -195.59197   -88.558611   -13304.866    207.38956 
    5750    41.081195    41.081195    41.081195    51.026768    191.39352   -116.82784    78.514624   -13302.054    203.11824 
    5800    41.082121    41.082121    41.082121   -32.475465   -117.23001    90.360785    -70.55717    -13301.45     203.1155 
    5850    41.083047    41.083047    41.083047     43.80743    78.877603    4.6188599    47.925828   -13301.295     203.9129 
    5900     41.08364     41.08364     41.08364   -109.18463    58.645683   -110.10223   -276.09734   -13301.557    205.54373 
    5950    41.081329    41.081329    41.081329    137.58429    117.05736    200.01713    95.678382   -13302.062    207.65715 
    6000    41.083623    41.083623    41.083623    12.678335    164.34984    -50.79116   -75.523676   -13299.674    204.18741 
    6050    41.086521    41.086521    41.086521   -223.05524   -117.63376   -233.73163   -317.80031     -13302.5     210.7391 
    6100    41.084157    41.084157    41.084157    100.85286   -1.8016211    117.91717    186.44303    -13298.31    203.75987 
    6150    41.084178    41.084178    41.084178    84.523596     136.0037    84.380191    33.186893   -13300.318    208.77277 
    6200    41.087452    41.087452    41.087452   -24.871808   -80.454121    109.53444   -103.69574   -13299.416    208.16246 
    6250    41.089227    41.089227    41.089227   -214.18167   -229.55497   -292.40069   -120.58936   -13299.362    209.14455 
    6300     41.08477     41.08477     41.08477    112.26864    266.49125    119.36594   -49.051276   -13299.193    209.96071 
    6350    41.083911    41.083911    41.083911    119.57257    118.06447    59.282765    181.37048   -13297.537    207.90416 
    6400    41.087871    41.087871    41.087871   -22.025582    47.619303   -52.438545   -61.257503   -13298.556     210.9444 
    6450     41.09025     41.09025     41.09025   -123.70832   -153.69358   -119.58635   -97.845028   -13299.421    213.71455 
    6500    41.088659    41.088659    41.088659    23.154207   -50.016521    105.05809    14.421054   -13296.539    209.28259 
    6550    41.087587    41.087587    41.087587    79.897791    81.843668    84.659447    73.190258    -13297.34    211.91197 
    6600    41.088719    41.088719    41.088719    44.622205    33.628786    57.041161    43.196667   -13297.902    214.11903 
    6650    41.091832    41.091832    41.091832   -57.216557   -187.61008   -52.021683    67.982096   -13296.533        212.6 
    6700    41.094026    41.094026    41.094026    -197.2006   -235.47797    -165.6562   -190.46765   -13297.427    215.43086 
    6750    41.090551    41.090551    41.090551    1.1837209   -37.487019    109.65452   -68.616338    -13295.77    213.31955 
    6800    41.087594    41.087594    41.087594    236.65141    117.98554    401.70102    190.26769   -13295.399    213.71506 
    6850     41.09172     41.09172     41.09172    32.196351   -2.8587599    169.34323   -69.895414    -13295.69    215.36933 
    6900    41.096453    41.096453    41.096453   -137.00647     -103.624    -152.0466   -155.34881   -13296.461    217.94062 
    6950    41.095958    41.095958    41.095958   -109.30163   -226.46515   -121.36157    19.921848   -13294.536    215.33326 
    7000    41.092329    41.092329    41.092329    44.672567    128.17963    -56.60611    62.444185   -13295.425    218.13458 
    7050    41.091451    41.091451    41.091451    220.26301    209.21693    281.94096    169.63116   -13293.273     215.0724 
    7100    41.096728    41.096728    41.096728   -164.49883   -122.44402   -78.062667    -292.9898   -13295.016    219.52594 
    7150    41.096956    41.096956    41.096956    -52.76831      45.0639    16.141087   -219.50992   -13293.769    218.20494 
    7200    41.094753    41.094753    41.094753   -13.256445    23.679718   -24.826185   -38.622866    -13294.98    221.64753 
    7250    41.094033    41.094033    41.094033    118.89904    122.64764    134.41115    99.638338   -13292.663    218.26229 
    7300    41.097374    41.097374    41.097374   -59.010939    25.499683   -170.96542   -31.567081   -13293.947    221.81888 
    7350    41.099536    41.099536    41.099536   -156.88417   -230.29508    -202.3083   -38.049128   -13292.188    219.50078 
    7400    41.097174    41.097174    41.097174   -37.588854   -107.56363    15.575064   -20.777994   -13293.781    223.63179 
    7450    41.094501    41.094501    41.094501    310.45212    399.25498     203.7096    328.39179   -13291.322    219.98102 
    7500    41.099641    41.099641    41.099641   -123.12907    -153.7303   -21.626384   -194.03051   -13292.088     222.5296 
    7550    41.101726    41.101726    41.101726   -81.093647   -62.885815   -72.657022    -107.7381   -13290.923    221.34653 
    7600    41.099729    41.099729    41.099729    11.517553   -75.321871   -73.087355    182.96189   -13291.668     223.8307 
    7650    41.097671    41.097671    41.097671   -11.099466   -28.907448    66.441884   -70.832833   -13291.889    225.33731 
    7700    41.097822    41.097822    41.097822    262.65145     223.7498    311.15504    253.04952   -13289.274    221.41149 
    7750    41.105037    41.105037    41.105037   -218.61232   -105.56153   -345.34216   -204.93326   -13289.574    222.99723 
    7800    41.104291    41.104291    41.104291    -182.6284   -162.34303   -107.05767   -278.48449   -13291.599    227.98042 
    7850    41.097281    41.097281    41.097281    190.58694    211.01426    94.093755    266.65279   -13289.747    225.47576 
    7900    41.098577    41.098577    41.098577    173.23595    172.12509    166.67377    180.90899   -13290.898    228.71583 
    7950    41.106361    41.106361    41.106361   -180.35484   -225.32399   -82.202035   -233.53849   -13288.708    225.53015 
    8000    41.106726    41.106726    41.106726   -80.541739    40.778472   -211.30574   -71.097949   -13286.474     222.3109 
    8050    41.101607    41.101607    41.101607    23.513196    9.7073601    91.829559   -30.997329    -13289.49    229.16968 
    8100    41.098722    41.098722    41.098722    121.65242    224.71542    196.92101   -56.679179   -13290.843     232.8255 
    8150    41.102888    41.102888    41.102888   -24.325514   -154.64593    33.860255    47.809129   -13290.437    233.09241 
    8200    41.108659    41.108659    41.108659   -136.16886   -226.42749    26.559084   -208.63817   -13286.644    226.82516 
    8250    41.108041    41.108041    41.108041   -140.06592   -165.89208   -87.804861   -166.50081   -13287.122    228.76994 
    8300     41.10261     41.10261     41.10261    128.68215    27.570586      240.305    118.17088   -13287.242    230.06861 
    8350    41.101762    41.101762    41.101762    275.31876     266.4484    268.12377    291.38412   -13285.123    227.02533 
    8400    41.108225    41.108225    41.108225     -74.5586   -29.242271    -53.83118   -140.60235   -13286.258    230.21245 
    8450    41.110962    41.110962    41.110962   -343.73877   -460.29004   -234.66096    -336.2653   -13288.619    235.79303 
    8500    41.103528    41.103528    41.103528     233.1098    250.31515    112.18053    336.83374   -13285.655    231.12234 
    8550     41.10378     41.10378     41.10378    187.27018    101.11918    241.76002    218.93134   -13286.399    233.56861 
    8600    41.110627    41.110627    41.110627    -228.6517   -133.17683   -232.98502   -319.79327   -13287.008    235.76055 
    8650     41.11088     41.11088     41.11088   -178.84839   -162.36143   -250.73904   -123.44469   -13285.353    233.60335 
    8700    41.106848    41.106848    41.106848    156.78294    144.99525    115.60434    209.74922   -13284.721    233.38269 
    8750    41.106308    41.106308    41.106308    18.738366    19.663548   -35.707164    72.258715   -13284.954    234.86263 
    8800    41.107548    41.107548    41.107548    78.476927   -42.746193   -90.262267    368.43924   -13285.541    237.00826 
    8850    41.112287    41.112287    41.112287   -209.14135   -176.92772   -141.35518   -309.14115   -13285.958     238.7786 
    8900    41.112179    41.112179    41.112179   -43.183983   -157.02859   -71.629512    99.106158   -13282.817    233.74114 
    8950    41.108772    41.108772    41.108772    137.40295    331.72115    15.486878     65.00082   -13282.916    234.92755 
    9000    41.109263    41.109263    41.109263    92.272662    9.0132943    126.17144    141.63325   -13283.745    237.52526 
    9050    41.112826    41.112826    41.112826   -137.76278   -36.528834   -165.43439   -211.32512   -13284.098     239.1993 
    9100    41.112651    41.112651    41.112651   -42.570099   -50.300342   -23.226985    -54.18297   -13282.769    237.60255 
    9150    41.110778    41.110778    41.110778     5.694043    15.275815    17.360797   -15.554484   -13283.898    240.78602 
    9200    41.110941    41.110941    41.110941    162.68213     72.41314    114.72862    300.90464   -13282.356     238.8113 
    9250    41.116042    41.116042    41.116042   -284.70339   -238.38748   -300.57638   -315.14632    -13285.25    245.35429 
    9300     41.11491     41.11491     41.11491     -46.4894    -37.88875   -69.208196   -32.371256   -13281.823    239.71876 
    9350    41.112162    41.112162    41.112162    144.70727    170.21932    193.91132    69.991155   -13279.935    237.06481 
    9400     41.11433     41.11433     41.11433    11.579031    124.71186    109.40018   -199.37495   -13281.862    241.71414 
    9450    41.115906    41.115906    41.115906   -177.59726   -207.30959   -103.88851   -221.59366   -13282.406    243.76907 
    9500     41.11197     41.11197     41.11197    124.10595    187.90431    209.48538   -25.071857   -13281.722    243.43935 
    9550    41.113251    41.113251    41.113251    158.23094   -7.8167175    355.00111    127.50843   -13279.007    239.13658 
    9600    41.117338    41.117338    41.117338   -187.17901   -155.64915   -67.163191   -338.72469   -13281.955    245.78795 
    9650     41.11575     41.11575     41.11575    13.097568   -123.45388    225.44332   -62.696744   -13281.048    244.99367 
    9700    41.115349    41.115349    41.115349   -83.614881   -217.19209   -100.21359    66.561039   -13281.684    247.18289 
    9750    41.116227    41.116227    41.116227    178.34829    185.81547     212.0154    137.21399    -13278.36    241.70691 
    9800    41.119398    41.119398    41.119398   -183.46759   -301.83017   -41.379953   -207.19263   -13279.617    245.10114 
    9850     41.11675     41.11675     41.11675    50.956565   -75.273555    59.864923    168.27833   -13278.958    244.76214 
    9900    41.116224    41.116224    41.116224    116.99641    16.990994    182.85194     151.1463   -13279.894    247.47507 
    9950    41.119301    41.119301    41.119301    -23.61022   -76.323951    33.246478   -27.753188   -13278.264    245.27986 
   10000    41.121139    41.121139    41.121139   -61.855186   -61.968718   -111.54924   -12.047599   -13278.132    245.95638 
   10050    41.119348    41.119348    41.119348     13.69493    41.406154    53.188572   -53.509935   -13278.546    247.70687 
   10100    41.117458    41.117458    41.117458    165.10238     181.5825     203.5124    110.21223   -13276.834    245.34272 
   10150    41.121749    41.121749    41.121749   -137.91645   -188.83569    -120.1359   -104.77776    -13279.47    251.30993 
   10200    41.123897    41.123897    41.123897   -22.154452    9.7172109   -48.091274   -28.089293    -13276.29     246.0973 
   10250    41.122699    41.122699    41.122699   -66.804463   -57.251661   -133.50353   -9.6581974   -13277.819    249.97694 
   10300    41.120064    41.120064    41.120064    193.75768    313.76514    76.976953    190.53097   -13275.043    245.53405 
   10350    41.122537    41.122537    41.122537    28.717636    163.75446   -72.244597   -5.3569553   -13277.841    251.84756 
   10400    41.126036    41.126036    41.126036   -176.59366   -143.16312   -245.36313   -141.25474   -13276.546    250.25365 
   10450    41.123988    41.123988    41.123988   -127.04908   -108.02708   -301.56278    28.442629   -13276.818    251.66144 
   10500     41.11854     41.11854     41.11854    250.31441    349.12768    134.00158    267.81397   -13276.088    251.17732 
   10550    41.121567    41.121567    41.121567    79.198532    92.940521   -47.891203    192.54628   -13275.715    251.35953 
   10600    41.127702    41.127702    41.127702   -227.89441   -216.09455   -238.05296   -229.53572   -13277.697    256.03663 
   10650    41.126321    41.126321    41.126321   -23.005768    22.490178   -105.56613    14.058652   -13273.985    249.77804 
   10700    41.123004    41.123004    41.123004      80.8256   -44.130471    177.60948    108.99779   -13275.612     253.7963 
   10750    41.124366    41.124366    41.124366    121.22462    108.31446    180.50816    74.851244   -13273.795    251.18011 
   10800    41.128354    41.128354    41.128354   -268.16382   -278.30702   -261.25925   -264.92518   -13276.016    256.32321 
   10850    41.125015    41.125015    41.125015    72.420366   -74.185795    32.754302    258.69259   -13274.652    254.58387 
   10900    41.124514    41.124514    41.124514    185.89831    224.10182    147.20075    186.39236   -13272.433    251.16537 
   10950    41.129298    41.129298    41.129298   -236.41955   -147.47666   -189.43806   -372.34392   -13275.582    258.10061 
   11000    41.127598    41.127598    41.127598    21.202806   -97.444416    120.48099    40.571846    -13273.76    255.46976 
   11050    41.126875    41.126875    41.126875    153.20416    198.27071    158.31545    103.02633   -13272.794    254.43979 
   11100    41.131031    41.131031    41.131031   -173.40579   -276.46678   -160.11565   -83.634939   -13273.471      256.594 
   11150    41.128808    41.128808    41.128808   -20.847783   -53.578855    102.78591    -111.7504   -13273.546    257.59553 
   11200    41.126375    41.126375    41.126375    93.529487    93.376275    26.991643    160.22054   -13273.541    258.45104 
   11250    41.128873    41.128873    41.128873   -105.93365    30.602733   -183.41542   -164.98826    -13274.25    260.66183 
   11300    41.129606    41.129606    41.129606    32.487548   -83.913693     189.2419   -7.8655623   -13270.215    253.70396 
   11350    41.128562    41.128562    41.128562   -41.240577    13.612024   -16.830554    -120.5032    -13271.92    257.85498 
   11400    41.127021    41.127021    41.127021    89.622623    103.83971    133.78458    31.243577   -13272.264    259.34087 
   11450    41.129713    41.129713    41.129713   -68.387532   -33.484486   -88.931192   -82.746916   -13273.578     262.7018 
   11500    41.130932    41.130932    41.130932    37.315891    225.54249    -122.8851    9.2902888   -13270.617    257.81032 
   11550    41.132594    41.132594    41.132594    -158.5051   -98.798772   -156.31101   -220.40553   -13272.938    263.10686 
   11600    41.131037    41.131037    41.131037   -5.6423247   -25.574573   -33.102543    41.750142   -13270.934    260.04361 
   11650    41.128585    41.128585    41.128585    172.82024    307.38183     175.2597    35.819191   -13268.984     257.1016 
   11700    41.130254    41.130254    41.130254     208.3058    144.66705    160.25539    319.99496   -13270.387    260.62174 
   11750    41.136307    41.136307    41.136307   -253.60954   -216.93974   -249.09786   -294.79101   -13269.565     259.8129 
   11800    41.135037    41.135037    41.135037   -197.80987   -178.07561   -322.53342   -92.820591   -13272.803    266.86502 
   11850    41.129184    41.129184    41.129184     227.6884    199.77106    91.576657     391.7175   -13269.965    262.17587 
   11900     41.13119     41.13119     41.13119    115.60275    155.97849    96.804264    94.025495   -13269.382    261.85353 
   11950    41.136514    41.136514    41.136514   -145.56236   -32.869009   -121.32947    -282.4886   -13269.358    262.58366 
   12000    41.135963    41.135963    41.135963   -180.37742    29.279934   -321.85776   -248.55442   -13270.524    265.63825 
   12050    41.130253    41.130253    41.130253    348.72757    479.67102    247.22619    319.28549   -13266.663    258.98379 
   12100     41.13415     41.13415     41.13415   -11.951846    61.577708   -7.9082966   -89.524949   -13270.153    266.45111 
   12150    41.138007    41.138007    41.138007   -265.63098   -335.13212   -163.38755   -298.37326   -13270.748    268.40902 
   12200    41.135245    41.135245    41.135245     123.9775    197.49556     28.83475    145.60219   -13266.727    261.39098 
   12250    41.134968    41.134968    41.134968    50.928563    59.383855    183.61936   -90.217531   -13266.319    261.35584 
   12300    41.134161    41.134161    41.134161    53.773446    80.944961    218.32063   -137.94525   -13269.204    267.67161 
   12350    41.134781    41.134781    41.134781    68.695492    61.442364    213.86994   -69.225826   -13267.857     265.8487 
   12400    41.138405    41.138405    41.138405   -46.752425   -134.73419    75.801058   -81.324144   -13268.483    267.80139 
   12450    41.140011    41.140011    41.140011   -223.17366   -359.04562   -158.31888   -152.15649   -13266.496    264.68239 
   12500    41.134504    41.134504    41.134504    81.109716     207.0321    103.57817   -67.281124    -13269.07    270.44261 
   12550    41.132672    41.132672    41.132672    327.61987    323.38599    448.01857    211.45504   -13265.985    265.24992 
   12600    41.141097    41.141097    41.141097   -313.10872     -523.387   -190.67237   -225.26679   -13269.011    271.80278 
   12650    41.140836    41.140836    41.140836   -156.43208   -131.00575   -26.810949   -311.47953   -13266.928    268.51663 
   12700    41.135124    41.135124    41.135124    201.13769    155.34966    429.28764    18.775786   -13264.569    264.72214 
   12750    41.136116    41.136116    41.136116    77.819289    159.20803    122.45745   -48.207607   -13267.029    270.15673 
   12800    41.140915    41.140915    41.140915   -67.894364   -273.39045     141.8205   -72.113143   -13266.229    269.33523 
   12850    41.142139    41.142139    41.142139   -262.20241   -240.02093   -245.78372   -300.80258   -13266.424    270.41404 
   12900    41.134669    41.134669    41.134669    153.19688    126.86772    303.21751    29.505416   -13267.175    272.56549 
   12950    41.134363    41.134363    41.134363    415.92587    503.31547    434.01136    310.45077   -13263.299    265.80309 
   13000    41.146131    41.146131    41.146131    -425.9747   -170.57308   -435.41141   -671.93961   -13265.979    271.68038 
   13050    41.144716    41.144716    41.144716   -304.95771   -360.97417   -110.50802   -443.39095   -13266.044    272.49999 
   13100    41.133763    41.133763    41.133763    256.93259    203.93522    347.09941    219.76314    -13266.17    273.45986 
   13150    41.134167    41.134167    41.134167    242.24972    271.04786    284.44866    171.25263   -13266.671      275.085 
   13200    41.144108    41.144108    41.144108   -177.36315   -238.37834    19.454618   -313.16572   -13264.367    271.31522 
   13250    41.147317    41.147317    41.147317   -321.36118    -333.8735   -213.49616   -416.71387   -13264.953    273.13729 
   13300    41.140139    41.140139    41.140139    67.873693   -1.4233396    195.37115    9.6732674   -13263.926    271.82137 
   13350    41.136906    41.136906    41.136906    289.73288    262.95123    394.82961    211.41781   -13263.913    272.45274 
   13400    41.143645    41.143645    41.143645   -141.51307   -135.29977   -173.76223   -115.47721   -13263.751    272.82222 
   13450    41.145773    41.145773    41.145773   -71.398315   -16.474564   -49.557389   -148.16299   -13264.274    274.46901 
   13500    41.143026    41.143026    41.143026   -73.266443   -85.113846   -2.1935525   -132.49193   -13263.469    273.60263 
   13550    41.140125    41.140125    41.140125    269.65539    235.46641    447.37198    126.12777   -13261.888    271.18585 
   13600    41.144991    41.144991    41.144991   -115.02019   -97.369104   -222.43447   -25.256993   -13263.817    275.56004 
   13650    41.145515    41.145515    41.145515    -143.8306   -198.91559   -95.789197   -136.78701   -13263.483    275.58527 
   13700    41.140148    41.140148    41.140148    203.00781    157.61028    142.08139    309.33178   -13263.859    276.96997 
   13750    41.142342    41.142342    41.142342    132.94237    121.67347    73.101322    204.05231   -13261.956     273.9183 
   13800    41.148401    41.148401    41.148401    -337.2107   -203.06799   -378.94989   -429.61424   -13265.457    281.31503 
   13850    41.145286    41.145286    41.145286    93.967183    34.731353    150.21471     96.95549   -13260.505    272.39362 
   13900    41.143834    41.143834    41.143834    134.79341    33.557934    165.02378    205.79852   -13261.069    274.09007 
   13950    41.146714    41.146714    41.146714   -56.692503   -51.782738   -47.768042   -70.526728   -13262.963     278.3541 
   14000    41.148141    41.148141    41.148141   -108.63324   -171.82444   -148.33428   -5.7409971   -13261.363    275.88157 
   14050    41.144737    41.144737    41.144737    62.823944    168.88525   -110.18084    129.76741   -13262.202    278.10833 
   14100    41.143002    41.143002    41.143002    232.16378    246.48242    159.26643    290.74249   -13259.512    273.54074 
   14150    41.147772    41.147772    41.147772   -140.13154    -206.3132   -219.92827    5.8468565   -13263.232    281.32554 
   14200    41.148659    41.148659    41.148659   -56.720351   -122.88668   -5.3534981   -41.920872   -13260.042    275.75278 
   14250    41.147047    41.147047    41.147047    22.210427    89.534034   -133.15657    110.25382   -13262.053    280.24144 
   14300    41.147255    41.147255    41.147255    134.69363    88.004621    156.91845    159.15782   -13259.624     276.1356 
   14350    41.149644    41.149644    41.149644   -282.02983   -277.73068   -453.54835   -114.81047   -13262.762    282.75368 
   14400    41.146506    41.146506    41.146506     110.4064   -23.348783    123.51767    231.05033   -13261.149    280.22823 
   14450    41.147862    41.147862    41.147862     73.14342    16.814492    119.11704    83.498732   -13259.107    276.86384 
   14500     41.15241     41.15241     41.15241   -167.76988   -12.326234    -340.8575    -150.1259   -13259.658    278.48865 
   14550     41.14901     41.14901     41.14901    39.548995   -14.129251    49.129903    83.646332   -13260.491    280.66981 
   14600    41.146006    41.146006    41.146006    178.23227    131.69798    208.39524     194.6036   -13261.156    282.52256 
   14650    41.151486    41.151486    41.151486    37.996555   -42.572774    55.938854    100.62359   -13258.586    278.11158 
   14700    41.156457    41.156457    41.156457    -250.8238   -381.21937   -339.18654   -32.065487   -13258.827    279.12062 
   14750    41.150661    41.150661    41.150661   -119.42886   -18.520877   -210.36126   -129.40443    -13259.96    281.84961 
   14800    41.141164    41.141164    41.141164    392.50374    376.46718    109.99744    691.04661    -13260.83    284.11593 
   14850    41.147102    41.147102    41.147102    221.27926    344.77726    100.55565    218.50486   -13258.941    280.98949 
   14900    41.161564    41.161564    41.161564   -416.61326   -533.13303   -378.96677   -337.73997   -13257.328    278.40882 
   14950    41.160328    41.160328    41.160328   -373.26623   -289.71538   -441.42322    -388.6601   -13258.429    281.05018 
   15000    41.145677    41.145677    41.145677     170.0545    178.74044     94.72043    236.70262   -13260.674    285.92936 
   15050    41.140394    41.140394    41.140394     614.9037    741.67792     498.4654    604.56778   -13258.111    281.52034 
   15100    41.155128    41.155128    41.155128   -247.49474   -229.66311   -224.78367   -288.03745   -13260.821    287.27218 
   15150    41.162805    41.162805    41.162805   -410.38806   -384.18473   -503.49257   -343.48687   -13256.033    278.53254 
   15200    41.153365    41.153365    41.153365   -52.557731   -13.117068   -62.528549   -82.027577   -13258.895    284.54523 
   15250    41.142481    41.142481    41.142481     533.7586    624.68595    347.18373    629.40613   -13257.144    281.68528 
   15300     41.15027     41.15027     41.15027    138.87616    74.453128     87.65694    254.51841   -13258.252    284.29823 
   15350    41.162157    41.162157    41.162157   -550.57295   -545.58306   -402.78915   -703.34665   -13259.314    286.87802 
   15400    41.156081    41.156081    41.156081   -135.83239   -369.39582   -124.92343    86.822069   -13257.936    284.69925 
   15450    41.145242    41.145242    41.145242    311.59477    369.99322    224.84047    339.95061   -13258.635    286.53352 
   15500    41.146474    41.146474    41.146474    334.77925    396.82543    295.04986    312.46244   -13256.251    282.41256 
   15550    41.157968    41.157968    41.157968   -152.31953   -246.50848   -334.15201    123.70191   -13256.882     284.1014 
   15600    41.161624    41.161624    41.161624   -479.92489   -576.81316   -476.86399    -386.0975   -13257.568    285.90745 
   15650    41.150603    41.150603    41.150603    107.48882   -44.212731    55.558427    311.12076   -13257.443    286.13887 
   15700    41.144962    41.144962    41.144962    471.26222    441.89903    536.03861    435.84902   -13257.927    287.56409 
   15750    41.154291    41.154291    41.154291   -191.96783   -260.91544   -177.34549   -137.64255   -13257.372    286.94505 
   15800     41.15927     41.15927     41.15927   -147.72009   -212.84677   -87.310921   -143.00257   -13256.016    284.77767 
   15850    41.155871    41.155871    41.155871   -89.933926   -167.98898   -278.84598    177.03317   -13256.769    286.63263 
   15900    41.148658    41.148658    41.148658     271.2356    189.76258    443.63248    180.31175   -13257.025    287.61499 
   15950    41.152336    41.152336    41.152336    130.07515    8.1441348   -98.015398    480.09671   -13256.958    287.94374 
   16000     41.16173     41.16173     41.16173    -294.4558   -349.20504   -285.17605   -248.98631   -13255.982    286.48482 
   16050     41.15935     41.15935     41.15935   -214.71729   -188.66764   -159.39297   -296.09124   -13256.812    288.50064 
   16100    41.150027    41.150027    41.150027     482.2476     482.1452     289.3172    675.28039   -13253.043    281.69381 
   16150    41.154153    41.154153    41.154153    36.591696    18.830195    120.69392   -29.749029   -13255.303     286.4936 
   16200    41.160331    41.160331    41.160331   -304.99017   -459.90077   -352.65483    -102.4149   -13257.344     290.8602 
   16250     41.15638     41.15638     41.15638   -84.909225   -252.45221    8.2904356   -10.565897   -13255.722    288.13664 
   16300    41.150052    41.150052    41.150052    256.50921    196.75939    210.28925    362.47897   -13255.465    288.10138 
   16350    41.152919    41.152919    41.152919    152.41717    156.49593    213.91957    86.836005   -13255.325    288.22019 
   16400    41.159867    41.159867    41.159867   -160.38788   -25.021776   -149.47098   -306.67089   -13255.112    288.21218 
   16450    41.160971    41.160971    41.160971   -363.10574    -306.7676   -344.79244   -437.75718   -13257.322    292.90401 
   16500    41.152811    41.152811    41.152811     108.8787   -14.686887   -62.636716    403.95972   -13256.298    291.33263 
   16550    41.150411    41.150411    41.150411    412.19441    218.09057    583.77893    434.71373   -13253.703    286.74753 
   16600    41.160325    41.160325    41.160325   -240.13468   -301.64097   -304.32704   -114.43603   -13254.599    288.83134 
   16650    41.161828    41.161828    41.161828   -285.17274   -197.63657   -226.43442   -431.44722   -13255.365    290.70653 
   16700    41.152543    41.152543    41.152543    212.96655    106.31278    266.75169     265.8352   -13254.613    289.65799 
   16750    41.151049    41.151049    41.151049     333.9089    268.44535    464.72386    268.55749   -13254.727    290.27176 
   16800    41.161949    41.161949    41.161949   -243.35168   -339.76945   -264.58971   -125.69588   -13254.389    289.98401 
   16850    41.164127    41.164127    41.164127   -304.73896   -253.48535   -360.21907   -300.51245   -13252.987    287.63647 
   16900    41.153635    41.153635    41.153635    119.76111    105.24107     148.4114    105.63086   -13254.339    290.62426 
   16950    41.148911    41.148911    41.148911    379.04994    366.75976    193.53412    576.85595   -13254.625    291.55479 
   17000    41.159318    41.159318    41.159318   -117.00413   -157.26572    28.228799   -221.97548   -13254.096    290.87967 
   17050    41.164904    41.164904    41.164904   -362.93287   -427.99199   -335.57383   -325.23279   -13254.193     291.4324 
   17100    41.156399    41.156399    41.156399    4.8710416    30.122438    18.839262   -34.348576   -13254.895    293.14453 
   17150    41.150533    41.150533    41.150533    404.19468    494.70989    131.97466     585.8995   -13252.775    289.40578 
   17200    41.157672    41.157672    41.157672   -8.3810712    41.060929   -78.952263     12.74812   -13254.639    293.31509 
   17250    41.164165    41.164165    41.164165   -275.39634   -227.33774   -287.57069   -311.28059   -13252.462    289.45895 
   17300    41.160295    41.160295    41.160295    100.70462    102.29686    88.049905    111.76708   -13251.681    288.31198 
   17350    41.156843    41.156843    41.156843   -80.170685   -135.78401   -82.485092   -22.242957   -13256.703    298.33331 
   17400    41.156497    41.156497    41.156497    210.68462    351.77805    52.548878    227.72692   -13252.434    290.42078 
   17450     41.16137     41.16137     41.16137   -274.13212   -288.80646   -426.21876   -107.37114   -13254.193    294.14102 
   17500    41.158778    41.158778    41.158778    16.246796   -62.098915    52.251785    58.587519   -13253.856     293.8273 
   17550    41.156068    41.156068    41.156068     150.7418    202.42503    73.053054    176.74731    -13252.39     291.3244 
   17600    41.159017    41.159017    41.159017    21.671359   -6.5955692   -77.253744    148.86339   -13252.795     292.4259 
   17650    41.162055    41.162055    41.162055   -165.36245   -78.118385   -135.89597     -282.073   -13253.832    294.70903 
   17700     41.16028     41.16028     41.16028    38.506364     -159.088    82.413538    192.19355   -13252.666    292.80341 
   17750    41.159736    41.159736    41.159736    -147.0806    90.755887   -285.16024   -246.83744    -13253.55     294.8213 
   17800    41.156214    41.156214    41.156214    214.23327    316.28868    3.4211057    322.99003   -13252.891    293.85788 
   17850    41.158082    41.158082    41.158082    157.95059    135.32328    79.126069    259.40241   -13249.775    288.13849 
   17900    41.163361    41.163361    41.163361    -263.7905   -251.73938   -351.54813   -188.08398   -13254.467    297.48505 
   17950    41.160814    41.160814    41.160814   -11.034896   -83.376672    27.006835    23.265149   -13250.975    291.04931 
   18000    41.156277    41.156277    41.156277     60.09352    175.61299    21.266488   -16.598918   -13254.997    299.11861 
   18050    41.155811    41.155811    41.155811    328.20614     415.1607    197.66612    371.79161    -13250.12    289.97755 
   18100     41.16506     41.16506     41.16506   -116.39953  -0.37146271   -139.87433   -208.95278   -13250.915    291.77737 
   18150    41.166976    41.166976    41.166976   -385.44104   -440.21654   -361.63955   -354.46703   -13251.531    293.24087 
   18200    41.155483    41.155483    41.155483    161.18993    200.70003    79.660912    203.20884   -13253.997    298.27914 
   18250    41.152014    41.152014    41.152014    453.72091    524.50645    479.13161    357.52468   -13251.985    294.65879 
   18300    41.164789    41.164789    41.164789    -222.4662    -370.6745   -266.41969   -30.304429   -13252.306    295.54381 
   18350    41.170918    41.170918    41.170918    -414.7845    -384.4785   -527.16663   -332.70836   -13251.397    294.03599 
   18400    41.160553    41.160553    41.160553    173.55962    158.51811     131.1878    230.97296   -13249.795    291.20573 
   18450    41.152738    41.152738    41.152738    424.79965    324.49052    258.77549    691.13295   -13252.311    296.34411 
   18500    41.160764    41.160764    41.160764    145.78412    141.12203    249.32446    46.905878   -13250.613    293.30797 
   18550    41.172141    41.172141    41.172141   -530.65178   -450.85643   -627.65208   -513.44684     -13252.2    296.61067 
   18600    41.165444    41.165444    41.165444   -215.81512   -146.58357   -292.74858   -208.11321   -13252.719    297.84101 
   18650    41.153374    41.153374    41.153374    322.91062    320.82367    306.11093    341.79726   -13254.713    301.93965 
   18700    41.156179    41.156179    41.156179    321.84954    223.74903    65.599417    676.20018   -13249.879    292.84225 
   18750    41.169769    41.169769    41.169769   -225.30481   -184.68057   -300.31423   -190.91962   -13250.059    293.40922 
   18800     41.17182     41.17182     41.17182   -415.02759   -394.29817   -421.64453   -429.14007    -13250.41     294.3193 
   18850    41.159459    41.159459    41.159459    120.14825    232.87689    35.592819    91.975047   -13252.854    299.27058 
   18900    41.153901    41.153901    41.153901    475.29901    493.34163    385.30614    547.24925    -13251.27    296.42369 
   18950    41.164589    41.164589    41.164589   -25.316827    62.050558   -116.30499   -21.696051   -13251.052    296.19798 
   19000    41.172982    41.172982    41.172982   -311.06802    -244.4789   -560.11065   -128.61452   -13248.131    290.77467 
   19050    41.167147    41.167147    41.167147   -171.01192   -122.95469   -341.91117   -48.169895   -13251.081    296.65365 
   19100    41.156196    41.156196    41.156196    413.98988    444.29644    261.25623    536.41698    -13251.84    298.36674 
   19150    41.159795    41.159795    41.159795    127.68126    112.04244    52.531504    218.46983   -13252.847    300.51927 
   19200    41.171016    41.171016    41.171016   -119.31473    15.499972   -148.19843   -225.24573   -13247.774    290.89695 
   19250    41.173678    41.173678    41.173678   -618.59011   -643.94746   -728.38458   -483.43829   -13252.618    300.40492 
   19300    41.157335    41.157335    41.157335    486.12396     521.9874    427.29028     509.0942   -13249.511    294.60871 
   19350    41.157585    41.157585    41.157585    386.74151    415.38985    202.87481    541.95987   -13250.896    297.51092 
   19400    41.171703    41.171703    41.171703   -308.56998    -233.0084   -230.43743   -462.26411   -13250.636    297.17941 
   19450    41.173511    41.173511    41.173511   -332.77417   -321.61449     -599.695   -77.013034   -13248.726    293.64955 
   19500    41.162554    41.162554    41.162554   -49.329573   -140.75307     81.29929   -88.534934    -13253.48    303.03925 
   19550    41.152664    41.152664    41.152664    651.84733    822.76592     475.8632    656.91286   -13248.146    292.94456 
   19600    41.163926    41.163926    41.163926   -21.094602    31.693034    30.781881   -125.75872   -13251.409    299.36729 
   19650    41.173825    41.173825    41.173825   -489.54791   -396.68383    -573.5151   -498.44479   -13249.727    296.30876 
   19700    41.165707    41.165707    41.165707    149.95842    194.30913    134.26058    121.30556   -13247.936    293.03332 
   19750    41.161249    41.161249    41.161249    282.63009    185.89629    373.56828    288.42569   -13250.006    297.17226 
   19800    41.165164    41.165164    41.165164   -126.93351   -8.6589908   -255.48963   -116.65192    -13252.01    301.20821 
   19850    41.168331    41.168331    41.168331   -9.9773711   -5.3933926   -46.825297    22.286577   -13250.516     298.4769 
   19900    41.169669    41.169669    41.169669   -357.02117   -206.58214   -266.32528   -598.15608     -13252.9    303.21869 
   19950    41.162369    41.162369    41.162369    388.06014    431.04573    142.00752    591.12716   -13247.324    292.62923 
   20000    41.166102    41.166102    41.166102   -69.597642    57.584681   -233.12458    -33.25303   -13252.636    303.01026 
Loop time of 473.84 on 4 procs for 20000 steps with 4000 atoms

Pair  time (%) = 330.474 (69.7438)
Neigh time (%) = 0.0129295 (0.00272866)
Comm  time (%) = 106.727 (22.5238)
Outpt time (%) = 0.701261 (0.147995)
Other time (%) = 35.925 (7.58166)

Nlocal:    1000 ave 1010 max 990 min
Histogram: 1 0 0 0 1 1 0 0 0 1
Nghost:    3775 ave 3791 max 3753 min
Histogram: 1 0 0 0 1 0 0 0 1 1
Neighs:    68905.5 ave 71305 max 66003 min
Histogram: 1 0 0 0 1 0 0 1 0 1
FullNghs:  0 ave 0 max 0 min
Histogram: 4 0 0 0 0 0 0 0 0 0

Total # of neighbors = 275622
Ave neighs/atom = 68.9055
Neighbor list builds = 2
Dangerous builds = 0
unfix 1

# Store final cell length for strain calculations
variable tmp equal "lx"
variable L0 equal ${tmp}
variable L0 equal 41.1661016233907
print "Initial Length, L0: ${L0}"
Initial Length, L0: 41.1661016233907

######################################
# DEFORMATION
reset_timestep	0

fix		1 all npt temp 300 300 1 y 0 0 1 z 0 0 1 drag 1
variable srate equal 1.0e10
variable srate1 equal "v_srate / 1.0e12"
fix		2 all deform 1 x erate ${srate1} units box remap x
fix		2 all deform 1 x erate 0.01 units box remap x

# Output strain and stress info to file
# for units metal, pressure is in [bars] = 100 [kPa] = 1/10000 [GPa]
# p2, p3, p4 are in GPa
variable strain equal "(lx - v_L0)/v_L0"
variable p1 equal "v_strain"
variable p2 equal "-pxx/10000"
variable p3 equal "-pyy/10000"
variable p4 equal "-pzz/10000"
fix def1 all print 20 "${p1} ${p2} ${p3} ${p4}" file  Al99.posRhoR.eam.alloy.def1.txt screen no

# Use cfg for AtomEye
#dump 		1 all cfg 250 dump.tensile_*.cfg id type xs ys zs c_csym c_peratom fx fy fz
#dump_modify 1 element Al

# Display thermo
thermo 	50
thermo_style	custom step v_strain temp v_p2 v_p3 v_p4 ke pe press

run		20000
Memory usage per processor = 3.04301 Mbytes
Step strain Temp p2 p3 p4 KinEng PotEng Press 
       0 -8.6301922e-16    303.01026 -0.0057584681  0.023312458  0.003325303    156.62944   -13252.636   -69.597642 
      50       0.0005    300.27723  0.025364989  0.021818549  0.022688918     155.2167   -13251.175   -232.90818 
     100        0.001    295.15858  0.041641851 -0.0090611043 -0.015666676    152.57081   -13248.443   -56.380237 
     150       0.0015    294.73154   0.06718245 -0.020164335 -0.011420669    152.35007   -13248.152   -118.65815 
     200        0.002    297.94172   0.11529672 -0.0048575638  0.012726068    154.00945   -13249.731   -410.55076 
     250       0.0025    297.72346   0.12499117 0.0087085992 0.0077868049    153.89662   -13249.523   -471.62191 
     300        0.003     296.0061   0.18180711 0.0063940262  -0.02820224    153.00891   -13248.527   -533.32966 
     350       0.0035     297.4679    0.1823973 0.0021571885  0.014468982    153.76452   -13249.165   -663.41157 
     400        0.004    295.84627   0.22745791 -0.014422016 -0.0061657766    152.92629   -13248.186   -689.56707 
     450       0.0045    299.19427   0.22968768 0.0014066875  0.016359259     154.6569   -13249.793   -824.84544 
     500        0.005    298.01675   0.26485256  0.030667509 -0.019660237    154.04823   -13249.054   -919.53276 
     550       0.0055    300.92245   0.31483629  0.005143345    0.0149148    155.55022   -13250.402   -1116.3148 
     600        0.006    296.28049   0.30935785 -0.019214451 -0.008259329    153.15074    -13247.84   -939.61358 
     650       0.0065    301.47799   0.35771846 -0.014797403  0.034955472    155.83739   -13250.379   -1259.5884 
     700        0.007    300.35009   0.38830319  0.011823934   0.01955976    155.25436    -13249.61   -1398.9563 
     750       0.0075    295.13827   0.35653958  0.019216232 -0.017437888    152.56031   -13246.752   -1194.3931 
     800        0.008    302.09459   0.44660168 -0.0010736913 -0.011208136    156.15612   -13250.167   -1447.7328 
     850       0.0085    298.67339   0.45888947 0.0051057316 0.0083765383    154.38766   -13248.192   -1574.5725 
     900        0.009    299.39834   0.48554222  0.016534344  0.019539944    154.76239   -13248.364   -1738.7217 
     950       0.0095    298.97976   0.52006331 0.0033167467 0.0048999152    154.54602   -13247.942   -1760.9332 
    1000         0.01    294.22226   0.52051231 -0.035292822 -0.0089628022    152.08682   -13245.269   -1587.5223 
    1050       0.0105    299.50576   0.55680366 0.0038418826 0.0054481671    154.81792   -13247.772    -1886.979 
    1100        0.011    293.20929    0.5974105 0.0015207043 -0.014811953     151.5632   -13244.299   -1947.0642 
    1150       0.0115    300.15272   0.64052526  0.032207261  0.025520331    155.15234   -13247.648   -2327.5095 
    1200        0.012     301.3069     0.675935 -0.000430581  0.038436707    155.74895   -13248.005   -2379.8037 
    1250       0.0125    297.99693   0.65592048 -0.0061404349 -0.031349811    154.03799   -13246.028   -2061.4341 
    1300        0.013    296.73623   0.69780667 -0.0090562393 -0.017023743    153.38632   -13245.118   -2239.0889 
    1350       0.0135      293.381   0.70862647 -0.0084494505 -0.012203583    151.65196   -13243.126   -2293.2448 
    1400        0.014    304.02222    0.7845758  0.059262549  0.037600157    157.15253   -13248.365   -2938.1283 
    1450       0.0145    294.82466   0.78588946 -0.046898789 -0.0063603955     152.3982   -13243.327   -2442.1009 
    1500        0.015    297.64103   0.81099931 -0.013899001   0.01506533    153.85402   -13244.492   -2707.2188 
    1550       0.0155    299.98417   0.85004427 0.0027860589  0.015424215    155.06522   -13245.414   -2894.1818 
    1600        0.016    298.07199   0.86140408  0.011082052 -0.021239415    154.07678   -13244.123   -2837.4891 
    1650       0.0165     295.6128   0.87894716  0.024985279 -0.014288975     152.8056   -13242.542   -2965.4782 
    1700        0.017    300.67232   0.93999282 -0.010952709 -0.023948943    155.42093   -13244.868   -3016.9706 
    1750       0.0175    298.46436   0.95618364 -0.0045150216  0.019228143    154.27961   -13243.401   -3236.3225 
    1800        0.018     300.6535   0.99321245  0.023938167  0.010104126     155.4112   -13244.209   -3424.1825 
    1850       0.0185    296.44094    1.0190702 -0.003288892  0.018878841    153.23368   -13241.707   -3448.8672 
    1900        0.019    299.74194    1.0365772 -0.019433754  0.010670492       154.94   -13243.083   -3426.0464 
    1950       0.0195    297.43483    1.0715702 0.0098999312 -0.024214268    153.74743   -13241.561   -3524.1861 
    2000         0.02    300.25976    1.0751015 -0.013470566 -0.0024056347    155.20767   -13242.672    -3530.751 
    2050       0.0205    294.56602       1.0816 0.0060419034 0.00063847614    152.26451   -13239.372   -3627.6013 
    2100        0.021    296.46333    1.1543106  0.039429514 0.0039812908    153.24525   -13240.021   -3992.4046 
    2150       0.0215    297.71224    1.1563674 0.0064237431  0.016550089    153.89083    -13240.31   -3931.1373 
    2200        0.022     295.2224    1.1481797 -0.055565844 -0.049196628     152.6038   -13238.646   -3478.0576 
    2250       0.0225    294.96841     1.184876 -0.019832652   -0.0209567    152.47251   -13238.144   -3813.6221 
    2300        0.023    304.38803    1.2621553  0.047580966  0.070526622    157.34162   -13242.665   -4600.8761 
    2350       0.0235     300.0903    1.3014954  0.022454533  0.050701547    155.12007   -13240.052   -4582.1715 
    2400        0.024    297.73145    1.2701593 -0.0071115989 -0.014818705    153.90076    -13238.44   -4160.7634 
    2450       0.0245    296.78574    1.2668332 -0.057942157 -0.064480332    153.41191   -13237.549   -3814.7022 
    2500        0.025    297.62107     1.333734  0.022476832 -0.031120501     153.8437   -13237.589   -4416.9678 
    2550       0.0255    298.33261    1.4039979   0.04854283  0.058138209     154.2115    -13237.55   -5035.5965 
    2600        0.026    294.61785    1.3924218  0.040472038  0.031621926     152.2913   -13235.223   -4881.7193 
    2650       0.0265    298.54778    1.3789937 -0.026789819 -0.0064817324    154.32273   -13236.846   -4485.7405 
    2700        0.027    296.38614    1.4193383 -0.071412518 -0.036849241    153.20535   -13235.302   -4370.2552 
    2750       0.0275    302.27311    1.4769541 2.2166895e-05 0.0095747247    156.24839   -13237.924   -4955.1699 
    2800        0.028    296.20755    1.5275137  0.022756139  0.021341228    153.11304   -13234.354   -5238.7037 
    2850       0.0285    293.55573     1.530286  0.034567364  0.013368593    151.74228   -13232.525   -5260.7398 
    2900        0.029    295.72121    1.5332499 0.0082643624 -0.023208389    152.86164   -13233.192   -5061.0197 
    2950       0.0295    302.07654    1.5757443  -0.01098123 -0.015726412    156.14678   -13236.028   -5163.4556 
    3000         0.03    293.43756    1.5818475  -0.02713904 -0.0092544075     151.6812   -13231.086   -5151.5137 
    3050       0.0305     303.7151    1.6641264   0.02494218  0.031152542    156.99377   -13235.926   -5734.0706 
    3100        0.031    293.49115    1.6501281 -0.0049086177 -0.0064473645     151.7089   -13230.162   -5462.5736 
    3150       0.0315     299.6295    1.6684948  0.027967629   0.01147631    154.88188   -13232.849   -5693.1292 
    3200        0.032    295.99654    1.6785622 -0.038220024 -0.012196398    153.00396   -13230.491   -5427.1527 
    3250       0.0325    302.31606    1.7236542 -0.010593131   0.01058927    156.27059    -13233.26    -5745.501 
    3300        0.033    292.13028    1.7378474  0.010846052 -0.00038521843    151.00545   -13227.493    -5827.694 
    3350       0.0335    301.21124    1.7987168  0.018340585  0.042675121     155.6995   -13231.691   -6199.1085 
    3400        0.034    298.66694    1.7934412 -0.011781054 -0.023920779    154.38432   -13229.879   -5859.1312 
    3450       0.0345    297.20917    1.7582103 -0.0027254689 -0.012858433    153.63079   -13228.616   -5808.7547 
    3500        0.035    293.62934     1.832298  0.011014053 -0.029337721    151.78033   -13226.241   -6046.5809 
    3550       0.0355    293.19165    1.8609839  0.026580839  0.015918244    151.55408    -13225.51   -6344.9434 
    3600        0.036    301.42598    1.9192985 0.0059774949  0.010509327     155.8105   -13229.235   -6452.6178 
    3650       0.0365    297.31852    1.9144991 -0.029860817 -0.032059449    153.68731    -13226.57   -6175.2627 
    3700        0.037    294.47509    1.9072829  -0.03229111 -0.018328248    152.21751   -13224.551   -6188.8786 
    3750       0.0375     294.7433    1.9768368  0.022872906   0.03237992    152.35615   -13224.161   -6773.6319 
    3800        0.038    298.48641    2.0256682  0.017100588  0.059310901      154.291    -13225.55   -7006.9323 
    3850       0.0385    295.94763    1.9907438 -0.027998046 -0.015315381    152.97868   -13223.677   -6491.4346 
    3900        0.039    298.67797    2.0373752 -0.031227419 -0.033366123    154.39002   -13224.514   -6575.9389 
    3950       0.0395    298.12233    2.0768517 0.0078160652 -0.026616736     154.1028   -13223.666   -6860.1702 
    4000         0.04    295.48518    2.1151621  0.038935864  0.030444865    152.73964   -13221.727   -7281.8094 
    4050       0.0405    297.10367      2.13813 0.0060952306  0.047682709    153.57625   -13221.988   -7306.3599 
    4100        0.041    298.48224    2.1285123 0.0017195405  -0.01418767    154.28885   -13222.116   -7053.4805 
    4150       0.0415    300.18402    2.1595789 -0.051920064 -0.023624107    155.16852   -13222.402   -6946.7826 
    4200        0.042    297.69821    2.2098113 -0.0032623792 0.0001833968    153.88357   -13220.519   -7355.7743 
    4250       0.0425    296.03002    2.2201368  0.057675226  0.015220526    153.02127   -13219.075    -7643.442 
    4300        0.043    295.51921    2.2339981  0.051074574 -0.0039217611    152.75722   -13218.207   -7603.8364 
    4350       0.0435     300.9386    2.2693689 -0.020000753  0.001407353    155.55857   -13220.405   -7502.5849 
    4400        0.044    293.20931    2.2227456 -0.037973104 -0.026811207    151.56321   -13215.784   -7193.2044 
    4450       0.0445    300.55919    2.3136677  0.013452203 0.00020908994    155.36245   -13218.967   -7757.7634 
    4500        0.045    297.37086    2.3622717  0.007649079  0.036173063    153.71436   -13216.695   -8020.3127 
    4550       0.0455    296.71778     2.370197 -0.0088969537   0.03998538    153.37678   -13215.726   -8004.2847 
    4600        0.046    299.06497    2.4376443 0.0083041333 -0.015883403    154.59007   -13216.284   -8100.2168 
    4650       0.0465    297.75946    2.4032287 -0.0085177464 -0.027143991    153.91524   -13214.969   -7891.8899 
    4700        0.047    296.70564    2.4305219 0.0061546015 -0.015856729    153.37051   -13213.768   -8069.3991 
    4750       0.0475    298.85473    2.4834317  0.020186008  0.018453652     154.4814    -13214.22   -8406.9044 
    4800        0.048    292.18128    2.4805729 0.0074497943  0.031664514    151.03181   -13210.094   -8398.9574 
    4850       0.0485     299.6782    2.5220174 -0.00053062419 -0.005546711    154.90705   -13213.301   -8386.4669 
    4900        0.049     299.7748    2.5142229 -0.021197483 -0.011796861    154.95699   -13212.679   -8270.7617 
    4950       0.0495    293.47049    2.5550432 -0.0028230234 -0.010189641    151.69822   -13208.741    -8473.435 
    5000         0.05    295.39778     2.599288 -0.0017618224  0.036621418    152.69446   -13209.062   -8780.4919 
    5050       0.0505    299.98785     2.617782  0.023089336  0.015217329    155.06711   -13210.744   -8853.6289 
    5100        0.051    292.50247    2.5979044 -0.029676561 -0.029811358    151.19784   -13206.174   -8461.3882 
    5150       0.0515    300.35857     2.655953 -0.018050011 -0.0039810912    155.25874   -13209.549   -8779.7397 
    5200        0.052    297.88107    2.6920893  0.015189066 0.0091971236     153.9781   -13207.567   -9054.9183 
    5250       0.0525    293.96097    2.7144367  0.026651018  0.010871722    151.95175   -13204.843   -9173.1982 
    5300        0.053    298.52283    2.7530342  0.035945697   0.02930375    154.30983   -13206.464    -9394.279 
    5350       0.0535    300.37681    2.7642265 -0.0089761185 -0.027840268    155.26817   -13206.684   -9091.3671 
    5400        0.054    297.40156    2.7209385 -0.016827351 -0.056568999    153.73023   -13204.419   -8825.1404 
    5450       0.0545    296.65421    2.7952737 0.0017466314 0.0032027609    153.34392   -13203.326   -9334.0771 
    5500        0.055    299.12758    2.8514324  0.050171904  0.053507146    154.62243   -13203.873   -9850.3716 
    5550       0.0555    295.54979    2.8699197 -0.0068072863  0.028027406    152.77303    -13201.28   -9637.1327 
    5600        0.056    297.08773    2.8703593 -0.028881631 -0.017545078    153.56801   -13201.331   -9413.1087 
    5650       0.0565     298.8359    2.8841593 -0.035979165 0.00017491676    154.47166   -13201.488   -9494.5168 
    5700        0.057    295.85224    2.9123507  0.004595803 -0.00097662851    152.92937     -13199.2   -9719.8995 
    5750       0.0575    297.61421    2.9275974  0.030051211  0.028100426    153.84015   -13199.349   -9952.4969 
    5800        0.058    299.25334    2.9886381  0.023525599 0.0086482861    154.68744   -13199.434   -10069.373 
    5850       0.0585    300.21519    2.9844621  0.013216131 -0.019538693    155.18463   -13199.135   -9927.1319 
    5900        0.059    297.51589    2.9605264 -0.025141422 -0.033220873    153.78933   -13196.971   -9673.8802 
    5950       0.0595    295.75507     3.027673  0.035402094 -0.012248274    152.87914   -13195.286   -10169.423 
    6000         0.06    292.33461     3.034119   0.01640301  0.020124521    151.11107    -13192.74   -10235.489 
    6050       0.0605    297.60016    3.0716725  0.018734956 0.0069461998    153.83289   -13194.678   -10324.512 
    6100        0.061    298.59652    3.1003195 -0.033274116 -0.0079344869    154.34792   -13194.384   -10197.036 
    6150       0.0615    297.71976    3.1084125 -0.051562675  0.012784256    153.89472   -13193.127   -10232.114 
    6200        0.062    289.41081    3.0910702  -0.01561445 -0.0040671302    149.59972   -13188.045   -10237.962 
    6250       0.0625    296.87429    3.1541846  0.035595434  0.054250295    153.45768   -13191.101   -10813.435 
    6300        0.063    296.63801    3.1772378  0.012421786 -0.0048007672    153.33555   -13190.171   -10616.196 
    6350       0.0635    292.61098    3.1775898 -0.016987799 -0.045904768    151.25393   -13187.269   -10382.324 
    6400        0.064    301.03412    3.2237321 -0.033013461 -0.012942441    155.60795   -13190.796   -10592.587 
    6450       0.0645    292.25356    3.2539833  0.013485336 -0.010795802    151.06918   -13185.426   -10855.576 
    6500        0.065    304.93146    3.3356924   0.10654925  0.046822693    157.62252   -13191.138   -11630.215 
    6550       0.0655    289.72504    3.2611817 -0.0078739218 -0.017687364    149.76215   -13182.431   -10785.401 
    6600        0.066    294.21419    3.2830378 -0.065607276 -0.057502858    152.08264   -13183.894   -10533.092 
    6650       0.0665    298.74689    3.3287223 -0.014681774 -0.015753793    154.42565   -13185.388   -10994.289 
    6700        0.067    294.01167    3.3954097  0.034574999  0.032928239    151.97796   -13182.083   -11543.043 
    6750       0.0675    293.00975    3.4277856 0.0030592638  0.051357478    151.46005     -13180.7   -11607.341 
    6800        0.068    298.90585    3.4003075 -0.010139927  0.015759248    154.50782    -13182.88   -11353.089 
    6850       0.0685    294.73605    3.3867596 -0.054436959 -0.026033873     152.3524   -13179.858   -11020.963 
    6900        0.069    300.24738    3.4412824 -0.011805651  0.011231467    155.20127   -13181.839   -11469.027 
    6950       0.0695    295.28522     3.458925 0.0049495175  0.026914868    152.63627   -13178.404   -11635.965 
    7000         0.07    296.37519    3.4812883  0.022118473 -0.0088799874    153.19969   -13178.088   -11648.422 
    7050       0.0705    293.64247    3.4909816  0.032754944 -0.020367249    151.78712    -13175.78   -11677.898 
    7100        0.071    293.00058    3.5176327 0.0025738527 -0.056507619    151.45531   -13174.561   -11545.663 
    7150       0.0715    300.50228    3.5592433  0.034493055 -0.016167821    155.33303   -13177.536   -11925.228 
    7200        0.072    291.19118    3.5429769  0.029214212 -0.020349388    150.52002   -13171.841   -11839.472 
    7250       0.0725     292.5458    3.5921778 -0.016934346 -0.017201224    151.22024   -13171.651   -11860.141 
    7300        0.073    299.12988    3.6452645 0.0021037106  0.021257662    154.62362   -13174.137   -12228.753 
    7350       0.0735    298.80523    3.6476393 0.0020496375  0.044598854    154.45581   -13173.039   -12314.293 
    7400        0.074    293.89855     3.619973 -0.029382365 -0.0025666527    151.91949   -13169.565    -11960.08 
    7450       0.0745    297.46125    3.6872804 -0.0035950165 -0.013284324    153.76109   -13170.466    -12234.67 
    7500        0.075    291.05603    3.6824999  -0.03526637  0.036498555    150.45016   -13166.216   -12279.107 
    7550       0.0755    298.58723    3.7355205 -0.0070828919  0.052832606    154.34312    -13169.17   -12604.234 
    7600        0.076    296.40294    3.7354821 -0.0020485703 0.0068777206    153.21404   -13167.111   -12467.704 
    7650       0.0765    293.65138    3.7612885 -0.012918122 -0.056478014    151.79172   -13164.731   -12306.308 
    7700        0.077    298.58758    3.8015144  0.020838739 -0.020325448     154.3433   -13166.329   -12673.426 
    7750       0.0775     296.2643    3.8366309  0.038889367  0.013659596    153.14237    -13164.16   -12963.933 
    7800        0.078    295.48616     3.854278  0.046928723 -0.0012872655    152.74014   -13162.796   -12999.732 
    7850       0.0785     290.4678    3.8751549 -0.015151069 -0.034214396    150.14609    -13159.24   -12752.631 
    7900        0.079    298.30169    3.8809394 -0.023324569 -0.014503725    154.19552   -13162.316    -12810.37 
    7950       0.0795    298.52893    3.9362311 -0.010020183  0.048271111    154.31298   -13161.442   -13248.273 
    8000         0.08    301.40304    3.9889437  0.027046699  0.047328344    155.79864   -13161.931   -13544.396 
    8050       0.0805    294.56863    3.9115583  -0.01209925 -0.010502368    152.26586   -13157.432   -12963.189 
    8100        0.081      291.958    3.9316973 -0.041156074 -0.0085253609     150.9164   -13155.104   -12940.053 
    8150       0.0815    292.00213    3.9733541 -0.010205884  0.027864681     150.9392   -13154.136   -13303.376 
    8200        0.082     294.9614    4.0072221  0.015303877  0.017633045    152.46889   -13154.672   -13467.197 
    8250       0.0825    298.43042    3.9911222  0.020316801 -0.0087879849    154.26206   -13155.461    -13342.17 
    8300        0.083    295.76049    3.9881142  0.029785008 -0.049003057    152.88195   -13153.069   -13229.654 
    8350       0.0835    295.59618    4.0314161  0.021170975  -0.02911862    152.79701   -13151.978   -13411.561 
    8400        0.084      291.895    4.0189598 -0.00060068795  0.012851423    150.88383    -13149.07   -13437.368 
    8450       0.0845    292.85785    4.1057827 -0.017632821 -0.00088829563    151.38154   -13148.549   -13624.205 
    8500        0.085     293.8572    4.1210348  0.028048623  0.011221645    151.89811   -13148.032   -13867.683 
    8550       0.0855    293.48818    4.1020782 -0.0066655586 0.0010727082    151.70736   -13146.812   -13654.951 
    8600        0.086    289.70338    4.0863542 -0.044417199 -0.033731755    149.75096   -13143.839   -13360.684 
    8650       0.0865    298.20928    4.1657132 -0.015299548  0.046000302    154.14775   -13147.204   -13988.046 
    8700        0.087    294.48831    4.1725437 0.0082188548 0.0044440391    152.22434   -13144.236   -13950.689 
    8750       0.0875    295.12273    4.1909041  0.012859239 -0.017307385    152.55228   -13143.513   -13954.853 
    8800        0.088    293.21514     4.239597 -0.021319981 -0.0012096056    151.56623   -13141.479   -14056.891 
    8850       0.0885    295.08731    4.2751857  0.016579989  0.011158623    152.53397   -13141.381   -14343.081 
    8900        0.089    296.50501    4.2774233 0.0025737727  0.015175303    153.26679    -13141.05   -14317.241 
    8950       0.0895    300.48927    4.3313931 -0.007087535 0.0090051098     155.3263   -13142.041   -14444.369 
    9000         0.09    295.05581    4.3233927 -0.017020397 -0.021889384    152.51769   -13138.151    -14281.61 
    9050       0.0905    287.65281      4.30766  0.029016408 -0.057000094    148.69099   -13133.249   -14265.588 
    9100        0.091    294.59527    4.3845448   0.05579288  0.040382388    152.27963   -13135.753   -14935.734 
    9150       0.0915    298.99631     4.400256  0.032085014  0.018222032    154.55458   -13136.956    -14835.21 
    9200        0.092    294.00496    4.3697682 -0.052183505 -0.040943003    151.97449     -13133.3   -14255.472 
    9250       0.0925    295.34586    4.4008232 -0.040403972 -0.028900356    152.66762   -13132.915   -14438.396 
    9300        0.093    295.56039    4.4387027 -0.026394146  0.083387893    152.77851   -13131.923   -14985.655 
    9350       0.0935    293.07639     4.476802  0.026534589  0.080322733     151.4945   -13129.539   -15278.864 
    9400        0.094    294.07645    4.4821023  0.033813493 -0.030678254    152.01145   -13128.967   -14950.792 
    9450       0.0945    298.21359    4.4496323 -0.032727337 -0.036670307    154.14998   -13129.996   -14600.782 
    9500        0.095    290.44002    4.4161839 -0.037637911 -0.033846499    150.13173   -13124.882   -14482.332 
    9550       0.0955    294.84145    4.4777295  0.022443308  0.045178008    152.40689   -13126.047   -15151.169 
    9600        0.096    291.28192    4.5120407  0.036234289  0.050055334    150.56692   -13123.096   -15327.768 
    9650       0.0965    295.29799    4.5056397  0.015293723  0.024482969    152.64288   -13124.078   -15151.388 
    9700        0.097    294.67372    4.5393652  -0.05279409 -0.070456408    152.32018    -13122.62   -14720.382 
    9750       0.0975    295.09851    4.5957687  0.031283479 -0.052130536    152.53976   -13121.701   -15249.739 
    9800        0.098    297.17867     4.645174  0.093163122  0.010601669    153.61502   -13121.638   -15829.796 
    9850       0.0985    292.39017    4.6130725  0.019321901  0.040210005    151.13979   -13118.043   -15575.348 
    9900        0.099    299.07279    4.6441396  -0.04367559  0.016485635    154.59411   -13120.362   -15389.832 
    9950       0.0995    290.57265    4.6411689 -0.062280819 -0.059175291    150.20029   -13114.831   -15065.709 
   10000          0.1     293.3835    4.6969664 0.0094258302  0.025618648    151.65325   -13115.128    -15773.37 
   10050       0.1005     291.0227    4.7048173  0.041363136    0.0564797    150.43293   -13112.728   -16008.867 
   10100        0.101    296.26915    4.7152934  0.021808555  0.024430683    153.14488   -13114.283   -15871.775 
   10150       0.1015    291.44247    4.6735751 -0.011191138  -0.04206807    150.64991   -13110.647   -15401.053 
   10200        0.102    294.08763    4.7004136 -0.073444619 -0.053938126    152.01722   -13110.846   -15243.436 
   10250       0.1025    294.22372    4.7663591 0.00020728641  0.036165445    152.08757   -13109.736   -16009.106 
   10300        0.103    291.88383    4.8074796   0.05380468  0.093639791    150.87806   -13107.318   -16516.414 
   10350       0.1035    298.70694     4.820094  0.069673376   0.04733194      154.405   -13109.682   -16456.998 
   10400        0.104    290.92371     4.780884 -0.091212384 -0.066119556    150.38176   -13104.488    -15411.84 
   10450       0.1045     293.3214    4.7850156  -0.07178835  -0.10859694    151.62115   -13104.534   -15348.768 
   10500        0.105    292.08684    4.8462351  0.050880947  0.010979707      150.983   -13102.703   -16360.319 
   10550       0.1055    291.02014    4.9030729   0.10156257  0.099632229     150.4316   -13100.931   -17014.226 
   10600        0.106    292.85102    4.8603776  0.011513897  0.077819873    151.37801   -13100.761   -16499.038 
   10650       0.1065    291.72606    4.8480563 -0.080026509  -0.11009912     150.7965   -13098.951   -15526.436 
   10700        0.107    295.51312    4.8861213 -0.034227231 -0.083765312    152.75408   -13099.717   -15893.763 
   10750       0.1075    296.71202    4.9757884  0.092823965  0.046633993     153.3738   -13099.102   -17050.821 
   10800        0.108    293.42238    4.9819176  0.052490183  0.076719481    151.67335    -13096.19   -17037.091 
   10850       0.1085    285.35111     4.950067 -0.063457877 -0.016466176    147.50122   -13090.806    -16233.81 
   10900        0.109    297.66146      4.96653 -0.044683504 -0.036098281    153.86458    -13095.94   -16285.827 
   10950       0.1095    294.88395    5.0141549 -0.020162949 -0.022848628    152.42885   -13093.278   -16570.478 
   11000         0.11    290.54367    5.0340172  0.034193448  0.050169098    150.18531   -13089.789   -17061.266 
   11050       0.1105     288.5347    5.0149114  0.049177615  0.032143169    149.14685   -13087.516   -16987.441 
   11100        0.111    293.09528    4.9842303 -0.047016112 0.0093187978    151.50427   -13088.687   -16488.443 
   11150       0.1115    288.82299    4.9462562 -0.086001292 -0.034670093    149.29588   -13085.251   -16085.283 
   11200        0.112    293.05584    5.0132092  0.012458604 -0.0062965562    151.48388   -13086.182   -16731.238 
[...]
   11600        0.116    289.99005    5.1783091 -0.062266907 -0.036755221    149.89914   -13074.536   -16930.957 
   11650       0.1165    291.19954    5.2371389 -0.034396242 0.0027783002    150.52434   -13073.867   -17351.737 
   11700        0.117    295.56192    5.2827463  0.041358481   0.05957712     152.7793   -13074.803   -17945.606 
   11750       0.1175    289.42518    5.2391118  0.015038564 0.0010948396    149.60715   -13070.353   -17517.484 
   11800        0.118    289.93643    5.2357302 -0.036773091  0.012204261    149.87142   -13069.346   -17370.538 
   11850       0.1185    294.99723    5.2515737 -0.017441696  0.018584332    152.48741   -13070.692   -17509.054 
   11900        0.119    291.71231     5.221388 -0.010644288 -0.028035413     150.7894   -13067.708   -17275.694 
   11950       0.1195    289.25527     5.224999 -0.0047416738  0.013808783    149.51932    -13065.12   -17446.887 
   12000         0.12    287.18505    5.2455896  0.008947511  0.027338748     148.4492   -13062.743   -17606.253 
   12050       0.1205    288.80333    5.2670032  0.015520743   0.01545703    149.28571   -13062.312   -17659.937 
   12100        0.121    293.72785    5.2612767  0.008529233 -0.021033101    151.83125   -13063.561   -17495.909 
   12150       0.1215    284.76868    5.2254233 -0.005961265 -0.073806949    147.20016   -13057.618   -17152.183 
   12200        0.122    291.93272    5.2733166  0.012320511  0.019088698    150.90333   -13060.005    -17682.42 
   12250       0.1225    291.03107    5.3063373  0.034236862  0.041120085    150.43726   -13058.227   -17938.981 
   12300        0.123    286.99549    5.2890935 0.0052895477 -0.015485002    148.35122    -13054.83   -17596.327 
   12350       0.1235    291.46477    5.3183498 -0.007031186 -0.040358874    150.66144   -13055.816   -17569.866 
   12400        0.124    290.85683    5.3471084 -0.0044911467  0.016964429    150.34719   -13054.165   -17865.272 
   12450       0.1245    286.45539    5.3771449  0.004859152  0.014424478    148.07203   -13050.555   -17988.095 
   12500        0.125    289.42269    5.3945976  0.014215575   0.02005854    149.60587   -13050.757   -18096.239 
   12550       0.1255    292.09547    5.3590697 -0.0077989374  -0.03003994    150.98746   -13050.825   -17737.436 
   12600        0.126    291.65315    5.3267561 -0.033020027 0.0047617984    150.75882   -13049.249   -17661.659 
   12650       0.1265    286.63798    5.3164052 -0.028599955 -0.0082967578    148.16642   -13045.336   -17598.362 
   12700        0.127    292.22715    5.3858204  0.039199021  0.038838196    151.05552   -13046.894   -18212.859 
   12750       0.1275    292.59399    5.3046555  0.043590551 -0.00032998724    151.24515   -13045.748   -17826.387 
   12800        0.128    291.06293    5.2000495 -0.056685637 -0.022656022    150.45372   -13043.648   -17069.026 
   12850       0.1285    286.89327     5.080189 -0.052774601 -0.025994363    148.29838   -13040.211     -16671.4 
   12900        0.129    291.98395    5.0378183 -0.0034135782  0.053192736    150.92981   -13041.557   -16958.658 
   12950       0.1295    292.72278    4.9446068 0.0078823642  0.075796396    151.31172   -13040.661   -16760.952 
   13000         0.13    294.22418    4.7947725  0.053811825 -0.018220536    152.08781   -13040.199   -16101.213 
   13050       0.1305    301.12821     4.664014 -0.012139365 0.0019746511    155.65658   -13042.565   -15512.831 
   13100        0.131    299.89999    4.4159534  -0.10105264 0.0086777787     155.0217   -13040.762   -14411.929 
   13150       0.1315    307.58274    4.2204684 -0.015733099  0.036132262      158.993    -13043.64   -14136.225 
   13200        0.132    307.27598    3.9482498  0.064486018  0.056681384    158.83443   -13042.438   -13564.724 
   13250       0.1325    327.33602    3.7009618  0.073759713  0.027628299    169.20369   -13051.873   -12674.499 
   13300        0.133    327.49574    3.3156798 -0.047576557 -0.010249481    169.28626   -13051.161   -10859.512 
   13350       0.1335    333.96441    3.0629643 -0.048175941 -0.073834657    172.62999    -13053.82   -9803.1789 
   13400        0.134     339.5364    2.8750152  0.070603928 -0.031959139    175.51021   -13056.116   -9712.2001 
   13450       0.1345    342.70707    2.6991688  0.074060682 0.00039629208    177.14916    -13057.34   -9245.4193 
   13500        0.135    342.56769    2.4260086   0.09285937 -0.037456266    177.07712   -13057.055   -8271.3725 
   13550       0.1355    345.55736    2.2397891 -0.034959876 0.00073080778    178.62251    -13058.52   -7351.8668 
   13600        0.136    347.93245    1.9996749 -0.016588802 -0.016269706    179.85022   -13059.738   -6556.0546 
   13650       0.1365    347.60132     1.844259  -0.01962889  0.033052541    179.67906   -13059.657   -6192.2754 
   13700        0.137    344.25385    1.7155787 0.0094557844  0.061032829    177.94871   -13058.065   -5953.5577 
   13750       0.1375     345.8775    1.6538584  0.009633416   0.03841085      178.788   -13059.111   -5673.0088 
   13800        0.138     348.3213    1.5396051 -0.0087531693 -0.051822896    180.05122   -13060.633   -4930.0969 
   13850       0.1385    345.84758    1.4953971 -0.017659311 -0.064932165    178.77253     -13059.6   -4709.3519 
   13900        0.139    356.11622    1.5243102  0.094838442  0.018904861    184.08051   -13065.158   -5460.1783 
   13950       0.1395    349.17739    1.4474228  0.014344771 0.0082238908    180.49375   -13061.853   -4899.9715 
   14000         0.14    356.98504    1.4709135  0.023559775   -0.0347202    184.52961   -13066.186   -4865.8435 
   14050       0.1405    354.07218     1.464789 -0.040702145 -4.3019181e-05    183.02392   -13064.987   -4746.8128 
   14100        0.141    358.94832    1.5588514  0.020649673  0.044488396    185.54445   -13067.761   -5413.2983 
   14150       0.1415    356.41035    1.5255941  0.069080275  0.013874249    184.23254   -13066.741   -5361.8288 
   14200        0.142    359.76649    1.4913292 -0.045216519 -0.028715255    185.96737   -13068.746   -4724.6581 
   14250       0.1425     362.4024    1.4883565  0.030883731 -0.047634773     187.3299   -13070.443   -4905.3515 
   14300        0.143    357.26902    1.4141228  0.028904138 -0.030369297     184.6764   -13068.161   -4708.8587 
   14350       0.1435    354.36027    1.4537314 -0.0031327749 0.0083344609    183.17283   -13067.019   -4863.1104 
   14400        0.144    359.60172    1.4990683 0.0096797617  0.042897928     185.8822   -13070.051   -5172.1534 
   14450       0.1445    353.16265    1.4655778 -0.061892461  0.012413785    182.55377   -13067.024   -4720.3305 
   14500        0.145    353.25339    1.4359886 -0.020306052 -0.052641779    182.60068   -13067.377   -4543.4693 
   14550       0.1455    362.16892    1.4921497  0.056557958  0.029766268    187.20922   -13072.313   -5261.5797 
   14600        0.146    358.39783    1.4600243  0.023993904  0.035577056     185.2599   -13070.698   -5065.3176 
   14650       0.1465    352.49504    1.4063991 -0.050053438 -0.013906753    182.20868   -13068.022   -4474.7962 
   14700        0.147    356.01276    1.4453609 -0.035313578 0.0088304354    184.02703   -13070.182   -4729.5924 
   14750       0.1475    360.54125    1.4245473  0.011512206  0.070824311    186.36785   -13072.898   -5022.9462 
   14800        0.148    359.92551    1.3850901   0.02080029  0.020172409    186.04957   -13072.974   -4753.5425 
   14850       0.1485    362.07028    1.3695534 -0.035893493  0.015302273    187.15822   -13074.483   -4496.5406 
   14900        0.149    355.01475    1.2983016 -0.034106074  0.015407167    183.51114   -13071.246   -4265.3423 
   14950       0.1495    365.50007     1.335468  0.022403337 0.0069378927    188.93113   -13077.043   -4549.3642 
   15000         0.15    354.73165    1.2812111  0.021834318  0.010013514    183.36481   -13071.888   -4376.8632 
   15050       0.1505    357.33215    1.2693861 -0.026183727 -0.034389467    184.70903   -13073.629   -4029.3763 
   15100        0.151    356.49704    1.3190229  0.023438541 -0.014815274    184.27736   -13073.591   -4425.4871 
   15150       0.1515    355.43329    1.3388993  0.061873927 -0.0014712289    183.72749   -13073.424   -4664.3401 
   15200        0.152    350.02845    1.3049567  0.020984269  0.034169227    180.93367   -13070.995   -4533.7007 
   15250       0.1525    353.95917    1.2501787  0.013300918 -0.029096445     182.9655   -13073.452   -4114.6104 
   15300        0.153     361.2989    1.2119693 -0.029358725  0.011261784    186.75949   -13077.648   -3979.5747 
   15350       0.1535    352.80806    1.2443454 -0.027731311   -0.1029247    182.37048   -13073.693   -3712.2981 
   15400        0.154    353.28247    1.2745306 0.0049871488  0.025646714    182.61571   -13074.322   -4350.5481 
   15450       0.1545    358.48025    1.3381529   0.10360828    0.1458305     185.3025   -13077.373   -5291.9724 
   15500        0.155    352.16677    1.2653641 -0.0042519003  0.011350726    182.03899    -13074.57   -4241.5431 
   15550       0.1555    351.88361    1.2204703  -0.12364237  -0.11570185    181.89262   -13074.789   -3270.4202 
   15600        0.156    353.38577    1.2302803 -0.018949513 -0.034893096     182.6691   -13075.935   -3921.4588 
   15650       0.1565    350.76162    1.2368023  0.076784897   0.10945842    181.31265   -13074.939   -4743.4855 
   15700        0.157    349.11118    1.1912533  0.015368663  0.055604759    180.45952   -13074.507   -4207.4224 
   15750       0.1575    354.72778     1.143223  -0.06212733 -0.021554791     183.3628   -13077.804   -3531.8028 
   15800        0.158    356.07008    1.1283374 0.0016697104 -0.052495403    184.05665   -13078.898   -3591.7058 
   15850       0.1585    353.65884    1.1414184  0.032603214 -0.052207871    182.81026    -13078.05    -3739.379 
   15900        0.159    355.49381    1.1995878 0.0068601489  0.046975789    183.75877    -13079.41   -4178.0791 
   15950       0.1595    352.29363    1.1919927 -0.004617392  0.048546953    182.10457    -13078.16   -4119.7409 
   16000         0.16      353.723    1.1891506 -0.059881399  0.024318832    182.84342   -13079.328   -3845.2934 
   16050       0.1605    353.30023    1.1341388 -0.019989214  -0.03924175    182.62489   -13079.525   -3583.0262 
   16100        0.161    359.37619    1.2335371  0.089558408 -0.042927993    185.76562   -13083.064   -4267.2252 
   16150       0.1615    350.73353    1.2720319  0.029964465 -0.063003819    181.29813   -13079.011   -4129.9751 
   16200        0.162    358.72887    1.3059337  0.085929719 -0.0033354596    185.43102   -13083.558   -4628.4264 
   16250       0.1625    356.96434     1.352504 0.0046146927  0.015576871    184.51891   -13083.064   -4575.6517 
   16300        0.163    352.19175    1.2908635 -0.024541285  0.020632582     182.0519    -13080.95   -4289.8494 
   16350       0.1635    355.04161    1.1988313 -0.091281908  0.023199048    183.52503   -13082.811   -3769.1616 
   16400        0.164    357.39957    1.1900271  -0.09212861  0.055273098    184.74388    -13084.45   -3843.9052 
   16450       0.1645    353.63899    1.1940706 -0.049421835  0.074484938        182.8   -13082.967    -4063.779 
   16500        0.165    353.90496    1.2247482  0.022774374 0.0011813107    182.93748   -13083.552   -4162.3463 
   16550       0.1655    354.88189    1.2207185  0.037211101 0.0051888719    183.44247   -13084.454   -4210.3948 
   16600        0.166    356.57378     1.227085  0.040194147 -0.092845917    184.31702   -13085.699   -3914.7775 
   16650       0.1665    358.05642     1.254793  0.080251857 -0.056977223    185.08342   -13086.862   -4260.2255 
   16700        0.167    344.90422     1.221613  0.011552168  -0.02926105    178.28489   -13080.492   -4013.0137 
   16750       0.1675    360.07855    1.1821461  0.096233367  0.028626454    186.12868    -13088.74   -4356.6865 
   16800        0.168    355.69588    1.1626755  0.010090573 -0.031646179    183.86323   -13086.942   -3803.7331 
   16850       0.1685      354.235    1.0983974 -0.028152356 -0.092865077    183.10808   -13086.605   -3257.9331 
   16900        0.169    351.63825    1.1134378 0.00091891168  -0.01844531    181.76579   -13085.703    -3653.038 
   16950       0.1695    352.04319    1.1819721 -0.010763434   0.10594107    181.97511   -13086.293   -4257.1659 
   17000         0.17    350.13249     1.204955 -0.087238745  0.077453362    180.98745   -13085.662   -3983.8986 
   17050       0.1705    354.63947    1.2214266 -0.051859184  0.013495884    183.31716   -13088.397   -3943.5443 
   17100        0.171    354.08757    1.2626665 0.0029539358 -0.032827382    183.03188   -13088.488   -4109.3102 
   17150       0.1715    348.03079    1.2558842  0.034226009  0.027246254    179.90106   -13085.703   -4391.1881 
   17200        0.172    347.39785    1.1971356  0.081372508  0.051656739    179.57388   -13085.797   -4433.8828 
   17250       0.1725    346.19922    1.1854616 -0.010196838 -0.055257253    178.95429   -13085.578   -3733.3583 
   17300        0.173    354.00544    1.2085992 -0.033161779 -0.075305894    182.98942   -13089.965   -3667.1053 
   17350       0.1735    349.06232    1.3253873  0.015768959 -0.024288844    180.43426   -13087.755   -4389.5581 
   17400        0.174     348.1043    1.4101948  0.027811022  0.053370032    179.93905   -13087.565   -4971.2527 
   17450       0.1745    354.81866    1.4019207  0.032391171  0.050946959    183.40978   -13091.369   -4950.8629 
   17500        0.175     348.3213    1.4025544 -0.089362727  0.023090261    180.05122   -13088.334   -4454.2732 
   17550       0.1755    347.69787    1.3298314 -0.012785644 0.0034857442    179.72897   -13088.356   -4401.7718 
   17600        0.176    344.62613    1.3697595  0.013140996 -0.014358325    178.14115    -13087.07   -4561.8074 
   17650       0.1765    347.64256    1.3421963  0.044439479  0.016430921    179.70037   -13088.932    -4676.889 
   17700        0.177    345.61627    1.3699016  0.038913482 -0.054346647    178.65296   -13088.179   -4514.8947 
   17750       0.1775    342.34225    1.3907058 -0.004855469  -0.07271445    176.96058   -13086.794   -4377.1195 
   17800        0.178    344.39832    1.3426263  0.018174225  0.006540381    178.02339   -13088.152   -4557.8029 
   17850       0.1785    349.34733    1.3641156  0.080307764  0.030630803    180.58159   -13091.008   -4916.8471 
   17900        0.179    351.06788    1.3339998  0.028086174   0.01585224    181.47096   -13092.213   -4593.1275 
   17950       0.1795    345.62478    1.3126475  -0.14149624 -0.020273854    178.65736   -13089.687   -3836.2581 
   18000         0.18    344.92447    1.3824014 -0.087066801  0.040842201    178.29536   -13089.632   -4453.9227 
   18050       0.1805    340.97073    1.4148685 -0.0035158236  0.071412596    176.25163   -13087.895    -4942.551 
   18100        0.181    342.51666    1.4585163  0.062103423  0.079071645    177.05074   -13088.986   -5332.3047 
   18150       0.1815    344.62685    1.3981766  0.073365458  -0.01075544    178.14152   -13090.391   -4869.2888 
   18200        0.182     345.6694    1.3624271 -0.036888772  -0.11560891    178.68043   -13091.162   -4033.0981 
   18250       0.1825    345.89635    1.4052085 -0.029778708  -0.10662633    178.79774   -13091.556   -4229.3448 
   18300        0.183    345.86945    1.4035137  0.054166511  0.074859605    178.78383   -13091.795   -5108.4661 
   18350       0.1835    334.71391    1.3868887  0.025573677  0.060610553    173.01741   -13086.306    -4910.243 
   18400        0.184    344.41507    1.3556809 -0.036575535  0.031170683    178.03205    -13091.59   -4500.9201 
   18450       0.1845    336.79595    1.3208764  -0.10438505   0.01881259    174.09364   -13087.915   -4117.6799 
   18500        0.185    342.17908    1.3818075 -0.040569179 -0.011904457    176.87624   -13090.978    -4431.113 
   18550       0.1855    341.87696    1.5043745 -0.024031075 -0.026081025    176.72007   -13091.062   -4847.5415 
   18600        0.186    339.16056     1.564416  0.094593345  0.036326566    175.31593    -13089.86   -5651.1198 
   18650       0.1865    340.92165    1.5602158  0.065706933 -0.0072447842    176.22626   -13090.984   -5395.5932 
   18700        0.187    340.55217    1.5248634  0.018037297 -0.054102392    176.03527   -13091.004   -4962.6611 
   18750       0.1875    338.26971    1.5198241 -0.035957846 -0.026631369    174.85544   -13090.006   -4857.4496 
   18800        0.188    336.66511    1.5446475  0.061446216 -0.033859359    174.02601   -13089.378   -5240.7813 
   18850       0.1885     339.5682    1.5432903  0.067075258   0.01897758    175.52665   -13091.099   -5431.1437 
   18900        0.189    335.93389    1.5011383 -0.015214083 -0.005284723    173.64803   -13089.411   -4935.4651 
   18950       0.1895    342.68657    1.5859175 -0.071770087  0.047520225    177.13856   -13093.069   -5205.5589 
   19000         0.19    336.50316    1.5587722 -0.074708177  0.037339144    173.94229   -13090.049    -5071.344 
   19050       0.1905    334.73139    1.5477758 -0.040689984  0.059333809    173.02645   -13089.336   -5221.3988 
   19100        0.191    332.39864    1.5595954  0.059703397  0.029483626    171.82062   -13088.302   -5495.9415 
   19150       0.1915    336.84905    1.5365711   0.11214415  -0.05552735    174.12109    -13090.74   -5310.6264 
   19200        0.192    338.65941    1.5122969 -0.023718732  -0.08106335    175.05688   -13091.814   -4691.7161 
   19250       0.1925    338.57249    1.4887551 -0.045089454  -0.02487594    175.01195    -13091.94   -4729.2989 
   19300        0.193    334.17523    1.5520702 -0.026515149  0.032401114    172.73896   -13089.812   -5193.1871 
   19350       0.1935    326.54707    1.5979031  0.050841926  0.099700376    168.79588   -13086.003   -5828.1512 
   19400        0.194    337.24796     1.557092  0.062548393  0.061650616    174.32729   -13091.682   -5604.3033 
   19450       0.1945    332.38918    1.4768643 -0.060386181  -0.10829268    171.81573   -13089.327   -4360.6181 
   19500        0.195     333.5067    1.4936382 -0.0072489773 -0.091991135    172.39339   -13090.048   -4647.9936 
   19550       0.1955     331.4763    1.5787698  0.052104113  0.068429513    171.34385   -13089.106   -5664.3448 
   19600        0.196     336.2949    1.5401915  0.034746443   0.10925853    173.83464   -13091.733   -5613.9882 
   19650       0.1965    333.85162    1.4381774 -0.087885337  0.015208698    172.57168   -13090.646   -4551.6693 
   19700        0.197    331.69794    1.4390967 -0.090898288 -0.037869074    171.45842   -13089.685   -4367.7646 
   19750       0.1975     331.8819    1.5034978 -0.023938383  0.019398836    171.55351   -13089.933   -4996.5274 
   19800        0.198    332.48972    1.5476234  0.031536164  0.020685223     171.8677   -13090.357   -5332.8158 
   19850       0.1985    323.96726    1.5755882  0.051547251 -0.020339965    167.46234   -13086.059   -5355.9848 
   19900        0.199    334.41289    1.5196113  0.091721081   0.01191256    172.86181   -13091.612   -5410.8166 
   19950       0.1995    327.20924    1.5237761 -0.0024456535  -0.11952568    169.13816    -13087.98   -4672.6826 
   20000          0.2    329.34975    1.5165895 -0.048468921 -0.046940402    170.24462   -13089.214   -4737.2672 
Loop time of 337.687 on 4 procs for 20000 steps with 4000 atoms

Pair  time (%) = 274.542 (81.3007)
Neigh time (%) = 0.845433 (0.25036)
Comm  time (%) = 47.6666 (14.1156)
Outpt time (%) = 0.176843 (0.0523689)
Other time (%) = 14.4563 (4.28098)

Nlocal:    1000 ave 1012 max 993 min
Histogram: 2 0 0 0 1 0 0 0 0 1
Nghost:    3665 ave 3689 max 3653 min
Histogram: 2 0 1 0 0 0 0 0 0 1
Neighs:    66449.5 ave 68240 max 65390 min
Histogram: 2 0 0 0 1 0 0 0 0 1
FullNghs:  0 ave 0 max 0 min
Histogram: 4 0 0 0 0 0 0 0 0 0

Total # of neighbors = 265798
Ave neighs/atom = 66.4495
Neighbor list builds = 129
Dangerous builds = 0

######################################
# SIMULATION DONE
print "All done"
All done
