LAMMPS (28 Jun 2014)
# Input file for uniaxial tensile loading of single crystal aluminum
# Mark Tschopp, November 2010

# ------------------------ INITIALIZATION ----------------------------
units 		metal
dimension	3
boundary	p	p	p
atom_style	atomic
variable latparam equal 4.05

# ----------------------- ATOM DEFINITION ----------------------------
lattice		fcc ${latparam}
lattice		fcc 4.05
Lattice spacing in x,y,z = 4.05 4.05 4.05
region		whole block 0 10 0 10 0 10
create_box	1 whole
Created orthogonal box = (0 0 0) to (40.5 40.5 40.5)
  1 by 2 by 2 MPI processor grid
lattice 	fcc ${latparam} orient x 1 0 0 orient y 0 1 0 orient z 0 0 1
lattice 	fcc 4.05 orient x 1 0 0 orient y 0 1 0 orient z 0 0 1
Lattice spacing in x,y,z = 4.05 4.05 4.05
create_atoms	1 region whole
Created 4000 atoms

# ------------------------ FORCE FIELDS ------------------------------
pair_style	eam/alloy
pair_coeff	* * Al99.ZeroFRho.PosRhoR.ZeroPhiR.eam.alloy Al

# ------------------------- SETTINGS ---------------------------------
compute csym all centro/atom fcc
compute peratom all pe/atom

######################################
# EQUILIBRATION
reset_timestep	0
timestep 0.001
velocity all create 300 12345 mom yes rot no
fix 1 all npt temp 300 300 1 iso 0 0 1 drag 1

# Set thermo output
thermo 1000
thermo_style custom step lx ly lz press pxx pyy pzz pe temp

# Run for at least 10 picosecond (assuming 1 fs timestep)
run 20000
Memory usage per processor = 3.04301 Mbytes
Step Lx Ly Lz Press Pxx Pyy Pzz PotEng Temp 
       0         40.5         40.5         40.5    2514.9467    2465.8136    2553.4775     2525.549       -13440          300 
    1000    40.557923    40.557923    40.557923     866.0416    854.47078    838.30405    905.34996   -13361.129    165.23513 
    2000    40.571817    40.571817    40.571817    262.47966    197.91726    289.35874    300.16298    -13356.43    178.75709 
    3000    40.580701    40.580701    40.580701    102.88614    17.601996    199.88465    91.171786   -13350.002    189.32153 
    4000     40.58844     40.58844     40.58844    63.363777    18.804645    37.038107    134.24858   -13340.489    193.91336 
    5000    40.593348    40.593348    40.593348    185.42465    268.69176    244.96348    42.618715   -13334.254    204.59856 
    6000     40.60049     40.60049     40.60049    87.944359    105.55927   -19.133679    177.40749   -13327.338    213.46338 
    7000    40.608082    40.608082    40.608082   -20.172399    -23.45304    69.283432   -106.34759   -13321.787    224.22078 
    8000    40.612636    40.612636    40.612636    63.742029    46.920329    108.89226    35.413498   -13317.976    237.33168 
    9000    40.618286    40.618286    40.618286     -4.44375   -99.212793    101.19907   -15.317528   -13315.892    252.59698 
   10000    40.626334    40.626334    40.626334   -43.024195   -29.215518    41.078842   -140.93591   -13306.175    251.67135 
   11000    40.629648    40.629648    40.629648   -1.6954158    -243.5188    113.79226    124.64029   -13303.057    261.95437 
   12000     40.63312     40.63312     40.63312   -82.964029    54.249197   -144.71454   -158.42674   -13301.409    273.40148 
   13000    40.640255    40.640255    40.640255   -204.28217   -289.14578   -380.98272    57.281986    -13298.18    280.03817 
   14000    40.641198    40.641198    40.641198   -74.135085   -360.09429    19.589248    118.09979   -13293.713    282.51738 
   15000    40.641428    40.641428    40.641428    173.46335    402.50092   -35.962876    153.85199   -13290.766    286.22173 
   16000    40.641675    40.641675    40.641675    253.78648    295.70362    67.133569    398.52225   -13290.012    292.50096 
   17000    40.648083    40.648083    40.648083   -91.482542   -112.14582   -18.537678   -143.76413   -13289.666    297.95403 
   18000    40.646304    40.646304    40.646304    211.54267    302.86847    178.97823    152.78132   -13286.163    295.84191 
   19000    40.648012    40.648012    40.648012    152.07435   -143.94506    250.75811    349.40998   -13284.488    295.83567 
   20000    40.647999    40.647999    40.647999    86.429456  -0.15424552    133.21395    126.22866   -13285.479      299.651 
Loop time of 384.337 on 4 procs for 20000 steps with 4000 atoms

Pair  time (%) = 264.725 (68.8782)
Neigh time (%) = 0 (0)
Comm  time (%) = 81.8511 (21.2967)
Outpt time (%) = 0.0025835 (0.000672197)
Other time (%) = 37.759 (9.82445)

Nlocal:    1000 ave 1000 max 1000 min
Histogram: 4 0 0 0 0 0 0 0 0 0
Nghost:    4235 ave 4235 max 4235 min
Histogram: 4 0 0 0 0 0 0 0 0 0
Neighs:    70000 ave 72653 max 67302 min
Histogram: 1 0 1 0 0 0 0 1 0 1
FullNghs:  0 ave 0 max 0 min
Histogram: 4 0 0 0 0 0 0 0 0 0

Total # of neighbors = 280000
Ave neighs/atom = 70
Neighbor list builds = 0
Dangerous builds = 0
unfix 1

# Store final cell length for strain calculations
variable tmp equal "lx"
variable L0 equal ${tmp}
variable L0 equal 40.6479994287183
print "Initial Length, L0: ${L0}"
Initial Length, L0: 40.6479994287183

######################################
# DEFORMATION
reset_timestep	0

fix		1 all npt temp 300 300 1 y 0 0 1 z 0 0 1 drag 1
variable srate equal 1.0e10
variable srate1 equal "v_srate / 1.0e12"
fix		2 all deform 1 x erate ${srate1} units box remap x
fix		2 all deform 1 x erate 0.01 units box remap x

# Output strain and stress info to file
# for units metal, pressure is in [bars] = 100 [kPa] = 1/10000 [GPa]
# p2, p3, p4 are in GPa
variable strain equal "(lx - v_L0)/v_L0"
variable p1 equal "v_strain"
variable p2 equal "-pxx/10000"
variable p3 equal "-pyy/10000"
variable p4 equal "-pzz/10000"
fix def1 all print 20 "${p1} ${p2} ${p3} ${p4}" file  Al99.ZeroFRho.PosRhoR.ZeroPhiR.eam.alloy.def1.txt screen no

# Use cfg for AtomEye
#dump 		1 all cfg 250 dump.tensile_*.cfg id type xs ys zs c_csym c_peratom fx fy fz
#dump_modify 1 element Al

# Display thermo
thermo 	1000
thermo_style	custom step v_strain temp v_p2 v_p3 v_p4 ke pe press

run		20000
Memory usage per processor = 3.04301 Mbytes
Step strain Temp p2 p3 p4 KinEng PotEng Press 
       0 -1.7480386e-16      299.651 1.5424552e-05 -0.013321395 -0.012622866    154.89299   -13285.479    86.429456 
    1000         0.01    295.98567   0.62521382 -0.026413599 0.0085482975    152.99835   -13281.091   -2024.4951 
    2000         0.02    305.52854     1.282443  0.016189846  0.021597751    157.93116   -13280.669   -4400.7686 
    3000         0.03    299.49219    1.9312057 0.0069380131  0.032646871    154.81091   -13269.504   -6569.3019 
    4000         0.04    299.73283    2.5109301  0.011209066  0.022287397    154.93529   -13258.883   -8481.4218 
    5000         0.05    300.58384    3.1237078 -0.025762177 -0.025328579    155.37519   -13245.985   -10242.057 
    6000         0.06    297.52266    3.7123675 0.0063013599  0.011883308    153.79283   -13228.639   -12435.174 
    7000         0.07    294.76475    4.2737217  0.011397018 -0.021476114    152.36724   -13209.101   -14212.142 
    8000         0.08    299.52879    4.8685511  0.023424606  0.015827958    154.82982   -13191.215   -16359.346 
    9000         0.09    296.00285    5.3619797 -0.0063755497 -0.019126222    153.00723   -13166.782    -17788.26 
   10000          0.1    298.89384    5.9213109  0.009719533 -0.0040561649    154.50161   -13143.417   -19756.581 
   11000         0.11    295.89954    6.4636856  0.047368313  0.069732689    152.95382   -13114.792   -21935.955 
   12000         0.12    297.73339    6.9784065 -0.0091453577 -0.014535201    153.90176   -13086.462    -23182.42 
   13000         0.13    298.10877    7.3942314  0.026432168  0.056765103     154.0958   -13055.346   -24924.762 
   14000         0.14    291.02277    7.7749642 -0.013301391 -0.051858626    150.43297   -13018.402   -25699.347 
   15000         0.15     298.4089    7.6489933 -0.0029172927  0.008687322    154.25094   -12987.514   -25515.878 
   16000         0.16    363.17202    3.5686471 -0.066499712  0.075212833    187.72773    -13006.28   -11924.534 
   17000         0.17    381.89533    2.6720096  -0.08895011 2.7264853e-05    197.40602   -13021.817   -8610.2891 
   18000         0.18    381.85684    2.4520862 -0.095241131 -0.021504335    197.38612   -13030.918   -7784.4691 
   19000         0.19    382.15884    1.9099649 -0.023514599 0.0067637446    197.54223   -13040.773   -6310.7136 
   20000          0.2    395.77878    1.1737283 -0.077552827  0.039471171    204.58253   -13061.618   -3785.4887 
Loop time of 449.407 on 4 procs for 20000 steps with 4000 atoms

Pair  time (%) = 318.487 (70.8682)
Neigh time (%) = 0.48863 (0.108728)
Comm  time (%) = 85.4914 (19.0232)
Outpt time (%) = 0.041074 (0.0091396)
Other time (%) = 44.8991 (9.99075)

Nlocal:    1000 ave 1013 max 989 min
Histogram: 1 1 0 0 0 0 1 0 0 1
Nghost:    3719.75 ave 3736 max 3697 min
Histogram: 1 0 0 0 0 1 0 1 0 1
Neighs:    68763.2 ave 71152 max 66452 min
Histogram: 1 1 0 0 0 0 0 1 0 1
FullNghs:  0 ave 0 max 0 min
Histogram: 4 0 0 0 0 0 0 0 0 0

Total # of neighbors = 275053
Ave neighs/atom = 68.7632
Neighbor list builds = 80
Dangerous builds = 0

######################################
# SIMULATION DONE
print "All done"
All done
