LAMMPS (28 Jun 2014)
# Input file for uniaxial tensile loading of single crystal aluminum
# Mark Tschopp, November 2010

# ------------------------ INITIALIZATION ----------------------------
units 		metal
dimension	3
boundary	p	p	p
atom_style	atomic
variable latparam equal 4.05

# ----------------------- ATOM DEFINITION ----------------------------
lattice		fcc ${latparam}
lattice		fcc 4.05
Lattice spacing in x,y,z = 4.05 4.05 4.05
region		whole block 0 10 0 10 0 10
create_box	1 whole
Created orthogonal box = (0 0 0) to (40.5 40.5 40.5)
  1 by 2 by 2 MPI processor grid
lattice 	fcc ${latparam} orient x 1 0 0 orient y 0 1 0 orient z 0 0 1
lattice 	fcc 4.05 orient x 1 0 0 orient y 0 1 0 orient z 0 0 1
Lattice spacing in x,y,z = 4.05 4.05 4.05
create_atoms	1 region whole
Created 4000 atoms

# ------------------------ FORCE FIELDS ------------------------------
pair_style	eam/alloy
pair_coeff	* * Al99.ZeroFRho.ZeroRhoR.PosPhiR.eam.alloy Al

# ------------------------- SETTINGS ---------------------------------
compute csym all centro/atom fcc
compute peratom all pe/atom

######################################
# EQUILIBRATION
reset_timestep	0
timestep 0.001
velocity all create 300 12345 mom yes rot no
fix 1 all npt temp 300 300 1 iso 0 0 1 drag 1

# Set thermo output
thermo 1000
thermo_style custom step lx ly lz press pxx pyy pzz pe temp

# Run for at least 10 picosecond (assuming 1 fs timestep)
run 20000
Memory usage per processor = 3.04301 Mbytes
Step Lx Ly Lz Press Pxx Pyy Pzz PotEng Temp 
       0         40.5         40.5         40.5    2818.7379    2769.6048    2857.2688    2829.3402   -13430.096          300 
    1000    40.562782    40.562782    40.562782    874.71922    863.19038    847.11601    913.85125   -13351.253     165.1921 
    2000    40.576793    40.576793    40.576793    266.75607    204.89619    291.97039    303.40164   -13346.493     178.5949 
    3000    40.585649    40.585649    40.585649     108.8809    23.176807     207.1516    96.314297   -13340.115    189.26247 
    4000    40.593433    40.593433    40.593433    57.699441    16.504152    27.548499    129.04567   -13330.728    194.10103 
    5000    40.598277    40.598277    40.598277     189.7519     258.9195    249.40567     60.93054   -13324.408      204.628 
    6000    40.605409    40.605409    40.605409     90.30705    128.14193   -24.137348    166.91656   -13317.498    213.51203 
    7000    40.612837    40.612837    40.612837   -5.5360042    14.358741    67.510212   -98.476965   -13311.996    224.37579 
    8000    40.617045    40.617045    40.617045    130.13086    141.70331    192.71542    55.973856   -13307.011    235.22505 
    9000    40.623434    40.623434    40.623434    10.167591   -111.19742    116.25018    25.450021   -13305.427    251.46816 
   10000    40.631145    40.631145    40.631145   -15.852566   -48.441124    128.30921   -127.42579   -13296.272    251.64237 
   11000    40.634352    40.634352    40.634352   -20.949921   -76.668261   -7.7919608     21.61046   -13294.139    263.84723 
   12000    40.638244    40.638244    40.638244   -72.039641   -11.673478   -118.13394   -86.311509   -13291.462    273.32612 
   13000    40.645518    40.645518    40.645518   -201.45636    -302.8391   -158.60584   -142.92413    -13287.52    278.59602 
   14000    40.646232    40.646232    40.646232   -79.372487   -69.867222   -97.042639     -71.2076   -13283.185    281.34813 
   15000    40.646756    40.646756    40.646756    107.11177    18.514208    167.22089    135.60021   -13279.769    284.15372 
   16000    40.646465    40.646465    40.646465    340.32687    566.87906    268.55421    185.54733   -13278.264    288.96147 
   17000    40.650938    40.650938    40.650938    154.10445    195.85893    206.82475    59.629684   -13277.734    294.06223 
   18000    40.652159    40.652159    40.652159    185.09311     178.0182    223.42155    153.83958   -13276.158    295.65518 
   19000      40.6523      40.6523      40.6523     6.273373    104.38486    27.239189   -112.80393   -13279.199    304.72176 
   20000    40.653549    40.653549    40.653549    174.50359    140.63361    95.199026    287.67813   -13274.467    297.43493 
Loop time of 288.979 on 4 procs for 20000 steps with 4000 atoms

Pair  time (%) = 221.771 (76.7427)
Neigh time (%) = 0 (0)
Comm  time (%) = 47.0424 (16.2788)
Outpt time (%) = 0.002554 (0.0008838)
Other time (%) = 20.1638 (6.97758)

Nlocal:    1000 ave 1000 max 1000 min
Histogram: 4 0 0 0 0 0 0 0 0 0
Nghost:    4235 ave 4235 max 4235 min
Histogram: 4 0 0 0 0 0 0 0 0 0
Neighs:    70000 ave 72653 max 67302 min
Histogram: 1 0 1 0 0 0 0 1 0 1
FullNghs:  0 ave 0 max 0 min
Histogram: 4 0 0 0 0 0 0 0 0 0

Total # of neighbors = 280000
Ave neighs/atom = 70
Neighbor list builds = 0
Dangerous builds = 0
unfix 1

# Store final cell length for strain calculations
variable tmp equal "lx"
variable L0 equal ${tmp}
variable L0 equal 40.6535489004617
print "Initial Length, L0: ${L0}"
Initial Length, L0: 40.6535489004617

######################################
# DEFORMATION
reset_timestep	0

fix		1 all npt temp 300 300 1 y 0 0 1 z 0 0 1 drag 1
variable srate equal 1.0e10
variable srate1 equal "v_srate / 1.0e12"
fix		2 all deform 1 x erate ${srate1} units box remap x
fix		2 all deform 1 x erate 0.01 units box remap x

# Output strain and stress info to file
# for units metal, pressure is in [bars] = 100 [kPa] = 1/10000 [GPa]
# p2, p3, p4 are in GPa
variable strain equal "(lx - v_L0)/v_L0"
variable p1 equal "v_strain"
variable p2 equal "-pxx/10000"
variable p3 equal "-pyy/10000"
variable p4 equal "-pzz/10000"
fix def1 all print 20 "${p1} ${p2} ${p3} ${p4}" file  Al99.ZeroFRho.ZeroRhoR.PosPhiR.eam.alloy.def1.txt screen no

# Use cfg for AtomEye
#dump 		1 all cfg 250 dump.tensile_*.cfg id type xs ys zs c_csym c_peratom fx fy fz
#dump_modify 1 element Al

# Display thermo
thermo 	1000
thermo_style	custom step v_strain temp v_p2 v_p3 v_p4 ke pe press

run		20000
Memory usage per processor = 3.04301 Mbytes
Step strain Temp p2 p3 p4 KinEng PotEng Press 
       0 8.7390001e-16    297.43493 -0.014063361 -0.0095199026 -0.028767813    153.74748   -13274.467    174.50359 
    1000         0.01    299.58892   0.64071437 -0.0075117612 -0.012662834     154.8609   -13273.048   -2068.4659 
    2000         0.02    297.66888    1.3172087  0.060355327  0.033349606    153.86842    -13266.66   -4703.0453 
    3000         0.03    300.33116    1.9263049  0.018591407  0.024030643    155.24458   -13259.926   -6563.0899 
    4000         0.04    298.49028    2.5006937 -0.0067893391 -0.020339684      154.293   -13248.241   -8245.2155 
    5000         0.05    295.73155    3.0847929 -0.055489337 -0.057716344    152.86698   -13233.554   -9905.2907 
    6000         0.06    297.93329    3.6758688 -0.016955781 -0.052385717    154.00509   -13218.927   -12021.758 
    7000         0.07    297.89819    4.2849001   0.03546556  0.049868168    153.98695   -13200.792   -14567.446 
    8000         0.08     299.0878     4.842675 0.0052733825  0.012886472    154.60187   -13180.927   -16202.783 
    9000         0.09    303.91421    5.3976797 -0.033762808  0.053938147     157.0967   -13160.722   -18059.517 
   10000          0.1    298.86361    5.9248068  0.019887736 -0.0049006257    154.48599   -13133.223   -19799.313 
   11000         0.11    296.62051    6.4380854 -0.062539833 -0.049697224     153.3265   -13104.967   -21086.161 
   12000         0.12     294.7428    6.9513785 -0.0034026387 -0.007970055    152.35589   -13074.722   -23133.353 
   13000         0.13    288.87374    7.3925962  0.008730493  -0.05488857    149.32211   -13040.278   -24488.127 
   14000         0.14    294.68828     7.825351 0.0085562205   0.03500328    152.32771   -13009.943   -26229.702 
   15000         0.15    292.15719    8.0713083  0.048352547 0.0073919165    151.01936    -12973.79   -27090.176 
   16000         0.16    365.60893    3.2022482 -0.0015939436  0.025267276    188.98739     -12990.3   -10753.072 
   17000         0.17    407.05462    1.7363974  0.072605214  0.026178813    210.41114   -13021.832   -6117.2713 
   18000         0.18    403.35705    1.8267193 -0.062190885  0.038011821    208.49982   -13037.363   -6008.4674 
   19000         0.19    408.36826    1.8624711 -0.016697809  0.017558286    211.09017   -13057.116   -6211.1053 
   20000          0.2    402.27544    2.0992157 -0.091657438  0.055303824    207.94073   -13069.924    -6876.207 
Loop time of 268.729 on 4 procs for 20000 steps with 4000 atoms

Pair  time (%) = 242.684 (90.3081)
Neigh time (%) = 0.463913 (0.172632)
Comm  time (%) = 18.23 (6.78378)
Outpt time (%) = 0.00303447 (0.00112919)
Other time (%) = 7.34814 (2.7344)

Nlocal:    1000 ave 1010 max 994 min
Histogram: 1 1 0 1 0 0 0 0 0 1
Nghost:    3712.25 ave 3745 max 3687 min
Histogram: 1 0 1 0 1 0 0 0 0 1
Neighs:    68867 ave 71103 max 67388 min
Histogram: 1 1 0 0 1 0 0 0 0 1
FullNghs:  0 ave 0 max 0 min
Histogram: 4 0 0 0 0 0 0 0 0 0

Total # of neighbors = 275468
Ave neighs/atom = 68.867
Neighbor list builds = 82
Dangerous builds = 0

######################################
# SIMULATION DONE
print "All done"
All done
