LAMMPS (28 Jun 2014)
# Input file for uniaxial tensile loading of single crystal aluminum
# Mark Tschopp, November 2010

# ------------------------ INITIALIZATION ----------------------------
units 		metal
dimension	3
boundary	p	p	p
atom_style	atomic
variable latparam equal 4.05

# ----------------------- ATOM DEFINITION ----------------------------
lattice		fcc ${latparam}
lattice		fcc 4.05
Lattice spacing in x,y,z = 4.05 4.05 4.05
region		whole block 0 10 0 10 0 10
create_box	1 whole
Created orthogonal box = (0 0 0) to (40.5 40.5 40.5)
  1 by 2 by 2 MPI processor grid
lattice 	fcc ${latparam} orient x 1 0 0 orient y 0 1 0 orient z 0 0 1
lattice 	fcc 4.05 orient x 1 0 0 orient y 0 1 0 orient z 0 0 1
Lattice spacing in x,y,z = 4.05 4.05 4.05
create_atoms	1 region whole
Created 4000 atoms

# ------------------------ FORCE FIELDS ------------------------------
pair_style	eam/alloy
pair_coeff	* * Al99.negPhiR.eam.alloy Al

# ------------------------- SETTINGS ---------------------------------
compute csym all centro/atom fcc
compute peratom all pe/atom

######################################
# EQUILIBRATION
reset_timestep	0
timestep 0.001
velocity all create 300 12345 mom yes rot no
fix 1 all npt temp 300 300 1 iso 0 0 1 drag 1

# Set thermo output
thermo 50
thermo_style custom step lx ly lz press pxx pyy pzz pe temp

# Run for at least 10 picosecond (assuming 1 fs timestep)
run 20000
Memory usage per processor = 3.04301 Mbytes
Step Lx Ly Lz Press Pxx Pyy Pzz PotEng Temp 
       0         40.5         40.5         40.5   -75190.374   -75239.508   -75151.844   -75179.772   -16098.985          300 
      50    39.729738    39.729738    39.729738   -34509.735   -34619.657   -34422.867   -34486.681   -16193.898    118.82019 
     100    39.182934    39.182934    39.182934   -6679.5659   -6728.9433   -6731.5569   -6578.1976   -16323.548    222.38123 
     150    39.020979    39.020979    39.020979    5425.8372    5473.3298    5449.0435    5355.1385   -16317.956    201.81562 
     200      39.0825      39.0825      39.0825    1039.9537    1116.2852    979.53838    1024.0375   -16317.264    204.23676 
     250    39.140487    39.140487    39.140487   -2399.0064   -2367.8657   -2468.6822   -2360.4712   -16307.625    193.24867 
     300    39.123565    39.123565    39.123565    -1275.964   -1449.9646   -1169.7852   -1208.1421   -16308.884    194.03368 
     350    39.093052    39.093052    39.093052    1121.1347    1023.7403    1209.0337    1130.6301   -16306.525    189.60455 
     400    39.100123    39.100123    39.100123    495.96929    349.64789    492.32364    645.93635   -16307.856    192.52249 
     450    39.119048    39.119048    39.119048   -521.19802   -590.52996   -451.40171   -521.66238   -16303.797    188.43802 
     500    39.116854    39.116854    39.116854   -378.97829   -396.84574    -232.7042   -507.38492   -16304.085    188.71587 
     550    39.103643    39.103643    39.103643    122.35381    250.82283    93.661107    22.577506   -16309.603    198.98245 
     600    39.106217    39.106217    39.106217    785.13985    613.48379    826.19927    915.73651    -16299.82     184.8423 
     650    39.121172    39.121172    39.121172   -813.66065    -761.8366   -915.37925   -763.76611   -16305.301    193.92307 
     700    39.110944    39.110944    39.110944    443.29162    323.32755    560.29039    446.25692   -16300.256    187.38651 
     750    39.108824    39.108824    39.108824    327.31224    217.97808     508.1932    255.76544   -16302.802     192.4944 
     800    39.115558    39.115558    39.115558   -107.66354   -167.46747   -10.135676   -145.38748   -16303.198    193.46122 
     850    39.117326    39.117326    39.117326   -254.41193   -527.50246   -7.5310952   -228.20224   -16303.063    195.19755 
     900    39.113993    39.113993    39.113993    115.86668    73.835977    170.91364    102.85043   -16301.383    194.18116 
     950    39.114069    39.114069    39.114069    137.58058    212.46683    135.32501    64.949891   -16301.357    193.87741 
    1000    39.114864    39.114864    39.114864    29.219001   -42.261756    139.32159    -9.402827    -16301.84    195.44911 
    1050     39.11447     39.11447     39.11447    309.08884    212.95262    439.90826    274.40565   -16299.441    193.43933 
    1100     39.11991     39.11991     39.11991   -122.99699   -158.67051   -45.771341   -164.54914    -16299.55    196.26961 
    1150    39.122669    39.122669    39.122669   -419.45555   -405.42886   -391.67285   -461.26494   -16300.938    199.01651 
    1200    39.114719    39.114719    39.114719    416.63953    369.20187     534.5451    346.17162   -16297.788    193.74442 
    1250    39.113858    39.113858    39.113858    281.22149    291.23078    274.75016    277.68352   -16300.893    200.72379 
    1300    39.121075    39.121075    39.121075   -3.6208684   -139.55516    201.44006   -72.747511   -16297.347    196.07765 
    1350    39.124227    39.124227    39.124227   -636.40137   -543.50398   -711.59057   -654.10956   -16301.993     204.7344 
    1400    39.116088    39.116088    39.116088    713.90991    634.84382    803.71956    703.16635    -16294.41    193.61843 
    1450    39.120077    39.120077    39.120077    103.61692    52.612548    75.471113    182.76709   -16297.968    200.01599 
    1500    39.124918    39.124918    39.124918   -388.28924   -459.88393   -235.03698   -469.94681   -16299.359    204.43378 
    1550    39.122412    39.122412    39.122412    300.83567    290.33915    344.70045     267.4674   -16294.118    197.64759 
    1600    39.122561    39.122561    39.122561   -192.00704 -0.044839865   -226.65711   -349.31916   -16299.764    206.52672 
    1650     39.12197     39.12197     39.12197    298.19708    405.39974    138.60736    350.58415   -16295.018    200.32595 
    1700    39.125885    39.125885    39.125885    104.09187    18.012059     218.4337    75.829847   -16293.847    199.65417 
    1750    39.126482    39.126482    39.126482   -30.731657    -13.67731    55.160791   -133.67845    -16294.89    202.71615 
    1800    39.124566    39.124566    39.124566    -201.9693   -100.79814    -175.5839   -329.52584   -16298.233    209.23465 
    1850    39.122474    39.122474    39.122474    284.94966    430.38557    254.87194    169.59146   -16295.587    205.34768 
    1900    39.127676    39.127676    39.127676    108.05573    47.704257     217.4808    58.982135    -16292.65    202.06373 
    1950     39.13096     39.13096     39.13096   -240.30572   -177.51932   -270.23407   -273.16379   -16294.285    206.76417 
    2000    39.127423    39.127423    39.127423    184.72651    173.97553     190.8301    189.37391   -16292.577    204.17312 
    2050    39.126052    39.126052    39.126052    247.38505    115.55825    370.10179    256.49511   -16292.496    205.73472 
    2100    39.131232    39.131232    39.131232   -441.30413    -359.7223   -500.64524   -463.54485   -16296.495    212.99618 
    2150      39.1291      39.1291      39.1291    4.8500507   -66.000924    285.74781   -205.19673     -16293.2     209.1297 
    2200    39.126584    39.126584    39.126584    309.70111    293.69308     250.7934    384.61686   -16292.028    208.34189 
    2250    39.132293    39.132293    39.132293   -187.85818   -211.34012   -230.05098   -122.18343   -16293.232    211.22461 
    2300    39.133545    39.133545    39.133545   -212.35233   -316.25205   -104.35888   -216.44606   -16292.452    211.26692 
    2350    39.129823    39.129823    39.129823    113.78408    76.800568    121.88395    142.66771   -16291.612    210.58188 
    2400    39.129226    39.129226    39.129226    600.68349    380.01923    756.69566    665.33557   -16286.995    204.21706 
    2450    39.137715    39.137715    39.137715   -585.10611   -591.04101    -621.7574   -542.51991   -16293.056    215.98513 
    2500    39.134103    39.134103    39.134103    86.252739   -53.789275     324.2829   -11.735405   -16288.689    209.10088 
    2550    39.129772    39.129772    39.129772    285.41579    293.03219    279.45097    283.76422    -16290.32    213.58023 
    2600    39.133479    39.133479    39.133479    184.74926    64.355241    312.75956    177.13298   -16288.802    212.05191 
    2650    39.140131    39.140131    39.140131   -517.41839   -512.80064   -538.18139   -501.27314   -16290.367    216.35674 
    2700    39.135563    39.135563    39.135563    23.421651   -18.343399    54.565677    34.042676   -16288.537    214.45566 
    2750    39.132285    39.132285    39.132285    302.83004    280.03661    313.83633    314.61718   -16288.079    213.42516 
    2800    39.135306    39.135306    39.135306    16.865737    59.011397    82.404048   -90.818234   -16288.425    215.89534 
    2850    39.138701    39.138701    39.138701    164.69278    71.210839    145.21687    277.65062   -16284.939    211.91979 
    2900    39.141078    39.141078    39.141078   -99.970987   -14.104607   -106.41765    -179.3907   -16285.481    213.85747 
    2950    39.138048    39.138048    39.138048    21.103475    132.10139   -55.238084   -13.552878   -16286.649    216.21252 
    3000    39.135869    39.135869    39.135869    124.82752    192.68996     70.06376    111.72884   -16288.403    220.34953 
    3050    39.139143    39.139143    39.139143    125.85247    221.48649    144.53822    11.532698   -16284.838    215.83301 
    3100    39.142444    39.142444    39.142444   -158.29716   -340.62986   -18.519681   -115.74193   -16285.675     218.3676 
    3150    39.140083    39.140083    39.140083   -178.54556   -207.86514    -204.2525   -123.51903   -16287.583    222.29517 
    3200    39.137187    39.137187    39.137187    155.57194    251.25839       180.71    34.747432   -16286.669    222.02609 
    3250     39.14209     39.14209     39.14209   -173.86709   -121.91043    -208.9804   -190.71043   -16286.595    222.85497 
    3300    39.143779    39.143779    39.143779    38.446492   -91.210669    119.68844    86.861705   -16282.906    217.57297 
    3350    39.142455    39.142455    39.142455    -262.5182   -249.44341   -214.43944   -323.67175   -16287.648    228.10824 
    3400    39.142569    39.142569    39.142569   -77.725733   -112.21343    13.401863   -134.36563    -16284.96    223.93271 
    3450    39.143721    39.143721    39.143721    -28.54234    24.133406   -65.720952   -44.039473   -16284.139    222.85961 
    3500    39.142933    39.142933    39.142933   -156.55995   -214.79865   -91.291283   -163.58994   -16285.785    226.54867 
    3550    39.141515    39.141515    39.141515    77.935989    226.08496  -0.88812637    8.6111293   -16284.414    225.59301 
    3600     39.14532     39.14532     39.14532    3.8148919   -68.265287    83.020825   -3.3108619   -16282.533    224.40277 
    3650    39.149156    39.149156    39.149156   -262.71667   -337.87516   -113.90436   -336.37049   -16281.865     224.3408 
    3700    39.145383    39.145383    39.145383   -251.44379   -230.04533   -388.25779   -136.02824   -16285.073    229.91604 
    3750    39.140781    39.140781    39.140781    563.39259    464.21405    680.23196    545.73178    -16279.68    221.74146 
    3800    39.146296    39.146296    39.146296     129.0624    185.41851    97.978937    103.78974   -16280.165    224.41929 
    3850     39.15306     39.15306     39.15306   -578.79861   -719.62094   -400.28335   -616.49154   -16283.485    231.99642 
    3900    39.150051    39.150051    39.150051   -75.677503   -234.68398    54.983916   -47.332441   -16279.421    225.49647 
    3950    39.144685    39.144685    39.144685    119.01665    108.00796    117.91412    131.12787   -16282.387     230.2381 
    4000    39.144777    39.144777    39.144777    183.76671    161.27368    157.78427    232.24217   -16281.065    229.62053 
    4050    39.151859    39.151859    39.151859   -32.384127     41.16094   -115.83124   -22.482078    -16278.96    227.65841 
    4100    39.155892    39.155892    39.155892   -306.38904   -419.41118   -242.13996   -257.61597   -16277.729    227.11783 
    4150    39.149569    39.149569    39.149569    47.313588    104.64386    71.597157   -34.300252   -16280.215    231.71197 
    4200    39.146236    39.146236    39.146236    325.57304    295.57364    385.86075    295.28472    -16279.52    231.63773 
    4250    39.153914    39.153914    39.153914   -293.65259   -403.72011   -37.525198   -439.71247   -16279.598    232.86489 
    4300    39.155851    39.155851    39.155851    50.730897  -0.25067566    58.337168      94.1062   -16274.701    226.60287 
    4350    39.154347    39.154347    39.154347   -176.70558   -281.28723   -81.792385   -167.03713   -16277.845    232.23364 
    4400     39.14795     39.14795     39.14795    486.41435     405.8907    484.28326    569.06908   -16275.953     229.1972 
    4450    39.151062    39.151062    39.151062     92.33317    29.409291    213.90126     33.68896   -16277.981    234.51748 
    4500    39.158749    39.158749    39.158749   -180.56358  -0.51524882   -353.15096   -188.02454   -16275.453    231.03974 
    4550    39.157962    39.157962    39.157962   -125.89199   -77.297816   -99.147339   -201.23082   -16275.221    232.27082 
    4600    39.152854    39.152854    39.152854    109.97595    78.493945    47.399476    204.03444   -16276.936    236.16064 
    4650    39.153443    39.153443    39.153443     330.2855    289.19354    379.93429    321.72867   -16273.898    231.16501 
    4700    39.158764    39.158764    39.158764   -95.696165   -159.98236    -54.85317   -72.252967   -16274.702    234.41295 
    4750    39.160557    39.160557    39.160557   -468.09338   -368.22044   -461.07924   -574.98045   -16277.853    240.64196 
    4800     39.15454     39.15454     39.15454    179.40497     173.6894    271.02099    93.504531   -16275.498     237.5363 
    4850    39.154385    39.154385    39.154385    271.26921    214.20287    269.68967    329.91508   -16274.542    236.57595 
    4900    39.161712    39.161712    39.161712     -94.8847   -147.17392    -52.42335   -85.056834   -16272.127    233.81609 
    4950    39.162635    39.162635    39.162635   -443.76626   -149.66952    -613.6493   -567.97996   -16275.281    240.61661 
    5000     39.15462     39.15462     39.15462    537.68991    352.65381    703.87887    556.53705   -16271.783    235.09817 
    5050    39.157904    39.157904    39.157904    144.63127     173.6624    105.76457    154.46684   -16273.121    238.58245 
    5100    39.164307    39.164307    39.164307   -338.90923   -326.46541   -368.04339   -322.21888   -16273.126    239.62117 
    5150    39.161582    39.161582    39.161582    143.44826    8.2763991     330.5288    91.539591   -16269.396    234.78136 
    5200    39.158751    39.158751    39.158751    113.34077    158.62567   -67.975694    249.37233    -16273.25    241.96885 
    5250    39.160836    39.160836    39.160836    78.938164   -15.691555    216.19859    36.307461   -16271.557      240.595 
    5300    39.165625    39.165625    39.165625   -282.94735   -212.25312   -268.16099   -368.42795   -16272.331    242.38123 
    5350    39.163345    39.163345    39.163345    172.65091   -136.74227    400.52385    254.17115   -16268.695    236.96514 
    5400      39.1598      39.1598      39.1598    329.89604    306.81582    279.06654    403.80576   -16269.567    239.35398 
    5450    39.161888    39.161888    39.161888    190.21631    183.93642    113.92819     272.7843   -16270.301    242.18518 
    5500     39.16872     39.16872     39.16872   -115.47263   -141.79947   -72.809005   -131.80943   -16267.678    239.23563 
    5550    39.168793    39.168793    39.168793   -316.18747   -356.00823   -208.02923   -384.52494   -16269.868    244.19378 
    5600    39.160591    39.160591    39.160591     365.7776    343.77626    356.44213    397.11442   -16269.477    243.18582 
    5650    39.162036    39.162036    39.162036    196.78984    89.473407    60.168571    440.72753   -16270.024    245.55878 
    5700    39.169733    39.169733    39.169733   -392.74027    -469.9291   -332.90223   -375.38948   -16270.339    247.11543 
    5750    39.168585    39.168585    39.168585   -207.13218   -207.63622   -145.10736   -268.65297    -16269.34    245.87042 
    5800    39.162528    39.162528    39.162528    281.61796    175.55584     396.7073    272.59073   -16268.834    246.13437 
    5850    39.164537    39.164537    39.164537    438.51839    462.03552    447.44336    406.07629   -16265.939    242.28053 
    5900    39.173808    39.173808    39.173808   -280.76416   -282.76426   -320.03611   -239.49212   -16266.159    244.60209 
    5950    39.172568    39.172568    39.172568   -333.01408   -282.42958   -428.05019   -288.56247   -16267.216    246.63056 
    6000    39.161512    39.161512    39.161512    362.59506    209.94398    389.93131    487.90988   -16268.678    249.31253 
    6050    39.163921    39.163921    39.163921     435.1888    332.26627    426.96783    546.33228   -16266.846    247.38173 
    6100    39.177436    39.177436    39.177436   -369.46953   -695.40808   -241.90769   -171.09281   -16264.659     245.0674 
    6150    39.176007    39.176007    39.176007   -174.56471   -181.08264    -285.8082   -56.803277   -16263.305    244.12028 
    6200    39.165812    39.165812    39.165812    371.02847    350.69368    197.88855    564.50318    -16265.26    247.52796 
    6250    39.164541    39.164541    39.164541    357.01873    207.49946    409.82439    453.73233   -16266.846    250.30659 
    6300    39.172373    39.172373    39.172373   -163.73311    -203.2124   -218.94041   -69.046529   -16265.975    251.13741 
    6350    39.176077    39.176077    39.176077   -119.63498   -254.33513   -204.33081    99.760996   -16263.131    247.35339 
    6400    39.172615    39.172615    39.172615   -67.030363   -215.99624    13.047949    1.8571993   -16264.592    251.00172 
    6450    39.168265    39.168265    39.168265    580.83907    607.35801     442.9204    692.23879   -16262.642    247.42049 
    6500    39.174386    39.174386    39.174386   -120.21766   -191.62552   -45.077836   -123.94961   -16263.686    250.69666 
    6550    39.175813    39.175813    39.175813   -236.28088   -173.69967   -386.74222   -148.40076   -16264.599    253.47504 
    6600    39.172385    39.172385    39.172385      209.666    9.9815427     204.4106    414.60587   -16262.515    251.04137 
    6650    39.172297    39.172297    39.172297    33.528449    91.268191   -78.938808    88.255963   -16264.369    253.78359 
    6700    39.173186    39.173186    39.173186     180.1986    191.29568    40.143367    309.15675   -16261.831    251.32648 
    6750    39.176728    39.176728    39.176728   -101.78421    4.4755656   -255.61343   -54.214761   -16262.773     253.4089 
    6800    39.176483    39.176483    39.176483   -54.013623   -53.098719   -78.624254   -30.317895   -16262.683    254.57617 
    6850    39.175276    39.175276    39.175276    27.727223    35.558786   -65.047424    112.67031   -16262.233    255.09155 
    6900    39.175008    39.175008    39.175008    256.55821    207.62892    284.88439    277.16133   -16260.482    252.21514 
    6950    39.177244    39.177244    39.177244   -160.82823   -143.05897   -379.95678     40.53106   -16262.695    257.09495 
    7000    39.175727    39.175727    39.175727   -79.612123    43.716429   -286.01615    3.4633471   -16263.645    259.17593 
    7050    39.175015    39.175015    39.175015    80.836955    125.67632   -31.671904    148.50645   -16261.929    257.80998 
    7100    39.179368    39.179368    39.179368   -142.30083   -229.43692    21.336547   -218.80212   -16261.386     257.5092 
    7150    39.180808    39.180808    39.180808   -196.34104   -183.75079   -327.09871   -78.173614   -16259.953    256.69374 
    7200    39.176667    39.176667    39.176667     7.776576  -0.86410002     2.333739    21.860089   -16262.069    259.80031 
    7250     39.17403     39.17403     39.17403    403.92387    282.88288    517.24344    411.64529    -16259.73    256.03672 
    7300    39.179908    39.179908    39.179908   -53.952671   -8.6330527   -278.57294    125.34798   -16260.017    258.28547 
    7350    39.184346    39.184346    39.184346   -335.86568   -393.22953   -278.09685   -336.27066    -16259.85    259.75241 
    7400    39.181974    39.181974    39.181974    132.53632    270.71334    -22.98625    149.88188   -16256.268    254.36882 
    7450    39.178409    39.178409    39.178409    233.74094    91.424619     239.1379    370.66031   -16257.982     257.2959 
    7500    39.177937    39.177937    39.177937    193.41909    456.34971   -59.136691    183.04426   -16259.252     260.4527 
    7550    39.182281    39.182281    39.182281    10.772654   -179.71837    106.40472    105.63161   -16257.681    258.84505 
    7600    39.185115    39.185115    39.185115   -116.64048    -269.6848   -201.23937    121.00272   -16256.606    258.24967 
    7650    39.180943    39.180943    39.180943    121.69929   -35.296546   -25.780216    426.17462    -16257.51    260.03834 
    7700    39.178826    39.178826    39.178826    318.85914    395.79585    177.42271    383.35884   -16257.689    261.28644 
    7750    39.184379    39.184379    39.184379   -93.565908   -124.74014   -24.461244   -131.49634    -16257.25    262.47294 
    7800    39.188354    39.188354    39.188354   -438.63501   -384.64463    -578.2773   -352.98311   -16258.644    265.81927 
    7850    39.183326    39.183326    39.183326  -0.33869234   -153.23536    151.82882   0.39045829   -16256.756    262.34689 
    7900    39.178421    39.178421    39.178421    137.50284   -13.478197    35.462126    390.52458   -16260.079    268.31777 
    7950    39.183845    39.183845    39.183845    65.101041   -178.15754     35.67377    337.78689    -16257.05    264.45701 
    8000    39.191051    39.191051    39.191051   -439.33971   -438.54535   -491.52541   -387.94837   -16255.948    263.65977 
    8050    39.184296    39.184296    39.184296    44.391764   -27.349605   -46.758962    207.28386    -16256.03    264.62806 
    8100    39.179879    39.179879    39.179879    354.44704    394.82848     91.49009    577.02256   -16256.371    265.64772 
    8150    39.186329    39.186329    39.186329   -1.3858377   -244.57256   -109.64944    350.06449   -16254.943    264.00874 
    8200    39.190892    39.190892    39.190892   -346.30667   -426.87921   -434.53892   -177.50187   -16255.459     265.5833 
    8250    39.184865    39.184865    39.184865    173.32676    187.07805 -0.047447166    332.94967    -16254.07    263.97104 
    8300    39.182708    39.182708    39.182708    323.43728    115.97431     190.5241    663.81344   -16254.799    265.89278 
    8350    39.189189    39.189189    39.189189   -59.720968    47.941068   -143.36058   -83.743389   -16253.531     265.1734 
    8400    39.193296    39.193296    39.193296   -436.70332   -539.10196   -576.37554   -194.63247   -16254.929    268.50581 
    8450    39.186267    39.186267    39.186267   -77.395032   -223.18953   -131.13745    122.14189   -16256.163    271.12472 
    8500    39.181125    39.181125    39.181125    490.71447    316.10778    324.06086    831.97475   -16254.408    268.26274 
    8550    39.189869    39.189869    39.189869    18.073495   -19.389797   -130.60997    204.22025     -16252.5    265.49223 
    8600    39.195304    39.195304    39.195304   -463.91183   -529.45619   -674.54725   -187.73206   -16253.688    269.51193 
    8650     39.18884     39.18884     39.18884   -14.190628   -53.325151    36.997109   -26.243842   -16253.869    270.43133 
    8700    39.186298    39.186298    39.186298     297.1266    141.05779    325.34087    424.98116   -16252.789    268.06038 
    8750    39.190203    39.190203    39.190203   -100.11026   -131.45553   -244.41408     75.53883   -16253.708    270.59477 
    8800    39.191351    39.191351    39.191351   -80.542365   -179.52838   -107.62543    45.526714   -16252.478    270.24438 
    8850    39.191494    39.191494    39.191494   -30.574495   -115.48169   -43.373087     67.13129   -16252.161    269.71913 
    8900     39.18932     39.18932     39.18932    12.707829   -76.092161   -113.54429    227.75994   -16253.153    272.52293 
    8950    39.189522    39.189522    39.189522   -20.455197   -77.598288   -64.104636    80.337333   -16253.713    273.79573 
    9000    39.192754    39.192754    39.192754   -118.13358    -329.0716   -81.263765    55.934623   -16251.499    271.49729 
    9050    39.194065    39.194065    39.194065   -172.74161   -274.97467   -212.18794   -31.062229   -16251.865    273.10601 
    9100    39.192112    39.192112    39.192112    83.126341     181.6974    67.102853   0.57876715   -16250.455    271.11707 
    9150    39.192458    39.192458    39.192458    149.13127   -22.854815    70.148009    400.10063   -16249.284      269.473 
    9200    39.193176    39.193176    39.193176    74.035019   -11.425774    105.90963     127.6212   -16249.559    270.21597 
    9250     39.19281     39.19281     39.19281   -51.937039     -154.564   -147.57155    146.32444   -16251.958     274.6943 
    9300     39.19242     39.19242     39.19242    63.185645   -128.90889    27.533762    290.93206   -16250.729    274.33694 
    9350    39.196373    39.196373    39.196373   -320.89235   -537.29212   -311.46477   -113.92017   -16251.836    277.22093 
    9400    39.195509    39.195509    39.195509    -77.25989   -171.66482    -206.2671    146.15225   -16249.117     271.8735 
    9450    39.191632    39.191632    39.191632    104.73321     199.8759    4.0224218     110.3013   -16251.326    276.40402 
    9500    39.192517    39.192517    39.192517     360.0735    152.89646    246.56807    680.75597   -16246.757    270.03354 
    9550    39.198306    39.198306    39.198306   -322.05214   -334.02972   -258.59499    -373.5317   -16250.369    276.70277 
    9600    39.196162    39.196162    39.196162    153.40322   -11.691799    191.52264    280.37883   -16246.369    271.27976 
    9650    39.194947    39.194947    39.194947    249.29298    200.14927    298.74584    248.98383   -16246.129    270.34761 
    9700    39.196697    39.196697    39.196697   -194.54403   -349.63468   -257.01948    23.022062   -16250.192    277.86516 
    9750    39.194091    39.194091    39.194091    202.37206    246.59161    21.763812    338.76076   -16247.697    273.70287 
    9800    39.193704    39.193704    39.193704    271.31712    214.79447    195.98386    403.17302   -16247.461    274.50064 
    9850    39.198384    39.198384    39.198384   -115.98519    -216.6661    -272.6545    141.36502   -16247.675    275.91529 
    9900    39.200556    39.200556    39.200556   -206.79769   -156.70433   -213.21279   -250.47596   -16247.676    277.02785 
    9950    39.196042    39.196042    39.196042    66.860821    15.168092    94.023513    91.390857   -16247.777    277.74727 
   10000    39.194499    39.194499    39.194499    194.45202    81.441303    400.41762    101.49714   -16248.381    278.92027 
   10050    39.200527    39.200527    39.200527   -160.25795   -110.73463   -234.66552   -135.37372   -16247.725    278.86156 
   10100     39.20125     39.20125     39.20125    26.218938   -73.034289   -4.2669345    155.95804   -16243.683    272.68396 
   10150    39.197608    39.197608    39.197608    124.73583    119.04043    69.496359     185.6707   -16246.879    278.33086 
   10200    39.196701    39.196701    39.196701   -4.1627314   -155.07756     -24.3101    166.89946   -16248.386    281.09974 
   10250     39.19809     39.19809     39.19809     357.5445    298.54835    387.45381    386.63135   -16242.611    272.06887 
   10300    39.202952    39.202952    39.202952   -336.03789   -298.80886   -409.55783   -299.74699   -16247.348     281.4922 
   10350    39.200203    39.200203    39.200203   -141.47549   -316.25587    -156.1075    47.936898   -16247.391    281.75359 
   10400    39.196082    39.196082    39.196082    365.86971    220.18569    391.31845    486.10499   -16245.137    278.33906 
   10450    39.202232    39.202232    39.202232   -155.63683   -157.95287   -233.72659   -75.231031   -16246.379    280.98834 
   10500    39.204472    39.204472    39.204472   -252.18697   -305.66596   -363.40415   -87.490801    -16245.39    280.09351 
   10550    39.199009    39.199009    39.199009    201.73127    84.394775    309.70503      211.094   -16244.954    279.60806 
   10600      39.1991      39.1991      39.1991    81.667924    9.3522893   -71.865372    307.51686   -16246.294    282.75508 
   10650    39.205116    39.205116    39.205116   -106.08038    -256.8337    35.002492   -96.409941   -16243.963    279.57583 
   10700    39.206917    39.206917    39.206917   -488.88757   -580.77874   -575.69007    -310.1939   -16246.267    283.62138 
   10750     39.19627     39.19627     39.19627    264.15158     246.2448    166.76863    379.44131   -16246.897    284.58116 
   10800    39.197514    39.197514    39.197514    297.86913     310.7669    217.04369    365.79681   -16245.363    283.27348 
   10850    39.208545    39.208545    39.208545   -387.67165   -441.79196   -501.47453   -219.74845   -16243.904    281.39321 
   10900    39.207628    39.207628    39.207628   -386.60117   -385.48104   -452.29785   -322.02463   -16244.851     284.2683 
   10950    39.198463    39.198463    39.198463    563.09652    559.25009    458.76417    671.27529   -16241.478    277.58216 
   11000    39.200463    39.200463    39.200463    242.08693    610.97833   -39.181905    154.46437   -16243.736    281.98583 
   11050    39.206355    39.206355    39.206355   -188.47373   -604.21726   -195.05954    233.85562   -16243.458    282.80697 
   11100    39.206904    39.206904    39.206904   -228.37798   -291.99843   -376.24785    -16.88766   -16243.756    284.44006 
   11150     39.20136     39.20136     39.20136    51.515928   -103.43338    181.92365    76.057512   -16244.993    285.72183 
   11200    39.200027    39.200027    39.200027    399.24685    386.44565    289.38171    521.91319   -16242.328    282.12467 
   11250    39.208292    39.208292    39.208292    -289.8742   -509.02397   -220.22133   -140.37731   -16242.976    283.88963 
   11300    39.207205    39.207205    39.207205   -35.974424   -165.60667   -93.816451    151.49984   -16241.444    281.93046 
   11350     39.20296     39.20296     39.20296   -7.3011371   -121.72304    49.250148    50.569482   -16244.417    287.68875 
   11400    39.202997    39.202997    39.202997    122.72537    148.85699    25.717701    193.60142   -16243.601    286.24749 
   11450    39.208677    39.208677    39.208677   -168.76266   -498.18144    82.050845   -90.157395   -16241.545    283.77975 
   11500    39.208573    39.208573    39.208573   -358.06554   -396.73047   -372.26478   -305.20136   -16243.925    287.81007 
   11550    39.201385    39.201385    39.201385    292.63784    143.26508    277.62908    457.01937   -16242.677    286.00619 
   11600     39.20462     39.20462     39.20462    32.722888   -51.774331   -146.95113    296.89413   -16242.802    286.94609 
   11650    39.211044    39.211044    39.211044    -364.1893   -284.37019   -392.09151   -416.10619   -16241.555    285.80433 
   11700    39.206788    39.206788    39.206788   -89.138145   -61.693891   -302.92809     97.20755   -16241.918    287.15581 
   11750    39.200162    39.200162    39.200162    391.59522     232.6328    334.36697    607.78589   -16242.903    287.97602 
   11800    39.206311    39.206311    39.206311       64.711   -54.450124    116.40321    132.17991   -16241.581     286.5726 
   11850    39.214267    39.214267    39.214267   -463.92477   -519.21157   -420.09326   -452.46946   -16240.744    286.59235 
   11900    39.209615    39.209615    39.209615   -425.32371   -383.10712   -318.47988   -574.38414   -16244.157    291.90674 
   11950    39.198777    39.198777    39.198777    804.41426    791.37571     787.9743    833.89279   -16238.949    282.50797 
   12000    39.205796    39.205796    39.205796    68.485103   -30.071224    194.54351    40.983026   -16241.184    287.39492 
   12050    39.214903    39.214903    39.214903   -556.75156   -921.40598   -430.37382   -318.47489   -16241.116    288.23553 
   12100    39.208753    39.208753    39.208753     62.10092    84.302857    88.995337    13.004565   -16238.881    285.07123 
   12150    39.202697    39.202697    39.202697    260.58544    153.26703    288.90592    339.58338   -16242.561    291.09467 
   12200    39.207967    39.207967    39.207967    133.05127    69.146064    96.860736    233.14701   -16239.908    287.46563 
   12250    39.215959    39.215959    39.215959   -690.50241   -595.60078    -834.9606   -640.94586   -16241.713    291.54608 
   12300    39.208343    39.208343    39.208343    61.073979     30.20975   -114.93011     267.9423   -16239.702    288.27431 
   12350    39.201889    39.201889    39.201889    470.99527     541.2569    389.97993    481.74898    -16240.54    289.17212 
   12400    39.207819    39.207819    39.207819    55.849833    37.411685   -114.25869    244.39651   -16241.008    290.82959 
   12450    39.216837    39.216837    39.216837   -693.56618   -735.97424   -584.55353   -760.17076    -16240.95    292.33466 
   12500    39.211422    39.211422    39.211422   -136.83555   -303.14444   -294.31423    186.95201   -16239.708    289.19048 
   12550    39.201669    39.201669    39.201669    779.01958    726.96504    605.48412    1004.6096    -16237.48    285.38554 
   12600     39.20879     39.20879     39.20879   -58.807096   -226.71095    40.990845    9.2988164   -16240.727    292.40309 
   12650    39.217667    39.217667    39.217667   -539.65979   -612.59575   -436.68489   -569.69872   -16238.457    288.44002 
   12700    39.211601    39.211601    39.211601   -49.708696    80.131558   -153.01403    -76.24362   -16239.017    290.18092 
   12750    39.203404    39.203404    39.203404    466.05137     73.11214    685.61481    639.42715   -16239.438    289.70907 
   12800     39.20917     39.20917     39.20917    128.69443     182.4964    135.13848    68.448401   -16238.612    289.98855 
   12850    39.216941    39.216941    39.216941     -318.509   -357.51501   -343.82232   -254.18966   -16237.343    288.50741 
   12900    39.213104    39.213104    39.213104    -194.5659   -206.10497   -134.58761   -243.00511   -16238.265    290.32873 
   12950    39.204547    39.204547    39.204547    616.49837    543.01299    507.26818    799.21395    -16236.64     287.4319 
   13000    39.209254    39.209254    39.209254    91.564162   -63.439979    334.55157    3.5808994   -16238.119      290.154 
   13050    39.215653    39.215653    39.215653   -253.52723   -261.51341   -267.54996   -231.51832   -16237.918    290.68809 
   13100    39.213519    39.213519    39.213519    155.15826    134.44203    65.214782    265.81799   -16234.347    284.71155 
   13150    39.209566    39.209566    39.209566    44.898066    11.332448    73.942889    49.418861   -16239.819    295.11364 
   13200    39.210513    39.210513    39.210513    160.53773    70.583095    143.05646    267.97363    -16237.33    290.32633 
   13250    39.214504    39.214504    39.214504    2.0646572    150.69239   -92.531465   -51.966957   -16235.437    288.33613 
   13300    39.212955    39.212955    39.212955    -158.0704    -414.8361   -90.348615    30.973515   -16239.258    295.02091 
   13350    39.209089    39.209089    39.209089    212.56247    257.88204    26.063291    353.74208   -16237.415     291.8705 
   13400    39.211655    39.211655    39.211655    129.98599    81.729512   -13.582925    321.81137   -16237.066    291.21657 
   13450     39.21647     39.21647     39.21647   -430.44474   -339.80949   -462.47244    -489.0523   -16239.346    296.32105 
   13500    39.212038    39.212038    39.212038    44.307643   -35.581264    65.997083    102.50711   -16237.393    292.80363 
   13550    39.209258    39.209258    39.209258    75.402925    59.156486   -152.34335    319.39564   -16240.358    297.22896 
   13600    39.212811    39.212811    39.212811   -138.70805   -229.27479    -235.9787    49.129359   -16239.511    296.99867 
   13650     39.21635     39.21635     39.21635   -264.68135   -425.16931   -398.59775    29.723016   -16237.268    293.91479 
   13700    39.213093    39.213093    39.213093   -34.799696    79.543254   -176.11932   -7.8230205   -16237.601    294.46065 
   13750    39.210242    39.210242    39.210242    130.26888   -127.37166    185.85254    332.32575   -16238.338    295.43418 
   13800    39.212581    39.212581    39.212581   -19.958626   -31.280724    60.480812   -89.075967   -16237.697    295.24879 
   13850    39.216194    39.216194    39.216194   -142.97974   -276.50999   -343.82033     191.3911   -16237.037    294.19769 
   13900    39.215205    39.215205    39.215205    105.28805    117.23845    12.331987    186.29372   -16234.721    290.74569 
   13950    39.212704    39.212704    39.212704    204.46569    53.828924     159.0536    400.51456   -16235.664     292.6779 
   14000     39.21477     39.21477     39.21477    2.1838074   -45.156009    103.61541   -51.907977   -16236.062    294.36377 
   14050    39.216518    39.216518    39.216518   -181.84075   -341.12021    36.977181   -241.37922   -16236.647    295.04536 
   14100     39.21396     39.21396     39.21396    145.35976    124.07808   -35.356107     347.3573   -16235.208    292.68702 
   14150    39.212265    39.212265    39.212265     344.1019    291.50803    439.90934    300.88834   -16234.616    290.90475 
   14200    39.215075    39.215075    39.215075   -91.083674   -144.97664   -132.13044    3.8560657   -16236.676    295.97853 
   14250    39.216544    39.216544    39.216544   -153.81733   -48.414966   -76.721263   -336.31576   -16236.284    294.95941 
   14300    39.213564    39.213564    39.213564    102.66868    106.29007   -109.04236    310.75834   -16235.786    294.33705 
   14350    39.212773    39.212773    39.212773    149.65333   -75.027635    391.64395    132.34366   -16235.929     295.0143 
   14400    39.215451    39.215451    39.215451   -19.970327   -106.43248   -180.53681    227.05831   -16235.877    295.44116 
   14450    39.218443    39.218443    39.218443   -447.95676   -576.76822   -261.08032   -506.02175   -16238.596    301.23613 
   14500    39.215731    39.215731    39.215731    13.841075    129.81521   -35.562502   -52.729486   -16235.355    295.64999 
   14550    39.213156    39.213156    39.213156    20.644064   -159.39748     155.7207    65.608976   -16237.367    298.61154 
   14600     39.21493     39.21493     39.21493     65.37891    112.42024    33.972295      49.7442   -16235.895    296.30325 
   14650    39.219437    39.219437    39.219437   -336.70138   -323.14094   -413.75567   -273.20754   -16236.167    297.01659 
   14700    39.214877    39.214877    39.214877   -109.36394   -126.32608    42.483422   -244.24917   -16236.923    298.24945 
   14750    39.209446    39.209446    39.209446    504.86544    600.19492    510.75015    403.65124   -16234.647    294.34442 
   14800     39.21614     39.21614     39.21614    18.451824    167.87349   -145.83328    33.315259   -16235.039    295.55836 
   14850    39.221374    39.221374    39.221374   -404.95005   -425.26582   -397.18902   -392.39531   -16235.481    297.44032 
   14900    39.216102    39.216102    39.216102   0.60314683   -23.830743   -31.715536    57.355719    -16235.27    296.94848 
   14950    39.212942    39.212942    39.212942    240.12523    174.54385    358.22903     187.6028   -16234.948    296.10286 
   15000    39.215999    39.215999    39.215999   -186.24813   -71.760203   -286.90554   -200.07866   -16236.716    299.51311 
   15050    39.217631    39.217631    39.217631    32.538031   -41.053191    14.435343    124.23194   -16233.347    294.27711 
   15100    39.218325    39.218325    39.218325   -426.92282   -292.08071   -528.36215   -460.32561   -16238.147    302.42219 
   15150    39.211957    39.211957    39.211957    127.17351    113.41178    11.527623    256.58113   -16236.597    299.44171 
   15200    39.211991    39.211991    39.211991    258.73704    219.24198    358.72349    198.24565     -16236.1    298.62513 
   15250    39.221178    39.221178    39.221178   -232.28016    -534.9733   -80.470813   -81.396361   -16233.651    296.06438 
   15300    39.223894    39.223894    39.223894   -657.65175    -629.6479   -624.61908   -718.68827   -16236.257    299.93119 
   15350    39.210781    39.210781    39.210781    290.77873    191.26896    269.91198    411.15526    -16235.94    299.37501 
   15400    39.209386    39.209386    39.209386    447.55538    415.05827     140.4889    787.11895   -16235.721    298.56543 
   15450    39.222877    39.222877    39.222877   -226.35141   -119.17818   -235.83537   -324.04067   -16232.231    293.80989 
   15500    39.225276    39.225276    39.225276   -475.13833   -369.69171   -635.31532   -420.40796       -16233    295.63671 
   15550    39.212028    39.212028    39.212028    94.228415    -40.12286    122.35815    200.44996   -16237.468    302.29201 
   15600    39.207706    39.207706    39.207706    772.59995    890.94746      737.539    689.31339   -16233.298    295.20038 
   15650    39.222542    39.222542    39.222542   -550.16197   -658.81243   -288.32368    -703.3498   -16237.075    303.04627 
   15700    39.224995    39.224995    39.224995   -332.31825   -210.22636   -499.17531   -287.55309   -16231.012    293.30741 
   15750    39.215261    39.215261    39.215261   -48.313283   -104.85707   -61.220149    21.137374    -16237.06    302.82809 
   15800    39.210008    39.210008    39.210008    519.72024    595.00849    455.98567    508.16655   -16233.979     297.2134 
   15850    39.219266    39.219266    39.219266   -80.400355   -168.31442   -39.635211   -33.251434   -16233.957    297.88651 
   15900    39.224529    39.224529    39.224529   -618.51671   -354.65523   -780.29734   -720.59757   -16235.715    302.15587 
   15950    39.215671    39.215671    39.215671    95.012351    54.760402   -52.644601    282.92125   -16233.995    298.14418 
   16000    39.210018    39.210018    39.210018    482.17294    714.85401     423.8625    307.80231    -16235.06    300.68726 
   16050    39.220226    39.220226    39.220226   -157.16516   -211.32624   -189.82382   -70.345402   -16234.345    299.34391 
   16100    39.226372    39.226372    39.226372   -584.84036   -447.39726   -575.83563   -731.28818   -16233.438    298.40817 
   16150     39.21617     39.21617     39.21617    279.79992    254.53904    53.359339    531.50137   -16231.579    295.18881 
   16200    39.211469    39.211469    39.211469     516.7896    538.60078    457.78645    553.98157   -16234.256    298.80597 
   16250    39.219776    39.219776    39.219776    142.86222     197.6238    62.415246    168.54762   -16230.832    294.22425 
   16300    39.227387    39.227387    39.227387   -849.64186   -628.76474   -959.92898   -960.23188   -16235.394    302.86267 
   16350    39.216317    39.216317    39.216317    145.92609    450.21278    -185.8765    173.44198   -16233.599    298.54253 
   16400    39.209972    39.209972    39.209972    805.01262    733.10183    760.98256    920.95349   -16231.804    295.16145 
   16450    39.222817    39.222817    39.222817    -464.2516   -559.67237   -398.91934   -434.16308   -16235.597    302.51064 
   16500    39.225647    39.225647    39.225647    -453.4938   -501.56654   -501.53863   -357.37624   -16232.831    298.00087 
   16550     39.21504     39.21504     39.21504    22.365153    18.502598    156.47581   -107.88295   -16236.565    304.68918 
   16600    39.211769    39.211769    39.211769    477.00753    574.41739    461.32296    395.28224   -16234.468    300.69339 
   16650    39.223966    39.223966    39.223966   -489.83631   -305.80253   -584.66749    -579.0389   -16234.516    301.83979 
   16700    39.225811    39.225811    39.225811   -343.92377   -515.87222   -388.59194   -127.30714    -16231.43    297.55743 
   16750     39.21746     39.21746     39.21746   -137.83034   -3.8039499   -325.30581   -84.381269    -16236.54    304.41562 
   16800    39.211159    39.211159    39.211159    562.92768    496.87221    608.67055    583.24029   -16234.175    300.34758 
   16850    39.221535    39.221535    39.221535   -65.607173    120.39443   -28.486834   -288.72911   -16231.785     296.5518 
   16900    39.226635    39.226635    39.226635   -424.65189   -343.28051   -391.42904   -539.24612   -16230.997    295.66117 
   16950    39.215749    39.215749    39.215749    319.52953    363.01243    444.08617       151.49   -16232.189    298.01353 
   17000    39.212662    39.212662    39.212662    548.65574    524.29444     485.9624    635.71038    -16232.84     297.4033 
   17050    39.222305    39.222305    39.222305   -98.649232    53.635599   -144.27492   -205.30837   -16231.461    296.61776 
   17100    39.226662    39.226662    39.226662   -218.41813   -367.71826   -161.26599   -126.27016   -16229.769    294.65081 
   17150    39.219705    39.219705    39.219705   -81.738351   -234.62631   -49.956074    39.367333    -16233.69     300.8223 
   17200    39.211211    39.211211    39.211211    690.97649    839.01354     509.2365    724.67944   -16232.061    296.70129 
   17250    39.219237    39.219237    39.219237    138.25751    36.902735    208.68103    169.18877   -16231.389     296.0959 
   17300    39.226351    39.226351    39.226351   -417.33672   -537.68811   -400.87192   -313.45014   -16231.585    297.80243 
   17350    39.219098    39.219098    39.219098   -103.22793   -114.29725   -101.57429   -93.812231   -16234.142    301.59202 
   17400    39.212594    39.212594    39.212594    288.81436     306.5658     53.52532    506.35197   -16235.819     303.7904 
   17450    39.217909    39.217909    39.217909     124.8817    328.49474   -88.247023    134.39737   -16232.306    298.44521 
   17500    39.226308    39.226308    39.226308   -616.18078    -858.2371   -528.34345   -461.96179   -16234.646    303.61567 
   17550    39.221112    39.221112    39.221112   -151.01535   -313.08814   -23.008174   -116.94975    -16233.98     301.6363 
   17600    39.214435    39.214435    39.214435    344.61825    217.55472    530.86899    285.43104   -16232.999    299.27824 
   17650    39.217752    39.217752    39.217752    69.739693   -175.98627    184.33786    200.86749    -16233.77    300.85324 
   17700    39.223637    39.223637    39.223637   -675.41213   -640.20802   -643.26007   -742.76831   -16237.379    308.80032 
   17750    39.221024    39.221024    39.221024    -143.3102   -217.06874   -40.007707   -172.85415   -16233.835    301.70771 
   17800      39.2157      39.2157      39.2157    158.35128    44.912604    260.53553    169.60569   -16234.494    302.06292 
   17850     39.21735     39.21735     39.21735   -4.9075187   -98.767668    26.760692     57.28442   -16234.923     303.4197 
   17900    39.222995    39.222995    39.222995   -230.65498    -209.0897   -209.95074   -272.92451   -16232.739    299.87037 
   17950    39.221908    39.221908    39.221908   -177.53495   -190.29492   -40.771885   -301.53804   -16232.866    300.41616 
   18000     39.21649     39.21649     39.21649    92.003927     117.0089   -161.15786    320.16074   -16234.582    302.42175 
   18050    39.217354    39.217354    39.217354    303.70648    229.48084     464.5201    217.11851   -16231.469    297.90132 
   18100    39.225376    39.225376    39.225376   -604.01803   -681.54053   -884.88456   -245.62901   -16234.805    303.62694 
   18150    39.219648    39.219648    39.219648    108.91084    130.10986    39.117165    157.50548   -16232.341    299.95408 
   18200    39.216268    39.216268    39.216268  0.095365794    82.691784   -89.120917    6.7152307   -16235.446    304.60274 
   18250    39.218896    39.218896    39.218896    106.72881   0.80301528    73.006174    246.37723   -16232.185    299.21151 
   18300    39.224242    39.224242    39.224242   -309.77718   -359.44172    -316.1823   -253.70753   -16231.949    298.93091 
   18350    39.220186    39.220186    39.220186   -225.83265   -143.94333   -390.89898   -142.65562   -16234.501    302.59869 
   18400    39.213496    39.213496    39.213496    376.78807    374.85906     396.2548    359.25034   -16234.491    302.42732 
   18450    39.219165    39.219165    39.219165    105.01344    83.889604    11.407499    219.74321   -16232.091    298.88762 
   18500    39.226181    39.226181    39.226181   -344.18879    -381.8079   -324.63577   -326.12269   -16231.111    298.20883 
   18550    39.220701    39.220701    39.220701    53.944466    36.885815    1.8503465    123.09724   -16231.016    297.35774 
   18600    39.214213    39.214213    39.214213     395.0808    525.41264    199.39862    460.43115   -16232.502    299.57599 
   18650    39.219056    39.219056    39.219056   0.99483004   -68.984977    -106.2212    178.19066   -16233.255    301.60879 
   18700      39.2259      39.2259      39.2259   -441.15333   -487.15945   -536.63426   -299.66628   -16232.034    299.61651 
   18750    39.218466    39.218466    39.218466    31.376539    165.22114    122.57837   -193.66989   -16232.897    300.11431 
   18800    39.212404    39.212404    39.212404    560.89486    617.76353    380.74577    684.17527   -16231.988    298.64136 
   18850    39.222675    39.222675    39.222675   -174.15892   -128.31078   -327.89185   -66.274116   -16232.261    299.40583 
   18900    39.225852    39.225852    39.225852   -448.44837   -470.49389    -410.7864   -464.06482   -16232.609    300.95841 
   18950    39.217668    39.217668    39.217668    301.99876    317.15645    121.09257    467.74725   -16231.326    298.01908 
   19000    39.215492    39.215492    39.215492    184.30428    338.74813      144.365    69.799696   -16234.284    302.58307 
   19050    39.219694    39.219694    39.219694    155.08788    152.59672   -61.089566     373.7565   -16231.044    297.52678 
   19100    39.225517    39.225517    39.225517   -435.31908     -305.044   -416.19296    -584.7203   -16232.639    300.17229 
   19150    39.219196    39.219196    39.219196   -8.1906079   -61.492332    -179.2422    216.16271   -16233.558    301.24244 
   19200    39.213237    39.213237    39.213237    441.70699    516.70469     441.8337    366.58258   -16233.382    301.13462 
   19250     39.22102     39.22102     39.22102    -336.2679   -256.56694   -379.22217   -373.01459   -16235.801    305.78767 
   19300    39.225962    39.225962    39.225962   -548.90343   -404.61848   -530.49412   -711.59771   -16234.596    304.33827 
   19350    39.219129    39.219129    39.219129    7.3479809    21.718222   -46.046178    46.371898   -16232.841    300.72263 
   19400    39.214272    39.214272    39.214272    369.40725    525.22083    322.08481     260.9161   -16233.333     300.5399 
   19450    39.220519    39.220519    39.220519   -43.593808   -121.69477   -96.029332    86.942676   -16233.682    302.13496 
   19500    39.225902    39.225902    39.225902   -342.08805   -285.18692   -421.99574    -319.0815   -16231.287    298.06733 
   19550     39.22007     39.22007     39.22007   -29.544548    134.77269   -147.58486   -75.821477   -16232.784    299.95661 
   19600    39.214286    39.214286    39.214286    206.12031    283.24652    218.72064    116.39378   -16235.762    305.31084 
   19650    39.217793    39.217793    39.217793    92.040336    181.83941   -37.189302     131.4709   -16233.044    299.94625 
   19700    39.223205    39.223205    39.223205   -242.10511   -95.148983   -517.26827   -113.89809   -16232.715    301.14833 
   19750    39.223451    39.223451    39.223451   -473.00802   -342.79735   -497.16529   -579.06141   -16234.886    304.70351 
   19800    39.215457    39.215457    39.215457    352.79622    503.45979    242.62423    312.30464   -16232.555    299.26704 
   19850    39.216319    39.216319    39.216319    303.73785    244.00361    398.96218    268.24777   -16232.056    299.47598 
   19900    39.225225    39.225225    39.225225   -382.61972    -671.6894   -313.27164   -162.89812   -16232.254    300.56488 
   19950    39.222585    39.222585    39.222585   -36.110534    196.68303   -37.398584   -267.61605   -16230.186    296.16762 
   20000    39.215194    39.215194    39.215194    252.89341    302.25927    368.47354    87.947418   -16233.136    300.73202 
Loop time of 658.145 on 4 procs for 20000 steps with 4000 atoms

Pair  time (%) = 446.033 (67.7713)
Neigh time (%) = 0.020337 (0.00309005)
Comm  time (%) = 146.216 (22.2163)
Outpt time (%) = 1.29801 (0.197223)
Other time (%) = 64.5775 (9.81206)

Nlocal:    1000 ave 1016 max 969 min
Histogram: 1 0 0 0 0 0 0 1 0 2
Nghost:    4235 ave 4266 max 4219 min
Histogram: 2 0 1 0 0 0 0 0 0 1
Neighs:    79168.2 ave 82725 max 73142 min
Histogram: 1 0 0 0 0 1 0 0 0 2
FullNghs:  0 ave 0 max 0 min
Histogram: 4 0 0 0 0 0 0 0 0 0

Total # of neighbors = 316673
Ave neighs/atom = 79.1683
Neighbor list builds = 3
Dangerous builds = 0
unfix 1

# Store final cell length for strain calculations
variable tmp equal "lx"
variable L0 equal ${tmp}
variable L0 equal 39.2151939082705
print "Initial Length, L0: ${L0}"
Initial Length, L0: 39.2151939082705

######################################
# DEFORMATION
reset_timestep	0

fix		1 all npt temp 300 300 1 y 0 0 1 z 0 0 1 drag 1
variable srate equal 1.0e10
variable srate1 equal "v_srate / 1.0e12"
fix		2 all deform 1 x erate ${srate1} units box remap x
fix		2 all deform 1 x erate 0.01 units box remap x

# Output strain and stress info to file
# for units metal, pressure is in [bars] = 100 [kPa] = 1/10000 [GPa]
# p2, p3, p4 are in GPa
variable strain equal "(lx - v_L0)/v_L0"
variable p1 equal "v_strain"
variable p2 equal "-pxx/10000"
variable p3 equal "-pyy/10000"
variable p4 equal "-pzz/10000"
fix def1 all print 20 "${p1} ${p2} ${p3} ${p4}" file  Al99.negPhiR.eam.alloy.def1.txt screen no

# Use cfg for AtomEye
#dump 		1 all cfg 250 dump.tensile_*.cfg id type xs ys zs c_csym c_peratom fx fy fz
#dump_modify 1 element Al

# Display thermo
thermo 	50
thermo_style	custom step v_strain temp v_p2 v_p3 v_p4 ke pe press

run		20000
Memory usage per processor = 3.04301 Mbytes
Step strain Temp p2 p3 p4 KinEng PotEng Press 
       0 -1.8119067e-16    300.73202 -0.030225927 -0.036847354 -0.0087947418    155.45179   -16233.136    252.89341 
      50       0.0005    302.44973  0.021377166  0.029359959  0.020407732    156.33969   -16234.067   -237.14953 
     100        0.001       300.19  0.078751957  0.032769425   0.03326223    155.17161   -16231.999   -482.61204 
     150       0.0015     300.1502   0.11248385 -0.010124774  0.014353613    155.15103   -16231.921   -389.04228 
     200        0.002    298.06635   0.14250063 -0.0096613188 -0.036845233    154.07387    -16230.96   -319.98025 
     250       0.0025    296.82528   0.15139899   0.01406107 -0.011656361    153.43235   -16229.842     -512.679 
     300        0.003    297.55333    0.2015807 0.0027992176 -0.017136996    153.80868    -16230.08   -624.14306 
     350       0.0035    297.55913    0.2284494 -0.0048364301 -0.016975487    153.81168   -16229.451   -688.79161 
     400        0.004    299.56511   0.27084052 -0.030138698 0.00085553767    154.84859   -16230.688   -805.19121 
     450       0.0045    294.06779   0.28490009 -0.035534988 -0.011715337    152.00697   -16227.721   -792.16589 
     500        0.005    297.39096   0.37117277 -0.00092778305  0.010162973    153.72475   -16229.031   -1268.0265 
     550       0.0055     301.3411   0.41039692  0.025395579  0.003470109    155.76662   -16230.901   -1464.2087 
     600        0.006    298.75693   0.41810438 -0.036403378 -0.012807803    154.43084   -16229.027    -1229.644 
     650       0.0065    298.53388   0.46233858  0.011350941 -0.018164007    154.31554   -16228.314   -1518.4184 
     700        0.007    296.30759   0.51506419  -0.00529033 -0.013746985    153.16475   -16227.074   -1653.4229 
     750       0.0075    296.83976    0.5483017  0.019236526 -0.028937167    153.43983   -16226.885   -1795.3369 
     800        0.008    302.38097   0.61188074 0.0036768888 -0.0051479101    156.30415   -16229.441   -2034.6991 
     850       0.0085    300.76034   0.61440182 0.0066812677  0.030362906    155.46642   -16228.028   -2171.4866 
     900        0.009    299.81129   0.66976389  -0.02585187  0.029264472    154.97585   -16227.377   -2243.9216 
     950       0.0095    297.06168   0.73518629 -0.010845046  -0.01910967    153.55454   -16225.409   -2350.7719 
    1000         0.01    304.65346   0.79021585  0.019374633  0.040301107    157.47882   -16229.113    -2832.972 
    1050       0.0105    300.01349   0.77142023  0.031953385 -0.0073284112    155.08037   -16226.366    -2653.484 
    1100        0.011    302.50489   0.84068513  0.032532102 -0.0057643818     156.3682   -16227.128   -2891.5095 
    1150       0.0115    296.68792   0.82851613 0.0011287427 -0.026544143    153.36134    -16223.62   -2677.0024 
    1200        0.012    299.90148   0.90921831 -0.0090149059  0.019351493    155.02247   -16225.153    -3065.183 
    1250       0.0125    293.55269   0.92828379 -0.028756499 0.0049373267    151.74071    -16220.81   -3014.8821 
    1300        0.013    303.18516   0.98605373  0.018667579  0.045390529    156.71984   -16225.662   -3500.3728 
    1350       0.0135    295.09782   0.97751019 -0.028503964 -0.025662905     152.5394   -16220.746   -3077.8111 
    1400        0.014     302.5725    1.0355488  0.020615694  0.010215281    156.40315   -16224.301   -3554.5993 
    1450       0.0145    298.79579    1.0912613  0.037306219 -0.021790679    154.45093   -16222.348   -3689.2562 
    1500        0.015    301.18729    1.1430215 -0.0042419141 -0.001384481    155.68712   -16222.687   -3791.3169 
    1550       0.0155    297.57641    1.1527968 0.0002411675 0.0047021845    153.82061   -16219.889   -3859.1338 
    1600        0.016    300.26404    1.1925394  0.036268923  0.020343373    155.20988   -16220.553   -4163.8388 
    1650       0.0165    299.10617    1.2345255 0.0025294985  0.024574782    154.61136   -16219.823   -4205.4327 
    1700        0.017    295.54024    1.2271022 -0.058331633 -0.016365332    152.76809   -16217.514   -3841.3507 
    1750       0.0175    299.11452    1.3022759 -0.028138038 0.0098427573    154.61568   -16218.987   -4279.9353 
    1800        0.018     295.8653    1.3355414 0.0082794485  0.009557905    152.93612   -16216.275   -4511.2624 
    1850       0.0185    294.81918    1.4070038 0.0022310081 -0.031769051    152.39537   -16215.233   -4591.5525 
    1900        0.019    301.04993    1.4234185  0.072205381  0.011474206    155.61612   -16217.948   -5023.6602 
    1950       0.0195    297.90986    1.4490943 -0.034335579 -0.0071581113    153.99298   -16216.024   -4692.0021 
    2000         0.02    303.70596    1.4960332 -0.00045327806 0.0020752901    156.98905    -16218.36   -4992.1841 
    2050       0.0205    297.39354    1.5445889 -0.0077178932 -0.0087165784    153.72609   -16214.247    -5093.848 
    2100        0.021    298.18963    1.6104141  0.043927154  0.028736484     154.1376   -16213.766    -5610.259 
    2150       0.0215    302.19729    1.6259222  0.024964416  0.030937945     156.2092   -16215.661   -5606.0819 
    2200        0.022    303.14854    1.6501711 -0.030816378 -0.014574438    156.70091   -16215.796   -5349.2675 
    2250       0.0225     302.0831      1.66455 -0.017002868 -0.0099923086    156.15018   -16214.189   -5458.5159 
    2300        0.023    301.68195    1.7485093  0.047618155  0.048040742    155.94282   -16213.251   -6147.2272 
    2350       0.0235    300.46238    1.7836614  0.066250803  0.052729898    155.31241   -16211.841   -6342.1402 
    2400        0.024    295.99943      1.75815 -0.022339914 -0.043282105    153.00546   -16209.418   -5641.7598 
    2450       0.0245    303.20541    1.8194988 -0.041477263 -0.040157644    156.73031    -16212.57   -5792.8795 
    2500        0.025    293.65686    1.8474917 -0.011107881 -0.003638702    151.79456   -16206.462   -6109.1504 
    2550       0.0255    301.15524    1.9227195  0.053237168  0.080908964    155.67055   -16209.506   -6856.2188 
    2600        0.026    299.00206    1.9539071 0.0079576838 -0.0088207974    154.55755   -16207.871   -6510.1467 
    2650       0.0265    301.61307    1.9559626 -0.023167877 -0.020700899    155.90721   -16208.857    -6373.646 
    2700        0.027    300.21214    2.0187851 0.0051331097 -0.0056003545    155.18306   -16207.216    -6727.726 
    2750       0.0275    298.50622    2.0575937  0.022732857  0.056620916    154.30125   -16205.596   -7123.1582 
    2800        0.028     300.2968     2.102473  0.021084157  0.020070978    155.22682   -16205.735    -7145.427 
    2850       0.0285     301.7779    2.1062719 -0.023003502 -0.014255103    155.99241   -16206.211    -6896.711 
    2900        0.029    297.42255    2.1402165 0.00023038664 -0.047714224    153.74108   -16203.183   -6975.7756 
    2950       0.0295    298.92052    2.2130971  0.043699562   0.02589954     154.5154   -16202.938   -7608.9875 
    3000         0.03    300.20879    2.2314852   0.03291519  0.035098172    155.18132   -16202.991   -7664.9953 
    3050       0.0305    302.68976    2.2777028  0.004524378  0.019713916    156.46376   -16204.236   -7673.1369 
    3100        0.031    300.72651    2.2876874 -0.023755352 -0.032668884    155.44893   -16202.173    -7437.544 
    3150       0.0315    296.96935     2.355909 -0.016414753 -0.012751023    153.50682   -16199.385   -7755.8107 
    3200        0.032     299.4662    2.4316696  0.046670883  0.064283562    154.79747   -16199.788   -8475.4134 
    3250       0.0325    299.09624    2.4206902  0.029467341  0.022279535    154.60623   -16198.719    -8241.457 
    3300        0.033    295.61597    2.4091396 -0.074772035 -0.057842765    152.80724   -16196.236    -7588.416 
    3350       0.0335    293.97152    2.4736412 -0.038331023 -0.048796227    151.95721   -16194.955   -7955.0464 
    3400        0.034    296.72728    2.5362574  0.030230301   0.03619547    153.38169    -16195.27   -8675.6106 
    3450       0.0345    295.81465    2.5716164  0.027515032    0.0240883    152.90994   -16194.256   -8744.0657 
    3500        0.035    296.58033    2.5665299 -0.017956165 -0.025369691    153.30573   -16194.282   -8410.6802 
    3550       0.0355    300.67434    2.6654245 -0.028681193  -0.04251532    155.42197   -16195.635   -8647.4265 
    3600        0.036    297.65769    2.6507726  0.013081627 -0.014940967    153.86263   -16192.217   -8829.7108 
    3650       0.0365    299.78669    2.7596436  0.032335798   0.06187106    154.96313   -16193.259   -9512.8347 
    3700        0.037    300.24545    2.7710942  0.024288234  0.024861977    155.20027   -16192.816   -9400.8148 
    3750       0.0375    298.26245    2.7680374 -0.039755464 -0.044205845    154.17524   -16191.027   -8946.9204 
    3800        0.038    296.07763    2.8245227 -0.035204198 -0.060653259    153.04588   -16189.192   -9095.5507 
    3850       0.0385    300.09551    2.9279147  0.039275211  0.059113348    155.12277   -16189.887   -10087.678 
    3900        0.039    301.56925    2.9592508  0.070843096  0.080046155    155.88456   -16190.338   -10367.134 
    3950       0.0395     297.4509    2.9313934  -0.03481894 -0.025176643    153.75574   -16187.389    -9571.326 
    4000         0.04    301.00299    2.9928843 -0.047177971  -0.06123721    155.59185    -16188.78    -9614.897 
    4050       0.0405    299.35315    3.0744809  0.020892303 0.0086551999    154.73903   -16186.478   -10346.761 
    4100        0.041    298.78506    3.1086302  0.090774731  0.082902047    154.44538   -16185.791   -10941.023 
    4150       0.0415    300.01389     3.099109  0.013851276 -0.024630599    155.08057   -16185.981   -10294.432 
    4200        0.042    299.60653    3.0787801 -0.085089496 -0.038292437    154.87001   -16184.614   -9851.3272 
    4250       0.0425    293.96983    3.1479472 -0.037504934 -0.029701339    151.95633   -16180.755   -10269.136 
    4300        0.043    292.89768    3.2738814  0.044758775  0.056512474    151.40213   -16179.371   -11250.509 
    4350       0.0435    296.67314    3.3009124   0.02463866  0.051515201     153.3537    -16180.11   -11256.888 
    4400        0.044    299.02012    3.2929546 -0.035344403 -0.050232611    154.56688   -16181.248   -10691.259 
    4450       0.0445    298.46088     3.296036 -0.047286959 -0.051519026    154.27781   -16180.815   -10657.433 
    4500        0.045    294.39133    3.3776396 0.0042827903 -0.0086093711    152.17421   -16177.285   -11244.377 
    4550       0.0455    296.64761    3.4483068  0.060366715  0.051994763    153.34051   -16177.054   -11868.894 
    4600        0.046     295.0445    3.4788919 -0.0045231365 -0.035957999    152.51184   -16175.397   -11461.369 
    4650       0.0465    294.75329    3.4909974 -0.067072107 -0.048620091    152.36131   -16174.575   -11251.017 
    4700        0.047    300.36212    3.5403531  0.028293957  0.013581997    155.26058   -16176.745   -11940.763 
    4750       0.0475    295.53744    3.5731235  0.026373385 -0.0048205616    152.76665   -16173.284   -11982.254 
    4800        0.048    295.84541    3.6284696  -0.02516864 -0.0048797955    152.92584   -16173.017   -11994.737 
    4850       0.0485    303.23532    3.6840928  0.044271733 -0.0022998077    156.74577   -16175.768   -12420.216 
    4900        0.049    298.77708    3.6925884 -0.023723104 -0.0087060162    154.44126    -16172.66   -12200.531 
    4950       0.0495    297.39661     3.725265 0.0010463765  0.020316004    153.72767   -16171.083   -12488.758 
    5000         0.05    296.77072    3.7775954  0.016979574  0.010313795    153.40415   -16169.995   -12682.962 
    5050       0.0505    297.56146    3.7929964 -0.014466622 -0.013391617    153.81289   -16169.477   -12550.461 
    5100        0.051    296.77091    3.8309145 -0.040010033 -0.029872168    153.40424   -16168.513   -12536.774 
    5150       0.0515    296.11794    3.8575406  0.036604338 -0.0076485961    153.06672   -16166.828   -12954.988 
    5200        0.052    300.13564    3.9532475  0.006216345 0.00034709267    155.14351   -16168.253    -13199.37 
    5250       0.0525     294.1403    3.9462945 -0.0086509676 -0.013303906    152.04445   -16163.977   -13081.132 
    5300        0.053    302.47265    4.0062551  0.018014253  0.029530043    156.35154   -16167.742   -13512.665 
    5350       0.0535    294.26455    4.0112677 -0.012330676 -0.028445449    152.10868   -16162.559   -13234.972 
    5400        0.054    299.75119    4.0718797  -0.01210713 -0.014821751    154.94478   -16164.564   -13483.169 
    5450       0.0545     299.2816    4.1185025 0.0068869134 -0.00086594948    154.70205   -16163.346   -13748.412 
    5500        0.055    301.85479    4.1809746    0.0425296  0.051069198    156.03216   -16163.829   -14248.578 
    5550       0.0555    293.58576    4.1756755 -0.015712881 -0.026575811     151.7578   -16158.705   -13777.956 
    5600        0.056    296.53839    4.1992792 -0.0079262123 -0.025872443    153.28405   -16159.509   -13884.935 
    5650       0.0565    297.15373    4.2689338 -0.031680524  0.027467067    153.60212   -16158.832   -14215.735 
    5700        0.057    298.55219    4.3095417  0.029909429  0.011871314    154.32501   -16158.646   -14504.408 
    5750       0.0575    299.75224    4.3487995  0.005063197 0.0051492163    154.94532    -16158.76    -14530.04 
    5800        0.058    304.58071    4.3663119 0.00032071071  0.012000173    157.44122   -16160.049   -14595.443 
    5850       0.0585    303.33461    4.4261975 -0.0038631596  0.014813748     156.7971    -16158.26   -14790.494 
    5900        0.059     302.9083    4.4820237  0.063902326   0.06268187    156.57673   -16157.076   -15362.026 
    5950       0.0595    299.57798    4.5130986  0.023182725  0.037199096    154.85525   -16154.712   -15244.935 
    6000         0.06    300.96139    4.5247301 0.0004282368  -0.05482278    155.57035   -16154.285   -14901.119 
    6050       0.0605    296.63856    4.5424492 -0.025426407 -0.059922267    153.33583   -16150.999   -14857.002 
    6100        0.061    299.11314    4.6254671  0.043305693   0.01745365    154.61497   -16151.322   -15620.755 
    6150       0.0615    300.73654    4.6685794  0.058218016  0.079219193    155.45412   -16151.273   -16020.055 
    6200        0.062    300.37908    4.7015559 -0.037159361 -0.021215411    155.26935   -16150.273   -15477.271 
    6250       0.0625    296.27949    4.6810085 -0.071314899  -0.03248686    153.15022   -16147.058   -15257.356 
    6300        0.063    296.30672    4.7559801  0.008419769  0.026546278     153.1643   -16146.019   -15969.821 
    6350       0.0635    299.04395    4.8258141  0.056206734  0.044603965     154.5792   -16146.215   -16422.083 
    6400        0.064    294.11951    4.8178932 -0.022122687 -0.0089713264     152.0337   -16142.646   -15955.997 
    6450       0.0645    300.87779    4.8643886  -0.01145657 -0.057442345    155.52713   -16145.898   -15984.966 
    6500        0.065    298.12222    4.8725737 -0.0058013687 -0.028751828    154.10275   -16142.854   -16126.735 
    6550       0.0655    297.42498    4.9586372  0.058674559  0.037235027    153.74234   -16141.507   -16848.489 
    6600        0.066    297.35861    4.9891784  0.043715156 0.0085795081    153.70803   -16140.504    -16804.91 
    6650       0.0665     303.4748    5.0338354 -0.043022764  0.013228365    156.86956   -16143.008   -16680.137 
    6700        0.067     295.6801    5.0094317 -0.048186074 -0.020994814    152.84039   -16137.834   -16467.503 
    6750       0.0675     299.2342    5.1029171 -0.005106345  0.038994312    154.67754   -16138.366   -17122.684 
    6800        0.068    300.10908    5.1365634  0.063788565  0.058233471    155.12978    -16137.64   -17528.618 
    6850       0.0685    302.16345    5.1850384  0.012213735  0.033139725    156.19171    -16138.07   -17434.639 
    6900        0.069    298.78908    5.1803877 -0.010939125 -0.066545686    154.44746   -16135.273   -17009.676 
    6950       0.0695    297.16252    5.2250728 -0.001437438 -0.013158655    153.60667    -16133.15   -17368.256 
    7000         0.07    296.52212    5.2759764  0.057267404  0.019061318    153.27564   -16131.923   -17841.017 
    7050       0.0705    297.35615    5.3038303  0.015148902  0.021282927    153.70676   -16131.107   -17800.874 
    7100        0.071    296.36139    5.3055648 -0.026053888 -0.077421376    153.19256   -16129.867   -17340.298 
    7150       0.0715     295.6907     5.350138 -0.077607701 -0.015168712    152.84587   -16128.145   -17524.539 
    7200        0.072    298.45937    5.4401215  0.036605157   0.07695019    154.27703   -16128.118   -18512.256 
    7250       0.0725     298.3214    5.4535972  0.051149174  0.071330193    154.20571   -16127.398   -18586.922 
    7300        0.073    301.97129    5.4701208 -0.022296451 -0.016230968    156.09238   -16128.348   -18105.311 
    7350       0.0735     299.1901    5.5078465 -0.039186099 -0.082805055    154.65475   -16125.823   -17952.851 
    7400        0.074    293.19258     5.539531 0.0048164534 -0.0049990237    151.55456   -16121.044   -18464.495 
    7450       0.0745    299.90223    5.6497064  0.089399462  0.095634494    155.02286   -16123.861   -19449.134 
    7500        0.075    293.88769    5.5754116 -0.025814882 -0.025473881    151.91387   -16119.446   -18413.743 
    7550       0.0755    298.27948    5.6662145 -0.076762909 -0.065143122    154.18404   -16120.943   -18414.362 
    7600        0.076    302.47143    5.6911485  0.031649635  0.021418761    156.35091   -16121.914    -19147.39 
    7650       0.0765    297.23013    5.7675364  0.053740167  0.057182243    153.64162   -16117.813   -19594.863 
    7700        0.077    297.38572     5.767927 -0.011325438  0.036808104    153.72204   -16116.699   -19311.366 
    7750       0.0775    297.25887    5.7795217 -0.054326287 -0.050195643    153.65647   -16115.848   -18916.666 
    7800        0.078    297.07599    5.8265222 -0.036341927 0.0054870773    153.56194   -16114.541   -19318.891 
    7850       0.0785    299.18655    5.8823084  0.045796146  0.036277319    154.65292   -16114.428   -19881.273 
    7900        0.079    299.14875     5.926461  0.023203254  0.025810612    154.63338   -16113.106    -19918.25 
    7950       0.0795    298.91718    5.9466759 -0.0032883309 -0.036481575    154.51367   -16112.018   -19689.687 
    8000         0.08    297.85682    5.9794987 -0.020739435 -0.045327133    153.96556   -16110.171    -19711.44 
    8050       0.0805    300.23375     6.022336  0.060419828  0.041299595    155.19423   -16110.144   -20413.518 
    8100        0.081    294.04455    6.0456128 0.0086677699 0.0087581586    151.99496   -16105.715   -20210.129 
    8150       0.0815    299.93549     6.074662 -0.030217292 -0.00015646595    155.04005    -16107.77   -20147.628 
    8200        0.082    298.65044    6.1195164 -0.022212994 -0.010353235    154.37579   -16105.826   -20289.834 
    8250       0.0825    301.89926    6.1985554 0.0035151006  0.069028448    156.05514   -16106.222   -20903.663 
    8300        0.083    296.39151     6.189592  0.027832432  0.030235584    153.20813   -16101.799   -20825.533 
    8350       0.0835    296.85316    6.2114003 -0.0012539719 -0.018130483    153.44676   -16101.128   -20640.053 
    8400        0.084    296.04757      6.22315 -0.019044455 -0.064602034    153.03034   -16099.699   -20465.012 
    8450       0.0845    295.86721    6.2944131 -0.0036255251 -0.018838636    152.93711   -16097.985   -20906.497 
    8500        0.085    298.11265    6.3420294  0.073834262  0.031597566    154.09781   -16097.781   -21491.537 
    8550       0.0855     299.7983     6.378877  0.011723468   0.02321531    154.96913   -16097.674   -21379.386 
    8600        0.086    293.98001    6.3628928 -0.080619508 -0.033287631    151.96159   -16093.514   -20829.952 
    8650       0.0865    295.99402    6.4319311 -0.034546581 -0.019984392    153.00266   -16093.012   -21258.001 
    8700        0.087    294.15275    6.4842395   0.02777906  0.055017647    152.05089   -16090.956   -21890.121 
    8750       0.0875    303.48913    6.5347092  0.044907967  0.048851038    156.87697   -16094.895   -22094.894 
    8800        0.088    295.24877    6.4846851 -0.051713995 -0.094247757    152.61743   -16089.061   -21129.078 
    8850       0.0885    298.37046    6.5570742  0.016689877    -0.051908    154.23107   -16089.163    -21739.52 
    8900        0.089    296.40235    6.6236793  0.038951055  0.078183269    153.21373   -16086.919   -22469.379 
    8950       0.0895    305.41538    6.6684476  0.046333036  0.075329014    157.87267   -16090.862   -22633.699 
    9000         0.09    297.06291    6.6338169 -0.065148608 -0.063307065    153.55518   -16084.826   -21684.537 
    9050       0.0905    298.31658    6.6801694 -0.019384112 -0.016538627    154.20322   -16083.987   -22147.489 
    9100        0.091    297.42508    6.7777738  0.051982561   0.07209193    153.74239   -16082.184   -23006.161 
    9150       0.0915    297.14475    6.7783353  0.038045909  0.041663543    153.59748   -16080.839   -22860.149 
    9200        0.092    296.84402    6.7632405 -0.045531712 -0.063632213    153.44204   -16079.558   -22180.255 
    9250       0.0925     298.0161    6.8038538 -0.041782763 -0.037750844     154.0479   -16078.747   -22414.401 
    9300        0.093    299.85104    6.8992663  0.049301267  0.049125844     154.9964   -16078.381   -23325.645 
    9350       0.0935    297.14835    6.9038407  0.051502831  0.026522401    153.59935   -16075.209   -23272.886 
    9400        0.094    295.41465     6.927149 -0.034223304   -0.0546499    152.70318   -16073.149   -22794.253 
    9450       0.0945    290.89515    6.9462859 -0.040896245 -0.036885726    150.36699   -16069.429   -22895.013 
    9500        0.095    295.58876    7.0188222  0.027996652  0.022310915    152.79318   -16070.713   -23563.766 
    9550       0.0955    302.61417    7.0550334  0.041773291  0.044467325    156.42469   -16073.159   -23804.247 
    9600        0.096    292.58284    7.0095356 -0.074162586 -0.052984229    151.23938   -16066.224   -22941.296 
    9650       0.0965    298.77226    7.0930747 -0.0040514043 -0.0066451778    154.43876   -16068.172   -23607.927 
    9700        0.097    295.23669    7.1659335  0.042391571  0.048497632    152.61119   -16065.015   -24189.409 
    9750       0.0975     294.0183    7.1514713  0.016813435 -0.0020364948    151.98139    -16062.78   -23887.494 
    9800        0.098    296.87252    7.1842195 -0.053028555 -0.047704826    153.45677   -16063.217    -23611.62 
    9850       0.0985    295.43792    7.2089194 -0.046963144 -0.027465885    152.71521   -16060.963   -23781.635 
    9900        0.099    295.40918    7.2781271  0.041110089  0.070722578    152.70035   -16059.252   -24633.199 
    9950       0.0995    296.99888    7.3245772 -0.0011922142 0.0059418144    153.52208   -16058.951   -24431.089 
   10000          0.1    297.40836    7.3184564 -0.044161382 -0.056471313    153.73375   -16057.632   -24059.412 
   10050       0.1005    297.33201    7.3333647 0.0019790683 0.0026680366    153.69428    -16056.06   -24460.039 
   10100        0.101     296.1482     7.389676  0.042773678   0.04506002    153.08236    -16054.31   -24925.032 
   10150       0.1015    297.15735    7.4335842 -0.012534476 -0.034826308      153.604   -16053.351   -24620.745 
   10200        0.102    294.21339    7.4358618 -0.069006204 -0.045169177    152.08223   -16050.307   -24405.621 
   10250       0.1025    296.85444    7.5274572  0.033206125  0.012226503    153.44742   -16050.337   -25242.966 
   10300        0.103    294.47491    7.5494509  0.016847502  0.036478525    152.21741   -16047.538    -25342.59 
   10350       0.1035    302.50788    7.5646907 0.0010412534  0.012075753    156.36975   -16050.284   -25259.359 
   10400        0.104    296.22759    7.5539091 -0.063886131 -0.052503218    153.12339   -16045.536   -24791.733 
   10450       0.1045    299.16844    7.6329849   0.04166999 0.0048451064    154.64355   -16045.929   -25598.333 
   10500        0.105    299.19438    7.6742788  0.058089054  0.049203519    154.65696   -16044.296   -25938.571 
   10550       0.1055    292.19125    7.6655849 -0.026380654 -0.033852038    151.03697   -16038.883   -25351.174 
   10600        0.106    296.39189    7.7073171  -0.05493603 -0.038479237    153.20832   -16039.927   -25379.673 
   10650       0.1065    299.85187    7.7916078  0.025293546  0.019805035    154.99683   -16040.228   -26122.355 
   10700        0.107    290.97263    7.7578203 0.0096815567  0.015843285    150.40704   -16033.832   -25944.484 
   10750       0.1075    297.34123    7.8402841 -0.018917583 -0.029290597    153.69905   -16035.758   -25973.586 
   10800        0.108    295.38383    7.8387991 -0.031257324 -0.028115122    152.68725   -16033.231   -25931.422 
   10850       0.1085     297.1474     7.868969  0.031150365 -0.014964775    153.59885   -16032.503   -26283.849 
   10900        0.109    297.59251    7.8894931 -0.0033554601  0.025865107    153.82894   -16031.381   -26373.342 
   10950       0.1095    296.31391    7.9410225  0.015640495 -0.0090726158    153.16801   -16029.165   -26491.968 
   11000         0.11    298.81276    7.9621624 -0.0031924367 -0.0078881115     154.4597    -16028.88   -26503.606 
   11050       0.1105    297.86428    8.0240466  -0.00799483 0.0051131721    153.96942   -16026.891   -26737.217 
   11100        0.111    299.08405    8.0553681 0.0068764961  0.035271853    154.59993   -16025.992   -26991.722 
   11150       0.1115     300.3254    8.0849335 0.0089968515 0.00061094212     155.2416    -16025.14   -26981.804 
   11200        0.112    294.47962    8.0704043 -0.049658885 0.0064942074    152.21985     -16020.5   -26757.466 
[...]
   11600        0.116    298.99982    8.3624303 -0.013050856  0.028642986    154.55639   -16010.228   -27926.742 
   11650       0.1165    295.91495    8.3988332 0.0088036275  0.044570697    152.96179   -16006.984   -28174.025 
   11700        0.117    300.82739    8.4295447 0.0076782404  0.028810408    155.50108   -16008.253   -28220.111 
   11750       0.1175    297.56877    8.4212364 -0.062055971 -0.027135543    153.81667   -16004.644   -27773.483 
   11800        0.118    297.42884    8.5037767 0.0095013455 -0.031276374    153.74433    -16002.86   -28273.339 
   11850       0.1185    297.24352    8.5525471  0.076747331  0.052124082    153.64854    -16001.21   -28938.062 
   11900        0.119    299.29738    8.5428427   0.05523082  0.017876953     154.7102   -16000.773   -28719.835 
   11950       0.1195    295.67586    8.5401271 -0.082027416  -0.12013849     152.8382   -15997.599   -27793.204 
   12000         0.12    297.76511    8.5953309 -0.023806314 -0.014589167    153.91815   -15996.763   -28523.118 
   12050       0.1205    293.66954    8.6511884   0.05236314   0.08215347    151.80111   -15992.723   -29285.683 
   12100        0.121    301.05058    8.7064934 0.00049384529  0.046051184    155.61645   -15995.167   -29176.795 
   12150       0.1215       297.67    8.6525235 -0.073572829 -0.015675327    153.86899   -15991.894   -28544.251 
   12200        0.122     298.1545    8.7313633 -0.033348906 -0.021564611    154.11944   -15990.589   -28921.499 
   12250       0.1225    298.93705    8.7703048  0.066954642  0.052758289    154.52395   -15988.969   -29633.393 
   12300        0.123    296.65366    8.7939231  0.018632583 5.7478931e-05    153.34363   -15986.054   -29375.377 
   12350       0.1235    300.46274     8.822105   0.02291069 -0.063527206    155.31259   -15986.757   -29271.628 
   12400        0.124    299.03953    8.8595473  -0.01481803 0.0015510238    154.57692   -15984.213   -29487.601 
   12450       0.1245    296.46636    8.8946184   0.05246473  0.018740843    153.24682    -15981.06    -29886.08 
   12500        0.125    301.01257    8.9328373  0.022042716  0.031937538    155.59681   -15981.741   -29956.059 
   12550       0.1255    295.87923    8.9152675 -0.032853556 -0.017179513    152.94332   -15977.601   -29550.781 
   12600        0.126    298.60203    8.9859486 -0.043549523 -0.0077938165    154.35077   -15977.264   -29782.017 
   12650       0.1265    300.58298    9.0129822  0.023391314  0.063221321    155.37475    -15976.44   -30331.983 
   12700        0.127    294.80398     9.041701 -0.0066021325   0.04236859    152.38752    -15971.69   -30258.225 
   12750       0.1275    297.33742    9.0634747 -0.014445909 -0.038091524    153.69708   -15971.541   -30036.458 
   12800        0.128     296.8521    9.0686667  0.018550197 -0.046543332    153.44621   -15969.582   -30135.578 
   12850       0.1285    295.98931    9.1331966  0.014346652 -0.015768232    153.00023   -15967.168    -30439.25 
   12900        0.129    299.89116    9.1939329  0.062401307  0.016654654    155.01713   -15967.449   -30909.963 
   12950       0.1295     296.2625    9.1782615 0.00061847788 -0.014414144    153.14144   -15964.034    -30548.22 
   13000         0.13    300.17736    9.2218595 -0.048851296 -0.013270791    155.16508   -15964.336   -30532.458 
   13050       0.1305    293.97852    9.2692771 -0.022876099  0.012317651    151.96083   -15959.109   -30862.395 
   13100        0.131    297.16562    9.3142736  0.020509334   0.10691672    153.60827    -15958.98   -31472.332 
   13150       0.1315    294.03354     9.326006 0.0043230997 -0.019115047    151.98927   -15955.886    -31037.38 
   13200        0.132    298.37171    9.3430486 -0.076128867 -0.040969173    154.23171   -15956.396   -30753.168 
   13250       0.1325    293.39244      9.37733  0.023932285 -0.038324249    151.65787   -15951.649   -31209.794 
   13300        0.133    295.18299    9.4336325  0.093537413  0.022205155    152.58343   -15950.879    -31831.25 
   13350       0.1335    298.14552    9.4496052 0.0067755028  -0.02759998     154.1148   -15950.787   -31429.269 
   13400        0.134    292.95028    9.4550604 -0.055542866 -0.046719218    151.42932    -15946.27   -31175.994 
   13450       0.1345    301.04877    9.5133029 -0.0027959172  0.023383655    155.61552   -15948.832   -31779.636 
   13500        0.135    292.21549    9.5460311 -0.0024916555  0.030075383    151.04949    -15942.24   -31912.049 
   13550       0.1355    297.35234    9.5971286 -0.026857128  0.054075504    153.70479   -15943.172   -32081.157 
   13600        0.136    292.27198     9.595971 -0.088480366 -0.021163224     151.0787   -15938.676   -31621.091 
   13650       0.1365       296.52    9.6379551  0.018427702 -0.024677685    153.27454   -15939.225   -32105.684 
   13700        0.137    298.30228    9.6835617  0.060674712  0.030970077    154.19582   -15938.469   -32584.022 
   13750       0.1375    298.38765    9.7102237  0.050941954 -0.039682155    154.23995   -15936.563   -32404.945 
   13800        0.138    293.73175    9.7288529 -0.025483384 -0.080586649    151.83326   -15932.311   -32075.943 
   13850       0.1385    301.35311    9.7896402  0.038870651 0.00097252465    155.77283   -15934.645   -32764.945 
   13900        0.139    294.21397    9.7847457  0.048425783  0.037911726    152.08253   -15928.939   -32903.611 
   13950       0.1395    301.13564    9.8344849 -0.055731727   0.02859309    155.66042    -15930.65   -32691.154 
   14000         0.14    295.52444    9.8515531 -0.067048113 -0.023682898    152.75993    -15925.84   -32536.074 
   14050       0.1405     301.9556    9.9200339  0.027392884  0.062149675    156.08427   -15927.302   -33365.255 
   14100        0.141    296.27524    9.9513292  0.058844956  0.025629303    153.14803   -15922.487   -33452.678 
   14150       0.1415    295.46851    9.9268112 -0.015217082 -0.037542294    152.73102   -15920.081   -32913.506 
   14200        0.142    293.99738     9.978976 -0.025194628 -0.066165455    151.97058   -15917.798    -32958.72 
   14250       0.1425    296.01979    10.043592  0.032578129  0.025052984    153.01598    -15916.94   -33670.745 
   14300        0.143     297.6502    10.039473  0.026609287  0.016766061    153.85876   -15915.774   -33609.493 
   14350       0.1435    292.62526    10.056726 -0.075709329 -0.018470346    151.26131   -15911.147   -33208.488 
   14400        0.144    298.67358    10.146572 -0.0052909762 -0.0087672469    154.38775   -15912.564   -33775.046 
   14450       0.1445    299.48372    10.173572  0.062001245  0.030379027    154.80652   -15911.072   -34219.842 
   14500        0.145    300.56036    10.162483  0.018042977 0.0056732746    155.36305   -15909.643   -33953.999 
   14550       0.1455    291.91661    10.168614 -0.045488075 -0.049819891      150.895   -15903.345   -33577.688 
   14600        0.146    298.65956    10.266943  -0.01202167 -0.015882642    154.38051   -15905.096    -34130.13 
   14650       0.1465    297.22036    10.288355  0.056847536  0.056811689    153.63657   -15902.177   -34673.382 
   14700        0.147    292.65511    10.282638 -0.0058935015 -0.0092077325    151.27674   -15897.719   -34225.121 
   14750       0.1475    297.76309    10.317864 -0.068074959 -0.054504038    153.91711   -15898.855   -33984.283 
   14800        0.148    299.59931    10.397823 0.0044105603  0.032424037    154.86628   -15897.704    -34782.19 
   14850       0.1485    290.63576    10.376192  0.049300221  0.029125459    150.23291   -15890.848   -34848.727 
   14900        0.149    298.45533    10.390627 -0.029045644  0.014466573    154.27494   -15892.953   -34586.827 
   14950       0.1495     297.9391    10.438935 -0.018044286  -0.08460598    154.00809   -15890.974   -34454.283 
   15000         0.15    298.83859     10.47179  0.023370848  0.038934133    154.47305   -15889.175   -35113.651 
   15050       0.1505    294.31838    10.509447  0.042162973  0.014899625     152.1365   -15884.863     -35221.7 
   15100        0.151    301.90148    10.567398 -0.019978308 -0.012416371    156.05629   -15887.145   -35116.677 
   15150       0.1515    292.17784     10.54163 -0.043639596 -0.022466343    151.03003   -15879.851   -34918.413 
   15200        0.152    297.19217    10.604793  0.057028951 -0.0073552678    153.62199   -15880.353   -35514.889 
   15250       0.1525     297.5584    10.656265  0.025108423  0.027394503    153.81131   -15878.662   -35695.893 
   15300        0.153    299.34774    10.658173  -0.01111714 -0.021891706    154.73623   -15877.817   -35417.214 
   15350       0.1535    296.59924    10.689497 -0.052713313 -0.010178204     153.3155   -15874.576   -35422.019 
   15400        0.154    293.81458    10.753071 -0.011938449  0.056199001    151.87608   -15870.775   -35991.105 
   15450       0.1545    297.08661    10.768779  0.025555681  0.037782232    153.56743   -15870.358   -36107.055 
   15500        0.155    292.49796    10.719416 -0.047370079 -0.060699778    151.19551    -15866.09   -35371.153 
   15550       0.1555    293.29422    10.779412 -0.041459851 -0.048724387     151.6071   -15864.583   -35630.761 
   15600        0.156    295.52655    10.839588  0.060311455  0.033485948    152.76102   -15863.436   -36444.619 
   15650       0.1565    297.04947     10.86483  0.036860913  0.016424335    153.54823   -15862.213   -36393.719 
   15700        0.157    297.17354    10.855289  -0.03445309 -0.032021397    153.61237   -15860.498   -35962.715 
   15750       0.1575    295.45723    10.866927  -0.02478801  -0.02375991    152.72519   -15857.435   -36061.264 
   15800        0.158    297.11774    10.931603  0.015783975 0.0070786802    153.58352   -15856.033   -36514.885 
   15850       0.1585    297.43337    10.970174  0.053843294  0.026687536    153.74668   -15854.049   -36835.682 
   15900        0.159    293.47596    10.968907 -0.015836206 -0.015479477    151.70104   -15850.079   -36458.638 
   15950       0.1595    298.18445    10.990744 -0.026652108 -0.023631592    154.13492    -15850.55   -36468.202 
   16000         0.16    294.54351    11.027575 0.0050925896  0.017900315    152.25287   -15846.378   -36835.225 
   16050       0.1605    295.82001    11.065601 0.0068533522  0.042191246    152.91271   -15844.761   -37048.817 
   16100        0.161    295.52096    11.089247 -0.043313572 -0.00043442661    152.75813    -15842.79    -36818.33 
   16150       0.1615    299.31365    11.120898 0.0075115098 0.0035050892    154.71862   -15842.802   -37106.382 
   16200        0.162    294.04681     11.14681  0.046008219 -0.041963809    151.99613   -15837.827   -37169.515 
   16250       0.1625    293.73953    11.149573 0.0039083351  -0.01245803    151.83729   -15835.471   -37136.746 
   16300        0.163    297.46232    11.236448  0.025235198   0.01461663    153.76164   -15835.632   -37587.665 
   16350       0.1635    296.04349    11.262537 -0.011582319 -0.018569573    153.02823   -15832.653   -37441.283 
   16400        0.164    298.27966    11.273425 -0.015959262  0.028041082    154.18413   -15831.546   -37618.355 
   16450       0.1645    297.01145    11.343945  0.017467243 0.0076429615    153.52858   -15828.757   -37896.851 
   16500        0.165    291.94882    11.321054  0.006785625 -0.023767147    150.91165   -15824.013   -37680.241 
   16550       0.1655    298.96575    11.378665  0.021993278 -0.0035296006    154.53878   -15825.769   -37990.428 
   16600        0.166     297.6432    11.378091 -0.0025187154 -0.0050186553    153.85514   -15822.745   -37901.844 
   16650       0.1665    292.13566    11.366511 0.0093360689 -0.0074242123    151.00823   -15817.381   -37894.744 
   16700        0.167     292.1999     11.40828 -0.024900108 0.0098833882    151.04143   -15815.472   -37977.543 
   16750       0.1675    299.71777    11.459656 -0.012928821  0.047550096    154.92751   -15817.569   -38314.256 
   16800        0.168    297.22294    11.492371 -0.016841911 -0.00013712475     153.6379   -15813.905   -38251.308 
   16850       0.1685    295.68827    11.509059   0.02973862  0.016196105    152.84461   -15810.936   -38516.645 
   16900        0.169    295.40479    11.522623  0.027120514  -0.02119417    152.69808   -15808.508   -38428.499 
   16950       0.1695    298.01069     11.57041  0.018111789 -0.032968667     154.0451   -15807.693   -38518.509 
   17000         0.17    291.55534    11.550452 0.0053270197 0.0064080871    150.70826   -15802.082   -38540.623 
   17050       0.1705    299.28871    11.609966   0.04928276 0.0052733417    154.70572   -15804.182   -38881.739 
   17100        0.171    298.17662    11.631398 -0.027872405 -0.016344176    154.13087    -15801.49   -38623.939 
   17150       0.1715    297.91277    11.669049 -0.0064602647 -0.020637518    153.99448   -15799.129   -38806.504 
   17200        0.172    294.97829     11.71449  0.031694538  0.057080342    152.47762   -15795.107   -39344.215 
   17250       0.1725    294.37183    11.696701 -0.0080613401  0.043154452    152.16413   -15792.585    -39105.98 
   17300        0.173    292.10338    11.685313 -0.079073434 -0.030217842    150.99154   -15789.144    -38586.74 
   17350       0.1735    293.48681     11.72652  -0.02473893 -0.0095172187    151.70665   -15787.596   -38974.214 
   17400        0.174    297.29116    11.795589   0.06318444  0.096241967    153.67316   -15787.381   -39850.052 
   17450       0.1745    292.90398    11.745141 0.0043022742  -0.02292539    151.40538   -15782.771   -39088.394 
   17500        0.175    295.34341    11.787049 -0.045229713  -0.10025317    152.66635   -15781.879   -38805.222 
   17550       0.1755    296.43949    11.877663  0.055712695 -0.013035424    153.23293   -15780.352   -39734.469 
   17600        0.176    295.15876    11.890763  0.071409914  0.087739676    152.57091   -15777.196   -40166.377 
   17650       0.1765     293.6315    11.863685 -0.002764513 -0.041896718    151.78145    -15774.07   -39396.745 
   17700        0.177    293.85505    11.905689 -0.061263621 -0.062626197      151.897   -15771.976   -39272.662 
   17750       0.1775    293.79444    11.937189 -0.0032282781  0.044662925    151.86567   -15769.447   -39928.746 
   17800        0.178    294.65103     11.93405  0.050288863   0.10890458    152.30845   -15767.706   -40310.811 
   17850       0.1785     296.2932      11.9889 -0.065408543 -0.031571776    153.15731   -15766.599   -39639.733 
   17900        0.179    287.52843    11.946342 -0.083252785 -0.046656221     148.6267   -15759.628    -39388.11 
   17950       0.1795    292.82312    11.995134  0.036204061  0.071524591    151.36359   -15759.825   -40342.876 
   18000         0.18    291.54175    12.014673  0.011340837   0.05540566    150.70123   -15756.651   -40271.398 
   18050       0.1805    296.02423    12.023301 0.0055850899 -0.068738354    153.01828    -15756.78   -39867.159 
   18100        0.181    293.05417    12.022576   0.01950071 -0.048890931    151.48302   -15753.119   -39977.285 
   18150       0.1815    295.86768    12.074643  0.066914185 0.0022433138    152.93735   -15752.069   -40479.335 
   18200        0.182    292.40272    12.053886  0.036513079 -0.057906013    151.14628   -15747.676   -40108.311 
   18250       0.1825    291.38215    12.046727 -0.036729645 -0.0008018003    150.61873   -15744.595   -40030.651 
   18300        0.183     290.2671     12.08417  0.017659396  0.043875908    150.04235   -15741.629   -40485.685 
   18350       0.1835     295.9257     12.11741  0.025808077  0.025728463    152.96734   -15742.455   -40563.154 
   18400        0.184    292.43748     12.14367 -0.086930415 -0.021332039    151.16424   -15738.127   -40118.025 
   18450       0.1845     288.1643    12.136311 -0.028160019  0.032034505    148.95539   -15733.409   -40467.286 
   18500        0.185    292.92298    12.141186  0.059405911   0.07007324    151.41521   -15733.439   -40902.217 
   18550       0.1855    288.83927    12.132026 -0.037917302 -0.030320203    149.30429   -15729.048   -40212.627 
   18600        0.186    293.15797    12.202133 -0.042738158 -0.049231623    151.53667   -15729.222   -40367.209 
   18650       0.1865     289.8298    12.205824 -0.0012991748  0.055748296     149.8163   -15724.811   -40867.578 
   18700        0.187    291.95968    12.181031  0.040444146   0.03774532    150.91726   -15723.192   -40864.068 
   18750       0.1875    294.70179     12.11322  0.026039668 -0.020318595    152.33469   -15721.819    -40396.47 
   18800        0.188    287.37417    11.874942 -0.062139869 0.00099919686    148.54696   -15714.741   -39379.339 
   18850       0.1885    298.43242    11.697771  0.015158156   0.02943863     154.2631   -15717.315   -39141.227 
   18900        0.189     304.3849    11.478297  0.036235678  0.066038256       157.34   -15717.135   -38601.905 
   18950       0.1895    305.41002    11.154659 -0.043232853  0.031352445     157.8699   -15713.882   -37142.597 
   19000         0.19    311.13412    10.766553 -0.017310396 -0.023612828    160.82875   -15712.995   -35752.101 
   19050       0.1905     328.2774    10.313712  0.059939648  0.014879827    169.69031   -15717.679   -34628.439 
   19100        0.191    346.54293    9.6418879   0.12206682 -0.00060206933    179.13196   -15722.326   -32544.509 
   19150       0.1915    355.79483    8.8906488   0.11195662 -0.089242877    183.91437   -15723.007   -29711.209 
   19200        0.192    368.38738    8.1977427  0.018204288 -0.065093003     190.4236   -15725.954   -27169.513 
   19250       0.1925    377.79997    7.6760064  -0.11135701  0.045720948    195.28908   -15728.048   -25367.901 
   19300        0.193    380.00844    7.0739532 -0.019477916   0.12251781    196.43066   -15726.612    -23923.31 
   19350       0.1935    387.68268    6.5802112 -0.050355241   0.12796761    200.39756   -15728.909   -22192.745 
   19400        0.194    389.06127    6.1335842 -0.032763305 -0.004509213    201.11017   -15728.903   -20321.039 
   19450       0.1945    393.84637    5.8334102 -0.099146641 -0.058246542    203.58365   -15731.311   -18920.057 
   19500        0.195    397.80729    5.6711836 -0.028950337   0.08060199    205.63109   -15733.439   -19076.117 
   19550       0.1955    396.33835     5.541554 -0.076088394    0.1795157    204.87178    -15732.98   -18816.604 
   19600        0.196    404.67416    5.3842172 -0.074334792  0.098956519    209.18065   -15738.104   -18029.463 
   19650       0.1965    414.73635    5.3981331 -0.045799054 -0.082025511    214.38191   -15743.687   -17567.695 
   19700        0.197    414.65364     5.373369   0.12264849  -0.09370539    214.33916   -15743.315   -18007.707 
   19750       0.1975    411.07258     5.184775   0.11036827 0.0089106405    212.48807    -15740.98    -17680.18 
   19800        0.198    415.86676    5.0857787  0.019639173  0.039248757    214.96624   -15744.187   -17148.889 
   19850       0.1985    416.29607    4.7887445  -0.07405719   0.17936384    215.18815   -15744.223   -16313.504 
   19900        0.199    418.67006    4.7416962  -0.15217041   0.03067135     216.4153   -15746.054   -15400.657 
   19950       0.1995    413.63792    4.6808214  -0.13575007 -0.027903685    213.81412    -15743.73   -15057.226 
   20000          0.2    425.48961    4.6457502   0.13585036  0.071570317     219.9404   -15749.841   -16177.236 
Loop time of 755.747 on 4 procs for 20000 steps with 4000 atoms

Pair  time (%) = 480.738 (63.611)
Neigh time (%) = 0.204472 (0.0270557)
Comm  time (%) = 182.431 (24.1392)
Outpt time (%) = 1.40326 (0.185679)
Other time (%) = 90.9697 (12.0371)

Nlocal:    1000 ave 1006 max 997 min
Histogram: 2 0 0 1 0 0 0 0 0 1
Nghost:    3862.25 ave 3864 max 3861 min
Histogram: 1 0 0 2 0 0 0 0 0 1
Neighs:    74873 ave 75316 max 74021 min
Histogram: 1 0 0 0 0 0 0 1 1 1
FullNghs:  0 ave 0 max 0 min
Histogram: 4 0 0 0 0 0 0 0 0 0

Total # of neighbors = 299492
Ave neighs/atom = 74.873
Neighbor list builds = 30
Dangerous builds = 0

######################################
# SIMULATION DONE
print "All done"
All done
