LAMMPS (28 Jun 2014)
# Input file for uniaxial tensile loading of single crystal aluminum
# Mark Tschopp, November 2010

# ------------------------ INITIALIZATION ----------------------------
units 		metal
dimension	3
boundary	p	p	p
atom_style	atomic
variable latparam equal 4.05

# ----------------------- ATOM DEFINITION ----------------------------
lattice		fcc ${latparam}
lattice		fcc 4.05
Lattice spacing in x,y,z = 4.05 4.05 4.05
region		whole block 0 10 0 10 0 10
create_box	1 whole
Created orthogonal box = (0 0 0) to (40.5 40.5 40.5)
  1 by 2 by 2 MPI processor grid
lattice 	fcc ${latparam} orient x 1 0 0 orient y 0 1 0 orient z 0 0 1
lattice 	fcc 4.05 orient x 1 0 0 orient y 0 1 0 orient z 0 0 1
Lattice spacing in x,y,z = 4.05 4.05 4.05
create_atoms	1 region whole
Created 4000 atoms

# ------------------------ FORCE FIELDS ------------------------------
pair_style	eam/alloy
pair_coeff	* * Al99.posPhiR.eam.alloy Al

# ------------------------- SETTINGS ---------------------------------
compute csym all centro/atom fcc
compute peratom all pe/atom

######################################
# EQUILIBRATION
reset_timestep	0
timestep 0.001
velocity all create 300 12345 mom yes rot no
fix 1 all npt temp 300 300 1 iso 0 0 1 drag 1

# Set thermo output
thermo 50
thermo_style custom step lx ly lz press pxx pyy pzz pe temp

# Run for at least 10 picosecond (assuming 1 fs timestep)
run 20000
Memory usage per processor = 3.04301 Mbytes
Step Lx Ly Lz Press Pxx Pyy Pzz PotEng Temp 
       0         40.5         40.5         40.5    2818.7379    2769.6048    2857.2688    2829.3402   -13430.096          300 
      50     40.56621     40.56621     40.56621    918.73329    848.42045    957.71281    950.06662   -13328.919    103.20436 
     100     40.64644     40.64644     40.64644   -4856.4443   -4851.2241   -4878.2351   -4839.8737   -13363.504    171.56066 
     150     40.57204     40.57204     40.57204    525.62585    490.50821    602.98681    483.38253   -13338.965    123.97994 
     200    40.514456    40.514456    40.514456    3703.0519    3798.7983     3642.114    3668.2435   -13345.313    137.86983 
     250    40.570814    40.570814    40.570814    183.89962    108.29813    234.12317    209.27755   -13349.643     146.7072 
     300     40.61798     40.61798     40.61798   -2549.5565   -2496.4451   -2565.7494    -2586.475   -13350.239    149.18637 
     350    40.576931    40.576931    40.576931   -424.27271    -498.0427   -362.54023   -412.23521   -13357.472    163.72726 
     400    40.536868    40.536868    40.536868    2272.9803    2326.8181    2345.0116    2147.1113   -13349.933    150.28975 
     450    40.571222    40.571222    40.571222    10.227826   -31.723222   -23.400991    85.807692   -13353.203    157.31131 
     500    40.601771    40.601771    40.601771   -1637.6586   -1681.4757   -1505.8709   -1725.6293   -13349.489     151.2033 
     550    40.576297    40.576297    40.576297   -169.16818   -156.96528   -174.39622   -176.14305   -13350.857    154.69681 
     600    40.550082    40.550082    40.550082    1405.6797    1433.8648    1451.6436    1331.5307   -13352.025    158.08875 
     650    40.571472    40.571472    40.571472     217.3707    188.56613    251.58242    211.96354   -13348.224    151.68901 
     700    40.595611    40.595611    40.595611   -1234.1258   -1358.1516   -1144.9534   -1199.2726   -13350.327    156.87457 
     750    40.578353    40.578353    40.578353    -254.6064   -290.61458   -265.61572   -207.58889   -13350.604     158.4118 
     800    40.556441    40.556441    40.556441    1223.0346     1092.857    1334.9522    1241.2947   -13347.319    153.22994 
     850    40.572926    40.572926    40.572926    37.694652    28.740308      98.2925   -13.948851    -13352.29    163.85373 
     900    40.592113    40.592113    40.592113   -915.84114   -945.77421   -850.05041    -951.6988   -13350.556    161.63945 
     950     40.58106     40.58106     40.58106   -241.21831   -257.91014   -191.33383   -274.41095   -13345.059     152.0599 
    1000    40.562782    40.562782    40.562782    874.71922    863.19038    847.11601    913.85125   -13351.253     165.1921 
    1050    40.572616    40.572616    40.572616    301.66854    238.19607    420.10121    246.70833   -13343.016    150.32461 
    1100    40.589955    40.589955    40.589955   -774.40996   -864.82558   -688.97424   -769.43006   -13350.603    166.13683 
    1150    40.581351    40.581351    40.581351    -143.4779   -204.30639   -28.172904   -197.95441   -13343.846    154.16829 
    1200    40.567579    40.567579    40.567579    601.20903    549.03332    628.74656    625.84721   -13350.007    167.23131 
    1250    40.574714    40.574714    40.574714     167.8122    91.832503    252.65944    158.94466    -13346.13    160.83186 
    1300    40.587374    40.587374    40.587374   -566.84102   -588.30128   -457.47101   -654.75077   -13347.659    164.91881 
    1350    40.581322    40.581322    40.581322   -191.49652    -341.4219   -125.52623   -107.54143   -13346.928    164.62644 
    1400    40.571275    40.571275    40.571275    581.34022    513.96609    655.67351    574.38105   -13344.427    160.93344 
    1450     40.57832     40.57832     40.57832   -12.377617   -57.245092   -13.162356    33.274597   -13346.869    166.77324 
    1500    40.585264    40.585264    40.585264   -275.33442   -341.42192   -182.13914    -302.4422   -13343.804    161.99974 
    1550    40.582158    40.582158    40.582158   -218.98475   -331.43967   -206.32748   -119.18711    -13347.39    170.05526 
    1600    40.574232    40.574232    40.574232     383.2152    363.78232    462.48466    323.37863   -13342.823    162.36809 
    1650    40.578628    40.578628    40.578628    127.32399    70.446221    167.63629    143.88945   -13345.436    168.54472 
    1700    40.586179    40.586179    40.586179    -363.6702   -417.68427   -370.48967   -302.83666   -13342.379    163.79463 
    1750    40.582143    40.582143    40.582143    -24.68177   -42.026977   -53.264734    21.246401   -13345.531    171.00175 
    1800    40.575939    40.575939    40.575939    303.66847     208.4028    334.01134    368.59129   -13341.425    164.22931 
    1850    40.579136    40.579136    40.579136    239.89279    155.46739    289.75454    274.45645   -13342.168    166.79224 
    1900    40.587922    40.587922    40.587922   -414.96851   -520.48696   -380.92818   -343.49037   -13346.068    175.48921 
    1950    40.584372    40.584372    40.584372   -119.19988   -81.002706   -75.199569   -201.39737   -13340.074    165.02586 
    2000    40.576793    40.576793    40.576793    266.75607    204.89619    291.97039    303.40164   -13346.493     178.5949 
    2050    40.579438    40.579438    40.579438    297.98706    444.40454    291.92316    157.63347   -13339.017    165.27454 
    2100    40.589097    40.589097    40.589097   -356.06835   -578.94799   -286.31353   -202.94353   -13342.965     174.0686 
    2150    40.586241    40.586241    40.586241   -118.30531   -187.34139   -84.028327   -83.546217   -13338.512    166.59399 
    2200    40.578516    40.578516    40.578516    267.60752      331.327    142.49864    328.99692    -13342.51    175.46509 
    2250    40.580178    40.580178    40.580178    146.21888    245.06213    167.47098    26.123534   -13342.179    175.98818 
    2300    40.587829    40.587829    40.587829   -223.58716   -257.94372   -223.46337    -189.3544   -13341.072    174.98275 
    2350    40.587805    40.587805    40.587805   -265.53967   -229.96685   -225.86389   -340.78827   -13341.136    176.26272 
    2400    40.580377    40.580377    40.580377    317.15767    329.93465    241.36018    380.17818   -13338.857    173.00868 
    2450    40.581401    40.581401    40.581401    108.54735   -55.177621    223.88243    156.93725   -13339.955    176.28676 
    2500    40.587289    40.587289    40.587289   -81.738078   -218.65434   -48.925876    22.365986   -13338.584    174.76546 
    2550    40.589138    40.589138    40.589138   -273.70753   -323.55785   -346.48098   -151.08376   -13340.803     180.2203 
    2600    40.582533    40.582533    40.582533    307.70065    225.75718    384.99784    312.34692   -13335.969    172.03339 
    2650    40.584221    40.584221    40.584221    20.232234    150.13707   -42.337483   -47.102888   -13340.961    182.82238 
    2700    40.588907    40.588907    40.588907   -179.40369   -299.38762   -118.29579   -120.52764   -13336.933    176.18802 
    2750    40.587765    40.587765    40.587765   -33.936831   -57.535568   -82.314658    38.039731   -13338.687    180.72465 
    2800    40.583985    40.583985    40.583985    104.51597    -19.50405    184.33766     148.7143   -13336.622    177.89974 
    2850    40.584597    40.584597    40.584597    130.71592    86.055507    132.68926    173.40299   -13339.571    184.74701 
    2900    40.589948    40.589948    40.589948   -65.458166   -146.80413   -35.958344   -13.612024   -13335.842    178.68219 
    2950    40.590751    40.590751    40.590751   -196.52861    -171.4091     -325.365   -92.811715   -13335.817    179.79915 
    3000    40.585649    40.585649    40.585649     108.8809    23.176807     207.1516    96.314297   -13340.115    189.26247 
    3050    40.585797    40.585797    40.585797    62.504077    43.660884    20.218444     123.6329   -13335.268    181.02891 
    3100    40.590029    40.590029    40.590029   -101.07714   -215.33761    -50.37659   -37.517203    -13337.46    186.42518 
    3150    40.591183    40.591183    40.591183    -138.8478   -194.44315    -94.64633   -127.45391    -13334.23    181.31535 
    3200    40.588103    40.588103    40.588103    61.889618   -19.459936    86.023456    119.10534   -13336.875    187.60505 
    3250    40.588093    40.588093    40.588093    214.40263    166.63017     148.1753     328.4024   -13333.866    182.92876 
    3300    40.592951    40.592951    40.592951    -221.2188   -383.51886   -93.728527   -186.40902   -13335.267    186.78908 
    3350    40.591921    40.591921    40.591921   -12.755036   -73.784502   -27.505334    63.024728   -13333.682    184.88097 
    3400     40.59011     40.59011     40.59011   -11.389617   -176.28994    42.506801    99.614283   -13336.535    191.54391 
    3450    40.590721    40.590721    40.590721    19.142884   -86.141043    79.735227    63.834467   -13334.052    187.89182 
    3500    40.593076    40.593076    40.593076   -73.541998   -198.81636   -66.010729    44.201094   -13334.612    190.12637 
    3550    40.592334    40.592334    40.592334   -60.662954   -73.462035    3.9384223   -112.46525    -13332.58     187.3545 
    3600    40.590393    40.590393    40.590393    124.49649    117.52903    62.629606    193.33082   -13332.353    188.05695 
    3650    40.592201    40.592201    40.592201    -8.206935   -26.537758    -45.34324    47.260193   -13332.078    188.66701 
    3700    40.593872    40.593872    40.593872   -25.831042   -80.642336   -17.152097    20.301308   -13332.578    190.79645 
    3750    40.593717    40.593717    40.593717    -4.466681    39.850134   -48.792842   -4.4573349   -13332.385    191.57247 
    3800    40.592763    40.592763    40.592763    33.422581   -86.663803    166.86907    20.062473   -13332.338    192.63483 
    3850    40.593411    40.593411    40.593411    117.39499     67.65463    92.964268    191.56608   -13329.234    187.76362 
    3900    40.595496    40.595496    40.595496   -73.363982    27.741591   -179.02464   -68.808898   -13330.467    191.30735 
    3950    40.594342    40.594342    40.594342     34.78031   -107.08065    124.33228    87.089304   -13330.478    192.47196 
    4000    40.593433    40.593433    40.593433    57.699441    16.504152    27.548499    129.04567   -13330.728    194.10103 
    4050    40.594531    40.594531    40.594531    54.756419    28.425604     42.60224    93.241414   -13329.397    192.67658 
    4100    40.596759    40.596759    40.596759   -76.627866   -88.780072   -71.504356   -69.599171   -13333.192    201.16654 
    4150    40.596493    40.596493    40.596493   -50.451768   -153.18765     -25.6265    27.458842   -13328.436    193.10539 
    4200     40.59471     40.59471     40.59471    130.80474     106.3595    36.341857    249.71285    -13327.12    191.70257 
    4250      40.5957      40.5957      40.5957   -17.139797   -107.62946    56.859664  -0.64959355   -13330.148    198.70093 
    4300    40.597611    40.597611    40.597611   -91.316556   -127.53234   -92.678146   -53.739183   -13329.697    198.97017 
    4350    40.596798    40.596798    40.596798    21.245816   -26.182575    115.78694   -25.866921   -13327.404    195.67971 
    4400     40.59616     40.59616     40.59616    8.4143339   -58.919466    27.164699    56.997768   -13330.127    202.08665 
    4450    40.597397    40.597397    40.597397    1.9596578    29.245459   -20.733098   -2.6333873    -13327.94     198.9965 
    4500     40.59892     40.59892     40.59892   -63.920747    40.514665   -93.660278   -138.61663    -13327.42    199.12235 
    4550    40.597747    40.597747    40.597747    -65.06393   -159.38966   -81.433069    45.630936   -13328.201    201.77874 
    4600    40.595587    40.595587    40.595587    255.29095    337.96214    272.17568    155.73503   -13325.391    197.47693 
    4650    40.599484    40.599484    40.599484    -35.79453   -48.845839    17.859058   -76.396808   -13326.396     200.5565 
    4700    40.601521    40.601521    40.601521   -156.10449   -150.27195   -182.25282    -135.7887   -13326.376    201.65561 
    4750    40.598408    40.598408    40.598408     56.63583    91.136706    195.86882   -117.09804   -13326.893    203.78429 
    4800    40.597586    40.597586    40.597586    104.02813     186.6339    -76.43575    201.88624    -13326.44    204.04115 
    4850    40.600663    40.600663    40.600663    10.892529   -100.83386    65.549495    67.961955    -13324.97    202.33152 
    4900    40.602614    40.602614    40.602614   -183.20067   -19.017168   -204.24617   -326.33866   -13325.424    204.34148 
    4950    40.598469    40.598469    40.598469    140.75129    63.729566    123.79688    234.72742   -13323.666    202.07294 
    5000    40.598277    40.598277    40.598277     189.7519     258.9195    249.40567     60.93054   -13324.408      204.628 
    5050    40.603636    40.603636    40.603636   -105.66067   -153.03399   -161.06311   -2.8849022   -13324.061    205.07995 
    5100    40.604073    40.604073    40.604073   -111.73528   -10.259801   -165.08788   -159.85814   -13322.664     203.5107 
    5150    40.599729    40.599729    40.599729     84.22675    94.070039    79.474948    79.135265   -13325.032    209.20936 
    5200    40.599311    40.599311    40.599311    216.13238    286.41896    241.33972    120.63846   -13324.781    209.84827 
    5250    40.604687    40.604687    40.604687   -88.883399    -103.6637   -114.25492   -48.731582   -13320.276    202.26474 
    5300    40.605134    40.605134    40.605134   -134.69744   -133.78183   -213.88393   -56.426567   -13322.968    208.58428 
    5350    40.600545    40.600545    40.600545    219.35023    257.01703    332.88332    68.150345   -13322.218    208.25691 
    5400    40.601439    40.601439    40.601439    139.17113    164.99223    141.89189    110.62926     -13321.8    208.56148 
    5450    40.606362    40.606362    40.606362    -130.1024   -266.88918   -30.443268   -92.974756   -13321.095    208.30908 
    5500    40.606614    40.606614    40.606614   -238.14078   -171.06228   -325.33275    -218.0273   -13323.616    214.29566 
    5550    40.600954    40.600954    40.600954    185.99244    237.41088    226.69444    93.872011   -13322.568    213.38485 
    5600    40.601641    40.601641    40.601641    166.43396    101.32027    143.08722    254.89438   -13320.949    211.36592 
    5650    40.607328    40.607328    40.607328   -115.45371   -160.57041   -104.83706   -80.953656    -13318.95    208.60961 
    5700     40.60747     40.60747     40.60747   -136.30178   -161.54199   -103.27947   -144.08388   -13321.162    213.99281 
    5750    40.602658    40.602658    40.602658    246.70782    134.79988    251.61315    353.71044   -13319.356    211.60807 
    5800     40.60417     40.60417     40.60417    79.280632    58.936996    209.73944   -30.834537   -13319.808    213.58813 
    5850    40.608526    40.608526    40.608526   -215.26414   -186.53372   -213.23573   -246.02295   -13321.338    217.65085 
    5900     40.60784     40.60784     40.60784   -117.24113   -229.80174   -28.938767   -92.982874   -13319.163    214.53027 
    5950    40.603776    40.603776    40.603776    251.51059    243.08136    366.38546    145.06494   -13317.775    212.95469 
    6000    40.605409    40.605409    40.605409     90.30705    128.14193   -24.137348    166.91656   -13317.498    213.51203 
    6050    40.609155    40.609155    40.609155   -160.94609   -213.81134   -69.660952   -199.36598   -13320.462     220.3468 
    6100    40.607721    40.607721    40.607721   -43.511826    -4.715744   -141.46616    15.646423   -13318.086    216.84461 
    6150    40.605253    40.605253    40.605253    97.606578   -29.062088    198.27689    123.60493   -13319.999    221.63032 
    6200    40.607155    40.607155    40.607155    22.907699    17.383211    61.233145   -9.8932592   -13316.627    216.19722 
    6250    40.610124    40.610124    40.610124   -119.27893   -45.070603   -232.30843   -80.457757   -13317.249    218.48138 
    6300    40.608643    40.608643    40.608643    21.413729    -94.22059    176.84546   -18.383687   -13317.721    220.48804 
    6350    40.607503    40.607503    40.607503    46.489135    168.61679   -68.719292    39.569903   -13318.202    222.50443 
    6400    40.609498    40.609498    40.609498   -29.661432   -221.98933    99.395275    33.609764   -13317.188    221.62216 
    6450    40.610853    40.610853    40.610853    -117.0123   -22.316681   -212.46339   -116.25684   -13316.904    222.15082 
    6500    40.609329    40.609329    40.609329    41.831207   -145.39617   -37.959045    308.84884    -13316.62    222.67183 
    6550    40.608951    40.608951    40.608951    42.008376    30.420523    126.03868    -30.43407    -13314.37    219.39166 
    6600    40.610409    40.610409    40.610409    65.250268   -4.8949494    37.090876    163.55488   -13315.092    221.86641 
    6650    40.611955    40.611955    40.611955   -3.4952494   -75.519886    256.30332   -191.26919   -13313.635    220.12245 
    6700    40.611473    40.611473    40.611473   -27.550257   -43.163676   -36.065523    -3.421571   -13315.855    225.48629 
    6750     40.61027     40.61027     40.61027    99.670435    -3.446169    78.699059    223.75841   -13315.276    225.43311 
    6800    40.611381    40.611381    40.611381   -93.837597   -117.43121   -38.211371   -125.87021   -13314.999    225.95205 
    6850    40.612227    40.612227    40.612227   -119.78063   -139.70161   -127.94039   -91.699904    -13317.14    231.14802 
    6900    40.611905    40.611905    40.611905     47.22323   -31.772689    156.63497    16.807415   -13313.526    225.21763 
    6950    40.612421    40.612421    40.612421   -47.757552   -85.532586   -102.98527    45.245198   -13316.239     231.5303 
    7000    40.612837    40.612837    40.612837   -5.5360042    14.358741    67.510212   -98.476965   -13311.996    224.37579 
    7050    40.613796    40.613796    40.613796   -101.87203   -67.832578   -107.10835   -130.67516   -13314.362    229.99206 
    7100    40.613161    40.613161    40.613161     -14.6567   -25.694996    20.685361   -38.960465   -13313.254    228.89929 
    7150    40.612983    40.612983    40.612983    13.710982    41.590644   -54.592052    54.134355   -13313.346    230.12762 
    7200    40.614307    40.614307    40.614307   -32.039042   -65.209777    61.887564   -92.794913   -13313.198     230.8856 
    7250    40.615362    40.615362    40.615362    51.442176    21.146447    64.415801    68.764281   -13311.365    228.38607 
    7300    40.615383    40.615383    40.615383   -111.95965    -72.92339    -211.6767   -51.278873   -13311.882    230.42019 
    7350    40.613397    40.613397    40.613397    163.83684    144.80517    181.44024     165.2651   -13309.997    227.80952 
    7400    40.615546    40.615546    40.615546   -31.141251   -9.4457544   -29.290055   -54.687945   -13312.093     232.8921 
    7450    40.617513    40.617513    40.617513   -110.29275   -196.76838   -63.271126    -70.83876   -13312.823    235.32745 
    7500     40.61601     40.61601     40.61601   -58.420579   -142.85155   -31.433095  -0.97709458   -13311.413    233.63912 
    7550    40.613558    40.613558    40.613558    256.35702      190.199    278.10005      300.772    -13309.19    230.35967 
    7600    40.617181    40.617181    40.617181   -24.933892   -23.712018     10.37459   -61.464247   -13309.869    232.69859 
    7650     40.61941     40.61941     40.61941    6.1491089   -111.13007    136.69979   -7.1223977   -13307.347    228.83414 
    7700    40.618139    40.618139    40.618139   -142.12438    -98.79273   -145.40456   -182.17585    -13309.99    234.96362 
    7750    40.613372    40.613372    40.613372    161.62042    172.45774    172.90179    139.50173   -13310.971    237.87779 
    7800    40.615921    40.615921    40.615921    26.631749    99.349599   -47.589048    28.134697   -13310.527    238.02247 
    7850    40.620872    40.620872    40.620872   -194.53441   -124.72217   -157.11402   -301.76704   -13307.196    232.58698 
    7900    40.619759    40.619759    40.619759    -82.01956   -179.60158   -62.627346   -3.8297476   -13309.599    238.23394 
    7950    40.616047    40.616047    40.616047    41.259199     91.04905    102.18123   -69.452686   -13310.655    241.28772 
    8000    40.617045    40.617045    40.617045    130.13086    141.70331    192.71542    55.973856   -13307.011    235.22505 
    8050    40.621887    40.621887    40.621887   -190.72591   -225.48035   -276.84061   -69.856765    -13307.63    237.43043 
    8100    40.619727    40.619727    40.619727   -77.679805   -106.46347   -13.593824   -112.98213   -13309.043    241.15528 
    8150    40.616326    40.616326    40.616326     240.3898    268.93235    181.73504      270.502   -13306.362    236.95395 
    8200    40.620296    40.620296    40.620296   -47.327707    -85.27825    111.26083    -167.9657   -13308.412    241.90569 
    8250    40.623235    40.623235    40.623235   -114.17027      37.8925   -159.14122   -221.26209    -13304.25    234.83536 
    8300    40.620454    40.620454    40.620454    14.858589   -151.80318    172.33844    24.040509   -13306.273    239.72712 
    8350    40.617335    40.617335    40.617335    143.69051    220.07359    115.37107    95.626878   -13307.137    242.37658 
    8400    40.619387    40.619387    40.619387    168.54577    53.225627    134.43304    317.97865    -13303.52    236.35827 
    8450    40.624398    40.624398    40.624398   -298.71532   -260.35145   -190.61502    -445.1795   -13308.243    246.45784 
    8500    40.621387    40.621387    40.621387   -37.622985   -50.827261   -136.62886    74.587171   -13305.314    241.75776 
    8550    40.617243    40.617243    40.617243    254.60146    214.97075    343.57759    205.25603    -13305.48    243.05212 
    8600    40.621408    40.621408    40.621408   -98.441631    -238.3339    40.073219   -97.064211   -13306.642    246.25229 
    8650    40.624539    40.624539    40.624539   -67.405127   -214.14225   -13.974493    25.901359    -13303.81    241.73775 
    8700    40.623763    40.623763    40.623763   -92.345295   -28.590139   -66.054725   -182.39102   -13304.257    243.54756 
    8750    40.620877    40.620877    40.620877    163.57055   -10.753448      255.275     246.1901   -13302.982    242.03798 
    8800    40.621288    40.621288    40.621288    -18.02024   -50.829099     37.52263   -40.754252   -13305.293    247.45797 
    8850    40.622817    40.622817    40.622817   -33.523166   -17.965958    27.954934   -110.55847   -13304.912    247.65759 
    8900    40.624259    40.624259    40.624259   -220.56531   -70.867925   -291.46271   -299.36529   -13306.156     251.0053 
    8950    40.622129    40.622129    40.622129     112.2377   0.98026701    206.97731    128.75554   -13302.012    243.92868 
    9000    40.623434    40.623434    40.623434    10.167591   -111.19742    116.25018    25.450021   -13305.427    251.46816 
    9050    40.625612    40.625612    40.625612   -22.198047    31.433815    -57.94388   -40.084074   -13300.893    243.62232 
    9100    40.625422    40.625422    40.625422   -5.6517243   -96.355237   -15.152966     94.55303   -13301.785    246.27604 
    9150    40.623019    40.623019    40.623019    154.92587    200.29569    112.19096    152.29096    -13299.87     243.4952 
    9200    40.623244    40.623244    40.623244    72.208264    34.343705    70.235982     112.0451   -13301.885      248.315 
    9250    40.625535    40.625535    40.625535   -116.00782   -179.90964   -105.81315    -62.30067   -13301.909    249.27332 
    9300    40.625127    40.625127    40.625127    92.321815     44.34153    31.907492    200.71642   -13301.896    250.16371 
    9350     40.62563     40.62563     40.62563    17.008469   -150.09555    49.701639    151.41932   -13300.598    248.54935 
    9400    40.626961    40.626961    40.626961    -119.8285    25.934688   -294.86988   -90.550318   -13301.567    251.32619 
    9450    40.626167    40.626167    40.626167    128.42508    77.165584    128.04373    180.06592   -13298.901    247.06914 
    9500    40.627173    40.627173    40.627173   -116.17194   -107.58322   -194.53957   -46.393041   -13302.515    254.95845 
    9550    40.626305    40.626305    40.626305    48.755426   -121.39054    134.17335    133.48347   -13301.373    253.65448 
    9600    40.627826    40.627826    40.627826   -47.365158    28.738902    5.4282717   -176.26265   -13300.465    252.77986 
    9650    40.629201    40.629201    40.629201   -95.097156   -109.39503   -163.30171   -12.594723   -13300.021    252.81041 
    9700    40.627997    40.627997    40.627997   -20.919811   -138.33535    157.45721   -81.881293   -13300.997     255.5762 
    9750    40.626802    40.626802    40.626802    119.03552    160.49476    76.616228    119.99557    -13298.46    251.55147 
    9800    40.628587    40.628587    40.628587    17.919078   -279.14233    191.92032    140.97924   -13299.348    254.13867 
    9850    40.630337    40.630337    40.630337    -194.7056   -239.27999   -234.79609   -110.04072   -13301.071    258.34045 
    9900    40.627841    40.627841    40.627841    88.081893     29.16831    165.00261    70.074761   -13297.571    252.43298 
    9950    40.628335    40.628335    40.628335     22.55441    87.352556   -158.09355    138.40422    -13299.65     257.3143 
   10000    40.631145    40.631145    40.631145   -15.852566   -48.441124    128.30921   -127.42579   -13296.272    251.64237 
   10050    40.631163    40.631163    40.631163   -109.49607   -272.50628   -142.48233    86.500383   -13299.021    257.81916 
   10100    40.627173    40.627173    40.627173    230.18794    135.50853    521.81945    33.235834   -13297.385     255.5049 
   10150    40.629435    40.629435    40.629435    179.05633     37.17744    96.172173    403.81938   -13295.728    253.14773 
   10200    40.634896    40.634896    40.634896   -298.84472    -515.6156    -162.7215   -218.19704    -13298.55    259.44048 
   10250    40.631791    40.631791    40.631791    55.576122     194.0796   -106.15639    78.805155   -13295.529    254.43497 
   10300    40.629056    40.629056    40.629056   -7.2912325   -55.591626    -18.97108    52.689008    -13299.27    262.50517 
   10350     40.62938     40.62938     40.62938     147.0613    142.54264    229.19775     69.44351   -13295.418    255.88556 
   10400    40.632856    40.632856    40.632856   -230.41744   -196.93259   -249.03592    -245.2838   -13299.247    264.12627 
   10450    40.631572    40.631572    40.631572    74.394483   -16.967211    154.47914    85.671522   -13294.943    256.62218 
   10500    40.631408    40.631408    40.631408    68.077437    47.980071      -86.969    243.22124   -13295.705     258.9097 
   10550    40.632585    40.632585    40.632585    40.686885    63.804334    207.07318   -148.81686   -13294.736    257.85355 
   10600    40.634003    40.634003    40.634003   -51.755321     23.61486   -25.335424    -153.5454   -13295.472    260.08335 
   10650    40.633608    40.633608    40.633608   -19.401425    105.55265   -73.034279   -90.722644   -13295.722    261.37564 
   10700    40.632317    40.632317    40.632317    46.858439   -86.935659    202.59636    24.914614   -13295.725     262.1876 
   10750    40.632447    40.632447    40.632447    30.433657    136.07047    32.093219   -76.862722   -13295.703    262.94523 
   10800    40.634269    40.634269    40.634269   -23.511649     -286.501    39.414035    176.55202   -13294.093    260.61265 
   10850    40.634811    40.634811    40.634811   -167.33538   -333.50433   -61.076402   -107.42541   -13296.604      266.266 
   10900    40.631644    40.631644    40.631644    161.04447    88.382949    176.46538    218.28507   -13293.641    261.32076 
   10950    40.633302    40.633302    40.633302   -14.745303      81.9575   -79.637213   -46.556196   -13295.215    265.14865 
   11000    40.634352    40.634352    40.634352   -20.949921   -76.668261   -7.7919608     21.61046   -13294.139    263.84723 
   11050    40.634237    40.634237    40.634237     -83.5942   -375.65635    27.286361    97.587391   -13295.263    266.78734 
   11100    40.634491    40.634491    40.634491   -30.911155    82.598141   -79.673584    -95.65802   -13293.984    265.08098 
   11150    40.634402    40.634402    40.634402   -11.144456   -211.68191    197.73399   -19.485451   -13293.211    264.35536 
   11200    40.633689    40.633689    40.633689    129.34166    106.89609    46.530251    234.59863    -13291.92    262.62149 
   11250    40.634528    40.634528    40.634528   -72.941882   -262.02944   -58.865826    102.06962   -13293.693     266.8068 
   11300    40.633606    40.633606    40.633606    170.02329    310.16715    41.437589    158.46514   -13290.911    262.17872 
   11350    40.635221    40.635221    40.635221   -41.497254   -189.22869    19.339182    45.397751   -13293.412    267.76285 
   11400    40.636573    40.636573    40.636573   -20.298364   -141.10424    11.421076    68.788075   -13291.719    265.22733 
   11450    40.636408    40.636408    40.636408    76.869889    68.064738    93.297023    69.247905   -13291.391     265.3394 
   11500    40.636717    40.636717    40.636717   -56.624758   -275.29718   -56.317421    161.74033   -13291.768     266.8028 
   11550     40.63618     40.63618     40.63618    24.834509    80.439039    31.588595   -37.524106   -13292.772    269.48091 
   11600    40.635371    40.635371    40.635371    49.669592   -166.31318     40.56947    274.75249   -13290.813    266.41703 
   11650    40.637127    40.637127    40.637127    -14.01719    81.145747    48.291582    -171.4889   -13292.703    270.78854 
   11700    40.639168    40.639168    40.639168   -121.50705   -262.57277   -114.18728    12.238907   -13292.251    270.63473 
   11750    40.638884    40.638884    40.638884   -146.37784   -139.63252   -108.15562   -191.34536   -13292.242    271.32153 
   11800    40.636401    40.636401    40.636401   -32.935856   -115.33325    32.712891   -16.187205   -13292.303    272.15657 
   11850    40.634746    40.634746    40.634746    210.22849    265.26655    103.53526    261.88365   -13289.507    267.45401 
   11900     40.63888     40.63888     40.63888   -141.03346   -48.271118   -176.50274   -198.32654     -13291.4    271.81958 
   11950    40.639941    40.639941    40.639941   -71.850016   -151.87532    -27.92549   -35.749236   -13290.873    271.49589 
   12000    40.638244    40.638244    40.638244   -72.039641   -11.673478   -118.13394   -86.311509   -13291.462    273.32612 
   12050    40.635548    40.635548    40.635548    98.199009    59.824075   -1.5768278    236.34978   -13291.155    273.42269 
   12100    40.637249    40.637249    40.637249    72.662485    132.63031   -21.104401    106.46155   -13289.737    271.36037 
   12150    40.640854    40.640854    40.640854   -130.91165   -113.21504   -207.70159   -71.818328   -13289.746    272.05631 
   12200    40.640152    40.640152    40.640152    31.661529    14.732555    71.903781    8.3482531   -13287.691    268.75124 
   12250    40.638605    40.638605    40.638605    23.186762    34.059919   -81.549012    117.04938   -13290.079    274.03833 
   12300    40.638365    40.638365    40.638365    78.474622   -58.261887    102.24146     191.4443   -13289.728    274.02669 
   12350    40.641993    40.641993    40.641993   -90.554829   -150.77435   -160.63688    39.746741   -13289.701     274.6285 
   12400    40.643067    40.643067    40.643067   -116.38157   -166.96834   -83.224792   -98.951569   -13289.179    274.28204 
   12450     40.64012     40.64012     40.64012    41.453418    32.333894    31.258707    60.767653   -13288.945    274.47911 
   12500    40.639198    40.639198    40.639198    180.43269    -32.68354    312.92494    261.05666   -13286.756    270.89239 
   12550    40.642477    40.642477    40.642477    2.3308519   -37.297879    9.5997489    34.690686   -13288.061    274.05487 
   12600    40.643993    40.643993    40.643993   -250.22224   -477.20327   -202.68175   -70.781718   -13289.727     277.9182 
   12650    40.639269    40.639269    40.639269     164.0533    142.99926    45.459065    303.70159    -13289.07     277.2783 
   12700    40.640347    40.640347    40.640347    64.044426    44.845083    91.474603    55.813592   -13288.432     276.6701 
   12750    40.644236    40.644236    40.644236    21.840693    11.061976    67.083896   -12.623793   -13285.765     272.1407 
   12800    40.645146    40.645146    40.645146   -142.52503   -420.15434    17.090103   -24.510853   -13287.167    275.47227 
   12850     40.64079     40.64079     40.64079    145.16091    140.70745   -32.978095    327.75336   -13286.693    275.17403 
   12900    40.640391    40.640391    40.640391     94.57986   -107.82064    261.43503    130.12518   -13287.379    277.11056 
   12950    40.643704    40.643704    40.643704   -21.018807   -70.171055   -138.10859    145.22323   -13287.934    278.79421 
   13000    40.645518    40.645518    40.645518   -201.45636    -302.8391   -158.60584   -142.92413    -13287.52    278.59602 
   13050    40.642414    40.642414    40.642414      64.9595   -9.4115284    113.74602    90.544011   -13286.484    277.19232 
   13100    40.640205    40.640205    40.640205    256.66783    119.96008    349.04858    300.99485   -13284.932    274.78514 
   13150    40.644792    40.644792    40.644792   -127.98661   -132.35132   -114.37864   -137.22988   -13287.268    279.89031 
   13200    40.646871    40.646871    40.646871    2.7535581   -85.924319    -95.78028    189.96527   -13283.987    274.13361 
   13250    40.644774    40.644774    40.644774   -222.44477   -264.07687   -311.46827   -91.789159   -13289.085    284.57805 
   13300    40.639444    40.639444    40.639444    287.65889    189.27513    396.59916    277.10237   -13285.076    277.39994 
   13350    40.643445    40.643445    40.643445   -124.12578    -257.4431   -196.50166    81.567425   -13289.373    286.28521 
   13400    40.646957    40.646957    40.646957   -179.87542   -232.71217   -218.64105   -88.273045   -13284.638    277.69084 
   13450    40.645431    40.645431    40.645431    -79.33921    122.38416    18.971996   -379.37379   -13286.129    281.14158 
   13500    40.641428    40.641428    40.641428    190.76898    62.470687    157.67698    352.15927   -13284.886    279.29654 
   13550    40.642891    40.642891    40.642891    49.680868   -1.1654171    130.31019    19.897828   -13285.961    281.93282 
   13600    40.645901    40.645901    40.645901   -54.769192   -185.72622    -137.8634    159.28205   -13284.455     279.5674 
   13650    40.646643    40.646643    40.646643   -135.23223   -288.18046   -119.70164    2.1854153    -13285.48    282.09396 
   13700     40.64327     40.64327     40.64327    130.09708     271.1829    142.97708   -23.868753   -13283.808    279.40296 
   13750    40.642403    40.642403    40.642403    152.05334   -2.9789696   -2.2505342    461.38952    -13284.04    280.38621 
   13800    40.646279    40.646279    40.646279   -72.670355    39.782527   -181.45827   -76.335322   -13286.156    285.00826 
   13850    40.647478    40.647478    40.647478   -194.22504   -292.98425   -319.38412    29.693243   -13285.561    284.38455 
   13900    40.644302    40.644302    40.644302    133.89973    333.59114    134.60847   -66.500404    -13283.94    281.77247 
   13950    40.644755    40.644755    40.644755     18.62117   -13.023768   -34.177418     103.0647    -13284.81     283.9795 
   14000    40.646232    40.646232    40.646232   -79.372487   -69.867222   -97.042639     -71.2076   -13283.185    281.34813 
   14050    40.646016    40.646016    40.646016   -33.868445   -64.236423   -75.261768    37.892855   -13285.099    285.56594 
   14100     40.64487     40.64487     40.64487     51.62384    139.93774   -66.154373    81.088155   -13283.989    283.92933 
   14150    40.645704    40.645704    40.645704    70.088025    30.304528    168.88385      11.0757   -13283.592     283.6596 
   14200    40.647954    40.647954    40.647954   -212.44781   -223.65841    -270.1411   -143.54391   -13284.411    285.74174 
   14250    40.645393    40.645393    40.645393    209.56262    311.58416    83.429741    233.67395   -13280.469    278.60982 
   14300    40.647009    40.647009    40.647009    23.864058    29.969576    1.3019472     40.32065   -13281.683    281.44867 
   14350    40.648859    40.648859    40.648859   -171.63196   -179.57774   -272.88682   -62.431327   -13284.922    288.20368 
   14400    40.646336    40.646336    40.646336    163.75235    323.70603     -140.109    307.66001   -13280.644    280.41192 
   14450    40.646577    40.646577    40.646577   0.35090194    -104.7181    172.18194   -66.411136   -13284.474    288.30307 
   14500    40.647203    40.647203    40.647203    58.796546    254.18994    -197.4507     119.6504   -13282.551    285.05401 
   14550    40.649121    40.649121    40.649121   -130.85996   -169.41817   -81.967619    -141.1941   -13282.972    286.33166 
   14600    40.648069    40.648069    40.648069   -108.93586   -56.213453    -234.2483   -36.345825   -13283.046    286.93641 
   14650     40.64528     40.64528     40.64528     238.0147    366.27849    156.02779    191.73784   -13281.636    284.67106 
   14700    40.648559    40.648559    40.648559    38.060006   -35.877608    1.8132969    148.24433   -13280.166    282.28084 
   14750    40.650613    40.650613    40.650613   -246.52543   -201.78006   -348.31404    -189.4822   -13282.326    286.91273 
   14800    40.646532    40.646532    40.646532    162.04164    129.71823   -4.9050625    361.31174   -13282.949    288.56793 
   14850    40.646802    40.646802    40.646802    77.879855  -0.88733825      56.8276     177.6993   -13281.691    286.57978 
   14900    40.649907    40.649907    40.649907    -49.02235   -86.579467    -66.82774    6.3401565   -13280.958    285.59453 
   14950    40.650687    40.650687    40.650687   -136.84269   -146.45542   -154.93215   -109.14048   -13282.834    289.65686 
   15000    40.646756    40.646756    40.646756    107.11177    18.514208    167.22089    135.60021   -13279.769    284.15372 
   15050     40.64658     40.64658     40.64658    60.625494     52.72145    75.463938    53.691094   -13284.731     294.1769 
   15100    40.651348    40.651348    40.651348   -167.08662   -492.75338   -171.45007    162.94358   -13281.716    288.75916 
   15150    40.651931    40.651931    40.651931   -228.28345   -160.85676   -329.12554   -194.86807   -13282.774    291.22418 
   15200    40.646671    40.646671    40.646671    98.975248   -24.771689    129.42158    192.27586   -13282.461    291.03197 
   15250    40.646575    40.646575    40.646575    211.43794    321.11513    138.10851     175.0902   -13280.007    286.69482 
   15300    40.652538    40.652538    40.652538   -162.12474   -254.68458   -196.46797    -35.22167   -13280.904    288.83066 
   15350    40.652414    40.652414    40.652414   -133.77691   -192.85204    -196.0554   -12.423311   -13280.194    287.85844 
   15400    40.647345    40.647345    40.647345    85.477907   -79.292711     303.8031    31.923331   -13281.341    290.47219 
   15450    40.646927    40.646927    40.646927     219.8452    410.93965   -26.635314    275.23125   -13281.516    291.20517 
   15500    40.652188    40.652188    40.652188   -156.85399    14.639126   -302.02386   -183.17723   -13281.596    291.74994 
   15550    40.652761    40.652761    40.652761   -102.76929   -51.363313   -209.36808   -47.576466   -13279.397    287.87839 
   15600    40.648648    40.648648    40.648648    5.1553371   -6.3028062   -92.929616    114.69843   -13281.415    292.16013 
   15650    40.646444    40.646444    40.646444    270.02208    290.53352    144.65497    374.87775   -13280.087    289.96968 
   15700    40.652377    40.652377    40.652377   -240.85249   -81.541763   -374.83035   -266.18535   -13281.596    293.25504 
   15750    40.651563    40.651563    40.651563   -71.701804   -46.608129   -109.97046   -58.526824   -13278.953    288.50778 
   15800    40.646995    40.646995    40.646995    99.951303    156.32286    47.493885    96.037163   -13281.431    293.66575 
   15850    40.647215    40.647215    40.647215    253.14507    298.68578    169.50537    291.24406   -13277.743    286.89028 
   15900     40.65401     40.65401     40.65401   -200.26028   -152.86396   -244.22962   -203.68726   -13279.444    290.53929 
   15950    40.653146    40.653146    40.653146   -194.80237   -193.67878   -274.10082   -116.62751   -13281.062    294.02426 
   16000    40.646465    40.646465    40.646465    340.32687    566.87906    268.55421    185.54733   -13278.264    288.96147 
   16050     40.65076     40.65076     40.65076   -69.878987   -160.98145   -68.069229    19.413718    -13280.95    294.49381 
   16100    40.655255    40.655255    40.655255   -211.48417    34.133317   -284.25519   -384.33064   -13280.068    293.13363 
   16150    40.651523    40.651523    40.651523    7.2303393    85.896844    29.626654    -93.83248   -13277.487     288.4714 
   16200    40.646784    40.646784    40.646784    381.55119    169.31941     416.0023    559.33185   -13277.311    288.46396 
   16250    40.651119    40.651119    40.651119   -72.346905    23.025644   -84.305915   -155.76045   -13279.404    292.83616 
   16300    40.654444    40.654444    40.654444   -309.28212   -344.15501    -257.2248   -326.46654   -13280.776    295.81719 
   16350    40.650013    40.650013    40.650013   -29.552626    42.248183   -114.43411   -16.471946    -13279.32    293.32074 
   16400    40.646175    40.646175    40.646175    252.23165    238.17649    351.17527     167.3432   -13280.745     296.3995 
   16450    40.650393    40.650393    40.650393   -56.800537    38.307505    6.3783757   -215.08749   -13279.361    294.03143 
   16500    40.654075    40.654075    40.654075   -314.97005   -332.19034   -282.01636   -330.70346   -13280.816    297.15656 
   16550    40.649156    40.649156    40.649156    192.70492    295.92266    124.67628    157.51582   -13276.793    289.67568 
   16600    40.647767    40.647767    40.647767    110.18993    65.013831    129.81966     135.7363   -13278.663    293.59048 
   16650    40.650921    40.650921    40.650921    77.907629    79.793196    51.827843    102.10185   -13276.095    288.91641 
   16700    40.653711    40.653711    40.653711   -189.22951   -331.41628   -67.971643    -168.3006   -13278.375     293.6235 
   16750    40.650836    40.650836    40.650836    -74.98192   -26.936714   -174.87314   -23.135904   -13281.479    299.91761 
   16800    40.648645    40.648645    40.648645    167.27581    59.439669     67.81455    374.57322   -13277.316    292.15311 
   16850    40.652318    40.652318    40.652318   -111.21423    -134.9608   -67.710202    -130.9717   -13279.832    297.30253 
   16900    40.653353    40.653353    40.653353   -146.68898    43.894309   -264.20865   -219.75259   -13278.409    294.82818 
   16950    40.650114    40.650114    40.650114    114.57576    31.244228     258.5065    53.976547   -13277.723    293.77437 
   17000    40.650938    40.650938    40.650938    154.10445    195.85893    206.82475    59.629684   -13277.734    294.06223 
   17050    40.655983    40.655983    40.655983   -231.55722   -159.70746   -307.16676   -227.79745   -13278.616    296.03666 
   17100    40.653289    40.653289    40.653289   -19.005224   -123.86324    80.492689   -13.645123   -13276.607    292.41309 
   17150    40.649386    40.649386    40.649386    176.60857    207.32454    222.12937     100.3718   -13278.625    296.57944 
   17200    40.652077    40.652077    40.652077   -2.5767549    59.929364   -1.9627538   -65.696875   -13278.042    295.71101 
   17250    40.655032    40.655032    40.655032   -20.083401   0.87286154   -15.178998   -45.944066   -13275.389    290.83277 
   17300      40.6548      40.6548      40.6548   -103.44617   -108.63822   -11.304163   -190.39614   -13278.075      296.277 
   17350    40.652106    40.652106    40.652106    61.785009    19.488949    138.84883    27.017245   -13277.656    295.71183 
   17400    40.650987    40.650987    40.650987    188.00167    268.30512    102.96971    192.73017   -13276.375    293.47534 
   17450    40.655008    40.655008    40.655008   -37.270114   -56.256679   -97.507258    41.953593   -13276.289    293.53971 
   17500    40.657351    40.657351    40.657351   -356.11183    -216.5434   -300.27892   -551.51316   -13280.044    301.04107 
   17550    40.650555    40.650555    40.650555    294.82917    338.98084    374.15464    171.35202   -13275.016    291.54479 
   17600    40.651251    40.651251    40.651251    197.53791    262.96961     140.3572    189.28693   -13277.493    296.56189 
   17650    40.656872    40.656872    40.656872   -331.17032   -331.01671   -226.86737   -435.62689   -13279.451    300.57298 
   17700     40.65483     40.65483     40.65483    93.146722    118.00188     38.03995    123.39834   -13273.857    289.96945 
   17750    40.652808    40.652808    40.652808   -20.131374    58.252984    20.809708   -139.45681   -13280.117    302.29507 
   17800    40.651602    40.651602    40.651602     226.1835    310.33514    116.16216    252.05318   -13273.845    290.37248 
   17850    40.655548    40.655548    40.655548   -110.67214   -13.209593   -139.12903    -179.6778   -13278.351    299.29892 
   17900    40.657036    40.657036    40.657036   -253.05718   -300.65016   -65.164514   -393.35687    -13279.51    301.74695 
   17950    40.652932    40.652932    40.652932    83.360677    144.49231   -32.326097    137.91582   -13277.684    298.41679 
   18000    40.652159    40.652159    40.652159    185.09311     178.0182    223.42155    153.83958   -13276.158    295.65518 
   18050    40.657583    40.657583    40.657583    -115.9877   -218.93855    -123.7464   -5.2781667   -13275.031     293.6632 
   18100     40.65772     40.65772     40.65772   -80.199362   -58.780591    -66.38807   -115.42943   -13275.114    294.01817 
   18150    40.652434    40.652434    40.652434    164.75199    230.32844    95.167637     168.7599   -13277.137    298.11546 
   18200     40.65308     40.65308     40.65308    142.90723   -97.335755    190.20905    335.84839   -13277.444    298.88881 
   18250    40.659442    40.659442    40.659442   -248.10549    -245.2337   -333.55688    -165.5259   -13276.934    298.07995 
   18300    40.658293    40.658293    40.658293   -332.26222   -307.79022   -386.57971   -302.41674   -13279.848     303.8929 
   18350    40.650362    40.650362    40.650362    250.73159    336.34583    281.21937    134.62956   -13277.254    299.04949 
   18400    40.652673    40.652673    40.652673    89.034959    60.996599   -35.127032    241.23531   -13277.816    300.29687 
   18450    40.659999    40.659999    40.659999   -213.15279   -187.91081   -181.73499   -269.81257   -13275.574    296.12345 
   18500    40.658346    40.658346    40.658346   -337.40874   -446.89584   -199.21859   -366.11178   -13277.779    300.54475 
   18550    40.649426    40.649426    40.649426    425.47152    476.31657    294.09375    506.00425   -13275.918    297.10452 
   18600    40.653541    40.653541    40.653541    85.130095    142.88426    30.523241    81.982788   -13276.901    299.15638 
   18650    40.660673    40.660673    40.660673   -375.59517   -293.39213   -552.80624   -280.58715   -13276.933     299.3708 
   18700    40.657534    40.657534    40.657534   -28.010654    23.091549   -16.415479   -90.708031   -13274.966    295.71467 
   18750    40.651527    40.651527    40.651527    204.32619    342.79427    88.904372    181.27993    -13276.31    298.46326 
   18800    40.653249    40.653249    40.653249    144.92776    36.633476    239.41402    158.73578   -13275.352    296.74898 
   18850    40.658955    40.658955    40.658955   -132.91505   -34.921614   -281.86595   -81.957589   -13274.747    295.71788 
   18900    40.658366    40.658366    40.658366   -287.77551   -323.25187   -260.24732   -279.82735   -13276.956    300.12756 
   18950    40.649945    40.649945    40.649945    428.09693    441.33543     396.2634    446.69195   -13273.714    293.98656 
   19000      40.6523      40.6523      40.6523     6.273373    104.38486    27.239189   -112.80393   -13279.199    304.72176 
   19050    40.658867    40.658867    40.658867   -147.83271   -195.53333   -259.17848    11.213695   -13274.631    296.00735 
   19100    40.659151    40.659151    40.659151   -338.78801   -377.38637    -282.3483   -356.62937   -13276.589    299.91812 
   19150    40.650144    40.650144    40.650144    333.98654    251.03636     181.2494    569.67387   -13274.805    296.58827 
   19200    40.650599    40.650599    40.650599    344.47067    296.85113    292.38546    444.17542   -13275.242    297.54701 
   19250     40.66081     40.66081     40.66081   -484.77762   -577.15473   -452.03303   -425.14509   -13278.168    303.31447 
   19300    40.657888    40.657888    40.657888   -56.304779   -97.564362    -127.1505    55.800521   -13273.376     294.1496 
   19350    40.649876    40.649876    40.649876    143.55711    97.434589    77.965512    255.27123   -13278.117    303.42831 
   19400    40.650053    40.650053    40.650053    388.58739    150.76527    505.45614    509.54076    -13274.16    295.87188 
   19450    40.661518    40.661518    40.661518   -551.01877   -579.81697   -828.15908   -245.08025   -13278.639    304.63573 
   19500    40.657653    40.657653    40.657653   -247.18963   -217.97985   -278.95417   -244.63488   -13276.094    299.80206 
   19550    40.646717    40.646717    40.646717    534.51806     500.0628     546.3838    557.10758     -13274.2      296.237 
   19600    40.652066    40.652066    40.652066    128.26395    204.43569   -27.068156    207.42432   -13277.569    302.82972 
   19650    40.662182    40.662182    40.662182   -359.95275   -511.31386   -328.35414   -240.19024   -13274.118    296.24412 
   19700    40.658361    40.658361    40.658361   -205.76184   -172.79627   -435.00355   -9.4856979   -13275.655    299.29344 
   19750     40.64911     40.64911     40.64911    405.22735    172.72735    674.39026    368.56444   -13276.553    301.12255 
   19800    40.652983    40.652983    40.652983    156.66018    474.38743   -151.52579    147.11889   -13274.785     297.7722 
   19850    40.660518    40.660518    40.660518   -366.96039   -281.87678   -326.18158   -492.82281   -13276.866    301.87154 
   19900    40.657136    40.657136    40.657136   -150.31948   -87.037098   -298.97413   -64.947211     -13275.7    299.68417 
   19950    40.650402    40.650402    40.650402    227.99841    243.05846    161.21347    279.72331   -13276.953    302.18132 
   20000    40.653549    40.653549    40.653549    174.50359    140.63361    95.199026    287.67813   -13274.467    297.43493 
Loop time of 211.631 on 4 procs for 20000 steps with 4000 atoms

Pair  time (%) = 186.509 (88.1291)
Neigh time (%) = 0 (0)
Comm  time (%) = 18.7951 (8.88104)
Outpt time (%) = 0.0670695 (0.0316917)
Other time (%) = 6.26034 (2.95814)

Nlocal:    1000 ave 1000 max 1000 min
Histogram: 4 0 0 0 0 0 0 0 0 0
Nghost:    4235 ave 4235 max 4235 min
Histogram: 4 0 0 0 0 0 0 0 0 0
Neighs:    70000 ave 72653 max 67302 min
Histogram: 1 0 1 0 0 0 0 1 0 1
FullNghs:  0 ave 0 max 0 min
Histogram: 4 0 0 0 0 0 0 0 0 0

Total # of neighbors = 280000
Ave neighs/atom = 70
Neighbor list builds = 0
Dangerous builds = 0
unfix 1

# Store final cell length for strain calculations
variable tmp equal "lx"
variable L0 equal ${tmp}
variable L0 equal 40.6535489004617
print "Initial Length, L0: ${L0}"
Initial Length, L0: 40.6535489004617

######################################
# DEFORMATION
reset_timestep	0

fix		1 all npt temp 300 300 1 y 0 0 1 z 0 0 1 drag 1
variable srate equal 1.0e10
variable srate1 equal "v_srate / 1.0e12"
fix		2 all deform 1 x erate ${srate1} units box remap x
fix		2 all deform 1 x erate 0.01 units box remap x

# Output strain and stress info to file
# for units metal, pressure is in [bars] = 100 [kPa] = 1/10000 [GPa]
# p2, p3, p4 are in GPa
variable strain equal "(lx - v_L0)/v_L0"
variable p1 equal "v_strain"
variable p2 equal "-pxx/10000"
variable p3 equal "-pyy/10000"
variable p4 equal "-pzz/10000"
fix def1 all print 20 "${p1} ${p2} ${p3} ${p4}" file  Al99.posPhiR.eam.alloy.def1.txt screen no

# Use cfg for AtomEye
#dump 		1 all cfg 250 dump.tensile_*.cfg id type xs ys zs c_csym c_peratom fx fy fz
#dump_modify 1 element Al

# Display thermo
thermo 	50
thermo_style	custom step v_strain temp v_p2 v_p3 v_p4 ke pe press

run		20000
Memory usage per processor = 3.04301 Mbytes
Step strain Temp p2 p3 p4 KinEng PotEng Press 
       0 8.7390001e-16    297.43493 -0.014063361 -0.0095199026 -0.028767813    153.74748   -13274.467    174.50359 
      50       0.0005    299.30886  0.019023874  0.030450541  0.015634677    154.71614   -13275.387   -217.03031 
     100        0.001    298.47485  0.072907038  0.013461621 0.0055132941    154.28503   -13274.899   -306.27318 
     150       0.0015    301.41357   0.12381082 -0.0064144424 0.0037224709    155.80408   -13276.348    -403.7295 
     200        0.002    294.94424   0.12450425 -0.021700369 -0.0012117726    152.46002   -13272.924   -338.64036 
     250       0.0025    299.12478   0.14004265 -0.0031556534  0.015467889    154.62099   -13275.004   -507.84963 
     300        0.003    295.49066   0.18910308 -0.011447788 -0.00042843644    152.74247   -13273.032   -590.75619 
     350       0.0035    302.38069   0.22549483 0.0080478367 -0.014764024      156.304   -13276.494   -729.26215 
     400        0.004     298.4025   0.26326966 -0.010848285 0.0044640138    154.24763   -13274.328   -856.28464 
     450       0.0045    299.21349   0.28182889  0.020861261  0.028940836    154.66684   -13274.632   -1105.4366 
     500        0.005    302.72911   0.33933326   0.01642534 -0.0057163083    156.48411   -13276.326   -1166.8076 
     550       0.0055    298.34563   0.35381673 -0.0083010361 -0.022256104    154.21823   -13273.926    -1077.532 
     600        0.006     299.9882   0.38748124  0.036218755 -0.014079584     155.0673   -13274.638   -1365.4014 
     650       0.0065    300.73422   0.42470241 -0.0040479332  0.025868518    155.45292    -13274.88     -1488.41 
     700        0.007    302.85472   0.46259026 0.0055175339 0.00080105488    156.54904   -13275.823   -1563.0295 
     750       0.0075     298.3737   0.47341289 -0.027515862  0.015711958    154.23274    -13273.34   -1538.6966 
     800        0.008     297.0026   0.51729063 -0.011714162 0.0095594755    153.52401   -13272.461   -1717.1198 
     850       0.0085     299.3067   0.54152947  0.011882763  0.014824696    154.71502   -13273.474   -1894.1231 
     900        0.009    292.58952   0.56474353 -0.020567607 -0.031317462    151.24284   -13269.817   -1709.5282 
     950       0.0095    303.71132   0.61099638  0.039283584 -0.0024500719    156.99182   -13275.376    -2159.433 
    1000         0.01    299.58892   0.64071437 -0.0075117612 -0.012662834     154.8609   -13273.048   -2068.4659 
    1050       0.0105    300.39961   0.70076454  0.004011469  0.015712193    155.27996    -13273.26   -2401.6273 
    1100        0.011    298.71231   0.71867462  0.010799578  0.031578376    154.40778   -13272.171   -2536.8419 
    1150       0.0115    298.59622   0.72725881 -0.00022168962   -0.0199442    154.34777   -13271.891   -2356.9764 
    1200        0.012     299.2379   0.72848837 -0.0051116571 -0.017450213    154.67946   -13271.998   -2353.0883 
    1250       0.0125    302.61195   0.80405936 -0.0093161536 -0.0041308519    156.42354   -13273.515   -2635.3745 
    1300        0.013    295.68162   0.83374948 0.0057691653  0.011075896    152.84118   -13269.694   -2835.3151 
    1350       0.0135    299.26261     0.860953  0.043604584  0.027014055    154.69223   -13271.303   -3105.2388 
    1400        0.014    297.16553   0.86747987  -0.05418057 0.0020076568    153.60823    -13269.97   -2717.6898 
    1450       0.0145    300.12929   0.89083224 -0.017350705   -0.0347118    155.14023   -13271.244   -2795.8991 
    1500        0.015    296.12236   0.96834839 -0.015070498 0.0090348152      153.069   -13268.911    -3207.709 
    1550       0.0155     298.5467    1.0147394  0.044374974  0.041206516    154.32217   -13269.887   -3667.7364 
    1600        0.016    304.00212    1.0200119  0.035625137 0.0042817492    157.14214   -13272.431   -3533.0627 
    1650       0.0165    301.12326    1.0391942  -0.05732343 -0.042469361    155.65402   -13270.653   -3131.3379 
    1700        0.017    301.57638    1.0976166 -0.010081351 -0.019207736    155.88824   -13270.596   -3561.0918 
    1750       0.0175    296.12844    1.1384732  0.028975663   0.05199452    153.07214   -13267.473   -4064.8112 
    1800        0.018    297.96273    1.1677576  0.013986521  0.035467308    154.02031   -13268.116   -4057.3715 
    1850       0.0185    300.04601    1.1573115 0.0026975458 -0.023079483    155.09718   -13268.879   -3789.7651 
    1900        0.019    294.52262    1.1749845 -0.031493409 -0.060244029    152.24207   -13265.699   -3610.8236 
    1950       0.0195    301.22776    1.2385906 -0.0089951849 -0.0021446117    155.70804   -13268.841   -4091.5026 
    2000         0.02    297.66888    1.3172087  0.060355327  0.033349606    153.86842    -13266.66   -4703.0453 
    2050       0.0205     302.1258    1.3326096 0.0041488023  0.070338848    156.17225   -13268.621    -4690.324 
    2100        0.021    299.54611    1.3061958 -0.0059714048 -0.037051375    154.83878   -13266.936   -4210.5768 
    2150       0.0215    296.53574    1.3336713 -0.074690359 -0.064703996    153.28268   -13265.022   -3980.9231 
    2200        0.022     302.0794    1.4060919  0.022528716  0.019810778    156.14826   -13267.539   -4828.1045 
    2250       0.0225    297.23396    1.4658268  0.063640896  0.052080591     153.6436   -13264.656   -5271.8275 
    2300        0.023    303.53611    1.4917671  0.022744388  0.027321158    156.90125   -13267.544   -5139.4421 
    2350       0.0235    296.79366    1.4582089 -0.052052075  -0.02173389      153.416   -13263.666   -4614.7432 
    2400        0.024    301.98851    1.5062576 -0.046583832 -0.024456637    156.10128   -13265.962    -4784.057 
    2450       0.0245    298.45104    1.5738975  0.017650784  0.027424962    154.27272   -13263.741   -5396.5774 
    2500        0.025    299.27028    1.6138815  0.051043732  0.033429707     154.6962   -13263.762   -5661.1833 
    2550       0.0255    298.77792    1.6137206 0.0031109335 -0.008836552    154.44169   -13263.103   -5359.9833 
    2600        0.026    303.39113     1.638123 -0.0045446776 -0.045405751    156.82631   -13265.069   -5293.9085 
    2650       0.0265     296.2927    1.6683394 -0.029531701 -0.026582627    153.15705   -13260.981   -5374.0836 
    2700        0.027    297.40923    1.7347182  0.061154193  0.019743652     153.7342   -13261.126   -6052.0536 
    2750       0.0275    299.57253    1.7546526  0.020457561  0.029880751    154.85243   -13261.812   -6016.6362 
    2800        0.028    304.64436    1.7702266 -0.0077511473   0.02923429    157.47412   -13263.991   -5972.3657 
    2850       0.0285    299.17076    1.7573006 -0.052150096 -0.039462075    154.64475   -13260.713   -5552.2949 
    2900        0.029    303.54088    1.8505844 -0.0037443353  0.024925135    156.90372   -13262.519   -6239.2173 
    2950       0.0295    294.75093    1.8735178  0.033151039 0.0033654961    152.36009   -13257.511   -6366.7811 
    3000         0.03    300.33116    1.9263049  0.018591407  0.024030643    155.24458   -13259.926   -6563.0899 
    3050       0.0305    292.64827    1.9101897 0.0034141324  -0.04254505     151.2732    -13255.48   -6236.8625 
    3100        0.031    300.14621    1.9401852 -0.043184476  -0.01183458    155.14897   -13258.876   -6283.8873 
    3150       0.0315    299.18359    1.9823319  0.020660115 -0.0023881213    154.65138   -13257.894   -6668.6795 
    3200        0.032     299.9414    2.0508082 -0.0028307357  0.053096114    155.04311   -13257.787   -7003.5788 
    3250       0.0325    299.56134    2.0554223 -0.0072941033  0.041487012    154.84665   -13257.087   -6965.3839 
    3300        0.033    298.35509    2.0661228 -0.021573929 -0.034755559    154.22312   -13255.959   -6699.3111 
    3350       0.0335    298.04974    2.1006171 -0.018206885 -0.030930567    154.06528   -13255.287   -6838.2655 
    3400        0.034    299.76944     2.167716  0.029006167  0.029914053    154.95422    -13255.66   -7422.1209 
    3450       0.0345    293.67986    2.1854854  0.041675729 -0.0085267745    151.80644   -13251.982   -7395.4477 
    3500        0.035    301.19844    2.2181658 -0.00095480192 -0.0015681657    155.69288   -13255.332   -7385.4763 
    3550       0.0355     292.5408     2.182275 -0.0094558999 -0.049063286    151.21765    -13250.32    -7079.186 
    3600        0.036    301.61616    2.2666918 -0.019042939  0.020543171    155.90881   -13254.467     -7560.64 
    3650       0.0365    298.94924    2.2908843 0.0033407704 0.0055535822    154.53024   -13252.538   -7665.9287 
    3700        0.037    298.70646    2.3350594  0.021737686  0.023050368    154.40475   -13251.854   -7932.8249 
    3750       0.0375    301.65954    2.3638372  0.012896281 0.0083557084    155.93123   -13252.816   -7950.2974 
    3800        0.038    294.17348    2.3354057 -0.052090457 -0.0057801383     152.0616   -13248.377   -7591.7836 
    3850       0.0385     304.9217    2.4319295 0.0021574783  0.028489654    157.61748   -13253.351   -8208.5889 
    3900        0.039    295.73692    2.4191894  0.003255487  0.021585831    152.86976   -13248.023    -8146.769 
    3950       0.0395     303.2492    2.4953433  0.041959054 -0.0099312322    156.75294   -13251.308   -8424.5706 
    4000         0.04    298.49028    2.5006937 -0.0067893391 -0.020339684      154.293   -13248.241   -8245.2155 
    4050       0.0405    294.41302    2.5137749 -0.0061183587 -0.029742445    152.18542   -13245.532   -8259.7136 
    4100        0.041    297.60566    2.5851861  0.018277985 -0.017734887    153.83574   -13246.571   -8619.0972 
    4150       0.0415     298.3677    2.5771796  0.045399583   0.04271622    154.22964   -13246.354   -8884.3179 
    4200        0.042    297.31872    2.5953004 -0.027925001 -0.011377995    153.68741   -13245.191   -8519.9915 
    4250       0.0425    304.36364     2.629325 -0.010812456 0.0086970558    157.32901   -13248.201   -8757.3654 
    4300        0.043    298.22688    2.6887098 -0.037404276  0.022905059    154.15685   -13244.394   -8914.0353 
    4350       0.0435    295.73342    2.7074032  0.018878437  0.033118906    152.86795   -13242.466   -9198.0017 
    4400        0.044    297.14252    2.7461433 0.00071294782 0.0028648057    153.59633   -13242.552   -9165.7369 
    4450       0.0445    296.93378    2.7576487 -0.018555204 -0.027822551    153.48843   -13241.784   -9037.5698 
    4500        0.045    303.09645    2.8148112  0.011605239 -0.0072543795    156.67399   -13244.308    -9397.207 
    4550       0.0455     297.8882    2.8353592 -0.0047718698 -0.0056909354    153.98178    -13240.95   -9416.3214 
    4600        0.046    298.50237    2.8972794  0.041188528 0.0096346964    154.29925   -13240.592   -9827.0087 
    4650       0.0465    298.10598    2.9073871  0.019096207  0.014323591    154.09436   -13239.709   -9802.6898 
    4700        0.047    299.94255    2.9168658 -0.00059451779  -0.02567407     155.0437   -13239.969   -9635.3241 
    4750       0.0475    298.29282    2.9464783 -0.021847193 -0.030573416    154.19094   -13238.422   -9646.8589 
    4800        0.048    296.81485    2.9630681 -0.029906749  0.011901049    153.42696   -13236.963   -9816.8747 
    4850       0.0485    300.74858    3.0471917 0.0087523547   0.01336791    155.46035   -13238.297    -10231.04 
    4900        0.049    294.20893    3.0466625  0.017421748  0.044246559    152.07993   -13234.202   -10361.103 
    4950       0.0495    298.99338    3.0647343 -0.003116094 0.0020371475    154.55306   -13235.967   -10212.184 
    5000         0.05    295.73155    3.0847929 -0.055489337 -0.057716344    152.86698   -13233.554   -9905.2907 
    5050       0.0505      301.289    3.1354683  0.012803768 0.0091525538    155.73969   -13235.702   -10524.749 
    5100        0.051    298.59679    3.1807044  0.050403542  0.028306991    154.34806   -13233.576   -10864.716 
    5150       0.0515    297.66976    3.2196285  0.026940594  0.019696421    153.86887   -13232.358   -10887.552 
    5200        0.052    298.80542    3.1894843  -0.03423464 -0.018481237    154.45591   -13232.197   -10455.895 
    5250       0.0525    301.10895    3.2471961 -0.016185463 -0.033879577    155.64662   -13232.633   -10657.104 
    5300        0.053    300.66324    3.2903778  0.010918897   0.03435763    155.41623   -13231.642   -11118.848 
    5350       0.0535    296.29996     3.333588  0.034631608 0.0073113964     153.1608   -13228.616    -11251.77 
    5400        0.054    301.59108    3.3526404   0.01005475 0.0097709127    155.89584   -13230.578   -11241.553 
    5450       0.0545    301.64911    3.3832802 -0.028200664 -0.0086766553    155.92584   -13229.824   -11154.676 
    5500        0.055    293.20571    3.3742836 -0.033180894 -0.019942133    151.56135   -13224.678   -11070.535 
    5550       0.0555    298.72371    3.4434588   0.02158836  0.019936121    154.41367   -13226.742   -11616.611 
    5600        0.056    296.66091    3.4963454  0.019334432 0.0069032783    153.34738   -13224.874   -11741.944 
    5650       0.0565    300.13305    3.5057236  0.022578416 0.0041123754    155.14217   -13225.861   -11774.715 
    5700        0.057     299.9339    3.5207176 -0.023973142 -0.032460515    155.03923   -13224.943   -11547.613 
    5750       0.0575    297.59393    3.5578643 -0.030187886 0.0024169287    153.82967   -13222.915   -11766.978 
    5800        0.058    299.70409    3.6000617  0.029405765  0.014995983    154.92044   -13223.185   -12148.212 
    5850       0.0585    290.56021    3.5954972 -0.012840554 -0.0041349291    150.19386   -13217.633   -11928.406 
    5900        0.059    297.13224    3.6507774 -0.0010777867  0.013037895    153.59102     -13220.2   -12209.125 
    5950       0.0595    293.39771    3.6503784   0.00457098 -0.027175918     151.6606   -13217.429   -12092.578 
    6000         0.06    297.93329    3.6758688 -0.016955781 -0.052385717    154.00509   -13218.927   -12021.758 
    6050       0.0605     300.6765    3.7464351 0.0099749136  0.028179644    155.42309   -13219.498   -12615.299 
    6100        0.061    298.14614    3.7738696  0.044200273 -0.0040439953    154.11511    -13217.33    -12713.42 
    6150       0.0615    301.80248    3.8078888  0.021229074  0.028916036    156.00512   -13218.359   -12860.113 
    6200        0.062    295.62729    3.7817146 -0.032941278 -0.046421442     152.8131   -13214.296   -12341.173 
    6250       0.0625    295.85917    3.8089794 -0.022812238  0.012331248    152.93296   -13213.546   -12661.661 
    6300        0.063    302.78421    3.8995091 0.0077035905  0.068213153    156.51259   -13216.242   -13251.419 
    6350       0.0635    294.98536    3.8770723 -0.012657599  0.029960803    152.48127   -13211.337   -12981.252 
    6400        0.064    302.59029    3.9233343 -0.0017695333 -0.016644939    156.41235   -13214.376     -13016.4 
    6450       0.0645    297.43291    3.9437128 -0.031200586 -0.0017277634    153.74644   -13210.816   -13035.948 
    6500        0.065    297.81951    3.9739652  0.033020593  0.011207533    153.94628    -13210.11   -13393.978 
    6550       0.0655     296.5753    3.9910649  0.030471061 -0.018447016    153.30313    -13208.56    -13343.63 
    6600        0.066    299.28538    4.0506903  0.024883218 -0.047659266      154.704   -13209.046   -13426.381 
    6650       0.0665    298.11086    4.0627404 -0.00054080629 -0.014438847    154.09688   -13207.519   -13492.536 
    6700        0.067    298.89156    4.1375771  0.024186909 -0.0060478937    154.50043   -13206.998   -13852.387 
    6750       0.0675    298.98102    4.1788308  0.023237369  0.039863661    154.54667   -13206.101   -14139.773 
    6800        0.068      299.105    4.1607805 -0.0038686559  0.041631748    154.61076   -13205.226   -13995.145 
    6850       0.0685    300.18143    4.1768126 -0.056307636 -0.018906974    155.16718   -13204.826   -13671.993 
    6900        0.069    297.00561    4.1902884 -0.034966148 -0.023439786    153.52556   -13202.236   -13772.942 
    6950       0.0695    294.61037     4.225161 -0.0089039571  0.044542883    152.28743   -13200.048   -14202.666 
    7000         0.07    297.89819    4.2849001   0.03546556  0.049868168    153.98695   -13200.792   -14567.446 
    7050       0.0705     302.5702    4.3067177  0.022973787 -0.0048622055    156.40196   -13202.239   -14416.097 
    7100        0.071     299.3538    4.2943756 -0.038593256 -0.053997232    154.73937   -13199.601    -14005.95 
    7150       0.0715    298.81214    4.3131319 -0.0081191815 -0.0079483561    154.45938   -13198.351   -14323.548 
    7200        0.072     295.6863    4.3864557  0.059047287 0.0044580732    152.84359   -13195.753   -14833.204 
    7250       0.0725    297.27148    4.4063438  0.045653863  0.015408832      153.663   -13195.586   -14891.355 
    7300        0.073    299.38865    4.4358999 0.0014608132 -0.017306231    154.75738   -13195.686   -14733.515 
    7350       0.0735    290.73974     4.408429 -0.064047633 -0.035998606    150.28666   -13190.212   -14361.276 
    7400        0.074    302.00472    4.4931442  0.011416173 0.0053813671    156.10966   -13195.031   -15033.139 
    7450       0.0745    294.85168     4.557427 0.0051496665  0.022049309    152.41217   -13190.314   -15282.087 
    7500        0.075    301.88859    4.5894949  0.033139672  0.069328478    156.04963   -13192.925   -15639.877 
    7550       0.0755     297.5099    4.5663242 -0.038995521 0.0032971071    153.78623   -13189.638   -15102.086 
    7600        0.076    298.31568    4.5921802 -0.063372415 -0.045561749    154.20275   -13189.018   -14944.153 
    7650       0.0765    296.24456    4.6514709 0.0002353339  0.044347649    153.13216   -13186.915   -15653.513 
    7700        0.077    298.61583    4.7174228  0.080141013  0.026329943     154.3579   -13187.094   -16079.646 
    7750       0.0775    296.88227    4.7113041  0.011836213 -0.017339271    153.46181   -13185.144   -15686.004 
    7800        0.078    297.66373    4.7108643 -0.026152627 -0.071395818    153.86575   -13184.483   -15377.719 
    7850       0.0785    297.43945     4.747447  0.007609644 -0.012017848    153.74982    -13183.31   -15810.129 
    7900        0.079     303.2084    4.8275115    0.0292304  0.053249567    156.73185   -13185.222   -16366.638 
    7950       0.0795    300.43551    4.8615577  0.018418101  0.030530829    155.29852   -13182.703   -16368.355 
    8000         0.08     299.0878     4.842675 0.0052733825  0.012886472    154.60187   -13180.927   -16202.783 
    8050       0.0805    293.88886    4.8324278 -0.033596666  -0.05693017    151.91448   -13177.155   -15806.337 
    8100        0.081    294.46435    4.8469824 -0.027018497 -0.021821017    152.21196   -13176.375   -15993.809 
    8150       0.0815    295.19897    4.9526809   0.02761122  0.041200085    152.59169   -13175.656   -16738.307 
    8200        0.082    301.05028    4.9807064  0.044367192  0.036960706     155.6163   -13177.578   -16873.447 
    8250       0.0825    298.78296     4.979555 -0.025464615 0.0026622451    154.44429   -13175.297   -16522.509 
    8300        0.083    296.40119    4.9786438 -0.020464941 -0.062070084    153.21313   -13172.946   -16320.362 
    8350       0.0835    299.03912    5.0506868 0.0023294838 0.0026369275    154.57671   -13173.191   -16852.177 
    8400        0.084    298.06976    5.0933235  0.050940726  0.019757533    154.07563   -13171.567   -17213.406 
    8450       0.0845    301.00545    5.1051285 -0.0082178585  0.020485098    155.59312   -13171.961   -17057.986 
    8500        0.085    304.24749    5.1433481 -0.015296029 0.0012690246    157.26897   -13172.502   -17097.737 
    8550       0.0855    294.87218    5.1158624  -0.04215948  0.012232156    152.42277   -13166.524   -16953.117 
    8600        0.086    298.45633    5.1958665  0.037536089  0.033385656    154.27546   -13167.235   -17555.961 
    8650       0.0865    295.64046    5.2202241  0.015956812  0.014373595     152.8199   -13164.627   -17501.848 
    8700        0.087    298.15464    5.2139624  0.011990829 -0.032874771    154.11951   -13164.775   -17310.261 
    8750       0.0875    299.03045    5.2598942 -0.0029225595 -0.052640581    154.57222   -13164.064    -17347.77 
    8800        0.088    295.88918    5.3099962  0.011473792 -0.024236267    152.94847   -13161.281   -17657.446 
    8850       0.0885    297.12819    5.3275932  0.070784645  0.021755817    153.58892   -13160.758   -18067.112 
    8900        0.089    297.96148    5.3420892 -0.021371444  0.017113287    154.01966   -13160.019    -17792.77 
    8950       0.0895    296.49858    5.3452259 -0.057600444 -0.015955234    153.26347   -13158.067   -17572.234 
    9000         0.09    303.91421    5.3976797 -0.033762808  0.053938147     157.0967   -13160.722   -18059.517 
    9050       0.0905    295.24551    5.4359956 -0.0016444335  0.057556104    152.61574   -13155.057   -18306.357 
    9100        0.091    302.62094    5.4906748 -0.0040504896  0.081034143    156.42819   -13157.689   -18558.862 
    9150       0.0915    294.54071    5.4533362 -0.023053454 -0.060088326    152.25143   -13152.311   -17900.648 
    9200        0.092    297.60319    5.5224928  0.027640682 -0.052165484    153.83446   -13152.671    -18326.56 
    9250       0.0925    296.40292    5.5450822  0.047491421 -0.016010227    153.21402    -13150.82   -18588.545 
    9300        0.093    297.26292    5.5742934    0.0727792 -0.042996254    153.65857   -13150.053   -18680.255 
    9350       0.0935    296.71774        5.583  0.017378849 -0.028197002    153.37676   -13148.559   -18573.939 
    9400        0.094    297.74753    5.6098907 -0.0031306675 -0.0021701795    153.90907   -13147.868   -18681.966 
    9450       0.0945    299.29072    5.6538533 -0.0037534334 0.0020736291    154.70676   -13147.429   -18840.578 
    9500        0.095    298.05924    5.6742555 0.0067655148  0.054949353     154.0702   -13145.542   -19119.901 
    9550       0.0955    294.98395    5.6841314 -0.040131119  0.020660619    152.48054   -13142.695   -18882.203 
    9600        0.096    291.63585     5.692132 -0.080999414 0.00093957163    150.74987    -13139.71   -18706.907 
    9650       0.0965    302.76938    5.7863655 0.0099749293   0.03879087    156.50492   -13144.211   -19450.438 
    9700        0.097    295.02974    5.7537734 0.0038676425  0.025107433    152.50421   -13138.953   -19275.828 
    9750       0.0975     295.3191    5.8047214  0.015114806 -0.027012626    152.65378   -13137.827   -19309.412 
    9800        0.098    294.81177    5.8245711 -0.0010885721 -0.047545318    152.39154   -13136.284   -19253.124 
    9850       0.0985    296.43744     5.828627 0.0096167064 -0.045618034    153.23187   -13135.842   -19308.752 
    9900        0.099       296.92    5.9230119  0.038171459  0.017569138    153.48131   -13134.802   -19929.175 
    9950       0.0995    298.50104    5.9442759  0.054075792  0.016387623    154.29857   -13134.325   -20049.131 
   10000          0.1    298.86361    5.9248068  0.019887736 -0.0049006257    154.48599   -13133.223   -19799.313 
   10050       0.1005    299.03141    5.9461669 -0.043067637   -0.0439127    154.57272   -13132.004   -19530.622 
   10100        0.101    297.37526    5.9953945 -0.025400792  0.012913656    153.71664   -13129.841   -19943.025 
   10150       0.1015     291.9105    6.0254926 -0.015194252  0.040582155    150.89184   -13125.691   -20169.602 
   10200        0.102    298.35661    6.0795339  0.022856233  0.074111461    154.22391   -13127.699   -20588.339 
   10250       0.1025    300.27267    6.0699601 -0.012513578  0.013769295    155.21434    -13127.37   -20237.386 
   10300        0.103    298.11756    6.0397421 -0.035606844 -0.043119169    154.10034   -13124.924   -19870.053 
   10350       0.1035    294.34052     6.070403 -0.029976191 -0.019003294    152.14795   -13121.649   -20071.412 
   10400        0.104    296.29141    6.1973321  0.058473343      0.01192    153.15638   -13121.309   -20892.418 
   10450       0.1045    300.17909     6.219397   0.07656096  0.066887011    155.16597   -13121.964   -21209.483 
   10500        0.105    293.48016    6.1277399  -0.02720385 -0.076251743    151.70322   -13117.161   -20080.948 
   10550       0.1055    295.63425    6.1700727 -0.075925824 -0.085045554    152.81669   -13116.919   -20030.338 
   10600        0.106    296.62177    6.2758008   0.03828479  0.021720694    153.32715   -13116.076   -21119.354 
   10650       0.1065    293.25375    6.2921208  0.069371934  0.076677911    151.58618   -13112.956   -21460.569 
   10700        0.107    296.10386    6.2765829 -0.0023688771 0.0014825404    153.05944   -13113.066   -20918.988 
   10750       0.1075    298.71857    6.2916501 -0.070216192  -0.04698067    154.41101   -13113.028   -20581.511 
   10800        0.108    297.04304    6.3367058 -0.052750888 0.0034537174    153.54491   -13110.786   -20958.029 
   10850       0.1085    295.01318    6.3822461  0.035714881  0.064795845    152.49565   -13108.344   -21609.189 
   10900        0.109    292.16587    6.3996059  0.011566314  0.027107772    151.02384   -13105.483   -21460.933 
   10950       0.1095    294.75626    6.4066175 -0.0064684895 -0.033833606    152.36285    -13105.42   -21221.051 
   11000         0.11    296.62051    6.4380854 -0.062539833 -0.049697224     153.3265   -13104.967   -21086.161 
   11050       0.1105    298.05359    6.5061638  0.037442439  0.017631863    154.06728   -13104.296   -21870.794 
   11100        0.111    295.15513     6.524747  0.040503209  0.022099795    152.56903   -13101.376   -21957.833 
   11150       0.1115    294.76867    6.5342784 -0.006222197 0.0033369327    152.36926   -13099.751    -21771.31 
   11200        0.112    295.17454    6.5542813 -0.0057109997 -0.029454988    152.57906   -13098.524   -21730.384 
[...]
   11650       0.1165    293.10839    6.7985108  0.012381359  0.031393858    151.51104   -13084.351    -22807.62 
   11700        0.117    299.78022    6.7975138 -0.0067049254  0.018327374    154.95979   -13086.322   -22697.121 
   11750       0.1175    292.62859    6.7736401 -0.058954513 -0.023201937    151.26303   -13081.145   -22304.946 
   11800        0.118     299.4977    6.8765224  0.039634078  0.035561137    154.81375   -13083.204   -23172.392 
   11850       0.1185    293.20394    6.8865031 -0.019088972  0.036707748    151.56043   -13078.456   -23013.739 
   11900        0.119    296.59787    6.8843802 0.0088962619 -0.0091777031     153.3148   -13078.707   -22946.996 
   11950       0.1195    297.96656    6.9216243 -0.012490956 -0.064296292    154.02229   -13077.902   -22816.124 
   12000         0.12     294.7428    6.9513785 -0.0034026387 -0.007970055    152.35589   -13074.722   -23133.353 
   12050       0.1205    290.46845    6.9377551  0.069906009  0.028952773    150.14643   -13070.993    -23455.38 
   12100        0.121    298.90898    7.0351392  0.056851513  0.019377394    154.50943   -13073.836    -23704.56 
   12150       0.1215    298.60028    7.0337599 -0.042468888 -0.044428864    154.34986   -13072.134   -23156.207 
   12200        0.122    292.81877    6.9643947 -0.058117677 -0.046998746    151.36134   -13067.621   -22864.261 
   12250       0.1225    297.45595    7.0835381  0.061729651  0.041505718    153.75835   -13068.485   -23955.912 
   12300        0.123    294.79766     7.131735  0.043035387  0.063526924    152.38425   -13065.555   -24127.658 
   12350       0.1235    296.01671    7.1120502 -0.020801103  0.022781045    153.01439   -13064.629   -23713.434 
   12400        0.124    294.72718    7.1301111 -0.090726575 -0.041680482    152.34781   -13062.393    -23325.68 
   12450       0.1245     296.6882    7.1747567 -0.0046392955  -0.00988118    153.36149   -13061.852   -23867.454 
   12500        0.125    293.22997    7.2325097  0.073781745  0.029784589    151.57389   -13058.482   -24453.587 
   12550       0.1255    297.39682    7.2327247  0.018310994  0.063161296    153.72778   -13059.065   -24380.657 
   12600        0.126    295.78754    7.1896816 -0.042402252 -0.030178751    152.89593   -13056.657   -23723.669 
   12650       0.1265    293.84285    7.2321264  -0.03164422 -0.051119197     151.8907   -13054.072    -23831.21 
   12700        0.127    295.45661    7.3297681  0.045247048  0.042213477    152.72487   -13053.306   -24724.095 
   12750       0.1275    295.28869    7.3263049  0.053500184  0.041949551    152.63806   -13051.621   -24739.182 
   12800        0.128    292.44804    7.2649605  -0.05772225 -0.042279972     151.1697   -13048.559   -23883.194 
   12850       0.1285    295.90076    7.3248492 -0.053238219 0.00029974148    152.95445   -13048.745   -24239.702 
   12900        0.129    295.75519    7.3763349   0.04606414  0.029973946    152.87921   -13047.066   -24841.243 
   12950       0.1295    289.14424    7.4054195  0.026768541 0.0035565741    149.46193   -13042.033   -24785.815 
   13000         0.13    288.87374    7.3925962  0.008730493  -0.05488857    149.32211   -13040.278   -24488.127 
   13050       0.1305    290.64282    7.4374018 -0.019555185 -0.027140845    150.23656   -13039.568   -24635.686 
   13100        0.131    289.26721    7.4528725 -0.020733191 -0.038663899    149.52549   -13037.228   -24644.918 
   13150       0.1315    291.65275    7.4685808  0.018323198 -0.017313828    150.75861   -13036.837   -24898.634 
   13200        0.132    294.82482    7.4741439 -0.0095419422   0.04208697    152.39829   -13036.846   -25022.296 
   13250       0.1325    296.70777     7.502468 -0.015908444  0.056082278     153.3716   -13036.176    -25142.14 
   13300        0.133    296.71473    7.5095886 -0.012411692  0.022008415     153.3752   -13034.535   -25063.951 
   13350       0.1335    291.16663    7.5118714 -0.029419732 -0.013309397    150.50733   -13030.024   -24897.141 
   13400        0.134    291.23011    7.5718872  0.019954042 -0.0071837947    150.54014   -13028.403   -25282.192 
   13450       0.1345    292.10404    7.5866477 -0.0015272976 0.0060505958    150.99189   -13027.191   -25303.903 
   13500        0.135    290.42981    7.6233624  0.015865468 -0.032968818    150.12646   -13024.658   -25354.197 
   13550       0.1355    294.56222    7.6136961  0.016718348  0.018414371    152.26254   -13025.123   -25496.096 
   13600        0.136    291.69536    7.6351093 -0.024569082 -0.021005703    150.78063   -13021.968   -25298.448 
   13650       0.1365    293.85017    7.6919033 0.0060341998 -0.0040600385    151.89448   -13021.402   -25646.258 
   13700        0.137    295.56131     7.717092 -0.0096511267   0.03462872    152.77899   -13020.602   -25806.899 
   13750       0.1375      287.123    7.6801648 -0.020043749 -0.018675426    148.41713   -13014.557   -25471.485 
   13800        0.138    295.79141    7.7395301  0.060253119 0.0045326111    152.89793   -13017.347   -26014.386 
   13850       0.1385    291.33056    7.7627927  0.012163459 -0.0012696054    150.59206   -13013.341   -25912.289 
   13900        0.139    297.81083    7.7844506 -0.011356659 -0.0064330357    153.94179   -13014.981    -25888.87 
   13950       0.1395    292.37535    7.8047983 0.0092948513  -0.02946613    151.13213   -13010.463   -25948.757 
   14000         0.14    294.68828     7.825351 0.0085562205   0.03500328    152.32771   -13009.943   -26229.702 
   14050       0.1405    293.46551    7.8287391 -0.0035919084 -0.0093770294    151.69564   -13007.599   -26052.567 
   14100        0.141    290.62832    7.8457155 -0.0046627622 -0.035604159    150.22907   -13004.421   -26018.162 
   14150       0.1415    290.11693    7.8566647  0.018197883  0.020612725    149.96473   -13002.437   -26318.251 
   14200        0.142    294.20634    7.8681165  0.031846604  0.024978012    152.07859   -13002.836    -26416.47 
   14250       0.1425    289.00146    7.8611367 -0.038732949 -0.055976574    149.38812   -12998.422    -25888.09 
   14300        0.143    292.24526    7.8646719 -0.041699642  0.014104113    151.06489   -12998.368   -26123.588 
   14350       0.1435    293.61653    7.9467478  0.024369126  0.038764485    151.77371   -12997.342   -26699.605 
   14400        0.144     294.1774    7.9424095 0.0038381937  0.048713211    152.06363   -12995.897    -26649.87 
   14450       0.1445    292.57724    7.9579771 -0.055642295 -0.035919152    151.23649   -12993.324   -26221.386 
   14500        0.145    287.54961    7.9476043 -0.032366857 -0.041583657    148.63765   -12988.988   -26245.513 
   14550       0.1455     292.2243    7.9807403  0.043628779  0.059969332    151.05405   -12989.659   -26947.795 
   14600        0.146    290.21379    7.9499301  0.016763428  0.035350518    150.01479   -12986.883    -26673.48 
   14650       0.1465    292.99617    7.9290759 0.0012273905 -0.027179499    151.45304   -12986.575   -26343.746 
   14700        0.147    284.86487    7.8935168 -0.054686822 -0.057626702    147.24988   -12980.625   -25937.344 
   14750       0.1475    288.89343    8.0155744  0.032396375 0.0085785464    149.33228   -12980.958   -26855.164 
   14800        0.148    291.86423    8.0559893   0.10413768  0.017559089    150.86792   -12980.721   -27258.953 
   14850       0.1485    289.65147    7.9948313 -0.021376519  -0.05557849    149.72412    -12977.82   -26392.921 
   14900        0.149    296.68465    8.0108304 -0.029759915 -0.0090283684    153.35965   -12979.681   -26573.474 
   14950       0.1495     286.6708    8.0406498 -0.0074084002 -0.00053357051    148.18338   -12972.732   -26775.693 
   15000         0.15    292.15719    8.0713083  0.048352547 0.0073919165    151.01936    -12973.79   -27090.176 
   15050       0.1505    295.38022    7.9708605  0.019100417   0.04046362    152.68538    -12973.69   -26768.082 
   15100        0.151    290.12846    7.9010822 -0.039864442 -0.036131097    149.97068   -12969.221   -26083.622 
   15150       0.1515    296.29827    7.8800689 -0.022349872  0.032784723    153.15993   -12970.665   -26301.679 
   15200        0.152    289.28152     7.774276 -0.061861636  0.066064086    149.53289   -12965.306   -25928.262 
   15250       0.1525    292.40924    7.6909693 0.0013729438  0.069479839    151.14965    -12965.24    -25872.74 
   15300        0.153    297.17534    7.5409741 0.0096488553 -0.044306647     153.6133   -12966.029   -25021.054 
   15350       0.1535    294.94752    7.3330916 -0.0064545248 -0.047574337    152.46171   -12963.227   -24263.542 
   15400        0.154    305.89949    7.0984761  0.054421783 -0.016047215    158.12291   -12967.303   -23789.502 
   15450       0.1545    306.68836    6.7664174  0.073968402  -0.01606388    158.53069   -12966.216    -22747.74 
   15500        0.155    312.26752    6.4029786  0.032019775 -0.029524404    161.41462   -12967.718    -21351.58 
   15550       0.1555    323.23856     6.081247 -0.002462433 -0.038480361    167.08567   -12972.115   -20134.347 
   15600        0.156    336.83072    5.7087372  0.005413395  0.018361148    174.11161   -12977.991   -19108.372 
   15650       0.1565    342.47615    5.2166528  0.019071582 -0.0027251393     177.0298   -12979.928   -17443.331 
   15700        0.157    350.04985    4.7853288 -0.015286532  0.042230132    180.94473   -12983.077   -16040.908 
   15750       0.1575    356.14761    4.4091659 -0.039969758  0.023422842    184.09673   -12985.643   -14642.063 
   15800        0.158    363.88778    4.0745356 -0.085946941 0.0023588014    188.09771    -12989.27   -13303.158 
   15850       0.1585    369.70633    3.8098832 -0.031263765   0.10524191    191.10539   -12992.117   -12946.204 
   15900        0.159    371.91447    3.6319357 -0.026300792  0.095136456     192.2468   -12993.315   -12335.905 
   15950       0.1595     371.3482    3.4261274 0.0087171989 -0.040293766    191.95409   -12993.123    -11315.17 
   16000         0.16    365.60893    3.2022482 -0.0015939436  0.025267276    188.98739     -12990.3   -10753.072 
   16050       0.1605    375.49453    3.0178985  0.031360647 -0.011993018    194.09738   -12995.604    -10124.22 
   16100        0.161    365.52583    2.8353585 -0.047053129   0.00651107    188.94444   -12990.655    -9316.055 
   16150       0.1615    377.46353    2.7878997 -0.035067525  0.082732379    195.11517   -12997.061   -9451.8818 
   16200        0.162     376.8333    2.6603675 -0.012483068   0.07222332     194.7894   -12997.041    -9067.026 
   16250       0.1625    375.86501     2.566246 -0.075814631 -0.0069139608    194.28888   -12996.839   -8278.3913 
   16300        0.163    385.47996    2.5112055  0.062978555 0.0084011178    199.25896   -13002.083   -8608.6171 
   16350       0.1635    391.87014    2.4094134  0.040463071  0.017086171    202.56211   -13005.724   -8223.2088 
   16400        0.164    394.51614    2.3482108  0.067041277 -0.083381533    203.92986   -13007.481   -7772.9017 
   16450       0.1645    401.48839    2.3435317  0.017473102  -0.06388741    207.53389    -13011.53    -7657.058 
   16500        0.165    397.52516    2.2959138  0.022260647  0.026367739    205.48525   -13010.013   -7815.1407 
   16550       0.1655    402.89418    2.2764107  0.052294418  0.024098391    208.26056   -13013.363   -7842.6782 
   16600        0.166    403.35652    2.2464047  0.011339711  0.044362847    208.49955   -13014.188   -7673.6908 
   16650       0.1665     407.6865    2.1854509 -0.078792255   0.02388899    210.73777    -13017.04   -7101.8255 
   16700        0.167    404.31055    2.0652091 -0.018272013  0.004959409     208.9927   -13015.948    -6839.655 
   16750       0.1675    404.35997    1.9878578   0.01559303  0.043315798    209.01825   -13016.664   -6822.5553 
   16800        0.168    401.46211    1.8557811  0.025237002  0.031016719    207.52031   -13015.884   -6373.4494 
   16850       0.1685    407.01705    1.8234039 0.00060881854  0.034483279    210.39172   -13019.495   -6194.9865 
   16900        0.169    399.17302    1.7321237  0.010045094 -0.033992532    206.33705   -13016.222   -5693.9208 
   16950       0.1695     407.6239    1.7174738 -0.011498893 -0.029556105    210.70541    -13021.33   -5588.0626 
   17000         0.17    407.05462    1.7363974  0.072605214  0.026178813    210.41114   -13021.832   -6117.2713 
   17050       0.1705    412.13614    1.6810345 -0.0035565178  0.019927222    213.03784   -13025.285   -5658.0173 
   17100        0.171    405.85152    1.6180167 -0.078919256 -0.024727436    209.78924   -13022.875   -5047.9001 
   17150       0.1715    412.01203    1.6030597   0.03469534 -0.026758888    212.97368   -13026.905   -5369.9871 
   17200        0.172    408.21275    1.7058909 0.0065921342  0.027475154    211.00979   -13025.786   -5799.8605 
   17250       0.1725    412.95605    1.6858821   0.12667133   0.04922325    213.46166   -13029.084   -6205.9222 
   17300        0.173    405.52627    1.6728627 -0.013450803 -0.0082297414    209.62112    -13026.11   -5503.9407 
   17350       0.1735    414.57818    1.7105414 -0.025263681  -0.11446188    214.30015   -13031.637   -5236.0526 
   17400        0.174    413.56344    1.7223648 0.0065334679 -0.010481606    213.77562   -13031.988   -5728.0557 
   17450       0.1745    412.03858    1.8296821   0.07170963  0.049730692    212.98741   -13032.074   -6503.7415 
   17500        0.175    409.71203    1.7765537  0.024910894  0.028715181    211.78479   -13031.765   -6100.5992 
   17550       0.1755    406.84208    1.7346622  -0.07090916 -0.033313174    210.30128   -13031.134   -5434.7996 
   17600        0.176    409.15043    1.7193298 -0.024643502 -0.0070873917    211.49449   -13033.198   -5625.3297 
   17650       0.1765    406.51108    1.6736388 -0.010514537  0.011186695    210.13018    -13032.71   -5581.0365 
   17700        0.177    411.93051    1.7193514  0.052112114  0.017552898    212.93154   -13036.397   -5963.3879 
   17750       0.1775    414.23049    1.6601821  0.029870761   0.04781079    214.12043   -13038.491   -5792.8789 
   17800        0.178    416.05412    1.7458867 -0.032520518   -0.0770581    215.06309   -13040.351   -5454.3602 
   17850       0.1785    411.12475     1.693013 -0.051532292  0.025151726    212.51504   -13038.697   -5555.4415 
   17900        0.179    412.30369    1.7252192 0.0055415767  0.059712795    213.12444   -13040.205   -5968.2453 
   17950       0.1795    411.76705    1.7827884 -0.0088834446   0.03980975    212.84705   -13040.817   -6045.7156 
   18000         0.18    403.35705    1.8267193 -0.062190885  0.038011821    208.49982   -13037.363   -6008.4674 
   18050       0.1805    413.87195    1.8614905  0.041429613 -0.0020839865    213.93509   -13043.636   -6336.1205 
   18100        0.181    411.18062    1.8383519  0.024564507  0.019888728    212.54392   -13043.097   -6276.0173 
   18150       0.1815     414.3606     1.862725  0.010777963  0.003967021    214.18769   -13045.594   -6258.2332 
   18200        0.182    412.35528    1.8534534 -0.019467606 -0.0030411833    213.15111   -13045.421   -6103.1488 
   18250       0.1825    413.58876      1.88362 -0.034143046  0.022625489    213.78871    -13046.93   -6240.3415 
   18300        0.183    406.15394    1.8801688 -0.0038542288  0.043667292    209.94557   -13043.967   -6399.9396 
   18350       0.1835    405.37596    1.9057132  0.064066541 -0.056583372    209.54342   -13044.417   -6377.3212 
   18400        0.184    411.27009    1.8888701   0.05940673 -0.001260332    212.59017   -13048.302    -6490.055 
   18450       0.1845     403.3514    1.8291205 -0.029147254  -0.01710297    208.49691   -13045.044    -5942.901 
   18500        0.185    418.15283    1.9232122 -0.027528539 -0.0066713587    216.14793   -13053.538   -6296.7076 
   18550       0.1855      408.898    1.9054635 -0.067115111 -0.0028280778      211.364   -13049.627   -6118.4009 
   18600        0.186    412.46636     1.886684  0.033676746   0.10588987    213.20853   -13052.343   -6754.1687 
   18650       0.1865     408.4687    1.9221728  0.045884002  0.027634176     211.1421   -13051.154   -6652.3033 
   18700        0.187    409.27312    1.9163839 -0.0059383606 -0.058789169    211.55791   -13052.415    -6172.188 
   18750       0.1875    413.53718    1.9211442  0.019201547  -0.11146062    213.76205   -13055.474   -6096.2837 
   18800        0.188    411.12947    1.9844703  0.061785322 -0.0049542032    212.51748    -13055.11   -6804.3381 
   18850       0.1885    406.12283    1.9750059  0.011456667   0.03086766    209.92949   -13053.375    -6724.434 
   18900        0.189    405.83894    1.9680075  0.014795051 -0.017545785    209.78274   -13054.075    -6550.856 
   18950       0.1895    409.48369    1.9046792  0.023463567 -0.026213808    211.66675   -13056.826   -6339.7631 
   19000         0.19    408.36826    1.8624711 -0.016697809  0.017558286    211.09017   -13057.116   -6211.1053 
   19050       0.1905     408.4176     1.865067 -0.064019808 -0.037028853    211.11568   -13058.007   -5880.0611 
   19100        0.191    408.88137    1.9536993 -0.027438654 -0.042324423    211.35541   -13059.098   -6279.7874 
   19150       0.1915    410.23925    1.9739046   0.10480496  0.044525132    212.05731   -13060.661   -7077.4491 
   19200        0.192    406.26554    2.0279847 -0.0099320406  0.063101552    210.00326   -13059.449   -6937.1806 
   19250       0.1925    406.61094    1.9666693 -0.041131849 -0.011004095     210.1818   -13060.445   -6381.7778 
   19300        0.193    405.39096     1.980197 -0.082751233  0.065885593    209.55118   -13060.626    -6544.438 
   19350       0.1935    402.81209    1.9850054 0.0071625963 -0.047585374    208.21813   -13060.119   -6481.9419 
   19400        0.194    413.54513    2.0579627  0.045481449   0.02213327    213.76616    -13066.48   -7085.2581 
   19450       0.1945     408.3487    2.0700824  0.027199406 -0.0033535667    211.08007   -13064.592   -6979.7607 
   19500        0.195    397.71009     2.052663 -0.034438405 -0.010643143    205.58085   -13059.871    -6691.938 
   19550       0.1955    408.68186     2.139567  0.043323208  0.001420928    211.25228   -13066.313   -7281.0371 
   19600        0.196    406.17895    2.1011214   0.01435648  0.010146463     209.9585   -13065.806   -7085.4144 
   19650       0.1965    404.44945    2.1043355    0.0521206 -0.041701275     209.0645   -13065.669   -7049.1828 
   19700        0.197    406.01062    2.1144839  0.003457124 -0.0066803702    209.87149   -13067.276   -7037.5355 
   19750       0.1975    397.33637    2.1063591  -0.05110373 -0.063030476    205.38767   -13063.547   -6640.7497 
   19800        0.198    404.87937    2.1409694  0.059978153  0.040446055    209.28673   -13068.203   -7471.3121 
   19850       0.1985    405.96628    2.2111131   0.04144697  0.017177958    209.84857   -13069.529   -7565.7935 
   19900        0.199    409.78045    2.1108421 -0.030548858  0.015356401    211.82016   -13072.273   -6985.4987 
   19950       0.1995    405.88309    2.0664935 -0.046470833 -0.004532015    209.80557   -13071.018   -6718.3022 
   20000          0.2    402.27544    2.0992157 -0.091657438  0.055303824    207.94073   -13069.924    -6876.207 
Loop time of 259.329 on 4 procs for 20000 steps with 4000 atoms

Pair  time (%) = 230.461 (88.8683)
Neigh time (%) = 0.454614 (0.175304)
Comm  time (%) = 21.0302 (8.10946)
Outpt time (%) = 0.0698561 (0.0269373)
Other time (%) = 7.31306 (2.81999)

Nlocal:    1000 ave 1010 max 994 min
Histogram: 1 1 0 1 0 0 0 0 0 1
Nghost:    3712.25 ave 3745 max 3687 min
Histogram: 1 0 1 0 1 0 0 0 0 1
Neighs:    68867 ave 71103 max 67388 min
Histogram: 1 1 0 0 1 0 0 0 0 1
FullNghs:  0 ave 0 max 0 min
Histogram: 4 0 0 0 0 0 0 0 0 0

Total # of neighbors = 275468
Ave neighs/atom = 68.867
Neighbor list builds = 82
Dangerous builds = 0

######################################
# SIMULATION DONE
print "All done"
All done
