
# ----------------------- ATOM DEFINITION ----------------------------
lattice		fcc ${latparam}
lattice		fcc 4.05
Lattice spacing in x,y,z = 4.05 4.05 4.05
region		whole block 0 10 0 10 0 10
create_box	1 whole
Created orthogonal box = (0 0 0) to (40.5 40.5 40.5)
  1 by 2 by 2 MPI processor grid
lattice 	fcc ${latparam} orient x 1 0 0 orient y 0 1 0 orient z 0 0 1
lattice 	fcc 4.05 orient x 1 0 0 orient y 0 1 0 orient z 0 0 1
Lattice spacing in x,y,z = 4.05 4.05 4.05
create_atoms	1 region whole
Created 4000 atoms

# ------------------------ FORCE FIELDS ------------------------------

#****************USE THIS TO TEST******************
pair_style	eam/rad
pair_coeff 			* * Al99.PC0.005.eam.alloy.rad.txt Al # pc = 0.5

# ------------------------- SETTINGS ---------------------------------
compute csym all centro/atom fcc
compute peratom all pe/atom

######################################
# EQUILIBRATION
reset_timestep	0
timestep	0.001 # default
# timestep	0.0001 # tiny time step
velocity all create 300 12345 mom yes rot no
fix 1 all npt temp 300 300 1 iso 0 0 1 drag 1

# Set thermo output
thermo 50
# thermo 1 # debug mode

# thermo_style custom step lx ly lz press pxx pyy pzz pe temp
# IMPLEMENTATION HERE

# VERSION add rad variables .v1 .v2
# thermo_style custom step lx ly lz press pxx pyy pzz pxxrad pyyrad pzzrad pe temp

# VERSION ublb separation .v3
thermo_style custom step lx ly lz press pxx pxxub pxxlb pyy pyyub pyylb pzz pzzub pzzlb pe temp

# Run for at least 10 picosecond (assuming 1 fs timestep)
run 	20000 # default
Memory usage per processor = 7.82687 Mbytes
Step Lx Ly Lz Press Pxx Pxxub Pxxlb Pyy Pyyub Pyylb Pzz Pzzub Pzzlb PotEng Temp 
       0         40.5         40.5         40.5    2496.1233    2446.9902    16.527418   -11.073597    2534.6541    16.527418   -11.073597    2506.7256    16.527418   -11.073597       -13440          300 
      50      40.5611      40.5611      40.5611    907.43706    837.10986    870.59072    843.13175    946.43161    980.68482     953.2205    938.76971     972.0413    944.57714   -13338.819    103.27149 
     100    40.636867    40.636867    40.636867   -4611.4186   -4606.0751   -4583.3142   -4610.3535   -4633.2987   -4609.6825   -4636.7194   -4594.8821   -4571.1447   -4598.1837   -13373.529    171.80729 
     150    40.566371    40.566371    40.566371    544.64066    509.57779    530.86198    503.46146    622.24374    643.52333    616.12449    502.10046    522.90237    495.50045   -13348.908    124.16109 
     200    40.511722    40.511722    40.511722    3547.2897    3643.2596     3655.828     3628.155    3485.9867      3500.08    3472.4051    3512.6228    3526.8631    3499.1887   -13355.216     137.9072 
     250    40.565785    40.565785    40.565785    166.93066    90.523527    101.40461    74.009108    218.10474    228.81001    201.41686    192.16371    202.87446    175.48118   -13359.502    146.72328 
     300    40.611235    40.611235    40.611235   -2466.5664   -2412.8394   -2402.1651   -2429.3398   -2483.9007   -2474.8257    -2501.998   -2502.9592   -2491.5725   -2518.7493   -13360.111    149.21075 
     350    40.571353    40.571353    40.571353   -408.34084   -482.42607    -469.3665   -496.72468   -346.38838   -332.95425   -360.31469   -396.20806   -384.01807   -411.37612   -13367.339    163.76556 
     400    40.532306    40.532306    40.532306    2225.5431    2279.8069    2296.2414    2268.6796    2296.6157    2311.1171    2283.5531    2100.2067    2116.7789    2089.2144   -13359.854    150.41108 
     450    40.566044    40.566044    40.566044    2.0377845   -40.092854   -25.888475   -53.278179   -31.888362   -18.126892   -45.516724     78.09457    90.774836    63.383949    -13363.08    157.36643 
     500    40.595966    40.595966    40.595966   -1611.3461   -1655.3283   -1640.0335   -1667.2804   -1479.2164   -1463.7857   -1491.0363   -1699.4934   -1685.7336   -1712.9812   -13359.404    151.32857 
     550    40.570848    40.570848    40.570848   -161.85418   -150.03728   -136.96793   -164.33692   -167.20465   -153.78591   -181.15438   -168.32062   -154.34986   -181.71784   -13360.736    154.75593 
     600    40.545092    40.545092    40.545092    1385.8336    1414.2998    1428.5655     1401.069    1433.0694    1447.0807    1419.5831    1310.1316    1324.4334    1296.9394   -13361.915    158.16074 
     650    40.566235    40.566235    40.566235    212.56633    184.02753    197.77474     170.3772    245.48283    258.33987    230.93948    208.18862     221.5334    194.12982   -13358.104    151.74194 
     700    40.589999    40.589999    40.589999   -1217.4105   -1343.5854    -1329.423   -1356.6988   -1126.2179   -1111.6844   -1138.9592   -1182.4283   -1169.6887   -1196.9688   -13360.206    156.93263 
     750    40.572933    40.572933    40.572933   -250.38158   -286.45411   -271.78347   -299.14219   -263.19279   -247.82622   -275.18769   -201.49783   -184.88374   -212.24392   -13360.538    158.57849 
     800    40.551356    40.551356    40.551356    1208.6566    1078.2928    1090.3026    1062.8303    1322.2307    1334.6605    1307.1835    1225.4462    1238.0827    1210.6076   -13357.161    153.20685 
     850    40.567647    40.567647    40.567647     35.88215    27.354765    41.498697    14.116568    95.437303    109.16924    81.787702   -15.145617   -1.7534101   -29.136058   -13362.171    163.91834 
     900    40.586566    40.586566    40.586566   -905.95525   -936.83022   -921.82611   -949.12126   -840.20578   -825.05922   -852.35314   -940.82976   -924.62892   -951.92244   -13360.501    161.82509 
     950    40.575685    40.575685    40.575685   -242.27646    -258.0676    -241.1839   -268.53787   -191.53537    -175.1582   -202.51515    -277.2264   -261.60697   -288.96296   -13355.043     152.3172 
    1000    40.557624    40.557624    40.557624    865.78368    854.28577    868.34792    840.91393     838.0004    851.41417    823.98112    905.06486    919.30958    891.87181   -13361.124    165.23426 
    1050    40.567354    40.567354    40.567354    296.20892     232.8234    247.75501    220.35675     412.4804    426.65312    399.24974    243.32297    258.96885    231.56851   -13352.949    150.47937 
    1100    40.584443    40.584443    40.584443   -762.38408   -853.89575   -839.34494    -866.6487   -674.30507   -659.41479   -686.72011   -758.95143   -746.05916   -773.36092   -13360.466    166.16585 
    1150    40.575983    40.575983    40.575983    -142.2806   -201.77341   -187.79965   -215.15486   -30.014093    -16.88438   -44.236978    -195.0543   -180.32302   -207.67388    -13353.75    154.27323 
    1200    40.562401    40.562401    40.562401    595.06575    539.95132    550.97635    523.55857    625.63845    639.36446    611.95025    619.60749    632.91429    605.49942    -13359.83    167.17798 
    1250    40.569413    40.569413    40.569413    166.79261    92.903564    107.35494    79.968655    250.18713    263.73947    236.35219    157.28713    171.84863    144.46155   -13356.017    160.90148 
    1300    40.581899    40.581899    40.581899   -560.61752   -582.11355   -566.72249   -594.03982   -449.93781     -435.445   -462.76988   -649.80119   -635.89633   -663.21794   -13357.596    165.08945 
    1350    40.575948    40.575948    40.575948    -187.6128   -340.24911   -326.03096   -353.38058   -119.43237   -104.59071   -131.94254   -103.15693   -87.820849   -115.17358   -13356.829    164.72703 
    1400    40.566127    40.566127    40.566127    565.86425    499.12344    512.61348    485.20908    641.64272    657.65773     630.2544    556.82658    570.73985    543.33355   -13354.386    161.14085 
    1450    40.572988    40.572988    40.572988    -8.561472    -54.13345   -39.508157   -66.875006   -9.1404528    5.8841989    -21.48077    37.589487     53.08405    25.719127   -13356.765    166.86433 
    1500    40.579794    40.579794    40.579794   -267.41446   -332.77441   -319.26968   -346.60712   -176.15609   -163.34302   -190.67878   -293.31287    -280.0236   -307.36057   -13353.672    162.03422 
    1550    40.576834    40.576834    40.576834   -220.87916   -335.60203   -321.61164   -348.95672   -207.98546   -193.58335   -220.93054   -119.05001   -103.15293   -130.49915    -13357.33    170.23169 
    1600     40.56902     40.56902     40.56902    377.81634    358.40758     372.5969    345.20297    458.79305    472.85261    445.45915    316.24838    331.33116    303.93876   -13352.705    162.42694 
    1650    40.573333    40.573333    40.573333    121.60248    65.830518    81.234604    53.870087    161.88969     178.0412    150.67391    137.08722    150.31837    122.95086     -13355.4    168.76756 
    1700    40.580701    40.580701    40.580701   -351.25931   -404.48696   -391.21565   -418.55025   -356.71365   -343.98001   -371.31384   -292.57732   -280.16395   -307.50182   -13352.169    163.67705 
    1750    40.576849    40.576849    40.576849   -32.167301   -50.678233   -34.507532   -61.855987   -63.920617   -49.134005   -76.481548    18.096946    34.814538    7.4649904   -13355.552    171.33506 
    1800    40.570697    40.570697    40.570697    303.86959    205.87186    218.12426    190.73979    337.67696     354.0807    326.69644    368.05996    380.65204    353.26418   -13351.254    164.18628 
    1850    40.573832    40.573832    40.573832    241.25661    160.65476    174.36686    147.00146    291.81867    304.59307    277.22306    271.29639     285.1316    257.76384   -13351.989    166.73526 
    1900    40.582525    40.582525    40.582525   -408.49907   -517.11515   -503.23095   -530.54991    -372.3218   -359.67399   -386.99169   -336.06028   -323.26539   -350.58595    -13355.88     175.4205 
    1950    40.579035    40.579035    40.579035   -121.18037    -78.31077   -64.508849   -91.856436   -80.564036   -65.062553    -92.41311    -204.6663    -189.4603    -216.8076   -13350.032    165.23107 
    2000     40.57151     40.57151     40.57151    262.28188    197.36064    211.17835    183.80277    289.69509    304.69455    277.32058     299.7899    314.58377    287.21046   -13356.433    178.77171 
    2050     40.57415     40.57415     40.57415    291.00696    438.91963     455.7284    428.35883    282.96388    297.65805    270.28698    151.13737    166.54907    139.17584   -13349.034    165.59547 
    2100    40.583714    40.583714    40.583714   -349.64824   -571.69905   -557.79404   -585.11246   -278.61218    -264.8176   -292.14115   -198.63349   -185.45352   -212.77219    -13352.82     174.0797 
    2150    40.580896    40.580896    40.580896   -115.46102   -185.78203   -173.61895   -200.95898   -83.935203   -70.835649   -98.175487   -76.665824   -61.157677   -88.503454   -13348.342    166.55152 
    2200    40.573232    40.573232    40.573232    266.96923    327.53375    342.44727    315.07687    145.53519    159.00487    131.63695    327.83874    341.50993    314.14098   -13352.358    175.46306 
    2250    40.574827    40.574827    40.574827    151.21048    253.25725    267.06306    239.69813    168.12758    181.48181    154.11878    32.246605    44.847302    17.481257   -13351.993    175.91954 
    2300    40.582519    40.582519    40.582519   -229.92012   -262.55007   -248.02788   -275.35854   -227.80284    -213.2198   -240.54775   -199.40745   -182.95347   -210.27879   -13351.098    175.32277 
    2350    40.582472    40.582472    40.582472   -261.47493   -230.22332   -215.94024   -243.26564   -223.18601   -208.57776   -235.90178   -331.01546   -316.27021   -343.59855   -13351.015     176.3209 
    2400    40.575117    40.575117    40.575117    304.99838    318.71288    334.37694    307.01132    230.82389    246.79602    219.42591    365.45835    379.45691     352.0861    -13348.88    173.33846 
    2450    40.576041    40.576041    40.576041    115.98281   -49.519186   -35.728601   -63.089477    231.81908    244.68609    217.32347    165.64854    179.64624    152.28433   -13349.774    176.22576 
    2500    40.581993    40.581993    40.581993    -86.32248   -223.14465   -208.34995    -235.6825   -50.962736   -35.420972   -62.752165    15.139951    30.654934    3.3164739   -13348.601    175.08643 
    2550    40.583873    40.583873    40.583873   -280.78867    -329.5054    -313.6988   -341.01751   -351.60669   -336.55806   -363.87704   -161.25393   -147.05593   -174.38107   -13350.803    180.51146 
    2600    40.577203    40.577203    40.577203    317.49535    231.68198    244.03126    216.66876    393.67729    406.35792    378.99847    327.12677     341.2995    313.93796    -13345.69    171.77884 
    2650    40.578933    40.578933    40.578933    13.030925    144.96731    159.18535    131.83575   -44.713472   -30.022749   -57.372043   -61.161069   -46.962442   -74.311466   -13350.912    183.01571 
    2700    40.583518    40.583518    40.583518   -174.83865   -293.93299    -278.7988   -306.12748   -111.84152   -97.470267   -124.79881   -118.74145   -105.77181   -133.10269   -13346.798    176.21518 
    2750    40.582481    40.582481    40.582481   -39.748764   -65.184794   -50.925709   -78.257233    -87.13603   -73.272417   -100.60216    33.074533    49.445835    22.110255   -13348.669    180.97912 
    2800    40.578705    40.578705    40.578705    108.86451   -19.945463   -7.7023869   -35.053708    191.66526    204.81131    177.45876    154.87373    168.27178    140.91642   -13346.376    177.70923 
    2850    40.579322    40.579322    40.579322    124.53218    81.912131    97.145881    69.799018    124.60452    139.18703    111.84022     167.0799    180.21132    152.85994   -13349.584    185.05983 
    2900    40.584645    40.584645    40.584645   -69.825092    -152.5521    -136.6821   -164.00669   -33.708358   -17.490961   -44.815669   -23.214815   -7.6966435   -35.024393   -13345.868     179.0187 
    2950    40.585359    40.585359    40.585359   -182.56258   -154.04171   -141.10355   -168.41992   -313.08375     -299.791   -327.10891   -80.562296   -69.453632   -96.778574   -13345.484    179.44392 
    3000    40.580393    40.580393    40.580393    103.06038     17.74205    32.144159    4.8011172    199.86076    212.30603    184.96421    91.578338    105.00412    77.656993   -13349.988    189.30398 
    3050    40.580507    40.580507    40.580507    62.168107    44.094515    57.306845    29.959543    20.509683    36.349319    9.0024229    121.90012     138.6143    111.26701   -13345.218    181.21565 
    3100    40.584708    40.584708    40.584708   -107.42179   -223.08689   -208.46277   -235.78886   -59.455111   -45.883842    -73.21183   -39.723375    -25.57853   -52.907213   -13347.434     186.6605 
    3150    40.585857    40.585857    40.585857   -139.90607   -193.02274   -177.65115   -204.97067   -102.84206   -87.173991   -114.49615    -123.8534   -106.32411   -133.64456   -13344.327    181.78994 
    3200    40.582817    40.582817    40.582817    56.136466   -25.815173    -12.26522   -39.596489    83.857537     96.98407    69.649983    110.36703    125.21536    97.880746   -13346.758    187.66531 
    3250    40.582883    40.582883    40.582883    202.40337    154.08445    170.09673    142.75978    136.98617    152.60437    125.26915    316.13948    329.63221    302.29121   -13343.925    183.32635 
    3300    40.587578    40.587578    40.587578    -209.4339   -371.94849   -357.92032   -385.23062   -87.698913   -73.166847   -100.47829   -168.65429   -154.49199   -181.80383   -13345.062    186.68197 
    3350    40.586577    40.586577    40.586577   -9.0566859   -69.573038   -56.834427    -84.15271   -16.305688   -3.5303627   -30.847899    58.708669    72.101433    44.780969    -13343.41    184.64018 
    3400    40.584833    40.584833    40.584833    -4.464904   -169.79656   -156.18993   -183.51317    46.672382    61.211806    33.887237    109.72947    123.37774    96.051647   -13346.346    191.46455 
    3450    40.585451    40.585451    40.585451    9.8032381   -98.559471   -84.436156   -111.75723    71.647379    86.070395     58.74358    56.321806    71.391549    44.069991   -13344.024    188.12534 
    3500    40.587697    40.587697    40.587697   -73.255431   -198.59139   -182.90368   -210.21492   -60.277768   -45.018574    -72.32807    39.102863    53.315864    26.003584   -13344.644    190.47515 
    3550    40.586958    40.586958    40.586958    -56.96485   -70.538578   -57.137298   -84.458411    6.9900731    21.504754   -5.8127476   -107.34605   -92.659833   -119.97972   -13342.497     187.4769 
    3600    40.585183    40.585183    40.585183    109.67337    96.750394    111.01671    83.685278    58.529928    73.126034    45.793297    173.73977    189.11556    161.78679   -13342.391    188.41229 
    3650    40.586887    40.586887    40.586887   -3.9723187   -11.668849    5.3393461   -21.981984   -45.333257   -31.216065   -58.532411    45.085149    59.818876    32.497869   -13342.044    188.88701 
    3700    40.588496    40.588496    40.588496   -27.142131   -83.336603   -69.247541   -96.554899   -12.131481    1.6171879   -25.693867    14.041689    28.550328    1.2398287   -13342.511    190.95338 
    3750    40.588371    40.588371    40.588371   -6.0911329    43.936973    59.265547    31.956965   -56.088694   -42.020037   -69.327682   -6.1216783    8.7820742   -18.527213   -13342.317    191.72699 
    3800    40.587518    40.587518    40.587518    21.179747   -96.321442   -81.395324   -108.71142    156.68462     171.7038    144.38521    3.1760619    16.697159   -10.619714    -13342.31    192.86572 
    3850    40.588168    40.588168    40.588168    103.71552    51.378646    67.409571    40.096888    75.437151     90.81081    63.495389    184.33078    201.30631    173.98488   -13339.435    188.43341 
    3900    40.590071    40.590071    40.590071   -61.991803    41.084916    53.939944    26.632121   -163.63867   -149.24313   -176.54866   -63.421652   -49.654404   -76.960614   -13340.244    191.15887 
    3950     40.58905     40.58905     40.58905    26.629811   -116.89505   -102.88285   -130.19208    111.68117    125.52108    98.209735    85.103306    99.595641    72.280768   -13340.459    192.71663 
    4000     40.58814     40.58814     40.58814    64.030856    18.996702    33.572649    6.2556083    37.882754    51.283082    23.964547    135.21311    149.89742    122.58079   -13340.476    193.89746 
    4050     40.58928     40.58928     40.58928    51.730888    26.058107    38.931382    11.621073    48.279046    63.430085    36.117558    80.855511    93.032018    65.720953   -13339.217    192.61086 
    4100    40.591447    40.591447    40.591447    -69.41407   -80.629256   -67.463436   -94.759337   -72.506139   -59.421202   -86.718696   -55.106814    -41.14141   -68.437469   -13342.948    200.98044 
    4150    40.591167    40.591167    40.591167     -59.3496   -170.66274   -154.80101   -182.10718   -23.297654   -8.6274431   -35.933588    15.911595     32.38037    5.0760109    -13338.58    193.66416 
    4200    40.589402    40.589402    40.589402    126.45049    102.31182    116.29729    88.979127    28.361074     42.95164    15.637153    248.67858    262.03824    234.72086   -13337.074    191.89142 
    4250    40.590375    40.590375    40.590375   -5.8786185    -95.14102   -81.257303   -108.56027    71.464313    83.712114    56.405539    6.0408519    19.503326   -7.8022533   -13339.822    198.35283 
    4300    40.592312    40.592312    40.592312   -99.932489   -134.35608   -119.07705   -146.37137   -92.003546   -77.642744   -104.94074   -73.437843   -59.098989   -86.397052   -13339.728    199.31371 
    4350    40.591432    40.591432    40.591432    30.669897   -17.453823    -2.988541   -30.290392    116.38325    130.75341    103.45074   -6.9197307    7.0601243   -20.242191   -13337.239    195.64072 
    4400    40.590868    40.590868    40.590868    6.1809803   -68.690877   -55.359036   -82.659654    32.701826    47.410017    20.107457    54.531992    69.050331    41.745554   -13340.043     202.2069 
    4450    40.592123    40.592123    40.592123   -2.7294806    31.335042    45.873178    18.573987   -35.521345   -22.295291   -49.595088   -4.0021387    11.904064     -15.3962   -13337.875    199.15199 
    4500    40.593642    40.593642    40.593642   -65.462705    36.313648    51.721853    24.427421   -97.154892    -81.62853   -108.92117   -135.54687   -121.85634   -149.14777    -13337.41     199.3838 
    4550    40.592338    40.592338    40.592338   -64.277171   -161.69941   -148.30602   -175.60191   -86.840811   -71.866591   -99.166054    55.708711    70.845526    43.544908   -13338.207    202.07086 
    4600    40.590278    40.590278    40.590278     249.1077    320.61637     335.1882    307.87553    284.38178    300.43678    273.12404    142.32493    157.71945    130.40421   -13335.472    197.91016 
    4650    40.594313    40.594313    40.594313   -36.483052   -43.388388   -29.034354   -56.322401     7.304162    21.053882   -6.2382804   -73.364929   -59.217307   -86.504193   -13336.259    200.57068 
    4700    40.596271    40.596271    40.596271   -162.12355   -160.59482   -146.96999   -174.24845   -175.19352   -161.08919   -188.37026   -150.58232   -137.18034   -164.46317   -13336.155    201.50807 
    4750    40.592916    40.592916    40.592916    73.064448    98.496599    112.95299    85.654315    218.68878    232.59307    205.29181   -97.992039   -84.123765   -111.41669   -13336.665     203.6226 
    4800    40.592243    40.592243    40.592243    93.558524    177.60258    191.75918    164.45998   -87.323114   -72.715659   -100.01559    190.39611    206.06544     178.7657   -13336.604    204.63746 
    4850    40.595451    40.595451    40.595451    4.2171739   -108.36622   -93.046351   -120.33143    56.758562    71.240047    43.953116    64.259175    79.382026    52.092526   -13334.982    202.63372 
    4900     40.59738     40.59738     40.59738   -207.49532   -38.513481    -23.69974   -50.977245   -236.77389   -222.37095   -249.64919   -347.19859   -330.53201   -357.80895   -13335.657    205.06988 
    4950    40.592949    40.592949    40.592949    160.16595    79.901741    94.632364    67.333136    153.84852    168.65417    141.35367    246.74758    260.15172     232.8455   -13333.532    202.08895 
    5000    40.593071    40.593071    40.593071    183.41074     268.5787     283.0244    255.72219     243.1868    258.65265    231.35366    38.466717    50.533998    23.235974   -13334.242    204.58527 
    5050    40.598517    40.598517    40.598517   -115.69735   -166.07939    -151.7127   -178.98024     -169.547   -154.13563   -181.41199   -11.465649    3.3341288   -23.940406   -13334.019    205.27643 
    5100     40.59878     40.59878     40.59878   -111.70343    -8.370906    5.4057079   -21.869537   -166.12906   -153.75934   -181.03096   -160.61033   -146.10879   -173.37934   -13332.452    203.37832 
    5150    40.594255    40.594255    40.594255    96.931121    101.97383    116.24818    88.956912    87.628943    99.909529    72.619162    101.19059    116.59703    89.304361   -13334.964    209.35602 
    5200    40.594043    40.594043    40.594043    196.29774    273.67141    289.24107     261.9458    221.69784    238.22676     210.9361    93.523963    109.40453    82.111523   -13335.021    210.58986 
    5250     40.59947     40.59947     40.59947   -89.380203   -116.97376   -103.40879   -130.67677   -109.49403   -94.996879   -122.27124    -41.67282    -25.83862   -53.108931   -13330.257    202.50162 
    5300    40.599859    40.599859    40.599859   -145.25531   -136.63669   -122.33931   -149.60752   -209.45351   -194.31693   -221.58255   -89.675735    -75.64542    -102.9137   -13332.957    208.84095 
    5350    40.595213    40.595213    40.595213    222.90062    257.82359    272.68547    245.39512    316.73027    330.19791    302.90578    94.147998    107.81353    80.525215   -13332.065    208.23568 
    5400    40.596174    40.596174    40.596174    152.99394    182.46696    197.04853    169.76308    168.26953    181.43373    154.14627    108.24535      121.503    94.215837   -13331.528    208.31029 
    5450    40.601169    40.601169    40.601169   -137.60144   -286.80303   -274.45169   -301.71461   -30.046473   -15.964141   -43.230428   -95.954809    -81.96477    -109.2298   -13330.969    208.33875 
    5500    40.601195    40.601195    40.601195   -223.23281   -155.64611   -142.33075   -169.58954   -294.77355   -280.51546   -307.77558   -219.27877   -205.89686   -233.15764   -13333.433    214.21786 
    5550    40.595615    40.595615    40.595615    182.19163    236.97313    250.58163    223.29421    219.29512    233.84652    206.55896    90.306631    106.17888    78.892689   -13332.625    213.77091 
    5600     40.59647     40.59647     40.59647    157.71549    95.081188    110.01459    82.732309    126.56426    140.92321    113.63448    251.50101    268.59649    241.30642    -13331.02    211.77575 
    5650    40.602086    40.602086    40.602086   -122.48126   -162.13077   -145.64156   -172.90315   -127.35932   -112.62782   -139.89333   -77.953682   -64.937193   -92.202169   -13328.959    208.89658 
    5700    40.602031    40.602031    40.602031   -129.57349   -144.97713   -130.79914   -158.05509    -92.19506   -77.468531   -104.72562   -151.54828   -137.90741   -165.16763   -13330.973    213.90323 
    5750    40.597351    40.597351    40.597351    249.95841     130.2933    145.26571     117.9856    256.42866    269.63365    242.34877    363.15327    379.29943    352.01293   -13329.355    211.87752 
    5800    40.599001    40.599001    40.599001    81.368288    70.461749    85.289343    58.014842    220.52608    234.10181    206.82615   -46.882963   -34.576928   -61.851906    -13329.51    213.28364 
    5850    40.603186    40.603186    40.603186   -204.96413   -200.81552   -188.77733   -216.02855   -191.63639   -177.72289   -204.98222   -222.44049   -209.21962   -236.47497   -13330.974    217.21937 
    5900    40.602446    40.602446    40.602446   -126.97389   -248.41884   -233.34966   -260.60953   -16.958909   0.96648039   -26.296147   -115.54392   -100.53933   -127.80297    -13329.54    215.52932 
    5950    40.598403    40.598403    40.598403     257.9828    272.70332    287.63725     260.3571    348.64877    362.63234    335.35066    152.59632    166.94291    139.66176   -13327.614    212.91421 
    6000     40.60021     40.60021     40.60021    86.846298    101.33594    115.39173    88.121901   -18.435667   -4.6185831   -31.893483    177.63862    192.02309    164.74811   -13327.324    213.44455 
    6050     40.60381     40.60381     40.60381     -147.965   -193.76594   -180.11666   -207.36761   -73.546053   -60.521616   -87.773853   -176.58301   -163.45972   -190.71182   -13330.172    220.05867 
    6100    40.602318    40.602318    40.602318    -26.95951    24.115571    35.602164    8.3390108    -126.5007   -112.07375    -139.3376    21.506596    35.734931    8.4704954   -13327.624    216.21915 
    6150    40.600005    40.600005    40.600005    91.858136   -57.062472   -43.087371   -70.355401     204.7372    217.38526    190.11258    127.89968     144.2109    116.93967   -13329.971    221.84627 
    6200    40.601871    40.601871    40.601871     18.81411    18.213485    32.975481    5.7104078    68.835547    84.467836    57.199509   -30.606703   -17.071015   -44.337292   -13326.581     216.3745 
    6250    40.604737    40.604737    40.604737   -124.00793   -72.865587   -57.878397   -85.125332   -231.27249    -217.0683   -244.31923   -67.885715   -52.729809   -79.983696    -13327.32    218.88695 
    6300    40.603226    40.603226    40.603226    38.479186    -71.27144   -57.371382   -84.626133     210.4996    223.97373    196.71472   -23.790601   -10.866866   -38.122943   -13327.339     220.0188 
    6350    40.602348    40.602348    40.602348    53.655171    168.57174    180.48963    153.22908   -65.580559   -50.766322   -78.027665    57.974335     71.54634    44.284746   -13327.803    222.00053 
    6400    40.604389    40.604389    40.604389   -55.165601   -243.02272    -228.3537   -255.60598    81.803234    97.002328    69.743206   -4.2773159    9.2064616   -18.048709    -13327.19    221.89227 
    6450    40.605242    40.605242    40.605242   -103.23012   -18.394609   -4.7921772   -32.041572   -201.09066   -188.01933   -215.27057   -90.205083   -74.152781   -101.40793   -13326.925    222.45568 
    6500    40.603815    40.603815    40.603815    39.068389   -146.98714   -131.61679   -158.87383     -28.4868   -12.535248   -39.790634    292.67911    307.75002    280.48779   -13326.809    223.30103 
    6550     40.60387     40.60387     40.60387    22.403565    29.280286    45.226393    17.966447    75.786435    90.703983    63.444384   -37.856025   -21.636242   -48.895279   -13324.708    220.30764 
    6600     40.60543     40.60543     40.60543    36.934272   -27.131059   -11.881031   -39.130542    31.251669    46.414695    19.161278     106.6822    120.50463    93.255932   -13325.152    222.24729 
    6650    40.606492    40.606492    40.606492    27.935899   -38.026677   -23.838578   -51.084011    291.58289     305.9993    278.75014   -169.74852   -156.92663   -184.17479   -13323.272    219.68455 
    6700    40.605902    40.605902    40.605902   -2.8302171   -32.479587   -19.115022   -46.360491   -15.290284   -2.4078665   -29.653123    39.279221    53.063159    25.814626   -13325.483    225.03079 
    6750    40.605041    40.605041    40.605041    116.28823    11.166754    24.018406   -3.2323783    118.66357    132.13233    104.87789    219.03438    232.06279    204.80424     -13324.7    224.58162 
    6800    40.606317    40.606317    40.606317   -94.135085   -116.06994   -104.39418   -131.64024   -53.083775   -39.367155   -66.617176   -113.25154   -99.625137    -126.8759   -13324.612    225.46738 
    6850    40.606909    40.606909    40.606909   -131.72414   -177.87527   -164.56918   -191.80983   -112.67255   -95.692512   -122.93779   -104.62461   -90.580536   -117.82407   -13327.361    231.83937 
    6900    40.606457    40.606457    40.606457    38.770044   -42.543621   -26.260333    -53.50874    139.77117    154.73135    127.48284    19.082584    34.201649    6.9563387    -13323.81    226.02987 
    6950    40.607088    40.607088    40.607088    -35.87355   -57.864929   -42.357605    -69.59822   -99.363756   -86.823847   -114.06378    49.608035    63.842305    36.600545   -13325.976    231.28561 
    7000    40.607798    40.607798    40.607798   -21.517973   -27.074967   -14.482739   -41.729725    68.888779    82.701479    55.453488   -106.36773   -91.462179   -118.70634   -13321.758    224.17335 
    7050    40.608361    40.608361    40.608361   -85.333283   -62.294957    -47.38724    -74.62603   -78.471956   -64.251936   -91.492298   -115.23294   -101.61819   -128.85498   -13324.227    229.99186 
    7100    40.607551    40.607551    40.607551  -0.32340728   -15.680349   -1.8715806   -29.110977    51.728357    66.174664     38.93009    -37.01823   -22.375881   -49.618649   -13323.223    229.10019 
    7150     40.60782     40.60782     40.60782    20.921777    45.317835    58.506573    31.265757   -55.509065    -39.77367   -67.013685    72.956561    86.827447    59.585067   -13323.207    230.11782 
    7200    40.609482    40.609482    40.609482   -77.821672   -101.91746   -87.237116   -114.46844    4.9611119    19.197055   -8.0371652   -136.50867   -120.07168   -147.30767   -13323.495    231.72021 
    7250    40.609913    40.609913    40.609913    50.433017   0.56460385    16.732888   -10.500489    75.008988    89.618217    62.386169     75.72546    88.753236    61.519748   -13321.183    228.29296 
    7300     40.60956     40.60956     40.60956    -69.90714   -13.571925  -0.07060747   -27.305567   -179.09254   -163.89559   -191.13286   -17.056953   -1.4258282   -28.662428   -13321.826    230.56804 
    7350    40.608273    40.608273    40.608273    147.86894    124.22491    140.25521    113.01041    181.66507    194.62574    167.37642    137.71684    150.59812    123.35458   -13319.822    227.72576 
    7400     40.61072     40.61072     40.61072   -38.902497   -22.541514   -9.0638972   -36.296629   -63.916036   -52.372542   -79.603276   -30.249939   -15.972652   -43.203647   -13321.343    231.69891 
    7450      40.6122      40.6122      40.6122   -125.41163   -226.57028   -211.35971   -238.57509    -33.61997   -15.801838   -43.021546   -116.04465   -104.65107   -131.87026   -13322.895    235.72868 
    7500    40.610108    40.610108    40.610108   0.23229987   -85.457416   -71.050574   -98.280077    5.8911509    19.265629   -7.9668547    80.263165    94.971147    67.738177   -13321.055    233.20319 
    7550    40.608593    40.608593    40.608593    216.78304    152.03962    166.26468     139.0212    265.65517    281.40674    254.16296    232.65434     248.8879    221.64202   -13319.725    231.64868 
    7600    40.612333    40.612333    40.612333   -46.447022   -71.347699   -57.617229   -84.839234    11.081953    24.575261   -2.6472666    -79.07532   -63.968528   -91.190535    -13319.66    232.54909 
    7650    40.614101    40.614101    40.614101    8.5688691   -63.097679   -47.862987   -75.077038    126.74828    141.90245    114.68311   -37.943999   -24.221501   -51.440503   -13317.293     228.9811 
    7700    40.612387    40.612387    40.612387   -98.768505   -57.973541   -44.261603   -71.481342   -144.42907   -132.07793   -159.30182   -93.902904   -79.080452    -106.3054   -13319.588    234.44054 
    7750    40.607968    40.607968    40.607968    199.50031    202.77634    216.88719    189.64265    254.41477    267.64102    240.39547    141.30983    152.93629    125.69476   -13320.441    237.10839 
    7800    40.611213    40.611213    40.611213    10.113906    81.539417    95.006676    67.781196    -64.43268   -50.032942   -77.264727     13.23498    28.247257    1.0159424   -13320.135    237.51591 
    7850    40.615802    40.615802    40.615802    -190.8177   -123.93483   -109.99529   -137.20377   -155.49397   -140.58967     -167.804   -293.02431   -279.30311   -306.51232   -13316.958    232.37563 
    7900    40.614071    40.614071    40.614071   -62.814506    -179.3342   -165.65735   -192.86819   -47.023971   -32.817798   -60.035853    37.914647    52.387272    25.168681   -13319.654    238.59408 
    7950    40.610522    40.610522    40.610522     61.91862    100.38714    113.48975    86.253018    136.28653    151.41877    124.18471   -50.917809   -37.552794    -64.78426   -13320.447    241.13365 
    8000    40.612416    40.612416    40.612416    54.480615    36.677358    51.040891    23.811752    96.889371    113.69999    86.470101    29.875117    47.530954    20.304298   -13318.108    237.59574 
    8050    40.616739    40.616739    40.616739   -201.42892   -220.49972   -205.34149   -232.54491   -266.56184   -252.61772    -279.8229   -117.22521   -103.24955   -130.45637   -13317.484     237.3978 
    8100    40.613917    40.613917    40.613917   -29.516087   -62.473189   -48.026176   -75.242811    8.6103831     23.45202   -3.7675094   -34.685456   -21.622701   -48.837296   -13318.824    240.98117 
    8150    40.611079    40.611079    40.611079    233.41268     250.2191    265.41508    238.18143    199.26147    213.79723    186.56088    250.75748    267.06038    239.82556   -13316.499    237.46563 
    8200    40.615557    40.615557    40.615557   -73.482497   -143.76325   -129.80614   -157.01243    121.83238    137.02235    109.80957   -198.51662   -184.68665   -211.89303   -13318.206    241.75524 
    8250    40.618041    40.618041    40.618041   -99.554299    28.475224    42.728929    15.523247   -164.46411    -149.7772   -176.98308   -162.67401   -148.77647   -175.97839    -13314.28    235.13872 
    8300    40.614975    40.614975    40.614975    28.031927   -144.03934   -130.80298   -158.01528    205.83186    219.61166    192.39346    22.303256    36.312385    9.0970916   -13316.211    239.85171 
    8350    40.611951    40.611951    40.611951    171.74974    263.70158    279.58691    252.35842    140.68604    156.24139    129.01342    110.86162    124.06589    96.831913   -13316.616    241.61323 
    8400    40.614453    40.614453    40.614453    143.17086  -0.11537715    13.221105   -13.997749    138.95256    152.86643    125.64394     290.6754    303.48119    276.25892   -13313.361    236.28983 
    8450    40.618979    40.618979    40.618979   -283.99859   -222.64095   -210.42621   -237.62115   -181.34927   -167.91141    -195.1083   -448.00554   -433.38658   -460.58443   -13317.732     245.7156 
    8500    40.615661    40.615661    40.615661   -29.771671   -69.689884   -57.215506   -84.428006    -99.93417   -82.718868   -109.92995    80.309039    94.662276     67.44796    -13315.56    242.47643 
    8550     40.61192     40.61192     40.61192    275.83701    274.34212    290.83408    263.60334    321.67168    333.20199    305.97108    231.49724    244.43692    217.20674   -13315.123     242.6027 
    8600    40.616597    40.616597    40.616597   -150.21221    -307.5939    -292.6674   -319.87257    22.330695    38.625319    11.416499   -165.37342    -150.3069   -177.51268   -13317.089    247.35868 
    8650     40.61938     40.61938     40.61938   -70.949903   -188.44591   -173.69342   -200.88637   -23.889919   -9.2660733   -36.463569  -0.51388247    14.566385   -12.632457   -13313.832    242.01927 
    8700    40.618511    40.618511    40.618511   -118.97868   -41.616921   -24.476826   -51.677335   -90.616415   -74.473796   -101.67372   -224.70272   -211.30654   -238.50837   -13314.804    244.84642 
    8750    40.615356    40.615356    40.615356    184.70792    24.093517    36.911967    9.6967814    267.47839    281.46399    254.24585    262.55184    278.45352    251.23582   -13312.664    241.65958 
    8800     40.61578     40.61578     40.61578    49.124551    51.019324    63.100442    35.886459    85.170428    97.374833    70.156389    11.183902    23.908857   -3.3088871   -13313.827    244.86054 
    8850    40.617841    40.617841    40.617841   -30.004023   -14.969104   -2.5171785   -29.720858    14.218623    27.720649   0.51676915   -89.261589   -75.076223   -102.28011    -13314.23    246.57563 
    8900    40.618905    40.618905    40.618905   -196.67237   -69.287145   -54.642779   -81.841485   -267.14581   -254.66713   -281.86442   -253.58416   -239.66249   -266.85881   -13315.482    249.94202 
    8950    40.616633    40.616633    40.616633    113.56155     17.70615    30.800584    3.5897357    205.62112    220.97757    193.76564    117.35737     131.8943    104.68279   -13312.174    244.47327 
    9000    40.617981    40.617981    40.617981   -5.3782871   -96.290796   -83.018823   -110.21969    102.10605    118.21192    91.007192   -21.950111   -9.4571775   -36.657498   -13315.903    252.62496 
    9050    40.620148    40.620148    40.620148   -48.644761    26.770246    44.127497     16.93507   -95.187336   -82.281817   -109.47628   -77.517195   -59.564217   -86.763824   -13311.498    245.02404 
    9100    40.620057    40.620057    40.620057   -49.592958   -174.28861   -160.75903   -187.95209   -33.121107     -15.3248   -42.516645    58.630846    73.551002    46.354192   -13312.283    247.47347 
    9150     40.61758     40.61758     40.61758    150.26405    225.47259    240.90794    213.69954    101.73932    117.20807     89.99997    123.58025    138.91281    111.70197   -13310.095    244.16108 
    9200     40.61774     40.61774     40.61774    72.268147    41.329583     57.07949    29.873769    38.217779    51.970575    24.766332    137.25708    151.12765    123.91852   -13311.689    248.16871 
    9250    40.619622    40.619622    40.619622   -84.083887   -149.79255   -134.71754   -161.91154    -69.87264   -54.948668   -82.143698   -32.586469   -18.055086   -45.252314   -13311.349    248.42467 
    9300    40.619538    40.619538    40.619538    119.50181    125.80622    137.86497    110.66769     23.83651    38.050765    10.854076    208.86271    222.49027    195.28873   -13311.853    250.31265 
    9350    40.620623    40.620623    40.620623   -23.026387   -212.93313   -199.03096   -226.22144    47.062092    61.546145    34.349888    96.791877    112.44221    85.246134   -13310.946    249.45277 
    9400    40.621651    40.621651    40.621651   -110.30374    55.349363    72.327017    45.135065   -308.53971   -294.32802   -321.51435   -77.720873   -64.608567   -91.799277    -13310.94    250.34293 
    9450    40.620796    40.620796    40.620796    119.80518    22.147835    35.827777    8.6321016    168.09362    183.56873    156.36821    169.17409    182.33461    155.13776   -13308.678    246.86507 
    9500    40.621436    40.621436    40.621436   -77.654363   -94.095478   -79.412154   -106.60084   -169.62014   -157.17997   -184.36626    30.752526    47.240529    20.049341   -13312.361    254.89143 
    9550    40.620956    40.620956    40.620956    80.176844   -81.439503   -67.437854   -94.629009    171.10941    183.85458    156.66201    150.86063    163.59681    136.40277   -13310.642     252.4677 
    9600    40.623082    40.623082    40.623082   -100.37971   -50.707541   -34.564284   -61.745768   -83.798674   -68.349202   -95.531409   -166.63292   -151.73008   -178.91268   -13311.014    254.06807 
    9650     40.62368     40.62368     40.62368   -96.708169   -111.18675   -95.071927   -122.25386   -146.71085   -133.20229   -160.38304   -32.226906   -17.775423   -44.954229   -13309.976    252.94982 
    9700    40.621786    40.621786    40.621786    25.766695   -101.68196   -86.875618   -114.06126    193.85198      209.125    181.93665   -14.869939   0.30776985   -26.881517   -13311.217    256.23031 
    9750    40.621617    40.621617    40.621617    63.783347    45.223363    59.414967    32.222596    18.202269    35.590926     8.394031    127.92441    140.30489    113.11579   -13309.015    252.84887 
    9800    40.623567    40.623567    40.623567    30.108544   -256.64207   -242.20158   -269.38438    218.38384    234.06373    206.88114    128.58387    139.97013    112.78843   -13308.817     253.3361 
    9850    40.625018    40.625018    40.625018   -209.09391   -204.87145   -191.10329   -218.27476   -333.00963   -319.07484   -346.24816   -89.400642   -74.516041   -101.68866    -13310.94    258.31262 
    9900    40.622237    40.622237    40.622237    148.31384    127.49748    143.00153     115.8104    211.31408    225.78405    198.59359    106.12996    121.40464    94.209463   -13307.278    252.08567 
    9950    40.623383    40.623383    40.623383     1.582774    69.834119    83.978592    56.797282   -163.62004    -150.4142   -177.59263    98.534248    116.23712    89.057102   -13310.401     258.9926 
   10000     40.62607     40.62607     40.62607   -49.067764   -32.888182   -17.654843   -44.826341    31.781308     48.15687    20.986048   -146.09642   -131.08134   -158.25438   -13306.221    251.76572 
   10050    40.625601    40.625601    40.625601   -111.26613   -260.75667   -244.66454   -271.83322   -93.751589   -79.504337   -106.67829    20.709871    33.812479    6.6393229   -13309.037    258.07207 
   10100     40.62165     40.62165     40.62165    194.77386    28.814092     45.94642    18.752872    505.48434    520.25637    493.06003    50.023147    65.250271    38.061804   -13308.396    257.68142 
   10150    40.623957    40.623957    40.623957    148.65111    67.804204     79.68912    52.507196    36.673761    52.739336    25.553457    341.47535    356.53519    329.34884   -13305.783    253.47093 
   10200    40.629076    40.629076    40.629076   -266.31898   -507.92354   -493.09911   -520.25433   -161.58297    -148.6637   -175.82027   -129.45043   -112.62775   -139.78297     -13308.7    259.95316 
   10250    40.626239    40.626239    40.626239    139.51768    308.09578    322.75944    295.58322    15.774635    31.431373    4.2599539    94.682613    106.70016    79.524203    -13303.86    251.42496 
   10300    40.624167    40.624167    40.624167     -32.4434   -82.799664    -68.44154   -95.621525   -62.479318   -49.302038   -76.483453    47.948784    62.806665    35.627934   -13309.107    262.41275 
   10350    40.623612    40.623612    40.623612     175.4361    204.33298    218.00617    190.81925      258.726    276.12813    248.94028     63.24931    77.084496    49.901785   -13305.282     255.8423 
   10400    40.627102    40.627102    40.627102   -209.12009   -222.42107   -209.83083   -236.99483   -245.20351   -232.18258   -259.35089   -159.73569    -143.8233   -170.98614   -13309.194    264.24465 
   10450    40.626953    40.626953    40.626953   -37.296466   -132.87675   -117.28055   -144.44721     82.48944    96.948922    69.780973   -61.502083   -46.091429   -73.261014   -13306.088    259.05202 
   10500    40.625844    40.625844    40.625844     3.606221    -58.26973   -41.435148   -68.606446   -86.758565    -71.27484   -98.450931    155.84696    170.51329    143.33675   -13306.912    261.45961 
   10550    40.625595    40.625595    40.625595    111.78184    112.94411    126.06111     98.88326    309.47861    325.40673     298.2247   -87.077194   -71.995136   -99.171034    -13304.68    257.95671 
   10600    40.628278    40.628278    40.628278   -8.4171661     70.80722    85.586747    58.419579   -24.293744   -9.4743032   -36.637597   -71.764974    -57.73467   -84.899812    -13304.87    259.13252 
   10650    40.629525    40.629525    40.629525    -76.00165    29.818683    43.084211    15.927761    -84.45566   -70.774943   -97.929076   -173.36797    -158.4371   -185.59355   -13304.625    259.46901 
   10700    40.627011    40.627011    40.627011    47.009139   -16.427123   -2.4258858   -29.592337    162.61651     175.9146    148.74914   -5.1619706    8.4234886   -18.743972   -13306.004    262.94252 
   10750    40.625683    40.625683    40.625683    101.81504    128.92511    141.09059    113.91187    169.09554    182.40693    155.22686    7.4244807    20.293271   -6.8867819   -13304.619    261.05812 
   10800    40.628883    40.628883    40.628883   -57.759356   -232.59692    -216.9388   -244.09798   -42.288746   -28.381677    -55.54386     101.6076    117.77812    90.616459   -13305.472    263.48864 
   10850    40.630171    40.630171    40.630171   -214.60569     -342.753   -329.73496   -356.88692   -101.34117   -87.408761   -114.56686    -199.7229   -183.45785   -210.60722   -13305.818    264.95585 
   10900    40.625775    40.625775    40.625775    151.63751    78.462207    93.305469    66.127504    158.15176     172.6996    145.52192    218.29857    233.23241    206.05548   -13303.888    262.00642 
   10950    40.625825    40.625825    40.625825    156.99311    351.87784    366.49083    339.31226    28.857647    42.762841    15.587813    90.243849    104.99488    77.820801   -13304.334    263.65212 
   11000    40.629465    40.629465    40.629465   -4.6147152   -257.73613   -242.97322   -270.12942    122.77483    136.58918    109.43023    121.11715    133.10102    105.94134   -13303.002    261.85318 
   11050    40.631044    40.631044    40.631044   -216.10871   -397.60634   -385.31098   -412.45998   -158.54736   -143.40879   -170.55998   -92.172443   -78.657105   -105.80765   -13305.477     267.4096 
   11100    40.628304    40.628304    40.628304   -8.2088922    -27.43093   -10.427652   -37.592973   -7.8096948    7.2363301   -19.926686    10.613949    26.397792  -0.76421504   -13304.539    266.35772 
   11150    40.626833    40.626833    40.626833    47.524497   -24.750529   -10.316826   -37.487746    171.35739    187.29447    160.12183   -4.0333658     10.83378   -16.333605   -13304.416    266.89007 
   11200    40.628827    40.628827    40.628827    66.135866   -26.759252    -11.67935   -38.842654    -54.27607   -36.492449   -63.654773    279.44292    296.09084    268.92747   -13302.796     264.5124 
   11250    40.631237    40.631237    40.631237   -205.72997   -313.74178   -297.08628   -324.23766   -196.51809   -183.30926   -210.45903   -106.93004   -90.159638   -117.30983   -13303.694    267.01032 
   11300    40.627988    40.627988    40.627988    145.36804    303.85977    318.91441    291.74287    46.112924    64.020263    36.849716    86.131426    99.966546    72.796281   -13301.625    263.75624 
   11350    40.627598    40.627598    40.627598    123.42655    49.406004    65.489728    38.318358     151.7312    165.20593    138.03477    169.14245    184.17679    157.01117     -13302.5    266.19717 
   11400    40.631013    40.631013    40.631013   -77.358293   -166.48749   -150.93879   -178.08758    -50.58186   -35.619381    -62.77559   -15.005531    1.8986821   -25.255454   -13302.024    266.01716 
   11450    40.632363    40.632363    40.632363   -19.472944    -90.11872   -75.652346     -102.798   -33.678407   -16.949206   -44.098996    65.378293    78.340326    51.194912    -13300.91    264.60553 
   11500    40.630696    40.630696    40.630696   -3.0508462   -160.00149    -143.2565    -170.4095    48.513397    61.066176    33.911746    102.33555    117.65532    90.500846   -13301.475    266.43476 
   11550    40.628804    40.628804    40.628804    126.34517    150.27522    164.26697    137.10333    126.02328    139.27773    112.11637    102.73703     118.1764    91.012342   -13302.117    268.41079 
   11600    40.630261    40.630261    40.630261    73.233627   -189.57979   -176.46403   -203.62434    117.34552    131.07064    103.91193    291.93515    306.41037    279.25522   -13300.928    266.82904 
   11650    40.634013    40.634013    40.634013   -181.24677   -102.18677   -86.057398   -113.19395   -93.849952   -79.431114   -106.56885   -347.70358   -334.29712   -361.43238   -13302.663    270.90194 
   11700    40.633111    40.633111    40.633111   -58.957529   -187.11382    -173.4889   -200.63307   -111.76711   -98.235611   -125.38424    122.00834    133.13335    105.98834   -13300.459     267.3539 
   11750    40.630416    40.630416    40.630416    24.711564   -45.483729   -33.014931   -60.170235    126.59345    140.10754    112.94863   -6.9750275    8.9508945   -18.202409   -13302.282    271.58763 
   11800     40.63046     40.63046     40.63046    26.762155   -93.700409   -79.363647   -106.51652     19.32279    33.500114    6.3436477    154.66408    167.11754    139.96504   -13302.153    272.05155 
   11850    40.633042    40.633042    40.633042   -87.038853   -104.27361   -90.464119   -117.60815    -134.4311   -118.63755   -145.78292   -22.411855   -5.3115684   -32.457431   -13300.574    269.69782 
   11900    40.633192    40.633192    40.633192   -79.570443    23.165684    38.691952    11.548659   -28.753296   -15.813884   -42.960443   -233.12372   -220.30313   -247.44577   -13299.843    268.98867 
   11950    40.631173    40.631173    40.631173    118.26227     10.00073    25.646149   -1.5082123    122.41582    135.98833    108.83763    222.37025    234.42808    207.27582   -13301.134    272.18158 
   12000    40.632786    40.632786    40.632786   -78.056303    59.459661    72.235099    45.088208   -129.93546   -115.02184   -142.16768   -163.69311     -149.506   -176.64799   -13301.306    273.20595 
   12050    40.633253    40.633253    40.633253   -112.85073   -227.21485    -213.0561   -240.19462   -134.45662   -120.41835    -147.5612    23.119281    39.226391    12.083079   -13301.911    275.06268 
   12100    40.631762    40.631762    40.631762    74.823908    125.98572    140.95443    113.80127   -51.757588   -37.874427   -65.027659     150.2436    163.93793     136.7873   -13300.219    272.47072 
   12150    40.632564    40.632564    40.632564    51.699905    67.557455    83.654679    56.508472    36.367176    49.866469    22.717136    51.175083    66.171588      39.0265   -13299.354    271.46837 
   12200    40.635215    40.635215    40.635215   -52.400902   -178.48675   -166.04731   -193.18056   -65.642467   -50.595209   -77.732587    86.926515    102.09552    74.956878   -13298.614    270.70756 
   12250    40.635432    40.635432    40.635432   -130.77979   -126.65134   -109.60225   -136.73376   -32.035334   -17.479192   -44.615417   -233.65269   -220.22403   -247.35328   -13301.017    276.02303 
   12300    40.632938    40.632938    40.632938    135.49607    51.613656     65.10616    37.959866    68.905016    84.329244    57.180697    285.96953    301.64744    274.49815   -13298.193     271.2239 
   12350      40.6338      40.6338      40.6338    110.79204   -4.0624609    9.2459793   -17.894719    156.24311    170.65511    143.51252    180.19546    194.99852    167.85589   -13298.862    273.17917 
   12400    40.636491    40.636491    40.636491   -84.226133   -156.34843   -143.04115   -170.17008   -53.223318   -39.513588   -66.642018   -43.106656   -29.596138    -56.72542   -13298.516    273.16508 
   12450     40.63608     40.63608     40.63608   -105.43112   -113.94969   -100.06555    -127.1995    31.671273    47.382998    20.246568   -234.01495   -221.02489   -248.15409   -13299.057    274.85802 
   12500     40.63349     40.63349     40.63349    73.301941   -126.24504   -110.60497   -137.74503     99.61075    112.57444    85.427611    246.54011    260.87942    233.73837   -13299.132    275.65091 
   12550    40.634765    40.634765    40.634765    108.36807    158.23465    173.00951    145.86933    4.7940989    18.948988    -8.189893    162.07545    174.59949    147.45925   -13297.624     273.3763 
   12600    40.638009    40.638009    40.638009   -209.13169   -344.18259   -331.82782   -358.94926   -95.649934   -82.080412   -109.20826   -187.56254   -172.89472   -200.01754   -13298.598     275.8979 
   12650    40.635318    40.635318    40.635318    42.289504    47.830192    60.455009    33.318242   -45.030418   -29.528849   -56.661997    124.06874    137.88437    110.74451   -13299.196    277.68473 
   12700    40.634776    40.634776    40.634776    50.474438   -38.278257   -21.774325   -48.912014    52.429299    69.294879    42.154862    137.27227    151.89572    124.75704    -13298.83    277.60061 
   12750    40.637413    40.637413    40.637413   -54.674044    116.52329    133.89074    106.75881   -89.556189   -75.121759   -102.24601   -190.98924   -173.83077   -200.95501   -13297.222    275.11887 
   12800    40.637637    40.637637    40.637637    17.392318    -212.4068   -198.97796   -226.10853    113.15086    128.70817    101.57764     151.4329     166.5105    139.38429   -13296.433    274.21775 
   12850    40.636444    40.636444    40.636444   -3.2089293    27.118558    41.415741    14.278399   -64.830864   -51.603752    -78.73898    28.085518    43.268972    16.133036   -13296.615    275.18459 
   12900    40.635496    40.635496    40.635496    112.85919   -16.130395   -3.1077094   -30.242947    171.77843    185.19117    158.05457    182.92953    196.93018    169.79273   -13296.632    275.83382 
   12950     40.63761     40.63761     40.63761    70.575063    60.800672    73.966044    46.839559    54.946595    70.074501    42.950989    95.977923    109.52905    82.400174   -13296.897    276.95357 
   13000    40.639634    40.639634    40.639634   -170.17992   -259.99103   -244.71262   -271.82571   -351.17303   -335.88191   -362.99379    100.62431    113.35649    86.239863   -13298.108    279.90085 
   13050    40.637291    40.637291    40.637291   -3.4885987   -69.042692   -51.741948   -78.871141    144.65744     160.7994    133.67149   -86.080541    -71.82024   -98.948845    -13297.37    279.07051 
   13100    40.635236    40.635236    40.635236    285.64911    315.25233    328.93883    301.79229    260.62272    274.42689    247.28228    281.07229    296.50641    269.36708   -13293.252    271.69647 
   13150    40.639057    40.639057    40.639057   -181.74363   -167.99126   -151.36666   -178.48599   -151.01727   -137.93323   -165.05317   -226.22236   -210.09339   -237.20994   -13298.159     281.7789 
   13200     40.63981     40.63981     40.63981    56.183701   -181.40784   -166.08623   -193.20337    247.79395    262.28748    235.16524      102.165    115.32914    88.213048   -13294.232    274.76961 
   13250    40.638489    40.638489    40.638489   -86.426982   -235.51017   -224.89649   -252.01793   -189.17544   -176.71504   -203.83725    165.40466    180.34962    153.22058   -13297.241    281.17201 
   13300    40.635856    40.635856    40.635856    92.943918    58.114107    71.684415    44.547626    243.30267    258.53182    231.39313    -22.58502    -9.655604   -36.791751   -13296.341    280.00382 
   13350    40.637821    40.637821    40.637821   -11.807637   -71.060899   -56.673499   -83.802081   -55.137929   -40.515874    -67.64107    90.775916    105.36571    78.240694   -13297.248    282.32932 
   13400    40.640089    40.640089    40.640089   -244.51189   -222.86359   -206.02911   -233.14808   -325.95106    -308.8649   -335.97785     -184.721   -172.22002   -199.33802   -13296.377    281.21349 
   13450    40.637708    40.637708    40.637708    224.67057    299.08332    313.02235    285.88919    228.42859    242.58015    215.45102     146.4998    161.80014    134.67264   -13293.736    276.66879 
   13500    40.638508    40.638508    40.638508   -35.183139   -224.25489   -209.60871    -236.7341   -23.668273   -13.176366   -40.299823    142.37375    157.36771    130.24653    -13294.82     279.3269 
   13550    40.638004    40.638004    40.638004   -29.545736   -110.31045   -96.801219    -123.9258    48.517033    63.608627    36.482676   -26.843796   -14.317559   -41.440949   -13296.986    284.07303 
   13600    40.637313    40.637313    40.637313    2.9985382    -20.30025   -9.5832906   -36.712187   -156.28401   -138.72357   -165.85557    185.57988    200.94269    173.81465   -13296.215    283.12797 
   13650    40.638396    40.638396    40.638396   -14.068008   -114.53994   -98.238322   -125.36425    18.101605    31.103293    3.9768787    54.234306    70.112231    42.983374   -13294.578    280.50422 
   13700     40.63977     40.63977     40.63977   -24.028045   -31.566892   -17.437587   -44.559932   -88.182613   -73.225896   -100.34786     47.66537    63.581286    36.458103   -13294.035    279.99381 
   13750     40.63924     40.63924     40.63924    52.050265    -17.10691  -0.95672461    -28.07856   -89.977532   -72.050985    -99.17552    263.23524    277.48205    250.35593   -13293.941    280.34795 
   13800    40.638391    40.638391    40.638391    110.32958    153.57904    168.76667    141.63758  -0.92167679    10.757019   -16.369066    178.33139    193.60086    166.46974   -13292.726    278.53424 
   13850    40.638572    40.638572    40.638572     76.64713   -45.554201   -31.040532   -58.166132    116.22915    129.26476    102.13834    159.26645    171.19454    144.06803   -13294.325    282.15374 
   13900    40.640473    40.640473    40.640473     9.791836   -57.548615   -43.280431   -70.394374    19.475116    33.558435    6.4412378    67.449007    79.654491     52.53883   -13293.875     281.8037 
   13950    40.642547    40.642547    40.642547   -155.24301   -131.91731   -118.76895   -145.87443   -131.80256    -118.5366   -145.64559   -202.00915   -187.99548   -215.10082   -13295.158    284.80494 
   14000     40.64039     40.64039     40.64039   -35.655012   -332.61646   -320.11118   -347.22826     52.87647    67.875651    40.755919    172.77495    187.81256    160.69116   -13293.769    282.62806 
   14050    40.638549    40.638549    40.638549    49.507167    87.248983    101.91484    74.788925    4.9390984    20.329177   -6.7931767    56.333419     71.24182    44.115892   -13295.744    286.96311 
   14100    40.639947    40.639947    40.639947      2.72087    13.003139    29.272184    2.1484827   -31.598315   -17.388512   -44.507696    26.757785    43.959521    16.841031   -13294.216    284.51509 
   14150    40.641101    40.641101    40.641101    30.233658   -3.9348283    10.005716   -17.108985    187.21131    202.65142    175.53535   -92.575504   -78.370884   -105.48028   -13291.686    280.12516 
   14200    40.641083    40.641083    40.641083   -50.158484   -149.02153    -134.5082   -161.62175   -41.156181   -26.317027   -53.429977    39.702255    51.956413    24.841802   -13294.162    285.40899 
   14250    40.641189    40.641189    40.641189    22.345014    12.646576    28.571807    1.4582342   -142.41608   -123.65069   -150.76337    196.80455     211.4527     184.3329   -13294.206    285.98202 
   14300    40.641404    40.641404    40.641404    104.07924    43.143855    58.380486     31.26467    68.220708    81.585171    54.465401    200.87317    216.40043    189.28234   -13290.024    278.38251 
   14350    40.641892    40.641892    40.641892    -1.845087   -72.708735   -57.352078   -84.466636   -198.09654   -181.45805   -208.56474    265.27002    276.95629    249.84033   -13293.086    284.79306 
   14400    40.641417    40.641417    40.641417   -36.180675   -153.97295   -136.47559   -163.58833   -44.451724   -30.059635   -57.164057    89.882649    102.53856    75.424568   -13295.188     289.3449 
   14450    40.640686    40.640686    40.640686    108.74009    143.41713    156.60285    129.48167    101.92335    114.15713    87.034814    80.879783    99.300877     72.18701   -13291.498    282.67855 
   14500    40.643262    40.643262    40.643262   -14.583012    32.320591     47.67912    20.572166   -48.607513    -33.69052   -60.798584   -27.462113   -13.550357   -40.657016   -13292.327    284.74998 
   14550    40.642986    40.642986    40.642986   -37.790055   -226.65181   -213.78366   -240.88923     65.67136    80.607344    53.498314     47.61028    62.815602    35.707895   -13292.161    284.89494 
   14600    40.640718    40.640718    40.640718    64.243243    64.196799    79.079927    51.955104   -6.1570565    9.4036243   -17.715224    134.68999    149.66619    122.54618   -13292.745    286.48662 
   14650    40.641474    40.641474    40.641474    18.583595    65.058129    81.680483    54.563535   -126.14258   -112.15447   -139.26985    116.83524    129.35024    102.23474   -13292.072    285.64295 
   14700    40.643283    40.643283    40.643283   -80.770125     20.17634    36.033624      8.92177   -145.49623    -129.4989    -156.6024   -116.99048   -99.121045   -126.22803   -13293.395    288.65391 
   14750      40.6432      40.6432      40.6432    18.825638    12.131751    29.045263    1.9339312   -5.8742923    10.671545   -16.434262    50.219456    65.642526    38.535718    -13291.05    284.57408 
   14800    40.641828    40.641828    40.641828    59.688144     13.38137    29.357521    2.2464805   -6.9829497    7.9604446   -19.153202    172.66601    187.00418    159.89076   -13291.847    286.56654 
   14850    40.641895    40.641895    40.641895    66.260735    -31.36407   -18.313207   -45.425866    59.560317    78.426431    51.311402    170.58596    183.46551    156.35206   -13291.946     287.1986 
   14900    40.644253    40.644253    40.644253    -137.8918   -28.810621   -14.639627   -41.740199   -283.00416   -269.21874   -296.31673   -101.86061    -85.56442    -112.6633   -13293.074    289.82247 
   14950    40.643903    40.643903    40.643903   -25.902299   -149.35746   -133.64634   -160.75129   -19.989706   -3.0729871   -30.174391     91.64027    107.38569    80.279245   -13291.409    287.03537 
   15000    40.641649    40.641649    40.641649     121.2001    369.62337    385.06543    357.94827   -105.35529   -90.852843   -117.96541    99.332208    114.73872    87.626283    -13291.13    286.92694 
   15050    40.640804    40.640804    40.640804    124.25808    130.95532    144.83581     117.7143    266.91166    281.39348    254.27147   -25.092751   -10.803922   -37.922748   -13290.189    285.52842 
   15100    40.643721    40.643721    40.643721    68.421529    56.283599    71.607009     44.50099    34.445267    49.387478    22.279383    114.53572     128.6603    101.55653    -13289.81    285.21211 
   15150    40.646227    40.646227    40.646227   -260.38134   -424.20211   -410.30497   -437.39522   -211.45708   -197.61819   -224.71181   -145.48484   -133.20247    -160.2949   -13291.683    289.25668 
   15200    40.641762    40.641762    40.641762    130.30459    204.55067    217.57192     190.4549    116.31639    129.88137    102.76443    70.046715    84.637568    57.520339   -13290.562    287.49797 
   15250    40.641099    40.641099    40.641099    98.566659     46.09651    59.845197    32.726941    79.674937    93.912253    66.794937    169.92853     184.7052    157.59036   -13292.078    290.84329 
   15300    40.644544    40.644544    40.644544   -118.84699    75.931577    88.406129    61.303487   -140.47862    -126.6302   -153.73029   -291.99393   -276.65819   -303.75568   -13292.477    292.02294 
   15350    40.645904    40.645904    40.645904   -177.19528   -169.86276   -154.57409   -181.66934   -274.56886   -258.43427   -285.53039   -87.154236   -75.377793   -102.47339   -13291.589    290.70199 
   15400    40.643297    40.643297    40.643297    83.933268    152.76898    167.89825    140.78736      41.9908    55.244262    28.135085    57.040018    71.439431    44.329441   -13289.785    287.61095 
   15450    40.643212    40.643212    40.643212   -47.128333    -3.393349    10.791324   -16.316263   -127.31612    -113.4514   -140.55514   -10.675524    4.3882161   -22.710648   -13293.994    296.15045 
   15500    40.644556    40.644556    40.644556   -10.913815    130.34848    145.32337    118.21935   -50.513648   -34.886049   -61.987581   -112.57628   -98.525982   -125.63017   -13289.964    288.73837 
   15550    40.645592    40.645592    40.645592   -114.97909   -134.85099   -119.23324    -146.3335   -47.571431   -33.226323   -60.323595   -162.51484   -145.90584   -173.00278   -13290.329    289.82883 
   15600    40.643746    40.643746    40.643746    55.880874    222.32778    236.47356    209.36706   -81.345277   -65.666562   -92.771008    26.660114    41.354635    14.253011   -13290.832    291.18802 
   15650    40.643304    40.643304    40.643304    147.72957    187.86622     199.9219    172.80621    99.284361    114.31133    87.200611    156.03812    170.15416    143.04573   -13288.079    286.24089 
   15700    40.645435    40.645435    40.645435   -95.613541    108.29415    124.45302    97.352347   -140.73087    -127.8018   -154.89575    -254.4039   -243.06304   -270.15484   -13291.127    292.51058 
   15750    40.645221    40.645221    40.645221   -119.59063   -210.43333   -194.78537   -221.88081     -83.1876   -70.944075   -98.040016   -65.150955   -49.203766   -76.306982    -13290.72    292.09127 
   15800     40.64282     40.64282     40.64282    128.44945    151.43527    166.13115    139.02366   -10.250141    6.6270282   -20.481709    244.16322    257.58952    230.47723   -13290.004    291.06987 
   15850    40.643562    40.643562    40.643562    255.12946    184.87633    199.94426    172.82901    204.18276    217.46666    190.35235    376.32928    390.90259    363.79054    -13286.28     284.2209 
   15900    40.648933    40.648933    40.648933   -203.49251    -85.01199   -71.508296   -98.593549   -224.27456   -211.00327   -238.08445   -301.19097   -286.22759   -313.30938   -13289.703    291.20079 
   15950    40.647235    40.647235    40.647235   -177.93799   -277.47371   -265.68724   -292.77374   -130.23204   -114.21167   -141.29751   -126.10822   -113.01405   -140.10036   -13291.204    294.46058 
   16000    40.641642    40.641642    40.641642    253.28201    245.03511    260.90265    233.78484    116.57843    132.09489    104.98177    398.23248    410.88073    383.76474   -13290.572    293.59034 
   16050     40.64468     40.64468     40.64468    44.585677   -2.5265583    11.153814   -15.946169    193.21688    209.22296    182.11888   -56.933291   -38.859825   -65.962997   -13289.491    291.84188 
   16100    40.648092    40.648092    40.648092   -96.521565   -56.646929   -42.870379   -69.958746   -213.35102    -200.1014    -227.1871   -19.566745   -7.2497037   -34.338384   -13287.606    288.53645 
   16150    40.646183    40.646183    40.646183   -124.85479    -223.7641   -211.91764    -239.0108    -140.8099   -124.96142   -152.05718   -9.9903647    3.2517136   -23.839502   -13291.657    296.70436 
   16200    40.643683    40.643683    40.643683    260.25256    311.88632    327.25398    300.14415    121.74351    135.66581    108.55792    347.12785    360.99839    333.88961   -13286.817    287.67145 
   16250    40.647248    40.647248    40.647248   -64.881933    27.348632     40.78837    13.695118   -187.98853   -177.01466   -204.10141   -34.005901   -21.970922   -49.058892   -13289.246    292.70305 
   16300    40.647707    40.647707    40.647707   -300.11993   -413.03993   -400.44447   -427.52645   -163.64314   -148.84592    -175.9281    -323.6767   -309.47023    -336.5539   -13292.628    299.56755 
   16350    40.643982    40.643982    40.643982     184.8353    291.46572    308.66031    281.55576    92.583257    107.12988    80.024488    170.45693    185.22208    158.12001   -13288.662    292.21654 
   16400    40.646359    40.646359    40.646359   -120.05301   -36.129501   -21.210462   -48.303439   -117.08587    -101.7255   -128.81917   -206.94367   -189.59022   -216.68224   -13290.463    296.02097 
   16450    40.646194    40.646194    40.646194     131.3871    117.35014    133.76099     106.6717    123.33839    138.74283    111.64364    153.47277    169.70687    142.61235   -13286.527    288.71751 
   16500    40.645997    40.645997    40.645997    19.115891    199.68744    213.71201    186.61318   -44.688078   -30.582229   -57.680196   -97.651693   -84.111048   -111.20136   -13287.923    291.72469 
   16550    40.645018    40.645018    40.645018      139.161    245.82592    259.69606    232.59379    67.598466    80.751805    53.647067     104.0586    118.81975    91.717109   -13286.999    290.23117 
   16600    40.646961    40.646961    40.646961   -47.628543   -26.188985   -14.389053   -41.482866   -115.06211   -99.931295   -127.02243   -1.6345282    10.177837   -16.912987   -13288.658    293.73898 
   16650    40.647639    40.647639    40.647639   -163.65753   -132.37627   -117.92759   -145.01523   -199.92358   -186.10715   -213.19601   -158.67272   -143.91561   -171.00181   -13289.088    294.86789 
   16700    40.644928    40.644928    40.644928    90.328838    3.7104478    18.202093   -8.8975235    156.31857    173.07654    145.97882     110.9575    125.77183    98.671674   -13289.441    295.84883 
   16750    40.645008    40.645008    40.645008    66.487621    308.01568    322.65248    295.54476   -9.2102034    4.0936191   -23.008851   -99.342608   -85.086179   -112.18597   -13287.397    292.18604 
   16800    40.646982    40.646982    40.646982   -28.647079    -1.732685    13.278099   -13.815471   -113.97574   -101.97322   -129.06515    29.767187    44.999464    17.909907   -13288.147    293.92404 
   16850    40.647575    40.647575    40.647575   -113.98103   -112.42947   -95.671495   -122.76128   -158.39772   -144.90453   -171.99107   -71.115905   -59.150786   -86.238982   -13289.385     296.6021 
   16900     40.64558     40.64558     40.64558    185.06392    171.88758    185.87954    158.77927    257.47412    274.94573    247.84454    125.83005    140.66439    113.56436   -13286.361    291.02729 
   16950    40.646624    40.646624    40.646624   -8.3386466    105.91063    119.33109    92.237145   -153.59331   -140.60473   -167.69643    22.666735    37.094643    10.000035   -13288.359    295.16891 
   17000    40.647892    40.647892    40.647892     -84.9798   -202.79434   -188.82983   -215.91276   -84.437064   -70.623681   -97.710795    32.292003    46.148166    19.056471   -13288.971    296.61817 
   17050    40.647433    40.647433    40.647433   -41.121248    62.970544    77.924769    50.833099    -258.0537   -242.67514   -269.76341    71.719408     85.73471    58.642487   -13287.587    294.20613 
   17100    40.646208    40.646208    40.646208    51.590538   -157.36983    -143.8436   -170.94162    181.58593    193.57502    166.47971    130.55551    147.14135    120.04345   -13288.503    296.24409 
   17150     40.64691     40.64691     40.64691   -65.900093    88.764333    101.46069    74.370184   -136.20971   -121.06613   -148.16051    -150.2549   -134.06164   -161.15145   -13288.567    296.63092 
   17200    40.647071    40.647071    40.647071   -5.7301942    85.350031     100.9739    73.878409   -56.817588   -44.246236   -71.338189   -45.723026   -30.036929    -57.12651   -13287.799    295.40475 
   17250    40.647511    40.647511    40.647511    -25.19417   -189.67004   -174.06158   -201.14794    87.685232    105.50002    78.407596    26.402299    41.418944    14.327333   -13287.151     294.4074 
   17300    40.646197    40.646197    40.646197    51.128973   -28.626207   -15.917743   -43.014393   -66.967949   -53.244676   -80.344631    248.98108    262.80631    235.70659   -13286.795    293.97096 
   17350    40.645704    40.645704    40.645704     25.76403    133.32117    150.84251    123.74445   -41.976564   -26.193114   -53.289063    -14.05252   0.62554416   -26.474144   -13287.693    295.95127 
   17400    40.646821    40.646821    40.646821    88.993293   -51.853742   -38.163956   -65.253416    109.37425    124.31433    97.218598    209.45937    222.40904    195.31565   -13287.471    295.76596 
   17450    40.649304    40.649304    40.649304    -91.48287    7.8513218    24.342658   -2.7378379   -111.95574   -100.96486   -128.04848   -170.34419   -155.15402   -182.23471   -13287.294    295.65469 
   17500     40.64965     40.64965     40.64965   -125.92975   -340.24098   -323.62946   -350.70288    26.244848    40.896173    13.810208   -63.793135   -49.826727   -76.905813   -13288.019    297.29323 
   17550    40.646417    40.646417    40.646417    4.3014998   -46.704835   -31.022841   -58.116669   -108.84987   -91.270079   -118.36541     168.4592    182.16224    155.07191   -13288.223    297.92335 
   17600    40.644359    40.644359    40.644359    139.68143    106.22348    122.66691    95.562679    162.31823    178.54012     151.4353    150.50258    164.95284    137.84914   -13287.957    297.64168 
   17650    40.647422    40.647422    40.647422    14.878034    216.79361    233.43003    206.33345   -132.52787   -119.42126   -146.51538   -39.631644   -26.056327   -53.146327   -13285.756    293.60247 
   17700    40.650624    40.650624    40.650624   -138.79927   -55.326369   -41.486053   -68.559321   -197.14582   -182.61367   -209.68959   -163.92561   -148.40556   -175.47765   -13288.721    299.56013 
   17750    40.649172    40.649172    40.649172   -36.150917    61.241998    75.712706    48.627991    19.197546    35.033008    7.9460913    -188.8923   -172.78878    -199.8708    -13286.87    296.19526 
   17800    40.646619    40.646619    40.646619    134.11957     266.8086    281.80025    254.69975    61.829198    77.259278    50.157033    73.720902    87.598738    60.505916   -13285.681    294.11104 
   17850    40.648224    40.648224    40.648224   -10.097739   -112.46807   -96.810342    -123.9002   -4.1572798    9.1402979   -17.947402    86.332135    99.316312    72.231767   -13287.112    297.09284 
   17900    40.649757    40.649757    40.649757   -213.19533    -135.9982   -123.48613   -150.56668   -465.20502   -449.60722   -476.68121   -38.382757   -24.272047   -51.350432   -13288.333    299.66476 
   17950    40.646153    40.646153    40.646153     133.7404    157.47713    173.15888    146.06112    242.56937    258.44876    231.35186    1.1747135    14.015967   -13.077948   -13286.412    296.14748 
   18000    40.646559    40.646559    40.646559    169.63043    205.26381    219.09222    191.99511    36.418296    49.075815    21.982726    267.20919      284.845    257.75056   -13287.075    297.62351 
   18050    40.652159    40.652159    40.652159   -295.84138   -172.97238    -157.6618   -184.72934   -283.00239   -267.45762   -294.52339   -431.54937   -415.94309   -443.00926    -13288.39     300.3592 
   18100    40.650501    40.650501    40.650501    -73.75406   -73.999733   -59.015929   -86.095643    -130.0967   -114.86118   -141.93891   -17.165743   -2.0989408    -29.17961   -13285.795    295.52623 
   18150    40.646245    40.646245    40.646245    96.166344    155.87866    171.36987    144.26878   -60.233594    -45.60618    -72.69979    192.85397    206.73388    179.63809   -13287.652    299.30984 
   18200    40.646927    40.646927    40.646927    175.47057    206.98394    220.87741    193.78161     341.3466    356.78026    329.68263   -21.918825   -6.7676681   -33.858118   -13285.156    294.66771 
   18250    40.652093    40.652093    40.652093   -179.84718   -56.152416   -40.669361   -67.736765   -468.95038   -455.26328   -482.32724   -14.438737  -0.34416779   -27.417265   -13286.688    297.81787 
   18300     40.65108     40.65108     40.65108   -146.48119   -204.13115   -189.47731   -216.54922   -120.05816   -106.46448   -133.54125   -115.25425   -101.67527   -128.75005   -13286.354    297.34563 
   18350    40.647339    40.647339    40.647339    152.34576    345.38026     361.7317    334.64067    116.05076    132.37552    105.27775   -4.3937254    12.888871   -14.200373   -13287.164    299.08915 
   18400    40.648314    40.648314    40.648314    39.840227    111.98087    125.74233    98.653424    -97.70683    -82.37214   -109.46493    105.24664    121.04432    93.956225   -13284.387    293.89244 
   18450    40.649518    40.649518    40.649518   -43.171992   -2.8361551    11.124544   -15.953606     129.5971     145.4268    118.34181   -256.27692   -243.30995   -270.38747   -13286.612    298.36329 
   18500    40.648505    40.648505    40.648505    101.24795    218.24174    232.52515    205.43688    15.561833    28.022231   0.93333849     69.94029    84.296027    57.208226    -13284.19    293.83806 
   18550    40.648958    40.648958    40.648958   -52.247421   -4.6820598    9.0815257   -17.999511   -196.79381   -182.12561   -209.20476    44.733607     56.89306    29.810063   -13288.345    302.03487 
   18600    40.649113    40.649113    40.649113   -56.733612   -3.5033343    11.724864    -15.35682   -90.042583   -75.667744   -102.75267    -76.65492   -64.073205   -91.156686   -13286.397    298.41916 
   18650    40.648364    40.648364    40.648364    68.655145    224.00438    239.11224    212.02432   -188.23487   -176.25859    -203.3472    170.19593    185.43832    158.34991   -13286.073    297.94127 
   18700    40.650336    40.650336    40.650336   -80.376999   -141.46978   -125.52713   -152.60118   -13.513316    2.0085077   -25.072663     -86.1479   -70.139562   -97.218277   -13285.705    297.38366 
   18750    40.650298    40.650298    40.650298   -128.58808   -83.145517   -71.171766   -98.245317    -205.1903   -187.73949    -214.8162   -97.428425   -84.453226   -111.52592   -13287.988     301.9554 
   18800    40.646816    40.646816    40.646816    138.77851    312.50042    326.80637     299.7097    83.938646    99.884256    72.788042     19.89647    33.915852    6.8203766   -13284.734    295.80138 
   18850    40.648234    40.648234    40.648234    30.728254   -38.662071   -21.513096   -48.601365   -7.3471006    5.4973904   -21.592554    138.19393    155.75073    128.66148   -13286.842    300.01921 
   18900    40.650992    40.650992    40.650992    -42.95928    148.55719    162.72894    135.65358   -127.39375   -110.26567   -137.33949   -150.04128   -135.53497   -162.61055   -13285.424    297.41421 
   18950    40.650288    40.650288    40.650288   -100.85335    -181.3983   -164.43146   -191.50764    62.860203    76.768273    49.688694   -184.02196   -169.81195   -196.88859   -13286.265    299.17496 
   19000    40.647024    40.647024    40.647024    214.95262    284.83887    298.34975     271.2567    51.056801    65.153941    38.059849    308.96218    323.03201    295.93558   -13285.026    296.90714 
   19050    40.649705    40.649705    40.649705   -81.133724   -129.00732   -114.07131   -141.14891    75.547217    89.776269     62.69753   -189.94107   -174.98267   -202.06079   -13286.857    300.57186 
[...]
   13800        0.138    291.25069    7.7123916  0.021712303 -0.0064641626 -0.0012017891    7.7111775    7.7135777    150.55078   -13025.096   -25758.799 
   13850       0.1385    288.55819    7.6958233 -0.022898302 -0.084094538 -0.0012018877    7.6945162    7.6969166      149.159   -13022.024   -25296.101 
   13900        0.139    292.21313    7.7793834 -0.018596694  0.033121535 -0.0011997979    7.7778763    7.7802725    151.04827   -13022.219   -25979.694 
   13950       0.1395    292.80851    7.7626524   0.03200342  0.059693509 -0.0011985425    7.7616249    7.7640186    151.35603   -13020.818   -26181.164 
   14000         0.14    290.78192    7.7739784 -0.018391636 0.00024523942 -0.0011986102    7.7724552     7.774849    150.30847   -13018.072   -25852.773 
   14050       0.1405    292.55995    7.8008559 -0.054400551  0.010070867 -0.0011987521    7.7998014    7.8021955    151.22755   -13017.273   -25855.087 
   14100        0.141    290.98435    7.8449078 0.0028284285 -0.032554213 -0.0011974941    7.8436482    7.8460398    150.41311   -13014.743   -26050.607 
   14150       0.1415    296.18122    7.8575383  0.043051585  0.037247456 -0.0011964001    7.8560976     7.858487    153.09942   -13015.707   -26459.458 
   14200        0.142    294.12159    7.8437331  -0.02390802 -0.0041379011 -0.0011960906    7.8426293     7.845018    152.03478   -13012.916   -26052.291 
   14250       0.1425    287.19968    7.7478812 -0.033567345 -0.002019977 -0.0011959737    7.7465741    7.7489626    148.45677   -13007.631   -25707.646 
   14300        0.143    293.71432    7.8738105  0.019746234  0.023631537 -0.0011941076    7.8724744    7.8748592    151.82426   -13009.286   -26390.628 
   14350       0.1435     291.4975    7.9045649 0.0057878559  0.018934398 -0.0011932859      7.90358    7.9059631    150.67836   -13006.402   -26430.957 
   14400        0.144     294.6357    7.8741604 -0.046018615 0.00047032948 -0.0011937576    7.8727405    7.8751246    152.30053   -13006.298   -26095.374 
   14450       0.1445    292.14967    7.8781755 0.0080106477 -0.008594513 -0.0011927443    7.8769766    7.8793586    151.01547   -13003.285   -26258.639 
   14500        0.145     290.8319    7.8916896  0.021238627 -0.0060794099 -0.0011911868    7.8904539    7.8928328     150.3343   -13000.867   -26356.163 
   14550       0.1455     289.7379     7.878053  0.036487353 -0.022518208 -0.0011905557    7.8768214    7.8791989     149.7688   -12998.563    -26306.74 
   14600        0.146    291.05198    7.8755564 0.0084610282 -0.023920782 -0.0011899181    7.8743995    7.8767758    150.44807    -12997.51   -26200.322 
   14650       0.1465    290.14168    7.8880396  0.011861846  -0.01807914 -0.0011891797     7.886715    7.8890898    149.97752   -12995.301   -26272.741 
   14700        0.147    289.85403    7.8562697  0.029594156 -0.0032762703 -0.001188366    7.8550473    7.8574205    149.82883   -12993.412   -26275.292 
   14750       0.1475    284.83157    7.7802611 0.0071037338 -0.022309076 -0.0011883551    7.7790385    7.7814116    147.23266   -12989.101   -25883.519 
   14800        0.148    295.22257    7.7739472  0.010271893 -0.036002251 -0.0011880807    7.7727432    7.7751158    152.60389   -12992.754    -25827.39 
   14850       0.1485    291.85515    7.6392409 -0.022401768 0.0090253166 -0.0011876055    7.6378446    7.6402163    150.86323    -12989.31   -25419.548 
   14900        0.149    295.96817    7.5426105  0.010334563   0.05186927 -0.0011866622    7.5413258    7.5436955     152.9893   -12989.735   -25349.381 
   14950       0.1495    295.25224    7.4039377  0.010039178 -0.001891253 -0.001187265    7.4026913    7.4050622    152.61922   -12987.716   -24706.952 
   15000         0.15    304.02056    7.2650055 -0.071123596  0.034185168 -0.001188248    7.2637132     7.266086    157.15167   -12990.627   -24093.557 
   15050       0.1505    309.56698    7.1267705 -0.049078844  0.019062772 -0.0011877364    7.1254331     7.127805    160.01867   -12991.928   -23655.848 
   15100        0.151    306.69809     6.911152 -0.068385816   0.01273007 -0.0011863888    6.9096893    6.9120585    158.53572   -12988.961   -22851.654 
   15150       0.1515    319.26741    6.7401749  0.038975677  0.063540545 -0.0011847844    6.7390172     6.741383    165.03294   -12994.037    -22808.97 
   15200        0.152    319.28619    6.4117552  0.048372635 0.0019629842 -0.0011862278    6.4104689    6.4128377    165.04264   -12992.724   -21540.303 
   15250       0.1525     335.4747    6.0896801  0.031858152 -0.071686451 -0.0011890402    6.0881771    6.0905515    173.41067   -12999.863   -20166.173 
   15300        0.153    337.88645    5.7313163 -0.0086257228 -0.056823532 -0.0011903975    5.7300889    5.7324661    174.65733   -13000.039   -18886.224 
   15350       0.1535    334.72084    5.3875431  0.072478331  -0.03801648 -0.0011907108     5.386409    5.3887868    173.02099   -12997.514    -18073.35 
   15400        0.154     342.0304    5.0719578  0.057930295  0.068710984 -0.0011924886    5.0704268    5.0728082    176.79939   -13000.538   -17328.664 
   15450       0.1545     346.5106    4.7211677  0.004679539 -0.010202206 -0.0011960869    4.7199219    4.7223106    179.11525   -13002.263   -15718.817 
   15500        0.155    347.72231    4.3780797 -0.065055253 -0.0039264244 -0.0011996985    4.3767487    4.3791446     179.7416   -13002.419    -14363.66 
   15550       0.1555    345.72085    4.1566868 -0.078497099  0.058041973 -0.0012008427    4.1553372    4.1577354    178.70702   -13001.037   -13787.439 
   15600        0.156    352.91346    4.0470676 -0.00032413902   0.11750658 -0.0012012906    4.0459222    4.0483213    182.42496   -13004.544   -13880.834 
   15650       0.1565    355.30306    3.9546563  -0.03687998  0.018411789 -0.0012034364    3.9535927    3.9559961    183.66017   -13005.686   -13120.627 
   15700        0.157    353.64653    3.7956129  0.017236398 -0.020414122 -0.0012057689     3.794201     3.796609     182.8039   -13004.714   -12641.451 
   15750       0.1575    361.69497    3.7141687   0.06307154  0.023943058 -0.0012075858    3.7127927    3.7152044    186.96422   -13008.807   -12670.611 
   15800        0.158    360.52666    3.6251051   0.01936415 -0.059177906 -0.0012109235    3.6240308    3.6264492    186.36031   -13008.159   -11950.971 
   15850       0.1585    364.75668    3.6227972  0.032174451 -0.079266508 -0.0012123585    3.6214191    3.6238404    188.54686   -13010.272   -11919.017 
   15900        0.159    362.85533    3.5756819 -0.044065223  0.017372756 -0.0012119356    3.5745622    3.5769825    187.56403   -13009.253   -11829.965 
   15950       0.1595    363.19391    3.5803512 -0.013534165  0.076080543 -0.0012104896    3.5790564    3.5814739    187.73904   -13009.373   -12142.992 
   16000         0.16    359.91317    3.4550027  0.011224552  0.079797756 -0.0012111057     3.453693    3.4561117    186.04319   -13007.653   -11820.083 
   16050       0.1605    360.95119    3.4214138 -0.010860946  0.021842636 -0.0012134057    3.4201113    3.4225346    186.57975   -13008.178   -11441.318 
   16100        0.161    364.10444    3.3476955 -0.043325111 -0.037770807 -0.0012158164    3.3465532    3.3489814    188.20971   -13009.804   -10888.665 
   16150       0.1615    368.76526    3.2747162 -0.028793028 0.0003051527 -0.0012164233    3.2735395    3.2759689    190.61894   -13012.249   -10820.761 
   16200        0.162    368.50231    3.3067163  0.061524771 -0.056567645 -0.0012148137    3.3051286    3.3075548    190.48302   -13012.162   -11038.911 
   16250       0.1625     360.1726    3.3071438  0.061398264 -0.051713849 -0.0012138969     3.305805    3.3082293    186.17729   -13007.922   -11056.094 
   16300        0.163    363.11155    3.2374907  0.042433084  0.043106488 -0.0012148236    3.2360987    3.2385249    187.69647   -13009.558   -11076.768 
   16350       0.1635    362.59563    3.1608747 -0.039909799 -0.011993331 -0.0012180983    3.1596971    3.1621299    187.42979   -13009.419   -10363.239 
   16400        0.164    368.58005    3.1163309 -0.054304993  -0.06283763 -0.0012195351    3.1148385    3.1172742     190.5232   -13012.631   -9997.2944 
   16450       0.1645    372.76075    3.1361261  0.029011491  0.050938188 -0.0012180953    3.1349786    3.1374114    192.68425   -13014.936   -10720.253 
   16500        0.165    363.92767    3.0526071   0.04346032  0.049082515 -0.0012178388    3.0512532    3.0536854    188.11833   -13010.527   -10483.833 
   16550       0.1655    375.26214    3.0226861  0.042125017  0.027289623 -0.0012195657    3.0212289    3.0236647    193.97725   -13016.577   -10307.003 
   16600        0.166    371.62968    2.9128993 -0.031234485 -0.049523321 -0.001222048    2.9115737    2.9140144    192.09959   -13014.888   -9440.4717 
   16650       0.1665    367.44987    2.7947826 -0.066465404  0.023118567 -0.0012226172    2.7932804    2.7957223      189.939    -13012.95   -9171.4525 
   16700        0.167    375.99725    2.7648834 0.0035489738  0.063080841 -0.0012217663    2.7632164    2.7656566    194.35723   -13017.633   -9438.3774 
   16750       0.1675    371.57801    2.6312173  0.039958914 0.0070719807 -0.0012233919    2.6299906     2.632434    192.07288   -13015.646   -8927.4941 
   16800        0.168    374.14634    2.5423812 -0.004835991 -0.015992686 -0.0012251378    2.5409912    2.5434381    193.40048   -13017.298    -8405.175 
   16850       0.1685      381.124     2.481223 -0.040733142  0.049126321 -0.001226268    2.4800937    2.4825428    197.00731   -13021.273   -8298.7207 
   16900        0.169    377.06017    2.3996955  0.025391186 -0.063563393 -0.0012278624    2.3982014    2.4006537    194.90667    -13019.55   -7871.7444 
   16950       0.1695     383.5371    2.2911985   0.09374905 -0.029740813 -0.0012291397    2.2899725    2.2924274    198.25467   -13023.327   -7850.6892 
   17000         0.17    379.69442    2.2146934  0.060914119 0.0058934643 -0.0012314029    2.2132564    2.2157159    196.26834   -13021.827   -7605.0034 
   17050       0.1705    383.21702    2.0259605 -0.057646675 -0.0090487664 -0.0012352914    2.0246856    2.0271528    198.08922   -13024.158   -6530.8835 
   17100        0.171    382.15449    1.9527077 -0.078602414 -0.0060991189 -0.0012377849    1.9515039    1.9539762    197.53998   -13024.114   -6226.6871 
   17150       0.1715    390.65633    1.8887578 -0.029227298  0.061931236 -0.0012379254    1.8875874    1.8900599    201.93468   -13029.068   -6404.8723 
   17200        0.172    392.76807    1.8357501 -0.0016333964  0.068984594 -0.0012385431    1.8343226    1.8367964    203.02626   -13030.769    -6343.671 
   17250       0.1725    389.99611    1.7162119 -0.054745577  0.099005688 -0.0012411008    1.7147017    1.7171806     201.5934   -13030.018   -5868.2401 
   17300        0.173    387.15937    1.5332674 -0.020325244 -0.0051990511 -0.0012438735    1.5317911    1.5342756    200.12706   -13029.259   -5025.8105 
   17350       0.1735    385.15763    1.5110376 -0.036093519  -0.10308301 -0.0012446408    1.5094302    1.5119162    199.09234   -13028.855   -4572.8701 
   17400        0.174    390.57938    1.5910174 -0.0060414409  0.025585585 -0.0012425777    1.5897152    1.5921971     201.8949   -13032.353   -5368.5386 
   17450       0.1745     384.1063    1.5527367  0.056312722  0.040261646 -0.0012416826    1.5516903    1.5541704    198.54889   -13029.683   -5497.7035 
   17500        0.175    391.28815    1.4632812  0.087926805 0.0058239707 -0.0012445795      1.46179    1.4642759    202.26127   -13034.099   -5190.1067 
   17550       0.1755    395.84288    1.4590561   0.07744611 -0.087129541 -0.0012480298    1.4576842    1.4601771    204.61566   -13037.179   -4831.2421 
   17600        0.176    395.75652    1.4574467 0.0016722445  -0.12201378 -0.0012497556    1.4560133    1.4585097    204.57102   -13037.887   -4457.0171 
   17650       0.1765    392.83818    1.4650782 -0.018908973 -0.037848887 -0.0012481755    1.4636437    1.4661369     203.0625   -13037.153   -4694.4012 
   17700        0.177    398.90382    1.6160879  0.095692735  0.055333214 -0.0012442546    1.6147998    1.6172852     206.1979   -13041.051   -5890.3797 
   17750       0.1775    402.05164    1.6190144  0.041591843   0.12626917 -0.0012461714    1.6178421    1.6203312    207.82504   -13043.454   -5956.2515 
   17800        0.178    406.51766    1.3685035  -0.06015576  0.045226521 -0.0012528704    1.3672048    1.3697075    210.13358   -13046.554   -4511.9142 
   17850       0.1785    403.12593    1.2814832  -0.15996605 -0.069381455 -0.001256085    1.2801736    1.2826827    208.38036   -13045.607   -3507.1191 
   17900        0.179    403.86429     1.362311 -0.033662106  0.028568733 -0.0012530423    1.3606993    1.3632023    208.76202   -13046.859   -4524.0589 
   17950       0.1795    404.93553    1.4269753  0.056394132   0.13666424 -0.0012497702    1.4254842    1.4279807    209.31576   -13048.273   -5400.1122 
   18000         0.18    407.81479    1.3546732   0.13564015  0.061893527 -0.0012521095    1.3532071    1.3557083    210.80408   -13050.677   -5174.0228 
   18050       0.1805      411.591    1.2389993 -0.010407261  -0.05374392 -0.0012581747    1.2371939    1.2397073    212.75605   -13053.548   -3916.1603 
   18100        0.181    409.64188    1.1754713 -0.057073209  -0.20378237 -0.0012617972    1.1740287    1.1765494    211.74852   -13053.432   -3048.7192 
   18150       0.1815    411.17805    1.2158507  0.009822922 -0.056779603 -0.0012591049    1.2146104    1.2171256    212.54259   -13055.232   -3896.3133 
   18200        0.182    405.70759    1.2827927   0.11026115  0.084096093 -0.0012552566    1.2810751    1.2835825    209.71484   -13053.351   -4923.8331 
   18250       0.1825    414.08035    1.3014939  0.063108558   0.13471345 -0.0012559544    1.2998643    1.3023732    214.04282   -13058.655   -4997.7197 
   18300        0.183    411.14037    1.1682992   -0.1015738 -0.025194645 -0.0012615052    1.1673117    1.1698317    212.52311   -13058.092   -3471.7692 
   18350       0.1835    407.68327    1.1290221  -0.11180324 -0.074161023 -0.0012631253    1.1277272    1.1302505    210.73609   -13057.243   -3143.5262 
   18400        0.184    413.40339    1.1873292  0.031672072  0.061322204 -0.0012600514    1.1860757    1.1885929    213.69289   -13061.185    -4267.745 
   18450       0.1845    409.51187    1.1821528   0.13072436  0.020107133 -0.0012600041    1.1805291    1.1830461    211.68132   -13060.176   -4443.2809 
   18500        0.185     411.4069    1.0979031  0.067985641 -0.036154967 -0.0012636808    1.0963579    1.0988824    212.66088    -13062.21   -3765.7792 
   18550       0.1855    418.28181    1.0097126  0.017648244  -0.09057091 -0.001268478      1.00821    1.0107441     216.2146   -13066.824   -3122.6331 
   18600        0.186    415.78492   0.95073773 -0.074940763 -0.031755127 -0.0012701224   0.94933993   0.95187732    214.92393   -13066.586   -2813.4728 
   18650       0.1865     414.6891   0.96743062 -0.014297429 -0.011833429 -0.0012684824   0.96629349   0.96882757    214.35749   -13067.087   -3137.6659 
   18700        0.187    407.15103    1.0483484  0.025364924   0.10177936 -0.0012658184    1.0462953     1.048824    210.46097   -13064.222   -3918.3091 
   18750       0.1875    417.02863    1.0167717 -0.039711883  0.048223459 -0.0012664538    1.0155107    1.0180407    215.56682   -13070.375    -3417.611 
   18800        0.188    414.42847    0.9619183 -0.049335527  0.018947268 -0.0012682506   0.96079539   0.96332902    214.22277   -13070.102   -3105.1001 
   18850       0.1885    418.13968   0.91723668  0.036316617 -0.062688048 -0.0012696197   0.91592924   0.91846563    216.14113   -13073.089   -2969.5508 
   18900        0.189    413.13697   0.95666965   0.08651165 -0.061218342 -0.0012691852   0.95580181   0.95833733    213.55518   -13071.573   -3273.2099 
   18950       0.1895    414.62588    1.0968674  0.075894004 0.0045338374 -0.0012680799    1.0953517    1.0978851    214.32481   -13073.424   -3924.3174 
   19000         0.19    404.68701    1.0785285 -0.049953746 -0.010254662 -0.0012685565    1.0770091    1.0795434     209.1873   -13069.318   -3394.4004 
   19050       0.1905     417.9898     1.167389 -0.037750638  0.063169018 -0.0012680338    1.1660435    1.1685767    216.06366   -13077.205   -3976.0246 
   19100        0.191    408.74635    1.0938976 -0.044617618   0.05119539 -0.0012688676    1.0923096    1.0948445    211.28562   -13073.469   -3668.2512 
   19150       0.1915    412.61364    1.1561929 -0.026460128 0.0098700505 -0.0012687169     1.154813    1.1573477    213.28466   -13076.513   -3798.6761 
   19200        0.192    424.29872    1.2267294  0.020991878 -0.00087700265 -0.0012685039    1.2252675    1.2278017    219.32481   -13083.591   -4156.1477 
   19250       0.1925    413.85043    1.2587886  0.057799821 -0.079879113 -0.001268329    1.2573334    1.2598673    213.92397   -13079.232   -4122.3643 
   19300        0.193    416.40341    1.3043736   0.12121524 -0.057169341 -0.0012681022    1.3026915     1.305225    215.24364   -13081.596   -4561.3984 
   19350       0.1935    414.41568    1.3480591  0.039266983 -0.089024876 -0.0012681081    1.3470454    1.3495788    214.21615   -13081.651   -4327.6707 
   19400        0.194    416.73492     1.305128  0.022209319  0.052278979 -0.0012683575    1.3039678    1.3065017      215.415   -13083.883   -4598.7209 
   19450       0.1945    411.51137    1.2689652 -0.046798522  0.060517901 -0.0012692192    1.2673115    1.2698471    212.71489   -13082.152   -4275.6152 
   19500        0.195    409.75983    1.1540679 -0.038616738  0.067029986 -0.0012715812    1.1526424    1.1551827    211.80949   -13082.239   -3941.6039 
   19550       0.1955    408.79631    1.1350381 -0.013343913 -0.052341632 -0.0012729466    1.1334954    1.1360386    211.31144   -13082.765   -3564.5086 
   19600        0.196    410.44065    1.2025847 -0.046174651 -0.028864944 -0.0012718941    1.2012315    1.2037725    212.16142   -13084.609   -3758.4838 
   19650       0.1965    406.29645    1.2361511 0.0033384422  0.048176759 -0.0012699089     1.234529    1.2370661    210.01923   -13083.467   -4292.2212 
   19700        0.197    411.18681     1.194101  0.066357446  0.078022778 -0.0012703045     1.193043    1.1955809    212.54712   -13087.005    -4461.604 
   19750       0.1975    412.89506    1.1645585  0.025107153  -0.01793132 -0.0012735709    1.1633209    1.1658653    213.43013   -13088.926    -3905.781 
   19800        0.198    404.05349    1.0724971  -0.11986189  -0.12866493 -0.0012764988    1.0711325    1.0736828    208.85982   -13085.358   -2746.5677 
   19850       0.1985    406.43138    1.1333225  0.031244558 -0.083534394 -0.0012734638     1.131882    1.1344263    210.08898   -13087.618   -3603.4424 
   19900        0.199    412.73965    1.2414044   0.13286855   0.08738096 -0.0012694071    1.2400577    1.2425937     213.3498   -13091.886   -4872.1798 
   19950       0.1995    410.58819    1.2056831   0.02645145   0.11659084 -0.0012716881    1.2042565    1.2067972    212.23768   -13091.811   -4495.7512 
   20000          0.2    410.43872    1.1150869 -0.084432827 -0.058750672 -0.0012767779    1.1134748    1.1160257    212.16042    -13092.73   -3239.6782 
Loop time of 1468.25 on 4 procs for 20000 steps with 4000 atoms

Pair  time (%) = 1280.56 (87.2169)
Neigh time (%) = 0.514442 (0.0350378)
Comm  time (%) = 118.522 (8.07235)
Outpt time (%) = 1.01179 (0.0689112)
Other time (%) = 67.6398 (4.60684)

Nlocal:    1000 ave 1012 max 982 min
Histogram: 1 0 0 0 0 1 0 0 1 1
Nghost:    3723.25 ave 3736 max 3709 min
Histogram: 1 0 0 1 0 0 0 1 0 1
Neighs:    68902.8 ave 71691 max 65731 min
Histogram: 1 0 0 1 0 0 0 1 0 1
FullNghs:  0 ave 0 max 0 min
Histogram: 4 0 0 0 0 0 0 0 0 0

Total # of neighbors = 275611
Ave neighs/atom = 68.9027
Neighbor list builds = 85
Dangerous builds = 0

######################################
# SIMULATION DONE
print "All done"
All done
