
# ----------------------- ATOM DEFINITION ----------------------------
lattice		fcc ${latparam}
lattice		fcc 4.05
Lattice spacing in x,y,z = 4.05 4.05 4.05
region		whole block 0 12 0 12 0 12
create_box	1 whole
Created orthogonal box = (0 0 0) to (48.6 48.6 48.6)
  1 by 2 by 2 MPI processor grid
lattice 	fcc ${latparam} orient x 1 0 0 orient y 0 1 0 orient z 0 0 1
lattice 	fcc 4.05 orient x 1 0 0 orient y 0 1 0 orient z 0 0 1
Lattice spacing in x,y,z = 4.05 4.05 4.05
create_atoms	1 region whole
Created 6912 atoms

# ------------------------ FORCE FIELDS ------------------------------

#****************USE THIS TO TEST******************
pair_style	eam/rad
pair_coeff 		* * Al99.PC0.05.eam.alloy.rad.txt Al # pc = 0.5   error generating


# to test with error = 0 use this potential
# pair_coeff	* * Al99.eam.alloy.005pcrad_NULL_noerror Al

#****************USE THIS TO RUN REFRENCE***********
# pair_style	eam/alloy
# pair_coeff	* * Al99.eam.alloy Al

# ------------------------- SETTINGS ---------------------------------
compute csym all centro/atom fcc
compute peratom all pe/atom

######################################
# EQUILIBRATION
reset_timestep	0
timestep	0.001 # default
# timestep	0.0001 # tiny time step
velocity all create 300 12345 mom yes rot no
fix 1 all npt temp 300 300 1 iso 0 0 1 drag 1

# Set thermo output
thermo 50
# thermo 1 # debug mode

# thermo_style custom step lx ly lz press pxx pyy pzz pe temp
# IMPLEMENTATION HERE

# VERSION add rad variables .v1 .v2
# thermo_style custom step lx ly lz press pxx pyy pzz pxxrad pyyrad pzzrad pe temp

# VERSION ublb separation .v3
thermo_style custom step lx ly lz press pxx pxxrad pyy pyyrad pzz pzzrad pe temp

# Run for at least 10 picosecond (assuming 1 fs timestep)
run 	20000 # default
Memory usage per processor = 5.71603 Mbytes
Step Lx Ly Lz Press Pxx Pxxrad Pyy Pyyrad Pzz Pzzrad PotEng Temp 
       0         48.6         48.6         48.6     2496.386    2451.7623    242.99145    2520.4586    242.99145     2516.937    242.99145    -23224.32          300 
      50    48.673041    48.673041    48.673041     852.0468    911.67896    242.47893    844.53941    242.53696    799.92203    242.50255   -23050.764    104.74463 
     100    48.760912    48.760912    48.760912   -4427.7962   -4413.3731    238.66582   -4459.8044    238.70069    -4410.211    238.68786   -23108.062    170.21443 
     150    48.680077    48.680077    48.680077    530.62794    530.21765    241.72625    500.30673    241.64103    561.35944    241.70155   -23066.334    123.52598 
     200    48.621044    48.621044    48.621044    3170.2645    3242.0508    243.78322    3091.5624    243.77829    3177.1802    243.81459   -23079.827     139.9894 
     250    48.678635    48.678635    48.678635    199.58148    154.01236    241.65757    236.89273    241.62774    207.83935    241.64414   -23084.585    145.80114 
     300    48.725258    48.725258    48.725258   -2178.1679   -2165.6282    240.07101   -2199.2204     240.0404   -2169.6551    240.05089   -23089.638    152.49909 
     350    48.684235    48.684235    48.684235   -315.82879   -243.16682    241.40225   -383.71805    241.40505   -320.60149    241.36831   -23097.254     161.5629 
     400    48.646576    48.646576    48.646576    1781.6578    1761.2488    242.85332    1811.2289    242.83027    1772.4958    242.86098   -23088.241    152.43278 
     450    48.679957    48.679957    48.679957    83.754641     89.85984    241.61135    45.655735    241.63115    115.74835    241.64647   -23086.824    151.55301 
     500    48.709624    48.709624    48.709624   -1335.2159   -1340.1186    240.58082   -1305.8483    240.55691   -1359.6809    240.57104   -23086.094    151.73053 
     550    48.683988    48.683988    48.683988   -30.668778   -66.660112     241.5428   -57.839798     241.5089    32.493577     241.4671   -23085.967    152.42232 
     600    48.660027    48.660027    48.660027    1109.3946    1186.5281    242.31935    1091.0112    242.30879    1050.6447      242.314   -23088.624    156.41975 
     650    48.681759    48.681759    48.681759    47.144583    8.9360318    241.57888    54.220992    241.53843    78.276726    241.54753   -23088.562    157.24015 
     700    48.702912    48.702912    48.702912   -1040.4161   -1022.6996    240.80213   -1069.3919    240.83713   -1029.1568    240.83029   -23087.614    157.20847 
     750    48.684252    48.684252    48.684252   -101.89735   -137.63719    241.54158   -84.077018    241.53123   -83.977851     241.5204   -23087.759    158.30199 
     800    48.666245    48.666245    48.666245    851.69778    870.69784    242.14848    760.34249    242.18556    924.05302     242.1503   -23085.415    156.68343 
     850    48.682879    48.682879    48.682879    45.283585    25.461638    241.50767    39.147155    241.57809    71.241963    241.56832   -23083.675    155.69778 
     900    48.698988    48.698988    48.698988    -721.1681   -686.86327    240.90346   -765.90698    240.94343   -710.73405    240.93784   -23087.802     161.3492 
     950    48.685507    48.685507    48.685507   -32.580848   -12.530709    241.55304   -40.348487    241.55352   -44.863348    241.51886   -23079.104    152.58073 
    1000    48.671563    48.671563    48.671563    691.27509    765.77142    241.91959    660.35012    241.92593    647.70372    241.89075   -23085.847    161.16557 
    1050    48.684022    48.684022    48.684022    74.817226    94.491596    241.57969    104.49433    241.58256    25.465748    241.57096   -23080.529    156.20485 
    1100    48.697693    48.697693    48.697693   -663.58464   -679.68316    241.00507   -753.26963    241.03621   -557.80112    241.00851   -23084.844    162.04398 
    1150    48.687134    48.687134    48.687134   -79.935003   -98.377647    241.34915   -72.973264    241.38163   -68.454097    241.34754   -23085.934    164.28171 
    1200    48.675453    48.675453    48.675453    561.02538    558.39683    241.93424     478.7594    241.93885     645.9199    241.87746   -23077.106    155.41991 
    1250    48.685417    48.685417    48.685417     96.38082    133.48517    241.50409    109.50391    241.41445    46.153388    241.47318   -23083.868    164.00561 
    1300    48.696961    48.696961    48.696961   -456.10644   -399.24351    241.15024   -471.92398    241.13945   -497.15183    241.12662   -23077.425    157.81784 
    1350    48.688634    48.688634    48.688634   -90.679121   -73.650483    241.34168   -127.29516    241.38481   -71.091716    241.31746   -23082.599     164.6358 
    1400    48.678121    48.678121    48.678121    507.69178     554.4714    241.76372    450.35808    241.77455    518.24587    241.74492   -23078.751    161.36299 
    1450    48.687497    48.687497    48.687497   -39.138775   -61.107462    241.44419   -98.736247    241.42394    42.427384    241.40219   -23081.559    165.52548 
    1500    48.696039    48.696039    48.696039   -413.41528   -358.07579    241.20446   -394.42103    241.19674   -487.74902    241.19794   -23080.844      165.759 
    1550    48.688594    48.688594    48.688594    49.904932    37.730511    241.42463   -14.366551     241.4293    126.35083    241.43471   -23076.154    161.52792 
    1600    48.682005    48.682005    48.682005    283.34848    305.27237    241.57627    272.37586    241.61423    272.39721    241.58614   -23081.157    168.18889 
    1650    48.688818    48.688818    48.688818    22.617655    45.220742    241.48695   -15.654054    241.47686    38.286277    241.47781   -23077.566    165.17243 
    1700    48.696716    48.696716    48.696716   -419.98244   -422.07482    241.11136   -468.50319    241.14484    -369.3693    241.10116   -23078.631    167.40314 
    1750    48.688437    48.688437    48.688437    113.95733    121.23645    241.38771    22.212473    241.43787    198.42307    241.37951   -23073.967    163.23073 
    1800    48.683612    48.683612    48.683612    292.48559    319.41225    241.63814    251.85441    241.58335    306.19012    241.60191   -23079.124    170.04105 
    1850    48.690979    48.690979    48.690979      -9.9818     80.45051    241.36189   -125.24851      241.417    14.852602    241.35832   -23073.041    164.25807 
    1900    48.695967    48.695967    48.695967   -238.49055   -237.41566    241.22441   -221.47249    241.25107    -256.5835     241.1857   -23073.504     165.8295 
    1950    48.690166    48.690166    48.690166   -43.070144     41.20675    241.36071   -153.91493    241.41208    -16.50225    241.42012   -23079.215    173.25033 
    2000    48.685677    48.685677    48.685677     271.2924    271.23704    241.53568    257.78745    241.56979     284.8527    241.52969   -23075.736    170.39345 
    2050    48.692008    48.692008    48.692008    5.4531145    33.546903     241.4295   -106.54599     241.3925    89.358431    241.41308   -23070.257    165.31075 
    2100    48.697232    48.697232    48.697232    -287.6662   -168.69834    241.15064   -317.09351      241.167   -377.20676    241.14629   -23074.848     171.4769 
    2150    48.691551    48.691551    48.691551    64.695751    65.796814    241.33177    34.374024     241.3503    93.916414    241.33101   -23073.969    171.55453 
    2200    48.688092    48.688092    48.688092    223.57465    305.76422    241.50658    230.24148     241.5498    134.71826    241.53735   -23071.192    169.47559 
    2250    48.693774    48.693774    48.693774   -57.380572    -69.75465    241.23536   -82.221987    241.32185   -20.165079    241.26972    -23074.24    173.93859 
    2300    48.697159    48.697159    48.697159   -210.68621   -152.00421     241.1834    -279.3065    241.25866   -200.74792    241.21034   -23070.663    170.97301 
    2350    48.693152    48.693152    48.693152    17.461266    25.624941     241.3271    2.8112201    241.30338    23.947636    241.31761   -23073.305    174.96954 
    2400    48.690298    48.690298    48.690298    187.25914    296.17305    241.41177    111.04422    241.41329    154.56014    241.46617   -23069.644    171.92734 
    2450    48.695367    48.695367    48.695367   -23.203615   -5.5040328    241.26892   -23.977577    241.25784   -40.129234    241.23286   -23070.863    174.32548 
    2500    48.698396    48.698396    48.698396   -200.97573   -98.690438    241.21646   -291.80944    241.18459   -212.42731    241.22771    -23069.11    173.42138 
    2550    48.693469    48.693469    48.693469    36.694567    62.768406    241.32266   -53.698338    241.34791    101.01363    241.33504   -23070.785    176.32704 
    2600    48.691137    48.691137    48.691137     263.3279     406.6238    241.43293     114.4684    241.46954     268.8915    241.40693   -23068.115    174.39571 
    2650    48.697984    48.697984    48.697984   -119.59855   -116.59912    241.18807   -122.95046    241.21039   -119.24608    241.23631   -23067.871    175.15541 
    2700    48.700224    48.700224    48.700224   -230.50409   -158.40968    241.06806   -385.65864     241.1205   -147.44397    241.01238   -23070.193    178.81608 
    2750    48.694038    48.694038    48.694038    88.988852    63.040704    241.35056     202.0181    241.31563    1.9077469    241.29422   -23067.638    176.99606 
    2800    48.693162    48.693162    48.693162    241.30503    261.00963    241.40245    248.05928    241.39868    214.84618    241.34176   -23066.323    176.57268 
    2850    48.699852    48.699852    48.699852   -216.12366   -179.51913    241.14827   -243.74919    241.11547   -225.10265    241.13392   -23067.963    179.46269 
    2900    48.699914    48.699914    48.699914   -127.17633   -66.144695    241.16957   -254.33937    241.20444   -61.044923    241.14574   -23065.867    178.15324 
    2950    48.695501    48.695501    48.695501    136.19866    180.30983     241.3176    145.43206    241.32577    82.854078     241.2789   -23066.624    180.05697 
    3000    48.696462    48.696462    48.696462    80.378497    18.329346    241.29513    100.59097    241.30785    122.21518    241.28254   -23064.854    179.11003 
    3050    48.701308    48.701308    48.701308   -159.69051   -137.12854    241.05973   -162.98782    241.09068   -178.95518    241.08387   -23066.697    182.23551 
    3100    48.699853    48.699853    48.699853   -32.211386    7.4970339    241.19964   -90.224403    241.19375   -13.906789    241.17808   -23063.176    179.33645 
    3150    48.696965    48.696965    48.696965    68.226798    116.07246    241.24407    68.018868    241.23401    20.589062    241.23634   -23064.512    181.88021 
    3200     48.69801     48.69801     48.69801    164.26096    161.44271     241.2696    127.69818    241.27149    203.64198    241.28428   -23060.183    178.08861 
    3250    48.702899    48.702899    48.702899    -240.0724     -225.462    241.05713   -249.93001    241.09177   -244.82519    241.09384   -23066.154    185.81101 
    3300    48.700603    48.700603    48.700603    23.111695    40.430998    241.22662    34.790454    241.18966   -5.8863667    241.19115   -23059.266     179.1516 
    3350    48.698334    48.698334    48.698334    82.712772    163.77831     241.2522    10.162988    241.26233    74.197013    241.21998   -23063.293    184.70745 
    3400     48.69993     48.69993     48.69993    52.771586    121.34773    241.24771    34.558092    241.23627    2.4089332    241.15756   -23060.815    182.98483 
    3450    48.703205    48.703205    48.703205    -96.85624   -83.775447    241.08423    -77.96745    241.11903   -128.82582    241.01538   -23060.376    183.54135 
    3500     48.70201     48.70201     48.70201   -36.806736    -30.03124    241.09261   -21.540897    241.11331   -58.848072    241.09109   -23062.108    186.53442 
    3550    48.699492    48.699492    48.699492    170.23598    227.68321     241.2331    193.30302    241.23053    89.721712     241.2518   -23057.263    182.15291 
    3600    48.702258    48.702258    48.702258   -86.461352   -109.99909    241.12824   -152.09546    241.13862    2.7104932    241.12162   -23063.178    189.82546 
    3650     48.70392     48.70392     48.70392   -68.668754    -13.54673    241.11726   -61.272813      241.139   -131.18672    241.13373   -23057.876    184.92579 
    3700    48.702548    48.702548    48.702548   -18.731632    56.015523    241.10917   -142.06352    241.14079    29.853103    241.12609    -23059.21    187.47848 
    3750      48.7004      48.7004      48.7004    163.04015    237.09956    241.25024    167.63917     241.2466    84.381716    241.24174    -23056.77    185.78811 
    3800    48.703741    48.703741    48.703741   -4.1383697    23.304867    241.08712    14.633499    241.12081   -50.353474    241.08657   -23057.401    187.54203 
    3850    48.705829    48.705829    48.705829   -44.958358    28.023303    241.00966   -101.16316    241.04719    -61.73522     240.9967    -23055.16     186.0868 
    3900    48.704139    48.704139    48.704139   -10.494754   -69.204537    241.11994   -51.039495    241.11658     88.75977    241.10502     -23057.3    189.52604 
    3950    48.701966    48.701966    48.701966    151.91265    203.19988    241.21683    57.152283    241.20234     195.3858    241.23941   -23054.495    187.43459 
    4000    48.704531    48.704531    48.704531    27.257068    22.802097    241.15292   -24.532807    241.12119    83.501914    241.12767   -23055.315    189.39556 
    4050    48.707937    48.707937    48.707937    -135.3897   -142.51167    240.90048   -77.766212    240.97692   -185.89122    240.95289   -23057.013    192.33778 
    4100    48.706227    48.706227    48.706227   -33.211251    56.316026    241.01041   -137.40789    241.03736   -18.541889    240.99079   -23055.904    192.15069 
    4150    48.703129    48.703129    48.703129    146.46063    114.63175    241.17894    173.85084    241.12386    150.89931    241.17276   -23054.066    191.13753 
    4200    48.705338    48.705338    48.705338   -14.198573    37.036491    241.11666   -59.616611     241.1227   -20.015599    241.10267   -23054.575    192.74643 
    4250    48.707873    48.707873    48.707873   -48.619682   -10.738218    241.07839   -58.640729    241.10733   -76.480098    241.08675   -23050.459    189.18026 
    4300    48.708021    48.708021    48.708021    -71.47148   -48.596638     240.9496     -27.8045    241.00913    -138.0133     240.9877   -23054.857    195.14745 
    4350    48.705458    48.705458    48.705458    63.737234     125.9259    241.03988   -12.939068    241.11722    78.224869    241.08279   -23052.915    194.02008 
    4400    48.705546    48.705546    48.705546    59.002937     103.2883    241.11613     59.44931     241.0536    14.271204    241.06036   -23054.338     196.6605 
    4450    48.709199    48.709199    48.709199    -72.89735    43.472176    240.95514   -168.73365    240.95444   -93.430572    240.94678   -23052.021    195.10243 
    4500    48.709992    48.709992    48.709992   -62.262826   -4.4683372    240.97517   -88.105552    240.94262   -94.214587    240.95595   -23050.348    194.27189 
    4550    48.707492    48.707492    48.707492    39.697805    75.475628    240.99699    30.079692    241.02513    13.538096    241.01138   -23051.082    196.13285 
    4600    48.706709    48.706709    48.706709     60.40358    64.234795    241.06354    31.469078    241.08188    85.506867    241.02934   -23052.103    198.32523 
    4650    48.708958    48.708958    48.708958    33.704243    191.73979    241.03024   -132.19024    241.05883    41.563181    241.02798   -23047.718    194.44587 
    4700    48.710962    48.710962    48.710962    -27.75816   -36.661123    240.92627     5.248281    240.96589   -51.861636    240.90681   -23047.861    195.64989 
    4750    48.710854    48.710854    48.710854   -58.083649    4.5107352    240.92049   -73.969253    240.95946   -104.79243    240.92992   -23048.622    197.53738 
    4800     48.70916     48.70916     48.70916    58.163947    66.429591    240.99794    14.223558    241.00469    93.838692    240.95756   -23049.787    199.88646 
    4850    48.708912    48.708912    48.708912    42.444235    160.00018    241.02231   -59.991801    241.06734    27.324322    240.99757   -23048.249    199.19907 
    4900    48.710788    48.710788    48.710788   -11.377852   -17.568849     240.9532    -26.80871    240.99645    10.244003       240.96   -23046.464    198.23601 
    4950    48.712392    48.712392    48.712392   -92.154675   -41.159982    240.81771   -71.287004    240.87181   -164.01704     240.8942   -23050.283    203.54605 
    5000    48.711487    48.711487    48.711487   -6.1328866    65.331073    240.96386   -41.941543    240.95595    -41.78819    240.95217   -23046.329    200.15248 
    5050    48.710748    48.710748    48.710748    55.071847    149.64775    241.03887    -50.24174    241.01193     65.80953    240.96148    -23045.36    200.10204 
    5100    48.712087    48.712087    48.712087   -3.8423891    9.0715651    240.92277   -10.019264    240.94085   -10.579468    240.97421    -23046.26    202.14121 
    5150    48.713296    48.713296    48.713296   -6.5150057    98.881791    240.88513   -93.266524     240.8939   -25.160284    240.87894    -23043.27    199.82653 
    5200    48.713044    48.713044    48.713044   -4.9045659    48.193319    240.91065   -99.984226    240.85567     37.07721    240.86081   -23045.816    203.71421 
    5250    48.712097    48.712097    48.712097    45.631277    110.66047    240.94562  -0.98276298    240.95253    27.216124    240.94641   -23043.262    201.88598 
    5300    48.712838    48.712838    48.712838    10.222252    9.2224678    240.91779   -15.639272     240.9045    37.083562    240.88134   -23045.632    205.56433 
    5350     48.71426     48.71426     48.71426   -83.286142   -107.75919    240.86201   -73.320388    240.89094   -68.778845    240.88279   -23044.988    205.87143 
    5400     48.71465     48.71465     48.71465   -17.735564    40.647081    240.84807   -27.463219    240.84039   -66.390555    240.81903   -23043.395    205.11159 
    5450    48.714613    48.714613    48.714613    21.308331    148.39907     240.8587   -77.699466    240.83426   -6.7746076    240.84731   -23040.805    203.24582 
    5500    48.713384    48.713384    48.713384    63.498502    44.006508    240.93328    64.576837    240.94671     81.91216    240.95806   -23039.826    203.17784 
    5550    48.713955    48.713955    48.713955    92.583592    121.25403    240.91495    108.02564    240.93996    48.471108    240.97343   -23039.402    203.72028 
    5600    48.716884    48.716884    48.716884   -123.14978   -88.612504    240.72781   -258.77853    240.79964   -22.058316    240.76849   -23042.768    208.51606 
    5650    48.715781    48.715781    48.715781   -34.417487    -3.425837    240.81792   -5.8906203    240.85307   -93.936005    240.83699   -23041.031    207.59182 
    5700    48.714325    48.714325    48.714325    30.082849    108.56369    240.86344     18.52338     240.8839   -36.838526    240.83483   -23043.089    210.91808 
    5750    48.716304    48.716304    48.716304   -41.794827   -134.14463    240.83332    11.871266    240.82339   -3.1111129    240.82239    -23039.06    207.42525 
    5800    48.716989    48.716989    48.716989     46.17322   -40.914046    240.77516    109.23201    240.82275    70.201699    240.79161    -23037.96    207.22119 
    5850    48.716842    48.716842    48.716842   -15.194046   -31.183943    240.80276   -20.284635    240.84269    5.8864411    240.83421    -23038.16    208.45732 
    5900    48.715935    48.715935    48.715935    47.700677    70.916622    240.87843    38.743747    240.83825    33.441661    240.81926   -23038.772    210.16316 
    5950    48.716972    48.716972    48.716972   -36.649946    8.0052481    240.83163   -7.8865321    240.82359   -110.06855    240.84108   -23040.228    212.80463 
    6000    48.718824    48.718824    48.718824   -33.982674    -20.31286     240.8468   -53.017209    240.83843   -28.617952    240.81723   -23034.638    207.55307 
    6050    48.718426    48.718426    48.718426   -14.591404    22.237832    240.79861   -110.22244    240.76953    44.210398    240.75776   -23037.103    211.32859 
    6100    48.716768    48.716768    48.716768    95.892389    71.652623    240.74669    175.76088    240.81798    40.263665     240.8519   -23037.107    212.35244 
    6150    48.718638    48.718638    48.718638      33.1445    71.697395    240.76503   -9.6537607    240.80383    37.389866    240.79098   -23034.548    210.49305 
    6200    48.720271    48.720271    48.720271   -72.467962   -43.124419    240.71416   -93.181639    240.72938   -81.097827    240.73336   -23035.791    212.89929 
    6250    48.718766    48.718766    48.718766    93.579165    142.25427    240.80506    111.06807    240.80125    27.415158    240.76207    -23033.21    211.01287 
    6300    48.719324    48.719324    48.719324    43.819091    157.30654    240.76316   -46.851325    240.70806    21.002052     240.7862    -23035.14    214.18135 
    6350    48.720303    48.720303    48.720303   -90.116467   -133.81921    240.74941   -56.306399     240.7209   -80.223792    240.74271   -23037.038    217.31156 
    6400     48.72031     48.72031     48.72031    17.443789    100.10833    240.77641      -16.696     240.8319   -31.080967    240.75247   -23030.839    211.36681 
    6450    48.720137    48.720137    48.720137    62.153282    1.8089834    240.74607    138.81325    240.79649    45.837615     240.7559   -23033.138    214.95068 
    6500    48.720581    48.720581    48.720581    31.066997    93.578896    240.71266    62.024362    240.78842   -62.402266     240.7718    -23031.74    214.37943 
    6550    48.722727    48.722727    48.722727   -24.512683   -4.4244302    240.65658    -87.71663    240.68164    18.603012    240.60864   -23032.724    216.48276 
    6600    48.722669    48.722669    48.722669   -57.490337   -94.389998    240.67209    69.897579    240.68715   -147.97859    240.66015   -23031.773     216.4179 
    6650    48.720387    48.720387    48.720387     123.0368    164.40172    240.75871    46.976332    240.77772    157.73235    240.75976    -23031.45    217.04947 
    6700    48.722597    48.722597    48.722597   -35.195879    92.315215    240.72147   -22.627301    240.70585   -175.27555    240.70579   -23030.896     217.4203 
    6750    48.724661    48.724661    48.724661   -72.385364   -57.716605    240.62497   -82.754625    240.59693   -76.684863    240.58108    -23031.51    219.10062 
    6800    48.723306    48.723306    48.723306   -48.991299   -82.617263    240.63081   -55.533774    240.68373   -8.8228601    240.62608   -23031.063    219.59583 
    6850    48.721175    48.721175    48.721175    137.57172     217.8469     240.7496    155.69014    240.80348    39.178131    240.76321   -23030.209    219.62205 
    6900    48.724282    48.724282    48.724282   -15.588173   -63.522166    240.60673    38.891265    240.64152   -22.133618    240.57817   -23029.791    220.14096 
    6950    48.726984    48.726984    48.726984   -92.227141   -115.72216     240.5606   -40.382168    240.57209   -120.57709    240.52329   -23027.578    218.65396 
    7000    48.725203    48.725203    48.725203    17.091947   -51.225606    240.61038    67.229121    240.63771    35.272326    240.63596    -23027.33    219.35537 
    7050    48.722616    48.722616    48.722616    34.049456    31.319057    240.69883    -85.27826    240.69488    156.10757    240.63124    -23030.38     223.7551 
    7100    48.723496    48.723496    48.723496    206.40276    285.86276    240.74925    219.00635    240.69757    114.33918    240.68593   -23024.092    217.69411 
    7150    48.728357    48.728357    48.728357    -248.1268   -314.15246    240.49712   -227.83131    240.47699   -202.39663    240.49139   -23029.216    224.41387 
    7200    48.725352    48.725352    48.725352    64.869048    57.849271    240.66645    9.1007129    240.66782    127.65716     240.6683   -23024.233    219.80307 
    7250    48.723959    48.723959    48.723959    22.175271   -54.704654     240.6646    89.824683      240.701    31.405784    240.65897   -23028.855    225.95559 
    7300    48.725396    48.725396    48.725396    114.00326    114.66951    240.61707    137.84856    240.67341    89.491718    240.63203   -23026.139    223.88861 
    7350    48.729976    48.729976    48.729976   -133.08475   -170.94032    240.52399   -110.86583    240.47906    -117.4481    240.47373   -23024.285     222.7817 
    7400    48.728925    48.728925    48.728925   -99.703103   -34.780911    240.52639   -55.188888    240.48929   -209.13951    240.52086   -23026.342    226.05512 
    7450    48.724608    48.724608    48.724608    166.57647    106.37867    240.73125    167.01017    240.67976    226.34058    240.66889   -23022.813    223.06971 
    7500    48.726172    48.726172    48.726172    -4.525935    89.375117     240.5417   -27.209763    240.59508   -75.743159    240.56143   -23027.383    229.15768 
    7550    48.728787    48.728787    48.728787     33.08135    -44.53937    240.55431    68.074919    240.53337    75.708501    240.58049   -23019.447    221.23381 
    7600     48.72947     48.72947     48.72947     -165.817   -157.09638    240.47298   -191.99609    240.50214   -148.35852    240.46201   -23025.991    229.51907 
    7650     48.72523     48.72523     48.72523    211.63777     211.4111    240.67145      258.325    240.62607    165.17719     240.6411   -23022.742    226.84355 
    7700    48.727307    48.727307    48.727307    53.414515    126.70569    240.61437     100.8151    240.66081   -67.277243      240.608   -23021.123    225.98527 
    7750    48.731429    48.731429    48.731429   -141.69908   -85.390674     240.4818   -176.36295    240.49468   -163.34361    240.45384   -23022.216    228.16106 
    7800    48.730181    48.730181    48.730181   -74.930575   -130.18239    240.53409    -32.40949    240.56154   -62.199844    240.52498   -23021.149    227.91643 
    7850    48.726264    48.726264    48.726264    168.47699    262.68705    240.62829    124.23584    240.66864    118.50807    240.63754   -23020.495    228.14031 
    7900    48.728745    48.728745    48.728745    100.08533    39.283319    240.54783    153.23175    240.57276    107.74091    240.55575    -23018.14    226.45557 
    7950    48.733178    48.733178    48.733178   -157.58796   -155.14999    240.38336   -96.147081    240.45564    -221.4668    240.40494   -23021.594    231.27251 
    8000    48.731093    48.731093    48.731093   -45.151895   -91.709048    240.46717    8.0127741    240.49014   -51.759411    240.49156   -23021.672    232.29708 
    8050    48.728895    48.728895    48.728895    53.722566    81.172305    240.59732    -38.95199    240.56965    118.94738    240.54875   -23022.902    234.61462 
    8100    48.731159    48.731159    48.731159   0.52036475    1.8664917    240.49101    67.325339    240.55319   -67.630736    240.55072   -23017.134    229.09434 
    8150     48.73377     48.73377     48.73377    -130.9396    -98.67145    240.38424   -183.96565    240.42417    -110.1817    240.38265   -23021.148     234.5284 
    8200    48.732225    48.732225    48.732225   -1.1241948   -17.411529    240.46781   -9.4352624    240.45096    23.474207    240.44524   -23016.219    229.94866 
    8250    48.730081    48.730081    48.730081    137.78896    133.40913    240.53735    168.65028    240.53233    111.30747    240.53223   -23016.758     231.4887 
    8300    48.732078    48.732078    48.732078     74.63119    90.110452    240.44585    71.452781    240.45891    62.330337    240.48509    -23016.71    232.36265 
    8350    48.735275    48.735275    48.735275   -163.54146   -175.53372    240.37529   -149.64454    240.41776   -165.44612     240.4135   -23016.698    233.27552 
    8400    48.732977    48.732977    48.732977    50.554949    71.351476    240.44326    167.76123    240.46985   -87.447861    240.50932   -23014.236    231.44146 
    8450    48.731614    48.731614    48.731614    129.02195    69.689663    240.44692    171.32415    240.44267    146.05204    240.44701   -23015.651    233.95797 
    8500    48.734443    48.734443    48.734443   -26.110938    20.500865    240.35313   -4.6476322    240.35309   -94.186047    240.36319   -23017.183     236.5931 
    8550    48.736348    48.736348    48.736348   -70.417947   -80.665799    240.36739    14.661026    240.32601   -145.24907    240.31912   -23014.408     234.4058 
    8600    48.734329    48.734329    48.734329   -47.703746    22.909499     240.4159    -12.58396    240.40894   -153.43678    240.45304   -23015.289    236.30471 
    8650    48.732381    48.732381    48.732381    123.50192    198.06682    240.49898    186.69773    240.49566   -14.258808    240.45564   -23015.349    237.28553 
    8700    48.735556    48.735556    48.735556   -38.484082   -184.23022    240.36248    8.3235532    240.34423    60.454416    240.37741   -23014.296    237.01602 
    8750    48.736956    48.736956    48.736956    -80.58042   -49.271862    240.32224   -112.02305    240.34823   -80.446352    240.33511   -23013.907    237.49501 
    8800    48.735098    48.735098    48.735098    77.084585   -23.454731    240.44507    242.36176     240.3847    12.346726    240.43763   -23011.476    235.67909 
    8850      48.7352      48.7352      48.7352    37.708942    112.92323    240.41691   -63.114826    240.41543    63.318424      240.396   -23012.236    237.43239 
    8900    48.736474    48.736474    48.736474    46.288738    19.980034    240.35024    69.339058    240.36677    49.547122     240.4214   -23009.288    235.03335 
    8950    48.736798    48.736798    48.736798   -48.570787     1.065559    240.29307   -96.587164    240.36848   -50.190756    240.33914   -23013.648    240.81914 
    9000    48.735673    48.735673    48.735673    43.067211    57.762843    240.43644    55.122391     240.3824      16.3164    240.40155   -23012.065    239.93696 
    9050    48.737013    48.737013    48.737013   -3.5838671    66.090365    240.38339    32.759978     240.3691   -109.60194    240.38127    -23009.07    237.47575 
    9100    48.738689    48.738689    48.738689   -91.315937   -104.53738    240.29414    49.319172    240.31271   -218.72961    240.27865    -23013.05    242.82271 
    9150    48.738074    48.738074    48.738074   -36.554764   -105.79384    240.32643    10.440284     240.3074   -14.310737    240.29462   -23011.242       241.69 
    9200    48.736523    48.736523    48.736523    58.876046    64.804757    240.37207    102.99717    240.36829    8.8262068    240.38977    -23010.11    241.30911 
    9250    48.737284    48.737284    48.737284    73.239787    13.486534    240.37217    53.425147    240.37508    152.80768    240.36394   -23008.685    240.59794 
    9300    48.739854    48.739854    48.739854   -32.543012    47.809921    240.24437    15.313135      240.235   -160.75209    240.26136    -23008.78    241.58094 
    9350    48.739768    48.739768    48.739768   -11.622034   -88.075869    240.21194    59.142063    240.25354    -5.932295    240.26248   -23009.077    242.79531 
    9400    48.738041    48.738041    48.738041    94.783209    95.524764    240.37295     251.5242    240.36527   -62.699337    240.35923   -23006.031    240.25753 
    9450    48.739294    48.739294    48.739294   0.97898542   -31.926627    240.31761    -88.76287    240.35397    123.62645    240.30001   -23008.748    244.16468 
    9500    48.741237    48.741237    48.741237   -57.642205   -91.745276    240.22513    97.258506    240.24426   -178.43985    240.21808   -23007.429    243.55909 
    9550    48.740384    48.740384    48.740384   -40.168805    112.72366    240.27141   -184.99714     240.2717   -48.232934    240.25571   -23007.851    244.90301 
    9600    48.738631    48.738631    48.738631    102.86632     114.7189    240.31406    109.80382    240.30331     84.07625    240.32018    -23006.73    244.51177 
    9650    48.740838    48.740838    48.740838    20.114516    165.26103    240.21812   -84.936822    240.26276   -19.980657    240.25304    -23005.38    243.86183 
    9700    48.742703    48.742703    48.742703    -89.17118   -100.85105    240.21146   -58.061163     240.1206   -108.60133    240.15077   -23007.123    246.67137 
    9750     48.74119     48.74119     48.74119    1.2701581    119.71837    240.24781   -43.091068    240.24151   -72.816827    240.27156   -23006.576    246.90882 
    9800     48.74101     48.74101     48.74101    25.438493    133.54276     240.2687     -46.2771    240.25239   -10.950184    240.26047   -23006.413    247.57316 
    9850     48.74296     48.74296     48.74296   -84.484781   -80.649671    240.17228   -50.978914    240.16944   -121.82576    240.20318    -23007.14    249.24186 
    9900    48.743127    48.743127    48.743127   -30.596131    154.86101    240.19399    -166.3251    240.19223   -80.324303    240.23116   -23002.315    244.68415 
    9950    48.741235    48.741235    48.741235    127.33009    137.55296    240.29089      207.245    240.30776     37.19232    240.22199   -23002.622     245.8762 
   10000    48.742731    48.742731    48.742731    37.772334    68.321153     240.1903   -41.933086      240.228    86.928934    240.19875   -23002.856    246.97215 
   10050     48.74597     48.74597     48.74597   -172.83583   -177.57921    240.06136   -237.25299    240.08423   -103.67529    240.10639   -23004.404    249.54726 
   10100    48.743567    48.743567    48.743567   -1.6921312    54.975441    240.16647   -23.642805    240.15336    -36.40903    240.16678   -23004.531    250.52727 
   10150    48.741393    48.741393    48.741393    79.317197    95.678619    240.26987    18.180592    240.27921    124.09238    240.26624    -23002.36    248.92545 
   10200     48.74322     48.74322     48.74322     32.57833    39.096856    240.15385     115.3113    240.23466   -56.673168    240.21093     -23002.1    249.46484 
   10250    48.746285    48.746285    48.746285   -91.113364   -38.140904    240.03771   -79.308438    240.10295   -155.89075    240.08647   -23002.962    251.25331 
   10300    48.745815    48.745815    48.745815   -47.525796   -49.036023    240.06664   -154.86274    240.11628    61.321378    240.07351   -23003.096    252.22719 
   10350    48.743739    48.743739    48.743739    13.173936   -5.3589996    240.22239    90.496774    240.19799   -45.615966    240.15561   -23002.219      252.059 
   10400    48.743855    48.743855    48.743855    114.12933    63.767807     240.2142    59.801089    240.19416    218.81909    240.19622   -22999.036    249.31103 
   10450    48.747399    48.747399    48.747399   -147.81831   -154.03116    240.02598   -188.25168    240.05523   -101.17209    240.02667   -23002.453    253.94887 
   10500    48.746152    48.746152    48.746152    54.436907    37.525487    240.11206    105.70573    240.13776    20.079501     240.0953   -22998.609    250.45983 
   10550    48.744317    48.744317    48.744317    52.138779   -11.100588    240.20631    112.81424     240.2109    54.702691    240.13864   -22999.668    252.45208 
   10600    48.744968    48.744968    48.744968    96.295092    107.30133    240.13282      107.983    240.20314    73.600949    240.17572   -22998.881    252.37223 
   10650    48.748347    48.748347    48.748347   -132.55413   -83.108329    240.03789   -58.032324    240.04713   -256.52173    240.06213   -23001.021    255.56723 
   10700    48.747983    48.747983    48.747983    -144.9972   -314.88414    240.04351    -112.8914    240.05623     -7.21606    240.04474   -23001.337     256.7174 
   10750      48.7447      48.7447      48.7447    127.09512    166.95248    240.10511    89.215684    240.19836    125.11721    240.20101   -22998.678    254.54142 
   10800    48.745949    48.745949    48.745949    4.2084405   -180.46296    240.12714    67.814297    240.13504    125.27398    240.13325   -22998.886    255.55994 
   10850     48.74907     48.74907     48.74907   -15.108261    19.497009    240.06509   -71.446427    240.05849    6.6246351    240.02136   -22995.707    252.78941 
   10900    48.749902    48.749902    48.749902   -109.07063   -72.291594    240.02608   -140.12375     239.9647   -114.79655    240.02335   -22996.722    254.71122 
   10950    48.746148    48.746148    48.746148    113.17708    102.80421    240.11182     -4.49558    240.07695    241.22261    240.10027    -22997.33    256.17493 
   11000    48.746279    48.746279    48.746279    29.381746    35.291281    240.14202    34.995511    240.05718    17.858447    240.06353   -22999.422    259.29312 
   11050     48.74927     48.74927     48.74927   -3.9477335    -26.17393    240.00668   -71.596985    240.09597    85.927714     240.0521   -22995.241    255.38531 
   11100     48.75046     48.75046     48.75046   -85.833852   -152.36131    239.98339   -47.957584    239.99467   -57.182661    239.97368    -22994.78    255.63779 
   11150    48.748081    48.748081    48.748081    71.342057    92.091651    240.06335    107.43953    240.09804     14.49499    240.06325   -22995.171    256.84166 
   11200    48.747679    48.747679    48.747679    131.63033    111.38736    240.13782   0.77246553     240.1043    282.73116    240.11919   -22992.128    254.20172 
   11250    48.750879    48.750879    48.750879   -29.589164    54.557095    239.96999    25.187185    239.97856   -168.51177    239.99071   -22994.344     257.4429 
   11300    48.751726    48.751726    48.751726    -107.6606   -198.96825    239.98094   -121.00025    239.97858   -3.0132972    239.94099   -22995.687    259.70477 
   11350    48.749485    48.749485    48.749485   -22.863493    40.889807    240.00003    45.567953    240.04898   -155.04824    239.98067   -22996.812    261.71974 
   11400    48.749461    48.749461    48.749461    87.362749    79.560954    240.03644    54.960204    240.01791    127.56709    240.06094   -22993.824    259.12977 
   11450    48.751584    48.751584    48.751584    6.7385575    1.8116094    239.96529    -11.42629    239.98483    29.830353    239.98657   -22990.927    256.63686 
   11500    48.753024    48.753024    48.753024   -117.96047   -104.54329    239.85835   -114.89064    239.84847   -134.44747    239.84466   -22996.002    263.06042 
   11550    48.751024    48.751024    48.751024    1.1282512    89.151604    239.93548   -25.125105    239.98852   -60.641745    239.96626   -22993.574    261.08768 
   11600    48.750089    48.750089    48.750089    43.600027   -10.595246    239.99723        60.33    240.08973    81.065328    239.99934    -22993.24    261.44052 
   11650    48.752148    48.752148    48.752148   -112.40062   -131.13786    239.91157    38.012675    239.94601   -244.07667    239.94266   -22995.304    264.48936 
   11700    48.752568    48.752568    48.752568   -55.653186   -5.3602146    239.92391   -41.351732    239.88527   -120.24761    239.90599   -22994.375    264.17567 
   11750    48.751213    48.751213    48.751213    95.110183    82.265827    240.02898    108.91236    240.01758     94.15236    239.96082   -22989.437    259.37887 
   11800    48.751823    48.751823    48.751823     114.7845    260.44381    240.00428    115.01027    239.99774   -31.100569    240.00461   -22988.942    259.53989 
   11850    48.755111    48.755111    48.755111    -70.15804   -16.801922    239.88164   -131.42505    239.85951   -62.247146    239.88733   -22988.088    259.30905 
   11900    48.754561    48.754561    48.754561   -46.726035   -29.568348    239.88862    10.325098    239.89378   -120.93486    239.85605    -22991.47    263.81449 
   11950    48.752065    48.752065    48.752065    107.53599    126.17928    239.98722     106.9402    240.03323    89.488499    239.97722   -22988.232    260.90201 
   12000    48.753518    48.753518    48.753518   -41.921227   -164.43384    239.86646    113.02819    239.91768   -74.358024    239.88289   -22994.069    268.15229 
   12050    48.754935    48.754935    48.754935   -17.250252    79.730172    239.82075   -72.992709    239.85355   -58.488219    239.80662    -22989.88    264.17017 
   12100    48.754503    48.754503    48.754503    44.219559    27.379786    239.87138   -47.986644    239.90579    153.26553    239.96044   -22986.782    261.40479 
   12150     48.75467     48.75467     48.75467    58.764341   0.19193316    239.85974    138.88525    239.88061    37.215844    239.91999   -22987.411    262.80271 
   12200    48.755976    48.755976    48.755976   -35.661083   -109.92944    239.85801   -48.715904    239.90776    51.662091    239.81305   -22988.609    264.84227 
   12250     48.75573     48.75573     48.75573   -41.713061   -57.194007    239.85296   -15.544379    239.86551   -52.400797    239.92188   -22989.101    266.08262 
   12300    48.755088    48.755088    48.755088   -29.461158    -141.4674    239.85346   -41.427527    239.88209    94.511456    239.84106   -22989.534     267.2564 
   12350    48.754639    48.754639    48.754639   -24.391849    50.665225    239.90679   -69.598229    239.84422   -54.242543    239.90685   -22990.017    268.48801 
   12400    48.755317    48.755317    48.755317    83.109776    28.208449    239.87938    169.03307    239.90419    52.087814    239.90294   -22986.108    264.78772 
   12450     48.75824     48.75824     48.75824   -151.63112   -114.82671     239.7984   -263.72472    239.74487   -76.341935    239.77433   -22989.343    269.08936 
   12500    48.756303    48.756303    48.756303    86.364124   -53.658056    239.89622    173.52809    239.84977    139.22234    239.89342   -22983.043    262.71008 
   12550    48.755384    48.755384    48.755384     47.20149   -33.218622    239.86557    40.754955    239.88084    134.06814    239.88218   -22987.421    268.28546 
   12600    48.756271    48.756271    48.756271    72.107985    36.362019    239.83501    15.311931    239.84011    164.65001    239.83901   -22985.053    266.30049 
   12650     48.75878     48.75878     48.75878   -135.51743   -273.73386    239.74515   -97.858055    239.73769   -34.960369     239.7541   -22986.084    268.11972 
   12700     48.75684     48.75684     48.75684   -8.0401115    5.3747519    239.83043   -36.707702    239.81289    7.2126156     239.8164   -22987.266    270.10275 
   12750    48.755467    48.755467    48.755467    128.94427   -4.3300643    239.86814    129.85787    239.87256    261.30499    239.90023   -22985.009    268.23301 
   12800    48.759241    48.759241    48.759241   -157.33117   -314.10896    239.74517   -5.6334891    239.77774   -152.25105    239.74362   -22986.965    271.07488 
   12850    48.758807    48.758807    48.758807    22.232607    4.9592243    239.74422     39.39387    239.84593    22.344728    239.77408   -22982.591      266.827 
   12900    48.756879    48.756879    48.756879   -39.389439   -126.91023    239.79035    46.890503     239.8259    -38.14859    239.82897   -22985.833    271.10454 
   12950    48.754675    48.754675    48.754675    240.20106    182.89176    239.88889    191.19933    239.90972    346.51209    239.92124   -22983.775    269.44335 
   13000    48.759975    48.759975    48.759975   -45.850702   -171.37726    239.73499    -49.96524    239.75717    83.790393    239.76107   -22982.205    268.31372 
   13050    48.763028    48.763028    48.763028   -217.22938   -167.66075    239.60648   -253.90318    239.58976    -230.1242    239.60711   -22984.736    271.78527 
   13100    48.758045    48.758045    48.758045    61.178518   -60.898087    239.76589    144.16285    239.79176     100.2708    239.79286   -22984.171     271.7817 
   13150    48.756655    48.756655    48.756655    195.36177    201.32613    239.83006    181.43659    239.84179    203.32258    239.87457   -22982.896    270.98278 
   13200    48.761345    48.761345    48.761345    -164.0258    -221.8966    239.70016   -186.08619    239.61678   -84.094621    239.70197   -22983.972    272.81083 
   13250    48.761982    48.761982    48.761982   -61.242059   -28.854596    239.62457   -67.987216    239.62743   -86.884365     239.6194   -22981.589     270.7621 
   13300    48.759655    48.759655    48.759655   -1.4175521   -44.946113    239.70697   -90.938303     239.7014    131.63176    239.77243   -22983.637    273.67565 
   13350    48.757944    48.757944    48.757944    162.57413     107.2536    239.77359    187.56104    239.84544    192.90776    239.81248   -22980.665    270.95829 
   13400    48.761342    48.761342    48.761342   -86.225802   -73.489276    239.64629   -67.284445    239.68906   -117.90369    239.70588   -22984.301    275.63917 
   13450    48.762346    48.762346    48.762346   -2.6865727   -19.543899    239.66234   -104.51874    239.70613    116.00292    239.68305   -22978.795    270.07928 
   13500    48.760905    48.760905    48.760905     10.34466    4.1239291    239.73039   -33.166107    239.71893    60.076157    239.75073   -22980.858    272.98865 
   13550    48.759646    48.759646    48.759646   -8.4226869   -190.55435    239.72997    73.340301     239.7633    91.945987     239.7802   -22982.252    275.14676 
   13600    48.760721    48.760721    48.760721    119.45214    135.38204    239.71314    28.483799    239.71563     194.4906    239.74296    -22979.09    272.20375 
   13650    48.763928    48.763928    48.763928   -171.96911    -182.5508    239.60489    -170.3028    239.60827   -163.05373    239.62408   -22982.126    276.19283 
   13700    48.762004    48.762004    48.762004    28.059002    32.135713    239.67957    28.502163    239.68577    23.539129     239.6749   -22978.902    273.16931 
   13750    48.760335    48.760335    48.760335   -18.386718   -116.42034    239.71883    131.41475    239.72214   -70.154568    239.77697   -22982.917    278.25051 
   13800    48.760693    48.760693    48.760693    163.25154    207.04234    239.77637    115.87634    239.74158    166.83593     239.7731   -22977.348    272.59241 
   13850    48.765377    48.765377    48.765377   -159.98305   -380.71631    239.59322   -17.111731    239.58942    -82.12112    239.57568   -22979.504    275.58342 
   13900    48.763581    48.763581    48.763581    -69.92738    14.889693    239.64274    -172.2418    239.60639   -52.430032    239.61271   -22977.816    274.26791 
   13950    48.759197    48.759197    48.759197    198.70994    37.528519    239.81177    328.13235    239.81637    230.46895    239.78354   -22979.066    276.23675 
   14000    48.762199    48.762199    48.762199    57.842898    228.91759    239.67464   -96.527768    239.68273    41.138876    239.75275   -22977.405     274.9388 
   14050    48.766548    48.766548    48.766548   -157.31452   -213.74171     239.5132   -171.66311    239.50035   -86.538745    239.56323   -22978.063    276.24001 
   14100     48.76416     48.76416     48.76416   -14.757866   -65.012593    239.67265     21.05272    239.61298  -0.31372514    239.64002   -22976.829    275.41462 
   14150    48.760811    48.760811    48.760811    142.45332    158.04931    239.72801    146.95348     239.7243    122.35715    239.74315   -22978.382    277.71143 
   14200      48.7629      48.7629      48.7629    124.99481    114.48896    239.66734   0.96997579    239.67818    259.52548    239.65399   -22975.801    275.37533 
   14250    48.767806    48.767806    48.767806   -156.03348   -270.14548    239.45369   -102.64382    239.45722   -95.311142    239.51568   -22976.084    276.24317 
   14300    48.764891    48.764891    48.764891   -83.870844    16.172737    239.59004   -252.10082    239.62676   -15.684453    239.60662   -22979.429    280.52993 
   14350    48.760782    48.760782    48.760782    126.37166    117.91295    239.76483    191.67749    239.75729    69.524552     239.8247   -22976.043     277.2768 
   14400    48.763435    48.763435    48.763435     32.26501   -53.129426    239.65139    19.977592     239.6649    129.94687    239.62968   -22977.786    279.76772 
   14450    48.766879    48.766879    48.766879   -101.01194   -18.316901    239.54346   -207.50302    239.55657   -77.215902    239.55258   -22975.686    277.94823 
   14500    48.765743    48.765743    48.765743    -102.2345   -181.29903    239.56502   -140.16424    239.56307    14.759761    239.58231   -22977.524    280.53336 
   14550    48.762112    48.762112    48.762112    204.71246    157.31651    239.74079    228.12318    239.68712    228.69771    239.73602   -22974.319    277.47046 
   14600    48.764934    48.764934    48.764934   -13.868742   -16.919243    239.58575   -55.858868    239.60385    31.171885    239.59012   -22974.582    278.28552 
   14650    48.766874    48.766874    48.766874   -138.26091   -201.52928     239.5236   -123.75596    239.54616   -89.497483    239.56315    -22978.21    282.86865 
   14700    48.765228    48.765228    48.765228    2.2428694   -59.107303    239.57982     126.3544    239.59905    -60.51849    239.60215   -22974.669    279.41249 
   14750    48.764422    48.764422    48.764422     133.6238    61.234006    239.62589    130.22901    239.64448    209.40838    239.62011   -22974.597    279.84703 
   14800    48.766691    48.766691    48.766691    -52.37333   -87.642658    239.62266    3.8478999    239.54767   -73.325232    239.59958   -22975.261    281.09609 
   14850    48.768624    48.768624    48.768624   -94.097786   -188.57613    239.51091   -154.03742    239.45483    60.320186    239.49961   -22974.729      281.004 
   14900    48.767952    48.767952    48.767952   -169.09061   -12.401599    239.55574   -315.26007    239.44986   -179.61016    239.49456   -22979.354    286.68404 
   14950    48.763957    48.763957    48.763957    264.78177    116.00404    239.69653    419.02135    239.65138    259.31993    239.70058   -22969.954     276.6566 
   15000     48.76812     48.76812     48.76812   -69.563632   -146.42762    239.50028   -1.4485486      239.472   -60.814731    239.51299   -22975.552    283.41295 
   15050    48.770371    48.770371    48.770371   -202.81721    -238.8058    239.41643   -173.25952    239.41483    -196.3863    239.41204   -22975.546    283.90006 
   15100    48.765077    48.765077    48.765077    219.26329    124.20716    239.66294    286.49541    239.60826    247.08731    239.62928   -22969.076    277.13891 
   15150    48.765203    48.765203    48.765203    89.979409    97.932726    239.62413    89.468962    239.62426    82.536538    239.64912   -22974.077    283.21575 
   15200    48.769176    48.769176    48.769176   -11.116562   -147.07871    239.52417    95.856917    239.49925    17.872103    239.54122   -22969.597    278.67239 
   15250    48.770168    48.770168    48.770168   -197.87391   -261.58835    239.41153   -119.04671    239.45041   -212.98666    239.40389   -22975.913     286.2165 
   15300    48.765832    48.765832    48.765832    137.10212    93.726871    239.63901      124.681    239.62641    192.89848    239.60302   -22971.705    281.97762 
   15350    48.766995    48.766995    48.766995     6.443881   -55.739438    239.52896    147.86747    239.55855   -72.796387    239.58902   -22973.776    284.76597 
   15400    48.769896    48.769896    48.769896   -67.261897    -44.00069    239.46637   -58.977529    239.48913   -98.807472    239.45294   -22971.824     283.0424 
   15450    48.770795    48.770795    48.770795   -126.38169   -201.48345    239.43646   -80.596035    239.39988   -97.065595    239.49062   -22972.753    284.54165 
   15500    48.767554    48.767554    48.767554    122.55782    75.946429    239.58026    26.384059    239.55888    265.34297    239.52767    -22970.52    282.49901 
   15550     48.76755     48.76755     48.76755    47.068829    70.970946    239.55664    -25.80388    239.55913    96.039421    239.55013   -22970.324    282.73234 
   15600    48.769113    48.769113    48.769113   -49.601289   -314.94725    239.44601    57.258511    239.46188    108.88487    239.49016   -22974.324    287.66232 
   15650    48.769058    48.769058    48.769058    -43.72359    89.243634    239.50403   -220.25087    239.49656  -0.16353643      239.537   -22970.967    284.34385 
   15700    48.768495    48.768495    48.768495    2.3021315   -95.102662    239.54019    16.894122    239.50989    85.114935    239.55041   -22971.124    284.96064 
   15750    48.768399    48.768399    48.768399   -18.710285   -33.143664    239.58117   -19.413267    239.54982   -3.5739237    239.55279   -22970.763    284.99022 
   15800    48.768731    48.768731    48.768731   -31.412138   -144.45047    239.57696   -34.749403     239.5195    84.963458      239.517   -22972.104    286.92276 
   15850    48.769502    48.769502    48.769502    3.7486121   -41.349074     239.5278    39.355076    239.51272    13.239835    239.47416   -22969.518    284.45851 
   15900    48.769642    48.769642    48.769642    14.011822    68.836626    239.47663   -149.20894    239.50846    122.40778    239.48553   -22969.592    284.97248 
   15950    48.768476    48.768476    48.768476    143.67193    68.512201     239.5495    240.91769    239.53691     121.5859    239.54543   -22966.433    281.85595 
   16000    48.770711    48.770711    48.770711   -119.64321   -145.99705    239.45866   -247.33352    239.48718    34.400933    239.42748   -22971.442    287.87973 
   16050    48.770224    48.770224    48.770224    -24.34395   -112.80802    239.54564   -72.384858    239.49629    112.16103    239.51105   -22968.303    284.77888 
   16100    48.769203    48.769203    48.769203    37.884755   -76.499963    239.49077    38.600755    239.49827    151.55347    239.52352   -22968.618    285.54692 
   16150    48.769506    48.769506    48.769506   -7.5073264   -49.229588    239.50369   -34.779179     239.4427    61.486788    239.47264   -22971.255    288.91466 
   16200     48.76954     48.76954     48.76954    106.72676    52.095552    239.51922    154.82153    239.50544    113.26321    239.52941   -22965.667    283.06441 
   16250    48.770839    48.770839    48.770839   -46.942155   -99.265185    239.46783   -27.033685    239.51022   -14.527594    239.49719   -22968.432    286.56378 
   16300    48.769598    48.769598    48.769598    51.473826    36.468482    239.54554    17.254926    239.52416    100.69807    239.51625   -22967.312    285.70569 
   16350    48.769767    48.769767    48.769767   -10.485094   -102.97529    239.53771    12.090414    239.49405    59.429597    239.53382   -22969.598    288.65876 
   16400    48.771513    48.771513    48.771513    14.100085    5.0567687    239.40685   -73.721355    239.47529    110.96484    239.44817   -22967.935    287.18917 
   16450    48.772791    48.772791    48.772791   -161.78285   -286.15813     239.3928     -191.842     239.3656    -7.348407    239.41385   -22970.272    290.19341 
   16500    48.769935    48.769935    48.769935     50.79708    57.524056     239.5018    -43.56986    239.54374    138.43704    239.49829   -22968.088    288.13034 
   16550    48.770325    48.770325    48.770325    48.370882    110.69674    239.48832     10.33475    239.48012    24.081155    239.48323    -22969.72    290.34175 
   16600    48.772494    48.772494    48.772494   -56.351144   -165.86015    239.43041   -122.72793    239.41224    119.53465    239.45343    -22965.27    285.73506 
   16650    48.771516    48.771516    48.771516    34.733867    117.17692    239.47397   -130.78469    239.47856    117.80937     239.4874   -22965.164     285.9911 
   16700    48.770054    48.770054    48.770054    73.462583   -172.22754    239.47358    72.546875    239.47976    320.06842    239.50285   -22966.647     288.0253 
   16750    48.771386    48.771386    48.771386    89.752596    172.17182    239.42188    -3.497828    239.43503    100.58379    239.46203   -22966.038     287.7127 
   16800     48.77536     48.77536     48.77536   -221.05233   -208.86471    239.29926   -309.85512    239.26986   -144.43716    239.30716   -22969.232    291.65233 
   16850    48.772668    48.772668    48.772668    -35.76116    155.00979    239.41124   -109.85253    239.33465   -152.44074    239.41013   -22966.851    289.34783 
   16900    48.768658    48.768658    48.768658    115.68656     214.7652     239.5379    -89.14561    239.59403     221.4401    239.51038   -22968.944    292.04934 
   16950    48.770522    48.770522    48.770522    48.543687    145.96999    239.50174    11.043448    239.47067   -11.382373    239.52841   -22966.147    289.26888 
   17000    48.774766    48.774766    48.774766   -241.56563   -208.85282    239.31155   -296.95441    239.39561   -218.88964    239.33848   -22968.443    292.18828 
   17050    48.772792    48.772792    48.772792    -7.912087   -50.838876    239.43866    121.03697    239.39101   -93.934352    239.44373   -22965.507    289.24588 
   17100    48.770222    48.770222    48.770222    114.97347    207.19208    239.48232    15.162155    239.49398    122.56618    239.54595   -22964.281    288.22336 
   17150    48.770872    48.770872    48.770872    125.26032    267.13285    239.48772    5.1334063    239.46601    103.51469    239.50706   -22966.305    290.83248 
   17200    48.775459    48.775459    48.775459   -104.29051   -213.84706    239.38326   -131.37293    239.29101    32.348461    239.37946   -22964.179     288.7879 
   17250    48.774854    48.774854    48.774854   -170.12729   -122.46793    239.35446   -146.67108    239.30891   -241.24288    239.32554   -22968.558    294.02779 
   17300    48.769485    48.769485    48.769485    192.50428    155.14489    239.53479    83.127771    239.54237    339.24018    239.56381   -22965.107    290.49348 
   17350    48.771943    48.771943    48.771943   -12.417448   -141.28018    239.43631   -31.820242    239.46128    135.84807    239.45327   -22966.674    292.57586 
   17400    48.775006    48.775006    48.775006   -108.57596   -148.72601    239.32417    11.067915    239.36406   -188.06978    239.35541   -22965.781    291.89716 
   17450    48.774527    48.774527    48.774527   -70.332829   -3.4412459    239.35565   -175.70196     239.3193   -31.855281    239.32262   -22965.836     292.2784 
   17500    48.772401    48.772401    48.772401    11.847967    14.303498    239.42421    73.446007    239.42773   -52.205604    239.43282   -22964.627    291.24453 
   17550    48.771594    48.771594    48.771594    92.629131    97.108399    239.46373    69.921836    239.45278    110.85716    239.44994   -22965.502    292.53735 
   17600    48.774817    48.774817    48.774817   -77.755272   -28.913959    239.36629   -36.954793    239.32012   -167.39706    239.38718   -22964.159    291.34425 
   17650    48.775644    48.775644    48.775644   -51.265631   -85.020999     239.3328   -54.337326    239.33385    -14.43857    239.32671   -22963.452    290.86602 
   17700    48.773549    48.773549    48.773549    89.851615   0.80068109    239.38033    64.892954    239.36477    203.86121    239.41832   -22965.012    292.91844 
   17750    48.774525    48.774525    48.774525    42.323694    72.531736    239.36258    1.9285559    239.37723    52.510789    239.40458   -22962.952    290.91047 
   17800    48.776435    48.776435    48.776435   -142.06947   -254.36884    239.25123    -91.03256    239.26575      -80.807    239.26726   -22963.755     292.1093 
   17850    48.773069    48.773069    48.773069    55.922287    213.76152    239.40677   -59.482903    239.40015    13.488247    239.37812   -22967.317     296.3902 
   17900    48.772317    48.772317    48.772317    192.00618    242.19742    239.48149    232.57988    239.49736    101.24124     239.4793   -22960.381    288.90669 
   17950    48.777517    48.777517    48.777517   -140.67799    -141.3108    239.26721   -207.07296    239.26886    -73.65021    239.30004       -22965    294.36554 
   18000    48.777654    48.777654    48.777654   -186.37819   -295.29987    239.25823   -105.78835    239.26366   -158.04634    239.23534   -22963.466    292.93023 
   18050     48.77227     48.77227     48.77227    247.88272    219.89368    239.49782    272.04798    239.45027    251.70649    239.46029   -22961.391    290.89309 
   18100    48.774347    48.774347    48.774347   -15.201224   -93.307449    239.37654   -6.6478955    239.38421    54.351673    239.37629   -22964.337    294.46994 
   18150    48.777139    48.777139    48.777139   -73.796235    11.821877    239.28509     63.23753    239.26319   -296.44811    239.29491   -22962.564    292.76426 
   18200    48.776701    48.776701    48.776701   -39.502592   -209.24006    239.30232    58.541138    239.30932    32.191144    239.29879   -22961.328    291.65355 
   18250    48.774762    48.774762    48.774762    35.580832    150.27919    239.38572    129.82667    239.39186   -173.36336    239.39163   -22962.179    292.87866 
   18300    48.773484    48.773484    48.773484    142.61056    41.887725     239.4141    197.17707    239.40842     188.7669    239.45067   -22963.014    294.08328 
   18350    48.776829    48.776829    48.776829   -40.810631   -190.84381    239.30823   -9.6868418    239.31999    78.098753    239.32978   -22962.825    294.13315 
   18400    48.779687    48.779687    48.779687   -152.61164   -132.53672    239.17018   -84.018791    239.16777   -241.27942    239.21257   -22963.706    295.38248 
   18450    48.776444    48.776444    48.776444   -11.702118   -110.99632    239.28415    -57.82372    239.24538    133.71369     239.3373   -22962.038    293.77452 
   18500    48.772811    48.772811    48.772811     329.2691    551.26439    239.49787    280.97809    239.47299    155.56481    239.45267    -22959.58    291.27656 
   18550     48.77852     48.77852     48.77852   -165.34168   -401.97236    239.26887   -65.753884    239.21431   -28.298792    239.24996   -22963.805    296.25641 
   18600    48.779455    48.779455    48.779455   -119.66699    -62.95623    239.25917   -207.93587    239.13029   -88.108882    239.27006   -22961.699    294.14643 
   18650    48.775328    48.775328    48.775328     82.13257   -83.635736    239.35491   -44.072132    239.35338    374.10558    239.39648   -22961.514    294.18614 
   18700    48.775123    48.775123    48.775123    31.059662    59.708962    239.36843   -64.190274    239.30035    97.660299    239.35386   -22963.986    297.19847 
   18750    48.777788    48.777788    48.777788    77.769834   -11.373497    239.30108    55.108636    239.28311    189.57436     239.3375   -22956.724    289.30871 
   18800    48.779704    48.779704    48.779704   -131.79883    -194.0432    239.20257   -98.083582    239.16907    -103.2697    239.20414   -22962.486    295.99857 
   18850    48.776437    48.776437    48.776437    30.898465    181.96768    239.32849   -99.232545    239.28907    9.9602643    239.32165   -22961.134    294.71693 
   18900    48.776044    48.776044    48.776044    72.915046     112.1016     239.3554    2.4951607    239.27028    104.14838    239.31884   -22962.391    296.35955 
   18950    48.778923    48.778923    48.778923   -25.669289    61.272216    239.23856   -180.87355    239.24031    42.593465    239.22914   -22959.941    293.85082 
   19000    48.778454    48.778454    48.778454   -5.0976752   -46.430897    239.25644    51.585856    239.27923   -20.447985    239.27315   -22959.913     294.0482 
   19050    48.776582    48.776582    48.776582     7.288887    9.9035808    239.28716   -46.241175     239.3008    58.204255    239.28326   -22963.045    297.77852 
   19100    48.776516    48.776516    48.776516    69.256027   -133.26836    239.31721    233.84845    239.28223    107.18799    239.35364   -22960.934    295.63535 
   19150    48.779356    48.779356    48.779356    -54.83531    106.70285    239.22804   -246.82495    239.19504   -24.383828    239.27183   -22959.522    294.26972 
   19200    48.779472    48.779472    48.779472   -7.2523698   -34.879758    239.24682   -56.707929    239.18481    69.830577    239.20035    -22959.56    294.52893 
   19250    48.776523    48.776523    48.776523    7.3744575   0.12284448    239.31385    92.576646    239.28835   -70.576118    239.34214   -22961.929    297.38938 
   19300    48.775781    48.775781    48.775781    65.152796    48.619541    239.35112    125.44796     239.3695    21.390887    239.33241    -22960.44    295.92826 
   19350    48.778536    48.778536    48.778536     22.96611   -29.488866    239.26681    123.65785    239.24116   -25.270648     239.2124   -22960.906    296.65566 
   19400    48.780622    48.780622    48.780622   -181.21668   -102.32376    239.18325   -221.50197    239.19017    -219.8243     239.2151   -22958.186    293.81098 
   19450    48.776649    48.776649    48.776649    68.345401   -12.116937    239.29583    117.96894    239.31699    99.184206    239.30226   -22961.113    297.28712 
   19500    48.775419    48.775419    48.775419    175.10829    177.57473    239.35818    179.37583    239.38557    168.37431    239.36956   -22959.862      296.084 
   19550    48.780618    48.780618    48.780618   -98.837073   -117.66137    239.19743   -227.21237     239.1187    48.362521    239.14119   -22960.686    297.20132 
   19600    48.781354    48.781354    48.781354   -101.55272   -119.44971    239.14989   -143.22015    239.16805   -41.988307    239.14357   -22958.161    294.56577 
   19650    48.776121    48.776121    48.776121    80.937737    91.982439    239.36203    49.895176    239.35221     100.9356    239.31922   -22959.629    296.39582 
   19700    48.774402    48.774402    48.774402    133.82943   -3.8631968    239.41024    126.30256    239.37523    279.04892    239.35891   -22961.814    299.02758 
   19750    48.780056    48.780056    48.780056   -27.018332    95.305962    239.18737   -122.13579    239.15436   -54.225165    239.18799   -22960.808    298.07596 
   19800     48.78383     48.78383     48.78383   -264.13221   -325.99302    239.08425    -309.3478    239.06467   -157.05582    239.03732   -22960.709     298.1407 
   19850    48.777495    48.777495    48.777495    80.851959    41.066062    239.32948    166.19623    239.30607    35.293584     239.2783   -22957.551    294.77138 
   19900    48.774248    48.774248    48.774248    176.87192    217.24233    239.39702    26.565723     239.3956     286.8077    239.38361   -22961.153    298.97759 
   19950    48.779544    48.779544    48.779544  -0.83747837   -105.76191    239.19493    20.190231    239.19062    83.059239    239.22331   -22958.146    295.77962 
   20000    48.782905    48.782905    48.782905    -132.5963   -120.90582    239.08529   -241.03413    239.08623   -35.848933     239.1838   -22956.783    294.42241 
Loop time of 1511.94 on 4 procs for 20000 steps with 6912 atoms

Pair  time (%) = 1410.35 (93.2803)
Neigh time (%) = 0 (0)
Comm  time (%) = 72.8162 (4.81607)
Outpt time (%) = 0.0737332 (0.00487672)
Other time (%) = 28.7082 (1.89876)

Nlocal:    1728 ave 1728 max 1728 min
Histogram: 4 0 0 0 0 0 0 0 0 0
Nghost:    5549 ave 5549 max 5549 min
Histogram: 4 0 0 0 0 0 0 0 0 0
Neighs:    120960 ave 124780 max 117085 min
Histogram: 1 0 1 0 0 0 0 1 0 1
FullNghs:  0 ave 0 max 0 min
Histogram: 4 0 0 0 0 0 0 0 0 0

Total # of neighbors = 483840
Ave neighs/atom = 70
Neighbor list builds = 0
Dangerous builds = 0
# run 	200000

# Use this if debug
# run 	1000
# run 200
unfix 1

# Store final cell length for strain calculations
variable tmp equal "lx"
variable L0 equal ${tmp}
variable L0 equal 48.782905480623
print "Initial Length, L0: ${L0}"
Initial Length, L0: 48.782905480623

######################################
# DEFORMATION
reset_timestep	0
set atom * xrad 0 yrad 0 zrad 0 vxrad 0 vyrad 0 vzrad 0
  6912 settings made for xrad
  6912 settings made for yrad
  6912 settings made for zrad
  6912 settings made for vxrad
  6912 settings made for vyrad
  6912 settings made for vzrad
fix		1 all npt temp 300 300 1 y 0 0 1 z 0 0 1 drag 1

variable srate equal 1.0e10
# variable srate equal 1.0e9 # tiny time step

variable srate1 equal "v_srate / 1.0e12"
fix		2 all deform 1 x erate ${srate1} units box remap x
fix		2 all deform 1 x erate 0.01 units box remap x

# Output strain and stress info to file
# for units metal, pressure is in [bars] = 100 [kPa] = 1/10000 [GPa]
# p2, p3, p4 are in GPa
variable strain equal "(lx - v_L0)/v_L0"
variable p1 equal "v_strain"
variable p2 equal "-pxx/10000"
variable p3 equal "-pyy/10000"
variable p4 equal "-pzz/10000"

# fix def1 all print 100 "${p1} ${p2} ${p3} ${p4}" file Al99.eam_rad.alloy.def1.txt screen no
# IMPLEMENTATION HERE
variable p5 equal "-pxxrad/10000"

# VERSION add rad variables
variable p6 equal "-pyyrad/10000"
variable p7 equal "-pzzrad/10000"

# VERSION ublb coupled/decoupled scheme
# variable p6 equal "-pxxub/10000"
# variable p7 equal "-pxxlb/10000"

fix def1 all print 20 "${p1} ${p2} ${p3} ${p4} ${p5} ${p6} ${p7}" file Al99.eam_rad.alloy.def1.txt screen no

# Use cfg for AtomEye
# dump 		1 all cfg 250 dump.tensile_*.cfg mass type xs ys zs c_csym c_peratom fx fy fz
# dump_modify 1 element Al

# print output to a text file every n timesteps
# dump		2 all custom 50 dump.xyz_rvf_rad.tensile_*.txt mass type id x y z vx vy vz fx fy fz xrad yrad zrad vxrad vyrad vzrad fxrad fyrad fzrad # use for rad developement
# dump		2 all custom 50 dump.xyz_rvf_rad.tensile_*.txt mass type id x y z vx vy vz fx fy fz xrad yrad zrad vxrad vyrad vzrad fxrad fyrad fzrad xub yub zub vxub vyub vzub fxub fyub fzub xlb ylb zlb vxlb vylb vzlb fxlb fylb fzlb # use for ublb developement

# Display thermo
thermo 	50
# thermo 1
# thermo_style	custom step v_strain temp v_p2 v_p3 v_p4 ke pe press

# IMPLEMENTATION HERE
thermo_style	custom step v_strain temp v_p2 v_p3 v_p4 v_p5 v_p6 v_p7 ke pe press
run	20000
Memory usage per processor = 5.71889 Mbytes
Step strain Temp p2 p3 p4 p5 p6 p7 KinEng PotEng Press 
       0 -4.3696213e-16    294.42241  0.012090582  0.024103413 0.0035848933 -0.023908529 -0.023908623  -0.02391838    263.01251   -22956.783    -132.5963 
      50       0.0005    295.33576  0.078089519  0.026289372  0.014579731 -0.023890154 -0.023895057 -0.023897448    263.82841   -22957.494   -396.52874 
     100        0.001    300.19273  0.079307839 -0.0060134967  0.014027974 -0.023899323 -0.023904597          nan    268.16722   -22961.701   -291.07439 
     150       0.0015    296.64056  0.081284654 -0.013273406 0.00014421154 -0.023906722 -0.023918038 -0.023915889    264.99402   -22958.382   -227.18487 
     200        0.002    300.31323   0.14122088 -0.014259365 -0.018619634 -0.023888797 -0.023908278          nan    268.27488   -22961.489   -361.13961 
     250       0.0025    294.53422   0.18527318  0.018278998 -0.00065450614 -0.023859003 -0.023880702 -0.023878772    263.11239   -22956.132   -676.32556 
     300        0.003    295.92217   0.21972622  0.020581645  0.024873053 -0.023838815 -0.023864927          nan    264.35226   -22957.154   -883.93639 
     350       0.0035     297.4606    0.2319061 -0.0057615724 -0.0057608541 -0.023849064  -0.02387924 -0.023879773    265.72657   -22958.302   -734.61225 
     400        0.004    295.16568   0.23443856 -0.022615856 -0.016421359 -0.023851988 -0.023885312          nan    263.67648   -22956.005   -651.33781 
     450       0.0045    297.57972   0.30737003  -0.01802179 -0.0023253027 -0.023842175 -0.023873047 -0.023871806    265.83298   -22957.903   -956.74314 
     500        0.005    300.86619   0.33573859  0.023443792  0.030422666 -0.023813712 -0.023858527          nan    268.76884   -22960.563   -1298.6835 
     550       0.0055    298.29979   0.37735503 0.0093063668  0.024078021  -0.02380347 -0.023853274 -0.023845935    266.47623    -22957.98   -1369.1314 
     600        0.006    297.46425   0.38752585 0.0063780934 -0.020931922 -0.023810153 -0.023850158          nan    265.72983    -22956.92   -1243.2401 
     650       0.0065    295.79509   0.41561707 -0.0047353192 -0.024490109 -0.023809254 -0.023849102 -0.023857284    264.23874     -22955.1   -1287.9721 
     700        0.007    297.24252   0.44311835 0.0017731224 -0.011871961 -0.023790364 -0.023840476          nan    265.53176   -22956.057   -1443.3984 
     750       0.0075    300.97052   0.49970933  0.035927835  0.019644639 -0.023770185 -0.023816819 -0.023820507    268.86204   -22959.028   -1850.9394 
     800        0.008    294.34279   0.51320319 -0.012319015 0.0085432455 -0.023775542 -0.023826627          nan    262.94138   -22952.745   -1698.0914 
     850       0.0085    297.08985   0.55047897 -0.010955113 -0.015489729 -0.023767398 -0.023823575 -0.023826762    265.39537   -22954.811   -1746.7804 
     900        0.009    298.21644   0.59149926  -0.02104811 0.0091122583  -0.02375104 -0.023814347          nan    266.40177   -22955.414    -1931.878 
     950       0.0095     297.4322   0.62915472  0.027583383  0.018692431 -0.023734945 -0.023797935 -0.023793888     265.7012   -22954.298   -2251.4351 
    1000         0.01    297.49266   0.66665883 -0.0072261886  0.024564068 -0.023732388 -0.023795327          nan    265.75521   -22953.929    -2279.989 
    1050       0.0105    296.25608   0.66837981 0.0029688931 -0.017643121 -0.023736418 -0.023801505 -0.023807752    264.65055   -22952.383   -2179.0186 
    1100        0.011     298.6668   0.70132904 -0.0022158583 -0.0083765424 -0.023728236 -0.023800383          nan    266.80408   -22954.081   -2302.4555 
    1150       0.0115    296.66819   0.74821784 0.0075799998 -0.026965735  -0.02371571   -0.0237873 -0.023790151     265.0187   -22951.839   -2429.4403 
    1200        0.012    298.03769   0.79875889 0.0037700197  0.023461974 -0.023695918 -0.023771174          nan     266.2421   -22952.587    -2753.303 
    1250       0.0125    300.10342    0.8144265 0.0064063072  0.032395052 -0.023690837 -0.023760885 -0.023762968    268.08745   -22953.947   -2844.0929 
    1300        0.013    300.11928   0.84626798 0.0036983382 -0.0099357726  -0.02369192 -0.023770093          nan    268.10162   -22953.463   -2800.1018 
    1350       0.0135    301.20106   0.86205453 -0.0050040613 0.0081398855 -0.023679471 -0.023757204  -0.02376091    269.06799   -22953.921   -2883.9679 
    1400        0.014    296.88312   0.92575336 0.0021857943 -0.0054823402  -0.02366691 -0.023749898          nan     265.2107   -22949.541   -3074.8561 
    1450       0.0145    299.01579    0.9409577  0.012525796  0.028414975 -0.023657882   -0.0237383 -0.023738824    267.11584   -22950.916   -3272.9949 
    1500        0.015    297.58973   0.96649204 -0.0020404599 0.0017535111 -0.023659146 -0.023748774          nan    265.84193   -22949.105   -3220.6836 
    1550       0.0155    301.44548   0.99420002 -0.020364834  0.020425795  -0.02365895 -0.023746926 -0.023749098    269.28633   -22951.997   -3314.2033 
    1600        0.016    298.08266    1.0265851  0.018207081 -0.023699798 -0.023642468 -0.023733119          nan    266.28226   -22948.432   -3403.6414 
    1650       0.0165    299.08517    1.0927887  0.016448132   0.02476324 -0.023622794 -0.023712211 -0.023717693    267.17782   -22948.749   -3780.0001 
    1700        0.017     294.3183    1.0849322  0.017094225 -0.016503827 -0.023630107 -0.023724385          nan     262.9195   -22943.911   -3618.4087 
    1750       0.0175    300.01199    1.1196112 -0.0078083748 -0.011369546  -0.02362912 -0.023725095 -0.023731516    268.00577   -22948.404   -3668.1108 
    1800        0.018    295.63528    1.1332693 -0.00082817483 -0.016117438 -0.023623613  -0.02372109          nan    264.09598   -22943.899    -3721.079 
    1850       0.0185    302.05272    1.2138533 -0.0083498532 0.0073757415 -0.023601756 -0.023702193 -0.023702627    269.82879   -22949.018   -4042.9305 
    1900        0.019    297.28359    1.2225608 -0.0022412515  0.026355956 -0.023588171 -0.023693721          nan    265.56845   -22944.134   -4155.5849 
    1950       0.0195    297.46472    1.2715496 -0.0025257135  0.026675865 -0.023581894 -0.023687081 -0.023681802    265.73025   -22943.665   -4318.9993 
    2000         0.02    299.24477    1.2753475 0.0024742404 -0.0015624753 -0.023588661 -0.023693928          nan     267.3204   -22944.612   -4254.1974 
    2050       0.0205    298.42048    1.3167482 -0.013839989 -0.027935528 -0.023590141 -0.023698856 -0.023696849    266.58404   -22943.222   -4249.9091 
    2100        0.021    296.18991    1.3511535 0.0081329827 -0.019187499 -0.023566823 -0.023678189          nan    264.59144   -22940.567   -4466.9967 
    2150       0.0215    300.40674    1.4036719  0.030961518  0.021799312 -0.023545224 -0.023648399 -0.023651374    268.35841   -22943.655   -4854.7756 
    2200        0.022    296.68443    1.4217363 0.0021040985 0.0032496512  -0.02354516 -0.023656963          nan     265.0332   -22939.651   -4756.9668 
    2250       0.0225    295.78536    1.4272522 -0.0087129819 -0.012842636 -0.023556357 -0.023666534 -0.023664984    264.23005   -22938.162   -4685.6551 
    2300        0.023    298.28169    1.4737972 -0.028912289 -0.0090624085 -0.023550707 -0.023669885          nan    266.46007   -22939.683   -4786.0748 
    2350       0.0235    298.20585    1.5067833 -0.013924467  0.032712686   -0.0235383 -0.023655771 -0.023649234    266.39232   -22938.904   -5085.2384 
    2400        0.024    301.97864    1.5513312 0.0019924445  0.010352486 -0.023525694 -0.023636607          nan    269.76261   -22941.556   -5212.2539 
    2450       0.0245    299.84064    1.5767893  0.011008771 0.0092582246 -0.023520242  -0.02363153 -0.023635678     267.8527   -22938.915   -5323.5211 
    2500        0.025    302.44067    1.5945245   0.02630236 -0.015743401 -0.023518891 -0.023628121          nan    270.17535   -22940.496   -5350.2781 
    2550       0.0255    294.20809    1.6283368 -0.020066621 -0.019287241 -0.023512456 -0.023628154 -0.023635447    262.82105   -22932.392   -5296.6097 
    2600        0.026    301.05513     1.684284  0.021245501 0.0063255091 -0.023495733  -0.02360725          nan    268.93763   -22937.742   -5706.1833 
    2650       0.0265    298.40883    1.7041091 0.0068520582 0.0058606626  -0.02348733 -0.023608354 -0.023606034    266.57364   -22934.605   -5722.7395 
[...]
   13800        0.138    288.75226    7.6826753  0.026910678  0.028673142 -0.021622537 -0.022094767          nan    257.94726    -22505.39   -25794.197 
   13850       0.1385    292.52418    7.7141569  0.018490275 -0.024841704  -0.02163523 -0.022111023 -0.022104068    261.31678   -22505.862   -25692.685 
   13900        0.139    293.30152    7.6781311 -0.010780338 -0.047368452 -0.021640932 -0.022118836          nan     262.0112   -22503.637   -25399.941 
   13950       0.1395     291.9536     7.711752  0.012193307 -0.011030103 -0.021612512 -0.022093826 -0.022088337    260.80707   -22499.536   -25709.717 
   14000         0.14     291.4108    7.7690803    0.0218621  0.056092387 -0.021583559 -0.022062924          nan    260.32218   -22496.121   -26156.783 
   14050       0.1405    295.28589     7.823112  0.025723195  0.022614282 -0.021585991 -0.022072796 -0.022071683    263.78387   -22496.653   -26238.165 
   14100        0.141    293.23286    7.7798242 -0.026811373 -0.055683363 -0.021607328 -0.022091711          nan    261.94986    -22491.87   -25657.765 
   14150       0.1415    288.62122    7.7819928 -0.050466451 -0.042912123 -0.021589629  -0.02208005 -0.022074418     257.8302   -22484.822   -25628.714 
   14200        0.142     290.6879    7.8638476  0.050267189  0.023499378 -0.021534482 -0.022018625          nan     259.6764   -22483.724   -26458.714 
   14250       0.1425     290.7588    7.8974955  0.039524747  0.044864766 -0.021510343  -0.02200299 -0.021996501    259.73974   -22480.819   -26606.283 
   14300        0.143    290.49929    7.8643036 -0.017125579 -0.010667569 -0.021535733  -0.02203048          nan    259.50791   -22477.629   -26121.702 
   14350       0.1435     291.6346    7.8823146 -0.020504342 -0.059263446 -0.021542383 -0.022040946 -0.022039034     260.5221   -22475.661   -26008.489 
   14400        0.144    292.96853    7.9276076 -0.017755623 0.0061107435 -0.021510411 -0.022011082          nan    261.71373   -22473.879   -26386.542 
   14450       0.1445    293.90158    7.9492826  0.039718238  0.057504335  -0.02146985 -0.021967987 -0.021953593    262.54724   -22471.724   -26821.684 
   14500        0.145    290.66347    7.9371476  0.026290807  0.036956844  -0.02146483 -0.021964555          nan    259.65457    -22465.84   -26667.984 
   14550       0.1455    286.41374    7.8929189 -0.044381796  -0.06510265   -0.0214826 -0.021989695 -0.021977023    255.85822   -22459.057   -25944.782 
   14600        0.146     289.6108    7.9534965 -0.048063016 -0.00065363401  -0.02146516 -0.021971948          nan    258.71421   -22458.917   -26349.266 
   14650       0.1465    288.93004    7.9886411 -0.0023973253   0.03717726 -0.021424161 -0.021937336 -0.021922688    258.10608   -22455.298   -26744.737 
   14700        0.147    292.35925            8  0.036231541  0.049656302 -0.021406699 -0.021910626          nan    261.16945   -22455.349   -26952.959 
   14750       0.1475    289.10093    7.9590408 -0.013898297 -0.0077400069 -0.021416344   -0.0219227 -0.021921435    258.25874   -22449.435   -26458.008 
   14800        0.148    286.50514    7.9379335 -0.055245835 -0.022473319 -0.021421859 -0.021930157          nan    255.93987   -22444.108   -26200.715 
   14850       0.1485    290.30468    7.9880813 0.0082192861 -0.010271872 -0.021397827  -0.02189439 -0.021904899    259.33407   -22444.483   -26620.096 
   14900        0.149    289.76187    7.9823206  0.028590785 0.0018129954 -0.021372339  -0.02187125          nan    258.84916   -22440.975   -26709.081 
   14950       0.1495    287.02215    7.9569833  0.025679307 -0.011448932 -0.021360296 -0.021864533 -0.021874178    256.40172    -22435.51   -26570.712 
   15000         0.15    286.64011    7.8998013 -0.0014300613 -0.040457421 -0.021359278 -0.021855022          nan    256.06044    -22432.16   -26193.046 
   15050       0.1505    287.12861     7.853488 -0.012862347 -0.010203755 -0.021342961 -0.021843118 -0.021854574    256.49683   -22429.608   -26101.406 
   15100        0.151    290.73093    7.8277531  0.016412554   0.03045508 -0.021327848 -0.021825048          nan    259.71484   -22429.848   -26248.736 
   15150       0.1515    297.47807    7.7498197  0.046617728 -0.016075336 -0.021331458  -0.02182242 -0.021836405    265.74218   -22432.931    -25934.54 
   15200        0.152    298.05194    7.5657749 -0.010824981 -0.038100858 -0.021343601 -0.021834728          nan    266.25483   -22430.556   -25056.164 
   15250       0.1525    299.54449    7.3938292 -0.025285874 0.0017161319 -0.021321809 -0.021801304 -0.021799513    267.58815   -22429.071   -24567.532 
   15300        0.153    300.98747    7.1601028  0.047057515  0.028303791 -0.021287539 -0.021752986          nan    268.87718   -22427.628   -24118.214 
   15350       0.1535    310.39201     6.888042  0.063536847  0.061977152 -0.021289424 -0.021742449 -0.021732443    277.27841   -22433.439    -23378.52 
   15400        0.154    314.67146    6.4979756 -0.012496204 -0.056318759 -0.021332377 -0.021778187          nan    281.10132   -22434.844   -21430.536 
   15450       0.1545    327.24075     6.106468 -0.018855626 -0.049710048 -0.021352457 -0.021785115  -0.02178407    292.32968   -22443.858   -20126.341 
   15500        0.155    334.59841    5.6925948  0.010586238 0.00070186307 -0.021342379 -0.021757945          nan     298.9024   -22448.491   -19012.943 
   15550       0.1555    349.31948    5.2244488  0.072064551  0.031236145 -0.021341272 -0.021731877 -0.021732047    312.05298   -22460.039   -17759.165 
   15600        0.156     355.3336    4.7600565  0.044606313 -0.0016305111 -0.021378932 -0.021756396          nan     317.4255   -22464.197   -16010.108 
   15650       0.1565    363.47722    4.2966342 -0.002745487 -0.070271172 -0.021432366 -0.021794648 -0.021793586    324.70033   -22470.653   -14078.725 
   15700        0.157    368.61477    3.8993044  0.013338811 -0.016097132 -0.021460073 -0.021804679          nan    329.28979   -22474.771   -12988.487 
   15750       0.1575    369.41292    3.5104797  0.015809887  0.068616328 -0.021486099 -0.021803358 -0.021790241    330.00279   -22475.308    -11983.02 
   15800        0.158    375.30828    3.1087533  0.023732088  0.074296379 -0.021554145 -0.021842207          nan    335.26922    -22480.67   -10689.273 
   15850       0.1585    377.76992     2.714652 -0.078490557   0.03643966 -0.021653073 -0.021918475 -0.021900858    337.46824   -22483.165   -8908.6704 
   15900        0.159    376.48192    2.5219164  -0.13185484 -0.010023048 -0.021707114 -0.021963633          nan    336.31765   -22482.355   -7933.4618 
   15950       0.1595    380.93366    2.4002567   0.04042512  0.014181532 -0.021701319 -0.021932082 -0.021917475    340.29447   -22486.734   -8182.8778 
   16000         0.16    375.42356    2.2150486   0.11495709  0.028577692 -0.021720961 -0.021923874          nan     335.3722   -22482.226   -7861.9445 
   16050       0.1605    384.21577    2.0661152  0.025885535 -0.0010954844 -0.021797827 -0.021986373 -0.021983594    343.22643   -22490.605   -6969.6841 
   16100        0.161    382.06102    1.8941556 -0.029935343 -0.081797895 -0.021867147  -0.02204347          nan    341.30155   -22489.203    -5941.408 
   16150       0.1615    384.10512    1.8174558  0.026064013 -0.0099060132 -0.021879362 -0.022049515 -0.022042284    343.12758   -22491.672   -6112.0459 
   16200        0.162    384.47271    1.7367083  0.037526137  0.045268797 -0.021893349 -0.022047697          nan    343.45595   -22492.749   -6065.0107 
   16250       0.1625    385.04187    1.6995017 -0.023643905  0.010577643 -0.021928199 -0.022094012 -0.022076966    343.96439   -22494.064   -5621.4516 
   16300        0.163    388.14448    1.6993474 -0.079658137 -0.0038421661 -0.021957636 -0.022129273          nan    346.73601    -22497.67    -5386.157 
   16350       0.1635    391.99377    1.7149367 0.0041808273 -0.034294332 -0.021949498 -0.022119983 -0.022104841    350.17464   -22502.001   -5616.0775 
   16400        0.164    395.09251    1.6855153  0.073030563  0.068483477 -0.021937342 -0.022099665          nan    352.94281   -22505.711   -6090.0979 
   16450       0.1645    389.52753    1.6229367 -0.026757925 -0.0033455374  -0.02197171  -0.02213755 -0.022122208    347.97151   -22501.733   -5309.4441 
   16500        0.165    392.07354    1.5645568 -0.057103367  0.025753812 -0.022001027 -0.022163282          nan     350.2459   -22505.017    -5110.691 
   16550       0.1655    394.46555    1.6218289 -0.027663951 0.0043644653 -0.022003532 -0.022163726  -0.02215351    352.38273    -22508.17   -5328.4315 
   16600        0.166    392.60842    1.6927813 -0.022761615   0.02122733 -0.021985386 -0.022147871          nan    350.72373   -22507.523   -5637.4901 
   16650       0.1665    395.53237    1.8055204  0.051080321  0.034375335 -0.021966254 -0.022129653  -0.02213333    353.33574   -22511.128   -6303.2535 
   16700        0.167      395.153    1.7707006  0.048984847  0.022584508 -0.021992987 -0.022147292          nan    352.99684   -22511.796   -6140.8999 
   16750       0.1675    396.17518    1.7054824 -0.039500866 -0.024085014 -0.022037672 -0.022198658 -0.022197237    353.90997   -22513.727   -5472.9883 
   16800        0.168    389.67323    1.6989832   -0.0849006 -0.056388829  -0.02203602 -0.022205536          nan    348.10167   -22508.929   -5192.3127 
   16850       0.1685    397.34189    1.7582293 -0.00029760606  0.093829854 -0.021990521 -0.022157438 -0.022150804    354.95221   -22516.844   -6172.5386 
   16900        0.169    391.89852    1.8392689  0.021581336  0.037471997 -0.021977182 -0.022151208          nan    350.08956    -22513.07   -6327.7406 
   16950       0.1695     396.1292    1.7995122 -0.032150481 0.0044032173 -0.022002456 -0.022182511 -0.022175225     353.8689   -22517.915   -5905.8831 
   17000         0.17    400.59785    1.7555823  0.022742241  -0.02380874 -0.022015584 -0.022188668          nan    357.86082   -22522.965   -5848.3859 
   17050       0.1705    398.90313    1.7254575  0.038777737 -0.034720387  -0.02202522  -0.02219048 -0.022195861    356.34689   -22522.526   -5765.0495 
   17100        0.171    398.76299    1.7279209 -0.021446827 0.0032208425 -0.022033033  -0.02219853          nan     356.2217   -22523.504    -5698.983 
   17150       0.1715    398.13241    1.6687542  0.027875407   0.03073286 -0.022036147 -0.022190758  -0.02218884    355.65839   -22524.069   -5757.8747 
   17200        0.172    394.43559    1.6565309 -0.017436251  0.024942964 -0.022045005 -0.022205296          nan    352.35596   -22521.901   -5546.7922 
   17250       0.1725    402.09926    1.6763526 -0.019804257  0.049306872 -0.022063874 -0.022228356  -0.02222014    359.20205   -22529.896   -5686.1841 
   17300        0.173    398.26906    1.5680766 -0.029838546  0.029934548 -0.022092344 -0.022248685          nan    355.78046   -22527.627    -5227.242 
   17350       0.1735    394.90819    1.5142694 -0.062088489  0.020855484 -0.022102371  -0.02225273 -0.022247171    352.77814   -22525.859   -4910.1212 
   17400        0.174    401.52169    1.5337286  0.043584562 -0.029430199 -0.022101796 -0.022239978          nan    358.68609   -22532.963     -5159.61 
   17450       0.1745    406.97001    1.5486535  0.058863393 -0.0085530688 -0.022098728 -0.022235395 -0.022246572    363.55318   -22538.988   -5329.8794 
   17500        0.175    397.84795     1.533348  0.020708208  0.022944204 -0.022106795  -0.02223783          nan    355.40428   -22532.054   -5256.6681 
   17550       0.1755     399.2178    1.4876212  0.044015129 -0.024268781 -0.022128283 -0.022254635 -0.022262821      356.628   -22534.492   -5024.5585 
   17600        0.176    403.36423    1.4685605  0.024656215 -0.0090536755 -0.022150126 -0.022285308          nan    360.33207   -22539.409   -4947.2101 
   17650       0.1765    398.42297    1.4521946 -0.063278589 -0.036599979 -0.022164664 -0.022299472 -0.022295697    355.91796   -22536.232   -4507.7202 
   17700        0.177    398.86731    1.4943303  0.013047831  0.016907347 -0.022129064 -0.022265423          nan     356.3149   -22537.855   -5080.9515 
   17750       0.1775    401.68618    1.4913261  0.067798979   0.10237101 -0.022116235 -0.022247134 -0.022241356    358.83303   -22541.609   -5538.3203 
   17800        0.178    395.81289    1.4569681 -0.0082520029 -0.024561112 -0.022164622 -0.022301029          nan    353.58633    -22537.63   -4747.1834 
   17850       0.1785    395.67966    1.3873598 -0.013466828  -0.10108806 -0.022208944 -0.022332496 -0.022343366    353.46731   -22538.726   -4242.6831 
   17900        0.179    395.62514    1.4386352 -0.027731464 -0.014570421 -0.022188977 -0.022321746          nan    353.41861   -22539.912   -4654.4442 
   17950       0.1795    394.54812    1.4948823  0.048411908  0.069021338 -0.022152234 -0.022277025  -0.02227708    352.45649   -22540.152   -5374.3852 
   18000         0.18    399.22127    1.4866673  0.027718992   0.01757213 -0.022164039 -0.022296071          nan    356.63109   -22545.551    -5106.528 
   18050       0.1805    397.58542    1.4074578 -0.048225123 0.0081853242 -0.022205835 -0.022326437 -0.022325835    355.16976   -22545.297   -4558.0601 
   18100        0.181    394.33455    1.3830889 -0.026886787 -0.0069466518 -0.022212955 -0.022331766          nan     352.2657   -22543.614   -4497.5184 
   18150       0.1815    398.37842    1.3981841    0.0327587 0.0067723351 -0.022199786 -0.022322516 -0.022311166    355.87816   -22548.449   -4792.3837 
   18200        0.182    392.51968    1.4399454 0.0081682388 -0.068047851 -0.022196824 -0.022326901          nan    350.64445   -22544.435   -4600.2193 
   18250       0.1825     398.6401     1.458477  0.047919526  0.028171495 -0.022179248 -0.022307411 -0.022299728    356.11192   -22551.103   -5115.2268 
   18300        0.183    391.01128    1.4553953  -0.02796104  0.054949077 -0.022193305 -0.022325454          nan    349.29697   -22545.481   -4941.2778 
   18350       0.1835    393.66159     1.439493 -0.047413482 0.0017328556 -0.022215844 -0.022343508 -0.022335841    351.66453   -22549.009   -4646.0414 
   18400        0.184    388.95954      1.39404 -0.019367082 0.0070084999  -0.02222128 -0.022341602          nan    347.46411    -22545.99   -4605.6047 
   18450       0.1845    391.57713    1.4318708 -0.0034201163 0.0033009616 -0.022212119 -0.022344383   -0.0223364    349.80246   -22549.503   -4772.5056 
   18500        0.185    389.44709    1.3953486   0.03650524 -0.024219432 -0.022209001 -0.022335288          nan    347.89965   -22548.761   -4692.1146 
   18550       0.1855    393.81558    1.4031904  0.022439323 -0.0032283624  -0.02221109 -0.022339758 -0.022333895    351.80209    -22553.84    -4741.338 
   18600        0.186    392.42886    1.3986356 -0.0040093531  0.013567801 -0.022218736 -0.022352272          nan    350.56332   -22553.775     -4693.98 
   18650       0.1865    394.20238    1.3629492 -0.039317944 -0.0027711603 -0.022236123 -0.022365637 -0.022343388    352.14763    -22556.54   -4402.8669 
   18700        0.187    387.24341    1.4240971 -0.017168752 -0.023385227 -0.022222819 -0.022352927          nan    345.93107   -22551.494   -4611.8105 
   18750       0.1875    394.93958    1.5097344  0.013494518  0.061687038 -0.022190866 -0.022326809 -0.022310047    352.80618    -22559.51   -5283.0531 
   18800        0.188     393.3827    1.4978211  0.034726502  0.045367404 -0.022202474 -0.022330311          nan     351.4154   -22559.287   -5259.7165 
   18850       0.1885     392.8799    1.4256763 -0.027676304 0.0046474514 -0.022242226 -0.022381489 -0.022367691    350.96624    -22560.02   -4675.4915 
   18900        0.189     393.3354    1.3555611  0.013657044 -0.062259619 -0.022280248 -0.022401848          nan    351.37314   -22561.579   -4356.5283 
   18950       0.1895    391.40318    1.3685601 -0.023391762 -0.015021984 -0.022283665 -0.022406035 -0.022403745    349.64706    -22561.03   -4433.8213 
   19000         0.19    395.24929    1.3664655  0.024363821  0.021590514 -0.022271966 -0.022391105          nan    353.08285    -22565.66    -4708.066 
   19050       0.1905    386.67635    1.3173922  0.041574728  0.018483682 -0.022278155 -0.022390021 -0.022383903    345.42451   -22559.201    -4591.502 
   19100        0.191    393.58212    1.2799425 -0.0080193603 -0.053990483 -0.022305548 -0.022417436          nan    351.59354   -22566.572   -4059.7756 
   19150       0.1915    393.53923    1.2405492 -0.040479773 -0.0099716341 -0.022311179 -0.022419716 -0.022420271    351.55523   -22567.734   -3966.9928 
   19200        0.192    392.30508    1.2554616 -0.024221646  0.035639307 -0.022290289 -0.022405216          nan    350.45274   -22567.839   -4222.9308 
   19250       0.1925    393.99002    1.3564542 -0.015325606   0.10413797 -0.022269036 -0.022385623 -0.022362766    351.95793   -22570.567   -4817.5553 
   19300        0.193    393.68692    1.3312268  0.028216406  0.048747502 -0.022304392 -0.022409711          nan    351.68716   -22571.566   -4693.9689 
   19350       0.1935     386.8148    1.2955111 -0.030175014  -0.10014279 -0.022339382 -0.022451336 -0.022454509    345.54818    -22566.57   -3883.9775 
   19400        0.194    396.03269    1.3585527 -0.011363802 -0.016982834 -0.022322179 -0.022442617          nan    353.78268   -22575.966   -4434.0202 
   19450       0.1945    390.27147     1.387284  0.029374774 -0.0047448568  -0.02229581 -0.022416264 -0.022409334    348.63609    -22571.99   -4706.3798 
   19500        0.195    394.13428    1.4226049   0.12127652 0.0040247441  -0.02227855 -0.022397217          nan     352.0868   -22576.602   -5159.6873 
   19550       0.1955    391.92528    1.3436539  0.073998943 -0.029582169  -0.02232052 -0.022435586 -0.022439269    350.11346   -22575.854   -4626.9022 
   19600        0.196    392.97631    1.2916053  -0.02774753 -0.078605297 -0.022358467 -0.022484837          nan    351.05237   -22578.015   -3950.8416 
   19650       0.1965    394.75876    1.3392753 -0.090597307   0.04906128 -0.022342103 -0.022480655 -0.022445757    352.64465   -22580.738   -4325.7975 
   19700        0.197    387.05513    1.3901872 -0.060708061   0.11649728  -0.02229748 -0.022439026          nan    345.76287    -22574.98   -4819.9213 
   19750       0.1975    386.91418    1.3817974  0.045952869   0.05769473 -0.022288444 -0.022416469 -0.022396933    345.63696   -22576.012   -4951.4832 
   19800        0.198     387.5193    1.3246187  0.005480054 0.0070825892 -0.022323209 -0.022443961          nan    346.17753   -22577.721   -4457.2712 
   19850       0.1985    388.56334    1.2948145 -0.016916325 -0.086228684 -0.022356072 -0.022478197 -0.022478705    347.11019   -22579.772   -3972.2317 
   19900        0.199    389.45843    1.3108945 -0.048736236 0.0067739814  -0.02235159 -0.022478189          nan    347.90978   -22581.718   -4229.7741 
   19950       0.1995    386.87487     1.329797  0.024628871  0.044053469 -0.022320917 -0.022442881 -0.022440719    345.60184   -22580.562   -4661.5978 
   20000          0.2    386.11333    1.3084429  0.064872239  0.032070004 -0.022328971 -0.022428045          nan    344.92155   -22581.036   -4684.6172 
Loop time of 1770.15 on 4 procs for 20000 steps with 6912 atoms

Pair  time (%) = 1670.15 (94.3509)
Neigh time (%) = 0.86115 (0.0486485)
Comm  time (%) = 67.8494 (3.83299)
Outpt time (%) = 0.0815009 (0.00460419)
Other time (%) = 31.206 (1.76291)

Nlocal:    1728 ave 1758 max 1698 min
Histogram: 1 0 0 0 1 1 0 0 0 1
Nghost:    4958.5 ave 4980 max 4924 min
Histogram: 1 0 0 0 0 0 1 0 1 1
Neighs:    118842 ave 120713 max 116474 min
Histogram: 1 0 0 0 0 0 2 0 0 1
FullNghs:  0 ave 0 max 0 min
Histogram: 4 0 0 0 0 0 0 0 0 0

Total # of neighbors = 475369
Ave neighs/atom = 68.7745
Neighbor list builds = 92
Dangerous builds = 0

######################################
# SIMULATION DONE
print "All done"
All done
