LAMMPS (28 Jun 2014)
# Input file for uniaxial tensile loading of single crystal aluminum
# Mark Tschopp, November 2010

# ------------------------ INITIALIZATION ----------------------------
units 		metal
dimension	3
boundary	p	p	p
atom_style	atomic
variable latparam equal 4.05

# ----------------------- ATOM DEFINITION ----------------------------
lattice		fcc ${latparam}
lattice		fcc 4.05
Lattice spacing in x,y,z = 4.05 4.05 4.05
region		whole block 0 10 0 10 0 10
create_box	1 whole
Created orthogonal box = (0 0 0) to (40.5 40.5 40.5)
  1 by 2 by 2 MPI processor grid
lattice 	fcc ${latparam} orient x 1 0 0 orient y 0 1 0 orient z 0 0 1
lattice 	fcc 4.05 orient x 1 0 0 orient y 0 1 0 orient z 0 0 1
Lattice spacing in x,y,z = 4.05 4.05 4.05
create_atoms	1 region whole
Created 4000 atoms

# ------------------------ FORCE FIELDS ------------------------------
pair_style	eam/alloy
pair_coeff	* * Al99.PosFRho.PosRhoR.PosPhiR.eam.alloy Al

# ------------------------- SETTINGS ---------------------------------
compute csym all centro/atom fcc
compute peratom all pe/atom

######################################
# EQUILIBRATION
reset_timestep	0
timestep 0.001
velocity all create 300 12345 mom yes rot no
fix 1 all npt temp 300 300 1 iso 0 0 1 drag 1

# Set thermo output
thermo 1000
thermo_style custom step lx ly lz press pxx pyy pzz pe temp

# Run for at least 10 picosecond (assuming 1 fs timestep)
run 20000
Memory usage per processor = 3.04301 Mbytes
Step Lx Ly Lz Press Pxx Pyy Pzz PotEng Temp 
       0         40.5         40.5         40.5    2837.5523    2788.4192    2876.0831    2848.1546   -13425.775          300 
    1000    40.563114    40.563114    40.563114    874.49373    862.86735    846.95167    913.66218   -13346.939     165.1933 
    2000    40.577138    40.577138    40.577138    266.47066       205.01    291.10329    303.29867   -13342.167    178.57422 
    3000       40.586       40.586       40.586    108.00685    22.301387    206.40383    95.315321   -13335.809    189.27793 
    4000    40.593775    40.593775    40.593775    56.615374    15.986944    26.063731    127.79545   -13326.419    194.11289 
    5000    40.598591    40.598591    40.598591    191.39119    258.21735    250.63331    65.322922   -13320.107    204.65563 
    6000    40.605721    40.605721    40.605721    91.601785    133.36521   -24.810904    166.25105   -13313.205    213.55521 
    7000    40.613159    40.613159    40.613159   -3.4999908    19.491497    67.861372   -97.852841   -13307.702    224.41547 
    8000     40.61731     40.61731     40.61731    140.76584    153.45873    206.98417    61.854608   -13302.525    234.89544 
    9000    40.623784    40.623784    40.623784    10.916483   -112.68095    114.99461    30.435793   -13301.069    251.38645 
   10000    40.631446    40.631446    40.631446   -9.0029475   -49.306515    138.66312   -116.36544   -13291.926    251.58573 
   11000    40.634808    40.634808    40.634808   -41.076448   -86.659503   -35.139419   -1.4304234   -13290.049    264.28409 
   12000    40.638592    40.638592    40.638592   -62.681844   -9.2346891   -106.83661   -71.974235   -13286.922    272.89503 
   13000    40.645677    40.645677    40.645677   -183.76374   -292.27215   -126.34921   -132.66987   -13282.961     278.1291 
   14000    40.646452    40.646452    40.646452   -62.034722   -43.779657    -82.53611   -59.788397   -13278.831    281.27965 
   15000    40.647097    40.647097    40.647097     102.2966    11.226296    160.25655    135.40695   -13275.563    284.37199 
   16000    40.647012    40.647012    40.647012    289.87246    519.29814     171.7458    178.57343   -13274.953    290.89874 
   17000    40.650251    40.650251    40.650251    199.33193    230.68385    251.89279    115.41915   -13272.612    292.49737 
   18000    40.653847    40.653847    40.653847    108.56175     90.31879    166.81317    68.553296   -13271.902    295.75146 
   19000    40.653291    40.653291    40.653291    199.21456    206.30232    305.56109    85.780254   -13271.921    298.99775 
   20000    40.652783    40.652783    40.652783    308.72505    228.00032    377.33785    320.83699   -13269.244    295.71209 
Loop time of 278.389 on 4 procs for 20000 steps with 4000 atoms

Pair  time (%) = 218.375 (78.4425)
Neigh time (%) = 0 (0)
Comm  time (%) = 43.2983 (15.5532)
Outpt time (%) = 0.00237292 (0.000852377)
Other time (%) = 16.713 (6.0035)

Nlocal:    1000 ave 1000 max 1000 min
Histogram: 4 0 0 0 0 0 0 0 0 0
Nghost:    4235 ave 4235 max 4235 min
Histogram: 4 0 0 0 0 0 0 0 0 0
Neighs:    70000 ave 72653 max 67302 min
Histogram: 1 0 1 0 0 0 0 1 0 1
FullNghs:  0 ave 0 max 0 min
Histogram: 4 0 0 0 0 0 0 0 0 0

Total # of neighbors = 280000
Ave neighs/atom = 70
Neighbor list builds = 0
Dangerous builds = 0
unfix 1

# Store final cell length for strain calculations
variable tmp equal "lx"
variable L0 equal ${tmp}
variable L0 equal 40.6527831831717
print "Initial Length, L0: ${L0}"
Initial Length, L0: 40.6527831831717

######################################
# DEFORMATION
reset_timestep	0

fix		1 all npt temp 300 300 1 y 0 0 1 z 0 0 1 drag 1
variable srate equal 1.0e10
variable srate1 equal "v_srate / 1.0e12"
fix		2 all deform 1 x erate ${srate1} units box remap x
fix		2 all deform 1 x erate 0.01 units box remap x

# Output strain and stress info to file
# for units metal, pressure is in [bars] = 100 [kPa] = 1/10000 [GPa]
# p2, p3, p4 are in GPa
variable strain equal "(lx - v_L0)/v_L0"
variable p1 equal "v_strain"
variable p2 equal "-pxx/10000"
variable p3 equal "-pyy/10000"
variable p4 equal "-pzz/10000"
fix def1 all print 20 "${p1} ${p2} ${p3} ${p4}" file  Al99.PosFRho.PosRhoR.PosPhiR.eam.alloy.def1.txt screen no

# Use cfg for AtomEye
#dump 		1 all cfg 250 dump.tensile_*.cfg id type xs ys zs c_csym c_peratom fx fy fz
#dump_modify 1 element Al

# Display thermo
thermo 	1000
thermo_style	custom step v_strain temp v_p2 v_p3 v_p4 ke pe press

run		20000
Memory usage per processor = 3.04301 Mbytes
Step strain Temp p2 p3 p4 KinEng PotEng Press 
       0 1.7478329e-16    295.71209 -0.022800032 -0.037733785 -0.032083699    152.85693   -13269.244    308.72505 
    1000         0.01    296.85361   0.65642269  0.032317106 0.0039097481    153.44699   -13267.249   -2308.8318 
    2000         0.02    301.45438     1.291634 -0.0055807289 0.0089229801    155.82518   -13264.222   -4316.5877 
    3000         0.03    297.92425     1.870927 -0.044837504 -0.024863301    154.00042   -13254.288   -6004.0874 
    4000         0.04    300.01386     2.552072  0.023639389  0.029252792    155.08056   -13244.612   -8683.2141 
    5000         0.05    296.89314     3.125306 -0.010364801 -0.013973631    153.46743   -13229.765   -10336.559 
    6000         0.06    292.48728    3.7055387   0.02896797  0.022946724    151.18998   -13211.796   -12524.845 
    7000         0.07    296.53581    4.2429413 -0.018137326 -0.016971826    153.28272   -13195.751   -14026.107 
    8000         0.08    297.45086    4.8657471   0.01484094  0.025510728    153.75572   -13175.794   -16353.662 
    9000         0.09    299.36264    5.3971609  -0.01721788  0.024671159    154.74394    -13154.16   -18015.381 
   10000          0.1    300.61638    5.9753911 -0.0025851678 -0.015830859    155.39201    -13129.95   -19856.583 
   11000         0.11    297.39496    6.4513794 0.0021608086 0.0027893479    153.72682    -13101.14   -21521.099 
   12000         0.12     294.9479    6.9301324 -0.022712894  0.042019105    152.46191   -13070.613   -23164.796 
   13000         0.13    292.54518     7.401666   0.02755487  0.028790937    151.21992    -13038.04   -24860.039 
   14000         0.14    291.84303    7.8240278  0.071519297  0.042874636    150.85697   -13004.406   -26461.406 
   15000         0.15    292.44092    7.9029901 0.0094857124 -0.0079188826    151.16602   -12969.961   -26348.523 
   16000         0.16    379.11253    3.1390227 -0.035350392  0.056469341    195.96756   -12996.873   -10533.806 
   17000         0.17    393.65487    2.2579842 -0.080654993  0.024059357    203.48466    -13013.87   -7337.9619 
   18000         0.18    388.37143    1.8090192 -0.066960472 -0.047135866    200.75359     -13023.4   -5649.7429 
   19000         0.19    384.80671    1.2842079  0.080278837 -0.0078815294    198.91094   -13034.611   -4522.0173 
   20000          0.2    389.26207    1.5522593  0.095569156 -0.032734119    201.21397   -13051.759   -5383.6478 
Loop time of 338.51 on 4 procs for 20000 steps with 4000 atoms

Pair  time (%) = 273.331 (80.7454)
Neigh time (%) = 0.500555 (0.14787)
Comm  time (%) = 47.532 (14.0415)
Outpt time (%) = 0.00304353 (0.000899096)
Other time (%) = 17.1432 (5.0643)

Nlocal:    1000 ave 1022 max 984 min
Histogram: 1 0 1 0 1 0 0 0 0 1
Nghost:    3743 ave 3764 max 3730 min
Histogram: 1 1 0 1 0 0 0 0 0 1
Neighs:    68791.5 ave 71072 max 67110 min
Histogram: 1 1 0 0 1 0 0 0 0 1
FullNghs:  0 ave 0 max 0 min
Histogram: 4 0 0 0 0 0 0 0 0 0

Total # of neighbors = 275166
Ave neighs/atom = 68.7915
Neighbor list builds = 83
Dangerous builds = 0

######################################
# SIMULATION DONE
print "All done"
All done
