
# ----------------------- ATOM DEFINITION ----------------------------
lattice		fcc ${latparam}
lattice		fcc 4.05
Lattice spacing in x,y,z = 4.05 4.05 4.05
region		whole block 0 12 0 12 0 12
create_box	1 whole
Created orthogonal box = (0 0 0) to (48.6 48.6 48.6)
  1 by 2 by 2 MPI processor grid
lattice 	fcc ${latparam} orient x 1 0 0 orient y 0 1 0 orient z 0 0 1
lattice 	fcc 4.05 orient x 1 0 0 orient y 0 1 0 orient z 0 0 1
Lattice spacing in x,y,z = 4.05 4.05 4.05
create_atoms	1 region whole
Created 6912 atoms

# ------------------------ FORCE FIELDS ------------------------------

#****************USE THIS TO TEST******************
pair_style	eam/rad
pair_coeff 			* * Al99.PC0.05.eam.alloy.rad.txt Al # pc = 0.5

# ------------------------- SETTINGS ---------------------------------
compute csym all centro/atom fcc
compute peratom all pe/atom

######################################
# EQUILIBRATION
reset_timestep	0
timestep	0.001 # default
# timestep	0.0001 # tiny time step
velocity all create 300 12345 mom yes rot no
fix 1 all npt temp 300 300 1 iso 0 0 1 drag 1

# Set thermo output
thermo 50
# thermo 1 # debug mode

# thermo_style custom step lx ly lz press pxx pyy pzz pe temp
# IMPLEMENTATION HERE

# VERSION add rad variables .v1 .v2
# thermo_style custom step lx ly lz press pxx pyy pzz pxxrad pyyrad pzzrad pe temp

# VERSION ublb separation .v3
thermo_style custom step lx ly lz press pxx pxxub pxxlb pyy pyyub pyylb pzz pzzub pzzlb pe temp

# Run for at least 10 picosecond (assuming 1 fs timestep)
run 	20000 # default
Memory usage per processor = 7.95402 Mbytes
Step Lx Ly Lz Press Pxx Pxxub Pxxlb Pyy Pyyub Pyylb Pzz Pzzub Pzzlb PotEng Temp 
       0         48.6         48.6         48.6     2496.386    2451.7623    7656.5262    7170.5453    2520.4586    7652.1803    7166.1994     2516.937    7737.7017    7251.7208    -23224.32          300 
      50    48.673041    48.673041    48.673041     852.0468    911.67896    1155.9613    667.39264    844.53941    1088.8811    600.19353    799.92203    1044.2295    555.61037   -23050.764    104.74463 
     100    48.760912    48.760912    48.760912   -4427.7962   -4413.3731   -4172.1032   -4654.7846   -4459.8044    -4218.495   -4701.2547    -4410.211    -4168.895   -4651.6746   -23108.062    170.21443 
     150    48.680077    48.680077    48.680077    530.62794    530.21765    774.00691    286.41826    500.30673    744.02551    256.57146    561.35944    805.14449    317.56562   -23066.334    123.52598 
     200    48.621044    48.621044    48.621044    3170.2645    3242.0508     3487.292    2996.8857    3091.5624    3336.7873    2846.4112    3177.1802    3422.4486    2931.9831   -23079.827     139.9894 
     250    48.678635    48.678635    48.678635    199.58148    154.01236    397.73266   -89.696234    236.89273    480.57799    -6.769265    207.83935    451.56412   -35.867078   -23084.585    145.80114 
     300    48.725258    48.725258    48.725258   -2178.1679   -2165.6282   -1923.3464   -2407.9552   -2199.2204   -1956.9748    -2441.516   -2169.6551   -1927.3982   -2411.9599   -23089.638    152.49909 
     350    48.684235    48.684235    48.684235   -315.82879   -243.16682   0.37782206   -486.70631   -383.71805   -140.16278   -627.25944   -320.60149   -77.084358   -564.10233   -23097.254     161.5629 
     400    48.646576    48.646576    48.646576    1781.6578    1761.2488    2005.7035    1516.8016    1811.2289    2055.6693    1566.7997    1772.4958    2016.9461    1528.0519   -23088.241    152.43278 
     450    48.679957    48.679957    48.679957    83.754641     89.85984    333.58459   -153.84003    45.655735    289.36825   -198.04855    115.74835    359.50206   -127.98865   -23086.824    151.55301 
     500    48.709624    48.709624    48.709624   -1335.2159   -1340.1186   -1097.3474   -1582.8868   -1305.8483    -1063.104   -1548.5876   -1359.6809   -1116.9139   -1602.4509   -23086.094    151.73053 
     550    48.683988    48.683988    48.683988   -30.668778   -66.660112    176.91522   -310.24386   -57.839798    185.70653   -301.38768    32.493577    276.00489   -211.01402   -23085.967    152.42232 
     600    48.660027    48.660027    48.660027    1109.3946    1186.5281    1430.7287    942.33056    1091.0112    1335.1988    846.82603    1050.6447    1294.8077     806.4804   -23088.624    156.41975 
     650    48.681759    48.681759    48.681759    47.144583    8.9360318    252.50142   -234.62295    54.220992    297.74318   -189.30691    78.276726    321.81665   -165.26435   -23088.562    157.24015 
     700    48.702912    48.702912    48.702912   -1040.4161   -1022.6996    -779.6334   -1265.7508   -1069.3919   -826.32409   -1312.4479   -1029.1568   -786.07455   -1272.2231   -23087.614    157.20847 
     750    48.684252    48.684252    48.684252   -101.89735   -137.63719    105.89998   -381.18095   -84.077018    159.45153   -327.61612   -83.977851    159.57149   -327.53166   -23087.759    158.30199 
     800    48.666245    48.666245    48.666245    851.69778    870.69784    1114.7833    626.61323    760.34249    1004.4646     516.2295    924.05302    1168.1302    679.97507   -23085.415    156.68343 
     850    48.682879    48.682879    48.682879    45.283585    25.461638    269.02771   -218.09785    39.147155    282.80859   -204.49209    71.241963    314.88228    -172.3855   -23083.675    155.69778 
     900    48.698988    48.698988    48.698988    -721.1681   -686.86327   -443.80404    -929.9141   -765.90698   -522.81057   -1009.0106   -710.73405   -467.64066   -953.81857   -23087.802     161.3492 
     950    48.685507    48.685507    48.685507   -32.580848   -12.530709    231.13343   -256.18868   -40.348487    203.33057   -284.01627   -44.863348    198.75506   -288.47503   -23079.104    152.58073 
    1000    48.671563    48.671563    48.671563    691.27509    765.77142    1009.6298    521.91423    660.35012    904.18019    416.51839    647.70372     891.5374    403.86963   -23085.847    161.16557 
    1050    48.684022    48.684022    48.684022    74.817226    94.491596     338.1971   -149.22022    104.49433    348.17896    -139.1874    25.465748    269.14017   -218.21726   -23080.529    156.20485 
    1100    48.697693    48.697693    48.697693   -663.58464   -679.68316   -436.49941   -922.86081   -753.26963   -510.03934   -996.49198   -557.80112   -314.60091   -800.98705   -23084.844    162.04398 
    1150    48.687134    48.687134    48.687134   -79.935003   -98.377647    145.07172   -341.81904   -72.973264    170.52963   -316.46959   -68.454097    175.00303   -311.90504   -23085.934    164.28171 
    1200    48.675453    48.675453    48.675453    561.02538    558.39683    802.36127    314.44249     478.7594    722.73656    234.79065     645.9199    889.83724     402.0086   -23077.106    155.41991 
    1250    48.685417    48.685417    48.685417     96.38082    133.48517    377.07255   -110.10497    109.50391    352.99515   -133.99409    46.153388    289.69566   -197.39255   -23083.868    164.00561 
    1300    48.696961    48.696961    48.696961   -456.10644   -399.24351   -155.85616    -642.6186   -471.92398   -228.53042   -715.30565   -497.15183   -253.79606   -740.50195   -23077.425    157.81784 
    1350    48.688634    48.688634    48.688634   -90.679121   -73.650483    169.82271   -317.11754   -127.29516    116.20036   -370.78168   -71.091716    172.36833   -314.53723   -23082.599     164.6358 
    1400    48.678121    48.678121    48.678121    507.69178     554.4714    798.30752    310.63932    450.35808    694.19348    206.52967    518.24587     762.0406    274.45654   -23078.751    161.36299 
    1450    48.687497    48.687497    48.687497   -39.138775   -61.107462    182.44431   -304.65163   -98.736247      144.834   -342.30736    42.427384    285.97785   -201.11978   -23081.559    165.52548 
    1500    48.696039    48.696039    48.696039   -413.41528   -358.07579   -114.65182   -601.49774   -394.42103   -150.98688   -637.85108   -487.74902    -244.3122   -731.18407   -23080.844      165.759 
    1550    48.688594    48.688594    48.688594    49.904932    37.730511    281.30041   -205.83713   -14.366551     229.2135    -257.9531    126.35083    369.91323   -117.21229   -23076.154    161.52792 
    1600    48.682005    48.682005    48.682005    283.34848    305.27237    548.97194    61.559638    272.37586    516.11115    28.637031    272.39721    516.08166    28.705445   -23081.157    168.18889 
    1650    48.688818    48.688818    48.688818    22.617655    45.220742    288.89331   -198.44332   -15.654054     228.0065   -259.30696    38.286277    281.95832   -205.37019   -23077.566    165.17243 
    1700    48.696716    48.696716    48.696716   -419.98244   -422.07482   -178.74099    -665.3972   -468.50319   -225.13359   -711.86104    -369.3693   -126.03547   -612.69195   -23078.631    167.40314 
    1750    48.688437    48.688437    48.688437    113.95733    121.23645     364.7986   -122.31671    22.212473    265.81827   -221.38629    198.42307    441.97449   -45.132307   -23073.967    163.23073 
    1800    48.683612    48.683612    48.683612    292.48559    319.41225    563.17325    75.666774    251.85441    495.59506    8.1282664    306.19012    549.93028    62.463801   -23079.124    170.04105 
    1850    48.690979    48.690979    48.690979      -9.9818     80.45051    324.04314   -163.14344   -125.24851    118.36739   -368.86619    14.852602    258.43874   -228.72889   -23073.041    164.25807 
    1900    48.695967    48.695967    48.695967   -238.49055   -237.41566    6.0377082   -480.88295   -221.47249    22.023308   -464.98323    -256.5835   -13.145665   -500.02828   -23073.504     165.8295 
    1950    48.690166    48.690166    48.690166   -43.070144     41.20675    284.75076   -202.32377   -153.91493    89.733392   -397.54472    -16.50225    227.12217   -260.12478   -23079.215    173.25033 
    2000    48.685677    48.685677    48.685677     271.2924    271.23704    514.91121    27.582067    257.78745    501.51435    14.076881     284.8527    528.53316     41.19666   -23075.736    170.39345 
    2050    48.692008    48.692008    48.692008    5.4531145    33.546903    277.26901   -210.16963   -106.54599    137.08569   -350.17313    89.358431    333.02483   -154.30124   -23070.257    165.31075 
    2100    48.697232    48.697232    48.697232    -287.6662   -168.69834    74.737653   -412.13629   -317.09351   -73.655997   -560.52569   -377.20676   -133.77411   -620.64441   -23074.848     171.4769 
    2150    48.691551    48.691551    48.691551    64.695751    65.796814    309.32959   -177.74896    34.374024    277.93521   -209.20391    93.916414    337.47479    -149.6564   -23073.969    171.55453 
    2200    48.688092    48.688092    48.688092    223.57465    305.76422    549.50633    62.033468    230.24148    474.04838   -13.556564    134.71826    378.49566   -109.04478   -23071.192    169.47559 
    2250    48.693774    48.693774    48.693774   -57.380572    -69.75465    173.70533   -313.20415   -82.221987    161.34731      -325.78   -20.165079    223.33442   -263.65022    -23074.24    173.93859 
    2300    48.697159    48.697159    48.697159   -210.68621   -152.00421    91.475104    -395.4736    -279.3065   -35.732237   -522.86684   -200.74792    42.796514   -444.28349   -23070.663    170.97301 
    2350    48.693152    48.693152    48.693152    17.461266    25.624941    269.21088   -217.96263    2.8112201    246.40189   -240.77775    23.947636    267.54324   -219.65039   -23073.305    174.96954 
    2400    48.690298    48.690298    48.690298    187.25914    296.17305    539.81544    52.519481    111.04422    354.69478   -132.61446    154.56014    398.23148   -89.123882   -23069.644    171.92734 
    2450    48.695367    48.695367    48.695367   -23.203615   -5.5040328    238.08752    -249.0785   -23.977577    219.57446   -267.51332   -40.129234    203.44747   -283.68098   -23070.863    174.32548 
    2500    48.698396    48.698396    48.698396   -200.97573   -98.690438    144.84461   -342.21632   -291.80944   -48.304306   -535.31452   -212.42731    31.106099   -455.95111    -23069.11    173.42138 
    2550    48.693469    48.693469    48.693469    36.694567    62.768406    306.37836   -180.84738   -53.698338    189.92068   -297.31803    101.01363    344.62139   -142.60698   -23070.785    176.32704 
    2600    48.691137    48.691137    48.691137     263.3279     406.6238    650.32265    162.92504     114.4684    358.24108   -129.30764     268.8915     512.6045    25.168936   -23068.115    174.39571 
    2650    48.697984    48.697984    48.697984   -119.59855   -116.59912    126.91628   -360.09574   -122.95046    120.60697   -366.49039   -119.24608    124.30279   -362.76761   -23067.871    175.15541 
    2700    48.700224    48.700224    48.700224   -230.50409   -158.40968     85.05053    -401.8528   -385.65864   -142.19716     -629.113   -147.44397    95.924111   -390.78749   -23070.193    178.81608 
    2750    48.694038    48.694038    48.694038    88.988852    63.040704    306.69649   -180.61799     202.0181    445.64588   -41.599462    1.9077469    245.47923   -241.66293   -23067.638    176.99606 
    2800    48.693162    48.693162    48.693162    241.30503    261.00963    504.73427    17.293377    248.05928    491.74306    4.3770553    214.84618    458.50167   -28.816839   -23066.323    176.57268 
    2850    48.699852    48.699852    48.699852   -216.12366   -179.51913    63.950765   -422.98862   -243.74919  -0.21804251    -487.2765   -225.10265    18.391387   -468.59538   -23067.963    179.46269 
    2900    48.699914    48.699914    48.699914   -127.17633   -66.144695    177.40397    -309.6905   -254.33937   -10.736429   -497.93395   -61.044923    182.43964   -304.51671   -23065.867    178.15324 
    2950    48.695501    48.695501    48.695501    136.19866    180.30983    423.98582   -63.360005    145.43206    389.08051   -98.224675    82.854078    326.48712   -160.78296   -23066.624    180.05697 
    3000    48.696462    48.696462    48.696462    80.378497    18.329346    261.96939    -225.3025    100.59097    344.26399   -143.06265    122.21518    365.87035   -121.43978   -23064.854    179.11003 
    3050    48.701308    48.701308    48.701308   -159.69051   -137.12854    106.34836   -380.61316   -162.98782    80.496918    -406.4747   -178.95518    64.497818   -422.40136   -23066.697    182.23551 
    3100    48.699853    48.699853    48.699853   -32.211386    7.4970339    251.07248   -236.07644   -90.224403    153.36534   -333.81828   -13.906789    229.64634    -257.4627   -23063.176    179.33645 
    3150    48.696965    48.696965    48.696965    68.226798    116.07246    359.64589   -127.47376    68.018868    311.62286   -175.56373    20.589062    264.25039   -223.04709   -23064.512    181.88021 
    3200     48.69801     48.69801     48.69801    164.26096    161.44271    405.08701   -82.197021    127.69818    371.38142   -115.98215    203.64198    447.31401    -40.01889   -23060.183    178.08861 
    3250    48.702899    48.702899    48.702899    -240.0724     -225.462    18.042077   -468.97589   -249.93001   -6.4040328   -493.45012   -244.82519   -1.3988379   -488.26441   -23066.154    185.81101 
    3300    48.700603    48.700603    48.700603    23.111695    40.430998    284.11342   -203.25115    34.790454    278.41274   -208.83707   -5.8863667    237.76449   -249.53501   -23059.266     179.1516 
    3350    48.698334    48.698334    48.698334    82.712772    163.77831    407.41246   -79.853229    10.162988    253.81924   -233.49466    74.197013    317.81186   -169.41773   -23063.293    184.70745 
    3400     48.69993     48.69993     48.69993    52.771586    121.34773    365.00949   -122.29978    34.558092    278.21191   -209.08967    2.4089332    245.98244   -241.14823   -23060.815    182.98483 
    3450    48.703205    48.703205    48.703205    -96.85624   -83.775447    159.75561   -327.28942    -77.96745    165.65628    -321.5647   -128.82582    114.61547   -372.24585   -23060.376    183.54135 
    3500     48.70201     48.70201     48.70201   -36.806736    -30.03124    213.50244   -273.56315   -21.540897    221.97863   -265.05863   -58.848072    184.65317   -302.35743   -23062.108    186.53442 
    3550    48.699492    48.699492    48.699492    170.23598    227.68321     471.3443   -15.979747    193.30302    436.96427   -50.356328    89.721712    333.40654   -153.96154   -23057.263    182.15291 
    3600    48.702258    48.702258    48.702258   -86.461352   -109.99909    133.55428   -353.54124   -152.09546    91.552671   -395.73432    2.7104932    246.30205   -240.87049   -23063.178    189.82546 
    3650     48.70392     48.70392     48.70392   -68.668754    -13.54673    230.04939   -257.14383   -61.272813    182.29736    -304.8523   -131.18672    112.41396   -374.78222   -23057.876    184.92579 
    3700    48.702548    48.702548    48.702548   -18.731632    56.015523    299.57124    -187.5452   -142.06352    101.49377   -385.61718    29.853103    273.42819   -213.72062    -23059.21    187.47848 
    3750      48.7004      48.7004      48.7004    163.04015    237.09956    480.84553   -6.6244823    167.63917    411.38644    -76.08643    84.381716    328.07309   -159.29908    -23056.77    185.78811 
    3800    48.703741    48.703741    48.703741   -4.1383697    23.304867    266.84699    -220.2294    14.633499    258.28331   -229.00929   -50.353474    193.20698   -293.91119   -23057.401    187.54203 
    3850    48.705829    48.705829    48.705829   -44.958358    28.023303     271.5317   -215.48147   -101.16316    142.39125   -344.71691    -61.73522    181.74954   -305.21247    -23055.16     186.0868 
    3900    48.704139    48.704139    48.704139   -10.494754   -69.204537    174.44605   -312.84536   -51.039495    192.51511   -294.58569     88.75977    332.36055   -154.82999     -23057.3    189.52604 
    3950    48.701966    48.701966    48.701966    151.91265    203.19988    446.88758   -40.489342    57.152283    300.84187   -186.54212     195.3858    439.11419   -48.351391   -23054.495    187.43459 
    4000    48.704531    48.704531    48.704531    27.257068    22.802097    266.42656   -220.81472   -24.532807    219.12861   -268.17913    83.501914    327.15593   -160.15318   -23055.315    189.39556 
    4050    48.707937    48.707937    48.707937    -135.3897   -142.51167    100.93521   -385.93854   -77.766212    165.79589   -321.31069   -185.89122    57.633875   -429.39186   -23057.013    192.33778 
    4100    48.706227    48.706227    48.706227   -33.211251    56.316026    299.83699   -187.21754   -137.40789    106.14008    -380.9689   -18.541889    224.94993   -262.03427   -23055.904    192.15069 
    4150    48.703129    48.703129    48.703129    146.46063    114.63175    358.29895   -129.04355    173.85084    417.46977   -69.781976    150.89931    394.60876   -92.816132   -23054.066    191.13753 
    4200    48.705338    48.705338    48.705338   -14.198573    37.036491    280.68055    -206.5955   -59.616611    184.05168   -303.27353   -20.015599     223.5967   -263.62496   -23054.575    192.74643 
    4250    48.707873    48.707873    48.707873   -48.619682   -10.738218     232.9279   -254.38723   -58.640729    185.05466   -302.31096   -76.480098    167.17732   -320.11744   -23050.459    189.18026 
    4300    48.708021    48.708021    48.708021    -71.47148   -48.596638    194.90155   -292.08067     -27.8045     215.7845   -271.37702    -138.0133    105.52087   -381.53633   -23054.857    195.14745 
    4350    48.705458    48.705458    48.705458    63.737234     125.9259    369.48398   -117.63068   -12.939068    230.69871   -256.58797    78.224869    321.87179    -165.4217   -23052.915    194.02008 
    4400    48.705546    48.705546    48.705546    59.002937     103.2883    346.96322   -140.38504     59.44931    303.02566   -184.12233    14.271204    257.87007   -229.33368   -23054.338     196.6605 
    4450    48.709199    48.709199    48.709199    -72.89735    43.472176    287.03687   -200.09047   -168.73365     74.82705   -412.27445   -93.430572    150.09317   -336.92988   -23052.021    195.10243 
    4500    48.709992    48.709992    48.709992   -62.262826   -4.4683372    239.10504   -248.03115   -88.105552    155.47323    -331.6817   -94.214587    149.31833   -337.73832   -23050.348    194.27189 
    4550    48.707492    48.707492    48.707492    39.697805    75.475628    319.03984   -168.07831    30.079692     273.6492   -213.49338    13.538096    257.12464   -230.04538   -23051.082    196.13285 
    4600    48.706709    48.706709    48.706709     60.40358    64.234795    307.84344   -179.38031    31.469078    275.10775   -212.16623    85.506867    329.16411   -158.15753   -23052.103    198.32523 
    4650    48.708958    48.708958    48.708958    33.704243    191.73979    435.35879   -51.870292   -132.19024    111.46526   -375.83844    41.563181     285.1501   -202.02884   -23047.718    194.44587 
    4700    48.710962    48.710962    48.710962    -27.75816   -36.661123    206.90573   -280.21772     5.248281    248.90128    -238.3932   -51.861636    191.67322   -295.37812   -23047.861    195.64989 
    4750    48.710854    48.710854    48.710854   -58.083649    4.5107352    248.06912   -239.03966   -73.969253      169.599   -317.51943   -104.79243    138.75163   -348.31607   -23048.622    197.53738 
    4800     48.70916     48.70916     48.70916    58.163947    66.429591    310.03348    -177.1667    14.223558    257.83117   -229.38217    93.838692    337.41657   -149.74053   -23049.787    199.88646 
    4850    48.708912    48.708912    48.708912    42.444235    160.00018    403.64914   -83.649219   -59.991801    183.67469   -303.65752    27.324322    270.95489   -216.30581   -23048.249    199.19907 
    4900    48.710788    48.710788    48.710788   -11.377852   -17.568849    225.99979   -261.12706    -26.80871    216.84668   -270.45859    10.244003    253.82057   -233.33143   -23046.464    198.23601 
    4950    48.712392    48.712392    48.712392   -92.154675   -41.159982    202.33565   -284.64917   -71.287004    172.28291   -314.84309   -164.01704    79.530953   -407.55138   -23050.283    203.54605 
    5000    48.711487    48.711487    48.711487   -6.1328866    65.331073    308.93993   -178.27932   -41.941543    201.58262    -285.4679    -41.78819    201.82044   -285.38697   -23046.329    200.15248 
    5050    48.710748    48.710748    48.710748    55.071847    149.64775    393.30287    -94.01211    -50.24174     193.4662   -293.95448     65.80953    309.49104   -177.87675    -23045.36    200.10204 
    5100    48.712087    48.712087    48.712087   -3.8423891    9.0715651    252.66198   -234.49939   -10.019264    233.59346   -253.61998   -10.579468    233.01862   -254.17264    -23046.26    202.14121 
    5150    48.713296    48.713296    48.713296   -6.5150057    98.881791     342.4681   -144.68543   -93.266524    150.26282   -336.78071   -25.160284    218.42672   -268.72107    -23043.27    199.82653 
    5200    48.713044    48.713044    48.713044   -4.9045659    48.193319    291.78603   -195.40503   -99.984226    143.55752   -343.51866     37.07721    280.62728   -206.47391   -23045.816    203.71421 
    5250    48.712097    48.712097    48.712097    45.631277    110.66047     354.3122   -132.98921  -0.98276298    242.64565   -244.62094    27.216124    270.85676   -216.43908   -23043.262    201.88598 
    5300    48.712838    48.712838    48.712838    10.222252    9.2224678    252.83176   -234.37823   -15.639272    227.96711   -259.23898    37.083562    280.66029   -206.49046   -23045.632    205.56433 
    5350     48.71426     48.71426     48.71426   -83.286142   -107.75919    135.74091   -351.24633   -73.320388    170.26665   -316.89177   -68.778845    174.78774   -312.33611   -23044.988    205.87143 
    5400     48.71465     48.71465     48.71465   -17.735564    40.647081     284.2397   -202.93001   -27.463219    216.13097   -271.04913   -66.390555    177.18036   -309.93536   -23043.395    205.11159 
    5450    48.714613    48.714613    48.714613    21.308331    148.39907    392.00302   -95.197527   -77.699466    165.84403   -321.24102   -6.7746076    236.73845   -250.27974   -23040.805    203.24582 
    5500    48.713384    48.713384    48.713384    63.498502    44.006508    287.63591   -199.61865    64.576837    308.16235   -179.00437     81.91216     325.5807   -161.75358   -23039.826    203.17784 
    5550    48.713955    48.713955    48.713955    92.583592    121.25403    364.87495   -122.36252    108.02564    351.77305   -135.71143    48.471108    292.18621   -195.22925   -23039.402    203.72028 
    5600    48.716884    48.716884    48.716884   -123.14978   -88.612504    154.85561   -332.07654   -258.77853   -15.276959    -502.2744   -22.058316     221.4745   -265.59232   -23042.768    208.51606 
    5650    48.715781    48.715781    48.715781   -34.417487    -3.425837    240.18918   -247.03075   -5.8906203    237.73748   -249.49995   -93.936005    149.65661   -337.51995   -23041.031    207.59182 
    5700    48.714325    48.714325    48.714325    30.082849    108.56369    352.19713    -135.0575     18.52338    262.10842   -225.05261   -36.838526    206.67851   -280.34189   -23043.089    210.91808 
    5750    48.716304    48.716304    48.716304   -41.794827   -134.14463    109.40258   -377.68559    11.871266    255.43955   -231.69021   -3.1111129    240.46435   -246.69121    -23039.06    207.42525 
    5800    48.716989    48.716989    48.716989     46.17322   -40.914046     202.5958   -284.42934    109.23201    352.85716   -134.39921    70.201699    313.73995   -173.33427    -23037.96    207.22119 
    5850    48.716842    48.716842    48.716842   -15.194046   -31.183943    212.39647   -274.75379   -20.284635    223.30909   -263.87189    5.8864411    249.51593   -237.72215    -23038.16    208.45732 
    5900    48.715935    48.715935    48.715935    47.700677    70.916622    314.56694   -172.72714    38.743747    282.38002   -204.88227    33.441661    277.05393   -210.16735   -23038.772    210.16316 
    5950    48.716972    48.716972    48.716972   -36.649946    8.0052481    251.64379   -235.64209   -7.8865321    235.70184     -251.479   -110.06855    133.46356   -353.61371   -23040.228    212.80463 
    6000    48.718824    48.718824    48.718824   -33.982674    -20.31286     223.3421   -263.96572   -53.017209    190.63145     -296.656   -28.617952    215.00253   -272.23525   -23034.638    207.55307 
    6050    48.718426    48.718426    48.718426   -14.591404    22.237832    265.82475   -221.31846   -110.22244    133.31924   -353.75246    44.210398    287.79821    -199.3557   -23037.103    211.32859 
    6100    48.716768    48.716768    48.716768    95.892389    71.652623    315.20219   -171.87824    175.76088    419.36564   -67.827681    40.263665    283.91762   -203.36704   -23037.107    212.35244 
    6150    48.718638    48.718638    48.718638      33.1445    71.697395    315.22656   -171.82246   -9.6537607    233.99947   -253.28651    37.389866    280.93718   -206.15016   -23034.548    210.49305 
    6200    48.720271    48.720271    48.720271   -72.467962   -43.124419    200.39952   -286.65917   -93.181639    150.34084     -336.703   -81.097827    162.43749   -324.62669   -23035.791    212.89929 
    6250    48.718766    48.718766    48.718766    93.579165    142.25427    385.92524   -101.41395    111.06807    354.70366   -132.57489    27.415158    271.05729   -216.22848    -23033.21    211.01287 
    6300    48.719324    48.719324    48.719324    43.819091    157.30654    400.91947    -86.29048   -46.851325    196.65974   -290.35914    21.002052    264.63979   -222.62603    -23035.14    214.18135 
    6350    48.720303    48.720303    48.720303   -90.116467   -133.81921    109.74424   -377.37485   -56.306399    187.22078   -299.81856   -80.223792    163.28917    -323.7309   -23037.038    217.31156 
    6400     48.72031     48.72031     48.72031    17.443789    100.10833    343.71071   -143.49047      -16.696     227.0132   -260.40542   -31.080967    212.60279   -274.76298   -23030.839    211.36681 
    6450    48.720137    48.720137    48.720137    62.153282    1.8089834    245.39444   -241.77719    138.81325    382.42236   -104.79833    45.837615    289.41246   -197.73185   -23033.138    214.95068 
    6500    48.720581    48.720581    48.720581    31.066997    93.578896    337.14985   -149.96979    62.024362    305.68722   -181.62171   -62.402266    181.20243   -306.00064    -23031.74    214.37943 
    6550    48.722727    48.722727    48.722727   -24.512683   -4.4244302    239.13732   -247.97273    -87.71663    155.87825   -331.30286    18.603012    262.08602   -224.87581   -23032.724    216.48276 
    6600    48.722669    48.722669    48.722669   -57.490337   -94.389998    149.14884   -337.93862    69.897579    313.43229    -173.6408   -147.97859    95.533639   -391.49125   -23031.773     216.4179 
    6650    48.720387    48.720387    48.720387     123.0368    164.40172    407.99587   -79.189983    46.976332    290.63331   -196.66358    157.73235    401.38353   -85.915799    -23031.45    217.04947 
    6700    48.722597    48.722597    48.722597   -35.195879    92.315215    335.96576   -151.32744   -22.627301    220.99602   -266.24168   -175.27555    68.304353    -418.8405   -23030.896     217.4203 
    6750    48.724661    48.724661    48.724661   -72.385364   -57.716605    185.85427   -301.26445   -82.754625    160.72471   -326.22778   -76.684863    166.75221   -320.10616    -23031.51    219.10062 
    6800    48.723306    48.723306    48.723306   -48.991299   -82.617263    160.85476   -326.07939   -55.533774    188.04789   -299.11201   -8.8228601    234.70072   -252.32981   -23031.063    219.59583 
    6850    48.721175    48.721175    48.721175    137.57172     217.8469    461.47718    -25.78673    155.69014    399.44229   -88.055169    39.178131    282.84394   -204.47504   -23030.209    219.62205 
    6900    48.724282    48.724282    48.724282   -15.588173   -63.522166     179.9632   -307.00752    38.891265    282.40555   -204.61329   -22.133618    221.30186   -265.57338   -23029.791    220.14096 
    6950    48.726984    48.726984    48.726984   -92.227141   -115.72216    127.84358   -359.26861   -40.382168     203.1305   -283.88078   -120.57709    122.91842   -364.06217   -23027.578    218.65396 
    7000    48.725203    48.725203    48.725203    17.091947   -51.225606    192.27911   -294.71344    67.229121    310.79891   -176.31781    35.272326    278.79676    -208.2178    -23027.33    219.35537 
    7050    48.722616    48.722616    48.722616    34.049456    31.319057    274.98547   -212.33305    -85.27826    158.38105    -328.9315    156.10757    399.60627   -87.392951    -23030.38     223.7551 
    7100    48.723496    48.723496    48.723496    206.40276    285.86276    529.48294    42.243444    219.00635    462.59907   -24.584786    114.33918    357.99483   -129.32765   -23024.092    217.69411 
    7150    48.728357    48.728357    48.728357    -248.1268   -314.15246   -70.738241   -557.56179   -227.83131    15.580568   -471.23429   -202.39663     41.11314   -445.90447   -23029.216    224.41387 
    7200    48.725352    48.725352    48.725352    64.869048    57.849271    301.58154    -185.8698    9.1007129    252.75867   -234.54619    127.65716    371.22304   -115.89349   -23024.233    219.80307 
    7250    48.723959    48.723959    48.723959    22.175271   -54.704654     188.9137   -298.32418    89.824683    333.43612   -153.78984    31.405784    275.02355   -212.19925   -23028.855    225.95559 
    7300    48.725396    48.725396    48.725396    114.00326    114.66951    358.23459   -128.89858    137.84856    381.51809   -105.81719    89.491718    333.05518   -154.06321   -23026.139    223.88861 
    7350    48.729976    48.729976    48.729976   -133.08475   -170.94032    72.548403   -414.41182   -110.86583    132.59306   -354.30947    -117.4481     126.0101   -360.89975   -23024.285     222.7817 
    7400    48.728925    48.728925    48.728925   -99.703103   -34.780911    208.81057   -278.36084   -55.188888    188.29168    -298.6697   -209.13951    34.365424   -452.63538   -23026.342    226.05512 
    7450    48.724608    48.724608    48.724608    166.57647    106.37867    350.06977   -137.30238    167.01017     410.6678   -76.643778    226.34058    470.00863   -17.320115   -23022.813    223.06971 
    7500    48.726172    48.726172    48.726172    -4.525935    89.375117    332.89441   -154.13406   -27.209763    216.28292   -270.68731   -75.743159    167.76085   -319.24465   -23027.383    229.15768 
    7550    48.728787    48.728787    48.728787     33.08135    -44.53937    199.01134   -288.09292    68.074919    311.72876   -175.57101    75.708501    319.29028    -167.8643   -23019.447    221.23381 
    7600     48.72947     48.72947     48.72947     -165.817   -157.09638    86.407232   -400.58933   -191.99609     51.48346   -435.47296   -148.35852     95.14081   -391.84842   -23025.991    229.51907 
    7650     48.72523     48.72523     48.72523    211.63777     211.4111    455.01149   -32.192608      258.325    501.91848     14.74112    165.17719    408.81017   -78.449468   -23022.742    226.84355 
    7700    48.727307    48.727307    48.727307    53.414515    126.70569    370.36744   -116.94527     100.8151    344.50144   -142.86512   -67.277243    176.30151   -310.85067   -23021.123    225.98527 
    7750    48.731429    48.731429    48.731429   -141.69908   -85.390674     158.1378   -328.90687   -176.36295    67.195969   -419.91082   -163.34361     80.12317   -406.80473   -23022.216    228.16106 
    7800    48.730181    48.730181    48.730181   -74.930575   -130.18239    113.37685   -373.72617    -32.40949    211.14007   -275.94973   -62.199844    181.36008    -305.7534   -23021.149    227.91643 
    7850    48.726264    48.726264    48.726264    168.47699    262.68705    506.33993    19.040764    124.23584    367.88666    -119.4069    118.50807      362.205    -125.1699   -23020.495    228.14031 
    7900    48.728745    48.728745    48.728745    100.08533    39.283319     282.8116   -204.23083    153.23175    396.90166   -90.429374    107.74091    351.41407   -135.91998    -23018.14    226.45557 
    7950    48.733178    48.733178    48.733178   -157.58796   -155.14999    88.331284   -398.61728   -96.147081    147.36062   -339.64222    -221.4668    21.908559   -464.84826   -23021.594    231.27251 
    8000    48.731093    48.731093    48.731093   -45.151895   -91.709048    151.83207   -335.25726    8.0127741    251.61043   -235.58085   -51.759411    191.74298   -295.24968   -23021.672    232.29708 
    8050    48.728895    48.728895    48.728895    53.722566    81.172305    324.78227   -162.42738    -38.95199    204.65901    -282.5694    118.94738    362.57611   -124.67272   -23022.902    234.61462 
    8100    48.731159    48.731159    48.731159   0.52036475    1.8664917    245.47451   -241.73678    67.325339    310.92123   -176.25071   -67.630736    175.97599   -311.22642   -23017.134    229.09434 
    8150     48.73377     48.73377     48.73377    -130.9396    -98.67145    144.80124   -342.12997   -183.96565    59.600931   -427.51057    -110.1817    133.28553    -353.6302   -23021.148     234.5284 
    8200    48.732225    48.732225    48.732225   -1.1241948   -17.411529    226.11518   -260.92632   -9.4352624     234.1258   -252.98601    23.474207    266.99197   -220.03535   -23016.219    229.94866 
    8250    48.730081    48.730081    48.730081    137.78896    133.40913    376.97284   -110.14225    168.65028    412.24218   -74.940144    111.30747    354.85761   -132.23024   -23016.758     231.4887 
    8300    48.732078    48.732078    48.732078     74.63119    90.110452      333.684    -153.4434    71.452781    314.98503   -172.07454    62.330337    306.03151   -181.36761    -23016.71    232.36265 
    8350    48.735275    48.735275    48.735275   -163.54146   -175.53372    67.950707   -419.01575   -149.64454     93.88761   -393.15815   -165.44612    77.992201   -408.87362   -23016.698    233.27552 
    8400    48.732977    48.732977    48.732977    50.554949    71.351476     314.9048   -172.18732    167.76123    411.37105   -75.832604   -87.447861    156.20883   -331.08512   -23014.236    231.44146 
    8450    48.731614    48.731614    48.731614    129.02195    69.689663    313.20687   -173.82034    171.32415    414.88005   -72.233705    146.05204    389.68878   -97.582567   -23015.651    233.95797 
    8500    48.734443    48.734443    48.734443   -26.110938    20.500865    264.03156   -223.03841   -4.6476322    238.80221   -248.09827   -94.186047      149.244   -337.61921   -23017.183     236.5931 
    8550    48.736348    48.736348    48.736348   -70.417947   -80.665799    162.88548   -324.21398    14.661026    258.08108   -228.76308   -145.24907    98.224466   -388.71897   -23014.408     234.4058 
    8600    48.734329    48.734329    48.734329   -47.703746    22.909499     266.4691    -220.6578    -12.58396    230.97974   -256.12718   -153.43678      90.1399   -397.00656   -23015.289    236.30471 
    8650    48.732381    48.732381    48.732381    123.50192    198.06682    441.61626   -45.473903    186.69773    430.31802   -56.916593   -14.258808    229.40552   -257.91832   -23015.349    237.28553 
    8700    48.735556    48.735556    48.735556   -38.484082   -184.23022    59.258976   -427.69142    8.3235532    251.82737   -235.17196    60.454416    303.90599     -182.985   -23014.296    237.01602 
    8750    48.736956    48.736956    48.736956    -80.58042   -49.271862    194.28217   -292.79341   -112.02305    131.41568   -355.44513   -80.446352    163.07498   -323.94492   -23013.907    237.49501 
    8800    48.735098    48.735098    48.735098    77.084585   -23.454731    220.11924   -267.01994    242.36176    485.95747   -1.2185501    12.346726    255.97185   -231.25054   -23011.476    235.67909 
    8850      48.7352      48.7352      48.7352    37.708942    112.92323    356.50536   -130.65492   -63.114826     180.4568   -306.67445    63.318424    306.82416   -180.18756   -23012.236    237.43239 
    8900    48.736474    48.736474    48.736474    46.288738    19.980034    263.46127   -223.49312    69.339058    312.87498   -174.19881    49.547122    293.17364   -194.08476   -23009.288    235.03335 
    8950    48.736798    48.736798    48.736798   -48.570787     1.065559    244.54949   -242.42183   -96.587164    146.97277   -340.14368   -50.190756    193.29137   -293.66154   -23013.648    240.81914 
    9000    48.735673    48.735673    48.735673    43.067211    57.762843    301.42024   -185.89275    55.122391    298.58897   -188.34032      16.3164    259.92272    -227.2771   -23012.065    239.93696 
    9050    48.737013    48.737013    48.737013   -3.5838671    66.090365     309.6317   -177.43372    32.759978    276.39228   -210.84922   -109.60194    133.94557   -353.14327    -23009.07    237.47575 
    9100    48.738689    48.738689    48.738689   -91.315937   -104.53738    138.92938   -347.99376    49.319172    292.89006   -194.23741   -218.72961    24.800144   -462.24435    -23013.05    242.82271 
    9150    48.738074    48.738074    48.738074   -36.554764   -105.79384    137.75251   -349.33951    10.440284    253.82059   -232.93579   -14.310737     229.1141   -257.72519   -23011.242       241.69 
    9200    48.736523    48.736523    48.736523    58.876046    64.804757    308.40566   -178.77681    102.99717     346.6714    -140.6671    8.8262068    252.41578   -234.74929    -23010.11    241.30911 
    9250    48.737284    48.737284    48.737284    73.239787    13.486534    257.08684   -230.09022    53.425147    296.99231     -190.136    152.80768    396.36811   -90.749319   -23008.685    240.59794 
    9300    48.739854    48.739854    48.739854   -32.543012    47.809921    291.28483    -195.6653    15.313135     258.7467   -228.10857   -160.75209    82.775755   -404.26191    -23008.78    241.58094 
    9350    48.739768    48.739768    48.739768   -11.622034   -88.075869    155.25902    -331.4146    59.142063    302.68681   -184.40326    -5.932295    237.54139   -249.39698   -23009.077    242.79531 
    9400    48.738041    48.738041    48.738041    94.783209    95.524764    339.20911      -148.15     251.5242    495.14084     7.906318   -62.699337    180.79839    -306.2074   -23006.031    240.25753 
    9450    48.739294    48.739294    48.739294   0.97898542   -31.926627     211.6163    -275.4592    -88.76287    154.74766   -332.25373    123.62645    367.20773   -119.95286   -23008.748    244.16468 
    9500    48.741237    48.741237    48.741237   -57.642205   -91.745276    151.68211   -335.14727    97.258506    340.77731   -146.23509   -178.43985    65.220337   -422.07919   -23007.429    243.55909 
    9550    48.740384    48.740384    48.740384   -40.168805    112.72366    356.28958   -130.83331   -184.99714    58.524448     -428.497   -48.232934    195.21827   -291.66288   -23007.851    244.90301 
    9600    48.738631    48.738631    48.738631    102.86632     114.7189    358.24764   -128.79913    109.80382    353.34243   -133.73429     84.07625    327.55618   -159.39527    -23006.73    244.51177 
    9650    48.740838    48.740838    48.740838    20.114516    165.26103    408.71997   -78.188541   -84.936822    158.60479   -328.47275   -19.980657    223.61793    -263.5633    -23005.38    243.86183 
    9700    48.742703    48.742703    48.742703    -89.17118   -100.85105    142.58367    -344.2695   -58.061163    185.29122   -301.39641   -108.60133    134.81723   -352.01267   -23007.123    246.67137 
    9750     48.74119     48.74119     48.74119    1.2701581    119.71837    363.29083   -123.84801   -43.091068    200.43856   -286.60859   -72.816827    170.77939   -316.40333   -23006.576    246.90882 
    9800     48.74101     48.74101     48.74101    25.438493    133.54276    377.09249   -109.99448     -46.2771    197.20731   -289.76379   -10.950184     232.5645   -254.45093   -23006.413    247.57316 
    9850     48.74296     48.74296     48.74296   -84.484781   -80.649671    162.79371   -324.08072   -50.978914    192.55763   -294.50595   -121.82576    121.63499   -365.28808    -23007.14    249.24186 
    9900    48.743127    48.743127    48.743127   -30.596131    154.86101    398.34964   -88.615392    -166.3251     77.21237   -409.84967   -80.324303    163.21717   -323.84558   -23002.315    244.68415 
    9950    48.741235    48.741235    48.741235    127.33009    137.55296    381.16622   -106.04857      207.245    450.80676   -36.307458     37.19232    280.71754   -206.33425   -23002.622     245.8762 
   10000    48.742731    48.742731    48.742731    37.772334    68.321153     311.7965   -175.14866   -41.933086    201.61441     -285.471    86.928934    330.48519   -156.60961   -23002.856    246.97215 
   10050     48.74597     48.74597     48.74597   -172.83583   -177.57921    65.839599   -420.97741   -237.25299    6.1326464   -480.61896   -103.67529     139.7454   -347.07697   -23004.404    249.54726 
   10100    48.743567    48.743567    48.743567   -1.6921312    54.975441    298.41694    -188.4748   -23.642805    219.78516   -267.05811    -36.40903    207.06013   -279.86917   -23004.531    250.52727 
   10150    48.741393    48.741393    48.741393    79.317197    95.678619    339.25339   -147.88583    18.180592    261.85512   -225.49605    124.09238    367.63788   -119.44163    -23002.36    248.92545 
   10200     48.74322     48.74322     48.74322     32.57833    39.096856    282.58591   -204.37024     115.3113    358.85953   -128.22448   -56.673168    186.90698   -300.27074     -23002.1    249.46484 
   10250    48.746285    48.746285    48.746285   -91.113364   -38.140904    205.21498   -281.48186   -79.308438    164.17419   -322.78456   -155.89075    87.579854   -399.34475   -23002.962    251.25331 
   10300    48.745815    48.745815    48.745815   -47.525796   -49.036023    194.44667     -292.512   -154.86274    88.544187    -398.2635    61.321378     304.6475   -181.98272   -23003.096    252.22719 
   10350    48.743739    48.743739    48.743739    13.173936   -5.3589996    238.12462   -248.84608    90.496774    334.08448   -153.07133   -45.615966    197.93266   -289.14784   -23002.219      252.059 
   10400    48.743855    48.743855    48.743855    114.12933    63.767807    307.38389   -179.83939    59.801089    303.32816   -183.71082    218.81909    462.41706   -24.772634   -22999.036    249.31103 
   10450    48.747399    48.747399    48.747399   -147.81831   -154.03116    89.374151   -397.42052   -188.25168    55.150288   -431.64075   -101.17209    142.19964   -344.52699   -23002.453    253.94887 
   10500    48.746152    48.746152    48.746152    54.436907    37.525487    280.89836   -205.82403    105.70573    349.19973   -137.77743    20.079501    263.49778   -223.32798   -22998.609    250.45983 
   10550    48.744317    48.744317    48.744317    52.138779   -11.100588    232.53554   -254.73091    112.81424     356.4409   -130.80317    54.702691    298.19572   -188.78135   -22999.668    252.45208 
   10600    48.744968    48.744968    48.744968    96.295092    107.30133    350.87532   -136.26207      107.983    351.51856   -135.54519    73.600949    317.12547   -169.92117   -22998.881    252.37223 
   10650    48.748347    48.748347    48.748347   -132.55413   -83.108329    160.25717    -326.4584   -58.032324    185.36085   -301.41394   -256.52173   -13.057647   -499.97613   -23001.021    255.56723 
   10700    48.747983    48.747983    48.747983    -144.9972   -314.88414   -71.477358   -558.28124    -112.8914    130.58588   -356.35443     -7.21606    236.27097   -250.67718   -23001.337     256.7174 
   10750      48.7447      48.7447      48.7447    127.09512    166.95248    410.44921   -76.537817    89.215684    332.79739   -154.34864    125.11721    368.61006   -118.37394   -22998.678    254.54142 
   10800    48.745949    48.745949    48.745949    4.2084405   -180.46296    63.022424   -423.93988    67.814297    311.41216   -175.77565    125.27398    368.82134   -118.26327   -22998.886    255.55994 
   10850     48.74907     48.74907     48.74907   -15.108261    19.497009    263.02795    -224.0129   -71.446427    171.86326   -314.75034    6.6246351    250.07346   -236.81593   -22995.707    252.78941 
   10900    48.749902    48.749902    48.749902   -109.07063   -72.291594    171.21039   -315.77742   -140.12375    103.27322   -383.48696   -114.79655    128.68846   -358.26515   -22996.722    254.71122 
   10950    48.746148    48.746148    48.746148    113.17708    102.80421     346.2337   -140.60599     -4.49558    239.07098   -248.05379    241.22261    484.81162   -2.3476901    -22997.33    256.17493 
   11000    48.746279    48.746279    48.746279    29.381746    35.291281    278.80922   -208.22345    34.995511    278.51276   -208.52004    17.858447    261.27922   -225.54999   -22999.422    259.29312 
   11050     48.74927     48.74927     48.74927   -3.9477335    -26.17393    217.27491   -269.60795   -71.596985    171.87256    -315.0687    85.927714    329.29098   -157.42961   -22995.241    255.38531 
   11100     48.75046     48.75046     48.75046   -85.833852   -152.36131    91.092693   -395.80906   -47.957584    195.49171   -291.39706   -57.182661    186.30802   -300.66291    -22994.78    255.63779 
   11150    48.748081    48.748081    48.748081    71.342057    92.091651    335.59681   -151.40974    107.43953    350.98976   -136.10132     14.49499    257.98764   -228.97999   -22995.171    256.84166 
   11200    48.747679    48.747679    48.747679    131.63033    111.38736    354.89649     -132.114   0.77246553    244.26683    -242.7156    282.73116    526.25546     39.21479   -22992.128    254.20172 
   11250    48.750879    48.750879    48.750879   -29.589164    54.557095     298.0635   -188.93723    25.187185    268.65957   -218.27599   -168.51177    74.971107   -411.98987   -22994.344     257.4429 
   11300    48.751726    48.751726    48.751726    -107.6606   -198.96825    44.443809   -442.37245   -121.00025    122.47178   -364.46764   -3.0132972    240.33662   -246.35392   -22995.687    259.70477 
   11350    48.749485    48.749485    48.749485   -22.863493    40.889807      284.261   -202.46758    45.567953    289.03295    -197.8764   -155.04824    88.322419   -398.40998   -22996.812    261.71974 
   11400    48.749461    48.749461    48.749461    87.362749    79.560954    323.05473   -163.91075    54.960204    298.47847   -188.53494    127.56709    371.20969    -116.0571   -22993.824    259.12977 
   11450    48.751584    48.751584    48.751584    6.7385575    1.8116094    245.40729   -241.77121    -11.42629    231.99706   -254.82976    29.830353    273.19995    -213.5299   -22990.927    256.63686 
   11500    48.753024    48.753024    48.753024   -117.96047   -104.54329    138.76427     -347.827   -114.89064    128.49291   -358.25152   -134.44747    108.84035   -377.71573   -22996.002    263.06042 
   11550    48.751024    48.751024    48.751024    1.1282512    89.151604    332.45133   -154.14054   -25.125105    218.20483   -268.45221   -60.641745    182.88185   -304.14853   -22993.574    261.08768 
   11600    48.750089    48.750089    48.750089    43.600027   -10.595246     232.9127   -254.09121        60.33     303.9418    -183.2772    81.065328    324.52374   -162.39032    -22993.24    261.44052 
   11650    48.752148    48.752148    48.752148   -112.40062   -131.13786    112.30229   -374.58109    38.012675    281.52247   -205.48362   -244.07667  -0.60260826   -487.52719   -22995.304    264.48936 
   11700    48.752568    48.752568    48.752568   -55.653186   -5.3602146    238.03235   -248.73491   -41.351732    201.99706   -284.68257   -120.24761    123.05219   -363.53295   -22994.375    264.17567 
   11750    48.751213    48.751213    48.751213    95.110183    82.265827    325.77823   -161.23068    108.91236    352.43283   -134.59637     94.15236    337.68825   -149.38221   -22989.437    259.37887 
   11800    48.751823    48.751823    48.751823     114.7845    260.44381    503.91871    16.987519    115.01027    358.46065    -128.4383   -31.100569    212.33788   -274.52245   -22988.942    259.53989 
   11850    48.755111    48.755111    48.755111    -70.15804   -16.801922     226.6286   -260.22511   -131.42505     112.0489   -374.88258   -62.247146    181.19483     -305.682   -22988.088    259.30905 
   11900    48.754561    48.754561    48.754561   -46.726035   -29.568348    213.81028   -272.93741    10.325098    253.71806   -233.05352   -120.93486    122.40095   -364.25823    -22991.47    263.81449 
   11950    48.752065    48.752065    48.752065    107.53599    126.17928    369.68841   -117.31411     106.9402    350.50357   -136.60308    89.488499    333.06721   -154.06771   -22988.232    260.90201 
   12000    48.753518    48.753518    48.753518   -41.921227   -164.43384    79.000603   -407.85008    113.02819    356.52215   -130.45239   -74.358024    168.96858   -317.67676   -22994.069    268.15229 
   12050    48.754935    48.754935    48.754935   -17.250252    79.730172     323.0933   -163.64457   -72.992709    170.40583   -316.38948   -58.488219    184.83409   -301.80609    -22989.88    264.17017 
   12100    48.754503    48.754503    48.754503    44.219559    27.379786    270.73012   -215.95264   -47.986644    195.43698    -291.4101    153.26553    396.80135   -90.268352   -22986.782    261.40479 
   12150     48.75467     48.75467     48.75467    58.764341   0.19193316    243.63145   -243.22921    138.88525    382.29379   -104.51259    37.215844    280.72299   -206.26377   -22987.411    262.80271 
   12200    48.755976    48.755976    48.755976   -35.661083   -109.92944    133.42484   -353.27865   -48.715904     194.7554    -292.1727    51.662091    295.06251   -191.73423   -22988.609    264.84227 
   12250     48.75573     48.75573     48.75573   -41.713061   -57.194007    186.25163   -300.62084   -15.544379    227.89776   -258.97441   -52.400797     190.9787   -295.77545   -22989.101    266.08262 
   12300    48.755088    48.755088    48.755088   -29.461158    -141.4674    102.01336   -384.92252   -41.427527     201.9895   -284.82132    94.511456     337.9702   -148.93018   -22989.534     267.2564 
   12350    48.754639    48.754639    48.754639   -24.391849    50.665225    294.06225   -192.70854   -69.598229    173.79941   -312.97737   -54.242543    189.13224   -297.58302   -22990.017    268.48801 
   12400    48.755317    48.755317    48.755317    83.109776    28.208449    271.71436   -215.29449    169.03307    412.55259   -74.469285    52.087814    295.57436   -191.38503   -22986.108    264.78772 
   12450     48.75824     48.75824     48.75824   -151.63112   -114.82671    128.45238   -358.10315   -263.72472   -20.468896   -506.98803   -76.341935    167.08747   -319.75953   -22989.343    269.08936 
   12500    48.756303    48.756303    48.756303    86.364124   -53.658056    189.97055   -297.27145    173.52809    416.99742   -69.930193    139.22234    382.67124   -104.22378   -22983.043    262.71008 
   12550    48.755384    48.755384    48.755384     47.20149   -33.218622    210.19882   -276.61024    40.754955    284.17651    -202.6407    134.06814    377.47762   -109.33376   -22987.421    268.28546 
   12600    48.756271    48.756271    48.756271    72.107985    36.362019    279.77791   -207.05018    15.311931    258.67995   -228.03094    164.65001    408.09324   -78.775583   -22985.053    266.30049 
   12650     48.75878     48.75878     48.75878   -135.51743   -273.73386   -30.468226   -516.98218   -97.858055    145.55125    -341.2578   -34.960369    208.39443   -278.30385   -22986.084    268.11972 
   12700     48.75684     48.75684     48.75684   -8.0401115    5.3747519      248.733   -237.94667   -36.707702    206.71002   -280.11352    7.2126156    250.60663   -236.16011   -22987.266    270.10275 
   12750    48.755467    48.755467    48.755467    128.94427   -4.3300643    239.20304   -247.86393    129.85787    373.37684   -113.64377    261.30499    504.75869    17.867075   -22985.009    268.23301 
   12800    48.759241    48.759241    48.759241   -157.33117   -314.10896   -70.822376   -557.38485   -5.6334891    237.75108   -248.99599   -152.25105    91.069973   -395.56094   -22986.965    271.07488 
   12850    48.758807    48.758807    48.758807    22.232607    4.9592243    248.36495    -238.4412     39.39387    282.81921    -204.0217    22.344728    265.79923   -221.08718   -22982.591      266.827 
   12900    48.756879    48.756879    48.756879   -39.389439   -126.91023    116.52338   -370.33868    46.890503    290.32342   -196.54408    -38.14859    205.23135   -281.53377   -22985.833    271.10454 
   12950    48.754675    48.754675    48.754675    240.20106    182.89176    426.30744   -60.510236    191.19933    434.66852   -52.278592    346.51209    589.98879    103.04615   -22983.775    269.44335 
   13000    48.759975    48.759975    48.759975   -45.850702   -171.37726    72.079025   -414.81686    -49.96524    193.52915   -293.42505    83.790393     327.2098   -159.61399   -22982.205    268.31372 
   13050    48.763028    48.763028    48.763028   -217.22938   -167.66075    75.508277   -410.81863   -253.90318   -10.615095   -497.17869    -230.1242    13.139832    -473.3602   -22984.736    271.78527 
   13100    48.758045    48.758045    48.758045    61.178518   -60.898087    182.46628   -304.25198    144.16285    387.51991   -99.187382     100.2708    343.73854   -143.19102   -22984.171     271.7817 
   13150    48.756655    48.756655    48.756655    195.36177    201.32613    444.74863   -42.076847    181.43659    424.94282   -62.065087    203.32258    446.75429   -40.095857   -22982.896    270.98278 
   13200    48.761345    48.761345    48.761345    -164.0258    -221.8966    21.402159   -465.18019   -186.08619    57.296081   -429.44371   -84.094621    159.29972   -327.48238   -22983.972    272.81083 
   13250    48.761982    48.761982    48.761982   -61.242059   -28.854596    214.49776   -272.19432   -67.987216     175.1682   -311.11094   -86.884365    156.48795   -330.23697   -22981.589     270.7621 
   13300    48.759655    48.759655    48.759655   -1.4175521   -44.946113    198.34761   -288.22309   -90.938303    152.25128   -334.12952    131.63176    375.06894   -111.79077   -22983.637    273.67565 
   13350    48.757944    48.757944    48.757944    162.57413     107.2536    350.79712   -136.27504    187.56104    431.18869    -56.04557    192.90776    436.29838   -50.490369   -22980.665    270.95829 
   13400    48.761342    48.761342    48.761342   -86.225802   -73.489276    169.78278   -316.74349   -67.284445    176.08092   -310.64259   -117.90369    125.42572   -361.21628   -22984.301    275.63917 
   13450    48.762346    48.762346    48.762346   -2.6865727   -19.543899    223.66355   -262.74519   -104.51874    138.84529   -347.87808    116.00292     359.3993   -127.38147   -22978.795    270.07928 
   13500    48.760905    48.760905    48.760905     10.34466    4.1239291    247.56716   -239.30817   -33.166107    210.17133   -276.48862    60.076157    303.52674   -183.35136   -22980.858    272.98865 
   13550    48.759646    48.759646    48.759646   -8.4226869   -190.55435    52.889523   -433.97758    73.340301    316.71576   -170.01501    91.945987    335.35414   -151.43429   -22982.252    275.14676 
   13600    48.760721    48.760721    48.760721    119.45214    135.38204    378.71206   -107.93824    28.483799    271.91976    -214.9335     194.4906    437.86057   -48.865933    -22979.09    272.20375 
   13650    48.763928    48.763928    48.763928   -171.96911    -182.5508    60.688199   -425.76864    -170.3028    73.032285   -413.62905   -163.05373    80.372004   -406.46277   -22982.126    276.19283 
   13700    48.762004    48.762004    48.762004    28.059002    32.135713    275.58739   -211.29878    28.502163    271.90128    -214.8807    23.539129    266.75329   -219.66021   -22978.902    273.16931 
   13750    48.760335    48.760335    48.760335   -18.386718   -116.42034    126.98374   -359.81311    131.41475    374.71677   -111.87837   -70.154568    173.26179   -313.56384   -22982.917    278.25051 
   13800    48.760693    48.760693    48.760693    163.25154    207.04234    450.52847   -36.431682    115.87634     359.3111   -127.54488    166.83593    410.43427   -76.744462   -22977.348    272.59241 
   13850    48.765377    48.765377    48.765377   -159.98305   -380.71631   -137.44115   -623.97938   -17.111731    226.22122   -260.42074    -82.12112    161.20574   -325.43246   -22979.504    275.58342 
   13900    48.763581    48.763581    48.763581    -69.92738    14.889693    258.17015   -228.37449    -172.2418     71.19443    -415.6596   -52.430032    190.72196   -295.56883   -22977.816    274.26791 
   13950    48.759197    48.759197    48.759197    198.70994    37.528519    281.05715   -205.99357    328.13235    571.54004    84.738926    230.46895    473.93927   -12.979429   -22979.066    276.23675 
   14000    48.762199    48.762199    48.762199    57.842898    228.91759    472.36252   -14.504698   -96.527768    146.75423   -339.79867    41.138876    284.61826   -202.34484   -22977.405     274.9388 
   14050    48.766548    48.766548    48.766548   -157.31452   -213.74171    29.466384   -456.95431   -171.66311    71.655859   -414.96524   -86.538745    156.77802   -329.83874   -22978.063    276.24001 
   14100     48.76416     48.76416     48.76416   -14.757866   -65.012593    178.43372   -308.43268     21.05272    264.29402   -222.18152  -0.31372514    243.09161   -243.70923   -22976.829    275.41462 
   14150    48.760811    48.760811    48.760811    142.45332    158.04931    401.52745    -85.40511    146.95348    390.43611   -96.522645    122.35715     365.7374   -121.00405   -22978.382    277.71143 
   14200      48.7629      48.7629      48.7629    124.99481    114.48896    357.82092   -128.82843   0.96997579    244.45104   -242.50132    259.52548    502.98227    16.089432   -22975.801    275.37533 
   14250    48.767806    48.767806    48.767806   -156.03348   -270.14548   -26.906007   -513.36495   -102.64382    140.37066   -345.63701   -95.311142    147.87101   -338.46293   -22976.084    276.24317 
   14300    48.764891    48.764891    48.764891   -83.870844    16.172737    259.50807   -227.15012   -252.10082   -8.7685661   -495.40709   -15.684453    227.57943   -258.93733   -22979.429    280.52993 
   14350    48.760782    48.760782    48.760782    126.37166    117.91295    361.42481   -125.58837    191.67749    435.20344   -51.840566    69.524552    313.12979   -174.07275   -22976.043     277.2768 
   14400    48.763435    48.763435    48.763435     32.26501   -53.129426    190.18488   -296.43013    19.977592     263.3602   -223.37956    129.94687    373.33972   -113.43309   -22977.786    279.76772 
   14450    48.766879    48.766879    48.766879   -101.01194   -18.316901    225.02222   -261.62587   -207.50302    35.890632   -450.88523   -77.215902       166.12     -320.529   -22975.686    277.94823 
   14500    48.765743    48.765743    48.765743    -102.2345   -181.29903    62.054201   -424.65324   -140.16424    103.15721   -383.46466    14.759761    258.00021   -228.47112   -22977.524    280.53336 
   14550    48.762112    48.762112    48.762112    204.71246    157.31651    400.72435   -86.084613    228.12318    471.52915   -15.281226    228.69771     472.1461   -14.736324   -22974.319    277.47046 
   14600    48.764934    48.764934    48.764934   -13.868742   -16.919243    226.59155   -260.39873   -55.858868    187.41193   -299.12321    31.171885    274.61598   -212.26575   -22974.582    278.28552 
   14650    48.766874    48.766874    48.766874   -138.26091   -201.52928    41.670439    -444.7163   -123.75596     119.4436   -366.93249   -89.497483    153.75236   -332.73686    -22978.21    282.86865 
   14700    48.765228    48.765228    48.765228    2.2428694   -59.107303    184.27778   -302.48515     126.3544    369.84461   -117.11285    -60.51849    183.01463   -304.03833   -22974.669    279.41249 
   14750    48.764422    48.764422    48.764422     133.6238    61.234006    304.56588   -182.08626    130.22901    373.60317   -113.13804    209.40838    452.77437   -33.939664   -22974.597    279.84703 
   14800    48.766691    48.766691    48.766691    -52.37333   -87.642658    155.87436   -331.14724    3.8478999    247.16762   -239.45404   -73.325232    169.92206   -316.55483   -22975.261    281.09609 
   14850    48.768624    48.768624    48.768624   -94.097786   -188.57613    54.816141   -431.94279   -154.03742    89.219537   -397.27768    60.320186    303.58875   -182.93199   -22974.729      281.004 
   14900    48.767952    48.767952    48.767952   -169.09061   -12.401599     230.8337   -255.61203   -315.26007   -72.095463   -558.40894   -179.61016    63.642357   -422.84271   -22979.354    286.68404 
   14950    48.763957    48.763957    48.763957    264.78177    116.00404    359.53331   -127.52082    419.02135    662.48336    175.56519    259.31993    502.76638    15.889726   -22969.954     276.6566 
   15000     48.76812     48.76812     48.76812   -69.563632   -146.42762    96.844133   -389.67601   -1.4485486    241.83055   -244.70212   -60.814731    182.54998   -304.15509   -22975.552    283.41295 
   15050    48.770371    48.770371    48.770371   -202.81721    -238.8058    4.4461895   -482.03953   -173.25952    69.897239   -416.40304    -196.3863    46.868486   -439.62037   -22975.546    283.90006 
   15100    48.765077    48.765077    48.765077    219.26329    124.20716    367.60441   -119.17397    286.49541    529.89821    43.110944    247.08731    490.35386    3.8257039   -22969.076    277.13891 
   15150    48.765203    48.765203    48.765203    89.979409    97.932726     341.3663   -145.48075    89.468962    332.84864   -153.89324    82.536538    325.97952   -160.88799   -22974.077    283.21575 
   15200    48.769176    48.769176    48.769176   -11.116562   -147.07871    96.351607   -390.49285    95.856917    339.15428   -147.42875    17.872103    261.28382   -225.52556   -22969.597    278.67239 
   15250    48.770168    48.770168    48.770168   -197.87391   -261.58835      -18.422   -504.73439   -119.04671    124.19117   -362.26739   -212.98666    30.308019   -456.25512   -22975.913     286.2165 
   15300    48.765832    48.765832    48.765832    137.10212    93.726871    337.24594   -149.77456      124.681    368.10505   -118.71636    192.89848    436.15597   -50.350376   -22971.705    281.97762 
   15350    48.766995    48.766995    48.766995     6.443881   -55.739438    187.68096   -299.15066    147.86747    391.20564   -95.449708   -72.796387    170.45763   -316.03808   -22973.776    284.76597 
   15400    48.769896    48.769896    48.769896   -67.261897    -44.00069    199.19588   -287.17915   -58.977529    184.37652   -302.32069   -98.807472    144.56756    -342.1528   -22971.824     283.0424 
   15450    48.770795    48.770795    48.770795   -126.38169   -201.48345    41.616582   -444.55973   -80.596035    162.73455    -323.9037   -97.065595    146.30143   -340.41411   -22972.753    284.54165 
   15500    48.767554    48.767554    48.767554    122.55782    75.946429    319.41024   -167.49698    26.384059     269.6467   -216.86818    265.34297    508.76919    21.924677    -22970.52    282.49901 
   15550     48.76755     48.76755     48.76755    47.068829    70.970946     314.4095   -172.46476    -25.80388    217.57558   -269.17191    96.039421    339.33322   -147.25082   -22970.324    282.73234 
   15600    48.769113    48.769113    48.769113   -49.601289   -314.94725   -71.616145   -558.26979    57.258511    300.53313   -186.02173    108.88487    352.17984   -134.40452   -22974.324    287.66232 
   15650    48.769058    48.769058    48.769058    -43.72359    89.243634    332.55179   -154.05863   -220.25087    23.115919   -463.59314  -0.16353643    243.19211   -243.49468   -22970.967    284.34385 
   15700    48.768495    48.768495    48.768495    2.3021315   -95.102662    148.31984   -338.50657    16.894122    260.14946    -226.3364    85.114935    328.46664   -158.20799   -22971.124    284.96064 
   15750    48.768399    48.768399    48.768399   -18.710285   -33.143664     210.3773   -276.64335   -19.413267    223.90567   -262.72851   -3.5739237    239.80743    -246.9486   -22970.763    284.99022 
   15800    48.768731    48.768731    48.768731   -31.412138   -144.45047    98.813651   -387.71647   -34.749403    208.71185   -278.19689    84.963458     328.2598   -158.32737   -22972.104    286.92276 
   15850    48.769502    48.769502    48.769502    3.7486121   -41.349074    201.96527   -284.63286    39.355076    282.76736   -204.04238    13.239835    256.53092   -230.02554   -22969.518    284.45851 
   15900    48.769642    48.769642    48.769642    14.011822    68.836626    312.28176    -174.5681   -149.20894    94.193519    -392.5765    122.40778    365.69043   -120.85164   -22969.592    284.97248 
   15950    48.768476    48.768476    48.768476    143.67193    68.512201    311.89016   -174.84607    240.91769    484.18072    -2.338468     121.5859    364.92887   -121.73606   -22966.433    281.85595 
   16000    48.770711    48.770711    48.770711   -119.64321   -145.99705    97.352681   -389.33982   -247.33352   -4.0212875   -490.63289    34.400933    277.68595   -208.87105   -22971.442    287.87973 
   16050    48.770224    48.770224    48.770224    -24.34395   -112.80802     130.5847   -356.19606   -72.384858    170.89755   -315.64259    112.16103    355.62142   -131.28976   -22968.303    284.77888 
   16100    48.769203    48.769203    48.769203    37.884755   -76.499963    166.77124    -319.7405    38.600755    282.01113    -204.7933    151.55347    394.94813   -91.819076   -22968.618    285.54692 
   16150    48.769506    48.769506    48.769506   -7.5073264   -49.229588    194.08654   -292.52321   -34.779179     208.5644   -278.09462    61.486788    304.79023    -181.7935   -22971.255    288.91466 
   16200     48.76954     48.76954     48.76954    106.72676    52.095552    295.45234   -191.24641    154.82153    398.17631   -88.526243    113.26321    356.67575   -130.13431   -22965.667    283.06441 
   16250    48.770839    48.770839    48.770839   -46.942155   -99.265185    144.15938   -342.68555   -27.033685    216.30541   -270.35046   -14.527594    228.76208   -257.80376   -22968.432    286.56378 
   16300    48.769598    48.769598    48.769598    51.473826    36.468482    279.79792   -206.84404    17.254926    260.58854   -226.06472    100.69807     344.1233   -142.71748   -22967.312    285.70569 
   16350    48.769767    48.769767    48.769767   -10.485094   -102.97529    140.57116   -346.49727    12.090414    255.35478   -231.15733    59.429597    302.74127   -183.86858   -22969.598    288.65876 
   16400    48.771513    48.771513    48.771513    14.100085    5.0567687    248.37364   -238.24533   -73.721355    169.69916   -317.11584    110.96484    354.24506   -132.28774   -22967.935    287.18917 
   16450    48.772791    48.772791    48.772791   -161.78285   -286.15813   -42.907379   -529.38484     -191.842     51.46179   -435.12668    -7.348407    235.87136   -250.55754   -22970.272    290.19341 
   16500    48.769935    48.769935    48.769935     50.79708    57.524056    300.79769   -185.73167    -43.56986    199.78051   -286.90827    138.43704    381.81132   -104.91107   -22968.088    288.13034 
   16550    48.770325    48.770325    48.770325    48.370882    110.69674    353.98818     -132.578     10.33475    253.80865   -233.11716    24.081155    267.49928   -219.31168    -22969.72    290.34175 
   16600    48.772494    48.772494    48.772494   -56.351144   -165.86015    77.578062   -409.27295   -122.72793    120.53612   -365.96561    119.53465    362.89428    -123.7983    -22965.27    285.73506 
   16650    48.771516    48.771516    48.771516    34.733867    117.17692    360.58927    -126.2146   -130.78469     112.4063   -373.97016    117.80937    361.20575   -125.57047   -22965.164     285.9911 
   16700    48.770054    48.770054    48.770054    73.462583   -172.22754    71.059623   -415.50058    72.546875    316.03247   -170.91744    320.06842    563.38361    76.751742   -22966.647     288.0253 
   16750    48.771386    48.771386    48.771386    89.752596    172.17182    415.43937   -71.093559    -3.497828    239.86926   -246.85061    100.58379    343.98828   -142.80978   -22966.038     287.7127 
   16800     48.77536     48.77536     48.77536   -221.05233   -208.86471    34.410813   -452.12612   -309.85512   -66.692082   -553.00776   -144.43716    98.601973   -387.45227   -22969.232    291.65233 
   16850    48.772668    48.772668    48.772668    -35.76116    155.00979    398.43195   -88.385847   -109.85253    133.35226   -353.05957   -152.44074    91.028859    -395.8841   -22966.851    289.34783 
   16900    48.768658    48.768658    48.768658    115.68656     214.7652     458.0254   -28.478338    -89.14561    154.20975   -332.48462     221.4401    464.81803   -21.919897   -22968.944    292.04934 
   16950    48.770522    48.770522    48.770522    48.543687    145.96999    389.45255    -97.49887    11.043448    254.32368   -232.20606   -11.382373    231.95053   -254.70653   -22966.147    289.26888 
   17000    48.774766    48.774766    48.774766   -241.56563   -208.85282    34.366175   -452.06131   -296.95441    -53.62305   -540.26711   -218.88964    24.446608   -462.20754   -22968.443    292.18828 
   17050    48.772792    48.772792    48.772792    -7.912087   -50.838876    192.44853   -294.09827    121.03697    364.47846   -122.39723   -93.934352    149.34643   -337.19691   -22965.507    289.24588 
   17100    48.770222    48.770222    48.770222    114.97347    207.19208    450.59386   -36.179555    15.162155    258.57017   -228.21513    122.56618     366.0281   -120.88366   -22964.281    288.22336 
   17150    48.770872    48.770872    48.770872    125.26032    267.13285      510.485     23.79973    5.1334063    248.44739   -238.15793    103.51469    346.80267   -139.74564   -22966.305    290.83248 
   17200    48.775459    48.775459    48.775459   -104.29051   -213.84706    29.503638   -457.18108   -131.37293    111.79154   -374.50853    32.348461    275.71117   -210.99252   -22964.179     288.7879 
   17250    48.774854    48.774854    48.774854   -170.12729   -122.46793    120.76796    -365.6902   -146.67108     96.52502   -389.84974   -241.24288    2.0461931   -484.50608   -22968.558    294.02779 
   17300    48.769485    48.769485    48.769485    192.50428    155.14489    398.74323   -88.432615    83.127771    326.54402   -160.26899    339.24018    582.74429    95.746726   -22965.107    290.49348 
   17350    48.771943    48.771943    48.771943   -12.417448   -141.28018    101.96003   -384.50555   -31.820242     211.5159   -275.15281    135.84807    379.08873   -107.38262   -22966.674    292.57586 
   17400    48.775006    48.775006    48.775006   -108.57596   -148.72601    94.423668   -391.87485    11.067915    254.46524   -232.30746   -188.06978    55.173484   -431.28683   -22965.781    291.89716 
   17450    48.774527    48.774527    48.774527   -70.332829   -3.4412459    239.94573   -246.79965   -175.70196    67.646441   -419.01715   -31.855281    211.37651   -275.07075   -22965.836     292.2784 
   17500    48.772401    48.772401    48.772401    11.847967    14.303498    257.63754   -229.00357    73.446007    316.73074   -169.81865   -52.205604    191.10977   -295.50743   -22964.627    291.24453 
   17550    48.771594    48.771594    48.771594    92.629131    97.108399    340.44547   -146.21072    69.921836    313.13852   -173.27697    110.85716    354.31073   -132.58174   -22965.502    292.53735 
   17600    48.774817    48.774817    48.774817   -77.755272   -28.913959    214.41118   -272.21936   -36.954793    206.36727   -280.26458   -167.39706    76.007463   -410.78783   -22964.159    291.34425 
   17650    48.775644    48.775644    48.775644   -51.265631   -85.020999    158.22035   -328.24344   -54.337326    188.93368   -297.59502    -14.43857    228.73029   -257.58007   -22963.452    290.86602 
   17700    48.773549    48.773549    48.773549    89.851615   0.80068109    244.12882   -242.49525    64.892954    308.15437   -178.35087    203.86121    447.17764    -39.44164   -22965.012    292.91844 
   17750    48.774525    48.774525    48.774525    42.323694    72.531736    315.88999    -170.8236    1.9285559    245.23542   -241.36037    52.510789    295.98294   -190.92963   -22962.952    290.91047 
   17800    48.776435    48.776435    48.776435   -142.06947   -254.36884   -11.110111   -497.60425    -91.03256    152.14019   -334.18658      -80.807    162.38582    -323.9737   -22963.755     292.1093 
   17850    48.773069    48.773069    48.773069    55.922287    213.76152    457.01015   -29.462046   -59.482903    183.85776   -302.79536    13.488247    256.60482   -229.61844   -22967.317     296.3902 
   17900    48.772317    48.772317    48.772317    192.00618    242.19742    485.63858   -1.2273184    232.57988    476.00017    -10.81751    101.24124    344.76138   -142.24586   -22960.381    288.90669 
   17950    48.777517    48.777517    48.777517   -140.67799    -141.3108    101.89805   -384.49319   -207.07296    36.156028   -450.28417    -73.65021    169.71648   -316.99538       -22965    294.36554 
   18000    48.777654    48.777654    48.777654   -186.37819   -295.29987   -52.111869    -538.4712   -105.78835    137.45525   -349.02142   -158.04634    85.068082   -401.14561   -22963.466    292.93023 
   18050     48.77227     48.77227     48.77227    247.88272    219.89368    463.33931   -23.526699    272.04798    515.36676    28.737305    251.70649    495.08055    8.3381776   -22961.391    290.89309 
   18100    48.774347    48.774347    48.774347   -15.201224   -93.307449    150.17581   -336.77765   -6.6478955    236.59311   -249.87788    54.351673    297.71679   -188.98783   -22964.337    294.46994 
   18150    48.777139    48.777139    48.777139   -73.796235    11.821877    255.15553   -231.49449     63.23753    306.50438   -180.00537   -296.44811   -53.262579   -539.62692   -22962.564    292.76426 
   18200    48.776701    48.776701    48.776701   -39.502592   -209.24006    33.781141   -452.23712    58.541138    301.87741   -184.76567    32.191144    275.46855    -211.0744   -22961.328    291.65355 
   18250    48.774762    48.774762    48.774762    35.580832    150.27919    393.74023   -93.159495    129.82667    373.15141   -113.47103   -173.36336    69.981877   -416.68021   -22962.179    292.87866 
   18300    48.773484    48.773484    48.773484    142.61056    41.887725    285.24305   -201.46438    197.17707    440.51241   -46.142863     188.7669    432.19053    -54.63773   -22963.014    294.08328 
   18350    48.776829    48.776829    48.776829   -40.810631   -190.84381    52.434762   -434.09913   -9.6868418    233.60262   -252.96489    78.098753    321.45993   -165.25257   -22962.825    294.13315 
   18400    48.779687    48.779687    48.779687   -152.61164   -132.53672    110.62047   -375.67239   -84.018791    159.11696   -327.12699   -241.27942    1.9329518   -484.45477   -22963.706    295.38248 
   18450    48.776444    48.776444    48.776444   -11.702118   -110.99632    132.29998   -354.27533    -57.82372    185.43558   -301.05601    133.71369    376.85905   -109.40707   -22962.038    293.77452 
   18500    48.772811    48.772811    48.772811     329.2691    551.26439    794.71832    307.82864    280.97809    524.31884    37.645223    155.56481    398.97857   -87.824782    -22959.58    291.27656 
   18550     48.77852     48.77852     48.77852   -165.34168   -401.97236   -158.76748   -645.16632   -65.753884    177.52222   -309.00922   -28.298792    215.00637   -271.60558   -22963.805    296.25641 
   18600    48.779455    48.779455    48.779455   -119.66699    -62.95623    180.41409   -306.29366   -207.93587    35.148292   -451.00274   -88.108882     155.0927   -331.30021   -22961.699    294.14643 
   18650    48.775328    48.775328    48.775328     82.13257   -83.635736    159.72015   -326.96452   -44.072132    199.15803   -287.29868    374.10558     617.5649    130.68289   -22961.514    294.18614 
   18700    48.775123    48.775123    48.775123    31.059662    59.708962    302.92214   -183.48038   -64.190274     179.0836   -307.42611    97.660299     340.9998   -145.65795   -22963.986    297.19847 
   18750    48.777788    48.777788    48.777788    77.769834   -11.373497    231.94426   -254.68045    55.108636    298.51912   -188.27409    189.57436    432.87743   -53.709116   -22956.724    289.30871 
   18800    48.779704    48.779704    48.779704   -131.79883    -194.0432    49.135834   -437.21317   -98.083582    145.04745   -341.19449    -103.2697    139.70481   -346.22567   -22962.486    295.99857 
   18850    48.776437    48.776437    48.776437    30.898465    181.96768    425.40325    -61.44579   -99.232545    144.12706   -342.57123    9.9602643    253.27723   -233.33651   -22961.134    294.71693 
   18900    48.776044    48.776044    48.776044    72.915046     112.1016    355.43083   -131.19822    2.4951607    245.56597   -240.56891    104.14838    347.65333   -139.33626   -22962.391    296.35955 
   18950    48.778923    48.778923    48.778923   -25.669289    61.272216    304.39689   -181.84063   -180.87355    62.293881   -424.02817    42.593465    285.80974   -200.59874   -22959.941    293.85082 
   19000    48.778454    48.778454    48.778454   -5.0976752   -46.430897    196.95702   -289.78943    51.585856    294.76587   -191.57467   -20.447985    222.70076   -263.57798   -22959.913     294.0482 
   19050    48.776582    48.776582    48.776582     7.288887    9.9035808    253.10816   -233.26631   -46.241175    197.11461   -289.55983    58.204255    301.57008   -185.14404   -22963.045    297.77852 
[...]
   13800        0.138    288.04403    7.6716636  0.023692735  0.024631991 -0.023082764    7.6484842    7.6948418    257.31459   -22504.757   -25733.294 
   13850       0.1385    292.18066    7.7058945   0.01901621 -0.021512714 -0.023090184    7.6826976    7.7290902    261.00991   -22505.558   -25677.993 
   13900        0.139    293.00891    7.6723217 -0.0093638139 -0.047506201 -0.023098749     7.649123    7.6955192     261.7498   -22503.381   -25384.839 
   13950       0.1395    292.48943    7.7119121  0.010578895 -0.010804797 -0.023083494     7.688743    7.7350801    261.28574   -22500.019   -25705.621 
   14000         0.14    291.70953    7.7694216   0.01823611  0.057185351  -0.02306634    7.7462528    7.7925892    260.58904   -22496.393   -26149.477 
   14050       0.1405    295.38583    7.8263694  0.025643193  0.016645527 -0.023067686    7.8031948    7.8495427    263.87314   -22496.744    -26228.86 
   14100        0.141    292.76508    7.7785537 -0.023342974 -0.053685364 -0.023086092    7.7553606    7.8017457    261.53199   -22491.454   -25671.751 
   14150       0.1415    288.74892    7.7875629 -0.049347883 -0.037213617 -0.023080075    7.7643905     7.810734    257.94428   -22484.936   -25670.005 
   14200        0.142    290.03925    7.8540898  0.045584919   0.01903789 -0.023045765     7.830952    7.8772264    259.09695   -22483.144   -26395.709 
   14250       0.1425     291.4863    7.8896601  0.044026806  0.037184233 -0.023031164     7.866516     7.912803    260.38962   -22481.471    -26569.57 
   14300        0.143    289.76086    7.8416143 -0.021645036 -0.0089992899 -0.023050909    7.8184523     7.864775    258.84827   -22476.976   -26036.566 
   14350       0.1435    291.63511    7.8600623 -0.014924767 -0.051605171 -0.023056453     7.836909    7.8832142    260.52256   -22475.677   -25978.441 
   14400        0.144    293.60973    7.9054913 -0.0067157483 0.0053718732 -0.023039125    7.8823579    7.9286234    262.28652    -22474.47   -26347.158 
   14450       0.1445    293.28596    7.9281947  0.039429354  0.041278277 -0.023017698    7.9050832    7.9513049    261.99729   -22471.199   -26696.341 
   14500        0.145    290.27108    7.9310846  0.018330376  0.037530103 -0.023016785    7.9079697    7.9541981    259.30405   -22465.511    -26623.15 
   14550       0.1455    286.93601    7.8845597 -0.038050964 -0.050327999 -0.023034596     7.861413    7.9077051    256.32478   -22459.546   -25987.269 
   14600        0.146    288.41617    7.9409542 -0.043295386  -0.01305764 -0.023025152    7.9178166    7.9640906    257.64703   -22457.872   -26282.004 
   14650       0.1465    289.11324    7.9560104 -0.011046774  0.018043561 -0.023002872    7.9329159    7.9791036    258.26973   -22455.485   -26543.357 
   14700        0.147    291.73183    7.9334077  0.025652853  0.063882074 -0.022986646    7.9103337    7.9564804    260.60896   -22454.826   -26743.142 
   14750       0.1475    287.13439    7.8630405 0.0013571638 0.00081474655 -0.022996705    7.8399336    7.8861461    256.50199   -22447.748   -26217.375 
   14800        0.148    288.51941    7.8314849 -0.046616871 -0.012891603 -0.023003998    7.8083754     7.854593    257.73925   -22446.005   -25906.588 
   14850       0.1485    289.00427    7.8163667  -0.01697651 -0.028482065 -0.022999394    7.7932711    7.8394609    258.17238   -22443.468   -25903.027 
   14900        0.149    292.62629    7.8072108  0.018111109  0.019362131  -0.02297526     7.784152    7.8302681      261.408   -22443.739   -26148.947 
   14950       0.1495    289.96471    7.7586377 0.0044637966  0.020664513 -0.022968911    7.7355752    7.7816986    259.03037   -22438.415   -25945.887 
   15000         0.15    286.50549    7.6646019  0.019872973  -0.03636603 -0.022970546    7.6415151    7.6876873    255.94018   -22432.394   -25493.696 
   15050       0.1505    290.66548    7.6098898 0.0040728669 -0.043635925 -0.022963287    7.5868171    7.6329609    259.65638   -22433.197   -25234.422 
   15100        0.151    296.90087     7.564341  0.024237287 0.0047831458 -0.022948727    7.5412732    7.5874072    265.22655   -22435.892   -25311.205 
   15150       0.1515    299.12723    7.3759201 0.0047084224  0.049891261 -0.022944871    7.3528754    7.3989632     267.2154   -22435.064   -24768.399 
   15200        0.152    303.29503    7.1761431 -0.047237028  0.013779555 -0.022947934    7.1531158    7.1991686    270.93856   -22436.067   -23808.952 
   15250       0.1525    311.19594    6.9446204 -0.002340178 0.0043580703 -0.022940184    6.9216043    6.9676346    277.99658   -22440.517   -23155.461 
   15300        0.153    313.54359    6.6715149 -0.0086726855 0.0036491754 -0.022926846      6.64851     6.694518    280.09378    -22440.15   -22221.638 
   15350       0.1535     324.4248     6.352892 0.0052309959  0.033888427 -0.022912868      6.32988     6.375902    289.81414     -22447.6   -21306.705 
   15400        0.154     326.4625    6.0076806 -0.020246921 0.00018060996 -0.022910815    5.9847015    6.0306576    291.63445   -22447.362   -19958.714 
   15450       0.1545    338.50599    5.6835749 -0.0076305124  0.029160212 -0.022898343    5.6605961    5.7065515    302.39311   -22456.299   -19017.015 
   15500        0.155    342.03824    5.2874618  0.036751323 -0.011745881 -0.022896392    5.2644951    5.3104261    305.54852    -22457.91   -17708.224 
   15550       0.1555    355.21783    4.8929405  0.076584581 -0.010468948 -0.022893099    4.8699832    4.9158954    317.32208   -22468.441   -16530.187 
   15600        0.156    366.66468    4.4403974   0.09408775 -0.021318279 -0.022920007    4.4174121    4.4633799    327.54774   -22477.851    -15043.89 
   15650       0.1565    371.93744    3.9646752 -0.015383103 -0.065669663 -0.022961893    3.9416609    3.9876865    332.25799    -22482.12   -12945.408 
   15700        0.157     380.2549    3.6480676 -0.0072540604 0.0024570511 -0.022971726    3.6250222    3.6711099    339.68811   -22489.374   -12144.235 
   15750       0.1575    386.65527    3.3741811 0.00039147635  0.083319259 -0.022973978    3.3511084    3.3972503    345.40567   -22495.175   -11526.306 
   15800        0.158    382.90995    3.0704972 -0.070345459   0.07917325 -0.023004088    3.0473887     3.093602    342.05991   -22492.075   -10264.417 
   15850       0.1585    389.14779    2.7726645 0.0034846471   0.02650221 -0.023030643     2.749559    2.7957658    347.63228   -22498.046    -9342.171 
   15900        0.159    390.95156    2.4903763 0.0011891722  0.006096894 -0.023064215    2.4672311    2.5135169    349.24362   -22500.096   -8325.5411 
   15950       0.1595    388.07688    2.3211795  0.038831049 -0.048186229 -0.023096384    2.2979553    2.3443989    346.67562   -22497.999   -7706.0812 
   16000         0.16    388.06642    2.1836276  0.027086642 -0.0073654693 -0.023113361    2.1603945    2.2068556    346.66627   -22498.539   -7344.4961 
   16050       0.1605    391.61469    2.0447497  0.055832128 -0.014555331 -0.023146475    2.0214718    2.0680221    349.83601   -22502.356   -6953.4218 
   16100        0.161    395.21954    1.9873194  -0.03284373 -0.044473403 -0.023178033    1.9639899    2.0106429    353.05628   -22506.311   -6366.6743 
   16150       0.1615    393.57958    1.9574794 -0.061224746  0.026291685 -0.023181369     1.934157    1.9807953    351.59127   -22505.603   -6408.4878 
   16200        0.162    394.99503    1.9710288 0.0070197554  0.077151631 -0.023162904    1.9476974    1.9943533    352.85572   -22507.711   -6850.6672 
   16250       0.1625    395.10949    1.8726369  0.049759917  0.069179087 -0.023177431    1.8492811    1.8959854    352.95797   -22508.748   -6638.5864 
   16300        0.163    394.48384    1.7953289 -0.0068400939 -0.088497904 -0.023209962    1.7719332    1.8187167    352.39906   -22509.178   -5666.6363 
   16350       0.1635    400.85313    1.7925932  -0.03012263 -0.044070959  -0.02321829     1.769139     1.816039    358.08886   -22515.852   -5727.9987 
   16400        0.164    398.96156    1.8778242 0.0088710919 0.0041785304 -0.023206741    1.8544348    1.9012047    356.39909   -22515.202   -6302.9126 
   16450       0.1645    402.23697    1.8565405  0.029800946  0.084291584 -0.023196938    1.8332252    1.8798465    359.32507   -22519.162   -6568.7767 
   16500        0.165    401.83718    1.8745207 -0.021920954  0.012024091 -0.023213401    1.8511799    1.8978517    358.96793   -22519.894   -6215.4128 
   16550       0.1655     403.2365    1.8118914  0.027157569 -0.030373733 -0.023226545    1.7885132    1.8352593    360.21796   -22522.245   -6028.9176 
   16600        0.166    397.47739    1.7944491 -0.043743903 -0.029216386 -0.023238224    1.7710553     1.817832    355.07325    -22518.19   -5738.2962 
   16650       0.1665      406.261    1.8730367    0.0100916  0.021928007 -0.023218181    1.8496641    1.8963976     362.9198   -22527.125   -6350.1876 
   16700        0.167     402.1749    1.8537082  0.033922825  0.056126094 -0.023207145    1.8303716    1.8770327    359.26962   -22524.588   -6479.1905 
   16750       0.1675    408.08142    1.7840606  0.038379512  0.028925323 -0.023217362     1.760717    1.8073914    364.54602   -22531.024    -6171.218 
   16800        0.168    399.88669    1.7482709 -0.027585452 -0.058348876 -0.023246719    1.7249194    1.7716091    357.22552   -22524.872    -5541.122 
   16850       0.1685    401.45225    1.7455366 -0.066019596 -0.045826747  -0.02324725    1.7221925    1.7688667    358.62407   -22527.436   -5445.6341 
   16900        0.169    403.28124    1.8523316  0.049007436  0.034815587 -0.023211055    1.8290037    1.8756448    360.25793   -22530.238   -6453.8486 
   16950       0.1695     400.9249    1.9323877  0.015604476  0.073703363 -0.023189784    1.9091024    1.9556578    358.15298   -22529.239   -6738.9852 
   17000         0.17    396.41149    1.8914932 0.0028530607 -0.0095528383 -0.023209375    1.8681477    1.9148228    354.12107   -22526.356   -6282.6448 
   17050       0.1705    402.03256    1.8762576  -0.03836141 -0.012873122 -0.023228479    1.8529202    1.8995783    359.14247   -22532.477   -6083.4102 
   17100        0.171    406.14015    1.8442342 -0.037347627  0.055671404 -0.023230726    1.8209006    1.8675504    362.81185   -22537.302   -6208.5267 
   17150       0.1715    403.18834    1.8418704 -0.032520492  0.043574692 -0.023227028    1.8185121    1.8652104    360.17495   -22535.873   -6176.4153 
   17200        0.172    403.19391    1.8663761 0.00095790272  0.053119258 -0.023222546     1.843001    1.8897322    360.17992   -22537.078   -6401.5109 
   17250       0.1725    403.93902    1.8782406 -0.0098921875  0.017152092 -0.023227247    1.8549171    1.9015443    360.84554   -22538.958   -6285.0017 
   17300        0.173    395.59561    1.8386355 -0.042319948 -0.046202716 -0.023244227     1.815261    1.8619894    353.39223   -22532.655   -5833.7095 
   17350       0.1735    399.72575    1.8417445  0.077845997 -0.032717129 -0.023222943    1.8182689    1.8651985    357.08176   -22537.454   -6289.5778 
   17400        0.174     402.2145    1.8621147   0.11890809  -0.02475268 -0.023219662    1.8387569    1.8854502      359.305   -22540.835   -6520.9002 
   17450       0.1745    396.26276    1.8092754 -0.019385862 -0.037370698 -0.023258534    1.7857936    1.8327341    353.98821   -22536.711   -5841.7294 
   17500        0.175    405.78419     1.869566 -0.0066169893 -0.029446931 -0.023259219    1.8461208    1.8929873    362.49386   -22546.337   -6111.6735 
   17550       0.1755    398.37106    1.8848577 -0.028720931 -0.016738731 -0.023243426     1.861577    1.9081138    355.87159   -22540.874   -6131.3269 
   17600        0.176     404.5226    1.9217244 0.0017681207   0.10457472 -0.023222029    1.8982955    1.9451277    361.36686   -22547.495   -6760.2241 
   17650       0.1765    398.21119    1.9371062  -0.03942547  0.045713124 -0.023235886    1.9137457    1.9604402    355.72877   -22543.029   -6477.9794 
   17700        0.177    399.92248     1.970758  -0.08275414  0.019053579  -0.02324625    1.9474027    1.9940858    357.25749   -22545.701    -6356.858 
   17750       0.1775    396.17449    1.9600763 -0.024653435 -0.0094925764 -0.023234094    1.9366363    1.9834878    353.90936   -22543.455   -6419.7675 
   17800        0.178     398.8136    1.9795274  0.088927517  0.056678863 -0.023209718    1.9561525     2.002873    356.26691   -22546.902   -7083.7792 
   17850       0.1785    398.82709    1.8964988  0.077745266 -0.0027130303 -0.023236968    1.8731976    1.9197699    356.27897   -22548.037   -6571.7702 
   17900        0.179    401.44342    1.8127146 -0.067177877 -0.051580318  -0.02328676    1.7892709     1.836127    358.61617   -22551.463   -5646.5212 
   17950       0.1795    398.80595    1.8329581 -0.052293344 -0.075735106 -0.023274478    1.8095331    1.8563509    356.26008   -22550.231   -5683.0988 
   18000         0.18    396.08785    1.8612399  0.083940159  0.046793947 -0.023233139    1.8378845    1.8845623    353.83196   -22548.912   -6639.9133 
   18050       0.1805     395.8804    1.8342253  0.077104129  0.046639683 -0.023231075    1.8109364    1.8574801    353.64664   -22549.844   -6526.5636 
   18100        0.181     398.2812    1.7401563 -0.016020926  0.023382955  -0.02326564    1.7168695     1.763408    355.79131   -22553.141   -5825.0609 
   18150       0.1815     392.8559    1.6802719 -0.042508446 -0.074708899 -0.023295724    1.6567201    1.7037876     350.9448   -22549.387   -5210.1818 
   18200        0.182    394.66902    1.6944866  -0.02900258 0.0053147484 -0.023276077    1.6710552     1.717881    352.56449   -22552.106   -5569.3292 
   18250       0.1825    402.24601    1.7287549  0.053245531   0.10933743 -0.023250797    1.7054118      1.75206    359.33314   -22559.981   -6304.4596 
   18300        0.183    385.47354    1.6641398 -0.035642872  0.029919651 -0.023282314    1.6408373    1.6874035    344.35001   -22546.161   -5528.0553 
   18350       0.1835    396.51643    1.6986673 -0.041289927 -0.023165267 -0.023297972    1.6751635    1.7221311    354.21481   -22557.141   -5447.3736 
   18400        0.184     391.7418    1.6920232 -0.026865146 -0.050609511 -0.023296875    1.6685805     1.715425    349.94955   -22553.974   -5381.8284 
   18450       0.1845     391.9723    1.7721882  0.031430518  0.036839181 -0.023272491    1.7488097    1.7955249    350.15546   -22555.269   -6134.8597 
   18500        0.185    395.95383    1.7253558   0.06323779  0.073254242 -0.023272349    1.7017897     1.748879    353.71223   -22559.921   -6206.1594 
   18550       0.1855    397.78135    1.6128706 0.0017837194  0.018636992 -0.023314114    1.5894181    1.6362793    355.34479   -22562.721   -5444.3043 
   18600        0.186    389.59471    1.5508214 -0.079872786  -0.10745859  -0.02334997    1.5272983    1.5742997    348.03153   -22556.513   -4544.9669 
   18650       0.1865    394.01621    1.6083081  0.016566141 -0.0093650425 -0.023318389    1.5848327    1.6317376    351.98132   -22561.573   -5385.0305 
   18700        0.187    392.01394    1.6837238  0.087835874  0.011121552 -0.023288362    1.6603281    1.7070726    350.19266   -22560.882   -5942.2706 
   18750       0.1875    395.35444    1.6408765  0.084498077 0.0039909818 -0.023294546    1.6173425    1.6643626    353.17679   -22564.995   -5764.5518 
   18800        0.188    395.72106    1.5913725 -0.0067443008  -0.01900128  -0.02333098    1.5678908    1.6148054     353.5043   -22566.503   -5218.7564 
   18850       0.1885    387.01659    1.5539418  -0.10012274 -0.092828179 -0.023354122    1.5304994    1.5773344    345.72845   -22559.821   -4536.6364 
   18900        0.189    395.14763     1.698139  0.026779229 -0.0016061194 -0.023299476    1.6747097    1.7215174    352.99204   -22568.208   -5744.3736 
   18950       0.1895    390.85001    1.7527122   0.10148818  0.058050924 -0.023270801    1.7293215     1.776051     349.1529   -22565.431   -6374.1711 
   19000         0.19    392.38435    1.7478551   0.05354207  0.020252569 -0.023283566    1.7243714    1.7712856    350.52355   -22567.913   -6072.1658 
   19050       0.1905    393.77818    1.7129622 -0.040139845 -0.052563756 -0.023317901    1.6894346    1.7364355    351.76869   -22570.212   -5400.8619 
   19100        0.191    385.81008    1.7009859 -0.076083366  -0.01687496 -0.023320827    1.6775312    1.7243853    344.65065   -22564.113    -5360.092 
   19150       0.1915    387.19126    1.7410399 0.0084852071   0.10164762 -0.023289774    1.7177279    1.7642956    345.88448   -22566.343   -6170.5757 
   19200        0.192    385.11391    1.6756813 -0.016648364   0.07407051 -0.023302503    1.6522048    1.6991003    344.02875   -22565.552   -5777.0115 
   19250       0.1925    386.61218    1.6553239   -0.0290743  0.006304517 -0.023333629     1.631839    1.6787501    345.36718   -22567.974   -5441.8472 
   19300        0.193    389.95628     1.647952  -0.05099135 -0.042700656 -0.023343253    1.6245232    1.6713209    348.35452   -22571.965   -5180.8666 
   19350       0.1935    387.71259    1.6596924  0.039012582 -0.029415337 -0.023323818     1.636205    1.6831187     346.3502   -22570.971   -5564.2987 
   19400        0.194     387.9439    1.7015859  0.058679835 -0.0010756807 -0.023304447    1.6780857     1.725024    346.55683   -22572.174   -5863.9669 
   19450       0.1945    387.74652    1.6987353  0.028013734 0.0063995206 -0.023308711    1.6752708    1.7221366    346.38051   -22573.008    -5777.162 
   19500        0.195    388.28948    1.6416817  0.018041298 0.0017203356  -0.02331337    1.6182149     1.665084    346.86554    -22574.49   -5538.1445 
   19550       0.1955    388.09242    1.6275225 -0.0043483183 -0.016075799  -0.02332305    1.6040965    1.6508828     346.6895   -22575.329   -5356.9947 
   19600        0.196    382.96573    1.6097706  0.041185123 -0.063789553 -0.023329848     1.586276    1.6331982    342.10974   -22571.779   -5290.5538 
   19650       0.1965    383.25881    1.6021967   0.05118992 -0.022636835 -0.023315807    1.5785948    1.6257304    342.37155   -22573.097   -5435.8327 
   19700        0.197     385.2177    1.6100257 -0.015175218  0.065079235 -0.023317876    1.5866066    1.6333755    344.12146   -22575.861   -5533.0992 
   19750       0.1975    386.72894    1.5800072 -0.042598936 0.0053453472 -0.023334619    1.5566026    1.6033412    345.47149   -22578.159   -5142.5121 
   19800        0.198    387.92365    1.6434824 -0.032021497 -0.0061875082 -0.023323692    1.6199961    1.6668967    346.53873   -22580.199   -5350.9112 
   19850       0.1985    383.19666    1.6723703 -0.030738651   0.08817892 -0.023301736    1.6489034    1.6957639    342.31604   -22576.949   -5766.0351 
   19900        0.199    381.53992    1.6604145  0.033754049  0.064494928 -0.023304514    1.6369308    1.6838237    340.83604   -22576.472   -5862.2116 
   19950       0.1995    383.03965    1.6291559 -0.0014356011 -0.038735818 -0.023335249    1.6053577    1.6528782    342.17578   -22578.788   -5296.6151 
   20000          0.2    382.57821    1.5996989 -0.068109417 -0.036744591 -0.023347722    1.5760973    1.6232233    341.76357   -22579.335   -4982.8164 
Loop time of 1924.23 on 4 procs for 20000 steps with 6912 atoms

Pair  time (%) = 1698.86 (88.2881)
Neigh time (%) = 0.872721 (0.0453544)
Comm  time (%) = 99.6298 (5.17766)
Outpt time (%) = 0.101753 (0.00528798)
Other time (%) = 124.759 (6.48359)

Nlocal:    1728 ave 1742 max 1706 min
Histogram: 1 0 0 0 0 1 0 0 0 2
Nghost:    4924.75 ave 4940 max 4894 min
Histogram: 1 0 0 0 0 0 0 1 0 2
Neighs:    118848 ave 120061 max 116255 min
Histogram: 1 0 0 0 0 0 0 1 0 2
FullNghs:  0 ave 0 max 0 min
Histogram: 4 0 0 0 0 0 0 0 0 0

Total # of neighbors = 475390
Ave neighs/atom = 68.7775
Neighbor list builds = 92
Dangerous builds = 0

######################################
# SIMULATION DONE
print "All done"
All done
