LAMMPS (28 Jun 2014)
# Input file for uniaxial tensile loading of single crystal aluminum
# Mark Tschopp, November 2010

# ------------------------ INITIALIZATION ----------------------------
units 		metal
dimension	3
boundary	p	p	p
atom_style	atomic
variable latparam equal 4.05

# ----------------------- ATOM DEFINITION ----------------------------
lattice		fcc ${latparam}
lattice		fcc 4.05
Lattice spacing in x,y,z = 4.05 4.05 4.05
region		whole block 0 10 0 10 0 10
create_box	1 whole
Created orthogonal box = (0 0 0) to (40.5 40.5 40.5)
  1 by 2 by 2 MPI processor grid
lattice 	fcc ${latparam} orient x 1 0 0 orient y 0 1 0 orient z 0 0 1
lattice 	fcc 4.05 orient x 1 0 0 orient y 0 1 0 orient z 0 0 1
Lattice spacing in x,y,z = 4.05 4.05 4.05
create_atoms	1 region whole
Created 4000 atoms

# ------------------------ FORCE FIELDS ------------------------------
pair_style	eam/alloy
pair_coeff	* * Al99.NegFRho.PosRhoR.ZeroPhiR.eam.alloy Al

# ------------------------- SETTINGS ---------------------------------
compute csym all centro/atom fcc
compute peratom all pe/atom

######################################
# EQUILIBRATION
reset_timestep	0
timestep 0.001
velocity all create 300 12345 mom yes rot no
fix 1 all npt temp 300 300 1 iso 0 0 1 drag 1

# Set thermo output
thermo 1000
thermo_style custom step lx ly lz press pxx pyy pzz pe temp

# Run for at least 10 picosecond (assuming 1 fs timestep)
run 20000
Memory usage per processor = 3.04301 Mbytes
Step Lx Ly Lz Press Pxx Pyy Pzz PotEng Temp 
       0         40.5         40.5         40.5    2514.9557    2465.8226    2553.4866     2525.558    -13444.32          300 
    1000    40.557891    40.557891    40.557891    866.52184    854.97305    838.78439    905.80809   -13365.448    165.23501 
    2000     40.57178     40.57178     40.57178    263.01257    198.42563    289.96611    300.64596   -13360.751    178.76041 
    3000     40.58066     40.58066     40.58066     103.5416    18.354025    200.50508    91.765705    -13354.32    189.31756 
    4000    40.588399    40.588399    40.588399    63.833499    19.213713    37.580951    134.70583    -13344.81    193.91667 
    5000    40.593315    40.593315    40.593315    185.25312    268.73557    244.82967    42.194115   -13338.572     204.5964 
    6000    40.600456    40.600456    40.600456    87.692699     104.6935   -19.106727    177.49132   -13331.656     213.4607 
    7000    40.608041    40.608041    40.608041   -20.005514   -23.158077    69.298228   -106.15669   -13326.106    224.21926 
    8000    40.612601    40.612601    40.612601    62.520696     44.03815    107.91512    35.608816   -13322.312    237.36335 
    9000    40.618239    40.618239    40.618239   -3.6164363    -98.09114    102.75767   -15.515836   -13320.203    252.57996 
   10000    40.626279    40.626279    40.626279   -43.238113   -29.270905    40.104595   -140.54803   -13310.521    251.72212 
   11000    40.629551    40.629551    40.629551    2.8379105   -239.66681    120.19957    127.98097    -13307.33     261.8631 
   12000    40.633122    40.633122    40.633122   -88.550511    44.859756    -149.9109   -160.60038   -13305.731      273.403 
   13000    40.640209    40.640209    40.640209   -201.31614    -288.4084   -378.98446    63.444442   -13302.437    279.91424 
   14000    40.641118    40.641118    40.641118   -71.829466    -355.4862    25.540874    114.45693   -13298.092    282.63093 
   15000    40.641084    40.641084    40.641084    182.20405    414.23733   -37.373767     169.7486   -13295.039    286.12796 
   16000    40.641446    40.641446    40.641446    268.57977    335.28404    62.322477     408.1328   -13294.358    292.54555 
   17000    40.647978    40.647978    40.647978   -60.754036   -87.511655    36.480288   -131.23074    -13293.59    297.18054 
   18000    40.647328    40.647328    40.647328    94.456594    132.58842    158.29305   -7.5116826   -13291.123    297.07672 
   19000    40.647517    40.647517    40.647517    229.35368   -91.612986    399.33507    380.33895     -13287.9    294.06567 
   20000    40.647478    40.647478    40.647478    138.72453     30.01191    182.56114    203.60055   -13289.418    298.91071 
Loop time of 206.896 on 4 procs for 20000 steps with 4000 atoms

Pair  time (%) = 184.459 (89.1556)
Neigh time (%) = 0 (0)
Comm  time (%) = 16.4667 (7.95893)
Outpt time (%) = 0.00239033 (0.00115533)
Other time (%) = 5.96753 (2.88432)

Nlocal:    1000 ave 1000 max 1000 min
Histogram: 4 0 0 0 0 0 0 0 0 0
Nghost:    4235 ave 4235 max 4235 min
Histogram: 4 0 0 0 0 0 0 0 0 0
Neighs:    70000 ave 72653 max 67302 min
Histogram: 1 0 1 0 0 0 0 1 0 1
FullNghs:  0 ave 0 max 0 min
Histogram: 4 0 0 0 0 0 0 0 0 0

Total # of neighbors = 280000
Ave neighs/atom = 70
Neighbor list builds = 0
Dangerous builds = 0
unfix 1

# Store final cell length for strain calculations
variable tmp equal "lx"
variable L0 equal ${tmp}
variable L0 equal 40.6474777382519
print "Initial Length, L0: ${L0}"
Initial Length, L0: 40.6474777382519

######################################
# DEFORMATION
reset_timestep	0

fix		1 all npt temp 300 300 1 y 0 0 1 z 0 0 1 drag 1
variable srate equal 1.0e10
variable srate1 equal "v_srate / 1.0e12"
fix		2 all deform 1 x erate ${srate1} units box remap x
fix		2 all deform 1 x erate 0.01 units box remap x

# Output strain and stress info to file
# for units metal, pressure is in [bars] = 100 [kPa] = 1/10000 [GPa]
# p2, p3, p4 are in GPa
variable strain equal "(lx - v_L0)/v_L0"
variable p1 equal "v_strain"
variable p2 equal "-pxx/10000"
variable p3 equal "-pyy/10000"
variable p4 equal "-pzz/10000"
fix def1 all print 20 "${p1} ${p2} ${p3} ${p4}" file  Al99.NegFRho.PosRhoR.ZeroPhiR.eam.alloy.def1.txt screen no

# Use cfg for AtomEye
#dump 		1 all cfg 250 dump.tensile_*.cfg id type xs ys zs c_csym c_peratom fx fy fz
#dump_modify 1 element Al

# Display thermo
thermo 	1000
thermo_style	custom step v_strain temp v_p2 v_p3 v_p4 ke pe press

run		20000
Memory usage per processor = 3.04301 Mbytes
Step strain Temp p2 p3 p4 KinEng PotEng Press 
       0 -3.4961221e-16    298.91071 -0.003001191 -0.018256114 -0.020360055    154.51033   -13289.418    138.72453 
    1000         0.01     300.7241   0.66869961  0.045602032  0.041398914    155.44769   -13287.865   -2519.0019 
    2000         0.02     303.8095    1.2843286  0.028645844 -0.00011402736    157.04257   -13284.137   -4376.2013 
    3000         0.03    297.13101     1.868811  0.005911177 -0.033596537    153.59038   -13272.619   -6137.0854 
    4000         0.04    295.36696    2.4634708 -0.029027676 -0.042883587    152.67852   -13260.966   -7971.8652 
    5000         0.05     295.0336    3.0955301 -0.026140454 -0.019264243    152.50621   -13247.526   -10167.085 
    6000         0.06    297.34961    3.7487335    0.0278563  0.069567245    153.70338    -13232.92   -12820.523 
    7000         0.07    295.56392    4.2512808    -0.021018 -0.0065580888    152.78033   -13213.862   -14079.016 
    8000         0.08    295.43667    4.8055633 -0.062884453 -0.057673015    152.71456   -13193.452   -15616.686 
    9000         0.09    295.65615    5.3667428  0.043553176 -0.011036928    152.82801   -13170.951    -17997.53 
   10000          0.1    296.24881    5.9457556  0.044855336  0.058599692    153.13436   -13146.379   -20164.035 
   11000         0.11    298.75235    6.4226873 -0.033741178  -0.02918115    154.42847   -13120.537   -21199.217 
   12000         0.12    294.34465    6.9304064 -0.035940296 0.0036422769    152.15008   -13088.992   -22993.695 
   13000         0.13    296.90853    7.4019324  0.079010827   0.04291789    153.47538   -13059.033   -25079.537 
   14000         0.14    295.51798    7.7903879 0.0099740623  0.044613594    152.75659   -13025.041   -26149.919 
   15000         0.15    286.78214    7.8888862 -0.020049882  0.013157579    148.24094   -12985.683   -26273.313 
   16000         0.16    355.81189    3.4063508  0.054311064  0.066550377    183.92319   -12996.456   -11757.374 
   17000         0.17    376.41579    2.4765136 -0.054901266 -0.0032904662    194.57358   -13010.423    -8061.073 
   18000         0.18    377.83766     1.540951 -0.015151561 -0.0066094451    195.30857   -13020.374   -5063.9667 
   19000         0.19    382.12755    1.3393008  0.017426052  0.090669788    197.52605   -13035.382   -4824.6553 
   20000          0.2    385.33175     1.205031  -0.12145308  0.085921304    199.18234   -13050.922   -3898.3307 
Loop time of 252.646 on 4 procs for 20000 steps with 4000 atoms

Pair  time (%) = 228.547 (90.4612)
Neigh time (%) = 0.476161 (0.18847)
Comm  time (%) = 17.0984 (6.76773)
Outpt time (%) = 0.00290251 (0.00114884)
Other time (%) = 6.52182 (2.58141)

Nlocal:    1000 ave 1014 max 984 min
Histogram: 1 0 1 0 0 0 0 0 1 1
Nghost:    3748 ave 3760 max 3740 min
Histogram: 2 0 0 0 0 1 0 0 0 1
Neighs:    68608.2 ave 70361 max 67136 min
Histogram: 1 0 1 0 0 1 0 0 0 1
FullNghs:  0 ave 0 max 0 min
Histogram: 4 0 0 0 0 0 0 0 0 0

Total # of neighbors = 274433
Ave neighs/atom = 68.6082
Neighbor list builds = 84
Dangerous builds = 0

######################################
# SIMULATION DONE
print "All done"
All done
