ITEM: TIMESTEP
15000
ITEM: NUMBER OF ATOMS
4000
ITEM: BOX BOUNDS pp pp pp
-3.12283 43.6228
0.834724 39.6653
0.813083 39.6869
ITEM: ATOMS mass type id x y z vx vy vz fx fy fz xrad yrad zrad vxrad vyrad vzrad fxrad fyrad fzrad 
26.982 1 43 -0.547453 4.69018 2.54496 0.331608 -0.395758 -2.23585 -0.193792 0.434734 -0.212986 -0.847725 -0.428206 -1.28206 -0.111767 -0.0415561 -0.1838 -1.68812e-05 -4.20361e-06 -5.82979e-05 
26.982 1 202 -1.01518 3.11157 4.52227 -4.4453 -0.74361 -3.77213 0.134171 -0.673468 0.505919 -0.795323 -0.731795 -0.725723 -0.105238 -0.101317 -0.100609 -1.81569e-05 -3.47157e-05 -1.855e-05 
26.982 1 245 1.41662 4.53848 4.7905 5.61747 -2.54294 2.20971 0.0750168 0.105637 0.0968589 -0.06149 -0.132187 -0.185021 -0.0084692 -0.0175264 -0.026989 5.74207e-07 -9.57927e-06 -4.60827e-06 
26.982 1 8 1.73414 2.90364 2.66911 0.0781946 -0.489682 5.45854 -0.646978 -0.0987093 0.0199943 0.229721 -1.24604 -1.30225 0.0206619 -0.164175 -0.181951 -1.58078e-05 -3.29238e-05 -4.64975e-05 
26.982 1 47 3.83649 4.84569 3.03322 0.864688 1.81336 1.56681 0.18529 0.0453182 0.217709 -0.0713398 -0.307286 -1.27001 -0.00216021 -0.0407201 -0.190724 4.73108e-06 -9.76793e-06 -3.04708e-05 
26.982 1 206 3.68939 2.50975 4.68388 -0.0312986 0.457354 0.212809 0.360507 0.219796 0.077184 -0.0458364 -1.14142 -0.686984 0.000788599 -0.145823 -0.0874626 -3.42631e-06 -2.68839e-05 -6.03832e-06 
26.982 1 149 29.6629 12.4509 0.743058 -7.90095 -2.89587 -1.04577 0.0155713 -0.0699624 0.492243 -0.0368799 0.320902 -1.42997 -0.00545292 0.023657 -0.169299 5.90574e-06 -1.09454e-06 -5.31708e-05 
26.982 1 249 6.28484 4.7696 4.87987 2.82916 5.35395 4.10351 -0.239624 0.534078 0.00421764 -0.00904277 -0.123791 -0.150799 -0.000547663 -0.0185175 -0.0245887 -5.87556e-06 5.35669e-06 -7.14091e-06 
26.982 1 12 6.07425 2.76721 3.00898 3.55531 -0.82037 4.70675 0.12199 -0.375338 0.352252 -0.225728 -1.45243 -1.13359 -0.0196159 -0.19313 -0.173518 1.07184e-05 -2.84569e-05 -3.40741e-05 
26.982 1 51 8.43746 4.26451 2.233 1.10491 -9.86669 -3.81587 0.555615 -0.121315 0.462538 0.0101338 -0.113247 -1.05252 0.001018 -0.0154176 -0.171823 -1.07491e-05 -1.29179e-05 -2.44583e-05 
26.982 1 210 8.76782 3.07272 4.91585 -3.66442 2.03027 1.66316 -0.23706 0.305048 -0.103446 0.0736845 -1.08343 -0.57842 0.0108275 -0.155317 -0.0841397 -8.01257e-06 -2.1638e-05 -2.30075e-05 
26.982 1 113 34.2928 8.65191 0.927023 -2.61282 2.73475 -1.4627 -0.477115 0.0626389 -0.240016 -0.0183506 0.0378669 -1.24082 -0.000892762 -0.00150877 -0.175753 9.63579e-06 1.30193e-05 -6.18435e-05 
26.982 1 253 11.0247 4.55621 4.48129 6.43965 0.507307 -0.510532 0.237715 -0.0208603 0.505281 0.00805366 -0.145372 -0.154249 0.00029355 -0.0215516 -0.0248563 -2.25119e-06 -1.54782e-06 8.73444e-08 
26.982 1 16 11.0994 2.71696 2.53133 2.13212 5.22124 1.82552 -0.36567 0.172678 0.161679 0.198838 -1.46871 -1.10265 0.00643982 -0.198191 -0.152758 -1.34068e-05 -4.21337e-05 -2.33051e-05 
26.982 1 55 13.4221 4.70257 2.90531 -2.15104 0.910158 0.946298 -0.103566 -0.0796497 0.243319 0.0300809 -0.284124 -1.31104 0.00128341 -0.0270434 -0.177963 2.923e-06 -2.52007e-06 -4.73126e-06 
26.982 1 214 13.1941 2.61542 4.71314 -1.43823 3.51752 -2.95849 0.38534 0.16084 0.355287 0.0595167 -1.19873 -0.612938 -0.00119982 -0.159285 -0.0801125 1.72199e-05 -3.3091e-05 -1.51121e-05 
26.982 1 20 15.603 2.90425 2.91665 -1.56738 2.2392 0.296578 0.00676754 -0.481022 -0.00647686 -0.27604 -1.45974 -1.09686 -0.00924365 -0.190249 -0.157681 2.10526e-06 -5.87e-05 -1.21515e-05 
26.982 1 257 15.6995 4.8078 4.82652 -0.926592 2.1597 4.97497 -0.171611 0.157454 -0.530388 -0.00498012 -0.154126 -0.164412 0.000436328 -0.0200783 -0.0249354 -1.2932e-06 -1.03214e-06 -1.04363e-05 
26.982 1 218 17.957 2.77461 4.62192 2.02202 -8.71866 3.25464 -0.244787 0.35555 0.484172 -0.0705254 -1.14944 -0.507202 -0.00425774 -0.158174 -0.0816633 7.17681e-07 -4.10654e-05 -1.59916e-05 
26.982 1 59 17.9655 5.00202 2.84194 8.08366 2.20875 -1.67324 -0.0390445 -0.232696 -0.307284 0.054701 -0.0471627 -1.1603 0.0119044 -0.0135702 -0.187081 5.91928e-07 6.20387e-06 -2.90032e-05 
26.982 1 801 -3.18879 0.924433 16.555 4.77285 -0.5363 -0.366503 0.394776 -0.0945598 -0.582433 -0.42711 -0.921137 -0.902238 -0.0647482 -0.139545 -0.140635 -1.41952e-05 -1.13434e-05 -5.27953e-05 
26.982 1 24 20.0726 2.84613 2.71224 -7.24195 -4.69076 1.14732 0.769091 0.601176 0.171254 0.10961 -1.21072 -1.01462 0.00213085 -0.165198 -0.171018 1.0567e-05 -2.82195e-05 2.74344e-06 
26.982 1 261 20.1483 4.95755 4.56444 5.57399 0.688696 2.92158 0.557869 -0.26206 0.141938 0.0100468 -0.12905 -0.179694 0.0012277 -0.0186534 -0.0295923 1.20513e-05 -1.27141e-05 -2.92873e-06 
26.982 1 2801 43.2274 20.0671 16.2115 -7.49961 1.45595 -1.34173 0.183508 0.0129192 -0.019788 -1.22456 -0.0493855 -1.48609 -0.143631 -0.0206372 -0.212487 3.25645e-06 1.41737e-05 -1.6122e-05 
26.982 1 145 25.1914 12.6278 0.686095 1.54723 4.64547 -2.2985 -0.510899 0.243605 0.285975 0.136549 -0.0300683 -0.888032 0.0202378 -0.000704235 -0.157571 1.25406e-05 2.83801e-06 -5.60816e-05 
26.982 1 63 22.6723 4.89361 2.83754 -3.88892 2.73612 3.03854 -0.141244 -0.621937 0.423795 0.050363 -0.0493057 -1.42075 0.00371981 -0.0116973 -0.214521 -5.59792e-06 -1.18879e-05 -3.39018e-05 
26.982 1 222 22.4857 2.69277 4.75091 2.15461 1.90817 -1.92417 0.294048 0.666168 0.05001 -0.0287642 -1.0652 -0.55947 -0.000824368 -0.142692 -0.076519 1.08725e-07 -1.45574e-05 -6.60271e-06 
26.982 1 28 25.0006 2.73888 2.97356 2.15632 1.88036 3.49273 -0.33394 0.317864 -0.150006 -0.0847308 -1.01219 -1.23078 -0.00123425 -0.14712 -0.180949 -4.12241e-06 -3.13707e-05 5.41365e-07 
26.982 1 265 25.0359 4.81296 4.63339 3.27032 0.0507836 2.35235 -0.173956 -0.0326235 0.052303 -0.00121302 -0.116449 -0.206241 0.000246777 -0.0179581 -0.03154 -7.24505e-06 -4.41231e-06 1.46828e-06 
26.982 1 999 40.9956 16.1298 18.1567 -3.14466 -2.29193 -5.6015 0.492768 0.218064 0.896354 0.36229 -0.0603673 -0.290781 0.0403007 -0.00918145 -0.0300416 1.10019e-05 2.48258e-06 1.1943e-05 
26.982 1 7 3.96945 0.928461 2.48075 1.20418 2.7611 0.761463 0.044439 -0.0249125 -0.298644 -0.127203 -0.356042 -1.33845 -0.0082301 -0.0889525 -0.182492 -1.1101e-06 -4.19037e-05 -3.07179e-05 
26.982 1 2835 36.7191 20.3871 18.4739 0.978212 3.09865 0.6101 -0.496319 -0.605039 -0.289334 -0.529737 -0.299023 -0.931066 -0.0779649 -0.0293901 -0.13424 -8.50601e-06 2.47733e-05 -3.29253e-05 
26.982 1 67 27.4407 4.83864 2.78968 -10.3899 4.54449 -1.46061 -0.0706939 -0.0843647 -0.372848 0.0722612 -0.00302356 -1.66195 0.0105055 -0.00445543 -0.23861 1.06472e-05 -4.77237e-06 -2.3142e-05 
26.982 1 226 27.2967 2.96565 4.67849 -1.60512 2.92127 -0.197779 0.212815 -0.0198555 0.502541 0.0113485 -0.897389 -0.423872 -0.00208134 -0.138872 -0.0744022 2.50935e-06 -4.37549e-05 -9.9065e-06 
26.982 1 32 29.7057 2.813 2.93065 -3.10851 4.30296 2.1918 -0.143069 0.0577441 -0.114382 0.0201553 -0.88794 -1.34193 0.00230827 -0.12787 -0.200937 -8.5878e-06 -3.16104e-05 -2.80603e-05 
26.982 1 269 29.7227 4.70772 4.89925 1.91019 1.79637 2.60257 0.0710195 0.0429764 -0.460533 -0.0069152 -0.106648 -0.227462 -0.000781507 -0.0168461 -0.0355763 4.00187e-06 -3.59948e-06 -1.30706e-05 
26.982 1 2229 29.4996 20.1342 4.49933 -3.83297 -0.756588 -7.30662 -0.265776 -0.0736105 -0.031672 -0.22137 0.305663 -1.01673 -0.0363114 0.0379798 -0.139638 -1.81876e-05 2.26381e-05 -2.38757e-05 
26.982 1 2027 27.111 20.2137 2.47204 -2.54235 -6.28097 1.32269 0.0792736 -0.0847892 0.192486 -0.440834 0.194849 -1.62228 -0.0672838 -0.000274338 -0.238984 -1.53224e-05 1.03732e-05 -5.17357e-05 
26.982 1 26 27.2136 2.81423 1.07604 0.382929 -0.952951 -1.36843 0.223089 -0.456462 -0.0482259 -0.118438 -0.58295 -1.42098 -0.00914395 -0.0875285 -0.184162 2.38822e-05 -3.01405e-05 -4.49031e-05 
26.982 1 2035 36.5841 20.3143 2.46461 3.3261 -2.7019 -0.17937 0.0382344 -0.988467 -0.0463191 -0.2522 0.0303373 -2.1106 -0.0397236 -0.00333866 -0.284134 -2.22812e-05 1.5873e-06 -5.50573e-05 
26.982 1 38 41.1983 2.76175 0.73309 0.403174 2.61541 -4.49349 0.11944 -0.177348 0.188725 0.00686647 -0.592861 -1.19294 -0.00179843 -0.0915212 -0.17796 1.12073e-05 -2.78635e-05 -4.9114e-05 
26.982 1 71 31.8879 4.76587 2.89021 0.191599 2.21675 -0.878607 0.0831899 -0.472206 0.0858791 -0.153307 -0.044732 -1.47869 -0.0194431 -0.0175018 -0.228365 -1.35403e-05 -1.00547e-05 -1.32506e-05 
26.982 1 230 31.9596 2.33634 5.0058 -2.06383 0.046549 -7.21707 -0.034915 0.375096 -0.328523 -0.0703482 -0.925559 -0.485758 -0.00670522 -0.130588 -0.0749209 5.00658e-08 -2.36924e-05 -1.60329e-05 
26.982 1 273 34.3007 4.73219 4.81054 0.03178 -7.57964 0.137075 -0.547139 0.207192 -0.254142 -0.00134425 -0.0887502 -0.175099 -0.000434835 -0.0148699 -0.02882 -1.30717e-05 -2.61358e-06 -6.00304e-06 
26.982 1 36 34.0332 2.88114 2.85998 3.53598 0.126117 0.409089 0.236523 -0.184407 -0.121347 -0.107052 -1.01147 -1.26557 -0.0168294 -0.145899 -0.191711 2.06243e-05 -4.59332e-05 -1.66817e-05 
26.982 1 31 31.8485 0.924693 2.65566 -0.728182 1.77894 -4.36022 0.230405 0.313267 0.029879 -0.126011 -1.23061 -1.16881 -0.00355073 -0.151877 -0.171547 -1.31085e-06 -5.31908e-05 -1.87409e-05 
26.982 1 423 22.5878 0.714783 10.4913 2.4041 0.246598 -0.889708 0.16147 0.237265 -0.385538 0.108564 -0.346758 -0.861166 0.00515404 -0.0622108 -0.125826 1.57682e-05 -5.74972e-05 -1.61675e-05 
26.982 1 10 8.65829 2.14253 0.418095 4.87295 2.75841 -0.537792 0.422716 0.666972 0.273034 0.00591147 -0.970652 -1.76395 0.00331946 -0.131833 -0.217271 -7.51285e-06 -2.56892e-05 -2.83676e-05 
26.982 1 75 36.4423 4.64343 2.69656 -0.987957 4.54472 -1.295 0.0568133 -0.0133268 -0.844438 0.124347 -0.0360654 -1.45216 0.000137852 -0.00352821 -0.203866 3.35947e-06 -6.81498e-06 -4.8654e-05 
26.982 1 234 36.5228 2.85928 4.61301 1.10103 4.38798 4.256 0.0469828 -0.690617 0.166678 0.00950071 -0.746218 -0.375737 -0.00319723 -0.113774 -0.0631567 2.0666e-06 -5.26565e-05 -1.94157e-05 
26.982 1 40 38.8649 2.71962 2.59216 -1.02713 0.826167 -0.0596293 -0.271352 -0.384153 0.405097 0.308679 -1.02701 -1.49599 0.0253979 -0.157551 -0.197914 -1.70541e-05 -5.94794e-05 -1.95192e-05 
26.982 1 277 38.7139 4.47485 4.72261 3.3362 -7.76929 2.84699 0.276738 0.475313 -0.192944 0.011561 -0.0931084 -0.209032 0.000984556 -0.0137171 -0.0277987 6.28355e-06 5.56209e-07 -2.90981e-06 
26.982 1 998 41.2611 18.1119 16.3813 -3.81347 2.2534 -1.65968 -0.264813 0.147279 0.0602328 0.196852 0.222601 -0.38657 0.0185392 0.0424509 -0.0559413 -1.08409e-05 1.51263e-05 2.53523e-06 
26.982 1 2827 27.2103 20.3442 18.3657 -2.92298 1.46964 -2.18847 -0.0140572 0.19288 -0.31788 -0.881307 -0.682707 -1.06355 -0.110454 -0.115765 -0.136747 -1.24919e-05 2.84959e-05 -2.3269e-05 
26.982 1 4 -3.32935 2.6615 2.70041 -3.0884 2.04307 2.64267 0.0135397 0.539782 -0.483467 -0.943064 -0.944537 -1.09353 -0.131819 -0.123007 -0.145197 -1.9334e-05 -1.35947e-05 -1.81633e-05 
26.982 1 241 43.4695 4.645 4.61503 -1.64407 -0.892075 -4.77693 -0.100123 0.0979788 -0.0285897 -0.656267 -0.648002 -0.742274 -0.0765975 -0.0746362 -0.0898899 1.81696e-06 -4.21047e-06 -1.07383e-05 
26.982 1 79 41.007 4.53151 2.65612 -1.29871 -1.12159 -0.281236 0.243027 -0.00659316 0.195439 -0.0651738 -0.168487 -1.57445 0.00179282 -0.0117734 -0.212916 1.62304e-05 1.28856e-05 -3.15693e-05 
26.982 1 238 41.1633 2.59575 4.52427 -0.50005 0.923874 0.279974 -0.113108 -0.00543231 0.335451 0.0144132 -0.986995 -0.618385 0.00614721 -0.135325 -0.0827748 1.22873e-06 -4.52143e-05 -1.66057e-05 
26.982 1 995 36.5331 16.2893 18.2404 7.50825 -0.265011 0.527994 0.0341841 0.201723 0.564985 -0.150743 0.00400292 0.140112 -0.0275869 -0.000108685 0.025225 -6.30207e-07 5.53464e-06 8.44739e-06 
26.982 1 83 -0.978747 8.3719 2.73213 -4.47936 -2.16442 2.77738 0.540402 0.0816192 -0.132922 -0.960261 -0.353293 -1.29479 -0.118698 -0.0542918 -0.193682 -2.76344e-05 -1.33189e-05 -4.75054e-05 
26.982 1 242 -0.652751 6.5192 4.83789 1.29444 -6.11806 2.73988 -0.933855 -0.118645 -0.605839 -0.985773 -0.0354477 -0.549221 -0.128376 -0.0104917 -0.0731419 -4.24305e-05 8.06644e-07 -2.22229e-05 
26.982 1 44 43.6557 6.53537 2.6245 -2.23629 1.78593 -0.509625 0.0424806 -0.544393 0.318478 -0.278052 -0.86636 -1.30148 -0.0543481 -0.102614 -0.180644 1.15771e-05 -2.48601e-05 -6.18457e-05 
26.982 1 281 43.6577 8.33881 4.53129 4.41521 1.85177 -0.65531 -0.244927 -0.00338662 0.412626 -0.675115 -0.640048 -0.754153 -0.0930714 -0.086609 -0.104243 -5.61369e-06 -5.5329e-06 -2.29905e-06 
26.982 1 48 1.45335 6.73703 2.95916 -1.70955 -2.59153 -1.17125 -0.00185677 -0.157704 -0.0543365 -0.220603 -0.0805482 -1.22698 -0.0292534 -0.00599499 -0.183526 -6.34402e-06 -5.03121e-06 -5.30722e-05 
26.982 1 285 1.45755 8.84176 4.67723 -2.10581 1.30867 1.63395 -0.337552 0.0590939 0.0620664 -0.0882011 -0.00859849 -0.140798 -0.00985457 -0.00127304 -0.0225741 -6.81018e-06 4.2366e-06 -4.60569e-06 
26.982 1 87 3.75742 8.44729 2.49276 5.0311 -4.56468 -1.24238 0.351796 -0.278154 0.214293 -0.0110894 -0.0144499 -1.09967 -0.00381347 0.00132038 -0.169038 -2.02945e-07 1.28098e-05 -3.78838e-05 
26.982 1 246 3.59736 7.00074 4.80222 -7.63926 4.02981 1.70106 0.461905 -0.222691 0.348427 -0.00261205 -0.00702421 -0.125313 -0.000579908 -0.00102386 -0.0202168 1.36478e-05 -6.65972e-06 2.7383e-06 
26.982 1 88 1.56005 10.168 2.20289 6.37919 0.286311 -3.34481 -0.309314 0.240478 0.725073 -0.229784 -0.0542886 -1.14501 -0.0199224 -0.00499252 -0.172875 -6.49167e-06 1.14855e-05 -5.50966e-05 
26.982 1 235 36.8016 0.820254 6.69086 5.91561 -2.78686 -0.189129 -0.362247 0.0928153 0.345855 -0.0613753 -1.1925 -0.650169 -0.00761281 -0.127933 -0.0940896 -2.09809e-06 -5.50579e-05 -2.15824e-05 
26.982 1 289 6.34419 8.21785 4.59104 -0.585787 -2.98594 -2.08214 -0.202856 0.412734 0.0944244 0.00676414 0.00122252 -0.12718 0.000658571 0.000197948 -0.0196308 -5.51051e-06 1.7969e-06 -2.48091e-06 
26.982 1 52 6.47471 6.53106 2.63601 7.75283 -0.390197 -5.66623 -0.0943054 -0.345724 -0.468129 0.0144306 -0.00483843 -1.1035 0.00412955 -0.0072044 -0.172013 -8.28139e-06 -1.8497e-05 -2.70954e-05 
26.982 1 91 8.7008 8.61926 2.84705 4.23135 0.287923 0.733342 -0.149657 0.0998075 0.199814 0.121738 0.0815763 -1.32795 0.0102772 0.000948568 -0.186934 4.55637e-06 3.05302e-06 -1.49442e-05 
26.982 1 250 8.76128 6.21095 4.38226 0.061189 2.10751 0.0607066 0.139901 0.0361394 -0.131624 0.00727895 0.0021743 -0.124848 0.000715669 -0.000546235 -0.0215433 -6.72106e-07 -1.06426e-07 -5.68026e-06 
26.982 1 92 6.14787 10.7508 3.04937 5.81407 3.76917 0.705449 0.364691 -0.539328 0.191236 0.108039 -0.0194168 -1.14739 0.00674333 -0.00115638 -0.166204 -2.43136e-06 -8.11758e-06 -1.61927e-05 
26.982 1 290 8.67336 10.6402 4.90784 0.699238 -4.04944 -4.07085 0.0559738 -0.502527 0.111026 0.0108158 0.00296455 -0.156758 0.000760757 -7.07414e-05 -0.0218108 -5.66516e-06 -4.98916e-06 -3.44894e-06 
26.982 1 46 4.19012 6.34527 0.78513 1.85951 -1.10035 0.0363882 -0.0730943 0.346282 0.113171 -0.0439601 -0.0145865 -1.77518 -0.0027799 -0.00195246 -0.218315 -9.56458e-06 -1.36911e-05 -5.75896e-05 
26.982 1 293 10.9306 8.57334 4.8328 3.24166 0.0308833 -3.53702 0.159835 -0.365527 -0.430289 0.0023716 0.0117225 -0.165789 0.00045414 0.000938273 -0.0227896 9.01305e-07 -8.98727e-06 -1.54345e-05 
26.982 1 56 11.1344 6.58798 2.71672 4.0569 -4.58732 0.804036 0.231936 0.514807 0.070587 0.0425405 0.132338 -1.27301 -0.00182357 0.00554672 -0.184731 -9.16581e-07 1.89265e-05 -1.98756e-05 
26.982 1 95 13.3581 8.67751 2.52783 1.57774 2.82161 -0.393576 -0.243133 0.244181 0.415206 -0.0292155 0.102866 -1.4718 0.00320773 0.0133866 -0.200391 -7.35425e-08 1.85567e-05 -3.80966e-05 
26.982 1 254 13.5447 6.78806 4.64844 3.72829 1.69706 1.39657 -0.11466 0.0727369 -0.143257 0.00253761 0.000385794 -0.147619 0.000365246 -0.000107835 -0.0218146 -3.35981e-06 4.76995e-06 -8.02596e-06 
26.982 1 54 13.6101 6.5051 0.990827 4.34935 0.662114 2.70237 -0.256555 0.201897 -0.439001 -0.113094 0.252001 -1.54184 -0.0109524 0.0273558 -0.213044 3.97934e-06 2.38578e-05 -6.05412e-05 
26.982 1 2819 18.0704 20.4439 18.3282 2.72577 7.41364 1.92842 0.0242196 0.242378 0.587603 -0.653078 -0.174248 -1.10058 -0.0848812 -0.0081133 -0.143012 -5.28279e-07 3.29731e-05 -1.73567e-05 
26.982 1 60 15.9734 7.06288 2.9001 5.1516 -0.720189 3.27497 -0.365315 -0.656269 0.0079278 -0.0136651 0.0707487 -1.30057 0.0037799 0.00821408 -0.191625 -2.54611e-06 5.38533e-06 -3.70192e-05 
26.982 1 297 15.7475 8.81677 4.92428 1.1289 -2.13419 1.92539 -0.199066 0.170011 -0.354812 0.0020891 0.0117176 -0.172824 0.000765789 0.00142571 -0.0258614 -3.51976e-06 1.68117e-06 -1.15129e-05 
26.982 1 99 18.0696 8.78553 2.59054 0.863481 2.63038 0.759714 -0.18066 0.267885 0.230277 -0.0783116 0.118333 -1.36349 -0.0121822 0.0115921 -0.200419 -8.24354e-06 7.57133e-06 -5.96798e-05 
26.982 1 100 15.5897 10.6311 2.71989 0.563402 -1.29088 4.18365 -0.0485386 -0.246814 -0.281727 0.0134475 0.0471337 -1.56061 0.00419826 -0.00172418 -0.214518 -1.25053e-06 -1.92945e-06 -5.79105e-05 
26.982 1 215 13.2908 0.577415 6.67142 -1.78133 -0.695916 3.22757 -0.00641974 0.461071 -0.236659 0.23479 -0.597437 -0.561829 0.0226952 -0.0445271 -0.095017 -4.5209e-06 -5.27744e-05 -7.59269e-06 
26.982 1 613 10.89 0.756814 12.3933 0.28897 -1.44061 -1.92181 -0.0205923 0.24122 -0.191517 -0.103898 -1.2174 -0.991465 -0.00774182 -0.157117 -0.123548 9.17164e-06 -3.46352e-05 -3.50239e-05 
26.982 1 258 18.2825 6.95198 4.66398 -1.88047 3.34273 2.50583 -0.765649 0.14907 0.496082 0.00271156 0.00338113 -0.146132 0.000526273 -6.08786e-05 -0.0232997 -1.4843e-05 2.26933e-06 3.57002e-06 
26.982 1 64 20.3155 7.08518 2.56331 4.49929 -1.92582 -1.56042 -0.0107315 -0.755886 -0.347422 0.0823229 -0.093277 -1.32922 0.00717877 -0.0222995 -0.200324 2.31272e-06 -2.59754e-06 -5.40811e-05 
26.982 1 301 20.3866 8.5668 4.716 1.20174 4.49391 -4.07699 0.214035 0.854652 0.213507 0.00104152 0.00573092 -0.153744 -0.000586316 0.000374891 -0.0225298 3.16588e-06 1.1805e-05 -1.3402e-07 
26.982 1 103 22.6275 8.66244 2.54683 5.10491 5.0827 -0.375307 -0.0593816 0.702289 0.662713 0.0573167 0.0379569 -1.4317 0.00670469 -0.00811183 -0.191203 3.35956e-06 -8.89954e-06 -3.9372e-05 
26.982 1 262 22.6085 6.7918 4.69664 1.45076 3.33992 -1.57867 0.318152 0.194508 0.158182 0.00387338 -0.00881879 -0.173705 0.000274697 -0.00253693 -0.0264307 7.07536e-06 -2.14523e-07 -2.334e-06 
26.982 1 305 24.9702 8.91427 4.64421 3.1467 -1.59219 0.224183 -0.315429 -0.530769 -0.0858121 0.00389349 -0.000669379 -0.174241 0.00127789 -0.00073456 -0.0250806 -4.64898e-06 -1.30724e-05 -5.83793e-06 
26.982 1 68 24.806 6.84111 2.66802 -0.954805 -3.6578 4.42319 0.338417 -0.14218 0.677253 0.0700763 -0.0884687 -1.5629 0.00837077 -0.0190352 -0.223445 -3.8014e-06 1.40311e-05 -2.73159e-05 
26.982 1 302 22.5192 10.4684 4.7431 -1.54514 -0.640236 -1.24354 0.103668 0.00868858 -0.221285 -0.00228382 0.00174944 -0.180885 -0.000808582 0.00031665 -0.022702 1.63393e-06 -6.25771e-07 -7.03474e-06 
26.982 1 70 31.9379 6.56166 0.815049 -0.0371799 -2.90376 2.77947 0.0854483 0.233133 -0.0544398 -0.248915 0.196705 -1.25883 -0.0217522 0.00778111 -0.161913 -1.14025e-05 2.07169e-06 -5.56005e-05 
26.982 1 107 27.124 8.61332 2.82452 -0.0344131 -0.843816 -4.69482 -0.0155683 -0.494565 -0.0151045 0.168158 -0.140949 -1.61421 0.0187986 -0.0101333 -0.229724 -1.069e-05 6.01763e-06 -3.35417e-05 
26.982 1 266 27.5066 6.41232 4.82802 9.01809 4.01384 4.16422 -0.261194 0.586156 0.375285 0.00386933 -0.000314595 -0.208747 0.000384212 -0.00095356 -0.0302883 -8.24284e-06 9.93972e-06 2.41445e-07 
26.982 1 72 29.4741 6.88984 2.63446 -1.08844 1.11999 -1.93556 0.209733 -0.476944 0.540661 -0.0721597 0.0190206 -1.80835 -0.00786696 -0.00981428 -0.254894 8.47597e-06 -2.18254e-05 -1.6056e-05 
26.982 1 309 29.4884 8.49418 4.87792 -1.47983 2.78683 7.07849 0.492412 -0.214931 0.0233924 -0.00539428 -0.00625964 -0.213101 -0.000874228 -0.000621197 -0.0300598 1.11344e-05 -4.94891e-06 9.68607e-07 
26.982 1 111 31.8054 8.69603 2.75025 -2.83418 -4.6089 1.38037 0.187322 -0.329787 -0.194387 -0.134358 -0.184776 -1.47756 -0.0149487 -0.0185642 -0.209071 4.07242e-06 7.94524e-06 -2.61759e-05 
26.982 1 270 31.9412 6.66614 4.68925 1.76122 -5.36877 0.583689 -0.0309212 0.281051 0.519837 -0.00792179 0.00274612 -0.192278 -0.00109954 -0.000440265 -0.0285823 -2.4936e-06 4.65729e-06 4.00683e-06 
26.982 1 76 34.2263 6.6424 2.72691 5.52901 0.726969 -2.17088 -0.347322 -0.23322 0.0507201 -0.0057687 0.037679 -1.44724 0.000239345 -0.00459491 -0.213443 6.9178e-06 -9.18207e-07 -2.29474e-05 
26.982 1 313 34.1894 8.60025 4.65811 -2.97642 -2.65429 2.62525 0.0921669 -0.246604 -0.00356506 -0.00370868 -0.00275007 -0.161823 -0.000368931 -0.00051084 -0.024083 2.38599e-06 -3.03756e-06 -3.83748e-06 
26.982 1 310 31.8809 10.6445 4.64738 -0.348264 0.481789 -3.40862 -0.0365901 -0.456857 0.154508 -0.00439195 -0.00209299 -0.141704 -0.000943589 -0.000288127 -0.0226667 -2.34936e-06 -9.58239e-06 -3.7733e-06 
26.982 1 603 -0.759564 0.829493 14.7978 -3.87531 -5.89695 3.30103 -0.000891668 -0.0455205 -0.206037 -1.10389 -1.35953 -0.337451 -0.135124 -0.173687 -0.0704453 -6.0408e-06 -4.54909e-05 -1.88437e-05 
26.982 1 116 34.0458 10.6285 2.78813 -0.829655 -3.78397 -3.93366 0.27943 0.0104537 -0.015428 0.0902348 0.0469759 -1.33569 0.00442217 -0.00185348 -0.182772 9.08963e-06 1.49905e-05 -4.39039e-05 
26.982 1 2627 27.2114 20.1913 14.3606 -1.41152 4.0957 -0.878456 0.106093 -0.287871 -0.122315 -0.628794 0.360851 -1.06892 -0.0837921 0.0481244 -0.149515 -1.12795e-05 2.51243e-05 -2.62952e-05 
26.982 1 2625 24.9292 20.3785 12.4152 -5.27685 4.37512 0.357692 -0.0740053 -0.396247 0.0342265 -0.472993 0.30779 -1.03849 -0.069481 0.023389 -0.140147 -4.64486e-06 5.7189e-06 -1.97024e-05 
26.982 1 115 36.5633 8.63955 2.70966 -1.40047 -1.80422 8.53349 0.155006 -0.255396 0.692984 -0.197322 -0.0654139 -1.24675 -0.0177745 -0.0149864 -0.183552 1.50684e-05 2.84402e-06 -4.32592e-05 
26.982 1 274 36.3641 6.50066 4.5626 -3.36109 2.05655 1.08151 0.368397 0.571817 0.464921 0.00222755 -0.00970416 -0.163402 -5.5285e-06 -0.00106127 -0.0253363 9.07268e-06 1.3024e-05 -3.04316e-06 
26.982 1 80 38.9024 6.61021 2.94948 1.56795 -0.980876 2.22041 -0.352996 0.215975 -0.243805 0.0287961 -0.316001 -1.32806 0.00531609 -0.0233762 -0.190765 -3.13359e-06 2.11544e-05 -3.87811e-05 
26.982 1 317 38.9455 8.80371 4.75785 0.789091 -0.713981 -3.19758 -0.0617732 -0.177594 -0.255034 0.00510921 -0.00656164 -0.116363 0.000340279 -0.00088419 -0.0190695 3.76379e-08 -7.02899e-06 -1.1135e-05 
26.982 1 120 38.9266 10.6325 2.70461 -1.53535 -1.79292 -0.701642 -0.14513 -0.507791 -0.536569 0.126016 0.235344 -1.28033 0.00864494 0.021011 -0.178151 -5.71789e-06 -2.48844e-05 -5.13354e-05 
26.982 1 314 36.6946 10.6189 4.71731 -4.30034 -1.76297 1.59627 -0.418368 -0.077557 -0.213432 -0.00272959 0.00602408 -0.15154 -0.000126638 0.000389746 -0.0216759 -8.16938e-06 -4.89954e-06 -1.44656e-05 
26.982 1 2423 22.4835 20.2797 10.4325 4.41563 -2.49579 -0.500601 0.247635 -0.230397 0.0984295 -0.325092 0.230976 -1.10751 -0.0502866 0.00390321 -0.153546 -1.82262e-05 2.43762e-05 -1.2033e-05 
26.982 1 2237 38.8642 20.2064 4.39722 -3.0054 -0.103027 0.531269 -0.120578 -0.0418957 -0.0632478 -0.451155 -0.057666 -1.22158 -0.0542933 0.00292928 -0.161186 -3.71745e-06 2.44437e-06 -1.05998e-05 
26.982 1 119 41.4727 8.69339 2.62163 -0.463675 1.07324 3.218 -0.496526 -0.281492 -0.423116 0.258813 0.00416254 -1.36265 0.0280166 -0.0160746 -0.195116 -1.03958e-05 -7.73752e-06 -6.22463e-05 
26.982 1 278 41.29 6.51309 4.30842 1.50129 0.381398 -0.831449 0.0535318 0.336572 0.798479 0.332657 -0.32529 -0.204564 0.0406302 -0.0386815 -0.0306662 -2.23253e-06 3.12301e-06 2.12309e-06 
26.982 1 318 41.247 10.5606 4.41881 -0.138017 3.09183 -1.7273 -0.0701106 -0.00310206 0.568545 0.352461 -0.303958 -0.211405 0.0478339 -0.0425385 -0.0277744 -3.84718e-06 -5.90796e-06 -1.07489e-06 
26.982 1 2619 18.0188 20.293 14.5769 1.02498 -2.22031 -4.95143 -0.00493862 -0.53455 -0.353227 -0.453184 -0.177156 -1.12599 -0.056771 -0.0268569 -0.155222 -4.98861e-06 1.79169e-05 -4.00569e-05 
26.982 1 433 34.4805 0.641653 8.81656 -5.42673 0.524454 3.04043 0.0450157 0.393386 -0.17948 -0.0822604 -0.890957 -0.630997 -0.00645239 -0.0994446 -0.0769567 -1.00922e-05 -3.58273e-05 -3.69643e-05 
26.982 1 282 -1.03172 10.3432 4.59271 -6.18844 1.56333 -6.71298 0.273928 0.569924 -0.132884 -0.851225 -1.44383e-05 -0.398281 -0.105726 -0.00314803 -0.0551992 -3.88064e-06 -6.1918e-06 -1.11793e-05 
26.982 1 123 -0.827043 12.3254 2.65277 0.553084 1.11102 -1.72346 0.271465 0.101321 0.184972 -0.95825 -0.252907 -1.29584 -0.111605 -0.0268555 -0.188877 1.88155e-05 1.50379e-07 -4.68231e-05 
26.982 1 322 -0.843359 14.2068 4.66162 -3.69624 2.41238 -3.77985 -0.508289 0.0826921 -0.785329 -0.599596 -0.217671 -0.327012 -0.0792014 -0.0208047 -0.0489232 -1.58945e-05 1.74473e-06 -2.80913e-05 
26.982 1 84 -3.10313 10.5848 2.76487 -5.37568 -2.55427 2.94338 -0.226961 -0.201475 -0.463253 -1.12997 -0.363705 -1.52402 -0.144304 -0.0583624 -0.201885 -4.11615e-05 -3.82406e-05 -2.94753e-05 
26.982 1 321 -3.28361 12.4456 4.6344 1.25782 -1.09129 1.07994 0.195911 0.363451 0.216025 -0.603514 -0.47292 -0.597109 -0.0921836 -0.0725216 -0.0903911 -2.23587e-05 -7.52539e-06 -1.43143e-05 
26.982 1 124 43.6343 14.2052 2.68986 6.49307 1.40245 0.183181 -0.143248 0.476468 0.138519 -1.41329 -0.519893 -1.29995 -0.16721 -0.074298 -0.179256 1.31507e-05 -2.39356e-05 -3.84946e-05 
26.982 1 286 3.9424 10.1076 4.72395 5.49421 -1.72819 -3.43333 0.0468486 -0.218053 -0.322862 -0.00277614 0.00292449 -0.11144 -0.000253289 0.000186511 -0.01963 7.93268e-07 -2.47691e-07 -1.06547e-05 
26.982 1 325 1.48671 11.9011 4.6561 -0.0474645 -1.28177 1.56597 -0.0626795 -0.0621837 -0.454342 -0.0812665 -0.00833215 -0.126169 -0.00874318 -0.000948605 -0.0208373 -1.45898e-06 9.58219e-07 -1.86166e-05 
26.982 1 128 1.62972 14.3106 2.71916 0.751969 -0.464133 -1.34701 -0.306601 -0.208838 0.389817 -0.170834 0.124002 -1.16904 -0.0232163 0.0115517 -0.175868 -7.80299e-06 -2.21447e-05 -3.53314e-05 
26.982 1 127 3.85238 12.4055 2.81514 -4.82317 0.0423537 2.4922 -0.0851319 0.717117 0.701876 0.0183476 -0.0119404 -0.997514 -0.000425053 -0.0069074 -0.15646 -1.22094e-05 -1.72363e-06 -4.18525e-05 
26.982 1 326 3.63752 14.4455 4.84011 2.83175 4.1607 0.472962 0.421594 0.144646 -0.214438 -0.00269507 -0.000185993 -0.107081 -0.000208106 -0.000330753 -0.0171057 7.59503e-06 2.10038e-06 -2.92663e-06 
26.982 1 121 -3.09272 12.4398 0.654434 -1.65954 4.90442 4.5629 -0.048064 -0.112021 0.118127 -0.313795 -0.221537 -0.619079 -0.0469386 -0.0355045 -0.117337 -1.22593e-05 -3.44967e-06 -5.09407e-05 
26.982 1 329 6.19798 12.727 4.93974 2.541 2.20682 2.37252 0.153703 0.192152 0.141702 0.00253072 -0.00119506 -0.120613 -0.000282435 -0.000196566 -0.0187 1.03326e-06 4.60923e-06 -1.52769e-06 
26.982 1 132 6.15914 14.3725 2.80328 3.09442 -2.86828 0.201333 -0.140771 -0.360427 -0.138379 0.100864 -0.012138 -1.09069 0.0133363 -0.00518261 -0.157355 1.74432e-06 -8.88681e-06 -3.32302e-05 
26.982 1 131 8.76691 12.2097 2.8596 1.68916 -4.85385 0.793316 -0.410256 0.500939 -0.118324 0.108294 -0.0131078 -1.30907 0.0070989 0.00220105 -0.183063 -1.57083e-05 1.95722e-05 -2.17361e-05 
26.982 1 330 8.4741 14.5178 4.59037 -0.32228 -0.491616 -0.958047 -0.0316384 -0.618016 0.073769 0.00710581 0.000830801 -0.14511 0.00045649 4.69437e-05 -0.0215632 -4.08227e-06 -1.08112e-05 -6.62255e-06 
26.982 1 129 6.25605 12.1953 0.781068 4.12886 2.7469 0.783938 0.362986 0.625534 0.6335 0.111563 0.0585995 -1.80683 0.0102838 0.0056123 -0.235376 -1.10812e-05 1.41002e-05 -5.43687e-05 
26.982 1 133 10.8413 12.4592 1.00068 -0.641231 -3.06624 -0.544488 0.109354 -0.232869 -0.426379 0.0674289 -0.0551519 -1.33156 0.00578213 -0.00249854 -0.203434 5.05496e-06 -1.44032e-06 -6.32679e-05 
26.982 1 294 13.1963 10.6005 4.74105 -0.568354 -0.67937 1.79572 0.28872 -0.713108 -0.665636 0.0013993 0.00795975 -0.18166 0.000306988 0.000216134 -0.0250795 7.82369e-06 -1.34796e-05 -1.97389e-05 
26.982 1 96 11.0143 10.4394 2.87296 -0.534826 3.70787 3.42269 0.0945316 0.250328 0.036322 0.0495692 -0.0402452 -1.48888 0.00674794 -0.00619523 -0.193861 1.25837e-05 -1.4171e-05 -3.61818e-05 
26.982 1 333 10.9608 12.4932 4.84474 1.3644 -0.911545 1.0346 -0.343316 -0.0725039 -0.873047 0.00418866 -0.00548937 -0.163538 0.00028526 -0.0010545 -0.0218263 -9.44002e-06 -9.15502e-07 -1.48523e-05 
26.982 1 136 10.7165 14.4418 2.76233 1.07021 -0.4236 -1.74472 0.19609 -0.117415 0.255081 -0.0424511 -0.000100188 -1.35317 -0.00739699 0.00508284 -0.184642 -8.11075e-06 1.59847e-05 -3.71704e-05 
26.982 1 135 13.1868 12.6669 2.92009 3.39768 1.40567 -1.04027 -0.135875 -0.295877 -0.0711743 0.0539627 -0.128972 -1.43928 0.0071188 -0.0164744 -0.192083 1.06189e-05 -1.70961e-05 -3.4675e-05 
26.982 1 334 12.8056 14.5878 4.81751 4.88801 1.16063 1.11153 0.721594 0.433217 -0.680438 0.00152895 -0.00410961 -0.15069 0.000780865 -0.000163364 -0.0218988 1.35826e-05 8.46577e-06 -1.26815e-05 
26.982 1 140 15.3865 14.3256 2.89605 3.29248 5.27002 2.82227 0.237638 0.303171 0.00922638 0.129559 -0.141954 -1.38581 0.011433 -0.00639398 -0.190863 1.33762e-05 -1.55261e-05 -3.54539e-05 
26.982 1 337 15.5647 12.3092 4.79793 1.4549 -5.0517 -1.15645 0.0754652 0.0332024 -0.220804 0.00324294 -0.00237124 -0.186202 0.000521276 -0.000827265 -0.0251364 1.07128e-06 9.2046e-07 -1.36716e-05 
26.982 1 139 17.9559 12.3283 2.9493 1.94612 0.921453 -3.91946 -0.448359 0.687372 -0.119702 -0.021842 -0.0104924 -1.61262 -0.00130341 -0.00981031 -0.212792 -9.54174e-06 9.27699e-06 -6.00441e-05 
26.982 1 338 17.7049 14.6678 4.64787 -0.63296 1.87128 -1.59917 0.256686 -0.320051 -0.397655 -0.00529295 -0.0127112 -0.175362 -0.000482292 -0.00117462 -0.0236105 8.08764e-06 -3.04754e-06 -1.12415e-05 
26.982 1 409 6.29465 0.897254 8.47017 -2.18801 4.57681 2.30238 -0.116931 0.32061 -0.139052 -0.0712709 -0.588807 -0.548351 -0.00573927 -0.0757826 -0.0753029 -3.22914e-06 -3.50842e-05 -3.57122e-05 
26.982 1 298 18.0501 10.4307 4.86513 3.28155 6.21897 -2.27355 -0.184071 -0.245365 -0.463696 -0.00375614 0.00178033 -0.187326 -0.0010463 -0.000545663 -0.027084 -7.31194e-06 -6.73024e-06 -1.19793e-05 
26.982 1 104 20.2338 10.5406 2.74264 -0.369891 -0.567462 7.12921 0.340839 -0.20453 -0.121805 0.0103553 0.129531 -1.48901 -0.00864026 0.0129691 -0.196854 -2.12519e-06 2.56576e-06 -5.3908e-05 