ITEM: TIMESTEP
16500
ITEM: NUMBER OF ATOMS
4000
ITEM: BOX BOUNDS pp pp pp
-3.42769 43.9277
0.882811 39.6172
1.08385 39.4161
ITEM: ATOMS mass type id x y z vx vy vz fx fy fz xrad yrad zrad vxrad vyrad vzrad fxrad fyrad fzrad 
26.982 1 43 -1.6233 6.09056 3.16509 -3.21226 1.13962 1.27393 0.0211737 0.0294349 -1.00657 -1.02336 -0.486947 -1.57137 -0.121977 -0.0357141 -0.199135 -3.43561e-05 6.77588e-06 -4.17228e-05 
26.982 1 202 -1.3513 3.4126 4.6996 -2.12613 -0.947446 1.41003 -0.207972 0.579884 -0.588782 -0.961369 -0.886185 -0.884045 -0.112766 -0.103026 -0.108466 -1.44913e-05 7.81569e-06 -2.8631e-05 
26.982 1 235 36.1857 1.00266 7.14149 5.42946 -4.49945 -5.6662 0.41727 0.0992405 -0.275446 -0.0712503 -1.38096 -0.797376 -0.00563826 -0.125452 -0.0997226 -1.16214e-05 -6.18035e-05 -7.20144e-06 
26.982 1 205 0.804708 1.56964 4.57863 1.78954 2.03895 0.707556 0.091252 0.105248 -0.384403 0.0702997 -1.2401 -1.04109 0.00656433 -0.159538 -0.130407 1.08113e-05 -2.87051e-05 -4.07535e-05 
26.982 1 2 -1.64031 3.37465 1.80924 -2.42663 -7.07187 -2.64772 0.267738 -0.348396 0.0492039 -0.647509 -1.00656 -1.82224 -0.0810884 -0.116599 -0.220432 -1.596e-05 -6.14947e-06 -4.27868e-05 
26.982 1 245 2.31695 3.96684 4.90257 -1.01706 1.50976 2.34195 -0.655793 0.123171 -0.651757 -0.0751763 -0.157338 -0.227645 -0.0103102 -0.015883 -0.030062 -1.39869e-05 5.42477e-06 -1.84782e-05 
26.982 1 8 1.42623 3.43807 2.33581 -0.418214 -3.80768 -3.71775 0.0735315 -0.722817 -0.0771774 0.260888 -1.48878 -1.59215 0.0203778 -0.157326 -0.202584 -8.73298e-06 -1.17345e-05 -4.64189e-05 
26.982 1 47 4.54665 4.66559 3.46752 6.10477 -1.00976 0.568127 -0.210302 0.257646 -0.566985 -0.0751076 -0.367653 -1.56768 -0.00243609 -0.0392873 -0.203741 -7.76213e-06 5.45818e-06 -3.71527e-05 
26.982 1 206 4.2999 2.06776 4.11816 2.64059 -2.76371 1.6063 -0.4639 -0.468843 0.113937 -0.0403567 -1.37019 -0.824179 0.00709672 -0.160414 -0.0960756 -4.37721e-06 -5.29641e-05 -2.54953e-05 
26.982 1 249 6.75611 5.04851 5.22036 2.73542 1.25116 4.22306 0.389988 -0.0845427 -0.571489 -0.00951681 -0.153133 -0.189123 0.000152291 -0.0203488 -0.0258503 1.12142e-05 -8.51898e-06 -1.11548e-05 
26.982 1 12 6.61986 2.80372 3.14371 8.22064 2.30719 5.64451 0.281156 0.119739 -0.0803831 -0.252499 -1.74971 -1.40394 -0.0165805 -0.202621 -0.185861 1.31716e-05 -3.40536e-05 -3.79309e-05 
26.982 1 51 8.94044 4.10502 2.40672 -1.94482 -1.41434 3.05555 0.739416 0.280634 -0.108708 0.0111286 -0.144104 -1.32709 -0.00126574 -0.0254629 -0.192382 -5.7356e-06 -1.68188e-05 -4.59574e-05 
26.982 1 210 9.28485 2.16381 4.30094 4.18447 1.05229 -0.362354 -0.197823 0.452852 0.486357 0.0864579 -1.3218 -0.709419 0.00620934 -0.162615 -0.0904877 -7.77726e-06 -3.35271e-05 -1.28236e-05 
26.982 1 212 6.89469 2.21669 6.01176 2.06078 -0.503226 0.0753658 0.135758 0.109983 0.276883 -0.0331888 -1.74794 0.133655 0.00343623 -0.227763 0.00903102 1.01424e-05 -5.26658e-05 3.83079e-06 
26.982 1 253 11.1245 4.49365 4.28124 4.04823 1.04472 0.111782 0.107872 -0.238947 0.119428 0.00557246 -0.179001 -0.194567 -0.00218246 -0.0229869 -0.0285085 8.90007e-07 -4.05083e-06 1.5524e-07 
26.982 1 16 11.3048 2.41226 2.53072 6.41426 -1.1984 1.84641 -0.109364 0.269636 -0.273122 0.205136 -1.77563 -1.34698 0.0019228 -0.211329 -0.170432 -7.69147e-06 -4.81399e-05 -4.49743e-05 
26.982 1 214 13.3222 2.32528 4.29476 5.29559 -2.15782 1.69823 0.442371 -0.072484 0.469631 0.0592719 -1.44777 -0.73911 -7.78874e-05 -0.171519 -0.0871276 4.86235e-06 -4.58518e-05 -7.57265e-06 
26.982 1 19 18.542 1.13542 3.1341 3.76682 0.809894 -1.39717 -0.29152 -0.579363 0.249036 0.04182 -1.3449 -1.1681 0.00341272 -0.142302 -0.160105 -1.2397e-05 -6.13208e-05 3.69304e-06 
26.982 1 55 14.0035 4.98645 3.42478 2.1685 -2.73351 5.32804 0.0945903 0.0803744 -0.441536 0.031564 -0.324113 -1.58724 0.00034373 -0.0250246 -0.186373 -5.17091e-07 8.59115e-06 -2.66602e-05 
26.982 1 20 16.136 2.69892 3.22089 -2.07914 1.57882 -1.76453 0.266014 0.593954 0.79867 -0.291749 -1.75061 -1.33796 -0.0112807 -0.197216 -0.161976 -5.79041e-06 -2.29697e-05 1.28026e-05 
26.982 1 257 16.2261 5.09846 5.22414 -0.685903 1.05407 2.75601 0.421921 -0.394163 -0.240007 -0.005079 -0.185153 -0.202797 -0.00115504 -0.0207798 -0.0254494 2.81767e-06 -8.1261e-06 -6.06858e-06 
26.982 1 57 16.107 4.96252 1.4702 4.4469 2.36028 2.15414 0.0288364 0.231055 0.0606724 -0.0955481 -0.212804 -1.90605 0.00325313 -0.018647 -0.218388 -1.6614e-05 1.69185e-05 -5.98279e-05 
26.982 1 14 13.9834 2.89907 1.67357 1.2441 4.87712 -5.56155 0.0671118 0.576315 -0.482676 0.074386 -1.07218 -1.48387 0.000278044 -0.125397 -0.210744 -1.33193e-05 -2.23541e-05 -5.94995e-05 
26.982 1 819 18.1175 0.954226 18.4606 -3.08742 1.02786 -3.10866 0.145209 -0.435001 -0.367324 -0.281302 -0.817442 -0.839737 -0.0337674 -0.14563 -0.0715907 -2.41299e-06 -6.62607e-05 2.73787e-06 
26.982 1 218 18.5007 3.30375 5.12601 -2.48818 -1.97274 -4.24254 -0.181321 -0.799986 -0.0781947 -0.0788007 -1.39018 -0.63128 -0.00636936 -0.161521 -0.0824334 -1.07786e-05 -1.97703e-05 1.376e-06 
26.982 1 59 18.3576 4.87134 3.02575 -1.74506 -4.54346 6.3928 0.319664 0.303221 0.566148 0.0724165 -0.0667092 -1.45276 0.0121965 -0.0126184 -0.198332 -1.59209e-06 2.66931e-06 -5.87385e-06 
26.982 1 24 20.6075 2.84357 2.9643 4.83578 2.48912 0.726181 0.456823 -0.12239 0.221036 0.113531 -1.46142 -1.2806 0.0037722 -0.168537 -0.182344 3.08447e-05 -2.06712e-05 -1.61325e-05 
26.982 1 261 20.8964 4.84589 4.68273 -2.62406 0.190024 2.69402 -0.490196 -0.276152 0.541929 0.0112892 -0.15731 -0.225773 0.000393843 -0.0189284 -0.0312891 -8.05735e-06 -6.73487e-06 1.01402e-07 
26.982 1 1198 41.1363 18.021 19.9103 -1.60979 1.84758 1.54244 0.0756932 -0.381818 -0.184939 -0.345066 -0.668958 -1.11698 -0.0455374 -0.0607643 -0.102926 -1.11371e-05 -7.11021e-06 1.0512e-05 
26.982 1 18 18.4067 3.00609 1.25637 1.75006 -2.1863 0.213845 0.0485804 0.099296 -0.473003 -0.0564158 -0.971534 -2.13241 -0.00036495 -0.109963 -0.227683 -1.14836e-06 -3.33093e-06 -7.02592e-05 
26.982 1 63 23.0655 4.90776 2.88647 -1.18679 -0.838615 -7.64103 -0.420969 -0.952601 0.090662 0.0553763 -0.067051 -1.7539 0.0030373 -0.0124257 -0.228445 1.04688e-05 -1.1585e-05 -5.94435e-05 
26.982 1 222 22.8434 2.6476 4.93062 -6.56813 -3.39316 -0.913876 -0.303824 0.231739 0.166729 -0.0293401 -1.28509 -0.678068 0.000221096 -0.149986 -0.0813443 6.26765e-06 -3.73947e-05 -2.33087e-05 
26.982 1 28 24.7187 2.67748 2.93647 -1.52843 -3.5752 1.56663 0.686484 0.0363005 -0.377405 -0.0870742 -1.24133 -1.50971 -0.00194655 -0.158038 -0.190784 -7.33338e-06 -3.76529e-05 -4.94066e-05 
26.982 1 265 25.0878 4.42855 4.91655 5.76487 -6.46679 -3.33802 -0.354118 0.304353 0.371094 -0.000738039 -0.144176 -0.254791 0.000474095 -0.019383 -0.0332081 -5.55756e-06 -5.67576e-06 -2.92516e-06 
26.982 1 1161 43.4054 16.0513 19.556 0.836102 0.291856 -0.967864 0.174038 -0.209021 -0.203944 -1.04469 -0.873952 -0.689603 -0.100023 -0.098281 -0.0869036 1.74684e-05 -9.35494e-06 -2.29479e-05 
26.982 1 34 36.4204 2.99753 1.24688 -2.4957 2.53637 -1.74076 -0.0963106 -0.400028 -0.241589 0.0668135 -0.764198 -1.89521 -0.00716405 -0.113996 -0.226935 1.79539e-06 -4.02123e-06 -6.34305e-05 
26.982 1 67 27.3545 4.37886 3.21477 -0.292801 0.404436 -0.459437 -0.239649 -0.159887 -0.725115 0.0880591 -0.00978404 -2.02862 0.00986731 -0.00657567 -0.248089 -6.93713e-06 -1.17639e-05 -5.30212e-05 
26.982 1 226 27.1311 2.4808 5.12131 -1.16481 1.36278 -4.00776 -0.0213194 -0.426506 -0.46807 0.00892264 -1.11344 -0.539466 -0.00149139 -0.148781 -0.0794561 -1.27475e-05 -3.39525e-05 -1.53972e-05 
26.982 1 32 29.8252 2.86666 2.80154 -2.3114 0.0660036 1.99473 -0.71414 0.0426611 -0.126747 0.0255411 -1.09191 -1.65059 0.00400254 -0.143858 -0.208985 -1.54434e-05 -1.95014e-05 -5.27787e-05 
26.982 1 269 29.4364 4.39812 4.96351 -0.166085 -1.16907 -4.94936 0.166532 0.118308 0.774379 -0.00824397 -0.133419 -0.281927 -0.00091554 -0.0189831 -0.0368308 5.23796e-06 1.3918e-06 5.83079e-06 
26.982 1 2427 27.5386 20.0468 10.8624 -2.75661 -3.64063 2.81081 0.384832 0.103164 -0.319813 -0.387581 0.206076 -1.25668 -0.0563968 0.0236726 -0.15627 -2.59057e-06 2.88501e-05 -2.39241e-05 
26.982 1 71 31.9598 4.83729 3.04083 1.73131 0.645524 -2.48339 -0.382296 0.353773 -0.320611 -0.181999 -0.074576 -1.82913 -0.0192825 -0.0216845 -0.235619 -1.64657e-05 1.46205e-05 -3.78281e-05 
26.982 1 230 31.7238 2.88455 4.92729 -1.16286 -4.52615 -3.79521 0.439136 -0.584115 0.144125 -0.0795402 -1.13246 -0.603499 -0.00616509 -0.145272 -0.0818811 1.70164e-05 -3.74818e-05 -5.36871e-06 
26.982 1 273 33.837 4.75466 4.92234 3.94473 -3.81697 -1.69227 0.728598 0.0779343 0.349985 -0.00190457 -0.113106 -0.218965 0.000292593 -0.0168831 -0.0286868 1.31068e-05 -2.23453e-06 6.1249e-06 
26.982 1 36 34.1949 2.79383 3.15533 -1.63701 0.235435 2.78357 0.0771296 -0.234841 0.373136 -0.132225 -1.24485 -1.55973 -0.0185803 -0.163258 -0.197506 -1.09536e-05 -3.51086e-05 9.33014e-06 
26.982 1 833 33.5665 1.37135 15.9631 -0.0588553 -4.03685 -3.73007 -0.605506 -0.34134 0.340152 0.070452 -1.43897 -0.985879 0.010313 -0.160666 -0.117161 -1.25337e-05 -6.5152e-05 -1.38038e-05 
26.982 1 2823 23.4504 20.0793 18.3874 5.05364 3.15035 -1.90795 -0.430643 -0.673159 -0.303884 -0.57838 -0.259623 -1.09683 -0.0874051 -0.0199124 -0.124059 -1.97797e-05 3.33697e-05 -1.28569e-05 
26.982 1 75 36.272 4.99816 3.07425 -2.22754 2.98924 -2.90257 -0.166155 0.192304 0.271204 0.124606 -0.0451016 -1.76453 0.000737134 -0.00693994 -0.207981 -3.21478e-07 1.77916e-05 -1.77854e-05 
26.982 1 234 36.2387 2.96243 4.98947 5.08701 0.706467 -0.856596 0.0592426 0.0511435 0.267429 0.0033724 -0.929738 -0.475431 -0.00502558 -0.126652 -0.0658611 -3.24703e-06 -1.2175e-05 4.53295e-06 
26.982 1 40 38.5691 3.16006 3.04982 -2.5455 -2.70015 -3.429 -0.0953215 0.495652 0.318923 0.345139 -1.27539 -1.79824 0.0231692 -0.166152 -0.200871 1.56833e-06 1.84913e-06 -2.58062e-07 
26.982 1 277 38.8906 4.08242 5.8754 -0.641307 1.45861 5.11973 -0.0791715 -0.202233 -0.160135 0.0128719 -0.115444 -0.251233 0.000529868 -0.0153458 -0.0271833 -1.43478e-06 -6.56042e-06 -3.0038e-06 
26.982 1 182 23.0362 18.496 1.08303 1.23283 -0.360255 -3.78965 -0.0353662 -0.534504 0.071255 0.0204184 0.425828 -1.29497 0.00414078 0.0586153 -0.170165 -5.29046e-06 1.77149e-05 -6.0677e-05 
26.982 1 35 36.4174 0.912688 3.13062 0.115217 -1.80685 -1.95762 0.201024 -0.210108 0.194837 0.0673129 -2.11147 -1.54384 0.00294395 -0.217777 -0.191538 -8.47395e-06 -5.36732e-05 -4.69303e-06 
26.982 1 237 38.603 1.21686 4.91469 -6.16756 -0.625325 -0.833281 -0.399993 0.0848865 0.441109 0.175929 -1.47006 -1.11459 0.0130758 -0.171484 -0.135102 1.01231e-05 -3.70332e-05 -7.46521e-06 
26.982 1 37 38.6323 1.09524 1.26924 2.56308 -6.42827 0.651245 -0.24029 -0.0468358 -0.330932 0.0262819 -1.03477 -1.45183 0.000208533 -0.111288 -0.178366 4.52547e-06 -4.75948e-05 -4.63515e-05 
26.982 1 41 43.4286 4.92797 1.77667 3.22556 3.204 -2.2841 -0.190441 0.333237 0.0018669 -0.590095 -0.596965 -1.31097 -0.0647513 -0.0566343 -0.173086 7.71381e-06 1.80571e-05 -5.4238e-05 
26.982 1 4 43.501 2.80446 3.68628 2.9558 -1.55855 -1.64498 -0.00591029 -0.3103 0.554053 -1.13822 -1.14057 -1.31698 -0.125458 -0.134215 -0.149484 -1.49139e-06 -2.12356e-05 -2.38102e-06 
26.982 1 241 43.7403 5.40307 4.77877 -1.8066 -2.47807 -3.03701 -0.329817 0.105563 0.167505 -0.766785 -0.760834 -0.877435 -0.0683826 -0.0757324 -0.0894179 8.06624e-06 -2.39136e-06 -9.94083e-09 
26.982 1 79 41.3054 4.36779 3.55779 4.76885 0.299362 1.05567 -0.490505 -0.0652686 0.414434 -0.0627001 -0.187424 -1.89982 0.00176889 -0.0129909 -0.215599 -6.41719e-06 -7.02088e-07 -4.70862e-07 
26.982 1 238 41.2233 2.16285 5.91151 9.06962 -0.859982 -2.55041 -0.253238 1.17425 -0.838177 0.0236623 -1.20138 -0.746695 0.00789264 -0.149431 -0.0833091 1.86446e-05 -4.57922e-05 -1.49171e-06 
26.982 1 142 22.6177 14.5123 1.11428 0.277037 0.761738 1.54034 -0.0202867 0.0191888 0.0049025 0.204329 -0.00782696 -2.5885 0.0159408 -0.00131158 -0.293433 -1.50488e-05 1.29058e-07 -5.71421e-05 
26.982 1 39 40.8714 1.50615 3.01094 3.02896 -4.8225 3.71636 -0.00630816 -0.0469615 0.570825 -0.23055 -0.90574 -1.58876 -0.0192088 -0.133781 -0.182935 9.69374e-06 -5.72865e-05 1.15208e-06 
26.982 1 38 40.5968 3.39185 1.1174 0.466067 4.46728 -3.90042 -0.0314341 0.142736 -0.263936 0.00397327 -0.738205 -1.47589 -0.00184514 -0.0973708 -0.198604 4.81353e-06 3.10439e-06 -6.63704e-05 
26.982 1 83 -1.14224 9.19244 2.86584 -0.481255 1.82455 -3.9734 -0.301583 0.0357054 0.217895 -1.14271 -0.439506 -1.59919 -0.122021 -0.0600192 -0.209181 -1.07381e-05 -2.21777e-05 -3.42938e-05 
26.982 1 242 -0.358286 6.1641 5.29775 7.28729 -1.29852 1.7635 0.303405 0.107832 1.11549 -1.18795 -0.0516279 -0.661821 -0.136821 -0.0105863 -0.0756894 -6.35812e-06 1.20911e-05 -1.59897e-06 
26.982 1 281 -2.64706 8.15122 5.58726 8.16841 -2.08336 -6.26195 0.364088 -0.076908 -0.0720468 -0.81113 -0.770555 -0.915548 -0.0896346 -0.0877776 -0.110796 -3.02919e-05 -9.93244e-06 -2.26125e-05 
26.982 1 282 -1.80866 11.3747 4.77913 0.254466 1.18807 -1.53346 -0.015843 -0.175908 0.186852 -1.01835 -0.00426351 -0.486918 -0.114785 -0.0026758 -0.0623439 -3.10207e-05 -7.5949e-06 -1.82658e-05 
26.982 1 48 1.51587 6.15093 3.2123 3.47884 -1.54063 1.11485 0.575994 0.29984 0.367615 -0.264682 -0.0893821 -1.51744 -0.0300514 -0.00589681 -0.200366 -6.64217e-06 4.86818e-06 -3.68091e-05 
26.982 1 285 1.90383 8.16441 5.60296 -7.41969 2.465 -1.18582 0.0307139 -0.912893 -0.463935 -0.102756 -0.0108985 -0.177563 -0.00974672 -0.00168668 -0.0258501 -9.73323e-06 -2.04547e-06 -1.16384e-05 
26.982 1 87 4.32421 7.18732 2.57484 3.85804 -6.15844 -1.37828 -0.00642359 0.318127 0.318592 -0.0216237 -0.0151191 -1.37044 -0.00860614 -0.00237589 -0.189571 -9.0004e-06 3.08958e-07 -4.63858e-05 
26.982 1 246 4.34315 6.73128 5.48793 -3.15307 -4.12541 2.79562 -0.265941 -0.0990126 0.0392958 -0.00261635 -0.00889065 -0.157951 -0.000343112 -0.00100779 -0.0230868 -1.13419e-05 4.69467e-06 -2.31951e-06 
26.982 1 88 2.00013 8.86059 2.63636 0.700049 2.50261 -4.77513 0.149316 0.382868 0.182636 -0.260956 -0.0665532 -1.42148 -0.0219861 -0.0103926 -0.192858 -1.61843e-05 -3.87408e-06 -3.97106e-05 
26.982 1 286 4.08384 9.51969 4.59462 4.36775 -1.57004 2.25014 0.443937 0.0147497 -0.188183 -0.00430947 0.00296769 -0.143373 -0.00192972 0.000215526 -0.0217368 6.1417e-06 6.70123e-06 2.33655e-06 
26.982 1 86 4.69716 10.2342 1.8459 -0.585261 -2.19206 -2.67467 0.0195215 -0.504397 -0.113624 -0.0372731 -0.0626113 -2.13106 -0.0118623 -0.00852567 -0.233848 -8.29138e-06 -1.81516e-05 -5.1496e-05 
26.982 1 289 6.65624 7.91163 4.50353 0.25346 0.520561 -0.980728 0.0362687 0.336485 -0.109514 0.00640142 0.00065479 -0.158032 -0.00128688 -0.000909173 -0.0212245 -3.41651e-06 1.44754e-05 -5.08428e-06 
26.982 1 52 6.95735 5.94644 2.41186 -7.01779 4.6977 1.09549 -0.396065 -0.283627 0.440874 0.0166094 -0.0197459 -1.37782 -0.00100338 -0.0119218 -0.192189 -1.43059e-05 -1.20924e-05 -4.46929e-05 
26.982 1 91 9.4795 8.94203 3.22947 -3.17145 3.70377 -0.15262 -0.622783 -0.258489 0.297582 0.1385 0.0843531 -1.61342 0.0123166 0.00223774 -0.190659 2.83849e-07 -1.53664e-06 -1.6777e-05 
26.982 1 250 9.01779 6.41122 4.49013 -3.12425 0.903881 -4.95688 0.323213 -0.32111 -0.823532 0.00768319 -0.00079777 -0.159344 -0.000647845 -0.00308595 -0.0239462 5.51489e-06 -4.07524e-06 -1.11036e-05 
26.982 1 89 7.08801 8.58236 1.51608 4.44913 0.255855 -3.43255 -0.199941 0.0733135 0.681436 0.08281 0.0523157 -2.04783 0.00650208 -0.00445734 -0.252464 -1.23212e-05 -4.15314e-06 -5.22038e-05 
26.982 1 50 9.47307 6.86913 1.52477 -1.21681 -0.178331 0.836968 -0.0770437 -0.232472 -0.118536 0.0739125 0.0042927 -1.99443 0.00249474 -0.00390956 -0.21896 7.1561e-06 4.30808e-06 -5.82336e-05 
26.982 1 293 11.5146 8.97895 5.0673 -1.81208 -0.196726 -0.319375 -0.00541563 0.582335 0.177595 0.00246065 0.0127681 -0.201184 0.000282792 0.000571194 -0.0240264 -4.76166e-08 7.05131e-06 -2.85666e-06 
26.982 1 56 12.0553 7.19325 3.17592 0.264032 -1.71349 2.24378 -0.277757 -0.339949 0.00681234 0.0407396 0.141904 -1.55977 0.000565445 0.00755511 -0.194428 1.90564e-06 6.97576e-06 -3.51676e-05 
26.982 1 95 13.5623 9.41002 2.81064 -3.08592 -1.46356 2.82715 -0.29513 0.126908 -0.408985 -0.0257447 0.123162 -1.78897 0.000687941 0.0121675 -0.219077 -1.2711e-05 -4.25412e-06 -5.6026e-05 
26.982 1 145 25.1123 12.4753 1.13546 3.78939 -2.82968 -0.375076 0.0628779 -0.616484 -0.285439 0.166486 -0.0309192 -1.12997 0.018996 -2.01162e-05 -0.166645 -5.61962e-06 -2.51766e-05 -7.52944e-05 
26.982 1 254 14.1204 7.13829 4.95666 2.56755 2.59968 1.94884 -0.0461873 0.201848 0.401089 0.00299623 0.000874109 -0.182028 0.000436785 0.0009377 -0.023841 -2.1629e-06 2.79634e-06 -3.59218e-06 
26.982 1 60 16.5837 7.0794 3.46469 -2.6599 2.39092 -3.80585 -0.118688 -0.387962 -0.0852117 -0.0088218 0.0842374 -1.59918 0.0016955 0.00982179 -0.20107 -1.53796e-05 -2.78381e-06 -1.85045e-05 
26.982 1 297 15.6021 9.42086 4.46986 -0.530085 3.05181 6.28858 0.480054 0.309565 0.138656 0.0033069 0.0134566 -0.213959 0.0010209 0.000589377 -0.0277604 7.32121e-06 3.18452e-06 -3.40062e-06 
26.982 1 2825 25.4873 20.024 16.5918 0.204671 2.24676 -5.51001 0.102979 -0.18107 0.000383486 -0.696834 0.268245 -1.36636 -0.0745265 0.0350312 -0.153448 -1.06702e-05 2.42481e-05 -2.09517e-05 
26.982 1 97 16.4388 9.02599 1.74235 5.80332 5.01523 1.08559 -0.427104 -0.0102514 -0.557202 -0.0963342 0.268863 -1.57264 -0.00857988 0.0222541 -0.183753 -1.9046e-05 -4.78149e-06 -6.38712e-05 
26.982 1 99 18.6381 9.17678 3.4928 0.872423 1.43362 2.2252 -0.188187 0.0986481 -0.0845532 -0.0962107 0.135677 -1.67616 -0.0103953 0.0121314 -0.211827 -3.25964e-06 8.58647e-06 -4.95231e-06 
26.982 1 258 18.8352 6.95726 5.00362 -1.18776 -0.56173 1.79603 -0.24555 -0.0708902 0.120863 0.00262311 0.0041312 -0.18227 -0.00104764 0.00156583 -0.0240759 -7.56957e-06 3.18944e-06 5.11861e-06 
26.982 1 64 20.8841 6.91997 3.13908 6.30179 -4.70659 9.47738 -0.20677 0.440769 -0.551793 0.0915032 -0.125451 -1.64399 0.00561331 -0.0197861 -0.216557 8.03712e-06 1.06634e-05 -3.1483e-05 
26.982 1 301 20.8252 8.90493 5.11468 -0.77501 -0.475086 -1.31737 0.30648 0.261652 0.147458 -0.00133684 0.00735288 -0.188684 -0.00313896 0.00235824 -0.0239368 2.02956e-06 1.05133e-05 2.5845e-06 
26.982 1 103 23.1448 8.67848 3.15406 -6.0577 0.235295 -2.73721 -0.268475 -0.236859 -0.0814968 0.066305 0.0268911 -1.7333 0.00400184 -0.00648703 -0.208082 -5.78892e-07 1.36391e-06 -5.47217e-05 
26.982 1 262 22.949 6.55232 4.85912 0.277539 4.89448 -3.06412 0.460589 0.846664 0.778512 0.00407081 -0.0126586 -0.214893 -0.000113376 -0.00228209 -0.0283462 6.10857e-06 1.45788e-05 5.24079e-06 
26.982 1 305 25.3383 8.59058 4.99822 -0.319439 5.34804 0.570658 -0.388797 -0.365747 0.0875928 0.00608069 -0.00181991 -0.213653 0.00135398 -0.000580936 -0.0267863 -4.78436e-06 -3.65476e-06 -1.93028e-06 
26.982 1 68 25.2211 6.52206 3.17468 -3.57405 3.58332 -8.99281 0.258849 0.391691 -0.242185 0.0819058 -0.115658 -1.90927 0.00641842 -0.0180463 -0.235622 -4.73836e-06 4.62092e-06 -5.19121e-05 
26.982 1 431 31.8859 1.49086 12.0325 4.15019 2.00987 2.47426 0.0138096 0.573099 0.0306852 -0.157477 -1.20258 -0.652491 -0.0105981 -0.128881 -0.0878916 -5.28087e-06 -4.57001e-05 -1.97045e-05 
26.982 1 193 34.1798 16.4966 1.33155 2.54435 -12.4593 -1.14194 -0.134589 0.0766818 0.46347 0.19928 0.0375189 -1.24184 0.0195181 -0.00296647 -0.159426 1.2652e-05 1.40302e-06 -5.47727e-05 
26.982 1 107 27.3692 8.4402 2.84607 0.331804 -0.930139 2.56234 -0.0780897 -0.271569 0.437532 0.195549 -0.154851 -1.97054 0.017614 -0.00868163 -0.240527 -1.38509e-05 4.95585e-06 -3.33438e-05 
26.982 1 266 27.3088 6.37528 5.03028 1.47373 -1.53466 -0.979605 0.0276912 0.633015 -0.148978 0.00411175 -0.00194821 -0.255378 9.07794e-05 -0.00135395 -0.0313813 1.0224e-06 9.7028e-06 -4.77792e-06 
26.982 1 72 29.5665 6.30367 3.12816 -1.90423 -2.29724 -2.08824 -0.0519818 0.328681 -0.0884091 -0.0848764 0.00483456 -2.19971 -0.00863537 -0.00935245 -0.263397 7.89058e-06 -6.42043e-06 -3.80581e-05 
26.982 1 309 29.3832 8.2029 5.07025 0.00250524 3.13016 -0.12549 0.383846 0.20799 -0.337521 -0.00680655 -0.00715705 -0.259289 -0.000969765 -0.0005281 -0.0309394 7.75711e-06 1.99117e-06 -8.7509e-06 
26.982 1 112 29.3818 10.2651 2.91151 2.12251 0.575154 -0.441649 0.675219 0.231442 0.574591 -0.125425 -0.202098 -1.73256 -0.014934 -0.0138309 -0.221848 1.03512e-05 -5.96959e-07 -2.46152e-05 
26.982 1 66 27.3695 6.333 1.13471 1.51457 2.43649 -3.86702 -0.0369367 0.0663449 -0.0798324 -0.00892516 0.0744007 -1.09824 -0.00702032 -0.00201631 -0.140589 -1.27657e-05 -1.64901e-05 -6.2834e-05 
26.982 1 2031 31.8132 20.1909 3.23117 2.16139 0.775537 -3.9409 0.623754 -0.452807 0.241869 -0.454068 -0.948035 -2.28358 -0.0642029 -0.083271 -0.261085 6.6843e-06 3.49448e-05 -2.66202e-05 
26.982 1 3 -1.74393 0.880172 3.68988 -0.941193 -3.7141 2.04717 -0.0188988 -0.199874 0.153068 -0.713994 -1.73042 -1.23012 -0.0857987 -0.184204 -0.157212 -1.88455e-05 -3.04138e-05 -5.28783e-05 
26.982 1 111 31.6559 8.31913 3.13686 0.240343 0.174459 -0.363211 -0.368339 -0.0593739 -0.0638928 -0.157537 -0.210855 -1.79943 -0.0154852 -0.0172706 -0.216841 1.96862e-06 -3.259e-07 -4.50325e-05 
26.982 1 270 31.7338 6.33723 5.30562 -3.95622 -1.8608 -2.01956 -0.636676 0.0044495 -0.190337 -0.0094338 0.00215855 -0.235751 -0.000915035 -0.00057787 -0.0289147 -7.27045e-06 2.47964e-06 -2.34935e-06 
26.982 1 76 33.9289 6.79203 2.83529 0.262374 -1.24478 -4.23704 0.141879 0.275159 0.458246 -0.00577872 0.029961 -1.77306 -0.000279068 -0.00478581 -0.217877 4.42501e-06 1.71658e-05 -4.27328e-05 
26.982 1 313 33.8387 8.03419 5.35497 2.71361 -3.06064 3.93406 0.27227 -0.0988418 -0.0817364 -0.00310777 -0.00341099 -0.197796 0.00211677 -0.000282367 -0.0228739 1.12991e-05 1.48308e-06 -4.51201e-07 
26.982 1 116 33.9909 9.76441 3.09692 1.16052 -4.20836 3.25186 -0.184994 0.198538 0.346123 0.0974836 0.0459604 -1.61861 0.00558236 -0.000656915 -0.190148 -6.4442e-06 -5.91108e-06 -3.69384e-05 
26.982 1 310 31.6669 9.97386 5.11936 -0.842918 -6.82136 2.09615 -0.0267385 0.211203 0.0158187 -0.00592335 -0.00252618 -0.176809 -0.00110436 -0.000637311 -0.0235197 -2.99442e-06 -4.34006e-07 -8.34471e-06 
26.982 1 221 20.4964 0.897757 5.13234 -1.07381 0.945698 3.59451 0.0357566 0.0834738 -0.0870763 -0.146407 -1.11611 -0.991502 -0.00991752 -0.129869 -0.118417 1.10864e-05 -3.76966e-05 -2.81001e-05 
26.982 1 115 36.2743 8.02557 3.66292 5.67011 -5.85619 -1.17432 0.380561 0.00859312 -0.599497 -0.223063 -0.0857731 -1.52844 -0.0160322 -0.0130294 -0.187507 8.46268e-06 -1.39485e-06 -3.7034e-05 
26.982 1 274 36.3492 6.02321 5.63014 -8.05982 -4.86964 -0.470219 0.144232 -0.0726251 -0.0640301 0.00252817 -0.0112933 -0.201635 0.000588413 -0.00127005 -0.0249344 1.82584e-06 -1.96625e-06 -1.83404e-06 
26.982 1 80 38.7108 6.01797 3.93271 -0.412595 -6.35415 0.830621 -0.523281 -0.291868 -0.553044 0.0372533 -0.351035 -1.62023 0.00522111 -0.0230792 -0.19463 -6.29508e-06 2.4728e-06 -1.91064e-05 
26.982 1 317 38.9844 8.56707 4.7384 8.38868 -1.84503 0.0173841 -0.141927 0.638111 -0.120853 0.00514184 -0.0077688 -0.14497 -0.000327094 -0.000985128 -0.0188268 -4.21231e-06 6.91083e-06 -1.0441e-05 
26.982 1 117 38.4965 8.44567 1.28993 2.91078 -3.41776 0.495089 -0.0720407 0.018047 0.339963 0.101971 0.0155553 -2.71273 0.00643395 -0.00377595 -0.289324 -1.02092e-05 -2.63522e-06 -4.6106e-05 
26.982 1 314 36.5492 8.95595 6.14553 -1.77921 0.79583 0.0807553 -0.164335 0.218122 0.0537409 -0.00290812 0.00636113 -0.18462 -0.000771073 -0.000224005 -0.0218845 -7.69024e-06 3.45891e-07 -2.07009e-06 
26.982 1 421 20.2987 1.02047 8.62376 2.19812 -2.86146 -1.98293 -0.151518 -0.608713 -0.0545463 -0.110581 -0.78537 -0.73965 -0.00922645 -0.109156 -0.0995163 -2.72324e-06 -5.22637e-05 -3.78833e-05 
26.982 1 114 36.2879 10.572 1.36942 -0.525448 -0.0253114 0.823491 0.132424 -0.401732 -0.0682878 -0.0549477 0.084233 -1.85312 -0.00151855 0.00192243 -0.22995 1.11547e-05 -5.76966e-06 -5.67504e-05 
26.982 1 78 41.0166 6.54591 1.57784 3.09768 0.966878 -1.96699 -0.0248342 -0.113495 0.23637 0.162004 -0.414623 -1.49652 0.0268586 -0.0386445 -0.167059 9.72715e-06 9.12855e-06 -4.85089e-05 
26.982 1 44 43.6044 7.9233 3.06363 -6.0713 1.79308 0.826825 -0.592843 -0.336957 0.15253 -0.352428 -1.01723 -1.58448 -0.0456106 -0.095154 -0.194928 -2.26155e-06 2.88083e-06 -3.41825e-05 
26.982 1 119 40.9206 9.01227 2.70313 4.40926 2.62337 1.05234 0.0451298 -0.292517 -0.0879583 0.303309 -0.0183005 -1.66423 0.032849 -0.0118265 -0.205813 1.5711e-05 4.74353e-06 -4.17822e-05 
26.982 1 278 41.0209 6.80646 4.68669 1.82274 1.27499 1.40248 1.02157 0.471607 -0.410654 0.393808 -0.382066 -0.250479 0.0411873 -0.0359492 -0.0300485 2.46766e-05 1.13149e-05 -8.16199e-06 
26.982 1 84 43.3126 10.7324 3.19213 -2.07962 6.71766 2.31126 0.370908 -0.0350088 -0.629511 -1.33764 -0.454985 -1.8383 -0.132272 -0.0625301 -0.214385 1.67789e-05 -1.2369e-05 -4.89345e-05 
26.982 1 318 41.1033 10.7454 4.67036 3.84768 -1.1222 1.70774 -0.315846 0.0635156 0.42504 0.425155 -0.367626 -0.254516 0.0485974 -0.0412939 -0.0294848 -1.88741e-06 5.26253e-06 -2.0503e-08 
26.982 1 123 -1.48241 12.2469 2.06602 0.977966 6.96676 0.377403 0.116424 -1.03532 -0.0644657 -1.1316 -0.298251 -1.59311 -0.117866 -0.0326017 -0.206384 -7.47527e-06 -3.31686e-05 -4.44178e-05 
26.982 1 322 -1.14161 14.1654 3.92647 -2.85808 -3.45613 -0.776641 -0.152689 -0.0867319 0.118384 -0.724315 -0.249979 -0.40355 -0.0852795 -0.0225588 -0.0529114 -2.65386e-05 2.1541e-06 -1.01004e-05 
26.982 1 122 -1.11203 14.766 1.1503 -1.6274 -1.51006 -2.81358 0.19437 0.629987 0.0228308 -1.18807 -0.00135342 -1.64844 -0.126628 0.00527433 -0.19495 -1.34799e-05 8.44811e-06 -4.79515e-05 
26.982 1 361 43.5973 15.8685 4.11319 0.727214 -1.11246 0.87058 0.084197 -0.321124 -0.0214369 -1.34923 -0.812806 -1.01297 -0.142157 -0.0893823 -0.120367 5.77473e-06 -5.32089e-06 -1.25794e-05 
26.982 1 325 0.674725 11.1235 3.93033 -1.7674 0.212981 -0.964125 0.353366 0.226221 -0.447231 -0.0942649 -0.0101689 -0.159827 -0.00842181 -0.00198019 -0.0242787 2.71034e-06 -8.67333e-06 -2.07828e-05 
26.982 1 128 2.2296 13.85 3.75059 -4.97101 1.32124 1.22312 -0.843573 -0.29621 -0.537865 -0.20611 0.140717 -1.43406 -0.0244382 0.011001 -0.174998 -2.69452e-05 6.66881e-07 -1.96494e-05 
26.982 1 127 4.46338 12.3078 3.45269 -2.36654 3.85446 -3.90795 0.569905 -0.290931 0.394468 0.0162903 -0.0224125 -1.23466 -0.00270205 -0.00748934 -0.155879 5.80128e-06 -1.59164e-05 -1.74055e-08 
26.982 1 326 4.29908 14.4205 5.27608 4.57685 -1.48632 -7.82062 0.408063 0.00902995 0.0830394 -0.00521915 -0.00106494 -0.132527 -0.00347552 -0.000168499 -0.0164112 2.31791e-06 6.84037e-06 9.00202e-07 
26.982 1 125 2.1422 11.8419 1.78399 2.09886 2.2791 3.82008 0.739354 0.0854416 0.42815 -0.254079 -0.151245 -2.30005 -0.0273056 -0.0144266 -0.256311 -2.14815e-05 -1.15865e-05 -5.65596e-05 
26.982 1 126 3.74454 14.0827 1.52575 -5.75987 -5.69143 -1.05962 -0.00969792 0.696468 -0.684928 0.019754 0.0370907 -2.21343 -0.00989044 0.00370715 -0.260423 -1.44387e-05 1.00966e-05 -6.20504e-05 
26.982 1 129 6.16333 12.6865 1.30702 0.754927 -2.67119 -4.1769 0.158661 -0.587141 -0.253903 0.127465 0.0667448 -2.17929 0.0101035 0.00452897 -0.25837 3.14822e-06 -1.76016e-05 -6.02071e-05 
26.982 1 290 9.2116 11.0889 5.38561 -0.0931696 -2.66269 -1.6553 -0.471468 -1.55195 -0.481931 0.0112398 0.00269918 -0.190032 0.000115706 -0.000468865 -0.0219161 -6.64134e-06 -2.2545e-05 -3.8306e-06 
26.982 1 92 7.00104 10.5569 3.66912 -1.46302 -4.00157 1.86128 -0.428892 -0.175231 -0.0687922 0.11701 -0.0210858 -1.39923 0.00525882 -0.00135408 -0.166355 -1.0176e-05 -6.25417e-06 -2.99432e-06 
26.982 1 329 6.57707 12.8132 5.45578 -1.71643 -2.19413 -3.87399 0.135872 -0.774003 -0.423866 0.000850161 -0.00177885 -0.148607 -0.00222275 -0.00104387 -0.017601 -5.63151e-06 -1.84302e-05 -1.82994e-06 
26.982 1 132 6.24315 14.6178 3.21327 0.298912 -1.77462 3.60423 -0.306676 0.0640249 0.575931 0.120218 -0.0202145 -1.33014 0.0124493 -0.00511616 -0.158391 -2.35945e-06 5.96893e-06 -9.03995e-07 
26.982 1 131 8.48426 12.8013 3.29896 -1.3378 -0.305648 0.0949462 0.276459 0.24761 -0.589149 0.121156 -0.00978352 -1.59138 0.0106201 0.00239758 -0.189824 1.22668e-05 2.4419e-06 -2.90681e-05 
26.982 1 130 7.96035 14.6683 1.05087 -0.376254 -3.19142 -5.15665 0.443327 0.307564 -0.258827 0.15589 -0.19273 -1.66587 0.0197581 -0.0152163 -0.197884 2.99543e-05 1.00888e-05 -6.22586e-05 
26.982 1 90 8.71746 10.858 1.10164 -0.479734 -3.6048 -3.04974 -0.176234 -0.00201154 0.528901 0.154334 -0.0489256 -1.65881 0.0200116 -0.00633253 -0.211291 1.4018e-05 6.26696e-06 -5.85633e-05 
26.982 1 294 13.242 11.3424 4.79248 -2.10999 -1.53589 0.660487 0.0615428 -0.101131 -0.542123 0.00172024 0.00799935 -0.221385 0.000414779 -0.000421082 -0.0273436 1.60234e-06 1.11209e-06 -1.7811e-05 
26.982 1 96 10.9366 11.0725 2.9257 -4.80168 -1.32322 5.30788 0.51787 0.374801 0.0352721 0.061565 -0.0496259 -1.79416 0.00986916 -0.00605444 -0.210054 1.68928e-05 3.97983e-06 -4.58371e-05 
26.982 1 333 10.7813 13.0009 5.02712 -0.112769 -2.76088 1.19118 0.735671 0.969718 -0.425137 0.00413263 -0.00720636 -0.197768 -0.000117352 -0.00119209 -0.0233324 1.17451e-05 1.42622e-05 -8.66788e-06 
26.982 1 135 12.5407 13.4317 2.64829 7.18144 -9.25584 -8.96979 0.279121 -0.303832 -0.0837669 0.0643635 -0.15389 -1.74615 0.00680594 -0.0162608 -0.215037 6.68202e-07 -1.12344e-05 -6.01e-05 
26.982 1 100 15.3067 11.5713 2.37798 -1.46109 -2.84529 2.37443 -0.130265 -0.112729 -0.0193287 0.0172033 0.0458132 -1.90044 0.000303443 0.00051014 -0.235092 -1.8445e-05 6.01213e-06 -5.08127e-05 
26.982 1 337 15.0395 13.4651 4.35592 -2.51553 0.848285 2.88373 0.147197 0.487 0.208169 0.00452825 -0.00252401 -0.226069 0.00187523 0.00081939 -0.027372 6.21136e-06 9.56876e-06 -2.4861e-06 
26.982 1 139 17.0041 13.7854 2.15271 4.74867 -3.35471 2.83301 -0.119514 0.0377951 0.411412 -0.025051 -0.0234563 -1.95016 -0.00196764 -0.00762132 -0.234847 -1.05356e-05 1.10449e-05 -4.56558e-05 
26.982 1 298 17.4175 11.9007 4.30277 -1.11517 -0.153186 1.96125 0.454384 -0.405287 0.0427269 -0.00418547 0.000384029 -0.231444 0.00128592 -0.00138309 -0.0316723 1.54174e-05 -9.33758e-07 -4.76799e-06 