ITEM: TIMESTEP
4500
ITEM: NUMBER OF ATOMS
4000
ITEM: BOX BOUNDS pp pp pp
-0.988785 41.4888
0.239573 40.2604
0.240686 40.2593
ITEM: ATOMS mass type id x y z vx vy vz fx fy fz xrad yrad zrad vxrad vyrad vzrad fxrad fyrad fzrad 
26.982 1 3 1.30911 0.299791 2.15461 -2.29385 5.20082 4.64538 -0.381108 -0.16241 0.134071 -0.0599041 -0.146596 -0.0507275 -0.0265018 -0.0686191 -0.0280844 -3.0686e-05 -4.77143e-05 -2.05475e-05 
26.982 1 8 3.42912 1.98228 2.18179 0.684837 -2.8986 -3.22908 -0.0484851 0.881826 0.0221519 0.028858 -0.121913 -0.0904178 0.0155539 -0.0544269 -0.0435901 9.07193e-06 -2.72212e-05 -2.81562e-05 
26.982 1 43 1.01952 4.20794 2.12757 -0.142091 -0.552513 -0.946719 0.357966 0.224563 -0.128779 -0.0651751 -0.053133 -0.125647 -0.0348521 -0.0211752 -0.04843 -2.2825e-05 -1.32363e-05 2.09687e-06 
26.982 1 202 1.15847 2.3447 4.11104 3.55371 0.247017 0.973797 0.0741261 -0.463328 0.286856 -0.0588061 -0.0974446 -0.0655003 -0.0320482 -0.0337156 -0.0264805 -4.03251e-05 -1.25542e-05 -5.8964e-06 
26.982 1 245 3.35936 4.10612 4.07377 -0.872235 -6.2976 -2.85921 -0.35434 0.110785 0.193093 -0.00407377 -0.0171362 -0.015925 -0.0024179 -0.0065733 -0.00631676 -1.1247e-05 -1.42396e-06 5.80694e-07 
26.982 1 2 1.19949 2.3507 0.0556068 2.61018 -1.48407 6.60067 -0.234832 -0.467608 0.494878 -0.0571548 -0.0558268 -0.127669 -0.0263955 -0.0302985 -0.0623552 -1.5067e-05 -3.082e-05 -4.461e-05 
26.982 1 205 3.37064 0.244167 4.22585 1.78111 3.90579 2.64016 -0.239497 0.0780225 -0.0642379 -0.00291957 -0.0200697 -0.0243718 0.00435986 -0.0246465 -0.0221667 2.13095e-06 -4.1712e-05 -3.34946e-05 
26.982 1 41 -1.17208 4.07758 0.226022 -4.52021 -1.23955 -3.38816 0.69295 0.822987 -0.25528 -0.0356621 -0.0556236 -0.0953635 -0.0179479 -0.0241694 -0.0433022 -2.59451e-05 -2.58385e-05 -2.83499e-05 
26.982 1 47 5.34805 4.15549 2.1759 -1.33879 -2.32055 2.49057 -0.0355138 0.0176895 -0.065058 -0.0197721 -0.0382207 -0.0867379 -0.00262243 -0.0188064 -0.0393767 7.47261e-06 -5.12132e-06 -2.02065e-05 
26.982 1 206 5.51668 2.25061 4.2637 2.05567 0.0212041 -3.10196 -0.0523022 0.0219712 -0.346594 -0.0264095 -0.126468 -0.0650988 -0.00200076 -0.0568364 -0.0297787 1.41351e-05 -2.84648e-05 -2.00725e-05 
26.982 1 45 3.21056 4.25108 0.149945 -8.14944 6.06725 1.10188 0.333555 0.061164 0.278542 -0.0156226 -0.0247118 -0.0976916 -0.00284333 -0.0137324 -0.0580179 2.94664e-06 -2.28097e-06 -5.69661e-05 
26.982 1 6 5.42576 2.31247 0.148436 2.56116 5.6858 6.1322 -0.121034 -0.508162 -0.00675386 -0.0375847 -0.0518428 -0.107304 -0.007332 -0.0268431 -0.0469188 1.32494e-05 -3.08583e-05 -5.06355e-05 
26.982 1 12 7.50604 2.35394 2.16439 -1.6651 0.561867 -0.936266 0.0181633 -0.282497 -0.0854718 -0.0180162 -0.15312 -0.0771364 -0.00781497 -0.0725818 -0.039132 -1.0072e-05 -3.91267e-05 -2.49672e-05 
26.982 1 249 7.61928 4.29277 4.1482 -3.2758 -2.68505 -5.33139 -0.11248 -0.149402 0.630648 -0.000848622 -0.011292 -0.00910397 -0.000402232 -0.00658956 -0.00508034 -1.11676e-06 -3.75157e-06 7.99852e-06 
26.982 1 51 9.65797 4.09804 2.08829 3.64606 -2.5065 4.63414 0.273583 0.272286 0.0616601 -0.00214854 -0.00710955 -0.0664059 -0.00119877 -0.00791406 -0.0354461 -3.77569e-06 1.90168e-06 -2.05673e-05 
26.982 1 210 9.63581 2.36304 4.21739 1.74506 -0.0946608 -1.8852 0.0236714 -0.331567 0.142773 0.00185737 -0.0996901 -0.0604414 -0.00414985 -0.0477641 -0.0262838 -1.46989e-06 -3.1045e-05 -7.34226e-07 
26.982 1 11 9.69238 0.403975 2.32201 1.84531 -5.58812 -2.9432 -0.409012 -0.345647 -0.353723 0.00217407 -0.00741442 -0.0918268 0.000125069 -0.010298 -0.0421011 -5.95979e-06 -6.31922e-05 -9.58625e-06 
26.982 1 53 11.6989 4.32253 0.123145 -0.610761 -2.40328 -3.79519 0.319253 -0.321383 0.218966 0.0242957 -0.0137309 -0.202949 0.00914874 -0.00492945 -0.0784777 1.68873e-05 -1.39643e-05 -5.66906e-05 
26.982 1 10 9.66326 2.19229 0.0722982 -5.2569 -1.81147 2.85383 -0.0790147 0.220036 0.160493 -0.00414552 -0.10461 -0.161416 -0.00556232 -0.0435765 -0.06767 -9.77127e-06 -2.26347e-05 -5.8002e-05 
26.982 1 16 11.8168 2.15585 2.14118 6.18816 1.8295 4.49994 0.136662 0.771097 0.296257 0.0276115 -0.144634 -0.0848514 0.00836124 -0.0588704 -0.0431736 1.24189e-05 -2.81787e-05 -2.23997e-05 
26.982 1 15 13.9307 0.348998 2.05002 4.5754 -6.87807 -2.05793 0.00779527 -0.19443 0.451848 0.00167369 -0.0273038 -0.143512 -0.00139295 -0.0231207 -0.0587289 3.0584e-06 -4.83566e-05 -2.38766e-05 
26.982 1 253 11.7468 4.16553 4.16498 1.34809 0.504312 -2.20467 0.535857 -0.120318 -0.137413 0.00072015 -0.0114694 -0.00894201 0.000237207 -0.00525344 -0.00511149 9.27066e-06 -7.05745e-06 -6.41029e-06 
26.982 1 55 14.0885 4.08999 2.16886 -0.376032 0.637569 1.21682 -0.509948 0.35882 0.0751411 -0.000575549 -0.0418217 -0.0927339 7.66007e-06 -0.0147181 -0.0494738 -9.17535e-06 -1.17111e-05 -2.47227e-05 
26.982 1 214 13.8585 2.12674 4.24212 2.96295 -2.25749 -0.525834 0.106705 0.0461566 -0.198412 0.0213363 -0.117203 -0.0599206 0.00870758 -0.0491613 -0.0247676 1.43926e-06 -3.15446e-05 -1.1022e-05 
26.982 1 20 16.1162 2.21997 2.23654 0.439414 -5.8399 -2.63665 0.0569208 -0.193066 0.266408 -0.0565261 -0.150748 -0.0665616 -0.0210389 -0.0639843 -0.0340758 -7.30024e-06 -4.04529e-05 -1.58671e-05 
26.982 1 257 15.9851 4.14696 4.28182 -3.73387 5.30829 -0.503218 0.332839 0.0235447 -0.0915582 -0.00166691 -0.016456 -0.00816522 -0.000705716 -0.00693186 -0.00473768 5.57317e-06 -5.27411e-06 -3.04219e-06 
26.982 1 19 18.2441 0.264679 2.46657 -0.11877 3.43559 0.66246 -0.273682 0.192467 -0.239605 0.00453232 -0.13345 -0.0397784 0.00501286 -0.0573342 -0.0234995 -1.25883e-06 -5.57826e-05 -1.18559e-05 
26.982 1 218 18.2298 2.17403 4.52284 0.290416 -0.0531816 -1.86662 -0.341594 0.451148 -0.859749 -0.012276 -0.109642 -0.0312136 -0.00575408 -0.0480027 -0.015687 -4.2845e-06 -2.33229e-05 -1.61746e-05 
26.982 1 18 18.222 2.2366 0.0384386 1.1127 2.2681 4.99493 -0.027486 0.109712 0.644976 -0.00913646 -0.0804995 -0.197379 -0.00287492 -0.0334237 -0.0869888 2.20563e-06 -3.46361e-05 -5.4286e-05 
26.982 1 59 18.2274 3.96837 2.19806 1.38673 0.458468 -3.99698 -0.190929 0.358634 0.298695 0.00688379 -0.00470958 -0.0563755 0.00341387 -0.00184129 -0.0314449 -5.23721e-06 -1.3556e-06 -3.94887e-06 
26.982 1 57 16.108 4.15806 0.185538 -2.46799 -3.78439 4.88976 0.0398535 0.236076 0.291273 -0.0326513 -0.0262246 -0.202745 -0.011003 -0.00629084 -0.0782682 -1.50623e-05 -1.0583e-05 -5.95849e-05 
26.982 1 24 20.4056 2.21275 2.31702 -1.77744 1.5599 -3.18571 -0.45857 0.135508 0.106707 0.0140381 -0.114255 -0.0431826 0.00743498 -0.0485148 -0.0276497 -9.30118e-06 -3.26136e-05 -9.00489e-06 
26.982 1 63 22.4332 4.26033 2.3632 0.949622 0.991631 -0.321695 -0.450435 -0.228881 0.259699 0.000951597 0.00755416 -0.0844208 0.000718217 -0.0010667 -0.0451401 -5.5203e-06 -6.9271e-06 -2.4722e-06 
26.982 1 222 22.3135 2.0641 4.36627 1.74488 0.75463 -3.76362 0.285195 0.580607 -0.294438 -0.019728 -0.0901883 -0.0428341 -0.00494183 -0.0410588 -0.0203535 2.46712e-06 -2.59963e-05 -7.83153e-06 
26.982 1 261 20.1172 4.29241 4.26647 1.88904 -2.46832 -0.800528 0.66695 -0.302253 -0.128424 0.000880748 -0.0115251 -0.00883429 0.000469701 -0.00507152 -0.00511096 9.96273e-06 -6.09202e-06 -4.12044e-06 
26.982 1 23 22.3131 0.234672 2.31208 -3.33457 5.34019 2.0969 0.0978233 -0.0527931 0.0869664 -0.0138072 -0.0716943 -0.0753044 -0.00157649 -0.0340712 -0.0413194 4.85838e-06 -6.34177e-05 -1.12069e-05 
26.982 1 61 20.3628 4.37597 0.411338 2.04973 2.07262 -1.59717 -0.178346 -0.586374 -0.149758 0.0153652 0.00901088 -0.163653 0.00535314 0.00141542 -0.0582345 -1.66332e-06 -7.24518e-06 -6.21119e-05 
26.982 1 22 22.2631 2.19996 0.248168 1.95908 5.91362 1.58809 0.44816 0.297448 0.134389 -0.00716542 -0.0625893 -0.171852 0.000996041 -0.0297511 -0.0678953 6.13464e-06 -2.84265e-05 -6.09154e-05 
26.982 1 28 24.4046 2.31003 2.25056 -0.226681 -4.73729 -1.43839 0.296593 -0.140393 0.142638 -0.0194628 -0.0661989 -0.0677832 -0.0102567 -0.0336862 -0.0395441 1.81594e-05 -3.67216e-05 -2.11786e-05 
26.982 1 27 26.4782 0.188739 2.38585 -2.54043 -1.33892 2.15525 -0.0892166 0.060909 -0.266322 0.0462629 -0.201495 -0.0538722 0.00653673 -0.088629 -0.0319743 -1.74804e-05 -4.339e-05 -3.41949e-05 
26.982 1 67 26.7652 4.18449 2.31302 2.35529 0.938392 0.575571 -0.933859 0.311191 -0.44295 0.00142286 0.00543911 -0.0968548 0.00255384 0.00254067 -0.0529382 -4.6901e-06 -3.5563e-07 -5.48823e-05 
26.982 1 226 26.5864 2.29443 4.40129 4.06385 2.38787 -2.02534 -0.219314 -0.535413 -0.699882 0.0237644 -0.0653357 -0.0154066 0.00269079 -0.0260813 -0.00780204 -1.8198e-05 -2.41448e-05 -1.50785e-05 
26.982 1 265 24.3524 4.26379 4.23308 -0.40071 8.284 0.591917 0.522309 -0.0237252 0.275335 -0.000458906 -0.0060184 -0.0104437 -0.000204978 -0.00342078 -0.00577703 7.29432e-06 -2.78828e-06 1.51068e-06 
26.982 1 65 24.4857 4.30454 0.284518 -0.361579 -3.12395 -2.22864 0.2462 -0.703535 -0.140201 0.0155636 0.0140131 -0.163721 0.00977113 0.00226373 -0.0583192 3.24254e-05 -1.08968e-05 -6.39628e-05 
26.982 1 32 28.548 2.2421 2.2719 6.43324 -2.06129 -0.110178 0.402481 -0.209963 -0.121248 0.00415978 -0.10405 -0.0654522 -0.000939202 -0.0311078 -0.0425332 2.91586e-06 -1.06564e-05 -6.38524e-05 
26.982 1 71 30.7279 4.25855 2.35246 -5.44637 -2.4955 -1.87333 0.404334 -0.145628 -0.371351 -0.0079266 -0.00324043 -0.0572764 -0.00449779 0.00312433 -0.0420218 8.84151e-06 -3.69547e-06 -6.43571e-05 
26.982 1 230 30.757 2.0547 4.2407 4.56754 0.525863 3.47276 -0.147044 0.360423 -0.383261 -0.0145779 -0.0934528 -0.0297387 -0.00515485 -0.0288428 -0.0105441 -4.92959e-09 -2.69924e-06 -1.5672e-05 
26.982 1 269 28.6925 4.18545 4.18594 0.651699 0.339915 -1.08351 0.214232 0.0254472 0.538894 -0.000896569 -0.0104308 -0.00944399 -0.00042308 -0.00307466 -0.00623839 5.82512e-06 9.0031e-07 -9.13234e-07 
26.982 1 273 32.8038 4.11614 4.2559 3.09796 0.0502662 -0.832997 0.162475 0.427641 -0.0157712 0.00147311 -0.00729177 -0.00759002 0.000364948 -0.00153703 -0.00482686 8.85396e-07 7.88208e-06 -6.12875e-06 
26.982 1 229 28.5949 0.225496 4.19219 5.45347 2.21354 -1.17177 -0.00480382 0.0822432 0.29342 -0.00169946 -0.0493321 -0.0324876 -0.00134573 -0.0396451 -0.0213506 -3.21765e-06 -4.50827e-05 -2.09798e-05 
26.982 1 31 30.5073 0.261862 2.06303 2.33855 -2.80307 4.18226 0.859855 -0.0820558 0.259535 -0.0359765 -0.132955 -0.0712683 -0.013819 -0.0728167 -0.0350772 5.45476e-06 -4.16529e-05 -4.85685e-05 
26.982 1 36 32.8623 2.2092 2.10343 -0.658781 2.51137 -2.5154 -0.245122 -0.206935 0.374628 0.00076968 -0.09301 -0.0721824 -0.00180663 -0.025796 -0.0366266 -1.94747e-05 -8.1878e-06 -4.35987e-05 
26.982 1 35 35.074 0.289014 2.04815 -1.27692 -1.00419 2.13139 0.073418 -0.367963 0.715992 0.00929257 -0.196672 -0.087589 0.00825836 -0.0911769 -0.0368548 3.81755e-06 -6.16343e-05 -2.00234e-05 
26.982 1 75 34.8816 4.24009 2.23914 3.06064 1.78649 0.80859 0.297935 0.174028 -0.257664 0.0436312 -0.00132629 -0.124643 0.0123998 0.00532291 -0.0559694 -1.25822e-05 1.6454e-05 -3.88179e-05 
26.982 1 234 35.1145 2.31971 4.15851 -6.56582 3.04167 3.24296 -0.192856 -0.40994 0.00763771 -0.000771558 -0.0556831 -0.0197602 0.0015657 -0.0193784 -0.00764057 -4.60219e-06 -1.63385e-05 -5.61556e-06 
26.982 1 34 34.9796 2.23866 0.331213 -0.194234 2.81772 1.55682 0.18025 0.283015 -0.728921 0.0335217 -0.0222027 -0.135035 0.0139327 -0.00610773 -0.0771954 -1.13269e-05 -1.11007e-05 -6.65332e-05 
26.982 1 233 32.7724 0.134104 4.10937 2.65228 -0.453333 -0.0398029 0.442087 -0.0872488 -0.203892 0.00134722 -0.101372 -0.0460715 0.00028179 -0.057495 -0.0253736 8.0821e-06 -4.63577e-05 -2.88557e-05 
26.982 1 237 37.4478 0.248362 4.20415 3.3548 6.11933 1.47934 -0.612303 0.0564541 -0.281309 0.0282422 -0.112496 -0.0851676 0.0121806 -0.0555839 -0.0387606 7.23207e-06 -4.54919e-05 -3.86149e-05 
26.982 1 277 37.1808 4.24644 4.28702 -1.3372 -6.20249 -1.09067 -0.113611 -0.0603149 -0.433742 0.00186463 -0.00775888 -0.0214026 0.000738139 -0.00281177 -0.0086822 -3.44644e-06 8.29402e-07 -1.00002e-05 
26.982 1 77 37.0104 4.19156 0.15791 -3.93103 -3.77829 -1.5079 0.113656 -0.278869 0.552204 -0.000217715 -0.00170313 -0.00369432 -0.00279149 -4.57802e-05 -0.0119564 -1.38378e-05 6.64289e-06 -6.08358e-05 
26.982 1 241 41.5426 4.28949 4.19377 3.82559 4.99208 -1.41696 -0.304565 -0.228325 0.518146 -0.0965631 -0.0994838 -0.103421 -0.0322205 -0.0339451 -0.0365389 -1.54195e-06 -7.05888e-06 8.80024e-06 
26.982 1 4 41.3794 2.20879 2.2047 -2.4795 -0.802657 -4.06727 0.686227 -0.123453 0.06736 -0.0723681 -0.0988621 -0.110325 -0.0362232 -0.041114 -0.0419673 -1.8486e-06 -5.77239e-05 -3.81254e-06 
26.982 1 40 37.2111 2.30577 2.32592 -0.796471 -2.03898 1.79193 -0.0660525 -0.153927 -0.496949 0.0613613 -0.0742469 -0.158333 0.025849 -0.030382 -0.0640041 7.52646e-06 -3.2348e-05 -2.82836e-05 
26.982 1 79 39.3754 4.07483 2.17229 -4.31652 4.42118 -1.91361 -0.395279 0.547235 0.415249 -0.0257828 -0.0404778 -0.149631 -0.00822161 -0.0161307 -0.0615174 -5.26637e-06 1.07063e-06 -3.56438e-06 
26.982 1 238 39.2618 2.31609 4.28253 0.671256 0.67228 -0.85553 0.339809 -0.11559 -0.260897 0.0037976 -0.0975399 -0.0669011 0.00183831 -0.0380553 -0.0267545 2.01159e-05 -3.08552e-05 -1.8928e-05 
26.982 1 38 39.3181 2.27343 0.206197 -3.74054 1.79696 -3.0998 -0.281279 -0.599776 -0.0824766 0.00421133 -0.0472045 -0.057613 0.00136336 -0.0300403 -0.0364412 -8.66918e-06 -4.96993e-05 -5.08068e-05 
26.982 1 83 1.24228 8.46 2.14569 5.37589 1.93524 1.05648 -0.250308 -0.633269 0.909607 -0.096057 -0.0202028 -0.11459 -0.0395686 -0.0122006 -0.0506856 -1.4635e-05 -1.87969e-05 6.96422e-06 
26.982 1 242 1.14642 6.3289 4.19135 0.462189 -3.18129 1.88914 -0.144871 -0.284493 -0.398708 -0.0960647 0.0241997 -0.0566384 -0.0413399 0.00157115 -0.0238904 -3.24266e-05 -1.75784e-05 -1.90241e-05 
26.982 1 281 -1.08556 8.28889 4.20946 -0.129825 1.98988 0.547179 0.590941 -0.708512 -0.162621 -0.0288149 -0.032087 -0.0381455 -0.0253144 -0.024383 -0.0271327 -2.17315e-05 -4.02495e-05 -2.7573e-05 
26.982 1 285 3.4358 8.03357 4.23263 2.89294 -3.78995 1.42884 -0.206648 0.614721 -0.370848 -0.0134731 0.00024457 -0.0141889 -0.00446117 -0.000172975 -0.0054967 -2.42871e-06 7.20909e-06 -7.57754e-06 
26.982 1 42 1.15649 6.47078 0.212922 5.09132 7.01241 -1.30881 -0.429456 -0.576196 0.00898985 -0.071276 -0.0318906 -0.114348 -0.0382906 -0.0100228 -0.0540685 -2.27328e-05 -1.55291e-05 -4.96184e-05 
26.982 1 81 -0.995722 8.24377 0.332388 0.0931763 -4.89681 0.431588 -0.124361 -0.282134 -0.337674 -0.0648812 -0.0341707 -0.123855 -0.0234045 -0.0160364 -0.0541817 -3.49768e-05 -2.80169e-05 -3.65678e-05 
26.982 1 48 3.15343 6.20215 2.15036 0.453481 -0.557204 -0.291444 0.246142 0.0164243 0.12211 -0.0375667 -0.00369531 -0.106141 -0.0151098 -0.000226398 -0.0422722 -2.10661e-07 -1.67623e-06 -7.16381e-06 
26.982 1 46 5.46995 6.2245 0.361836 2.10276 0.0419221 2.54538 -0.481348 0.150717 -0.429479 -0.0205618 0.00973145 -0.227611 -0.00345646 0.00151525 -0.10141 6.09942e-06 -4.38326e-06 -6.45742e-05 
26.982 1 87 5.57886 8.25585 2.23678 4.24288 2.05765 2.29521 -0.221872 -0.252514 0.119207 -0.00303379 0.0184902 -0.095916 -0.00104991 0.00456079 -0.0369575 -2.72774e-06 -5.14095e-06 -7.37319e-06 
26.982 1 246 5.40656 6.13762 4.11589 4.1997 -4.67643 0.680469 0.300421 0.337583 0.0404951 -0.000363822 -0.000137937 -0.00694181 -5.87853e-05 -0.000281514 -0.00288508 7.25166e-06 7.17979e-06 1.39632e-06 
26.982 1 85 3.17223 8.33344 0.332162 1.09492 -1.60621 6.86151 0.754066 0.103595 -0.0602389 -0.00529015 0.0318232 -0.115061 -0.00271728 0.00785426 -0.0563457 1.53716e-05 3.35259e-07 -6.29854e-05 
26.982 1 52 7.54541 6.0092 2.11407 2.81927 -0.794978 -1.82434 0.237034 0.867473 0.335935 0.014207 0.0162212 -0.080172 0.00488037 0.00254664 -0.0359932 3.9564e-06 -1.04828e-06 -2.14286e-05 
26.982 1 289 7.72234 8.09583 4.1832 -0.968536 0.218448 -2.36157 -0.285141 -0.196057 -0.10049 0.000991266 0.000525562 -0.012163 0.000404755 0.000115155 -0.00451996 -6.15674e-06 -5.93609e-06 -2.07846e-06 
26.982 1 56 12.013 6.21608 2.25157 -2.21142 -2.4983 0.871492 -0.394343 -0.551743 -0.0951793 -0.00242224 0.0392596 -0.106852 0.00375846 0.00957841 -0.0473169 -5.31693e-06 -1.10845e-05 -1.24786e-05 
26.982 1 91 9.81328 8.21484 2.24237 -0.273843 -2.1592 -2.22818 -0.135937 -0.4029 0.237471 0.0196632 0.0145366 -0.137723 0.00576925 0.00480465 -0.0515742 -1.62634e-06 -6.73461e-06 -2.44943e-06 
26.982 1 250 9.84039 6.09774 4.18978 5.05867 0.810383 -2.65318 -0.299567 0.443543 -0.0784998 0.00115877 0.00119192 -0.00872395 0.000423178 0.000177625 -0.00378027 -6.56532e-06 7.54244e-06 -2.84801e-06 
26.982 1 50 9.59182 6.19414 0.214473 -1.14979 -1.46119 0.262056 0.119647 0.169635 -0.070432 0.0173672 0.0275976 -0.156093 0.0047327 0.00317421 -0.0772295 -1.11998e-05 -1.0501e-05 -5.82255e-05 
26.982 1 290 9.60894 10.2221 4.22082 4.72836 1.85514 0.187903 0.476029 0.026596 -0.016643 0.0010343 -0.000394878 -0.0148699 0.000561431 0.000161019 -0.00577876 8.56345e-06 -7.09931e-08 -1.69855e-06 
26.982 1 89 7.7101 8.35263 0.154426 -0.656261 0.917498 2.34737 -0.717564 -0.682912 0.362359 0.00513772 0.0381259 -0.11578 0.00161158 0.00999169 -0.0566405 -1.22044e-05 -1.14187e-05 -6.15809e-05 
26.982 1 293 12.0219 8.17953 4.20235 -1.33814 0.0983373 4.75183 -0.41309 0.476711 0.22278 -0.00100818 0.00102326 -0.0163835 -6.56293e-05 0.000569087 -0.00629812 -7.68355e-06 1.10014e-05 2.44587e-06 
26.982 1 95 13.9395 8.26042 2.19686 5.59414 5.1426 0.776972 0.178413 0.206834 -0.191922 -0.0317003 0.0149744 -0.120625 -0.00656827 0.00466511 -0.0564212 1.39492e-05 2.48241e-05 -4.08997e-05 
26.982 1 254 14.0046 6.24245 4.13261 0.369673 3.03678 3.56575 0.207848 -0.437629 0.270201 -0.000485567 0.000112276 -0.00856183 7.15542e-05 9.1801e-05 -0.00493906 5.01416e-06 -9.65976e-06 1.63806e-06 
26.982 1 60 16.15 6.30276 2.30161 0.751385 6.86428 5.03589 -0.114325 -0.425081 -0.250198 -0.00618301 0.00626645 -0.0679531 -0.00504837 0.00266249 -0.0392409 -4.9447e-07 6.66605e-06 -2.53124e-05 
26.982 1 93 11.8086 7.98918 0.298578 -2.23445 -1.79429 5.25964 0.2283 0.451382 -0.429367 0.00971541 0.00125996 -0.0262907 0.011975 0.00291257 -0.034153 1.73348e-05 1.94353e-05 -6.26767e-05 
26.982 1 54 14.1196 6.26759 0.202527 -1.10394 -5.28872 2.53234 -0.436713 -0.217657 0.238063 -0.0354574 0.0300889 -0.16562 -0.0082726 0.0104719 -0.0589454 1.21614e-05 9.10296e-06 -5.99508e-05 
26.982 1 297 15.9356 8.31505 4.15091 1.78243 2.94159 0.488595 0.750699 -0.196234 0.208723 -0.000161476 0.00158213 -0.00929426 -0.000115092 0.000762128 -0.00517015 1.44574e-05 -1.9965e-06 -3.64142e-06 
26.982 1 99 18.3412 8.15069 2.3134 -8.60132 1.07792 -1.11009 -0.747535 0.684705 0.0790452 0.010545 0.0200046 -0.0925464 -0.0018784 0.00921907 -0.0424361 -2.06382e-05 2.49637e-05 -2.69812e-05 
26.982 1 258 18.142 6.13051 4.22319 1.86056 -3.17794 -4.03276 -0.262845 0.308133 0.145871 0.00077105 0.00144794 -0.00615057 4.32019e-05 0.000283535 -0.00345995 -6.60765e-06 5.62112e-06 4.67004e-07 
26.982 1 298 18.1209 10.3653 4.3928 2.05299 5.44139 -3.19277 -0.025636 -0.256533 -0.386866 0.000475539 0.000823411 -0.0141715 -0.000146911 0.000512252 -0.00684014 -4.84699e-09 -3.17823e-06 -1.1631e-05 
26.982 1 58 18.1444 6.07648 0.300002 -2.67503 1.10234 2.50869 0.0832138 0.330766 0.0870779 0.0198784 0.0169867 -0.187686 0.00235233 0.00140487 -0.0809745 -9.82868e-06 2.02481e-05 -6.17461e-05 
26.982 1 301 20.2651 8.31578 4.38864 4.37612 0.975583 -2.10752 0.118275 0.0151545 -0.175772 0.00117025 0.00116929 -0.0122946 0.000367416 0.000604973 -0.00474259 9.01843e-07 3.38547e-06 -4.1723e-06 
26.982 1 101 20.2488 8.29282 0.341319 4.05841 -5.65562 0.496049 0.333268 -0.443504 -0.121669 0.0275623 -0.00771991 -0.137975 0.00844703 0.00405 -0.0789117 -8.31947e-07 1.81684e-05 -6.83882e-05 
26.982 1 64 20.2331 6.33205 2.33776 0.0617516 2.23314 -1.52758 0.503135 -0.365308 0.0434993 0.0162775 0.0085711 -0.0937463 0.00537831 -0.00338629 -0.0412581 5.22574e-06 -1.63432e-06 -7.382e-06 
26.982 1 103 22.4691 8.21312 2.19879 1.2507 2.20615 -2.59219 -0.0817304 0.326231 0.415869 0.000677445 0.0191845 -0.133475 0.000391155 0.00857559 -0.051278 -1.61815e-06 2.01851e-05 -1.54639e-05 
26.982 1 262 22.3322 6.31812 4.37612 -2.15963 -0.610787 0.188243 0.0781584 -0.255787 -0.398534 1.85088e-05 0.00132703 -0.0116765 6.18171e-05 1.20334e-05 -0.0050399 1.18933e-06 -1.81267e-06 -5.34779e-06 
26.982 1 105 24.4883 8.44291 0.279072 5.89588 -1.79245 -0.117481 0.0660827 -0.72201 -0.0811297 -0.00833305 -0.018649 -0.136589 -0.00172559 -0.00347288 -0.0783851 -6.12748e-06 -1.9745e-06 -6.48918e-05 
26.982 1 305 24.6152 8.17221 4.18319 -0.657222 -0.0292121 -4.43301 -0.33253 0.0154562 0.109342 -0.00067489 0.000813967 -0.0134269 -5.62597e-07 0.000442161 -0.00504335 -6.16655e-06 -4.30397e-07 -2.82195e-06 
26.982 1 62 22.4861 6.09465 0.467409 -1.86425 1.42486 -5.1303 -0.371932 0.925196 -0.648127 0.000509559 0.0336985 -0.115641 0.000637104 0.0025731 -0.0566632 -1.683e-06 1.49011e-05 -6.7251e-05 
26.982 1 68 24.5563 6.22201 2.2402 3.27194 -1.68145 2.90758 0.222941 0.102433 0.192714 0.00129508 0.00800834 -0.110483 0.00275013 -0.00376722 -0.0490016 1.78263e-05 7.54948e-07 -1.96881e-05 
26.982 1 107 26.6232 8.21932 2.28424 -0.236448 -1.36824 4.12121 0.228059 -0.168377 -0.284099 0.0233269 -0.0172285 -0.126167 0.0124639 -0.00689167 -0.0545372 3.99793e-06 -1.61261e-05 -2.5298e-05 
26.982 1 266 26.6226 6.13847 4.27359 -6.36682 0.442693 1.76984 -0.0406405 0.17509 -0.0659059 0.00072877 0.0015456 -0.0129699 0.000345578 0.000353675 -0.00644018 -8.21327e-07 2.82042e-06 -5.04319e-06 
26.982 1 309 28.7104 8.27141 4.1958 -4.9185 2.08093 -1.92646 0.0219904 -0.194501 0.359125 -0.000744199 -0.000111323 -0.0165125 -0.000382 -9.2791e-05 -0.00766973 6.16137e-07 -2.36846e-06 4.63616e-06 
26.982 1 106 26.7266 10.2013 0.210924 -3.93231 -0.763729 -3.35906 -0.12557 0.284365 0.12934 -0.0279044 -0.017217 -0.204517 -0.00997804 -0.00290756 -0.0788715 -1.60512e-05 1.03639e-05 -6.4693e-05 
26.982 1 109 28.6923 8.22856 0.139869 -1.74173 1.61937 -1.59093 0.463198 -0.171052 0.361484 -0.000271812 -0.000979174 -0.00312761 0.000357211 -0.00475189 -0.0114393 4.78525e-06 -3.3238e-05 -6.01591e-05 
26.982 1 72 28.7438 6.19072 2.28832 -4.97962 -3.58443 -0.624144 -0.173104 0.510322 -0.241735 -0.0182716 0.0337664 -0.119366 -0.00438796 0.00736012 -0.0625627 1.10308e-06 -4.95298e-06 -5.15263e-05 
26.982 1 111 30.7567 8.32345 2.21882 -1.36729 -0.240975 0.516754 0.240493 -0.613316 -0.152397 -0.0211641 -0.00569832 -0.106831 -0.00631891 -0.00756906 -0.0517857 1.61818e-05 -2.44559e-05 -3.33886e-05 
26.982 1 270 30.7278 6.1526 4.33318 -1.53665 4.10334 0.776506 0.375726 0.350607 -0.00688596 -0.000173576 0.0015896 -0.00883567 -8.60993e-05 0.000441307 -0.00585818 9.03718e-06 7.10912e-06 -5.16813e-06 
26.982 1 313 33.0189 8.30496 4.31363 -1.97227 3.20391 -3.42989 -0.380157 -0.0471938 -0.152452 0.000728691 0.000403553 -0.0108112 0.000196335 0.000117042 -0.00594424 -7.29704e-06 -7.77417e-07 -6.29664e-06 
26.982 1 116 32.915 10.0824 2.17966 -0.230462 -5.56257 2.4563 -0.0263041 0.696535 0.539871 0.0137206 0.00650006 -0.100058 0.0104494 0.00512751 -0.0547676 1.29855e-05 9.25107e-06 -4.52533e-05 
26.982 1 110 30.793 10.3394 0.183696 -5.61335 -1.12306 -3.2086 -0.056678 -0.484482 0.263962 0.00388325 -0.032403 -0.226889 0.00621187 -0.00836822 -0.101241 3.20151e-05 -6.86588e-07 -6.13186e-05 
26.982 1 76 32.9006 6.41707 2.30788 2.07425 -0.560465 0.586164 -0.092965 -0.378334 -0.12236 0.0186632 0.0182377 -0.0914311 0.00449967 0.00485108 -0.0521785 -2.82303e-06 -5.99515e-06 -5.65996e-05 
26.982 1 115 35.1047 8.352 2.27552 -3.52555 -0.368715 0.824378 0.319149 -0.283899 -0.420187 -0.0199331 -0.0091657 -0.0949094 -0.0105332 -0.000151851 -0.0502767 -4.50788e-06 -8.80883e-06 -5.4267e-05 
26.982 1 274 35.067 6.08615 4.16417 4.5469 -2.15877 -1.69133 -0.0411152 0.22395 0.0483411 0.00212573 -0.00116676 -0.0122856 0.000417438 -0.000399276 -0.00624407 -2.98873e-06 2.2643e-06 -8.88298e-06 
26.982 1 120 37.3904 10.3737 2.25587 -1.10677 -1.82547 -1.00183 -0.314943 -0.498608 0.153588 0.0258214 0.0323881 -0.116232 0.00396708 0.0139816 -0.0536136 -1.17221e-05 -7.26428e-06 -1.25684e-05 
26.982 1 44 41.3871 6.07653 2.28811 -7.32299 -3.92123 2.04345 0.151749 0.694289 -0.528708 0.0146735 -0.103743 -0.113607 0.00398915 -0.0398417 -0.0550467 2.19925e-05 -1.67617e-05 -2.95576e-05 
26.982 1 117 37.3108 8.40949 0.123797 3.43395 -5.38557 -6.9532 -0.55158 -0.0894054 0.455887 0.0152551 0.00809881 -0.226881 -0.00353716 0.00698562 -0.101219 -3.22168e-05 -5.19902e-06 -5.39772e-05 
26.982 1 80 37.313 6.00726 2.19644 1.56871 -5.33271 1.75435 -0.406646 0.554349 0.241569 -0.00383005 -0.0495076 -0.117517 -0.00499908 -0.0195644 -0.0500725 -2.00647e-05 1.3145e-05 -1.91262e-05 
26.982 1 119 39.3405 8.1728 2.19716 0.141204 5.22831 -5.98783 -0.125969 -0.0657113 0.147045 0.0228425 0.0199245 -0.107733 0.0104871 0.00847832 -0.0450613 -5.43563e-06 -1.87973e-06 -7.44865e-06 
26.982 1 278 39.3338 6.2219 4.30351 -2.1315 3.5878 -1.92981 0.118248 0.23996 -0.317197 0.0450106 -0.0459589 -0.0149404 0.015395 -0.0158284 -0.00621301 4.1932e-06 4.98248e-06 -5.79772e-06 
26.982 1 317 37.1039 8.17036 4.18842 2.6559 3.40619 -4.87648 0.595128 0.0292894 -0.0779846 0.000172984 -0.00110807 -0.00834526 -0.000142459 -0.000132034 -0.00385847 1.0216e-05 1.57583e-06 -5.58601e-06 
26.982 1 78 39.1769 6.18048 0.260463 -0.246198 -4.8484 3.46603 0.873871 0.201328 0.132134 -0.00233693 -0.0532082 -0.152562 0.00277405 -0.0213439 -0.0757577 1.51666e-05 -8.94253e-06 -6.38939e-05 
26.982 1 123 1.12901 12.2784 2.17885 2.54928 -0.544212 -2.58009 -0.29254 0.242199 0.169179 -0.0908532 -0.0511623 -0.12648 -0.0394764 -0.0137369 -0.0498445 -3.60551e-05 2.07494e-05 -2.07415e-05 
26.982 1 128 3.30374 14.2749 2.19905 1.0495 -6.37611 5.74729 0.367054 0.332023 0.139726 -0.0115051 -9.08847e-05 -0.0940083 -0.00369651 0.000159498 -0.0392722 3.42845e-07 7.47642e-06 -3.37086e-05 
26.982 1 282 1.23564 10.3184 4.2046 -0.901597 0.143689 -2.34137 -0.476159 -0.179394 -0.0412772 -0.0953586 -0.0115663 -0.0425235 -0.0345722 0.000472202 -0.0141547 -2.25896e-05 6.86705e-06 -7.56038e-08 
26.982 1 322 1.2364 14.3913 4.13329 -1.39336 3.66245 -3.62114 -0.36559 -0.477305 0.0241222 -0.0620292 -0.0253695 -0.0351554 -0.0246907 -0.0117445 -0.0118901 -2.02417e-05 -1.5598e-05 -3.33791e-06 
26.982 1 84 -0.92251 10.1622 2.21275 2.85238 -1.52258 4.05253 -0.174883 0.61858 0.112895 -0.0801115 -0.0398829 -0.16527 -0.0567051 -0.0061142 -0.0604131 -5.98411e-05 2.9719e-05 -3.72006e-06 
26.982 1 124 -1.11963 14.235 2.12113 1.47266 5.23681 1.29263 0.436182 -0.299758 0.311772 -0.0903021 -0.0508094 -0.118493 -0.0593469 -0.0249528 -0.0473488 -3.61694e-05 -1.5827e-05 -3.27911e-05 
26.982 1 82 1.08701 10.3124 0.251779 3.98605 0.435443 -1.70487 0.0679281 0.286378 -0.262455 -0.0917108 0.0401032 -0.0520384 -0.0420288 0.0156991 -0.0434655 -1.53552e-05 2.17117e-05 -6.82076e-05 
26.982 1 86 5.43681 10.2349 0.422139 1.98453 -0.560318 -3.97717 -0.0140895 0.121765 -0.509391 -0.0138995 -0.0209095 -0.137622 -0.00156819 -0.00637048 -0.0788425 -4.11479e-07 2.07171e-06 -6.81184e-05 
26.982 1 286 5.33498 10.1468 4.28392 -2.11283 -0.795537 -2.04073 0.145744 -0.130146 -0.378719 -0.000571205 0.00026602 -0.0105581 -0.000127737 0.000198088 -0.00361307 2.01039e-06 -1.85522e-06 -5.5686e-06 
26.982 1 88 3.32724 10.3868 2.30036 -6.70586 0.43293 -3.21628 -0.0070507 -0.85129 0.088479 -0.0356019 -0.009079 -0.129968 -0.0136973 -0.00444689 -0.0473382 -1.54311e-07 -1.05315e-05 -6.50558e-06 
26.982 1 125 3.37899 12.2611 0.463587 2.17242 0.241688 -1.23455 -0.00996036 0.129478 -0.920365 -0.0216821 -0.0468481 -0.155951 -0.00912154 -0.0105269 -0.0772134 -1.54728e-06 2.40211e-05 -7.12824e-05 
26.982 1 325 3.22378 12.2995 4.13126 0.373093 -0.0184616 1.47649 0.235548 0.0261955 0.488111 -0.00975102 -0.00233994 -0.0122998 -0.0038475 -0.000599501 -0.00443906 5.13688e-07 4.09623e-06 1.11869e-05 
26.982 1 127 5.56657 12.1495 2.30489 0.737654 7.67179 0.294317 -0.0755987 0.283251 0.158173 -0.010542 -0.00423937 -0.0862706 -0.000456165 0.00274249 -0.0361821 1.38839e-06 1.61308e-05 -1.56255e-05 
26.982 1 326 5.42209 14.1799 4.15911 0.643853 -2.80363 2.88247 0.078676 0.0576007 0.408302 8.47909e-05 0.000365601 -0.0089187 0.000245558 -2.99223e-05 -0.00405779 3.53605e-07 5.61978e-07 4.59986e-06 
26.982 1 132 7.52029 14.2338 2.21447 -0.5658 -2.27925 0.395026 0.110275 0.172772 0.201425 0.00855061 0.0186895 -0.09752 0.00270767 0.0049619 -0.0447042 -1.05393e-05 3.33421e-06 -1.87933e-05 
26.982 1 130 9.55252 14.4746 0.0619832 -0.986259 -4.90321 -0.917415 0.334012 -0.323551 0.743691 0.00579769 -0.0146759 -0.115069 0.00372521 -0.0115392 -0.0563916 1.48115e-05 -1.15392e-05 -5.88233e-05 
26.982 1 92 7.68809 10.1763 2.13448 -1.52463 2.09542 -3.51295 -0.0238735 0.207296 0.431667 0.0105062 -0.018212 -0.106207 0.00519454 -0.00397192 -0.0424146 3.94127e-07 4.36008e-06 -3.04694e-06 
26.982 1 329 7.6822 12.143 4.30177 4.47594 -4.49518 3.51758 -0.265973 0.170637 -0.614171 0.000188171 -8.50569e-05 -0.00840832 0.000200069 0.0001272 -0.00401781 -4.20894e-06 3.30641e-06 -1.18357e-05 
26.982 1 131 9.78938 12.292 2.13186 2.71138 -0.526067 4.08697 -0.186309 0.0493047 0.0380823 0.00963552 -0.00494656 -0.102099 0.00701652 0.00012288 -0.0484293 1.49753e-05 1.9192e-06 -2.73191e-05 
26.982 1 330 9.62326 14.1846 4.2384 0.752655 1.05096 -0.0456563 0.306307 0.173867 -0.190219 5.23764e-05 0.00086398 -0.0116099 4.01981e-05 0.000206261 -0.00531778 5.12328e-06 3.8761e-06 -7.16333e-06 
26.982 1 90 9.80713 9.9408 0.144077 1.26128 2.64808 -0.673706 0.201735 1.20212 0.309789 0.00162876 -0.0195621 -0.0973317 0.00396248 0.00102511 -0.0581227 1.86752e-05 2.77205e-05 -6.18082e-05 
26.982 1 129 7.66798 12.3123 0.34474 -4.1271 -0.973706 0.25662 -0.105067 -0.400327 -0.336175 0.0154524 -0.00786139 -0.20479 0.00651345 0.00257225 -0.0789949 -8.60144e-06 3.90435e-06 -6.57628e-05 
26.982 1 96 11.7447 10.3322 2.37243 -0.286214 2.56333 1.15828 0.305708 -0.391244 -0.261738 -0.00209961 -0.0280683 -0.139068 0.00317542 -0.00242046 -0.0607826 1.76191e-05 8.93033e-06 -3.73579e-05 
26.982 1 294 14.0428 10.319 4.23237 1.30539 -1.33971 -0.349298 -0.472847 -0.287861 -0.355425 -0.000270085 0.00162483 -0.0142377 0.000215519 0.000776236 -0.00699706 -7.00532e-06 -2.35117e-06 -1.4514e-05 