ITEM: TIMESTEP
5000
ITEM: NUMBER OF ATOMS
4000
ITEM: BOX BOUNDS pp pp pp
-1.09041 41.5904
0.271592 40.2284
0.270357 40.2296
ITEM: ATOMS mass type id x y z vx vy vz fx fy fz xrad yrad zrad vxrad vyrad vzrad fxrad fyrad fzrad 
26.982 1 3 1.06485 0.457026 2.32531 3.14636 -1.98593 -3.7996 -0.138209 -0.921645 0.137545 -0.0743732 -0.183005 -0.0657619 -0.030841 -0.0764765 -0.0329456 -1.8093e-05 -3.64875e-05 -4.70399e-05 
26.982 1 8 2.95233 2.31467 2.41169 -2.37869 0.0168321 4.65644 0.603796 0.232885 -0.149422 0.0370583 -0.150644 -0.113414 0.0172042 -0.0599601 -0.0495741 1.34366e-05 -1.30205e-05 -6.10424e-05 
26.982 1 43 0.936372 4.40923 2.32817 0.189486 7.50444 -3.39216 0.572452 -0.135442 0.320299 -0.0838983 -0.0644806 -0.149914 -0.0400713 -0.0245614 -0.0500002 -2.82498e-05 -3.03841e-05 -2.95088e-05 
26.982 1 202 1.02961 2.21878 4.41975 -2.02509 -1.08523 4.23587 0.148919 0.197671 -0.0114323 -0.0766603 -0.114568 -0.0794659 -0.0387984 -0.0344177 -0.0294631 -2.67351e-05 7.88271e-06 -1.9698e-05 
26.982 1 205 3.29785 0.314267 4.42707 -3.07609 -1.43423 1.35534 -0.147369 -0.271055 -0.186149 -0.000244274 -0.0344202 -0.0369516 0.00633284 -0.032667 -0.0281517 7.65374e-06 -4.66907e-05 -3.64749e-05 
26.982 1 201 -0.989636 0.220311 4.43715 3.12424 -0.819382 -6.82976 0.0589706 -0.161657 -0.187577 -0.0392832 -0.0982049 -0.0976967 -0.0153398 -0.03993 -0.0399799 -3.00784e-05 -1.46491e-05 -5.03373e-05 
26.982 1 245 3.09073 4.30234 4.28756 -0.986092 0.062954 -0.807542 0.0791359 0.258531 0.144931 -0.00540878 -0.0204642 -0.01914 -0.00286535 -0.00682678 -0.00674866 -1.95945e-06 3.97041e-06 -5.41971e-06 
26.982 1 47 5.27938 4.2733 2.27612 -0.343739 -0.133087 0.318581 -0.283648 0.357583 -0.0683543 -0.0206312 -0.0479006 -0.107494 -0.0017606 -0.0198916 -0.044592 -2.02333e-05 2.88629e-06 -4.69791e-05 
26.982 1 206 5.27226 2.38283 4.19727 -1.92652 0.654757 -4.13997 -0.130417 -0.411948 0.203477 -0.0269181 -0.156337 -0.0807804 -0.000568739 -0.0621385 -0.0331155 -4.2816e-06 -2.45134e-05 -1.74037e-05 
26.982 1 49 7.32403 4.26976 0.297324 -1.52677 4.25485 -3.1509 -0.0165725 -0.129154 -0.130354 -0.00231212 -0.0249306 -0.21709 -0.0012022 -0.0135297 -0.0722383 -2.76769e-05 2.97737e-06 -6.39862e-05 
26.982 1 12 7.22018 2.20803 2.11178 -4.88783 -1.61599 2.69223 0.33677 0.109827 0.289559 -0.0224726 -0.190944 -0.0977179 -0.0105905 -0.0783104 -0.0430781 -2.59816e-05 -2.10424e-05 -1.70345e-05 
26.982 1 249 7.33785 4.32665 4.10818 6.10567 3.63248 4.20346 0.15833 0.31141 0.279617 -0.00103019 -0.0147675 -0.0117915 -0.000342644 -0.00715195 -0.00559538 4.54528e-06 8.37552e-06 2.70351e-06 
26.982 1 51 9.47605 4.20381 2.04803 0.343201 -1.94238 -1.83072 0.0788279 0.431018 0.336237 -0.00318496 -0.0112361 -0.0850593 -0.00200509 -0.00855979 -0.0391424 1.86637e-05 5.03387e-06 -1.71704e-05 
26.982 1 210 9.40509 2.53448 4.2467 0.726642 -5.24997 2.69757 0.351693 -0.402201 -0.195114 -0.000200295 -0.124931 -0.0737718 -0.00367339 -0.0527684 -0.0270118 1.53152e-05 -1.93384e-05 -6.08574e-06 
26.982 1 11 9.48351 0.289989 2.11728 -3.42238 -5.61777 -3.08597 0.0659894 -0.195381 0.624451 0.00223917 -0.0151964 -0.113326 0.00100812 -0.0209253 -0.0440322 2.44829e-05 -6.00602e-05 8.0436e-07 
26.982 1 10 9.29021 2.15166 0.257227 -2.13613 -2.1385 2.21612 0.651763 0.248473 -0.407861 -0.00725114 -0.127234 -0.197936 -0.0056329 -0.04652 -0.0784074 2.83151e-05 -1.47065e-06 -6.60826e-05 
26.982 1 9 7.37355 0.251047 0.100019 0.034708 0.77488 -0.211684 -0.351626 -0.289903 0.276821 -0.00281432 -0.0872017 -0.100884 -0.00500966 -0.0208286 -0.0574507 -2.81169e-05 -3.73951e-05 -3.43262e-05 
26.982 1 209 7.35478 0.306041 4.11707 0.150521 -1.48816 0.193261 0.321236 0.0586543 0.0816642 -0.00545657 -0.135446 -0.137147 -0.00191246 -0.036873 -0.0382655 -7.87063e-06 -4.43499e-05 -3.14912e-05 
26.982 1 16 11.4982 2.19983 2.11303 1.44632 -0.128813 -1.54424 0.2659 0.231293 0.586688 0.0322904 -0.175731 -0.107492 0.0111031 -0.0652441 -0.0479055 3.85252e-05 -2.64688e-05 -2.56908e-05 
26.982 1 253 11.7613 4.34107 4.12303 -0.469131 0.142472 2.75076 -0.327521 -0.15848 0.388814 0.000859276 -0.0143044 -0.0115908 0.000399584 -0.00609865 -0.00565142 -4.14928e-06 -8.47166e-06 -2.63601e-06 
26.982 1 55 13.7158 4.4006 2.28512 -2.67296 -3.0299 -1.33566 0.45389 -0.380559 0.308763 -0.000563331 -0.0498352 -0.118661 0.000122616 -0.0170025 -0.0556872 3.22213e-06 -1.12385e-05 -6.16258e-05 
26.982 1 214 13.891 2.31051 4.3019 1.21952 -0.850817 1.84388 -0.187179 0.0739239 -0.456712 0.0257089 -0.143245 -0.0726709 0.00878475 -0.05549 -0.0268344 -5.23295e-06 -4.23325e-05 -3.731e-05 
26.982 1 20 15.9971 2.51698 2.27752 -3.01492 -0.962625 3.60124 -0.305662 -0.274565 -0.0134834 -0.0676401 -0.184408 -0.0845292 -0.0235021 -0.0708769 -0.0384587 -1.62767e-05 -4.25735e-05 -4.2825e-05 
26.982 1 257 15.9105 4.42404 4.37139 0.265095 3.28069 -0.1052 0.0660734 -0.470484 -0.506412 -0.00199273 -0.0201782 -0.0106262 -0.000660148 -0.00787479 -0.00537264 3.48536e-07 -8.14573e-06 -1.62022e-05 
26.982 1 218 17.9135 2.40457 4.41202 -2.88431 0.601722 -0.0596342 0.463337 -0.136124 -0.174511 -0.0151952 -0.135052 -0.0392183 -0.0063867 -0.0537322 -0.0169693 -5.54524e-06 -3.18521e-05 -2.34499e-05 
26.982 1 18 18.4118 2.27291 0.261608 0.0719865 -0.712888 -1.41999 -0.53959 0.189036 -0.0541852 -0.0106604 -0.0985405 -0.243629 -0.00327534 -0.0382227 -0.0974711 -2.89859e-06 -1.59944e-05 -4.36371e-05 
26.982 1 59 18.1733 4.10935 2.34101 -4.61296 -4.45845 -1.63688 0.268048 0.406305 -0.183583 0.00850318 -0.00569795 -0.0726345 0.00297673 -0.00175063 -0.0351007 6.22554e-06 1.13422e-05 -4.64446e-05 
26.982 1 261 20.3262 4.33696 4.34487 3.38295 -2.99802 2.87261 -0.262044 -0.158457 -0.174206 0.00108704 -0.0142511 -0.0114257 0.000409126 -0.00576112 -0.0054674 -5.06356e-06 -1.37332e-06 -9.13164e-06 
26.982 1 221 20.0966 0.380081 4.24322 -2.43008 5.65818 -0.629964 0.286783 -0.327705 0.18656 -0.0233673 -0.0862509 -0.0742513 -0.00788816 -0.0365654 -0.0339562 -1.93699e-05 -4.80216e-05 -3.29352e-05 
26.982 1 24 20.4256 2.1249 2.36894 -0.320431 -0.847273 0.0282534 -0.711729 0.619091 -0.665202 0.0177569 -0.140116 -0.0575077 0.00739875 -0.0543395 -0.0311488 -1.59615e-05 -1.01003e-05 -5.10013e-05 
26.982 1 63 22.2 4.23677 2.26542 -2.61955 -0.711571 4.15944 0.396361 0.37286 0.245781 0.00138539 0.00687683 -0.107592 0.000961321 -0.0015995 -0.0494652 3.19337e-06 7.71493e-06 -6.16969e-05 
26.982 1 222 22.3894 2.25216 4.14732 2.67105 -2.76781 4.91639 0.263199 0.0137266 0.470742 -0.0221752 -0.112042 -0.053167 -0.00485874 -0.0454606 -0.021176 6.55918e-06 -5.17116e-06 -4.22811e-06 
26.982 1 23 22.29 0.129438 2.15992 -0.543778 -1.48155 -0.849396 0.558718 0.298436 0.0426438 -0.0145569 -0.091408 -0.0965242 -0.00144174 -0.0441567 -0.0449648 5.41574e-06 -4.71529e-05 -4.20377e-05 
26.982 1 28 24.361 2.27344 2.23277 5.37861 2.48279 -5.21449 0.438629 -0.458633 0.302861 -0.0239953 -0.084533 -0.0886436 -0.00785428 -0.0390541 -0.0454054 1.96358e-05 -1.73731e-05 -5.71075e-05 
26.982 1 265 24.5787 4.29659 4.28541 0.60778 1.18268 -0.34608 -0.070861 -0.13373 -0.0635348 -0.000510587 -0.0079772 -0.0134411 -4.59951e-05 -0.00412722 -0.00642088 1.03684e-06 -2.3036e-06 -1.01915e-05 
26.982 1 67 26.6122 4.22072 2.27624 5.51024 -0.967044 1.50532 0.221425 -0.00992584 0.319919 0.00325785 0.00656567 -0.125598 0.00444859 0.00203711 -0.0624837 1.68915e-06 -4.72989e-06 -6.03191e-05 
26.982 1 226 26.7727 2.37159 4.30238 0.707532 -2.03344 4.82031 -0.303763 -0.393207 0.00407753 0.0246601 -0.0792408 -0.0196983 0.00182746 -0.0300917 -0.00986791 2.25826e-06 -3.43807e-05 -2.24188e-05 
26.982 1 32 28.7778 2.15334 2.30139 -1.15002 3.20224 -2.86246 0.216252 0.278947 0.0500735 0.00359093 -0.120049 -0.0893581 -0.00163806 -0.0342551 -0.0521053 -1.00818e-05 -4.02771e-05 -3.46736e-05 
26.982 1 269 28.8599 4.30148 4.35596 2.90307 -1.39905 -0.970943 0.00879986 0.119521 -0.239205 -0.00110711 -0.0120098 -0.0128872 -0.000409343 -0.00342143 -0.00763716 -1.36647e-06 -9.55066e-07 -1.14872e-05 
26.982 1 225 24.4967 0.167588 4.29294 1.74184 -2.82944 0.428764 -0.103414 0.526871 -0.467751 -0.0233006 -0.160469 -0.0958003 -0.00723622 -0.053017 -0.0354081 1.55565e-05 -3.42222e-05 -4.64856e-05 
26.982 1 71 30.9725 4.16979 2.38339 7.00769 0.103411 -1.07462 -0.181264 0.193279 -0.280049 -0.0101427 -0.00166522 -0.0809943 -0.00446256 0.00350786 -0.0523511 -3.42401e-06 1.21802e-05 -4.76421e-05 
26.982 1 230 30.9511 2.30217 4.32609 -5.0019 1.48634 0.943368 0.152964 -0.591924 -0.193717 -0.0172355 -0.10824 -0.0354539 -0.00596198 -0.0312807 -0.0127349 -6.73174e-06 -3.45752e-05 -1.93914e-05 
26.982 1 233 33.3546 0.260588 4.25199 -3.64719 5.61498 2.45748 -0.619765 -0.00640972 -0.0225166 0.00143687 -0.13211 -0.059807 -0.000364278 -0.065481 -0.0300195 -1.41872e-05 -4.0459e-05 -3.23762e-05 
26.982 1 30 30.8326 2.32669 0.155026 5.67347 3.98372 4.15621 0.23691 -0.130126 0.383523 -0.0160829 -0.104669 -0.240616 -0.00876855 -0.0251442 -0.0856917 -7.02777e-07 -1.22047e-05 -4.15477e-05 
26.982 1 273 33.2141 4.24334 4.19632 6.06775 4.05337 0.481949 -0.18191 -0.0981173 0.250601 0.00160361 -0.00803357 -0.0103086 0.000315897 -0.00144021 -0.00603713 -2.92618e-06 -2.4507e-06 -4.80427e-06 
26.982 1 36 32.9971 2.1478 2.30275 1.11076 -1.55761 -1.09562 0.248348 0.275511 -0.0189307 -0.000699522 -0.106231 -0.0927202 -0.00353182 -0.0276578 -0.0456634 2.51283e-06 -2.00597e-05 -4.96033e-05 
26.982 1 35 35.3731 0.26453 2.36847 -4.07694 -2.07637 -0.0210957 0.100127 0.288115 -0.351983 0.0135517 -0.244898 -0.107452 0.00906864 -0.101302 -0.0426885 1.39282e-05 -4.08053e-05 -3.55702e-05 
26.982 1 75 35.3436 4.29197 2.26442 -3.33547 3.0973 0.591314 -0.236442 -0.199828 0.0807161 0.0491654 0.00182038 -0.154244 0.00987204 0.0062951 -0.0622845 -1.54496e-05 -2.35878e-05 -3.33712e-05 
26.982 1 234 35.3651 2.42192 4.36743 0.306154 1.17353 4.63487 -0.0164688 -0.438147 -0.193193 8.20313e-05 -0.0657558 -0.0238133 0.00215122 -0.0212286 -0.00861302 9.00583e-06 -2.08471e-05 -1.03474e-05 
26.982 1 277 37.4515 4.37539 4.37146 -0.464684 0.149163 0.692674 -0.229604 -0.372765 -0.0493837 0.00225829 -0.00917852 -0.0258173 0.000823027 -0.00306932 -0.00906295 -2.5286e-06 -9.86164e-06 -3.12439e-06 
26.982 1 77 37.4349 4.3015 0.296396 3.57093 -0.80829 2.4726 -0.00804364 -0.268712 -0.353268 -0.00220016 -0.00148798 -0.0124443 -0.00415456 5.79584e-06 -0.022983 1.12451e-05 -1.9405e-05 -6.37607e-05 
26.982 1 40 37.4266 2.25081 2.35974 1.0317 -3.2586 -1.25584 0.110772 -0.0314941 -0.149928 0.0748721 -0.0909976 -0.191464 0.0283127 -0.0370703 -0.0688668 1.4579e-05 -4.54181e-05 -2.87338e-05 
26.982 1 41 41.629 4.24947 0.57159 -2.44484 -2.46237 3.88034 -0.313473 0.190365 -0.987302 -0.0458121 -0.069106 -0.118573 -0.0221341 -0.0292128 -0.0504593 -1.36449e-05 -1.18277e-05 -7.33786e-05 
26.982 1 241 41.7045 4.34296 4.4835 0.832117 1.86021 3.46863 -0.0522538 0.00574526 -0.149201 -0.112735 -0.116698 -0.121767 -0.0324129 -0.0347391 -0.0368899 -7.98678e-07 4.01814e-07 -4.27055e-06 
26.982 1 4 41.6854 2.32653 2.3936 -1.1871 5.07941 -0.551563 0.0140375 -0.129616 0.0813227 -0.0910159 -0.121523 -0.131918 -0.0384428 -0.0489419 -0.0457552 -1.58997e-05 -3.7058e-05 -4.33667e-05 
26.982 1 79 39.4285 4.20628 2.35864 -0.0456131 1.08927 -1.79684 0.0960071 0.00857545 -0.0528203 -0.0298813 -0.048843 -0.18091 -0.00826767 -0.0172547 -0.0646573 5.46785e-07 -7.48739e-06 -3.34201e-05 
26.982 1 238 39.8295 2.32513 4.44937 -0.563095 -0.41633 -1.49069 -0.752154 -0.245441 -0.160894 0.00515485 -0.118111 -0.0810578 0.00267666 -0.0442081 -0.0300012 -2.37176e-05 -3.17203e-05 -2.40769e-05 
26.982 1 83 1.101 8.13424 2.33768 5.24831 0.00478063 5.71933 -0.180977 0.289187 -0.0303563 -0.1167 -0.0267883 -0.140332 -0.0434164 -0.0138001 -0.0522204 -3.23541e-05 2.66001e-06 -1.24322e-05 
26.982 1 242 1.07043 6.41366 4.43328 2.99576 1.0062 1.26226 0.153676 -0.481103 -0.0218818 -0.118096 0.0244969 -0.0691184 -0.0467923 7.75134e-05 -0.0256875 -2.98905e-05 -6.61151e-06 -4.83353e-06 
26.982 1 285 3.11062 8.32588 4.42079 1.16199 -3.29514 2.60415 0.195902 -0.0559971 -0.320702 -0.0157784 0.000191502 -0.0169774 -0.00477663 -0.000240321 -0.00561316 1.88041e-06 -1.65722e-06 -6.8443e-06 
26.982 1 42 1.12211 6.20545 0.172851 6.08813 -1.62534 -1.16269 -0.174342 -0.158528 0.81338 -0.0911883 -0.0370364 -0.143723 -0.0412357 -0.0111133 -0.0636785 -1.88393e-05 -1.65706e-05 -5.51171e-05 
26.982 1 48 3.13946 6.26138 2.27085 -1.54345 6.45776 0.748992 0.0808374 -0.0595668 0.179452 -0.045194 -0.00388074 -0.127771 -0.0149778 -0.000943074 -0.0451878 1.21884e-05 -1.66327e-05 -2.98368e-05 
26.982 1 85 3.171 8.21809 0.160785 5.52056 -1.48107 -3.322 0.169255 0.2343 0.434292 -0.00661339 0.0357081 -0.146051 -0.00215353 0.00705757 -0.0675287 1.11863e-05 -8.44552e-06 -5.93175e-05 
26.982 1 44 -1.18682 6.18256 2.44457 2.88297 6.08023 2.66132 0.180409 0.30573 0.0320789 0.0171959 -0.124846 -0.142149 0.00336814 -0.0439128 -0.0585104 -5.18558e-05 -1.73053e-06 -1.00223e-05 
26.982 1 87 5.0779 8.27974 2.24109 4.31314 -3.64002 -0.711821 0.398887 0.204529 0.224596 -0.00359405 0.0207097 -0.114867 -0.00103034 0.00378498 -0.0392856 5.92282e-06 -1.01197e-05 -1.85468e-05 
26.982 1 246 5.2399 6.39386 4.4047 -6.63081 2.65402 -1.1815 -0.0680847 -0.342067 -0.480344 -0.00040016 -0.000251469 -0.00842534 -0.000182221 -0.000213294 -0.00323206 -3.21602e-08 -5.47359e-06 -1.16729e-05 
26.982 1 52 7.41248 6.41423 2.19525 -1.7751 -2.57386 -0.78104 -0.146808 -0.377995 0.648916 0.0165824 0.0169472 -0.0991942 0.00415775 0.000815851 -0.0399818 -1.55934e-05 -4.2743e-06 -8.68035e-06 
26.982 1 289 7.33296 8.38369 4.29045 -1.88067 -3.42179 2.16382 0.189789 -0.353638 0.053875 0.00119037 0.000600642 -0.0144295 0.000412665 8.99115e-05 -0.00461738 4.44977e-06 -8.71077e-06 -1.23896e-06 
26.982 1 89 7.43111 8.2615 0.328241 3.35351 2.36629 2.02928 -0.153045 0.363104 -0.116341 0.00596413 0.0429972 -0.146975 0.00159814 0.00969999 -0.0680051 -5.95534e-06 1.50371e-05 -6.07392e-05 
26.982 1 286 5.26151 10.4122 4.35974 3.81309 -1.06237 0.037329 -0.197432 -0.482719 -0.367604 -0.000633561 0.00038653 -0.0123774 -8.077e-05 0.000251525 -0.0036816 -4.19724e-06 -8.81303e-06 -7.90921e-06 
26.982 1 88 3.07048 10.3969 2.32119 0.264965 -4.18149 -3.10596 0.109897 -0.425632 0.207858 -0.0425027 -0.0112359 -0.154061 -0.0141312 -0.00428034 -0.049096 -3.74693e-06 -4.96379e-06 -6.90374e-06 
26.982 1 92 7.33878 10.3149 2.39899 -4.36709 3.10415 1.60691 0.110683 -0.209303 -0.273369 0.013177 -0.0201106 -0.127892 0.00586477 -0.00307724 -0.0452918 1.32861e-05 7.71149e-06 -3.81879e-05 
26.982 1 91 9.59001 8.25568 2.30932 2.2527 0.458656 1.17306 -0.597858 0.197286 -0.33425 0.0225971 0.017051 -0.164045 0.00597643 0.00568677 -0.054118 -1.04606e-05 1.34541e-05 -2.32037e-05 
26.982 1 250 9.63294 6.14741 4.27436 -1.61301 0.493026 0.503593 -0.462961 0.094216 0.151218 0.00131829 0.00127981 -0.0106397 0.000271274 0.000265707 -0.00390192 -9.54198e-06 1.1317e-06 4.35422e-06 
26.982 1 50 9.36642 6.3303 0.15405 -0.0232648 2.41733 -2.71076 0.605507 -0.252714 0.161975 0.0192795 0.0287479 -0.197574 0.00382104 0.00146339 -0.0885981 1.5717e-05 -9.04399e-06 -6.26853e-05 
26.982 1 290 9.51573 10.3489 4.11397 -0.988666 3.40921 -1.83503 0.0435782 -0.245174 0.428076 0.00129395 -0.000308753 -0.0178276 0.000542878 0.000239292 -0.0062467 -2.49044e-07 -3.1185e-06 1.12443e-06 
26.982 1 93 11.6973 8.20038 0.180235 0.648402 -0.584083 1.09609 -0.133854 0.238703 0.348977 0.0163208 0.00337161 -0.0461826 0.0140739 0.00498417 -0.0453567 6.06407e-06 -4.46188e-07 -6.37668e-05 
26.982 1 56 11.5503 6.40879 2.15255 -3.93897 -0.284472 2.52409 0.196424 -0.702849 0.0608094 -0.000421092 0.0440565 -0.131098 0.00464416 0.00897262 -0.0505274 1.82612e-05 -2.46609e-05 -3.41024e-05 
26.982 1 293 11.5818 8.21085 4.13044 -3.19007 0.401654 1.97105 0.228116 0.340825 0.680564 -0.00100026 0.00135439 -0.0196555 -4.80099e-05 0.000727736 -0.00670941 2.31503e-06 3.97366e-06 7.98563e-06 
26.982 1 95 13.8616 8.34962 2.28622 -2.18558 2.7361 -1.02715 -0.302866 -0.107653 0.0463061 -0.0344994 0.01786 -0.150486 -0.00453979 0.00591411 -0.0630174 1.31145e-05 -1.57018e-05 -3.83391e-05 
26.982 1 254 13.8022 6.31321 4.27916 2.40124 -0.371626 0.150015 -0.0872235 0.0932811 -0.159591 -0.000446893 0.000183155 -0.0111592 0.000176049 9.90222e-05 -0.00557424 -2.5327e-06 1.19876e-06 -9.65313e-06 
26.982 1 60 15.9938 6.2642 2.25576 -0.278676 -7.18016 -0.114088 -0.0262115 0.0251381 0.187887 -0.00873826 0.00814351 -0.0887975 -0.00515934 0.00429524 -0.045467 2.7306e-07 -4.63653e-07 -6.29879e-05 
26.982 1 297 15.9901 8.32435 4.16284 2.98444 -2.81685 2.45805 0.123539 0.0620572 0.266223 -0.000226131 0.00199809 -0.012121 -5.53435e-05 0.000853192 -0.00616913 4.26318e-06 1.96563e-06 -4.06669e-06 
26.982 1 294 13.756 10.1736 4.3109 -1.54423 -4.05976 -1.40411 0.0656685 0.157057 -0.190894 -0.000138362 0.00203778 -0.0180207 0.000293087 0.000817103 -0.00805755 9.0954e-07 6.01476e-07 -5.99965e-06 
26.982 1 94 13.6486 10.377 0.346018 1.05784 -2.18138 3.25943 0.34825 -0.275112 -0.330335 -0.0197711 -0.0182497 -0.134114 -0.0052304 -0.00536429 -0.0478362 1.40972e-05 6.19353e-06 -6.66226e-05 
26.982 1 99 18.1941 8.29133 2.31016 -1.65534 5.83682 -1.9819 -0.482194 0.257862 -0.31371 0.00908922 0.0252164 -0.115403 -0.00405599 0.0111409 -0.0495895 -2.15359e-05 3.75343e-06 -5.07178e-05 
26.982 1 258 18.0689 6.17649 4.18898 2.77202 -0.401881 3.63652 0.208915 0.318231 0.317103 0.000785766 0.00163374 -0.00794031 4.70723e-05 0.000404189 -0.00391878 3.0659e-06 4.43896e-06 -4.2299e-06 
26.982 1 301 20.2404 8.31965 4.33632 -2.73163 -3.39126 0.644137 -0.207337 -0.165075 -0.334674 0.00129748 0.00150093 -0.0147528 0.000175368 0.000636145 -0.00515272 -6.54513e-06 -5.69861e-06 -6.79374e-06 
26.982 1 101 20.3238 8.3675 0.280596 0.510762 0.356151 6.32196 -0.419462 -0.043617 0.0783419 0.0315941 -0.00473151 -0.180293 0.00736783 0.0066122 -0.0902507 -1.84775e-05 -1.04177e-05 -6.59172e-05 
26.982 1 64 20.1804 6.49362 2.24344 0.0902159 0.947289 3.46834 0.217059 -0.90329 0.306278 0.0189369 0.0069049 -0.114935 0.00531609 -0.0038211 -0.0449224 -3.18013e-07 -2.96983e-05 -4.34927e-05 
26.982 1 103 22.2494 8.32828 2.26563 -2.2669 2.17029 3.80786 0.667769 0.115263 0.290395 0.000925131 0.0240092 -0.160219 0.00108015 0.00967778 -0.0561593 2.32122e-05 -1.37088e-05 -2.8569e-05 
26.982 1 262 22.382 6.3034 4.25161 1.46176 3.95083 1.91416 0.0549008 -0.30582 -0.148438 8.77608e-05 0.00135016 -0.0142585 0.000253124 8.37206e-05 -0.00541915 2.16949e-06 -5.85704e-06 -1.00037e-05 
26.982 1 305 24.7503 8.17814 4.15152 -2.57891 5.21183 1.6389 -0.830101 0.246516 0.315191 -0.000680964 0.00103952 -0.0160295 -2.9152e-05 0.000472503 -0.00557584 -1.40637e-05 3.80941e-06 -3.73879e-06 
26.982 1 302 22.3003 10.3124 4.30159 -1.36044 1.40594 0.895875 0.591099 -0.00964074 -0.263926 -0.000431695 0.000486012 -0.0227306 5.36989e-06 0.00029369 -0.00827391 1.58183e-05 -2.62006e-06 -6.50245e-06 
26.982 1 102 22.3562 10.2178 0.246553 1.17383 0.495867 -5.61517 0.355788 0.65989 0.32824 0.0107378 0.00715089 -0.0499749 0.00433903 0.00270721 -0.0234995 2.92433e-06 7.59151e-06 -5.81169e-05 
26.982 1 68 24.3929 6.19152 2.33436 12.728 6.14201 -3.90413 0.179872 0.139701 0.00570324 0.00320753 0.00610489 -0.136172 0.00470177 -0.0037428 -0.0551366 1.81337e-06 -1.92474e-06 -6.30643e-05 
26.982 1 107 26.6433 8.24819 2.19749 -1.17483 0.213271 4.30073 0.33309 0.435469 -0.339714 0.0295633 -0.0212871 -0.154603 0.012425 -0.00956391 -0.0600031 1.29387e-06 -1.29605e-05 -5.75755e-05 
26.982 1 266 26.9029 6.4235 4.0809 0.522589 2.13801 1.56375 -0.556447 -0.70479 0.689025 0.000968607 0.00168792 -0.0164328 0.00048619 0.000297726 -0.00753219 -8.59772e-06 -1.29695e-05 -3.75101e-07 
26.982 1 108 24.5537 10.2386 2.10928 0.0784898 -4.7805 2.09895 -0.23719 -0.00385038 0.213843 -0.0394795 0.0293599 -0.16833 -0.0124224 0.0125792 -0.062913 -4.58124e-06 -1.55842e-05 -2.35463e-05 
26.982 1 309 28.9035 8.18957 4.28237 -7.12472 -2.1628 2.70655 0.075829 0.787492 -0.305811 -0.000888054 -0.000234622 -0.02046 -0.000370582 -0.000363928 -0.00826396 1.03525e-06 1.14904e-05 -1.10156e-05 
26.982 1 72 28.8161 6.25749 2.18004 0.754407 4.07069 -1.00213 0.140977 0.0795638 0.361336 -0.0203823 0.0368289 -0.15284 -0.00412706 0.00538848 -0.0717824 7.64796e-06 -5.63564e-06 -6.25084e-05 
26.982 1 111 30.9315 8.34523 2.15392 1.22392 1.32209 -3.85684 -0.017417 -0.397405 0.322996 -0.0237468 -0.0101864 -0.134427 -0.00456374 -0.0103087 -0.058942 -1.89092e-06 -2.65384e-05 -4.66697e-05 
26.982 1 270 30.9987 6.29808 4.37577 -1.09824 -0.688312 -5.71537 -0.176678 -0.0231337 -0.645823 -0.000183787 0.0017554 -0.0120673 -5.30356e-06 0.000323561 -0.00715093 -1.86337e-06 -1.58845e-06 -1.88341e-05 
26.982 1 112 28.6954 10.336 2.27052 -0.930592 -2.62015 2.40019 0.382532 -0.168379 0.314539 -0.00809011 -0.047845 -0.113777 -0.00438978 -0.0139256 -0.0475133 6.32403e-06 -2.68762e-06 -2.68085e-05 
26.982 1 310 31.0438 10.1109 4.23294 5.8006 -5.27804 6.74337 -0.567187 0.636986 -0.0968387 -0.000378539 -0.000285269 -0.00933983 0.000314262 -9.98399e-05 -0.0043909 -1.05002e-05 8.57661e-06 -5.56873e-06 
26.982 1 313 33.1513 8.31862 4.156 -2.83653 -2.05231 0.268845 0.0384906 -0.50093 0.198014 0.000873359 0.000425901 -0.0140658 0.000194245 -1.3108e-06 -0.00704177 4.5264e-07 -1.08114e-05 -5.01628e-06 
26.982 1 116 32.978 10.2836 2.30125 1.24957 5.85942 -1.34989 0.362161 0.279147 -0.450046 0.0194677 0.00908677 -0.12967 0.0120698 0.00524578 -0.0630852 6.79918e-06 3.01104e-06 -4.0623e-05 
26.982 1 76 33.1501 6.19666 2.32789 3.7521 4.2551 1.75371 -0.140694 0.165146 -0.0528134 0.0208394 0.0206361 -0.1202 0.00385376 0.00485397 -0.062434 -1.83959e-05 2.3143e-06 -4.71277e-05 
26.982 1 115 35.3413 8.24677 2.19238 4.10794 -3.17559 0.260687 -0.277789 0.0944797 -0.0680245 -0.0258066 -0.00926716 -0.122178 -0.0129204 -0.000283785 -0.0577024 -1.73928e-05 1.38999e-06 -2.51748e-05 
26.982 1 274 35.4015 6.34599 4.21822 -3.7542 -5.55713 1.42656 -0.401623 -0.206937 0.205773 0.00225112 -0.00130546 -0.0156338 9.79622e-05 -0.00035692 -0.00705726 -8.34501e-06 -3.51386e-06 1.64388e-06 
26.982 1 117 37.5017 8.31958 0.271432 3.83793 0.656713 0.253839 -0.201859 -0.101305 0.00750049 0.0124478 0.0116123 -0.280336 -0.00573085 0.00703514 -0.112514 2.5316e-05 -3.54105e-07 -6.13843e-05 
26.982 1 80 37.3528 6.25749 2.17317 3.46559 0.310814 0.752502 0.355117 0.246934 0.358404 -0.00683282 -0.0592249 -0.143541 -0.00598949 -0.0194877 -0.0540087 1.99251e-05 3.4229e-06 -1.80789e-05 
26.982 1 317 37.3804 8.29644 4.43321 -3.34732 2.24807 -1.99363 0.188895 -0.285835 -0.452578 3.31099e-05 -0.00119077 -0.0103488 -0.000388358 -0.000109569 -0.0042755 3.9012e-06 -5.6462e-06 -7.62929e-06 
26.982 1 314 35.1647 10.2705 4.10799 0.346231 1.14858 -5.18748 0.0341135 0.34011 0.383209 -8.71494e-05 0.000895248 -0.0150003 -0.000293519 0.000337395 -0.00763981 -2.22535e-06 9.09539e-06 3.14476e-06 
26.982 1 74 35.1829 6.22036 0.272543 6.47667 1.28008 -0.861829 0.147814 0.197624 -0.153333 0.0325793 -0.0233448 -0.134732 0.00932528 -0.00767451 -0.0482791 -2.44624e-05 -1.78466e-06 -6.47075e-05 
26.982 1 281 41.6362 8.12535 4.41296 -1.23437 -1.47363 -0.775335 -0.190244 0.614395 -0.492648 -0.0426857 -0.0456011 -0.0528877 -0.0291122 -0.0285594 -0.0310152 -3.08665e-06 7.96092e-06 -1.37273e-05 
26.982 1 119 39.5093 8.18538 2.5394 -2.96037 1.66142 -1.01509 -0.00700469 -0.306524 -0.301703 0.0281097 0.0241456 -0.130863 0.0109653 0.00852931 -0.0488448 1.29263e-05 -7.22564e-07 -4.91172e-05 
26.982 1 278 39.48 6.12647 4.51066 -3.67893 -1.47486 -3.90598 -0.0325385 0.478681 -0.330386 0.0527778 -0.0539697 -0.0181208 0.0155927 -0.0161503 -0.00674999 -2.00648e-06 5.26102e-06 -8.12986e-06 
26.982 1 318 39.4775 10.2778 4.22688 1.92828 0.110554 -0.188995 0.00418274 -0.0174886 0.553818 0.0263969 -0.0208859 -0.0246075 0.0153332 -0.0128761 -0.00912961 5.3431e-06 -3.91835e-06 1.93356e-06 
26.982 1 123 0.884591 12.24 2.23915 -7.71303 4.60608 -0.536966 0.611114 0.267604 0.602381 -0.111951 -0.0574285 -0.152521 -0.0449743 -0.0117899 -0.0546103 -2.95012e-05 2.21986e-06 -3.08531e-05 
26.982 1 282 0.941175 10.18 4.43475 -0.807272 0.925628 -1.70953 0.080374 0.349489 -0.27568 -0.113491 -0.0109095 -0.0497378 -0.0384256 0.0012992 -0.0152136 -3.31376e-05 -4.70601e-06 -2.40522e-05 
26.982 1 322 1.01467 14.4174 4.32041 2.52966 4.02956 2.5962 0.29916 -0.431652 -0.162838 -0.0750911 -0.0317369 -0.0414032 -0.0271102 -0.0132256 -0.0130772 4.43223e-07 -9.96201e-06 -1.40449e-05 
26.982 1 124 -1.12918 14.2544 2.44733 -2.10653 -6.42385 2.68229 0.255374 -0.218895 -0.806839 -0.121938 -0.0639514 -0.143789 -0.0672108 -0.0273268 -0.0542679 -4.20886e-05 -5.14874e-06 -5.53809e-05 
26.982 1 82 0.964438 10.0827 0.380539 -5.55253 3.14568 0.71174 0.145358 0.251141 -0.068882 -0.113604 0.0485523 -0.0764646 -0.0463832 0.0177882 -0.0537994 -4.05092e-05 6.07064e-06 -4.69406e-05 
26.982 1 321 -1.26924 12.3496 4.40709 0.253461 -0.867149 0.667913 0.676515 -0.2143 0.10937 -0.0634524 -0.0423023 -0.0568052 -0.0225522 -0.0169669 -0.0221064 -1.49562e-05 -4.04431e-05 -3.39625e-05 
26.982 1 128 3.2443 14.4471 2.18933 1.27248 -1.22908 1.47854 0.178327 -0.453124 0.323178 -0.0134767 0.000154808 -0.115158 -0.00453198 0.00115818 -0.045288 -1.5094e-05 6.14016e-06 -3.70237e-05 
26.982 1 86 5.31276 10.3826 0.370791 -1.59439 6.46216 -3.23134 -0.234641 -0.626923 -0.223676 -0.0146797 -0.0239575 -0.179887 -0.00104283 -0.00562126 -0.0901815 1.43545e-05 2.97298e-06 -6.20374e-05 
26.982 1 125 3.19377 12.2998 0.378679 -2.23046 1.17251 4.41034 -0.119317 0.220491 -0.274817 -0.0264015 -0.0510983 -0.197399 -0.0101309 -0.00693277 -0.0884474 -1.7054e-05 1.61432e-05 -6.15529e-05 
26.982 1 325 2.95632 12.4327 4.29125 -0.207545 0.537325 0.604063 0.209562 -0.0282734 -0.375565 -0.0118174 -0.00260974 -0.0145987 -0.00433342 -0.000465858 -0.00476522 -1.57506e-06 -2.7599e-07 -1.22198e-05 
26.982 1 127 5.35983 12.3215 2.29663 -0.957149 6.2344 1.23074 -0.276125 0.148382 0.181471 -0.0107553 -0.00233908 -0.105389 0.000138883 0.00464583 -0.0402463 4.0509e-06 1.92923e-06 -1.74619e-05 
26.982 1 326 5.25139 14.3352 4.24826 4.91252 -3.13396 -5.19818 0.225258 0.266577 -0.333018 0.000190412 0.000387168 -0.0111122 0.000261442 -2.79295e-05 -0.00473659 3.5395e-06 3.87332e-06 -7.04375e-06 
26.982 1 126 5.55685 14.276 0.326496 -2.32973 -2.93069 4.78372 -0.450713 -0.0615768 -0.333455 0.0190696 0.00137437 -0.186343 0.00946723 -0.000132393 -0.0690189 -8.67172e-06 -6.40987e-06 -6.37506e-05 
26.982 1 132 7.54558 14.2093 2.22001 -1.84437 0.227481 3.99947 0.0202311 0.203588 0.197946 0.00945427 0.0211959 -0.120819 0.00123233 0.00445195 -0.0485455 2.99673e-06 -1.1422e-05 -1.83398e-05 
26.982 1 130 9.67697 14.3844 0.27976 4.24276 0.770276 4.75305 -0.208704 -0.083804 -0.0744768 0.00824553 -0.0207844 -0.14611 0.00606632 -0.0130729 -0.0677339 1.2514e-05 -9.74771e-06 -6.23474e-05 
26.982 1 329 7.38399 12.3153 4.33796 -4.31271 3.94568 -3.29601 0.3857 0.12481 -0.159311 0.000260881 -1.24019e-05 -0.0104746 8.20473e-05 0.000236413 -0.00445663 9.07351e-06 3.95262e-06 -5.93353e-06 
26.982 1 131 9.64146 12.3633 2.24409 0.641148 -2.10761 -1.25547 -0.175901 0.141207 0.146077 0.0136505 -0.00492247 -0.127385 0.00857545 -0.000486659 -0.0533892 -2.04149e-06 -1.0594e-05 -4.45576e-05 
26.982 1 330 9.68611 14.3 4.30915 -3.8629 2.92771 -5.93288 -0.0577406 0.0466811 -0.0491682 9.38216e-05 0.000955363 -0.0143539 7.49864e-05 0.000201089 -0.00580773 2.1447e-06 6.53152e-08 -2.53838e-06 
26.982 1 333 11.6758 12.2232 4.25333 -3.24289 1.11662 3.3829 0.0114872 0.186759 0.0863412 0.00094547 -0.00041527 -0.0151847 0.000377225 -0.000127595 -0.00732171 -4.66175e-07 4.18722e-06 -2.80046e-06 
26.982 1 96 11.5407 10.2764 2.12858 1.51727 2.85329 8.70764 0.285331 -0.11667 0.299685 2.49827e-05 -0.0286561 -0.171079 0.00429181 0.000126049 -0.0671158 -1.01837e-05 1.15103e-05 -3.3959e-05 
26.982 1 136 11.7688 14.5075 2.15706 -2.03587 4.09771 -1.48442 -0.278115 -0.502793 0.538824 -0.00217719 0.0074806 -0.139256 0.000306536 -0.00421526 -0.0583958 -5.50102e-06 -3.51585e-06 -3.19022e-05 
26.982 1 135 13.6163 12.2246 2.3185 0.778341 1.38297 3.29631 0.307361 0.365418 -0.0773027 0.0200897 -0.00921248 -0.154423 0.00506303 -0.0054941 -0.0697358 1.1971e-06 8.37144e-06 -3.05501e-05 
26.982 1 334 13.7212 14.2701 4.33385 -5.27763 -1.84962 1.58456 0.175006 0.0463591 -0.143099 0.000201979 -0.000419067 -0.015193 -4.33021e-05 -0.000635718 -0.00660355 -4.33162e-07 1.61333e-06 -5.2823e-06 
26.982 1 100 15.899 10.497 2.19219 4.06361 -2.10468 1.9999 0.200173 -0.789574 0.185372 -0.000283963 0.0310842 -0.155829 0.000248042 0.010744 -0.0711098 1.87604e-05 -6.88805e-06 -5.17371e-05 
26.982 1 337 15.7633 12.2162 4.19192 -2.53166 -3.25325 -0.973602 0.469491 0.158614 0.340629 0.000332579 0.000815375 -0.0206617 -8.37343e-06 -0.000119791 -0.00922721 6.02393e-06 -5.42636e-08 -5.49587e-06 
26.982 1 134 14.0355 14.1704 0.27287 0.024602 0.24817 -0.709079 -0.497607 0.159591 0.13805 -0.0291455 -0.00332823 -0.168684 -0.00980122 -0.0082085 -0.0707239 -3.76984e-06 -1.46034e-05 -5.95597e-05 
26.982 1 298 18.1746 10.3625 4.10924 0.880266 3.83046 0.757868 -0.664857 -0.180992 0.495145 0.000361131 0.00105418 -0.0178167 -0.000283666 0.000533838 -0.00783096 -1.5491e-05 -4.76486e-06 -2.88073e-06 
26.982 1 140 15.9951 14.3701 2.45773 4.01859 -1.33531 -1.0665 -0.16997 -0.176804 -0.251948 0.0231618 -0.0398849 -0.15358 0.00640709 -0.0155547 -0.063408 8.32822e-06 -1.33146e-05 -3.41496e-05 
26.982 1 139 18.1516 12.438 2.37608 0.827569 -0.190966 -0.610769 -0.215668 -0.299093 -0.573912 -0.0106053 0.014758 -0.185406 -0.00801186 0.000394331 -0.0738049 -3.6448e-06 -1.69888e-06 -6.61623e-05 
26.982 1 144 20.2402 14.4677 2.38334 2.10151 -1.62782 -1.55591 -0.08207 -0.428798 -0.226843 -0.0196548 0.0189209 -0.18692 -0.00893909 0.00325173 -0.0617225 -1.41892e-05 -2.1467e-05 -3.86361e-05 
26.982 1 338 18.1712 14.1573 4.37325 2.27482 0.874447 -3.34407 -0.217432 0.513428 -0.232055 -0.000133537 -0.0016181 -0.0210725 -0.000301506 -0.000648924 -0.00776513 -5.32377e-06 6.14647e-06 -1.15923e-05 
26.982 1 341 20.2938 12.2612 4.26021 3.50853 0.506293 3.35438 -0.118627 0.617822 0.307842 -0.000110231 -0.000238922 -0.0204877 -0.000211312 -0.00038916 -0.00738231 -9.83514e-07 9.5353e-06 -1.43229e-06 