ITEM: TIMESTEP
17000
ITEM: NUMBER OF ATOMS
4000
ITEM: BOX BOUNDS pp pp pp
-3.52931 44.0293
0.955478 39.5445
1.18872 39.3113
ITEM: ATOMS mass type id x y z vx vy vz fx fy fz xrad yrad zrad vxrad vyrad vzrad fxrad fyrad fzrad 
26.982 1 43 -0.67327 6.90105 3.19057 -2.45014 4.14234 5.47318 -0.0024934 0.288911 1.05159 -1.08476 -0.504627 -1.67144 -0.121998 -0.0349703 -0.200367 -2.34496e-06 -3.02612e-06 1.97344e-06 
26.982 1 202 -0.758579 3.60779 4.05477 -1.94607 -6.10314 -4.01055 -0.203708 0.649216 0.00597297 -1.01782 -0.937726 -0.938958 -0.113203 -0.103115 -0.110609 -3.17585e-05 -1.02474e-05 -8.54462e-06 
26.982 1 235 36.8307 1.29699 7.41165 -1.19473 0.405069 5.89262 -0.107672 0.287832 0.104857 -0.0746389 -1.44571 -0.847002 -0.00722278 -0.133273 -0.0980156 8.44991e-08 -4.87716e-05 1.18657e-06 
26.982 1 205 1.10775 1.87133 4.50232 2.22072 1.89162 -1.53787 0.490377 0.0964615 0.240372 0.0736846 -1.32075 -1.10732 0.00753576 -0.162819 -0.133518 2.76936e-06 -2.85587e-05 -1.67537e-05 
26.982 1 2 -1.75632 3.1285 1.42714 4.00196 4.09756 7.3141 -0.0206229 -0.313885 0.467768 -0.688686 -1.06497 -1.93288 -0.0843609 -0.116592 -0.222202 -3.77083e-05 -1.79064e-05 -3.03674e-05 
26.982 1 245 1.98883 4.79664 4.71121 -5.56195 -6.8261 -3.28329 -0.466 -1.00392 1.54809 -0.0803589 -0.165303 -0.243285 -0.0102717 -0.0158487 -0.0322161 -8.51882e-06 -8.61235e-06 1.44891e-05 
26.982 1 8 1.99901 3.59905 2.37891 1.50752 7.28659 3.84126 0.368349 -0.397267 -0.186082 0.270973 -1.56744 -1.69447 0.0202877 -0.157042 -0.206627 5.08717e-06 -1.98927e-05 -4.70768e-05 
26.982 1 47 4.46066 4.85811 3.60855 -4.71421 9.99486 1.03177 0.147076 0.0177718 0.219577 -0.076547 -0.387081 -1.66998 -0.00308987 -0.0383011 -0.205162 6.24163e-06 -1.28956e-06 -1.90582e-05 
26.982 1 206 4.02054 2.21522 4.25663 -7.1428 5.29595 -2.07302 0.0819267 0.491859 0.062942 -0.0370945 -1.45157 -0.872909 0.00596534 -0.164963 -0.0986538 3.95008e-06 -4.19543e-05 -1.44334e-05 
26.982 1 249 6.81337 5.43302 5.28067 0.161128 1.48573 -3.33094 -0.335133 -0.479974 0.190327 -0.00926286 -0.163433 -0.202006 0.000686408 -0.0208486 -0.0258093 -3.25981e-06 -1.25535e-05 2.13323e-06 
26.982 1 12 6.50995 3.12801 3.27199 2.5227 1.77502 -2.87604 0.34893 0.48006 0.0586272 -0.260384 -1.85152 -1.49745 -0.0148517 -0.204419 -0.187842 1.72193e-05 -2.32281e-05 -1.74462e-05 
26.982 1 51 9.21661 4.37806 2.59135 -5.78703 2.7335 -0.0467765 -0.418611 0.0903618 -0.508836 0.00994037 -0.157691 -1.4246 -0.00372336 -0.0289304 -0.197669 -1.7224e-05 -1.98973e-05 -4.70005e-05 
26.982 1 210 8.79536 3.05179 4.90509 -11.2827 -2.22495 3.99933 0.521914 0.00908489 0.283995 0.0895102 -1.40391 -0.755085 0.00607469 -0.165303 -0.0917211 9.87503e-06 -2.43629e-05 -8.75146e-06 
26.982 1 212 6.53731 2.54712 6.29844 1.5631 5.63121 -1.86223 -0.0943096 0.0965407 0.0723146 -0.0312358 -1.86315 0.138125 0.00452319 -0.233005 0.00862986 -1.80842e-06 -5.3019e-05 -1.45824e-06 
26.982 1 253 11.4001 4.44934 4.53241 -0.636374 5.7721 4.92469 -0.12666 -0.0901837 -0.282631 0.00448737 -0.190707 -0.208835 -0.00225621 -0.0238404 -0.0284132 -1.62218e-06 -1.12524e-05 -3.05082e-06 
26.982 1 16 11.204 2.35455 2.60344 -0.157064 -5.36902 -2.54561 0.376139 0.0362021 0.0530292 0.205714 -1.88272 -1.43306 0.000107731 -0.217107 -0.173545 -1.051e-05 -5.14804e-05 -2.92712e-05 
26.982 1 214 13.4436 2.24871 4.3919 -2.49491 -0.617217 4.76821 0.11567 0.307965 -0.231672 0.0590585 -1.53468 -0.78293 -0.000860316 -0.176013 -0.0880239 -3.52293e-06 -3.60085e-05 -2.37933e-05 
26.982 1 18 18.1834 3.06998 1.41246 1.56125 -2.72109 2.23305 0.458628 -0.579537 -0.289103 -0.0565051 -1.02656 -2.24705 0.000101662 -0.111108 -0.230664 2.69004e-06 -2.76859e-05 -5.15532e-05 
26.982 1 55 13.9474 5.26523 3.19352 1.38028 -0.174988 -2.73635 0.28474 -0.0989116 0.243552 0.0315929 -0.336111 -1.6806 -5.17956e-05 -0.023246 -0.186869 1.81851e-06 2.99346e-06 -1.76952e-05 
26.982 1 20 16.2451 2.78281 3.59427 -1.57442 3.13552 2.25908 -0.401507 -0.297225 -0.811976 -0.297478 -1.8498 -1.4189 -0.0112646 -0.200055 -0.162062 -3.96404e-06 -5.23259e-05 -2.90817e-05 
26.982 1 257 16.2744 4.89043 5.03959 -0.304223 0.637555 -6.08377 -0.355902 0.595633 0.863919 -0.00582977 -0.195527 -0.215498 -0.0018632 -0.0206954 -0.0254248 -1.26709e-05 4.40288e-06 5.36537e-06 
26.982 1 57 16.281 4.90439 1.42178 -0.0656371 3.7977 -5.37267 -0.373334 0.182668 0.327214 -0.0943626 -0.221882 -2.01722 0.00172759 -0.0177693 -0.226046 -1.4783e-05 8.70967e-06 -5.77695e-05 
26.982 1 14 14.1498 3.02974 1.6237 -4.6101 3.53828 2.17202 0.0817361 -0.112983 0.491899 0.0742878 -1.13554 -1.59086 -0.000459985 -0.128242 -0.216996 -5.0274e-06 -3.46254e-05 -4.92378e-05 
26.982 1 35 36.8306 1.09436 3.48604 1.61418 -0.428646 5.37189 -0.127053 0.66354 -0.408334 0.0684753 -2.22102 -1.63936 0.00230084 -0.22154 -0.190138 1.03209e-06 -5.8801e-05 -7.30001e-06 
26.982 1 218 18.447 2.8641 5.1292 -7.34105 -2.05741 -7.6011 -0.172569 0.278864 0.157485 -0.0821687 -1.47072 -0.672314 -0.00684058 -0.16105 -0.0821491 5.35751e-06 -3.51211e-05 -1.38743e-05 
26.982 1 59 18.3893 4.96157 3.36314 1.20054 3.12265 -6.05476 0.132124 0.0840457 -0.618006 0.0787498 -0.0731978 -1.55213 0.0130616 -0.0134232 -0.198933 9.78142e-06 -1.35799e-07 -2.55632e-05 
26.982 1 24 20.4454 2.95875 2.99816 -3.03319 1.41617 0.908346 0.0929433 -0.225016 0.318493 0.116022 -1.54586 -1.37309 0.00596325 -0.169976 -0.187398 1.46338e-05 -2.65156e-05 -2.26085e-05 
26.982 1 261 20.5705 4.82664 5.06746 -0.0746096 2.40123 0.712432 -0.326359 -0.088355 -0.442788 0.0114138 -0.166774 -0.241555 5.15703e-05 -0.0188867 -0.0317757 -3.29662e-06 -5.64401e-06 -7.66348e-06 
26.982 1 1198 41.2172 17.9368 19.6711 -2.09372 1.09077 8.11159 -0.173561 -0.163586 -0.292175 -0.367569 -0.699067 -1.16743 -0.0446581 -0.0594981 -0.098994 -1.86618e-05 -5.31472e-06 1.10663e-05 
26.982 1 5 0.45016 1.25714 1.98403 -1.25071 2.14139 -6.81327 -0.154085 -0.143079 -0.644848 0.100455 -0.831922 -1.31033 0.0157884 -0.102394 -0.158156 -4.29596e-06 -4.39077e-05 -3.51221e-05 
26.982 1 63 22.5913 4.77939 3.00461 3.71766 2.25226 -2.55702 0.161034 -0.18988 -0.103855 0.0570532 -0.07338 -1.86992 0.00365664 -0.013041 -0.235521 3.92993e-06 -5.86153e-06 -5.88897e-05 
26.982 1 222 22.6232 2.69666 4.83125 2.42825 0.200508 -4.26736 -0.46909 0.636533 0.416173 -0.0286899 -1.36081 -0.719261 0.00225198 -0.153123 -0.0835279 8.94547e-07 -4.61192e-05 -1.27347e-05 
26.982 1 28 24.8871 2.54398 3.01198 0.306527 -0.308363 -5.61598 0.0752108 0.132801 -0.378981 -0.0885915 -1.32126 -1.60624 -0.00433033 -0.161668 -0.195109 -1.75384e-05 -3.86228e-05 -4.17372e-05 
26.982 1 265 25.0451 4.4336 4.99887 -4.08802 2.86414 -2.3681 -0.751946 0.231455 -0.348825 -0.000507747 -0.154029 -0.271655 0.000477537 -0.0201029 -0.0342768 -1.30879e-05 -1.96607e-06 -1.29472e-05 
26.982 1 1161 43.493 16.0246 19.1912 0.505919 7.51741 -1.14877 0.0634114 -0.165222 0.513608 -1.0933 -0.923199 -0.733398 -0.0942748 -0.0989147 -0.0878191 2.72465e-05 -2.03168e-05 -1.71516e-06 
26.982 1 34 36.6706 3.048 1.48577 -0.918425 -1.02583 2.58265 0.0126285 0.058321 -0.287776 0.0632038 -0.820904 -2.00966 -0.00714705 -0.112689 -0.231485 -1.08122e-05 9.16845e-06 -6.09834e-05 
26.982 1 67 27.1582 4.26264 2.74857 0.682544 0.522008 -2.46421 -0.243539 0.429438 0.018234 0.0927261 -0.0129567 -2.15411 0.00880365 -0.00596403 -0.253722 -1.3562e-05 7.65111e-06 -5.64804e-05 
26.982 1 226 27.0598 2.72045 5.09232 4.01408 3.22236 -2.00643 0.0878823 -0.343038 0.234394 0.00796273 -1.18863 -0.579254 -0.00213263 -0.152289 -0.0798486 -5.11601e-06 -4.4026e-05 -6.69833e-06 
26.982 1 32 29.6188 3.39617 2.18483 -1.9191 4.04078 -1.31028 0.238067 -0.11397 0.854058 0.0277187 -1.16407 -1.75651 0.00421839 -0.144752 -0.214346 -3.94621e-07 -1.90523e-05 -5.27247e-05 
26.982 1 269 29.2894 4.42289 4.85353 -4.32609 2.06946 -3.51996 -0.497364 -0.130095 -0.476758 -0.00869682 -0.143031 -0.300458 -0.000908888 -0.0195978 -0.0373656 -9.81696e-06 -2.67946e-06 -1.46884e-05 
26.982 1 2427 27.8328 19.8613 10.8828 -4.99268 9.24539 3.70381 -0.58268 -0.101861 0.258854 -0.4159 0.219183 -1.33497 -0.0565648 0.0291085 -0.156526 -1.01049e-05 3.37135e-05 -5.44837e-06 
26.982 1 71 31.956 4.99421 2.26603 -0.847766 -3.2313 -5.50385 -0.3658 0.660537 -0.156327 -0.191759 -0.0851849 -1.94789 -0.0199235 -0.020297 -0.239183 3.08789e-06 1.84285e-05 -5.76595e-05 
26.982 1 230 31.6384 3.2955 4.26606 -1.81236 -0.345029 -0.189687 0.313298 -0.465063 0.125448 -0.0824375 -1.20611 -0.644968 -0.00577974 -0.149091 -0.0834452 1.02794e-05 -3.85517e-05 -8.25596e-06 
26.982 1 273 33.7783 4.94848 5.10755 -1.64287 1.17955 2.80433 0.621701 -0.642764 -0.170576 -0.00163412 -0.121593 -0.233313 0.000750589 -0.016914 -0.0285181 1.06531e-05 -9.30416e-06 -7.55978e-06 
26.982 1 36 34.4947 2.8078 3.40008 1.77945 -1.99471 1.47494 -0.0926889 0.207482 0.31091 -0.141642 -1.32739 -1.65827 -0.0193159 -0.165766 -0.196055 -1.42961e-05 -8.52234e-06 -7.80525e-06 
26.982 1 833 32.943 1.42545 15.786 -2.19662 -2.5223 -4.73758 -0.0865062 -0.564159 0.0449024 0.07543 -1.521 -1.04497 0.00979409 -0.167607 -0.118733 1.78388e-06 -7.13135e-05 -3.8512e-06 
26.982 1 2823 23.5693 19.3585 18.8787 -0.985982 1.6111 1.46375 0.125655 0.0469889 0.233973 -0.622611 -0.268434 -1.15822 -0.0894127 -0.0161142 -0.120717 -1.57749e-05 1.72261e-05 1.453e-05 
26.982 1 75 36.1746 5.15518 3.35252 5.24147 -2.60582 7.13033 0.377001 -0.13052 0.216676 0.125067 -0.0481999 -1.86901 0.00116852 -0.0057016 -0.208717 -7.03196e-06 -5.19551e-06 -2.10546e-05 
26.982 1 234 36.2893 3.26046 5.50319 -8.35841 -1.4423 0.235517 0.238914 0.258127 -0.083022 0.00062321 -0.993139 -0.508247 -0.0057594 -0.12636 -0.0650574 1.41967e-07 -1.43292e-05 2.99676e-06 
26.982 1 40 38.7069 3.35647 3.28972 4.85532 -1.71776 -6.44669 0.0463311 0.244993 0.218371 0.35657 -1.35786 -1.8987 0.0227987 -0.16361 -0.20047 6.27088e-07 -1.82587e-06 -4.87828e-06 
26.982 1 277 39.654 4.11156 5.92437 6.28012 -3.8636 -3.07255 -0.188169 0.162236 0.269864 0.0132439 -0.123126 -0.264612 0.00101439 -0.0154731 -0.0263152 -7.31549e-06 -4.54132e-06 5.8663e-06 
26.982 1 33 34.7463 1.032 1.35579 5.08324 2.45717 -2.48642 0.139241 -0.431046 0.0730979 -0.0192966 -0.896048 -1.63186 -0.00733027 -0.0876517 -0.186479 -6.61208e-06 -4.69971e-05 -3.79642e-05 
26.982 1 2025 25.3917 20.0309 1.25494 -0.591877 9.59594 0.0963402 0.252127 0.780511 -0.169677 -0.342287 -0.0982804 -2.13817 -0.0364324 -0.0146971 -0.231222 1.56244e-06 -2.50198e-06 -6.27322e-05 
26.982 1 237 38.7552 1.68882 5.36804 -3.26305 -4.54923 -0.308903 0.17288 -0.75671 0.150865 0.182712 -1.55677 -1.18237 0.0140192 -0.175629 -0.135417 -3.11239e-06 -3.11166e-05 -7.1388e-06 
26.982 1 37 39.0169 1.43316 1.41365 1.11647 -3.95767 -4.76058 -0.182655 -0.117321 -0.0950826 0.0264889 -1.09155 -1.54217 0.000950275 -0.116006 -0.183088 5.96432e-06 -4.49095e-05 -4.6792e-05 
26.982 1 41 43.4656 4.87665 1.70758 -3.72572 -1.64761 -3.20429 0.286183 -0.209159 -0.277592 -0.621675 -0.624623 -1.39893 -0.0618987 -0.0543766 -0.178605 1.35144e-05 8.70178e-06 -5.20985e-05 
26.982 1 4 44.1015 2.94132 3.8151 7.44507 -0.0563337 4.03614 -0.142841 -0.0337339 -0.0140623 -1.20001 -1.20814 -1.39174 -0.121982 -0.135977 -0.149588 7.72605e-06 -2.93701e-05 -7.30213e-06 
26.982 1 241 -3.02734 5.82871 3.87968 2.45248 3.53227 0.842736 0.0928409 -0.0837041 0.703996 -0.800437 -0.798568 -0.92238 -0.0690892 -0.0754828 -0.0913899 -5.0908e-05 -2.71299e-05 -1.34721e-05 
26.982 1 79 41.6913 4.54213 3.98577 0.141133 0.734288 -1.61186 0.134539 0.44945 -0.095225 -0.0618516 -0.193958 -2.00725 0.00157759 -0.0130387 -0.213772 1.15872e-06 7.43812e-06 -1.13005e-06 
26.982 1 238 42.065 2.68316 5.91306 -4.76366 0.975583 -1.28054 -0.13161 -0.139717 0.321264 0.0280182 -1.27743 -0.787757 0.0096517 -0.154584 -0.0811403 -1.95952e-06 -3.18094e-05 1.04228e-05 
26.982 1 142 21.2569 15.2496 1.92287 3.8292 -2.83365 -6.76995 0.252384 -0.230827 0.407323 0.211717 -0.00856758 -2.73676 0.0141767 -0.00240635 -0.299525 1.18824e-05 -1.91665e-06 -5.89619e-05 
26.982 1 39 41.0822 1.72697 3.40065 2.79757 4.12353 -1.13149 0.107515 0.0401143 0.0577342 -0.239807 -0.974319 -1.67999 -0.0173646 -0.14037 -0.181873 9.04821e-06 -4.11128e-05 -1.61984e-05 
26.982 1 90 8.93061 10.9672 1.22498 1.15655 2.11913 -7.0675 0.0659623 0.75103 1.13671 0.164574 -0.0518421 -1.7653 0.0207291 -0.00500892 -0.214786 2.04393e-05 8.0346e-06 -6.15848e-05 
26.982 1 83 -0.207497 9.50251 3.57005 -3.53799 -2.66593 0.387914 0.00902965 -0.0444855 -0.17076 -1.20345 -0.469991 -1.70478 -0.120546 -0.0609729 -0.212841 -7.87307e-06 3.32171e-06 -1.99179e-05 
26.982 1 242 -0.642385 6.06585 5.714 1.39227 2.31224 -3.4627 0.109363 0.0610671 0.302527 -1.2561 -0.0567118 -0.699838 -0.135293 -0.00974191 -0.0760613 -5.27096e-06 2.74151e-06 -2.3819e-06 
26.982 1 281 -2.55055 8.13946 5.72201 -2.47007 -4.49102 6.57088 0.254403 -0.23898 0.621849 -0.856764 -0.814319 -0.97101 -0.0924609 -0.0872485 -0.110001 -2.65907e-05 -1.25293e-05 8.77335e-06 
26.982 1 282 -1.83896 11.1507 4.65263 -1.06843 3.40437 -2.61539 -0.286808 0.313276 -0.181331 -1.07623 -0.00559666 -0.518619 -0.116726 -0.00191434 -0.064442 -3.28907e-05 1.36588e-05 -1.9856e-05 
26.982 1 48 2.22421 6.34376 2.85509 7.88684 -1.17427 -1.68843 -0.13194 0.93184 -1.20982 -0.279749 -0.0920447 -1.61834 -0.0295524 -0.00453271 -0.203263 3.43926e-06 1.07215e-05 -4.08059e-05 
26.982 1 285 1.68809 8.26158 5.13393 -0.0796317 -5.1001 -0.736133 -0.168816 -0.593509 0.413504 -0.107472 -0.0113214 -0.190556 -0.00889673 -1.47507e-05 -0.0258292 -2.5878e-07 2.19436e-06 1.7243e-05 
26.982 1 87 4.56712 7.68902 2.71472 -1.22802 5.27156 4.05731 0.710603 -0.125273 0.683381 -0.026353 -0.0166458 -1.46634 -0.0102435 -0.00375225 -0.194004 5.31898e-06 -5.36303e-06 -4.5736e-05 
26.982 1 246 4.30649 7.09608 5.37023 0.507689 -3.26787 1.39643 -0.038951 -0.117954 0.428364 -0.00315649 -0.00915967 -0.169636 -0.00170895 -0.000166204 -0.0235329 -3.37635e-06 5.38755e-06 1.06348e-05 
26.982 1 88 2.52215 9.14796 2.84355 -8.19201 0.498371 2.30741 -0.380551 0.931255 -0.290746 -0.272496 -0.0720296 -1.51878 -0.0240077 -0.0111808 -0.196171 -5.06666e-06 1.88597e-05 -2.7766e-05 
26.982 1 286 4.62661 9.90864 4.9005 5.4551 0.461565 -1.03987 -0.179405 -0.362892 -0.314408 -0.00575789 0.00330861 -0.153929 -0.0037543 0.00115245 -0.020564 -1.16567e-05 -2.61062e-07 2.38612e-06 
26.982 1 86 4.78701 10.4392 1.91946 -8.82289 0.198446 -1.65909 0.201388 -0.562468 -0.519148 -0.0434278 -0.0673094 -2.24954 -0.0125784 -0.00992116 -0.240076 -4.78914e-06 -1.10912e-05 -5.85511e-05 
26.982 1 289 6.86411 8.17392 4.58226 1.57091 2.5392 4.04144 0.214873 0.192991 -0.150097 0.00562477 0.00032285 -0.168643 -0.0017129 -0.000450769 -0.0212039 3.80028e-06 7.18532e-06 -4.90809e-06 
26.982 1 52 6.68949 6.13271 2.52676 -3.83289 -4.47435 -2.17326 0.88748 -0.306234 0.0670844 0.0156888 -0.0261376 -1.47531 -0.00262202 -0.0137478 -0.197648 5.65528e-06 -1.59149e-05 -5.12104e-05 
26.982 1 91 9.64256 9.09669 3.53743 1.51157 -1.01272 -2.72098 -0.79126 -0.625361 -0.0389624 0.144751 0.0855968 -1.70873 0.012554 0.00287709 -0.190468 -3.18124e-06 -4.97412e-06 -1.93882e-05 
26.982 1 250 9.18433 6.39204 4.41728 -0.66497 -0.782156 -3.73478 0.0472869 0.10744 -0.35634 0.00735322 -0.00255014 -0.171256 -0.000801041 -0.00388052 -0.0239363 -3.13542e-06 -4.2385e-07 -1.27476e-05 
26.982 1 89 7.20115 8.81913 1.67542 3.67978 5.94841 2.34492 -0.25398 -0.125136 0.292954 0.0857279 0.0499104 -2.17577 0.00540052 -0.00501351 -0.259135 -5.39121e-06 -1.04946e-05 -5.53364e-05 
26.982 1 50 9.49371 7.12898 1.53335 -1.97665 -0.500446 1.93226 0.44867 -0.109344 0.269095 0.0750789 0.00231785 -2.1058 0.00196943 -0.00384593 -0.226251 4.62993e-06 2.13578e-06 -6.03931e-05 
26.982 1 293 11.8556 9.3186 5.26747 1.36529 4.78856 -0.755312 -0.130571 0.0209848 0.18182 0.00269997 0.013019 -0.213216 0.00066441 0.00061386 -0.0241869 -4.44593e-07 3.99453e-06 2.77642e-08 
26.982 1 56 11.7429 7.06318 3.33711 4.46223 3.2859 -3.11341 0.00920244 0.492538 0.097955 0.0413657 0.145959 -1.6573 0.00198468 0.00874499 -0.195317 1.02352e-05 1.60362e-05 -3.19386e-05 
26.982 1 95 13.5569 9.38342 2.90632 1.5799 -7.38597 -3.73379 0.371661 0.155732 0.459243 -0.0254925 0.128812 -1.8997 0.000298951 0.0106335 -0.223347 -8.17664e-06 -7.07085e-06 -4.81383e-05 
26.982 1 227 27.0585 1.56512 7.80649 -5.46244 7.14163 9.09828 -0.166946 -0.419418 -0.251771 0.190423 -0.819469 -1.1475 0.013724 -0.0805945 -0.136251 -1.16984e-05 -6.62254e-05 -2.32856e-05 
26.982 1 254 13.9889 7.32816 5.10995 1.81698 -0.913138 1.13805 -0.210982 -0.0600925 0.15072 0.00321066 0.00144532 -0.194189 0.000650625 0.00150661 -0.0246811 -1.68067e-07 -2.73704e-06 -3.99016e-06 
26.982 1 60 16.1326 7.08116 3.34107 -4.36964 2.91927 -1.04527 0.020482 0.25906 -0.0571385 -0.00852061 0.0893083 -1.69961 -0.000430782 0.0106106 -0.200371 -1.03653e-05 9.1711e-06 -1.89468e-05 
26.982 1 297 15.6159 9.57309 4.86118 3.53946 0.048199 2.76522 -0.0550266 0.192624 -0.601407 0.00384156 0.0135825 -0.227818 0.00117784 -0.000138851 -0.0276179 4.06002e-06 3.84455e-06 -1.55557e-05 
26.982 1 2825 25.6655 19.5755 17.021 5.59078 1.49047 -1.43079 0.101126 0.0172424 -0.697686 -0.734105 0.286619 -1.44332 -0.0746326 0.0382777 -0.154148 -1.64448e-05 1.82695e-05 -2.53889e-05 
26.982 1 97 15.977 9.14866 1.47815 -8.6994 0.926606 3.45086 0.0153595 -0.146325 0.55394 -0.101281 0.279543 -1.66641 -0.0110428 0.0208512 -0.191069 -1.47145e-05 1.00666e-07 -5.32025e-05 
26.982 1 99 18.3589 9.35549 3.52853 1.16041 2.88785 -1.18153 -0.43534 -0.488872 0.0339305 -0.101276 0.141798 -1.78184 -0.00973532 0.0125051 -0.210781 -9.76983e-06 -3.56661e-06 -5.84796e-06 
26.982 1 258 18.3312 6.98893 5.14071 6.05574 -4.13652 3.31073 0.281554 0.265968 0.251646 0.00191465 0.00510263 -0.194177 -0.00166237 0.00234688 -0.0235595 1.83459e-06 1.0279e-05 5.96218e-06 
26.982 1 64 20.3404 6.96719 3.13976 -6.5556 -0.278545 -3.48176 0.377323 0.149641 -0.178194 0.0946584 -0.135376 -1.7532 0.00708332 -0.0197819 -0.220039 1.71686e-05 -7.07399e-06 -3.6027e-05 
26.982 1 301 20.6693 9.10584 5.0245 -3.64443 0.814363 -0.497683 -0.15036 -0.849405 0.0660544 -0.00302577 0.00868104 -0.200764 -0.00366674 0.00291488 -0.024467 -5.25499e-06 -9.97832e-06 -6.91281e-07 
26.982 1 103 22.6628 8.78603 2.743 -1.50627 1.00162 -1.72402 -0.230541 -0.0611071 0.306825 0.0683502 0.0235554 -1.83867 0.00430927 -0.0070342 -0.213278 7.22466e-06 -6.5423e-06 -5.04491e-05 
26.982 1 262 22.7464 6.78703 4.79424 -1.56515 6.30485 3.58328 -0.0180748 0.0642192 -0.153276 0.0039848 -0.0137822 -0.229326 -0.000168618 -0.00207278 -0.0294163 9.71821e-07 2.01376e-06 -1.49086e-05 
26.982 1 305 25.0611 8.44707 4.78317 2.64779 -6.43264 -5.73566 -0.206879 0.100686 -0.0874345 0.00672765 -0.00212696 -0.227299 0.00127432 -0.000661537 -0.0279242 -5.67925e-06 2.29512e-06 -1.18357e-05 
26.982 1 68 24.8657 6.4056 2.73756 0.200461 1.28548 1.8957 0.0852033 0.375345 0.254508 0.0849771 -0.12476 -2.02878 0.00604616 -0.0182405 -0.24246 -1.72451e-06 -5.77637e-07 -5.8505e-05 
26.982 1 431 31.0987 1.99678 11.6406 0.226 0.922908 0.300122 0.138238 -0.0220206 0.406538 -0.162487 -1.26863 -0.696557 -0.00856386 -0.135006 -0.0878745 2.79344e-05 -4.66606e-05 -1.91503e-06 
26.982 1 77 38.6999 5.40088 1.50965 -1.18993 0.632702 -3.15419 -0.160429 -0.275391 -0.705124 0.0463149 -0.0485711 -1.26713 0.00991104 -0.002901 -0.191371 -3.63784e-06 -6.2865e-06 -6.57236e-05 
26.982 1 107 27.0436 8.41474 2.81264 2.79265 -1.05511 0.963646 -0.244014 -0.53878 -0.331529 0.204305 -0.159377 -2.0921 0.0176159 -0.00932203 -0.246267 -5.27363e-06 -4.7312e-06 -6.41374e-05 
26.982 1 266 27.0128 6.22159 4.67909 0.938249 0.247391 2.34691 0.353369 0.258602 0.270343 0.00419395 -0.00272451 -0.271319 0.000294768 -0.00172967 -0.0323693 6.31009e-06 2.95647e-06 -3.65698e-06 
26.982 1 72 29.2772 6.47454 2.73288 2.5484 4.89346 0.0113117 -0.202379 -0.892477 -0.127712 -0.0891331 0.000327844 -2.33272 -0.00872128 -0.00825505 -0.268731 -7.68556e-06 -1.28981e-06 -5.66711e-05 
26.982 1 309 29.4496 8.1737 4.83846 1.43435 -2.5293 -4.93865 -0.0280929 -0.491973 0.223788 -0.00724429 -0.00750784 -0.274951 -0.00082153 -0.000867098 -0.0319727 -2.28665e-06 -1.0485e-05 -1.73482e-06 
26.982 1 112 29.2606 10.0538 2.92803 7.55504 -3.49572 -0.153605 0.522405 0.695519 -0.565227 -0.13271 -0.209058 -1.84478 -0.0141427 -0.0140294 -0.227872 7.61424e-06 9.80877e-06 -6.69579e-05 
26.982 1 631 30.6051 1.06336 14.2816 0.903256 -0.527849 -3.31719 0.0985015 -0.288127 -0.235037 -0.00851372 -1.05194 -0.979617 0.00284256 -0.0969768 -0.114218 -4.62087e-06 -6.35745e-05 3.75065e-06 
26.982 1 45 0.0478187 5.20519 1.49244 4.95878 -4.4628 2.83503 0.0993412 0.0616591 -0.954331 -0.0595791 -0.233376 -1.8045 -0.00241143 -0.018359 -0.197007 -3.92591e-06 -8.54285e-06 -6.08445e-05 
26.982 1 2417 15.8662 20.0617 8.8445 0.75885 2.79317 1.79465 -0.501089 -0.336102 0.167854 -0.683418 -0.852305 -1.26455 -0.0750057 -0.0937255 -0.149632 -3.01705e-05 1.7812e-05 -1.81744e-05 
26.982 1 111 31.4459 8.24388 2.7329 0.974901 -3.25464 -4.6937 0.174335 -0.0417156 0.319571 -0.164953 -0.219474 -1.90942 -0.014233 -0.0167719 -0.223372 1.15376e-05 8.55552e-06 -5.76092e-05 
26.982 1 270 31.4369 6.17986 4.81717 3.47373 -3.72708 -5.39595 -0.0370055 0.43917 -0.289276 -0.00969027 0.0019869 -0.250263 -0.000215271 -0.000138577 -0.0291472 2.54137e-06 1.34119e-05 -7.948e-06 
26.982 1 76 33.8571 6.72986 2.92028 4.67603 -0.255763 -2.34029 0.280103 0.50825 0.350594 -0.00593424 0.0280625 -1.88322 -0.000547508 -0.00259299 -0.221943 2.43676e-06 6.7609e-06 -4.30211e-05 
26.982 1 313 34.0176 7.52801 5.71648 1.04654 -1.44588 6.89543 0.331594 -0.00319578 -0.0896417 -0.00205255 -0.00353185 -0.209146 0.00200243 -0.000416411 -0.0223657 5.56563e-06 1.52481e-06 -4.19789e-06 
26.982 1 116 34.1429 9.40607 3.83046 -5.0469 -3.64226 -2.15436 0.111165 0.0185386 -0.560582 0.0999557 0.0454431 -1.71428 0.00388 -0.00146824 -0.19216 -4.69998e-06 -7.02147e-06 -3.17294e-05 
26.982 1 310 31.5993 10.1095 4.73291 -3.15321 -4.74165 0.808433 0.00881912 -0.0580985 0.130037 -0.00626412 -0.00306075 -0.188889 -0.000220999 -0.00177573 -0.0250868 6.47959e-06 -8.03578e-06 -1.33068e-05 
26.982 1 433 34.3108 0.93986 8.96292 -0.584623 -2.30975 5.05666 0.0904297 0.308067 0.306411 -0.0938044 -1.0859 -0.78488 -0.00422765 -0.0959118 -0.0769325 1.25459e-05 -2.41662e-05 -1.35158e-05 
26.982 1 115 36.7497 7.88056 3.96112 -0.166294 -0.44379 -1.21378 -0.303204 0.236884 -0.417383 -0.23114 -0.0922874 -1.62257 -0.016103 -0.0129228 -0.187898 -7.39717e-06 8.3509e-06 -5.87345e-06 
26.982 1 274 36.745 6.08963 5.90205 -1.40951 -2.16815 5.25301 -0.212239 -0.344884 0.322365 0.00289446 -0.0118799 -0.213995 0.000593436 -0.00104837 -0.0244701 -5.24314e-06 -6.55133e-06 1.87097e-06 
26.982 1 80 39.0086 5.96819 4.1415 -2.903 0.258704 -4.52022 0.0525179 -0.243244 0.228363 0.0398011 -0.36241 -1.71747 0.00527734 -0.0224167 -0.193701 6.95229e-06 -3.58752e-06 4.17114e-06 
26.982 1 317 39.6945 8.38075 5.06116 2.07778 -1.25237 8.79731 0.01719 0.663288 -0.245407 0.00498378 -0.00825257 -0.154495 -5.84086e-05 -0.00102598 -0.0189301 6.08146e-06 6.80543e-06 -8.85854e-06 
26.982 1 117 38.9806 7.84515 2.32525 -3.34287 4.48425 -1.54986 -0.0921497 1.16991 -0.394697 0.10505 0.0136328 -2.85874 0.00669932 -0.00346161 -0.294547 9.05034e-06 2.54001e-05 -4.83987e-05 
26.982 1 314 36.8134 9.03348 6.3132 -0.354505 -4.78895 0.998523 -0.915138 0.11816 0.0256958 -0.00336236 0.00606812 -0.195532 -0.000898038 -0.00110216 -0.0217762 -1.59856e-05 -1.41033e-06 -4.87533e-06 
26.982 1 6 4.48102 2.95167 1.3165 -1.46966 0.483227 -1.51521 -0.282333 -1.10173 0.202413 -0.202111 -1.1102 -1.57287 -0.0137677 -0.126804 -0.17383 -3.85399e-06 -8.42045e-06 -5.35609e-05 
26.982 1 114 36.5861 9.74922 1.8738 2.13963 0.419674 -0.822522 0.0172535 -0.0319212 -0.198482 -0.055747 0.0851901 -1.96988 -0.0016115 0.00234332 -0.237193 -1.26e-06 9.85933e-06 -6.05829e-05 
26.982 1 78 41.4105 6.52728 2.03754 -3.91766 -7.2999 -3.3692 -0.0990633 0.118691 0.269697 0.175527 -0.433473 -1.58176 0.0268985 -0.0364766 -0.173656 7.33624e-06 2.31368e-05 -4.25584e-05 
26.982 1 44 -3.0347 8.83174 3.3916 0.844849 2.24475 -1.40522 -0.002662 0.365103 -0.476219 -0.375315 -1.06424 -1.68253 -0.0479427 -0.0935411 -0.197212 -3.76195e-05 -9.01869e-07 -3.43328e-05 
26.982 1 119 41.4526 9.37535 2.89112 -0.53018 0.236052 -0.570025 0.115845 -0.531633 0.295551 0.320203 -0.0236148 -1.76816 0.0342962 -0.00972588 -0.209961 8.87208e-06 6.45751e-07 -4.59723e-05 
26.982 1 278 42.4937 7.47779 4.68865 -3.28978 -7.84695 -1.2955 -0.413319 -0.16004 -0.078561 0.414559 -0.399704 -0.265408 0.0412731 -0.0350408 -0.0296743 -9.36e-06 -8.13799e-06 -6.88947e-06 
26.982 1 84 43.5191 11.3497 2.60572 0.910741 -9.10721 -3.45622 0.422436 0.271564 0.110082 -1.40283 -0.487088 -1.94679 -0.128366 -0.0663935 -0.219527 1.33423e-05 -3.64501e-05 -5.29397e-05 
26.982 1 318 41.1995 11.5844 4.51528 -0.462832 -1.06956 6.31326 -0.623197 0.269684 -0.314953 0.449201 -0.387941 -0.269407 0.0475696 -0.0403514 -0.0299048 -5.18989e-06 2.07286e-07 -4.35187e-06 
26.982 1 123 -1.03334 12.3465 2.18834 -5.32291 -1.91345 -1.74591 0.120368 -0.490352 0.221505 -1.19038 -0.315408 -1.69775 -0.117404 -0.0361257 -0.212255 -1.11752e-05 -2.61844e-05 -5.67293e-05 
26.982 1 322 -1.46366 14.1316 4.22426 7.18653 -0.32154 -2.87467 0.0756384 -0.35969 -0.58592 -0.768003 -0.260963 -0.430405 -0.0890695 -0.0216439 -0.0540351 -3.00509e-05 -3.38201e-06 -6.09924e-06 
26.982 1 122 -0.662845 15.1832 1.8566 -5.55248 3.31313 4.06925 0.757587 -0.396542 -0.352434 -1.25146 0.00129823 -1.74729 -0.126372 0.00528144 -0.200562 -8.18617e-07 -8.6044e-06 -5.87077e-05 
26.982 1 361 43.3596 15.5001 4.12836 4.83137 -0.263031 -1.12961 -0.0211843 0.226576 0.0484491 -1.41942 -0.85701 -1.07327 -0.138551 -0.0873947 -0.12052 -1.04263e-06 4.4657e-06 -2.54314e-06 
26.982 1 325 0.971016 11.8279 4.11252 5.42748 -3.41163 0.342469 -0.0756234 -0.692995 -0.31015 -0.0982911 -0.0114837 -0.172375 -0.00738418 -0.00314456 -0.0255778 9.01777e-06 -1.18804e-05 -1.3264e-05 
26.982 1 128 1.42363 14.2113 3.37615 5.81965 -4.84014 -2.16976 0.623866 0.779411 -0.438133 -0.218816 0.146432 -1.52134 -0.0255755 0.0115618 -0.173706 1.66982e-05 1.16865e-05 -1.32525e-05 
26.982 1 127 4.5587 12.384 3.66041 1.47872 -3.34356 0.460207 -0.117888 0.615859 0.111925 0.0147499 -0.0262947 -1.31213 -0.00357292 -0.00778877 -0.154081 -1.44856e-05 1.1625e-05 -1.39198e-06 
26.982 1 326 4.69344 14.3551 5.67896 -0.142698 4.6245 -2.29928 -0.420119 0.0591009 -0.338022 -0.00714683 -0.00107234 -0.140663 -0.004277 0.000115157 -0.016498 -1.56996e-05 8.07508e-06 -1.33905e-05 
26.982 1 125 2.45298 11.9572 1.73856 0.0152547 -7.1239 4.0744 0.69819 0.448257 1.06789 -0.268494 -0.158775 -2.42968 -0.0299322 -0.0156901 -0.261921 -1.74958e-05 -2.47953e-06 -5.37215e-05 
26.982 1 126 3.99379 14.4332 1.51764 0.0630213 -3.63524 0.0212565 0.0873104 -0.580498 0.199976 0.0147429 0.0391562 -2.34512 -0.00978861 0.00440015 -0.266042 -8.03377e-06 -8.26365e-06 -4.6552e-05 
26.982 1 101 20.1048 9.29937 1.3034 -3.25519 -3.10969 7.2788 0.471066 -0.580667 -0.0823131 0.114804 -0.0449152 -2.21265 0.00317424 -0.00485089 -0.238146 1.72455e-05 -3.56359e-06 -6.39262e-05 
26.982 1 290 9.40479 11.0304 5.42291 -3.77865 -1.28007 0.484603 0.159483 -0.136976 0.1513 0.0112469 0.00252638 -0.200924 -0.000146573 -0.00019767 -0.0218172 3.55643e-06 -3.94302e-06 2.47571e-07 
26.982 1 92 7.0626 10.8982 3.4042 3.7093 -1.24406 -1.62648 -0.0388305 -0.410196 0.389583 0.119653 -0.0216415 -1.48228 0.00539382 -0.000806286 -0.165805 2.3894e-06 -8.38037e-06 -3.66097e-06 
26.982 1 329 7.1194 12.7264 5.33856 0.137102 6.07991 -4.08806 -0.278599 0.12611 0.692398 -0.000428573 -0.00249239 -0.157195 -0.00288611 -0.00162957 -0.0169626 -8.09511e-06 -1.31969e-06 1.06397e-05 
26.982 1 132 6.40176 14.5051 3.40603 9.739 -1.65239 6.82015 -0.225837 0.488317 0.233332 0.126732 -0.0225743 -1.4098 0.0139191 -0.00430254 -0.160418 7.85541e-06 1.67113e-05 -2.01788e-05 
26.982 1 131 8.90564 12.9139 3.35069 3.22174 -5.25006 -1.72678 0.236833 0.259436 -0.488708 0.126738 -0.00843386 -1.68717 0.0115017 0.00315531 -0.193531 1.4648e-05 1.47263e-05 -4.06315e-05 
26.982 1 201 -3.41499 1.02903 6.04918 -4.87606 -7.61948 0.765118 -0.128047 -0.716744 -0.50034 -0.61613 -1.09706 -1.3997 -0.057022 -0.104222 -0.157441 -4.22312e-05 -3.23382e-05 -2.75397e-05 
26.982 1 3033 34.783 19.9621 20.1087 4.25462 1.72075 -3.74604 0.779281 0.203049 -0.237439 -1.06276 -0.400365 -1.74563 -0.121113 -0.044819 -0.212927 -1.81821e-06 -1.93299e-05 -3.8808e-07 
26.982 1 294 13.3821 11.5812 4.85039 5.08748 0.57718 -2.97286 0.17045 0.0270378 0.0828706 0.00198871 0.00778823 -0.235187 0.000730621 -0.00048235 -0.0277588 4.46641e-06 -6.571e-08 -6.58442e-06 
26.982 1 96 11.2271 11.0889 3.03794 2.5787 1.22265 -1.92174 -0.0497177 1.06134 0.541342 0.0666266 -0.0523768 -1.90031 0.0103303 -0.00494983 -0.214325 1.20428e-05 1.03644e-05 -4.71069e-05 
26.982 1 333 11.122 13.3539 5.23249 1.81915 0.909375 1.19487 -0.111906 -0.566644 -0.640947 0.00406085 -0.0077549 -0.209494 -0.000278366 -0.0011368 -0.0236145 -9.93671e-07 -9.96456e-06 -1.62089e-05 
26.982 1 135 12.7993 13.5977 2.87082 1.17039 3.08269 -5.16411 0.0122738 0.0434806 0.106356 0.0675609 -0.162002 -1.85537 0.00605208 -0.0161595 -0.221671 -3.58818e-06 -1.33802e-06 -5.50078e-05 
26.982 1 100 15.0853 11.9156 2.56806 1.70014 5.64434 -2.77605 0.529287 -0.391245 0.475368 0.01688 0.0463889 -2.01911 -0.00150772 0.00182425 -0.239332 -7.98073e-06 -2.89221e-06 -3.76837e-05 
26.982 1 337 15.22 13.9676 4.97646 1.48764 1.15086 1.58771 -0.125664 -0.217025 -0.516463 0.00560117 -0.00208937 -0.239763 0.00243366 0.000828262 -0.0273496 4.06136e-06 -6.87391e-06 -1.37904e-05 
26.982 1 139 16.6701 14.0817 2.33063 2.04177 1.73487 0.824798 0.397923 -0.261164 0.404623 -0.026072 -0.0268237 -2.06897 -0.00175713 -0.00607185 -0.240213 -3.8555e-06 -1.96091e-06 -4.27666e-05 
26.982 1 298 17.6554 11.8711 4.58252 -2.38508 -2.3501 -5.09215 -0.207115 0.0887573 -0.183208 -0.00327322 -0.000155015 -0.247538 0.00217193 -0.000984589 -0.0329823 -6.11846e-06 1.77678e-06 -9.27163e-06 
26.982 1 2627 27.8483 19.7697 14.6801 4.29459 -3.93421 -4.17958 -0.384599 0.009021 0.162318 -0.798657 0.462231 -1.38077 -0.0841067 0.0578391 -0.158995 -9.99943e-06 3.27728e-05 -1.13872e-05 