ITEM: TIMESTEP
6000
ITEM: NUMBER OF ATOMS
4000
ITEM: BOX BOUNDS pp pp pp
-1.29365 41.7936
0.330622 40.1694
0.350053 40.1499
ITEM: ATOMS mass type id x y z vx vy vz fx fy fz xrad yrad zrad vxrad vyrad vzrad fxrad fyrad fzrad 
26.982 1 3 0.869025 0.528758 2.14985 -0.434869 1.9559 0.422431 -0.180288 -1.01202 0.141715 -0.107733 -0.265274 -0.107117 -0.0361157 -0.0881114 -0.0496973 -2.25177e-05 -3.93473e-05 -5.27563e-05 
26.982 1 8 3.01377 2.1917 2.19969 0.942706 -3.3853 -1.60361 0.414554 0.318153 0.246942 0.0555689 -0.213905 -0.173887 0.0183513 -0.0659132 -0.0706985 -6.72578e-06 -1.63221e-06 -5.04032e-05 
26.982 1 43 0.906648 4.31445 2.12404 0.562926 1.01917 0.55886 -0.153987 -0.082336 0.533976 -0.129008 -0.0940554 -0.206593 -0.0494462 -0.0343687 -0.0641701 -1.80459e-05 -2.50315e-05 -4.283e-05 
26.982 1 202 0.937099 2.18745 4.13374 4.52314 0.132335 -0.417913 -0.11275 0.522965 0.472207 -0.120399 -0.148203 -0.112985 -0.0478032 -0.0337056 -0.0373073 -1.51002e-05 1.96206e-07 -1.39225e-05 
26.982 1 201 -1.23321 0.541431 4.2067 -2.05191 -1.91052 -2.56132 -0.292715 -0.399106 -0.062889 -0.0598161 -0.140635 -0.146667 -0.0256674 -0.0451944 -0.0581013 -3.59046e-05 -2.12019e-05 -4.80668e-05 
26.982 1 245 2.89511 4.17456 4.27985 -1.16233 2.55761 2.59282 0.314681 0.426012 -0.225068 -0.00877002 -0.0276285 -0.0273498 -0.00373398 -0.00742987 -0.00949611 3.98854e-06 8.9317e-06 -1.06476e-05 
26.982 1 241 -1.33934 4.10766 4.25532 2.33199 -4.04159 -3.36805 0.268656 0.119869 -0.370556 -0.145644 -0.152124 -0.159847 -0.0351297 -0.0376659 -0.0411212 -2.59118e-05 -2.33909e-05 -3.9433e-05 
26.982 1 205 3.00989 0.263805 4.22193 -0.0603783 -0.924365 6.92311 -0.146813 0.257892 0.229127 0.00806972 -0.0749458 -0.0715119 0.00945203 -0.0484496 -0.0400921 -5.18076e-06 -4.33323e-05 -1.99087e-05 
26.982 1 47 5.21346 4.26652 2.24609 -6.97161 2.70497 -2.86595 -0.247172 -0.1567 0.205331 -0.0247342 -0.0686184 -0.160813 -0.00644068 -0.0203178 -0.0613287 -1.59221e-05 1.24343e-05 -3.45965e-05 
26.982 1 206 4.95453 2.28999 4.31366 3.87667 0.876601 2.47125 0.395033 0.0992648 -0.262528 -0.0275571 -0.222162 -0.117611 -0.000743782 -0.0686379 -0.0395048 4.82048e-06 -2.14766e-06 -8.41376e-06 
26.982 1 249 7.25516 4.3671 4.23585 4.20173 -1.24736 3.54114 -0.170091 -0.530534 0.100902 -0.00160971 -0.0222302 -0.0179936 -0.000593323 -0.00761055 -0.00664649 -3.22327e-06 -9.85819e-06 -3.56986e-07 
26.982 1 209 7.25854 0.294398 4.32476 0.282136 -5.58234 2.59006 0.282789 -0.235159 -0.268717 -0.00897065 -0.180289 -0.180866 -0.00458708 -0.0528732 -0.0486516 2.91075e-06 -4.77025e-05 -2.75955e-05 
26.982 1 7 5.13529 0.0677216 2.36746 -0.638098 4.92724 2.32363 0.104366 0.602963 -0.44574 -0.00428091 0.00356899 -0.20124 -0.00917616 -0.00308641 -0.0747061 2.90445e-06 -5.4184e-05 -3.39103e-05 
26.982 1 6 5.10682 2.21326 0.278982 0.496263 2.45423 2.10639 0.207015 0.116983 0.481108 -0.049803 -0.104974 -0.190215 -0.0113179 -0.0427072 -0.0638185 -6.98346e-06 -1.38254e-05 -5.88023e-05 
26.982 1 49 7.36582 4.36132 0.36752 -1.42898 0.996239 -3.62204 -0.309241 0.109085 0.10943 -0.00772845 -0.0387928 -0.300634 -0.00798785 -0.0141715 -0.0949668 -4.49325e-06 -4.87499e-06 -6.26656e-05 
26.982 1 12 7.14136 2.26288 2.37968 -6.22579 4.8208 1.63172 0.253397 0.0137418 -0.170649 -0.0369993 -0.272806 -0.144887 -0.0163336 -0.0855691 -0.0521376 1.26149e-05 -1.9395e-05 -3.32458e-05 
26.982 1 51 9.39982 4.30515 2.31092 -2.19597 1.32201 1.96095 0.232048 -0.310935 0.23576 -0.00293803 -0.0203492 -0.128126 0.00254779 -0.0104416 -0.0479861 1.55582e-05 -2.12216e-05 -3.03673e-05 
26.982 1 210 9.43948 2.15077 4.37005 -2.95541 1.28295 1.50212 -0.17253 0.675672 -0.235797 -0.0016178 -0.181124 -0.101771 -3.82889e-05 -0.058769 -0.0291208 -9.98193e-07 3.63172e-06 -8.09546e-06 
26.982 1 11 9.44118 0.499594 2.21039 2.13724 1.06641 -2.8314 -0.146704 -0.515497 0.367801 0.00772517 -0.0463492 -0.159406 0.00854004 -0.0407194 -0.0506681 3.31888e-07 -4.43112e-05 -5.01169e-05 
26.982 1 16 11.5535 2.28534 2.47023 1.19894 0.100739 -2.01092 0.172334 0.329109 -0.116485 0.0482062 -0.246992 -0.161776 0.0197272 -0.0763872 -0.0625369 1.65225e-05 -1.31242e-05 -5.8496e-05 
26.982 1 253 11.5223 4.33974 4.44989 0.0574585 -0.279465 -1.32147 0.0432383 -0.215849 -0.211819 0.001594 -0.0213602 -0.0184008 0.000972548 -0.00768337 -0.00798808 -1.46244e-06 -5.48555e-06 -7.52492e-06 
26.982 1 55 13.6943 4.34642 2.4122 1.43921 -4.79843 -4.70875 -0.0345055 -0.453076 -0.251972 -0.000277555 -0.0682981 -0.185014 -0.000387518 -0.0207145 -0.0755556 -1.02685e-05 -2.66314e-05 -3.92969e-05 
26.982 1 214 13.7442 2.2404 4.33344 -2.39426 -1.34935 1.72743 -0.329857 0.233942 -0.24755 0.0345016 -0.206438 -0.10378 0.00878293 -0.0694392 -0.0352497 -7.67551e-06 -1.49028e-05 -2.73444e-05 
26.982 1 257 15.8826 4.46923 4.29903 -2.2703 0.978967 -1.44977 -0.00101323 -0.423233 0.0686219 -0.00280062 -0.0289489 -0.0174097 -0.000939895 -0.00935136 -0.00787305 1.91298e-06 -4.50953e-06 -3.0179e-06 
26.982 1 213 11.5714 0.116154 4.25586 0.342341 -0.440223 -0.852552 0.200404 0.372895 0.122185 -0.00891525 -0.182381 -0.175392 -0.00201994 -0.0514172 -0.0509712 1.38273e-05 -4.58472e-05 -3.65021e-05 
26.982 1 20 15.8896 2.35891 2.6661 -0.278465 -4.34672 1.67303 0.133965 0.0981904 -0.895106 -0.0935176 -0.26324 -0.129672 -0.0282763 -0.0860423 -0.0524214 -1.07214e-05 -2.6447e-05 -5.37116e-05 
26.982 1 218 18.014 2.29768 4.57898 -2.53341 1.14378 3.75665 0.120638 0.351902 -0.472795 -0.023583 -0.194542 -0.0596705 -0.00894398 -0.0643915 -0.0230736 1.47481e-05 -1.22197e-05 -1.14097e-05 
26.982 1 59 18.115 4.1641 2.33522 2.40251 4.28611 2.29769 -0.0773305 0.297394 0.202176 0.0114176 -0.00601404 -0.116184 0.00285045 0.000589004 -0.0513431 -3.43755e-06 -5.542e-07 -3.19861e-05 
26.982 1 217 15.954 0.313999 4.27704 3.59469 1.22814 2.5405 0.0501622 -0.512607 0.279142 0.0023848 -0.0522696 -0.0448548 -0.000156441 -0.0190282 -0.0177549 -7.2078e-06 -5.40609e-05 -3.05831e-05 
26.982 1 19 17.998 0.269101 2.43077 2.85962 -3.08444 0.694537 0.0131048 0.024436 -0.225646 0.0118408 -0.233163 -0.0871654 0.00463481 -0.0733129 -0.0419281 3.82319e-06 -4.15779e-05 -2.61495e-05 
26.982 1 57 16.1567 4.17122 0.449281 0.395552 -4.83874 -6.19323 -0.685923 0.047484 0.0500485 -0.0511654 -0.0387704 -0.331746 -0.0118445 -0.0102052 -0.0922825 2.11207e-06 -1.33761e-05 -6.2191e-05 
26.982 1 21 20.2618 0.278755 0.475512 -0.23541 -0.967674 0.0731072 0.0859651 0.166823 -0.259153 0.0297914 -0.161915 -0.163823 0.0079353 -0.04813 -0.0485494 2.28033e-06 -3.16302e-05 -2.76375e-05 
26.982 1 261 20.1116 4.3398 4.35696 2.1341 0.736785 5.30111 -0.07846 -0.285578 -0.178169 0.00144843 -0.02018 -0.0182819 0.000415695 -0.00634221 -0.00784876 -1.60427e-06 -7.38083e-06 -5.97581e-06 
26.982 1 24 20.1937 2.28824 2.41946 -4.49803 -0.0563736 0.11143 -0.036573 -0.189827 -0.0931535 0.0251286 -0.19789 -0.0971734 0.00745112 -0.0621803 -0.0454593 -6.72821e-07 -3.71717e-05 -8.90664e-06 
26.982 1 63 22.2303 4.23199 2.33979 -2.98793 0.069737 -2.07742 0.493577 0.259681 0.258801 0.00270588 0.00514601 -0.167797 0.00223943 -0.0021105 -0.0684392 1.81946e-05 -1.05089e-06 -1.57996e-05 
26.982 1 222 22.2842 2.30056 4.36348 2.66046 -3.06085 -1.78303 0.186588 -0.081725 -0.115375 -0.0270104 -0.159194 -0.0761891 -0.00465912 -0.0511926 -0.0254314 6.04304e-06 -4.34307e-05 -2.08355e-05 
26.982 1 28 24.6229 2.37026 2.34854 4.8902 -4.27406 1.04532 -0.628202 0.0101964 -0.18931 -0.0297664 -0.12703 -0.144679 -0.00524235 -0.046834 -0.0642037 -2.38941e-05 -3.60972e-05 -2.13416e-05 
26.982 1 61 20.2162 4.32093 0.37253 4.87837 1.97534 1.52016 -0.146497 -0.131614 -0.391196 0.0232431 0.0102013 -0.262722 0.00379244 0.000736993 -0.0722036 -2.08345e-05 -5.70088e-07 -6.56815e-05 
26.982 1 22 22.474 2.379 0.339235 -1.22205 4.08996 -1.86808 -0.410672 -0.22877 0.142815 -0.00200123 -0.119013 -0.288303 0.0074474 -0.0447299 -0.0852346 1.80112e-05 -2.22214e-05 -4.55826e-05 
26.982 1 265 24.4901 4.30748 4.25898 6.26001 -2.07482 6.10111 -0.316636 0.25151 0.146578 -0.000483326 -0.0123494 -0.0214454 0.000279184 -0.00481985 -0.00934397 -6.10942e-06 1.0108e-06 -3.87087e-06 
26.982 1 67 26.6244 4.21606 2.23983 -3.00246 1.76807 7.41495 0.31271 0.321107 0.0306892 0.00757998 0.00790074 -0.199066 0.00425035 0.00194825 -0.0834863 7.629e-06 2.02874e-05 -4.53273e-05 
26.982 1 226 26.5375 2.51814 4.41719 -1.68601 7.02463 4.57799 0.713835 -0.273733 -0.0667663 0.02842 -0.114946 -0.0336382 0.00409712 -0.0403133 -0.0167441 3.84394e-07 -2.51303e-05 -4.10146e-06 
26.982 1 32 28.8954 2.51179 2.44093 -2.6325 2.81358 -1.32587 -0.156907 -0.405046 -0.0475229 9.61987e-06 -0.161742 -0.148119 -0.0032976 -0.0466444 -0.0653838 1.92784e-05 -1.00648e-05 -3.87853e-05 
26.982 1 269 28.8546 4.37299 4.42156 -1.67883 -4.63889 -1.65896 0.0110187 0.0533217 -0.0946534 -0.00164676 -0.0162027 -0.0219801 -0.000687618 -0.00478538 -0.0104742 -1.18687e-06 -4.65465e-07 -7.01134e-06 
26.982 1 27 26.7995 0.61278 2.20586 0.12953 1.24348 0.168031 -0.0686107 -0.464887 0.673733 0.0537779 -0.339723 -0.118193 0.00277595 -0.0951767 -0.0524235 -1.86615e-05 -6.07441e-05 -1.69296e-07 
26.982 1 26 26.5423 2.42703 0.204977 2.65579 1.53776 -4.86975 0.434416 0.276879 -0.261817 -0.00216712 -0.0817921 -0.275732 -0.00984498 -0.0273148 -0.0811786 -8.69238e-06 8.91095e-06 -6.24823e-05 
26.982 1 71 31.0805 4.30161 2.32746 -0.0911708 2.35983 -0.88294 0.0259968 0.0201082 0.31645 -0.0150363 0.00320763 -0.141859 -0.00593777 0.00457406 -0.0686488 -1.19515e-05 -2.15276e-05 -3.15617e-05 
26.982 1 230 31.0699 2.38634 4.4084 4.27911 -0.777912 -2.95296 -0.0101054 -0.0699671 -0.191234 -0.025264 -0.145211 -0.0517735 -0.00924851 -0.0419081 -0.0200323 5.75234e-08 -2.03402e-05 -2.43492e-05 
26.982 1 233 33.2102 0.446334 4.26381 6.51433 -3.23196 4.77972 -0.267552 -0.290932 0.398505 -0.000850775 -0.20557 -0.0961292 -0.00321534 -0.0815012 -0.0433811 2.52484e-06 -4.8911e-05 -3.88859e-05 
26.982 1 273 33.2983 4.40154 4.44736 -0.174374 0.448149 -3.47207 -0.144894 -0.122376 -0.55913 0.00168956 -0.00982515 -0.0175679 5.61107e-05 -0.00208884 -0.00826568 5.53818e-07 -2.73063e-06 -1.24347e-05 
26.982 1 229 28.9584 0.510177 4.37151 -3.6598 -5.43131 -1.57522 -0.423527 -0.212788 -0.154923 -0.00421937 -0.116893 -0.0702539 -0.000936179 -0.0495239 -0.0290856 1.35714e-06 -4.61831e-05 -3.27649e-05 
26.982 1 29 28.696 0.517036 0.225334 -0.535359 1.73233 -2.13618 0.634791 -0.110856 0.135259 -0.0238362 -0.186514 -0.215004 -0.00210871 -0.0603998 -0.0759696 2.76945e-05 -2.67719e-05 -3.35457e-05 
26.982 1 73 33.2337 4.47451 0.368527 -2.27479 1.86661 0.462242 0.253771 -0.333799 -0.10872 0.0603088 -0.010651 -0.30316 0.0102246 -0.00500347 -0.0734313 -7.30548e-06 -2.32344e-05 -6.06825e-05 
26.982 1 36 33.2035 2.39864 2.43478 -0.770963 -0.592574 2.50515 -0.0606988 0.366148 -0.447955 -0.00434661 -0.137615 -0.146842 -0.00444779 -0.0367019 -0.0617639 -9.05327e-06 -3.77891e-05 -4.17423e-05 
26.982 1 75 35.4973 4.34486 2.2226 -1.33748 1.45675 -0.216656 -0.404538 0.311266 0.0558669 0.057114 0.00525105 -0.223031 0.00755103 0.00132534 -0.0741508 3.29761e-06 -5.3793e-08 -2.16477e-05 
26.982 1 234 35.3037 2.48327 4.3027 -0.876187 -1.42826 2.59005 0.292106 0.034016 0.397489 0.00432938 -0.090684 -0.0342445 0.00634412 -0.0294798 -0.0127581 1.61653e-05 -3.5396e-05 -1.47766e-05 
26.982 1 40 37.5387 2.49398 2.22403 0.484326 3.58403 8.24655 -0.0485036 -0.329097 0.302228 0.105163 -0.136283 -0.266231 0.0305698 -0.0515643 -0.079028 -1.32679e-05 -1.89729e-05 -7.60262e-06 
26.982 1 37 37.4955 0.326632 0.284638 -1.6705 2.26156 3.26326 0.432137 0.181464 0.0164801 0.0331665 -0.210323 -0.17599 0.0044844 -0.0561407 -0.0676515 -1.25047e-05 -4.05912e-05 -2.83027e-05 
26.982 1 34 35.44 2.2871 0.329938 3.35858 0.0175413 0.484583 -0.198866 0.543893 0.0371424 0.0489498 -0.0382168 -0.262661 0.00755195 -0.0157765 -0.0903552 -1.2508e-05 -1.87814e-05 -4.43794e-05 
26.982 1 277 37.4482 4.41143 4.35927 -2.40073 2.10367 4.19278 0.470696 -0.284742 -0.0800613 0.00324857 -0.0131137 -0.0355892 0.000988693 -0.00474444 -0.0105198 7.20923e-06 -8.29838e-06 -5.23744e-06 
26.982 1 4 41.8306 2.26892 2.01145 0.0620508 1.09346 4.70186 -0.0652281 0.65857 0.380425 -0.13154 -0.176092 -0.186016 -0.0411253 -0.0576295 -0.0616968 1.15023e-05 1.7938e-05 -2.94708e-05 
26.982 1 79 39.6035 4.384 2.18916 -4.14391 -2.05663 -0.154926 0.102354 -0.0578609 0.356033 -0.0380808 -0.067084 -0.252517 -0.00823076 -0.017986 -0.0792301 -2.33253e-07 1.28334e-05 -4.07707e-05 
26.982 1 238 39.6192 2.33847 4.21159 -4.66439 4.76103 -4.06172 -0.121137 0.247966 0.11454 0.00568666 -0.168057 -0.114822 -0.00179616 -0.0546414 -0.0364454 -1.55978e-05 -1.45786e-05 -1.32021e-06 
26.982 1 1 41.7832 0.294532 0.2333 6.20934 0.109704 -1.15386 -0.114258 0.0810416 0.0254269 -0.0873289 -0.0976212 -0.259277 -0.0250833 -0.0339009 -0.0873285 1.0192e-05 -3.57617e-05 -4.60471e-05 
26.982 1 39 39.5718 0.555666 2.21576 -0.882471 0.115477 3.51242 0.0827753 -0.746926 -0.117662 -0.0392639 -0.0276164 -0.251456 -0.0105734 -0.0166823 -0.0744224 -1.20934e-05 -6.20534e-05 3.11162e-06 
26.982 1 38 39.6932 2.47417 0.21993 -0.047122 3.64312 3.4138 0.278279 -0.497194 0.123317 0.00671688 -0.100477 -0.121464 0.00205942 -0.0353582 -0.0484463 -1.31152e-06 1.76727e-05 -6.52506e-05 
26.982 1 83 1.00964 8.28531 2.27784 -0.81954 -2.72792 -0.0283268 -0.478929 -0.147398 -0.243144 -0.165352 -0.0410668 -0.194943 -0.0529783 -0.0146414 -0.0592924 -1.92737e-05 7.70312e-07 -4.5762e-05 
26.982 1 242 0.795994 6.30439 4.2357 -6.35884 0.382286 -0.0719267 -0.0853712 -0.412218 0.0611799 -0.170232 0.024151 -0.0958481 -0.0566625 -0.000575828 -0.0285346 -1.8404e-05 -7.54753e-06 -1.47643e-05 
26.982 1 285 2.89041 8.04256 4.40685 -3.49254 4.91952 2.74397 0.40089 0.485286 -0.331647 -0.020981 -0.000182487 -0.0229542 -0.00553339 -0.000439772 -0.00663244 6.80216e-06 3.29783e-06 -7.70063e-06 
26.982 1 42 0.959853 6.40465 0.323932 -5.04667 -0.913743 -2.15315 0.260364 0.00958561 -0.189632 -0.135226 -0.0509302 -0.2182 -0.0467624 -0.0156257 -0.0846911 -1.63933e-05 8.93893e-07 -5.41472e-05 
26.982 1 281 -1.33809 8.23023 4.1638 -0.205201 0.0798962 1.99252 0.0777693 0.347372 0.0929625 -0.0722664 -0.074649 -0.0854134 -0.0318835 -0.0312004 -0.0357876 -3.36534e-05 -2.33654e-05 -3.25414e-05 
26.982 1 84 -1.28119 10.3049 2.10994 -1.63871 -2.84488 -7.894 0.186478 -0.32082 0.384561 -0.17457 -0.0487242 -0.269352 -0.0669583 -0.00884873 -0.0822902 -3.87115e-05 -4.54269e-06 -4.39406e-05 
26.982 1 48 3.07193 6.17874 2.19758 -0.0126949 -2.92355 1.0516 0.0103994 0.246806 0.299785 -0.0585353 -0.0075871 -0.179417 -0.0117119 -0.00528318 -0.0592013 1.28176e-05 2.84395e-06 -4.46628e-05 
26.982 1 87 5.22425 8.33056 2.39386 5.06398 -0.517085 -1.14509 -0.25643 -0.210556 -0.0621443 -0.00457521 0.0222235 -0.158905 -0.000753112 8.90361e-05 -0.0511522 -2.57504e-06 -1.88647e-06 -5.78209e-05 
26.982 1 246 5.1427 6.22848 4.24805 -2.2952 1.45449 2.19098 -0.114241 -0.0764234 0.138389 -0.000532849 -0.000617408 -0.012557 -0.000163926 -0.000289107 -0.00512611 -3.39159e-06 -8.2044e-07 -3.47464e-06 
26.982 1 52 7.33409 6.38483 2.37095 2.36426 1.20531 6.16187 0.0378879 -0.20756 0.0239398 0.0185321 0.0177409 -0.143267 -0.000180706 0.00188955 -0.0490956 -1.17901e-05 1.63448e-05 -3.79897e-05 
26.982 1 289 7.3546 8.4068 4.32427 -5.86315 -2.9017 7.28764 0.0850791 -0.202857 0.359353 0.0016525 0.000762348 -0.0195132 0.00033477 0.000166357 -0.00572271 8.09532e-07 -5.28505e-07 1.6526e-06 
26.982 1 92 7.38894 10.2998 2.41086 1.2734 -0.582483 -5.61396 -0.117897 0.0674755 -0.271243 0.0212766 -0.0208566 -0.17976 0.00955712 0.000783198 -0.0601559 -2.70473e-06 2.29365e-06 -5.87722e-05 
26.982 1 91 9.51263 8.42518 2.36717 -2.1069 -5.74624 -0.408778 -0.271697 -0.228036 -0.289295 0.0285393 0.0253485 -0.222827 0.00505354 0.0108325 -0.0642187 -1.75042e-05 6.74064e-06 -3.78385e-05 
26.982 1 250 9.44685 6.25881 4.27749 6.29682 0.0949243 -3.16494 0.0133781 0.346669 0.0200888 0.00161886 0.00147629 -0.0148974 0.000324608 0.000212648 -0.00471149 4.98567e-07 5.15966e-06 -2.23478e-06 
26.982 1 50 9.47857 6.24596 0.369235 1.25341 0.789621 0.87903 0.0249588 0.330265 0.059558 0.0251655 0.028766 -0.297569 0.00703147 -0.000704502 -0.111409 -1.66961e-07 3.6075e-06 -6.05533e-05 
26.982 1 290 9.64495 10.3371 4.44364 -1.73034 -0.561824 -2.21405 -0.380481 -0.279126 0.21338 0.00182138 0.000150832 -0.0251002 0.000503809 0.000724054 -0.00838923 -5.84798e-06 -2.58701e-06 1.29535e-06 
26.982 1 93 11.5106 8.31922 0.395594 -0.230181 0.15358 -0.149448 0.338489 0.107458 0.0536866 0.0307302 0.00851118 -0.102771 0.0137898 0.00602524 -0.0678507 -7.74184e-06 1.09977e-05 -6.25873e-05 
26.982 1 56 11.6661 6.27748 2.31964 -3.155 -0.793772 -0.489168 -0.308513 -0.0236048 -0.166973 0.00659985 0.0505871 -0.187993 0.00835431 0.0041264 -0.0625486 -3.08682e-06 -1.18992e-05 -2.59075e-05 
26.982 1 293 11.49 8.24177 4.28555 4.36646 7.00982 -1.7868 0.626503 0.0961636 0.159064 -0.000951298 0.00210379 -0.0269111 7.89256e-05 0.000954901 -0.00774443 1.13763e-05 2.71762e-06 -6.26748e-07 
26.982 1 95 13.7812 8.54601 2.2211 -0.99988 0.595964 1.11394 -0.390866 -0.645774 0.385481 -0.036745 0.0214201 -0.220092 -2.92301e-05 0.00209181 -0.0751791 9.39719e-06 -1.27075e-05 -2.07066e-05 
26.982 1 254 13.6127 6.26618 4.29985 3.02588 0.975654 2.38617 0.282321 0.21023 -0.0337298 -0.000205673 0.000133268 -0.0179419 0.000419033 -0.000169218 -0.00766581 3.23248e-06 4.65656e-06 -4.66997e-06 
26.982 1 297 15.8242 8.32318 4.31955 -2.56781 2.95905 0.865743 -0.00480964 -0.167391 -0.0355324 -0.000191767 0.00274899 -0.0196177 8.36099e-05 0.000753442 -0.00866154 -2.17845e-07 -3.28537e-06 -6.18057e-06 
26.982 1 294 13.8204 10.3375 4.53811 -2.8383 3.8908 -3.14789 -0.231218 -0.164842 -0.349224 0.000240763 0.00301718 -0.0267184 0.000249804 0.0010918 -0.00929341 -5.7964e-06 -1.68245e-06 -3.54681e-06 
26.982 1 94 13.5915 10.5209 0.302166 -3.44529 -1.71644 -2.93496 0.296487 -0.263849 -0.144695 -0.022804 -0.0222043 -0.193235 -0.00177736 -0.0031395 -0.0704287 -4.80554e-06 -7.72708e-07 -6.68952e-05 
26.982 1 96 11.5971 10.3123 2.4214 -5.58558 5.59393 -1.94506 0.138498 0.120946 -0.188321 0.00232595 -0.0262045 -0.244792 0.000126489 0.00508028 -0.0801344 -7.32616e-06 1.27044e-05 -3.19329e-05 
26.982 1 54 13.6722 6.15321 0.256973 -1.5089 4.74187 -6.51181 0.385826 0.63084 0.512098 -0.0459941 0.0481666 -0.26568 -0.00665894 0.0121817 -0.0729807 1.77315e-06 -3.42061e-06 -6.09321e-05 
26.982 1 60 15.7237 6.24724 2.22929 -5.55332 0.598458 1.1674 0.167884 0.295134 0.0698734 -0.0137826 0.0125106 -0.145056 -0.00424474 0.00525213 -0.0654735 1.35945e-05 1.58766e-05 -3.38155e-05 
26.982 1 99 17.7483 8.17957 2.32782 0.285764 1.9879 -6.85362 0.729419 0.400067 -0.0295005 0.0029513 0.0362384 -0.174108 -0.00738703 0.0110851 -0.0685349 1.43661e-05 3.63542e-06 -5.93672e-05 
26.982 1 258 18.1022 6.27898 4.25398 4.68676 -2.27157 0.190052 -0.247961 0.169062 -0.0700575 0.000799798 0.00199481 -0.0132245 7.44786e-05 0.000300574 -0.00648218 -2.68879e-06 5.42689e-06 -1.20201e-05 
26.982 1 298 18.0704 10.1587 4.40454 0.36285 -0.0199001 -3.55889 -0.0330302 0.169776 -0.356664 1.17766e-05 0.0015467 -0.0269795 -0.000343289 0.000477329 -0.0104514 -1.44368e-07 1.61756e-07 -1.30816e-05 
26.982 1 301 20.1737 8.35739 4.38402 -3.31374 -1.95664 2.14688 0.184632 -0.605632 -0.166026 0.00142336 0.00216236 -0.0205878 -3.31529e-05 0.000616284 -0.0066073 3.69114e-06 -1.10455e-05 -1.07961e-05 
26.982 1 64 20.2188 6.23164 2.30023 6.88031 -3.01406 -1.06004 -0.215418 0.4004 0.212723 0.0240902 0.000855816 -0.168389 0.00425985 -0.00652698 -0.0613315 -1.55934e-05 2.52433e-05 -2.99001e-05 
26.982 1 103 22.4291 8.08615 2.44827 2.71672 0.296722 1.53113 -0.281259 0.699034 0.149585 0.00391461 0.0311617 -0.222998 0.00413237 0.00563792 -0.0692793 -1.98626e-06 1.07394e-05 -2.69428e-05 
26.982 1 262 22.4512 6.31129 4.43487 -1.99098 0.557361 1.66421 -0.0790615 0.484129 -0.39287 0.000411082 0.00118604 -0.0209657 0.000341066 -0.000286365 -0.00758523 -6.57987e-07 8.57862e-06 -5.91534e-06 
26.982 1 102 22.4198 10.1541 0.473245 -3.01031 3.62362 1.64656 -0.0866362 0.0563227 0.137102 0.0145036 0.00906331 -0.0845824 0.00260013 0.000703391 -0.0458952 -1.07655e-05 -8.20587e-06 -5.84778e-05 
26.982 1 108 24.4107 10.2781 2.52147 -0.901705 -5.05974 5.62771 0.507005 0.0289472 -0.3065 -0.051671 0.0395042 -0.23598 -0.0110461 0.00755154 -0.0730041 1.72371e-05 -1.22985e-05 -3.52368e-05 
26.982 1 62 22.4051 6.3332 0.442016 -1.73297 -1.39209 7.4644 -0.0721442 -0.306832 -0.481725 0.00219388 0.0383398 -0.212184 0.00203338 0.00385437 -0.0703548 1.27547e-05 9.11796e-06 -6.48283e-05 
26.982 1 305 24.5987 8.27613 4.58187 -3.25963 -3.22063 6.80399 -0.00662528 0.0421491 -0.212032 -0.000607508 0.00126391 -0.0226854 0.000127762 4.33235e-05 -0.00762409 8.69957e-07 -1.14435e-06 -6.67425e-06 
26.982 1 68 24.64 6.29565 2.3213 2.12005 1.20006 -4.89539 -0.240615 -0.048074 0.168454 0.00787294 0.00193362 -0.20221 0.00578088 -0.00432376 -0.0763704 7.8185e-06 3.81047e-06 -4.87783e-05 
26.982 1 107 26.6543 8.32358 2.53563 -1.20523 -4.72732 -0.281225 -0.12198 -0.0938466 -0.413458 0.0420987 -0.033385 -0.223393 0.0127429 -0.0137591 -0.0785615 -1.77151e-06 -8.53723e-07 -5.96733e-05 
26.982 1 266 26.6658 6.14789 4.23924 3.53059 0.223909 1.28609 0.117366 0.187136 0.436825 0.00136074 0.00187266 -0.0253673 0.000417031 8.39947e-05 -0.0102573 2.26394e-06 4.35654e-06 -2.18418e-06 
26.982 1 72 28.8882 6.24673 2.30941 0.219291 -2.96759 -0.402166 -0.188825 0.0557404 0.313039 -0.0246774 0.0419874 -0.235659 -0.00533097 0.00516793 -0.0931885 -1.80877e-05 3.27641e-06 -4.64713e-05 
26.982 1 112 28.6288 10.2647 2.3791 10.6163 -1.14894 -0.171614 0.599565 0.166471 0.0197916 -0.0124502 -0.061973 -0.168491 -0.00420829 -0.0143739 -0.063412 8.96104e-06 1.5947e-07 -5.86485e-05 
26.982 1 306 26.7864 10.3292 4.44747 -2.57962 2.01226 -3.08208 -0.223232 -0.0938049 0.163253 -0.000576447 -0.00136993 -0.0184289 1.99333e-05 -0.00049405 -0.00676168 -2.39728e-06 -2.14674e-06 -3.30403e-06 
26.982 1 309 28.7808 8.20669 4.43055 -2.23255 0.761608 2.76991 0.543238 0.299836 -0.278204 -0.00110064 -0.000693537 -0.0299688 -0.000214611 -0.000545244 -0.0106987 7.72827e-06 5.616e-06 -9.54131e-06 
26.982 1 111 30.983 8.26366 2.31767 3.23761 3.1015 -7.2431 -0.238631 -0.158698 0.398342 -0.0285717 -0.0228272 -0.20187 -0.00581219 -0.0130568 -0.0754006 -1.98362e-05 1.90457e-05 -3.04883e-05 
26.982 1 270 31.0913 6.31316 4.2939 -0.243765 -3.13492 -1.73322 -0.279635 0.12989 0.0229137 -0.000313434 0.00212311 -0.0204533 -0.000231859 0.000395801 -0.00937842 -6.17788e-06 4.65719e-06 -4.69504e-06 
26.982 1 70 31.0031 6.28979 0.409958 0.685728 1.72276 -0.40251 -0.0280354 0.393306 -0.129043 -0.051996 0.0735654 -0.304544 -0.0163483 0.0147254 -0.0735173 -2.85187e-05 1.23231e-06 -6.76561e-05 
26.982 1 313 33.3331 8.23382 4.48969 3.55472 -1.66854 3.64879 -0.166861 0.0749219 -0.738943 0.000959409 0.000398164 -0.0220528 -4.03342e-05 -7.40951e-05 -0.00861802 -2.45463e-06 4.03955e-06 -1.03959e-05 
26.982 1 76 33.0907 6.33026 2.31147 -1.1134 -0.959974 3.44485 0.583843 0.0132492 0.466074 0.0223735 0.0252327 -0.191278 5.38119e-05 0.00444891 -0.0771876 1.03727e-05 -7.9113e-07 -2.75005e-06 
26.982 1 115 35.4206 8.17643 2.34 -2.30866 -3.34399 1.07892 -0.400388 0.23337 0.0860094 -0.0409094 -0.00952999 -0.183752 -0.0164132 -0.000329104 -0.0647511 -6.77688e-06 2.30967e-06 -8.46877e-06 
26.982 1 274 35.5078 6.25785 4.39536 0.178518 -0.167982 -0.617941 -0.42012 0.27911 -0.162112 0.00223924 -0.0016527 -0.0231416 -6.33649e-05 -0.00044264 -0.00782878 -6.49632e-06 3.39622e-06 -3.3775e-06 
26.982 1 317 37.5629 8.3616 4.25492 -0.248225 -2.05048 -4.9679 0.0766053 -0.07057 0.44883 -0.000108279 -0.00133688 -0.014957 3.21379e-05 -0.000186284 -0.00503535 3.21626e-06 -2.57622e-06 5.97603e-06 
26.982 1 74 35.4486 6.37226 0.234775 -4.25884 1.36499 1.32639 0.04511 -0.0609985 0.117286 0.0379805 -0.0319206 -0.194345 0.00392478 -0.00985696 -0.0709229 1.40895e-05 -1.06479e-05 -6.13732e-05 
26.982 1 114 35.299 10.3117 0.476749 2.36555 -3.87775 -1.8682 -0.100401 -0.120789 -0.439452 -0.0159625 0.0277266 -0.246706 -0.00883136 0.0071272 -0.0728011 6.49903e-06 1.16371e-05 -6.34919e-05 
26.982 1 113 33.2271 8.2784 0.431384 2.38642 -2.88557 0.34987 0.035165 0.0940998 -0.318654 0.00651262 0.0234171 -0.179687 0.000772705 0.00717275 -0.0504579 -1.32067e-05 1.23776e-05 -6.45725e-05 
26.982 1 44 41.6961 6.17055 2.26329 5.14814 -5.63717 -4.71709 0.369268 0.363072 0.52011 0.0112152 -0.170225 -0.202778 -0.0114042 -0.0480278 -0.064404 1.24618e-05 -1.91696e-05 -3.89638e-05 
26.982 1 117 37.6157 8.45637 0.41892 1.7221 2.28372 -0.256116 -0.429772 -0.0171033 -0.353113 0.0112035 0.0187072 -0.404402 0.00334903 0.00717268 -0.135671 2.36902e-05 3.69817e-06 -6.66122e-05 
26.982 1 80 37.5617 6.42887 2.33445 2.47795 -1.07254 -0.601084 -0.0768004 -0.621777 -0.228554 -0.010577 -0.0790408 -0.201792 -0.0013751 -0.0209693 -0.0632239 1.18722e-05 -2.05148e-05 -3.35816e-05 
26.982 1 119 39.536 8.29068 2.36942 4.70468 -1.47028 -2.14655 0.625105 0.378402 -0.143088 0.0416047 0.0327097 -0.188411 0.0159558 0.00862144 -0.0663762 2.29911e-05 5.20402e-06 -4.39762e-05 
26.982 1 278 39.7593 6.23037 4.31597 1.86834 0.394234 3.49215 -0.500812 0.117495 0.066611 0.0688618 -0.070332 -0.0258611 0.0173279 -0.0173017 -0.00880625 6.01655e-06 -1.09018e-05 -2.18053e-06 
26.982 1 123 0.94572 12.2813 2.32267 -2.65841 -1.61443 2.14058 -0.409767 -0.203428 -0.271609 -0.162175 -0.06911 -0.21367 -0.0547255 -0.012535 -0.0676027 -2.08748e-05 -1.84912e-05 -3.75392e-05 
26.982 1 282 0.806819 10.1727 4.2529 0.976225 -1.23723 0.14366 -0.142397 0.258536 -0.107358 -0.157159 -0.0115677 -0.0675155 -0.0472587 -0.00194407 -0.0198626 -9.61421e-06 1.63092e-06 -9.6734e-06 
26.982 1 322 0.838358 14.1718 4.40325 -1.0306 1.10467 -4.57145 0.176018 1.07209 -0.544063 -0.103228 -0.0450645 -0.0559273 -0.0298904 -0.0126034 -0.0156891 -1.38229e-05 2.69165e-05 -8.89455e-06 
26.982 1 124 -1.26824 14.3764 2.29711 -3.28519 1.28749 -0.0222015 0.163773 -0.60257 0.191971 -0.197043 -0.0919132 -0.206605 -0.0836507 -0.0284757 -0.0688987 -5.02724e-05 -5.41505e-06 -2.67458e-06 
26.982 1 321 -1.14665 12.3834 4.21403 -2.79884 3.10732 -7.18125 -0.472517 -0.217246 -0.0352981 -0.0912309 -0.0646359 -0.0848376 -0.0330375 -0.0265071 -0.0330866 -3.38455e-05 -1.72813e-05 -1.85756e-05 
26.982 1 325 2.93329 12.2944 4.20749 -1.84372 -1.59566 1.53462 0.118936 -0.211297 0.308599 -0.0163503 -0.00304597 -0.0197429 -0.0047499 -0.000430994 -0.00549882 1.19014e-06 -3.0103e-06 1.39817e-06 
26.982 1 122 0.936148 14.1445 0.232292 -0.965196 0.435578 7.23148 -0.161439 0.511053 0.294437 -0.186123 -0.0330804 -0.230246 -0.0576837 -0.00686045 -0.0701961 -1.02659e-05 4.07517e-06 -5.88783e-05 
26.982 1 286 4.97039 10.3658 4.23301 0.373244 -2.30341 0.483017 0.481003 -0.338913 0.36082 -0.000608429 0.000737372 -0.0163589 0.000186767 0.00024177 -0.00456421 8.66431e-06 -8.21981e-06 1.0018e-06 
26.982 1 88 2.98662 10.1332 2.35412 6.05642 0.0979052 -1.32802 0.14441 0.269166 -0.289296 -0.0572712 -0.0155769 -0.205401 -0.0150525 -0.00538926 -0.0559317 1.2621e-07 -1.04252e-05 -5.01806e-05 
26.982 1 128 2.93331 14.2167 2.23017 -5.29512 1.35 1.85251 0.175895 0.479474 0.405009 -0.0204303 0.0038635 -0.1668 -0.00856211 0.00630255 -0.0572151 2.2733e-06 2.291e-05 -1.71008e-05 
26.982 1 125 3.04641 12.3681 0.293296 -2.32587 1.22225 1.01822 0.264175 -0.37911 0.171812 -0.0389324 -0.055733 -0.297201 -0.0139002 -0.00482356 -0.11123 3.45506e-06 -2.98824e-05 -6.52563e-05 
26.982 1 127 5.12428 12.0981 2.15284 4.22564 5.55029 3.98155 -0.0151561 0.185037 0.158141 -0.00854439 0.00220669 -0.149607 0.00446391 0.00358324 -0.0492127 1.97296e-05 -1.45318e-05 -3.92992e-05 
26.982 1 326 5.09416 14.0211 4.20885 1.71637 1.89082 2.12271 0.0484856 0.282727 0.0970591 0.00035431 0.000312493 -0.0161391 0.000184351 -3.93045e-05 -0.00539138 2.55425e-06 2.47356e-06 -2.53954e-06 
26.982 1 126 5.15121 14.4121 0.584026 3.53145 -1.92018 1.35311 0.0104437 -0.142207 -0.325472 0.0282311 0.00137869 -0.266761 0.00935941 0.000134024 -0.0918273 1.34359e-06 3.46298e-06 -6.35104e-05 
26.982 1 132 7.2464 14.2414 2.52023 2.54705 -1.96336 -5.11915 0.360384 -0.109574 -0.201795 0.0110748 0.0231918 -0.174051 0.00280639 -0.000479961 -0.0588015 1.71062e-05 -1.55117e-05 -3.42504e-05 
26.982 1 329 7.44003 12.2209 4.39787 2.1907 -2.04032 2.50882 -0.298005 -0.0685553 -0.0312336 0.000531736 3.68171e-05 -0.0157277 0.0004765 -7.96341e-05 -0.00623055 -4.58545e-06 -1.64029e-06 -7.0137e-06 
26.982 1 131 9.51368 12.181 2.47581 0.956736 -0.539809 0.442232 -0.117389 0.550836 -0.457182 0.0223789 -0.00769827 -0.189226 0.00886728 -0.00418157 -0.071187 -5.02425e-06 9.64297e-06 -6.24083e-05 
26.982 1 330 9.51812 14.3851 4.36743 6.36636 1.08905 -2.86482 -0.232521 -0.165435 0.0301352 0.000300145 0.00101486 -0.0206997 0.000415665 -6.64784e-05 -0.00719936 -5.06314e-06 -9.31876e-07 -5.48975e-06 
26.982 1 333 11.6091 12.3883 4.38585 2.89828 -5.91617 0.926525 0.228045 -0.42094 0.258581 0.00128383 -0.000592471 -0.0235878 0.000269285 -0.000251469 -0.00948557 3.34151e-06 -6.26565e-06 2.39361e-06 
26.982 1 136 11.611 14.2269 2.32679 2.51893 6.12142 -1.84905 -0.0963898 0.319602 0.0727977 -0.00203693 0.00300953 -0.204686 -0.000861851 -0.0046272 -0.0733217 -1.66542e-05 1.65857e-06 -5.03765e-05 
26.982 1 135 13.714 12.183 2.44288 -6.04904 -2.0166 1.90967 0.0412373 0.218231 0.0449094 0.0251879 -0.0147559 -0.23024 0.00416092 -0.00550818 -0.0810841 -1.03085e-05 5.78843e-06 -1.56609e-05 
26.982 1 334 13.692 14.2766 4.27898 -4.32526 3.29566 -2.96582 0.262621 0.0503355 0.246112 0.000179536 -0.00114321 -0.0224013 -0.000180652 -0.000729732 -0.00782779 7.20058e-06 -2.48819e-07 1.59622e-06 
26.982 1 134 13.7627 14.2232 0.304731 -3.33799 -1.36008 4.09481 0.0535227 0.223503 -0.0325103 -0.040803 -0.0135999 -0.250762 -0.0138416 -0.0107578 -0.0934367 -1.584e-05 1.32712e-05 -5.99561e-05 
26.982 1 140 15.7806 14.3688 2.44174 1.73786 4.20397 2.64798 0.332361 0.083706 -0.0687194 0.0315585 -0.0579831 -0.22342 0.00965942 -0.0186764 -0.075466 4.23816e-06 1.41788e-05 -1.98085e-05 