ITEM: TIMESTEP
10000
ITEM: NUMBER OF ATOMS
4000
ITEM: BOX BOUNDS pp pp pp
-2.10662 42.6066
0.568568 39.9314
0.588676 39.9113
ITEM: ATOMS mass type id x y z vx vy vz fx fy fz xrad yrad zrad vxrad vyrad vzrad fxrad fyrad fzrad 
26.982 1 43 0.18764 4.37979 2.56366 1.76915 -5.98672 -2.98149 -0.207767 0.161973 -0.372739 -0.377631 -0.237262 -0.560167 -0.0734879 -0.0392047 -0.108998 -1.55407e-05 4.5108e-07 -5.44764e-05 
26.982 1 202 -0.136642 2.6408 4.54216 2.25645 -0.288303 -0.701781 0.443248 -0.582554 0.20094 -0.359159 -0.335053 -0.32177 -0.0714833 -0.058441 -0.0642393 -1.75567e-05 -1.73759e-05 -6.51824e-06 
26.982 1 4 -2.3253 2.64735 2.50115 1.481 -1.69958 3.72886 0.546909 -0.541483 0.216 -0.373616 -0.451592 -0.504629 -0.0866362 -0.0840006 -0.0962737 -3.3373e-05 -7.87925e-06 -1.91172e-05 
26.982 1 8 2.34638 2.58467 2.57442 0.140164 1.97879 -4.34455 -0.185813 0.151826 -0.384029 0.130756 -0.559208 -0.563248 0.0160408 -0.107471 -0.121516 5.9453e-06 -1.95992e-05 -3.03468e-05 
26.982 1 961 -1.8465 16.3686 16.2501 -0.968693 -3.4187 5.02244 -0.193663 0.227957 0.253179 -0.365184 -0.221562 -0.258119 -0.0657724 -0.0424247 -0.048431 -2.3232e-05 -8.54948e-06 -6.76117e-06 
26.982 1 241 42.6683 4.47084 4.59288 -4.07345 -0.840912 0.42277 -0.430205 0.289689 -0.0418968 -0.338161 -0.340786 -0.374631 -0.0586955 -0.0542698 -0.0626119 -4.75207e-06 6.96942e-07 -7.03577e-06 
26.982 1 805 2.36319 0.608704 16.1041 3.19274 -4.15747 1.78104 0.19738 0.180335 0.512712 -0.0354033 -0.21277 -0.240736 -0.00480553 -0.0375169 -0.0394264 1.25276e-05 -4.52692e-05 -2.07507e-05 
26.982 1 3 0.119649 0.571326 2.58689 2.2274 2.86141 1.89847 -0.282214 0.362315 -0.241905 -0.287451 -0.680155 -0.398965 -0.0497444 -0.127079 -0.0984892 -1.39422e-05 -3.63402e-05 -1.08026e-05 
26.982 1 3025 24.8092 20.1622 20.0889 -2.44093 2.10529 2.28378 -0.414329 -0.0237485 0.140301 -0.366092 -0.0721212 -0.590172 -0.066162 -0.022701 -0.121539 -2.4888e-05 6.04001e-06 -2.19678e-05 
26.982 1 2821 20.0914 20.211 16.44 -2.04749 4.65914 -3.6964 0.0968237 -0.0613581 -0.597901 -0.144917 0.20691 -0.394876 -0.0435378 0.00255808 -0.0876402 -1.26242e-05 1.35837e-05 -3.84526e-05 
26.982 1 245 2.32004 4.53821 4.69829 -3.83245 -2.89873 1.01506 0.233654 -0.201027 -0.419803 -0.0262128 -0.0616199 -0.0796339 -0.0052729 -0.00975027 -0.0157685 4.02589e-06 -1.06392e-05 -1.24353e-05 
26.982 1 47 4.57696 4.54011 2.30693 4.4228 2.88333 -0.799972 -0.0920963 -0.0432962 0.442613 -0.0522583 -0.149507 -0.52104 -0.00483731 -0.0203103 -0.112497 -1.70673e-05 -4.6558e-06 -4.41408e-05 
26.982 1 206 4.43551 2.55337 4.36149 3.40978 -1.73786 4.09076 0.324663 0.577349 0.692355 -0.0320635 -0.543458 -0.318177 -0.00114886 -0.0918121 -0.0590487 3.1806e-06 -3.83109e-05 -1.71349e-05 
26.982 1 12 6.76427 2.46677 2.49432 3.60505 -0.890245 -5.06531 -0.15023 -0.000840347 -0.275114 -0.12168 -0.673067 -0.448456 -0.0199634 -0.120444 -0.100387 -5.92154e-06 -6.14783e-05 -3.09373e-05 
26.982 1 2809 6.70498 20.0571 16.3932 -3.27608 4.63899 0.545359 0.193465 0.439076 -0.044034 -0.203672 0.0512249 -0.458946 -0.0390921 0.00104654 -0.0820111 -1.22999e-06 4.1412e-05 -1.53476e-05 
26.982 1 1000 38.2409 18.3079 18.1836 0.685238 1.81249 -1.20168 0.0278227 0.170378 0.315622 -0.0998949 0.369124 0.0496461 -0.0190491 0.0764155 0.0131047 1.47613e-06 3.78018e-05 -3.6404e-06 
26.982 1 49 6.75992 4.42658 0.423724 -2.50656 3.9816 -0.736467 0.126674 -0.119827 -0.0592001 -0.0513058 -0.0867204 -0.797053 -0.00799268 -0.0108825 -0.150052 -1.50559e-05 -1.4348e-05 -6.5504e-05 
26.982 1 249 6.74197 4.56917 4.27429 -5.23617 1.47508 3.07508 -0.226111 -0.202189 0.473659 -0.00527682 -0.0552053 -0.0578141 -0.000878466 -0.00931437 -0.013005 -9.0226e-06 -8.3491e-06 3.87649e-06 
26.982 1 998 40.705 18.2037 16.2673 2.51636 -0.968652 -3.9647 -0.752271 0.128976 0.0330214 0.107565 0.065276 -0.159488 0.0143874 0.0210635 -0.0323667 1.05271e-07 2.96906e-06 -1.87366e-05 
26.982 1 51 8.87175 4.38315 2.25465 0.688535 -3.07721 -0.528796 0.476521 -0.0833349 0.338796 0.00718271 -0.0591096 -0.407878 0.00289707 -0.00825564 -0.0924269 1.0845e-05 -2.67516e-05 -2.4224e-05 
26.982 1 210 8.77075 2.64817 4.48809 5.66657 -0.698302 1.95781 0.718596 -0.116127 -0.0337052 0.01857 -0.470756 -0.247744 0.00885778 -0.0903495 -0.0485807 1.09562e-05 -4.33824e-05 -1.6888e-05 
26.982 1 2807 4.59779 20.1983 18.4695 2.91507 1.55697 1.32428 -0.0305757 -0.156267 -0.407588 -0.367905 -0.0270772 -0.371212 -0.0584359 -0.0219269 -0.0843845 -1.31476e-05 1.00059e-05 -9.72193e-06 
26.982 1 16 11.0159 2.44224 2.63718 2.24429 0.473938 4.59886 0.369228 -0.121188 -0.333421 0.13633 -0.647755 -0.491544 0.021277 -0.126622 -0.102682 -6.36851e-06 -5.98564e-05 -2.5713e-05 
26.982 1 253 11.307 4.32202 4.45581 -0.0788711 4.86363 0.480321 -0.339529 0.360187 0.280378 0.00542331 -0.0612476 -0.0618857 0.000950627 -0.0121155 -0.0142937 -5.00617e-06 -5.71599e-06 2.37019e-07 
26.982 1 55 13.5927 4.48515 2.6431 -6.81575 1.35129 -1.16214 -0.0232051 0.0849868 -0.388004 0.0099202 -0.16598 -0.579361 0.00425356 -0.0230934 -0.123893 7.90118e-06 7.43031e-06 -3.97072e-05 
26.982 1 214 13.4099 2.58329 4.42404 1.48872 1.7139 1.64672 0.417604 -0.497439 0.564947 0.0555538 -0.546345 -0.281914 0.00206894 -0.101158 -0.0551957 -3.34247e-06 -4.16874e-05 -9.48595e-06 
26.982 1 14 13.5122 2.64317 0.722841 -3.27804 -1.99231 -0.518744 0.150109 -0.190689 -0.0821534 0.0368833 -0.407636 -0.415521 0.00692801 -0.075633 -0.104181 -3.38271e-06 -1.98875e-05 -4.44811e-05 
26.982 1 217 15.658 0.551124 4.45256 2.72721 -5.36064 -1.27243 0.17184 0.49508 0.347722 0.0103977 -0.242968 -0.207417 0.00478105 -0.0775996 -0.0664112 -1.55305e-05 -3.68178e-05 -2.76351e-05 
26.982 1 999 40.4263 16.4223 18.2807 -4.69287 -0.950843 -1.52232 0.100361 -0.00213553 -0.399869 0.17707 -0.0205128 -0.150978 0.0338257 -0.00685276 -0.0261769 1.36949e-05 -9.07197e-07 -1.33398e-05 
26.982 1 257 15.8556 4.39325 4.47106 3.58651 0.411764 -4.67083 0.0386427 0.433176 0.304723 -0.00491283 -0.0724967 -0.0653286 -0.000299673 -0.0122979 -0.016075 -1.30621e-06 4.19474e-06 6.694e-07 
26.982 1 20 15.9625 2.52929 2.53953 1.24935 -4.82078 -3.59704 -0.432577 0.0200234 -0.0442258 -0.191219 -0.678859 -0.459375 -0.0222253 -0.121929 -0.106964 -1.83753e-05 -1.08657e-06 -2.36924e-05 
26.982 1 218 18.0957 2.56424 4.34013 1.40502 1.79691 2.8169 -0.176501 -0.275137 0.425956 -0.0492579 -0.516206 -0.19843 -0.00084007 -0.100611 -0.0473236 -4.03852e-06 -1.30389e-05 4.01456e-06 
26.982 1 59 18.0345 4.54189 2.39524 -3.14868 1.86919 -3.52271 0.0689497 0.00249001 0.426296 0.0199076 -0.01576 -0.444305 0.00178016 -0.00245911 -0.107639 -1.6827e-05 2.13602e-07 -2.01127e-05 
26.982 1 18 18.1726 2.49327 0.545987 0.64223 -1.03102 -1.62194 -0.352873 0.420265 0.306549 -0.043289 -0.361328 -0.849277 -0.00617996 -0.0714303 -0.153721 3.32598e-06 -9.80333e-06 -6.26964e-05 
26.982 1 24 20.3552 2.62732 2.66757 -0.155817 -0.411913 6.35222 -0.132059 -0.719731 -0.419025 0.0554488 -0.526439 -0.368515 0.0113435 -0.111095 -0.089511 2.20328e-05 -4.2642e-05 -3.73146e-05 
26.982 1 261 20.2538 4.51234 4.45902 -0.598181 -2.78837 -1.48763 0.0891678 0.391833 0.0896625 0.00390536 -0.0547347 -0.0664439 0.000954351 -0.0117797 -0.0164703 3.96179e-06 5.01516e-06 -1.65979e-06 
26.982 1 63 22.4487 4.39943 2.65748 2.65018 0.746968 -1.10417 0.119891 0.370225 -0.0678164 0.0241449 -0.00780272 -0.563833 0.00780939 -0.00565048 -0.131399 4.68433e-06 -1.56436e-05 -2.80599e-05 
26.982 1 222 22.4427 2.62409 4.70668 -1.47583 1.68949 1.52437 0.0313231 -0.270178 -0.191198 -0.0308816 -0.456943 -0.230241 -0.00262479 -0.0982607 -0.0530338 1.25037e-05 -3.49586e-05 -2.1994e-05 
26.982 1 28 24.7233 2.52849 2.46108 2.8338 3.68852 -3.69102 0.0208807 0.0641619 -0.15422 -0.0603663 -0.403638 -0.50514 -0.0082299 -0.0910132 -0.118239 1.36773e-06 -5.65765e-05 -3.33568e-05 
26.982 1 997 38.2578 16.3402 16.3137 -3.87045 -4.52867 -1.52527 -0.29022 0.137105 -0.369833 0.00331418 0.000964877 -0.00437331 0.000344739 0.000245621 -0.00100553 -8.59871e-06 2.08652e-06 -9.48376e-06 
26.982 1 265 24.6507 4.41796 4.37394 -0.577178 -0.390832 0.239739 0.269665 0.225122 0.295938 -0.000771911 -0.0439908 -0.0792308 -0.000227354 -0.0106173 -0.0199049 5.62465e-06 -6.05314e-06 -2.85504e-06 
26.982 1 67 26.9958 4.73257 2.60263 -1.22021 4.65518 -2.58039 -0.246273 -0.457672 0.0584793 0.0235759 0.00179601 -0.671645 0.00465182 -0.0017332 -0.155645 4.63596e-06 -9.87154e-06 -4.96498e-05 
26.982 1 226 27.073 2.4342 4.31399 3.58654 3.58464 -0.617277 -0.32329 0.592327 0.49311 0.0238632 -0.344767 -0.135722 0.000290483 -0.0802232 -0.0390047 -1.86057e-05 -3.05308e-05 -2.39768e-05 
26.982 1 2803 0.354718 20.3133 18.4204 -1.53636 -2.61667 2.59538 -0.592918 -0.11485 -0.0453082 -0.498665 -0.336742 -0.3525 -0.101015 -0.0583951 -0.0808908 -2.73123e-05 1.90132e-05 -2.63982e-05 
26.982 1 32 29.1985 2.78534 2.49135 -1.29472 -8.73361 -2.73763 0.19794 -0.403282 0.0267336 0.0101575 -0.390912 -0.528278 0.00176804 -0.0744119 -0.123398 -1.27624e-05 -6.4017e-06 -4.88419e-05 
26.982 1 269 29.2065 4.6779 4.54224 -3.18903 -1.82618 2.51435 -0.0385418 -0.258666 0.187744 -0.00359058 -0.042473 -0.0837116 -0.000607217 -0.00949487 -0.021093 -1.94383e-06 -5.84725e-06 -1.42093e-06 
26.982 1 71 31.4093 4.52611 2.5022 3.73245 -3.55366 -3.49401 -0.0392429 0.0867623 0.0874953 -0.0600337 -0.000232905 -0.552067 -0.0159712 -0.0032217 -0.140564 -1.17113e-05 -1.24913e-05 -3.60012e-05 
26.982 1 230 31.3964 2.47128 4.37829 -0.705527 0.126712 -3.1324 0.0280132 0.383902 0.373614 -0.0432965 -0.397685 -0.186978 -0.00538669 -0.0814365 -0.0433707 9.84522e-07 1.57176e-07 -2.39303e-06 
26.982 1 273 33.6993 4.54872 4.57412 -1.21339 -1.54601 3.7374 -0.292303 0.0434158 0.0758016 0.00135713 -0.0318899 -0.0645753 -0.000354789 -0.00809175 -0.0158656 -8.29189e-06 7.967e-08 -1.79353e-06 
26.982 1 31 31.3345 0.589696 2.39404 5.32845 0.102677 7.13654 0.134597 0.038972 0.172162 -0.101184 -0.597814 -0.475254 -0.012537 -0.107483 -0.103599 1.4157e-05 -4.16767e-05 -3.76321e-05 
26.982 1 36 33.6214 2.67519 2.69103 -0.944424 1.3378 -6.08437 0.118969 -0.207263 -0.442555 -0.0376429 -0.408562 -0.499616 -0.00812988 -0.0937585 -0.117063 -7.06912e-06 -2.41035e-05 -3.72387e-05 
26.982 1 233 33.5599 0.539728 4.42669 -1.92142 -3.49051 -0.216512 -0.0456225 0.183493 -0.172738 -0.0108321 -0.565928 -0.310096 0.000131704 -0.104614 -0.0672052 1.23871e-06 -4.37624e-05 -2.89479e-05 
26.982 1 73 33.6634 4.36063 0.443806 -1.29485 1.15088 4.58053 0.311608 0.247248 0.77253 0.100835 -0.0496354 -0.729863 0.00740982 -0.00947704 -0.135026 -3.37974e-06 -2.44533e-06 -5.92681e-05 
26.982 1 75 35.9355 4.48287 2.56264 0.791513 1.9955 -1.51852 -0.417397 0.427244 -0.176095 0.103134 -0.0101304 -0.638292 0.0100272 -0.00682001 -0.13014 -6.66823e-06 2.09759e-05 -3.02684e-05 
26.982 1 234 35.888 2.51146 4.58301 -0.734644 -2.38733 0.690139 -0.121526 0.139982 -0.098558 0.0158696 -0.287341 -0.12707 -0.000685124 -0.0687956 -0.0360406 -1.63854e-06 -7.6166e-06 -4.53063e-06 
26.982 1 77 38.1929 4.55276 0.547666 0.175174 5.09842 4.30861 -0.253189 0.152665 0.240886 -0.0105909 -0.0268149 -0.250444 -0.00144406 -0.00278832 -0.0838152 1.68558e-05 7.49064e-06 -5.91165e-05 
26.982 1 277 37.9516 4.56231 4.54084 -3.88637 -0.719922 0.00895529 0.497743 -0.315539 0.173042 0.00654131 -0.0388108 -0.0960394 0.000708192 -0.00804357 -0.0183585 1.13558e-05 -5.74683e-06 -3.23194e-06 
26.982 1 34 35.9497 2.50164 0.737371 -4.08235 -4.56684 0.913071 -0.340152 0.285374 -1.04891 0.0752403 -0.173804 -0.698388 0.00561856 -0.0589147 -0.131909 -4.54651e-06 -2.00614e-05 -7.11924e-05 
26.982 1 40 37.9041 2.59494 2.56913 -1.18893 -0.349749 -3.65767 0.940361 0.0472464 0.0800766 0.1947 -0.401156 -0.687497 0.0166188 -0.0903707 -0.129517 4.55598e-05 -2.45098e-05 -3.01251e-05 
26.982 1 237 38.0217 0.662181 4.48748 1.61355 -1.32481 1.10083 0.370099 0.240941 0.362302 0.0962332 -0.533554 -0.38416 0.00955113 -0.109511 -0.0821949 1.83664e-05 -4.10405e-05 -2.8163e-05 
26.982 1 79 40.4166 4.57218 2.76392 4.93036 -0.826709 7.52183 -0.362989 -0.246656 -0.38192 -0.0689789 -0.111951 -0.694263 -0.00553865 -0.00581182 -0.136015 8.24462e-08 -9.56013e-06 -4.95751e-05 
26.982 1 238 40.4236 2.54622 4.63615 -2.8615 -0.00309671 4.6445 -0.530194 0.30821 -0.200196 -0.00227924 -0.439855 -0.283675 0.000385268 -0.0846866 -0.0515724 1.1428e-06 -2.91465e-05 -2.96176e-05 
26.982 1 637 38.2114 0.602145 12.3147 -0.0710204 -5.23068 3.0678 0.103949 -0.36243 -0.00319524 0.000884577 -0.381361 -0.309579 -0.00361001 -0.0795762 -0.0683202 -9.21253e-06 -4.63379e-05 -2.97451e-05 
26.982 1 83 0.0225252 8.38324 2.41643 1.37128 -4.59814 -3.50344 -0.0610564 -0.304703 0.726814 -0.447152 -0.137707 -0.54314 -0.0861281 -0.0297741 -0.11169 -1.53954e-05 -2.52691e-05 -8.18793e-06 
26.982 1 242 0.194941 6.27986 4.42631 6.39055 2.75004 0.755315 -0.382195 0.603011 0.254831 -0.452921 0.0122276 -0.252908 -0.082797 -0.00616475 -0.0468926 -3.20575e-05 5.81512e-06 -4.3594e-06 
26.982 1 84 42.6088 10.6391 2.67684 1.23919 1.72746 -1.25809 -0.0527801 -0.377795 -0.489505 -0.499527 -0.14081 -0.695873 -0.105679 -0.029725 -0.128018 8.18055e-06 -3.14678e-05 -2.87992e-05 
26.982 1 281 42.5377 8.6245 4.50936 -0.962802 -1.53811 0.296486 -0.0595648 -0.74652 -0.319191 -0.273044 -0.267935 -0.311397 -0.0684509 -0.0625977 -0.0736383 1.51594e-06 -1.51237e-05 -6.12291e-06 
26.982 1 44 -2.21627 6.46014 2.54403 -0.412043 2.69342 -4.2439 0.258245 0.104536 0.304046 -0.0485825 -0.428801 -0.567061 -0.0318083 -0.0725419 -0.114929 -3.41377e-05 -1.91591e-05 -2.5101e-06 
26.982 1 439 40.2601 0.483902 10.3427 4.49124 -0.146622 0.481776 0.126952 0.12166 0.568914 0.13172 -0.285433 -0.413421 0.0256684 -0.0481787 -0.0876319 3.40928e-06 -5.57274e-05 -4.20225e-07 
26.982 1 285 2.29441 8.16876 4.63131 0.409903 0.741868 3.53596 -0.0813206 0.78838 0.124849 -0.0457964 -0.00345467 -0.0597754 -0.00697271 -0.000837285 -0.0109191 -7.11633e-06 1.15092e-05 -1.47217e-06 
26.982 1 85 2.4409 8.29402 0.552169 -1.64685 -0.333102 -1.69872 -0.31577 0.42347 0.628054 -0.0191968 0.0215048 -0.715129 -0.00663191 -0.00823941 -0.168561 1.16407e-05 -1.15403e-05 -6.1674e-05 
26.982 1 48 2.43428 6.51332 2.65124 -2.10325 4.54032 0.460245 -0.14059 -0.588141 -0.741399 -0.107816 -0.0381127 -0.518803 -0.0140339 -0.00990337 -0.103659 -5.1724e-06 -2.07641e-05 -4.75018e-05 
26.982 1 87 4.6995 8.21336 2.63867 2.15048 -1.06693 0.735135 -0.268275 0.649743 -0.523981 -0.00454859 -0.00138032 -0.45655 0.00112393 -0.0100859 -0.0909967 6.78176e-06 1.02455e-05 -5.59435e-05 
26.982 1 246 4.62976 6.45881 4.55961 1.62173 0.912523 -1.85265 -0.100782 -0.681804 0.238356 -0.00130923 -0.00264161 -0.0480215 -3.02517e-05 -0.000757927 -0.0114521 -6.92684e-07 -1.23361e-05 -2.81465e-06 
26.982 1 88 2.25376 10.1382 2.57505 -2.46976 -2.82043 0.128328 0.300329 0.121826 0.0844673 -0.131351 -0.0358717 -0.501762 -0.02277 0.000322764 -0.0921729 1.11674e-05 -1.59068e-06 -1.76474e-05 
26.982 1 627 27.0516 0.708684 14.3383 -4.90215 -0.967242 -1.14 -0.339842 -0.111291 -0.0676657 -0.0871704 -0.352506 -0.493476 -0.00638693 -0.0344994 -0.105786 -1.83108e-06 -5.7117e-05 -7.56397e-06 
26.982 1 289 6.82567 8.34507 4.34899 -0.747951 -3.53636 -3.90682 0.204345 -0.100233 0.197858 0.0033666 0.000884791 -0.0536323 0.00065566 -0.000280238 -0.0105233 1.63682e-06 -7.45417e-07 -5.36824e-06 
26.982 1 423 22.4722 0.631355 10.3736 -0.913808 0.289689 -3.49546 0.101151 0.150017 0.0739479 0.0699596 -0.144839 -0.343163 0.0115592 -0.0163593 -0.0813601 -9.59724e-06 -5.79283e-05 -1.31906e-05 
26.982 1 52 6.98468 6.39176 2.31703 1.13961 0.150287 0.839255 -0.386398 -0.0222458 0.460483 0.0076162 0.0206666 -0.442123 -0.00215852 -0.00257623 -0.097714 -2.29093e-05 2.17243e-05 -3.38727e-05 
26.982 1 91 9.13085 8.37227 2.60805 2.9213 0.031757 1.24652 0.0566183 0.0117154 0.00705801 0.0616605 0.0655027 -0.583347 0.0118655 0.00792321 -0.11406 -1.17008e-05 1.63043e-06 -1.99253e-05 
26.982 1 250 8.99096 6.24744 4.37816 5.19198 -2.91094 -0.493567 0.0614088 0.221426 0.218232 0.00307003 0.00261282 -0.0458389 0.000834385 0.00013526 -0.0107644 2.06225e-06 2.73096e-06 2.27158e-06 
26.982 1 290 9.15906 10.2996 4.52385 2.12075 4.72447 -0.303044 -0.369467 0.663619 -0.194115 0.00536589 0.00251247 -0.0700501 0.00133066 0.000436119 -0.0135562 -8.8663e-06 1.16704e-05 -4.77211e-06 
26.982 1 90 9.03048 10.4261 0.6472 1.84158 0.435219 -1.78372 0.0587248 0.0804346 -0.00446093 0.0517268 -0.0193334 -0.564096 0.0122094 -0.00286023 -0.12022 -4.51026e-06 4.39755e-06 -6.32837e-05 
26.982 1 293 11.3171 8.54005 4.6182 -1.94579 -0.841639 1.06521 0.0388398 -0.712941 -0.985936 7.30946e-05 0.0066865 -0.0726092 0.000495988 0.00123154 -0.0147871 -1.94607e-07 -1.06195e-05 -9.60348e-06 
26.982 1 56 11.2538 6.35146 2.71085 -5.28923 1.03771 2.47046 -0.0314329 0.391074 -0.215361 0.0321687 0.082003 -0.53747 0.00680845 0.00883497 -0.115016 1.06992e-05 2.89496e-06 -2.42166e-05 
26.982 1 95 13.4695 8.48308 2.65337 -4.08067 2.34877 2.46884 0.155733 -0.0501609 0.0226802 -0.0348967 0.0511102 -0.641893 0.00125823 0.0109366 -0.138567 5.07379e-06 -1.87259e-05 -2.89686e-05 
26.982 1 254 13.5526 6.44274 4.42686 0.539712 1.25368 -4.18698 0.110378 0.0637828 0.128605 0.00122789 0.000181759 -0.0600398 0.000398771 7.07588e-05 -0.0143281 4.63439e-06 -2.90859e-07 -1.88577e-06 
26.982 1 294 13.65 10.4388 4.42934 6.69065 3.06375 3.77099 -0.333911 -0.0654878 -0.0442212 0.00062578 0.00595011 -0.0791068 0.000126658 0.000520164 -0.0172082 -2.97871e-06 -7.97601e-07 -5.42189e-06 
26.982 1 100 15.7809 10.6262 2.47807 -3.40221 -2.2793 -1.99108 -0.138524 -0.398774 -0.0377046 0.00257716 0.0546943 -0.688715 -0.00430867 -0.00226651 -0.140048 7.02718e-06 1.37855e-05 -4.37035e-05 
26.982 1 93 11.2113 8.48317 0.749992 0.619398 -3.8349 -2.2111 0.0478699 -0.44734 -0.275575 0.0896407 0.0355144 -0.438133 0.0201823 0.00259905 -0.10719 1.06228e-05 -1.27866e-05 -6.31186e-05 
26.982 1 60 15.7483 6.44595 2.64749 3.90916 1.25814 1.9309 0.178906 0.168451 -0.230111 -0.0180872 0.0362349 -0.524704 -0.00166099 0.0054535 -0.125483 -8.36492e-06 -1.12464e-05 -3.88959e-05 
26.982 1 297 15.8401 8.54808 4.39757 -1.77616 -0.359844 -3.28004 -0.53029 -0.362879 0.511375 0.000263011 0.00567631 -0.0693498 -1.50096e-05 0.000872086 -0.0164936 -6.04348e-06 -9.20337e-06 2.85556e-06 
26.982 1 99 17.8303 8.48981 2.68252 2.63343 -5.59468 2.89215 0.461066 0.102721 -0.644424 -0.033931 0.0645789 -0.55556 -0.00760018 0.00615528 -0.124583 1.53699e-05 1.18992e-05 -3.82554e-05 
26.982 1 258 18.0782 6.46157 4.51107 3.01148 5.1554 0.283766 -0.425137 0.088161 0.115149 0.000948669 0.00271242 -0.0543485 0.000254127 0.000293776 -0.0140008 -7.90872e-06 1.57132e-06 5.81218e-07 
26.982 1 64 20.014 6.6101 2.47953 1.13884 -2.86204 -0.950427 0.628782 -0.195829 0.929696 0.0431837 -0.0286261 -0.530433 0.00635341 -0.00555747 -0.122498 1.54174e-05 2.18726e-05 -1.88782e-05 
26.982 1 104 20.0057 10.4745 2.51339 1.91705 -0.239048 3.29899 0.330698 -0.424859 0.155223 0.0263619 0.0682922 -0.652155 0.00281918 0.00922372 -0.134335 -4.18335e-06 -2.16856e-05 -3.09456e-05 
26.982 1 301 20.1992 8.59398 4.62121 2.45718 2.40658 -2.7148 -0.0264132 -0.0366996 -0.663952 0.00195374 0.00417456 -0.061029 2.52247e-05 0.000316684 -0.0146191 6.03961e-07 7.14103e-07 -1.36751e-05 
26.982 1 103 22.5786 8.53202 2.7544 -0.59033 1.78925 2.80294 -0.569443 0.147803 -0.333751 0.0320339 0.048267 -0.62292 0.00332655 0.0029741 -0.130412 -9.90663e-06 1.58181e-06 -3.24584e-05 
26.982 1 262 22.5027 6.51481 4.50395 -1.87465 -0.992163 0.735377 -0.178589 -0.320945 -0.114096 0.00260479 -0.000863726 -0.0679368 0.000318818 -0.000890641 -0.0160492 -6.15126e-06 -2.66945e-06 -6.53323e-06 
26.982 1 621 20.3067 0.440905 12.3123 1.47451 -2.69456 4.02653 0.143571 0.838692 0.0587889 0.00826323 -0.42749 -0.361165 -0.00163355 -0.0772836 -0.0684545 -1.30988e-05 -3.56932e-05 -3.5764e-05 
26.982 1 305 24.7419 8.37488 4.615 -0.363874 -6.35565 2.0322 -0.0583699 0.137598 -0.144777 -2.69089e-05 0.00118092 -0.0716036 0.000268103 -0.000165762 -0.0159415 -2.14888e-06 2.47676e-06 -7.08214e-06 
26.982 1 68 24.6681 6.58406 2.58475 -5.53751 -5.98701 -2.49928 0.213912 -0.239823 0.351056 0.0271714 -0.0204347 -0.646179 0.0065356 -0.011818 -0.14445 1.3726e-05 1.29344e-05 -3.4124e-05 
26.982 1 107 27.0458 8.38437 2.60426 0.119571 -0.0419441 3.15675 -0.354512 -0.243767 -0.114573 0.080358 -0.0752104 -0.666751 0.013251 -0.010692 -0.145691 -1.8374e-06 -1.48192e-05 -4.88305e-05 
26.982 1 266 26.8928 6.51337 4.6226 0.447426 4.6595 -3.5439 -0.0955269 -0.326109 -0.0718606 0.00178941 0.00187898 -0.0825635 0.000299394 -9.36115e-05 -0.0193084 -2.16349e-06 -6.83328e-06 -6.1871e-06 
26.982 1 306 26.8173 10.2882 4.49389 0.217225 -3.40865 -0.741154 0.0170928 0.309305 0.3489 -0.000198273 -0.00298917 -0.0639275 0.000136644 -0.000481201 -0.016139 4.58959e-07 5.14208e-06 1.63701e-06 
26.982 1 72 29.164 6.53627 2.55059 1.18183 5.10225 -8.87358 0.268511 0.104551 -0.0322627 -0.0414965 0.0425291 -0.736669 -0.00375687 -0.00212024 -0.165274 -5.60873e-06 9.31061e-07 -5.34922e-05 
26.982 1 309 29.1847 8.17701 4.70096 0.122966 0.427974 -2.10624 0.182393 0.670854 -0.399605 -0.00265337 -0.00251305 -0.0866632 -0.000478856 -0.000709865 -0.0190344 6.13581e-06 9.5872e-06 -9.41566e-06 
26.982 1 112 29.0439 10.3638 2.90185 1.68909 -4.45662 1.83329 0.50698 -0.134087 -0.560523 -0.0465725 -0.103092 -0.547877 -0.0123743 -0.0131341 -0.126744 2.06755e-05 -1.34049e-06 -5.04048e-05 
26.982 1 111 31.3811 8.51296 2.53458 4.58998 -0.101992 4.26286 -0.00676893 -0.173678 0.350474 -0.0611425 -0.0866877 -0.604945 -0.00890831 -0.0214915 -0.134503 -1.59557e-05 1.5256e-05 -3.12862e-05 
26.982 1 270 31.3895 6.40926 4.56544 0.950164 2.36414 2.842 0.215144 0.241549 -0.152976 -0.00271429 0.00331251 -0.0731595 -0.000759975 0.000288837 -0.018286 4.5268e-06 3.38459e-06 -4.23755e-06 
26.982 1 623 22.5718 0.720805 14.2874 -3.36762 -1.19126 -1.69016 -0.245344 -0.287993 -0.204409 -0.0172824 0.0383606 -0.461884 0.00434265 -0.030797 -0.0800632 -5.21212e-06 -5.84698e-05 -4.94431e-06 
26.982 1 313 33.6395 8.33962 4.44274 -4.51179 -7.26791 -0.321782 -0.0013365 -0.00981853 0.149204 -0.000484092 -0.000399136 -0.0660667 -0.000741656 -0.000548531 -0.0150888 -2.08539e-06 -1.51213e-07 -3.46269e-06 
26.982 1 76 33.5383 6.31347 2.54354 -2.74996 0.703895 -1.95863 0.299914 0.280579 -0.307503 0.0160639 0.0383426 -0.594467 -0.00493562 0.0060742 -0.132456 1.4202e-05 6.70931e-06 -2.60697e-05 
26.982 1 116 33.6043 10.2397 2.51261 0.889748 -3.64935 2.44827 0.0968796 0.613322 0.528524 0.0660118 0.0405889 -0.580778 0.00812052 0.00393085 -0.122289 -1.27185e-05 1.12078e-05 -1.21441e-05 
26.982 1 115 35.9593 8.46031 2.54677 -4.6811 3.9046 4.03468 -0.143373 -0.77217 -0.288842 -0.105622 -0.0225683 -0.522716 -0.0206794 -0.00533919 -0.110251 7.21403e-06 -2.70911e-05 -3.73131e-05 
26.982 1 274 35.7727 6.35476 4.60213 -2.25249 -0.0828666 -3.97558 0.397471 0.739395 -0.442036 0.00260549 -0.00494824 -0.066835 -0.000178857 -0.000897235 -0.014502 6.38437e-06 1.32522e-05 -1.38617e-05 
26.982 1 314 35.9078 10.1287 4.4817 -2.989 -1.11224 -1.49544 -0.10002 0.853694 0.115736 -0.00170172 0.00338026 -0.0648554 -0.000542697 0.000635625 -0.0135099 -3.6447e-06 1.11526e-05 -4.05562e-06 
26.982 1 80 38.1259 6.40148 2.60948 -1.68912 0.215751 -4.66436 -0.0881077 -0.0724971 -0.0280075 -0.000324285 -0.189156 -0.572071 0.00529307 -0.0293515 -0.117253 -4.14079e-08 1.29177e-05 -4.64666e-05 
26.982 1 411 9.10326 0.6519 10.4264 4.34797 2.41978 -3.20706 0.024556 -0.399255 -0.210142 0.0736662 0.0853332 -0.493818 0.00968974 0.0106115 -0.0930652 -8.46119e-06 -6.31712e-05 -1.61384e-05 
26.982 1 114 35.7827 10.3744 0.638227 1.41392 -1.04024 -4.38599 0.303201 0.0910428 -0.135277 -0.0416479 0.0615944 -0.671685 -0.00588309 0.00835675 -0.134751 1.4315e-05 -4.45781e-06 -6.15387e-05 
26.982 1 317 38.2144 8.4098 4.40974 -1.37484 2.9941 0.618562 -0.240134 -0.323629 0.312781 0.00229035 -0.00292036 -0.0451513 0.000641116 -0.000689942 -0.00990589 -5.04215e-06 -7.39639e-06 -1.61236e-06 
26.982 1 119 40.3054 8.41909 2.54117 -2.80616 0.357449 2.96449 0.28202 -0.418546 0.26472 0.127739 0.049789 -0.57756 0.0230708 -0.00430721 -0.12031 -5.0737e-06 -2.30933e-05 -2.95544e-05 
26.982 1 278 40.3119 6.4489 4.6442 0.398308 2.03467 4.90543 0.235262 0.218622 -0.221315 0.165069 -0.164069 -0.0819304 0.0297266 -0.0288517 -0.0187014 7.79338e-06 4.24004e-07 -7.71352e-06 
26.982 1 118 40.4024 10.4253 0.740361 -2.7107 2.75667 -2.61509 -0.0221936 0.148901 -0.513601 0.134761 -0.0165396 -0.350259 0.0193114 0.00247471 -0.100598 1.16709e-05 -2.09957e-05 -6.87097e-05 
26.982 1 81 -2.3876 8.49393 0.685164 -0.905126 0.990639 -4.69689 0.702241 -0.116255 -0.176321 -0.223043 -0.157584 -0.500866 -0.0330744 -0.032039 -0.106568 -1.2004e-05 -2.50907e-05 -4.12909e-05 
26.982 1 282 0.11633 10.4651 4.46733 -0.0586184 4.46414 -4.49439 0.0408555 -0.0761785 -0.129409 -0.404378 -0.00445109 -0.179076 -0.0740084 0.00598969 -0.0339153 -2.78317e-05 -1.22409e-05 -1.41578e-05 
26.982 1 123 0.185005 12.6116 2.50617 -2.86257 -1.0901 -0.894213 -0.30674 -0.601508 -0.228898 -0.454056 -0.143365 -0.561795 -0.0859356 -0.0173505 -0.111839 -3.13358e-05 -1.79006e-05 -2.51083e-05 
26.982 1 322 0.00487408 14.343 4.45261 -5.83313 0.511455 3.6102 0.245353 0.638311 0.766395 -0.276369 -0.108492 -0.140192 -0.0543426 -0.0207599 -0.0272644 -7.04515e-07 8.19379e-06 1.13335e-05 
26.982 1 124 -2.17288 14.555 2.59534 1.63938 0.889451 1.3971 0.249762 -0.0253957 -0.00606721 -0.640834 -0.232706 -0.559641 -0.136177 -0.040746 -0.112865 -4.98137e-05 -8.11525e-06 -4.35311e-05 
26.982 1 325 2.24139 12.4048 4.2782 1.09578 -1.48635 0.384571 0.135916 -0.0770353 0.736934 -0.040986 -0.00468335 -0.0512773 -0.00774364 -0.000370091 -0.0108207 1.36159e-07 -1.03472e-06 1.07045e-05 
26.982 1 82 0.0628068 10.3772 0.789063 3.73971 -5.88142 -6.52698 0.0147083 0.773709 -0.396998 -0.478 0.132234 -0.503023 -0.0908754 0.020629 -0.119889 -2.79721e-05 9.90825e-06 -5.19699e-05 
26.982 1 603 0.132058 0.569171 14.1854 0.115929 -0.75608 3.84477 -0.0251113 0.123593 0.0965798 -0.532803 -0.571935 -0.104595 -0.0905195 -0.119461 -0.029226 -3.87283e-05 -4.39181e-05 -7.84902e-06 
26.982 1 126 4.52982 14.3052 0.724126 -1.70637 2.40835 -0.791639 -0.156096 -0.00289428 -0.244056 0.0461555 0.0139158 -0.800214 -0.00305788 0.00190703 -0.177138 -3.85886e-06 -1.21861e-06 -5.99671e-05 
26.982 1 128 2.29352 14.5437 2.59538 -4.02073 3.63989 -2.06812 0.0916027 -0.0823316 -0.493949 -0.0688662 0.0530699 -0.484437 -0.0195469 0.0118261 -0.104309 1.37793e-06 3.38298e-06 -1.60319e-05 
26.982 1 286 4.57676 10.321 4.4375 -4.05516 -2.75426 4.33568 -0.0773918 -0.129662 -0.276448 -0.000677599 0.00165535 -0.0429511 -0.000372563 0.000281175 -0.00814703 -2.67013e-06 -1.38843e-06 -1.35995e-05 
26.982 1 127 4.32323 12.1557 2.52785 1.09726 -0.933083 5.14618 0.513132 0.272257 -0.227567 0.0092993 0.00850467 -0.409453 0.000588839 0.000746014 -0.079669 1.2806e-05 -1.46388e-05 -2.92091e-05 
26.982 1 326 4.67 14.2011 4.31694 0.478389 -1.74299 -0.987364 -0.255419 0.525131 -0.0098542 -0.000527266 0.000503645 -0.0441922 -0.00060076 3.23507e-05 -0.00833033 -2.89307e-06 8.52073e-06 -3.89478e-06 
26.982 1 329 6.81917 12.5363 4.53002 -3.20061 1.23131 -1.65261 0.343515 -0.551015 -0.283702 0.00237824 -0.000474163 -0.0491639 0.000457434 -0.000100085 -0.00973534 7.33106e-06 -5.43865e-06 -7.33021e-06 
26.982 1 132 6.86073 14.3767 2.38857 -2.59415 -3.25521 -2.57485 0.0666902 0.291838 0.463421 0.0415621 0.0109937 -0.477497 0.00922541 -0.00430642 -0.0875306 1.19984e-05 4.20253e-06 -1.46956e-05 
26.982 1 129 6.64656 12.4286 0.614253 -3.2038 7.94626 0.285114 0.203201 -0.417865 0.0186235 0.0606658 0.0250706 -0.816458 0.0118081 0.00557316 -0.162011 3.87172e-06 -1.48168e-05 -6.01766e-05 
26.982 1 92 7.01707 10.4946 2.70741 -2.08713 -0.486888 1.28685 -0.487167 0.031311 -0.26406 0.0659877 -0.0199352 -0.499589 0.0137746 -0.00067865 -0.094913 -1.86962e-05 -1.08278e-05 -3.48287e-05 
26.982 1 131 9.05268 12.4098 2.55119 -0.255058 0.400393 0.233548 -0.0420174 0.239178 0.0329608 0.0600579 -0.0174178 -0.57029 0.0104418 -0.00444209 -0.112257 1.32454e-05 1.6145e-05 -3.25113e-05 
26.982 1 330 9.05312 14.478 4.43471 0.635044 -2.18049 -0.963031 -0.149017 -0.608507 0.320414 0.0026768 0.000469429 -0.0610629 0.000934785 -0.000204011 -0.0117667 -2.93842e-06 -8.71656e-06 -4.41348e-07 
26.982 1 2601 -2.15144 20.2514 12.4179 -3.05417 -2.12785 -3.68091 0.502651 -0.100222 -0.418035 -0.348183 0.140237 -0.673914 -0.0628777 -0.00203728 -0.125733 -3.21162e-05 -1.4564e-06 -5.7819e-05 
26.982 1 96 11.3078 10.4127 2.61458 -0.522007 -1.87219 -2.01489 -0.0614486 0.173371 0.104766 0.0155334 -0.0214319 -0.676238 0.00835302 -0.0029377 -0.133343 -2.92955e-06 1.81095e-05 -2.5853e-05 
26.982 1 2431 31.5416 20.2195 10.4878 4.19167 -4.25905 -0.337022 -0.513029 -0.123459 -0.375468 -0.23954 0.203077 -0.445477 -0.0501776 0.0126304 -0.101805 1.15281e-05 2.30619e-05 -3.75421e-05 
26.982 1 2629 29.2159 20.1047 12.566 1.54748 3.88123 0.0598515 0.0128732 0.175308 -0.655108 -0.266211 -0.171227 -0.584557 -0.043055 -0.042687 -0.10898 3.83982e-07 1.52056e-06 -1.1234e-05 
26.982 1 333 11.3228 12.5166 4.39469 1.14027 -2.97396 1.62033 -0.411397 0.24394 -0.022009 0.00216733 -0.00215157 -0.0721231 0.000496933 -0.000788672 -0.0143023 -8.79284e-06 5.90058e-06 -8.9814e-06 
26.982 1 136 11.3644 14.5699 2.30978 4.40605 3.23105 4.2403 0.0374846 -0.568489 0.565091 -0.0182011 -0.00699865 -0.593904 -0.000978372 0.000382732 -0.11816 -1.63723e-05 -2.675e-05 -3.26711e-05 
26.982 1 135 13.3698 12.4805 2.59207 -4.70944 -0.399077 -2.9543 0.36759 0.0338075 -0.230182 0.0354916 -0.059879 -0.644998 0.00276971 -0.0156018 -0.130128 4.80854e-06 2.59747e-06 -3.79778e-05 
26.982 1 334 13.4319 14.4923 4.67837 -0.268232 -3.67695 4.17825 -0.189998 -0.332805 -0.559591 -0.000324218 -0.00360424 -0.0633737 2.24074e-05 -0.000364509 -0.0133963 -3.89964e-06 -3.09574e-06 -1.23871e-05 
26.982 1 337 15.5051 12.4326 4.53923 1.00746 -3.71358 -1.75466 0.448266 0.0689583 0.108591 0.00102624 -0.000683515 -0.0846954 4.90549e-05 -0.000336162 -0.015983 8.88579e-06 1.57669e-06 -6.24898e-06 