ITEM: TIMESTEP
18000
ITEM: NUMBER OF ATOMS
4000
ITEM: BOX BOUNDS pp pp pp
-3.73255 44.2326
1.0406 39.4594
1.37603 39.124
ITEM: ATOMS mass type id x y z vx vy vz fx fy fz xrad yrad zrad vxrad vyrad vzrad fxrad fyrad fzrad 
26.982 1 202 -0.72837 3.805 4.65459 -0.316998 -2.81833 4.26483 -0.182463 -0.0291331 -0.0251424 -1.12988 -1.04064 -1.05079 -0.110311 -0.10245 -0.112079 -5.18198e-06 -1.33837e-05 -1.37747e-05 
26.982 1 2 -1.53728 3.21318 1.97827 -3.09708 -0.517426 -0.827066 0.536262 -0.170374 0.11229 -0.775512 -1.18084 -2.15745 -0.0882234 -0.116043 -0.226907 -5.58356e-06 -2.50582e-05 -4.06055e-05 
26.982 1 1046 4.59957 6.75316 20.0987 -2.30604 -1.01359 -1.39428 0.565381 0.652399 0.202714 -0.856279 -1.0923 -0.631055 -0.0828285 -0.0986378 -0.110838 1.67433e-06 -2.36444e-05 2.69758e-05 
26.982 1 4 -3.48112 2.72531 4.00827 -3.60311 -0.916078 3.31194 0.319166 0.352003 0.405687 -1.32052 -1.34469 -1.54298 -0.119726 -0.137194 -0.152597 -1.88431e-05 -3.00592e-05 -2.96477e-05 
26.982 1 241 -2.84442 5.58254 4.99913 -5.95382 -2.83936 5.81905 -0.160714 -0.120036 0.281319 -0.873498 -0.873405 -1.01765 -0.0768703 -0.0732195 -0.0987306 -3.33757e-05 1.3799e-05 -1.88129e-05 
26.982 1 34 37.0485 3.52857 1.81175 1.96994 -0.722754 3.74746 -0.160563 -0.833468 0.593228 0.0557249 -0.932204 -2.24599 -0.00795512 -0.110611 -0.241579 -4.84805e-06 -1.69116e-05 -4.98233e-05 
26.982 1 205 1.3334 1.66723 4.80136 -3.32561 0.533551 -1.38253 0.167161 -0.0739103 0.142172 0.0816312 -1.48618 -1.24177 0.00881856 -0.168013 -0.135427 4.41259e-06 -4.74763e-05 -1.97617e-05 
26.982 1 245 1.75925 4.06434 5.63117 -2.81899 -0.360321 1.5564 0.653486 0.793124 0.460543 -0.0909004 -0.18012 -0.276 -0.0107262 -0.0142009 -0.0327498 7.00878e-06 3.23489e-06 4.70633e-06 
26.982 1 8 1.96329 3.88125 2.96164 2.57034 1.74335 -3.82736 0.038663 -0.643282 -0.216466 0.290081 -1.72186 -1.90487 0.0184412 -0.151927 -0.213543 4.50386e-06 -1.39844e-05 -4.27971e-05 
26.982 1 47 3.99058 5.11425 4.05749 2.69647 -1.39096 -2.28713 0.416467 0.15719 0.653576 -0.0798849 -0.42415 -1.87581 -0.00349637 -0.0356926 -0.205969 7.19497e-06 1.34335e-06 -1.90369e-05 
26.982 1 206 4.41318 2.44155 5.01077 -0.691832 7.59915 -1.14136 0.156758 0.146528 -0.542379 -0.0301346 -1.62053 -0.972526 0.00758043 -0.172613 -0.100468 3.82121e-06 -3.7364e-05 -2.43231e-05 
26.982 1 6 4.81808 3.10557 2.22416 2.17493 2.29468 -2.03398 -0.868551 -1.05362 0.222768 -0.215699 -1.23676 -1.75228 -0.0135392 -0.126303 -0.18505 -3.95638e-06 -1.70478e-05 -5.52584e-05 
26.982 1 249 6.50968 4.93204 5.60778 3.12673 -3.87471 4.08004 0.378009 0.0699972 -0.768461 -0.00841593 -0.184542 -0.227315 0.00128804 -0.0214973 -0.0248501 4.64189e-06 -6.38072e-06 -1.50503e-05 
26.982 1 12 7.05461 2.61483 3.49876 3.29632 -8.47555 1.1579 0.00482989 0.0516451 0.518693 -0.273431 -2.05624 -1.6855 -0.0111602 -0.204807 -0.187997 2.27499e-06 -3.64645e-05 -3.31637e-05 
26.982 1 51 9.13177 4.45825 3.01147 6.22902 -2.90986 1.8431 0.0256757 0.145976 -0.201887 0.00462738 -0.190162 -1.62681 -0.00620062 -0.0346086 -0.206565 -3.7934e-06 -4.85748e-06 -5.53941e-05 
26.982 1 210 9.37295 2.3595 4.86404 -4.96021 4.91154 2.30161 -0.118542 0.788074 -0.274231 0.0955439 -1.57008 -0.847898 0.00539422 -0.167988 -0.0944472 9.25688e-06 -3.3569e-05 -2.64529e-05 
26.982 1 827 26.6439 1.06984 18.2179 -0.763661 -1.63275 3.1414 0.0859395 0.0446481 0.367045 0.158826 -1.38197 -0.743018 0.0111436 -0.108376 -0.0822218 -5.32753e-06 -6.49862e-05 3.05935e-05 
26.982 1 253 11.2267 4.70936 4.83577 7.97498 -0.00317705 1.80361 -0.0354987 -0.411235 0.0655384 0.00216087 -0.215195 -0.237342 -0.00212838 -0.0248331 -0.0289813 9.04662e-07 -1.08275e-05 -8.40736e-06 
26.982 1 16 11.4036 2.71079 2.66353 -2.64699 -7.40898 -0.326796 -0.577152 0.0390615 0.343168 0.204058 -2.10385 -1.60864 -0.00221885 -0.223946 -0.178431 2.49978e-06 -3.79102e-05 -4.6266e-05 
26.982 1 214 13.2794 2.74009 4.83841 -1.7871 -0.396722 -6.55757 -0.145314 0.462736 0.217432 0.0582067 -1.71392 -0.872164 -0.000730332 -0.182171 -0.0910709 -5.1833e-06 -4.07675e-05 -2.86073e-05 
26.982 1 825 24.3205 1.1376 16.4512 2.89432 1.81289 -4.64784 -0.0731693 0.0219947 0.0166739 0.0707343 -1.35801 -1.11114 0.00585245 -0.120624 -0.0980162 -5.63123e-06 -4.3224e-05 -2.13503e-05 
26.982 1 55 13.2437 5.01005 2.66466 -5.8076 -4.61198 -2.44701 0.0205332 0.0931253 0.26631 0.0314512 -0.357787 -1.86869 0.000311282 -0.0210901 -0.191315 7.54991e-06 -8.00746e-06 -5.5022e-05 
26.982 1 20 15.7683 2.7732 3.03804 -5.56019 -3.27942 4.07821 -0.248603 -0.13467 -0.257358 -0.308631 -2.05232 -1.58133 -0.011022 -0.204967 -0.164804 -1.03178e-05 -4.26938e-05 -5.48393e-05 
26.982 1 257 15.3283 4.61333 4.97051 3.13368 -3.06487 0.539555 0.193125 0.794968 -0.930092 -0.0081384 -0.216195 -0.240853 -0.00254434 -0.020767 -0.02602 -4.9e-06 6.48384e-06 -2.61766e-05 
26.982 1 439 43.5284 1.5834 10.7593 5.92449 3.5421 1.36068 -0.331461 0.468841 0.712651 0.408732 -0.827449 -1.37484 0.0399625 -0.0926411 -0.144152 1.7509e-05 -4.34397e-05 -3.78211e-06 
26.982 1 233 35.279 1.15225 5.89435 -4.37978 -3.08027 -2.52483 0.521065 0.835848 0.686275 -0.010014 -1.66086 -1.07803 -0.00283975 -0.152691 -0.106331 -2.00434e-06 -6.17697e-05 -1.07089e-05 
26.982 1 2203 -0.705227 20.2339 7.23177 0.715085 5.69373 -2.90438 -0.660421 0.00618146 0.409755 -1.23618 -1.01108 -1.68581 -0.144307 -0.0766286 -0.171265 -8.81224e-06 4.06139e-06 -2.08213e-05 
26.982 1 218 17.533 2.74106 5.03917 -3.95737 0.528148 0.502829 0.311039 0.358288 -0.491737 -0.0886086 -1.63287 -0.754986 -0.00625099 -0.164467 -0.0841821 2.70232e-06 -3.78033e-05 -3.23191e-05 
26.982 1 59 17.5714 4.90305 3.08304 -0.424197 2.10041 -1.70425 0.266672 -0.336818 -0.0822295 0.0927211 -0.0872429 -1.75286 0.0139914 -0.0143286 -0.205024 3.54846e-06 -4.35621e-06 -6.02336e-05 
26.982 1 24 19.8511 2.58081 2.97583 0.353011 4.15241 1.51658 0.198362 0.659835 -0.462413 0.123557 -1.71765 -1.56391 0.00790611 -0.174705 -0.194452 -1.86955e-06 -4.48515e-05 -4.79415e-05 
26.982 1 261 19.773 4.51354 4.77003 -3.84854 0.104113 -3.64099 -0.418071 1.26136 0.0519932 0.0117321 -0.186027 -0.273661 0.000659994 -0.0195657 -0.0324388 -3.47812e-06 1.0744e-05 -1.0775e-05 
26.982 1 2839 40.8595 20.1088 17.2771 -0.918041 2.28739 -6.11226 0.0378243 0.089102 0.507692 -0.0110819 -0.396158 -1.72215 -0.0139196 -0.00540167 -0.166438 1.8784e-06 3.92958e-05 -6.51091e-06 
26.982 1 63 22.129 4.63136 2.7618 -4.03553 -4.51507 -0.293105 -0.21486 0.0704464 -0.10585 0.0601711 -0.0873788 -2.11149 0.00280873 -0.0150054 -0.246917 -1.42866e-06 -1.04271e-05 -5.93289e-05 
26.982 1 222 21.9095 3.15136 5.07544 -5.15401 0.218022 0.925876 0.51288 -0.404434 -0.0892526 -0.02598 -1.5155 -0.804002 0.00215432 -0.155371 -0.0858081 6.30067e-06 -2.32601e-05 -1.93397e-05 
26.982 1 28 24.37 2.9293 2.84063 3.4359 -6.98059 2.43167 -0.172669 -0.514456 0.123565 -0.0947735 -1.48567 -1.80569 -0.00724219 -0.166963 -0.204248 -5.10095e-06 -3.95612e-05 -5.47037e-05 
26.982 1 265 24.5784 4.57851 4.94759 -3.47197 0.742243 -1.19116 -0.225193 0.0136077 0.0398781 -0.000325811 -0.175101 -0.306729 -0.000372936 -0.0213959 -0.035826 -4.25604e-06 1.09146e-07 -5.41271e-06 
26.982 1 67 26.5122 4.74621 2.82605 -2.55379 -5.52735 -1.3113 -0.0443418 0.247381 -0.134566 0.0998535 -0.0192265 -2.41289 0.00581921 -0.00714622 -0.263439 -3.43555e-06 -9.38365e-07 -5.15167e-05 
26.982 1 226 26.7796 2.55813 4.70081 8.82546 -4.40212 -2.6265 -0.564849 0.367579 0.411019 0.00536951 -1.34283 -0.660663 -0.00191295 -0.156546 -0.0833384 1.62578e-07 -2.76483e-05 -2.07082e-05 
26.982 1 32 30.5087 5.18198 2.45443 1.61638 4.69142 1.2541 0.597767 -1.17416 -0.139679 0.0308235 -1.30867 -1.97619 0.00221883 -0.1425 -0.22489 -1.29715e-06 -2.28357e-05 -5.99856e-05 
26.982 1 269 28.8724 4.47834 4.64022 4.72288 5.82289 -4.20892 -0.0136193 0.709685 -0.00226538 -0.00904748 -0.163792 -0.338113 -0.00012803 -0.0215118 -0.0381882 4.10915e-07 5.73927e-06 -7.3241e-06 
26.982 1 27 28.5026 2.68412 2.681 4.24086 -1.00981 2.33899 0.303066 0.472012 -0.74296 -0.0625671 -2.04044 -1.5603 -0.0126634 -0.18103 -0.179792 1.06604e-05 -4.35083e-05 -5.21287e-05 
26.982 1 964 43.1083 18.1752 17.2552 4.23786 0.267424 0.510424 -0.177906 -0.051498 0.848609 -1.29732 -0.0903554 -0.414028 -0.0885373 -0.0172838 -0.0512179 1.59117e-05 -1.16561e-05 1.21264e-05 
26.982 1 71 32.6881 6.87582 2.14684 -2.93664 -0.41278 -0.330595 -0.388497 0.643405 0.469803 -0.211493 -0.103632 -2.19223 -0.0197835 -0.017083 -0.249247 -6.7432e-06 1.01091e-05 -6.97532e-05 
26.982 1 230 31.2499 3.00065 4.32163 3.27929 6.92862 -6.65396 -1.04642 -0.0942972 0.546781 -0.0876578 -1.35798 -0.728171 -0.00569015 -0.154133 -0.0837183 -1.51078e-05 -4.78782e-05 -1.72837e-05 
26.982 1 273 32.9658 5.03924 4.17979 -3.9354 -4.56225 -0.93624 0.329033 0.203375 0.271336 -0.00149439 -0.139295 -0.261772 -3.5966e-05 -0.0180058 -0.0280513 1.32738e-06 -1.80234e-06 3.00805e-06 
26.982 1 36 35.116 3.19249 3.9511 1.64289 4.86131 7.93346 0.442873 -0.0657736 0.078227 -0.163148 -1.4936 -1.85257 -0.0224676 -0.164833 -0.19098 1.66686e-06 -2.09101e-05 -6.84661e-06 
26.982 1 161 -2.47418 16.0913 1.64758 -0.620967 1.10609 4.52882 0.0392449 0.319739 0.132768 -0.543157 -0.429148 -1.42408 -0.0549568 -0.0441326 -0.139868 -3.32622e-05 -8.53746e-06 -3.78949e-05 
26.982 1 30 32.8178 3.0699 2.23489 -5.56737 0.607172 2.59768 0.110136 -0.248434 -0.570139 -0.0574121 -1.03061 -2.05834 -0.00748065 -0.11752 -0.199089 -2.01499e-05 -3.53219e-05 -5.41064e-05 
26.982 1 73 34.7167 5.02785 1.89036 5.7953 6.46183 0.646416 0.321315 0.081136 0.405609 0.1599 -0.165755 -2.04652 0.00494232 -0.0160208 -0.206628 3.64166e-06 -5.16628e-07 -6.48353e-05 
26.982 1 35 37.6266 1.57557 4.07293 -2.14545 3.85324 1.25837 -0.512267 0.0363912 -0.50891 0.0701377 -2.44625 -1.83002 0.00133497 -0.227986 -0.190199 -3.69793e-06 -3.65338e-05 -3.05481e-05 
26.982 1 77 38.8488 5.51274 1.52941 -3.32349 -5.61573 4.27746 0.374615 0.729276 0.611589 0.056313 -0.0517874 -1.46412 0.010011 -0.0036517 -0.203228 -7.50882e-06 4.84377e-06 -5.8144e-05 
26.982 1 75 37.1494 5.44807 4.05461 -0.137588 2.2721 -1.04836 0.105816 -0.0494702 -0.884618 0.126371 -0.0533828 -2.07593 0.0010694 -0.00489415 -0.203213 4.5197e-06 -1.28983e-06 -1.91472e-05 
26.982 1 234 37.4256 3.46856 6.10183 -0.536873 -7.13073 -4.75129 0.00492298 0.224313 -0.280883 -0.00567207 -1.11797 -0.571164 -0.00694703 -0.12301 -0.060768 1.37098e-06 -4.95385e-06 -3.84296e-07 
26.982 1 40 39.4612 3.76999 3.80088 -5.4896 2.39066 0.105969 -0.456372 -0.128411 -0.0408879 0.378939 -1.5185 -2.0974 0.0218122 -0.157692 -0.19562 -9.57049e-06 -1.00904e-05 -6.78154e-06 
26.982 1 277 40.5433 4.44502 6.1945 -3.47057 0.0367528 -1.21381 -0.25877 -0.201953 0.209256 0.0141586 -0.138621 -0.290661 0.000854554 -0.0158165 -0.0256337 -4.82041e-06 -7.99776e-06 1.99563e-06 
26.982 1 237 39.638 1.81342 5.99383 -1.95966 -3.75951 6.42003 0.187215 -0.361207 -0.117495 0.197569 -1.73717 -1.31592 0.0157277 -0.186089 -0.130437 9.67614e-06 -5.83451e-05 2.97003e-06 
26.982 1 37 39.3342 1.68302 1.67748 4.84466 5.47205 -3.99323 -0.304676 0.386747 0.441003 0.0281722 -1.21252 -1.72969 0.00234617 -0.126121 -0.191509 -3.89683e-06 -4.39526e-05 -4.34621e-05 
26.982 1 1 43.3058 2.35953 1.59973 -0.641949 6.58808 -7.0033 -0.0266127 -0.329265 -0.277616 -0.554963 -0.974423 -2.18725 -0.0392719 -0.112456 -0.231353 1.22609e-05 -4.17156e-05 -5.32301e-05 
26.982 1 41 -3.61602 4.9598 2.05797 2.5178 -2.07411 -1.13327 0.0272554 0.699992 0.0603026 -0.680789 -0.676219 -1.58271 -0.0588703 -0.0492727 -0.187708 -1.59041e-05 2.25606e-06 -3.50098e-05 
26.982 1 79 42.3999 4.56956 3.90465 2.50184 6.67768 0.0767586 -0.00343614 -0.107161 0.333886 -0.060019 -0.206875 -2.21852 0.00222554 -0.0129357 -0.208185 5.72033e-06 -2.64193e-06 -2.27213e-06 
26.982 1 238 42.6387 2.58878 6.0562 0.0450754 3.68145 0.558608 -0.141864 0.223632 -0.0609348 0.0408752 -1.43676 -0.86731 0.016626 -0.163995 -0.0780794 2.65273e-05 -3.56263e-05 -2.37016e-05 
26.982 1 39 41.4793 1.81204 3.61807 -6.05281 0.759217 5.53283 -0.090381 0.30722 0.272116 -0.255404 -1.12001 -1.86099 -0.0140518 -0.150403 -0.180057 2.78567e-06 -5.04086e-05 -1.65223e-05 
26.982 1 124 43.8329 13.931 1.82692 4.7009 -3.48985 -5.4255 -0.445494 -0.272881 0.20547 -1.91768 -0.7448 -1.88348 -0.160487 -0.0735149 -0.209892 -5.03008e-06 -3.60831e-06 -6.35684e-05 
26.982 1 43 -0.940106 6.54855 3.46549 5.17188 -2.41745 -2.59582 -0.552159 0.202469 -0.326037 -1.20481 -0.538426 -1.87268 -0.118041 -0.0319488 -0.202776 -1.80796e-05 8.04199e-06 -4.01141e-05 
26.982 1 83 -0.286353 9.29462 3.50391 -2.76803 -4.11045 0.368252 -0.472351 -0.0585675 0.0552264 -1.32108 -0.531067 -1.9196 -0.114089 -0.0621192 -0.216717 -5.34767e-06 -3.01288e-06 -3.70639e-05 
26.982 1 44 -3.22461 9.02417 3.19076 1.50454 -1.21361 2.88353 0.447765 -0.500557 0.285531 -0.42686 -1.15786 -1.88218 -0.0544593 -0.09404 -0.202548 -2.10199e-05 -3.39073e-05 -4.63466e-05 
26.982 1 1170 6.36409 19.1469 19.7956 0.00419338 3.63486 -0.013084 0.053246 0.0223361 0.0107944 -0.349503 -0.156605 -1.40647 -0.0509403 -0.0235176 -0.114187 -2.47441e-05 1.07519e-05 6.69008e-06 
26.982 1 48 1.8378 6.92644 3.65162 -1.02314 0.953882 -4.22197 -0.0884338 -0.22263 0.337546 -0.309279 -0.0947808 -1.82418 -0.0295444 -0.000987183 -0.206847 1.31147e-06 -1.20644e-06 -2.39545e-05 
26.982 1 285 1.81483 9.17601 5.95608 2.4601 -2.3122 6.84658 0.373229 -0.280432 -0.446527 -0.114696 -0.00921163 -0.216123 -0.00637972 0.00275422 -0.0254111 1.5539e-06 -8.23094e-06 -1.12799e-05 
26.982 1 87 4.50053 7.69469 3.35982 2.69458 -1.70902 3.77754 -0.518836 0.10813 -0.378362 -0.0382529 -0.0215151 -1.66384 -0.0135792 -0.0066184 -0.200738 -1.07523e-05 -8.65549e-06 -3.32097e-05 
26.982 1 246 3.98425 7.16689 6.13928 0.623857 -0.181486 -1.48289 0.523505 0.374272 -0.677026 -0.00656957 -0.00807548 -0.193093 -0.00480665 0.00157533 -0.0232063 -1.40802e-06 6.43496e-06 -1.18017e-05 
26.982 1 88 2.25565 9.60764 2.95588 0.788379 3.93272 4.46976 -0.0619446 -0.05716 0.148495 -0.297369 -0.0843383 -1.7165 -0.0261848 -0.0143546 -0.199647 -1.1138e-05 -1.0858e-05 -3.10072e-05 
26.982 1 286 4.41458 10.1354 5.0042 -2.66973 -2.98667 0.105975 -0.00539911 -0.161054 0.0709179 -0.01178 0.00400047 -0.173658 -0.00725512 0.000202839 -0.019354 -3.73413e-06 -2.65673e-06 -1.99251e-06 
26.982 1 86 4.58827 10.217 1.91248 -3.76657 8.08014 0.835126 -0.127169 0.439097 -0.394005 -0.0571724 -0.0787885 -2.49498 -0.0144634 -0.0124685 -0.250201 8.37536e-07 5.38833e-06 -5.85664e-05 
26.982 1 289 6.62952 8.19041 4.91825 -1.81324 1.84376 -0.777487 0.0773021 -0.366278 -0.355461 0.00347945 6.04836e-08 -0.189992 -0.00243393 -0.000187365 -0.0216522 -1.4864e-06 -2.70905e-06 -1.09819e-05 
26.982 1 52 6.7709 5.94428 3.07579 4.43518 -3.41126 4.5128 -0.329605 0.166788 0.131427 0.0114235 -0.041269 -1.67798 -0.0054073 -0.0168481 -0.206964 -2.00669e-06 -1.01869e-05 -5.22669e-05 
26.982 1 250 8.7964 6.50968 4.92075 1.91907 -8.38877 -3.7627 0.452863 0.0191569 -0.0595428 0.00660468 -0.00672864 -0.195532 -0.000937288 -0.00455949 -0.0248694 6.02596e-06 3.08263e-07 -8.37844e-06 
26.982 1 89 6.43391 8.50714 1.50369 7.5422 -11.1206 -5.14493 0.878407 -0.304619 0.202914 0.0899956 0.0439638 -2.44034 0.00462309 -0.00673883 -0.269431 1.79684e-05 -1.52119e-05 -6.13992e-05 
26.982 1 91 8.75442 8.94679 3.12808 -7.3535 -4.1075 -2.83252 0.282142 -0.569432 0.084276 0.158054 0.0889523 -1.89923 0.0138273 0.00381675 -0.191754 1.07005e-05 -1.00736e-05 -4.53376e-05 
26.982 1 829 28.4742 1.3068 16.295 -1.15813 -0.964448 -6.19786 0.367071 0.234619 -0.349515 0.0712571 -1.6187 -1.18618 0.00435914 -0.168392 -0.121728 1.30607e-05 -5.5972e-05 -1.20927e-05 
26.982 1 293 11.2045 8.80423 4.80992 -1.1663 1.00053 -2.27556 -0.549378 0.346229 0.537665 0.00336333 0.013613 -0.237541 0.000693143 0.000684995 -0.0246708 -9.15758e-06 3.37553e-06 -5.17565e-07 
26.982 1 56 10.9801 6.79754 3.0522 -0.602053 -1.35431 0.0462681 -0.107274 0.420656 -0.280962 0.0446115 0.155705 -1.85436 0.00388385 0.0102394 -0.200307 -9.29262e-06 1.78466e-06 -6.14096e-05 
26.982 1 95 13.0893 8.9773 2.58357 -0.797681 0.195289 -1.09459 -0.282987 0.112582 0.633761 -0.0257784 0.138173 -2.12743 -0.000352879 0.00848421 -0.23247 -1.5899e-06 -2.96076e-06 -5.926e-05 
26.982 1 254 13.2804 7.14104 4.67379 4.13959 -4.99687 3.69515 0.183323 -0.706987 0.115172 0.00382469 0.0029253 -0.219444 0.000787304 0.00145182 -0.0258984 4.63933e-06 -9.12211e-06 -1.15766e-05 
26.982 1 60 15.5242 6.85236 3.02469 -1.4874 -2.62174 -5.3491 -0.320229 -0.239555 -0.131396 -0.010122 0.100567 -1.90128 -0.00161629 0.0121167 -0.205597 -4.2891e-06 -6.83836e-08 -5.78735e-05 
26.982 1 297 15.2627 9.04725 4.90145 -1.95013 0.593401 -5.68162 -0.0349369 0.136491 -0.35657 0.00550374 0.0135056 -0.256035 0.00212068 0.000178932 -0.0290981 5.87698e-07 8.23202e-06 -1.39604e-05 
26.982 1 821 20.1463 1.21176 16.6578 -2.13528 -1.1262 -3.96502 -0.0405055 -0.235016 0.165144 0.078726 -1.67326 -1.43484 0.0017294 -0.157704 -0.133011 -1.7423e-05 -4.84889e-05 -2.61708e-05 
26.982 1 3033 34.7736 20.2267 19.9918 -1.04168 -1.14222 -7.5286 0.367002 -0.150761 -0.283328 -1.18276 -0.445535 -1.95552 -0.118683 -0.0456629 -0.208135 -1.11062e-05 1.49996e-05 -8.38597e-06 
26.982 1 99 17.5286 8.75582 3.10083 3.52652 -3.83199 -3.68538 0.382683 0.325507 -0.189072 -0.110392 0.155107 -1.99386 -0.00884115 0.0137502 -0.215951 6.74748e-06 1.24176e-05 -5.88197e-05 
26.982 1 258 17.5413 6.89165 5.00849 3.96358 3.94819 7.94952 0.159312 0.38971 0.0277682 -0.000301605 0.00811176 -0.217703 -0.00252963 0.00350172 -0.0240438 5.05789e-06 6.5695e-06 -6.48306e-06 
26.982 1 64 19.993 6.51638 2.82529 -7.71324 2.02929 0.928684 -0.0987329 0.19571 0.192604 0.102713 -0.155132 -1.97729 0.0076094 -0.0186866 -0.229368 -6.82602e-06 1.04988e-05 -5.86687e-05 
26.982 1 301 19.9546 8.63413 4.79748 1.28679 -6.71799 0.061198 0.0459599 -0.0371477 -0.378342 -0.00697847 0.0119026 -0.225772 -0.00413474 0.00304135 -0.0260955 -4.12388e-06 -3.18001e-06 -1.99139e-05 
26.982 1 45 0.332674 5.37257 1.44965 5.24496 1.85305 -1.33445 0.0858517 0.233464 -0.0668669 -0.0616936 -0.251564 -2.00396 -0.00154816 -0.0167334 -0.203181 4.57291e-06 1.18778e-05 -5.8738e-05 
26.982 1 103 22.3083 8.85979 2.94877 0.771337 0.221354 -4.74015 -0.309484 -1.00884 -0.00610677 0.0724817 0.0170236 -2.05806 0.00335646 -0.00614287 -0.225484 -5.20305e-06 -6.03628e-06 -6.4863e-05 
26.982 1 262 22.1645 6.63893 4.66727 2.20955 -2.18398 -0.413763 -0.0955399 -0.337955 0.0449414 0.00379822 -0.0160728 -0.259507 -6.37638e-05 -0.00250025 -0.030773 3.267e-07 -5.11907e-06 -9.4879e-06 
26.982 1 305 24.6167 8.3907 5.00123 -0.623642 -2.45385 -1.61809 -0.563823 0.70026 -0.451049 0.00761852 -0.00287057 -0.255866 0.000561602 -0.000931233 -0.0291012 -7.7498e-06 9.10724e-06 -1.44219e-05 
26.982 1 68 24.2383 6.61659 2.86048 -5.41544 8.44924 5.26503 0.233052 -0.309877 0.258545 0.0902225 -0.142869 -2.27731 0.0044307 -0.0177652 -0.253601 1.38743e-06 -1.59685e-06 -5.65428e-05 
26.982 1 302 22.2614 10.2236 5.08121 6.75636 3.20891 3.89896 0.283505 0.093266 0.506172 -0.0105424 0.0072847 -0.254217 -0.00533597 0.0039236 -0.0252156 9.26036e-07 7.21254e-07 1.01778e-07 
26.982 1 108 24.3163 10.7947 2.8671 1.21091 -0.830773 -5.73053 -0.128895 -0.624003 0.210518 -0.0736253 0.13768 -2.17897 0.00260899 0.00799215 -0.235465 -4.50024e-06 -1.01245e-05 -5.68661e-05 
26.982 1 107 26.4013 8.50033 2.67496 1.49265 0.454949 -2.31195 0.101132 0.550743 0.198213 0.220994 -0.168479 -2.34454 0.015524 -0.00891857 -0.257817 -9.32124e-06 3.6999e-06 -6.02962e-05 
26.982 1 266 26.8336 6.90125 4.88127 0.373424 -1.56732 -4.47924 -0.0111361 -0.995548 -0.32456 0.00443207 -0.00478661 -0.304403 0.000113673 -0.00228974 -0.033768 3.76294e-06 -1.55965e-05 -1.20556e-05 
26.982 1 72 28.5154 6.67615 2.45353 3.22251 -1.02956 5.70476 -0.618784 0.797369 0.48007 -0.0986675 -0.00679743 -2.60614 -0.00994028 -0.00665378 -0.2779 -1.22612e-05 3.01999e-06 -5.30647e-05 
26.982 1 309 28.6332 8.70264 4.76648 0.0720212 -3.00923 -4.0843 0.592074 0.517889 -0.035248 -0.0079772 -0.00866941 -0.307456 -0.000728154 -0.00141333 -0.0330709 5.07413e-06 4.79703e-06 -2.83086e-06 
26.982 1 112 28.2188 10.7406 2.51389 0.476348 0.0899688 -4.89865 0.561604 -0.341124 0.4395 -0.146913 -0.222649 -2.07918 -0.014301 -0.0130613 -0.240207 6.59962e-06 1.66697e-06 -5.80129e-05 
26.982 1 306 26.5177 10.5441 4.73421 -6.39326 6.03828 3.2445 -0.180359 -0.0494966 0.232103 0.00413274 -0.00653873 -0.259918 0.000768574 -0.000456273 -0.030691 -2.25401e-06 2.25548e-06 -1.5543e-06 
26.982 1 111 30.3153 8.81815 2.57304 -0.480028 3.73396 1.22499 0.452804 0.0174591 -0.394083 -0.177735 -0.233804 -2.13833 -0.0121984 -0.0132222 -0.234302 -1.81186e-06 6.26414e-06 -6.18327e-05 
26.982 1 270 31.0075 6.89481 4.43432 -5.64232 1.36714 -0.709643 -0.593039 -0.117693 0.540596 -0.00966645 0.00241535 -0.279647 0.0001397 0.000663901 -0.0300935 -1.38437e-05 -4.35541e-06 4.25593e-06 
26.982 1 76 35.0806 7.14808 3.50386 -1.76188 -8.3653 -4.12781 -0.00183006 -0.123649 -0.142295 -0.00722244 0.0267238 -2.10514 -0.00228179 -0.000642243 -0.22043 2.1555e-06 9.02793e-07 -2.55834e-05 
26.982 1 313 33.4999 7.60971 5.37096 -1.67168 8.2784 7.92818 -0.181608 -0.530477 0.125968 -0.000848574 -0.00426642 -0.231179 0.00070419 -0.00160515 -0.0216028 -7.81283e-06 -1.13676e-05 5.4302e-07 
26.982 1 116 33.2028 9.37215 3.07165 6.74576 -1.6103 1.88904 0.0166803 -0.301601 -0.734765 0.102544 0.0428813 -1.90818 0.0021377 -0.00363081 -0.196001 1.08416e-06 -3.01733e-06 -5.02045e-05 
26.982 1 310 31.5833 9.44298 5.04928 0.763491 0.694955 2.44206 -0.514337 0.472524 0.642782 -0.00581614 -0.00579585 -0.215203 0.000679149 -0.00318124 -0.0269346 -8.0003e-06 5.4926e-06 6.48027e-06 
26.982 1 115 37.8895 8.61169 3.87833 0.967711 -1.61498 0.465154 0.108792 -0.361463 0.513471 -0.246648 -0.104533 -1.80773 -0.0149254 -0.0117425 -0.181905 2.87207e-06 -5.22515e-06 -5.61195e-06 
26.982 1 80 40.3176 6.37329 3.85716 2.15683 -5.39687 -3.07196 -0.15145 -0.474998 0.784569 0.0453405 -0.383992 -1.9079 0.00550311 -0.021179 -0.186838 -5.33153e-06 -5.2313e-06 6.59889e-06 
26.982 1 317 40.4178 8.96933 4.71969 3.16289 1.67045 -3.34435 0.0236665 0.148436 0.883746 0.00480333 -0.00951865 -0.173897 -5.7527e-05 -0.00122663 -0.0195284 8.49684e-07 5.62753e-06 1.4922e-05 
26.982 1 117 39.836 8.11934 2.05602 2.63917 3.05855 3.05322 -1.69557 0.452515 -0.65335 0.113219 0.0117001 -3.15685 0.00930302 0.000354901 -0.301351 -2.34199e-05 1.78774e-05 -6.9615e-05 
26.982 1 114 37.4315 10.9487 2.2477 -0.663499 -1.59995 3.36284 -0.495642 0.00329095 -0.284656 -0.0575534 0.0891834 -2.21339 -0.00142374 0.00625393 -0.248707 -2.84942e-06 1.09471e-05 -6.6145e-05 
26.982 1 120 40.1083 10.9573 2.95705 -4.72567 0.303797 -2.96639 -0.285452 -0.710013 -0.105248 0.153357 0.308933 -1.84714 0.00974529 0.0307234 -0.19983 -2.24774e-06 7.83985e-06 -4.68789e-05 
26.982 1 78 42.0282 6.69311 1.72805 -0.199358 -4.79851 0.0831283 0.894087 -1.32655 -0.206233 0.204334 -0.466978 -1.76144 0.0314962 -0.0315059 -0.185463 4.18995e-05 -1.53996e-05 -6.40477e-05 
26.982 1 119 42.0606 9.04936 2.69652 0.136646 0.292856 2.32241 0.746709 0.583519 0.226675 0.355118 -0.0320403 -1.98266 0.0352729 -0.00701703 -0.218607 2.21794e-05 1.27153e-05 -4.45724e-05 
26.982 1 278 43.0286 7.17555 4.54314 0.0681278 -5.0258 -1.96574 -0.272064 0.417391 -0.183683 0.454956 -0.434077 -0.295729 0.0400828 -0.0340625 -0.0309692 1.23132e-05 1.05011e-06 -1.51803e-05 
26.982 1 284 42.9831 10.4468 5.23429 -2.72027 -0.307128 -2.87669 -0.0908711 -0.599256 -0.401994 -0.956344 -0.877347 -0.8792 -0.0321235 -0.0904715 -0.0915797 7.45671e-06 -1.8403e-05 -1.72912e-05 
26.982 1 282 -2.22985 11.3528 4.24536 5.19836 -3.54001 0.777317 0.00327978 -0.321439 -0.133971 -1.19652 -0.0075221 -0.584455 -0.125165 -0.00227159 -0.067078 -3.64527e-05 -3.23864e-06 -3.17269e-05 
26.982 1 2201 -3.18754 20.2462 5.30862 3.48263 1.05738 3.29333 0.220159 0.657794 -0.0369417 -1.40215 -0.27628 -2.1891 -0.12089 -0.029987 -0.216269 -1.3479e-06 1.43478e-05 -4.07955e-05 
26.982 1 322 -2.07503 13.9615 3.46043 -1.47782 -2.04619 -2.0661 -0.171013 0.0563603 0.742718 -0.861337 -0.280846 -0.486223 -0.0978479 -0.0183294 -0.0578963 -4.52051e-05 3.82406e-07 -2.36933e-05 
26.982 1 122 -0.0473745 14.5273 1.95233 -0.455568 5.87033 3.82482 0.948674 0.485282 0.459027 -1.3763 0.00654745 -1.95199 -0.123167 0.00547584 -0.208411 -1.14645e-05 -5.3409e-06 -4.63883e-05 
26.982 1 631 30.4595 1.30871 13.8346 0.517977 0.247413 -2.53419 -0.399007 0.690952 0.101499 -0.00541204 -1.15437 -1.09503 0.00426866 -0.10557 -0.117172 1.72757e-05 -2.35158e-05 -3.54527e-05 
26.982 1 325 0.392857 12.0399 3.16247 -3.56299 3.41527 -0.064111 -0.620272 -0.0523572 0.619785 -0.105484 -0.0159196 -0.200532 -0.00722722 -0.00545117 -0.0311857 -1.88011e-05 -1.16611e-05 -2.79575e-05 
26.982 1 128 2.17997 14.3597 3.62453 -0.635108 -1.57967 3.54358 -0.137262 -0.563873 -0.00955032 -0.245375 0.158506 -1.6935 -0.0271444 0.0126969 -0.170122 -1.12107e-05 -6.02678e-06 -9.35257e-06 
26.982 1 127 4.54587 12.5053 3.51957 -1.19305 0.289135 -5.1178 -0.243751 -0.227415 0.109815 0.0106286 -0.0343495 -1.46418 -0.00397568 -0.00812368 -0.150419 4.23946e-06 -4.24927e-06 -1.78775e-05 
26.982 1 326 4.44147 14.4802 5.49124 1.77451 -1.44807 6.18205 -0.114093 -0.290731 0.289166 -0.0116739 -0.00101635 -0.156915 -0.00450694 -9.99706e-06 -0.0157869 2.27259e-06 -7.58769e-06 6.66347e-06 
26.982 1 125 2.49263 12.061 1.67059 0.690023 6.12523 6.75024 0.794206 0.485369 -0.12856 -0.300375 -0.175846 -2.69674 -0.0332654 -0.0181923 -0.271874 -8.02496e-06 -1.41049e-06 -6.42843e-05 
26.982 1 3001 43.1249 20.1256 19.4304 5.75454 5.75308 -5.81475 0.216413 0.119927 -0.402201 -2.02618 0.0123292 -1.55566 -0.160075 -0.0154376 -0.166468 1.14512e-05 1.21957e-05 -3.51652e-05 
26.982 1 328 -0.0159943 14.0799 5.34748 -4.46382 1.62036 -2.90728 0.280959 -0.154077 -0.221608 -0.112856 -0.00950702 -0.0107099 -0.0112009 0.000594793 -0.00582177 -1.62125e-06 3.42048e-06 -1.25414e-05 
26.982 1 327 2.32129 12.0385 5.38861 -3.11871 -4.58515 -2.79907 0.0351472 0.0767197 -0.496994 -0.00522248 0.00191079 -0.0103545 -0.00106932 -0.00566462 -0.00345281 -2.4791e-06 -4.71567e-06 -1.30624e-05 
26.982 1 1089 6.54266 9.50728 19.5096 -4.48722 -7.32504 1.42198 1.08619 -0.102463 0.00835815 -0.379672 -1.1881 -1.32385 -0.0449955 -0.119426 -0.119565 -1.90365e-06 2.3737e-06 2.03342e-05 
26.982 1 290 8.97851 10.8057 5.38961 4.46618 -2.82628 -5.72492 -0.306806 -0.0988342 -0.249501 0.011113 0.00230643 -0.222433 -0.000138789 -0.000356716 -0.0215701 -2.95501e-06 -2.72998e-06 -5.83085e-06 
26.982 1 92 6.83394 10.8223 3.43994 -6.28671 5.04469 -0.462799 -0.0519428 -0.269869 -0.239436 0.125137 -0.0224456 -1.6466 0.00605613 -0.000430916 -0.163682 8.05712e-06 5.74995e-06 -3.64764e-05 
26.982 1 329 6.80714 12.4522 5.5198 -0.399888 -0.684122 -4.37575 -0.352761 0.722886 0.232525 -0.00346688 -0.00452952 -0.17368 -0.00308402 -0.00209216 -0.0162132 -4.54642e-06 5.71372e-06 2.80501e-06 
26.982 1 132 6.19928 14.5769 3.4265 -1.31437 -4.08588 -4.64006 0.381565 0.257737 -0.293542 0.141531 -0.0257567 -1.57154 0.0155366 -0.00213461 -0.163654 1.70309e-05 -5.58542e-06 -3.61237e-05 
26.982 1 131 8.58968 13.1004 3.13726 -1.21874 -3.36794 -6.36431 -0.509855 -0.631544 -0.245427 0.139493 -0.00437563 -1.88288 0.013802 0.00422628 -0.198703 -7.02266e-06 -1.13206e-05 -5.83567e-05 
26.982 1 126 4.01672 14.5761 1.59776 -5.10072 10.2459 0.352898 -0.152322 -0.913968 -0.350475 0.00566458 0.0438623 -2.61634 -0.00737613 0.00516333 -0.274847 6.77247e-06 -1.85798e-05 -6.29008e-05 
26.982 1 330 8.27396 15.0399 5.25591 -4.20476 -4.40083 1.68105 0.484424 -0.277084 0.128156 0.00773018 0.00221232 -0.210558 0.000115413 0.000796773 -0.0220988 6.87563e-06 -3.21042e-06 2.53436e-07 
26.982 1 1173 8.28582 17.0615 19.5172 3.78643 6.10819 1.93573 0.140791 -0.189437 0.645993 -0.681421 -0.858733 -0.819843 -0.0566227 -0.0790037 -0.0920361 2.99465e-07 -1.23512e-05 9.35801e-06 
26.982 1 294 12.898 11.1665 4.75191 -2.08938 -4.08047 -2.76137 0.350033 -0.532292 0.397127 0.00292113 0.00751895 -0.26323 0.00128735 -0.00018768 -0.0285696 1.10577e-05 -9.35291e-06 -2.76338e-06 
26.982 1 96 10.6874 10.9205 3.13938 1.60827 -2.01678 -4.6098 -0.192733 0.326141 -0.324956 0.0775014 -0.0568034 -2.11861 0.0108705 -0.00398229 -0.222639 -1.80823e-06 3.32485e-06 -6.18535e-05 
26.982 1 333 10.5452 13.1607 5.01599 5.67443 -0.393365 1.17704 0.0217531 -0.0652878 0.471808 0.00377692 -0.00905018 -0.233466 -0.000299993 -0.00148838 -0.024335 -2.10401e-06 -2.50963e-06 2.07353e-06 
26.982 1 135 12.4667 13.2728 3.14778 -5.16837 5.63708 -1.59112 0.17637 -0.148886 -0.992179 0.0726386 -0.178307 -2.0826 0.00419198 -0.0165624 -0.232252 -3.01453e-07 -5.81715e-06 -6.52393e-05 
26.982 1 100 14.8068 11.0596 2.46177 0.234254 7.75673 0.806154 0.340836 0.36146 0.209365 0.0139899 0.0481175 -2.26259 -0.00315891 0.000678158 -0.247543 7.39825e-06 1.90126e-06 -5.40472e-05 
26.982 1 337 14.7835 13.1413 4.79569 -2.74539 1.2678 1.14565 0.293521 0.0407526 0.056847 0.00846967 -0.00128603 -0.266949 0.00337282 0.00106516 -0.0270304 1.03441e-05 -1.70785e-06 -2.57696e-06 
26.982 1 139 16.6666 13.4976 2.60889 2.90736 -6.26403 -1.31505 -0.416763 -0.562563 -0.238671 -0.0286012 -0.0329521 -2.31402 -0.00199927 -0.00702025 -0.249679 7.45055e-06 -1.21201e-05 -6.10963e-05 
26.982 1 298 16.9551 11.3414 4.41849 -8.40064 -1.16829 -2.0563 0.238497 0.275001 -0.428355 -0.000451727 -0.00145975 -0.282229 0.00300802 -0.00198172 -0.0372172 7.2865e-06 3.81274e-07 -2.6588e-05 
26.982 1 338 17.3002 14.513 5.27054 6.54718 2.87959 -1.45155 0.0239443 -0.596801 0.505023 -0.012099 -0.0155293 -0.251311 -0.0036222 -0.00122049 -0.0255939 -4.41156e-06 -7.79135e-06 1.80391e-06 
26.982 1 74 36.7915 7.53129 1.69076 -4.27187 2.20948 -0.108001 0.610148 -0.0666577 -0.39053 0.0111952 -0.191107 -1.75261 -0.00909461 -0.0105757 -0.189052 -5.41695e-06 1.16926e-05 -6.79348e-05 
26.982 1 5 0.65159 1.29013 2.10856 1.77275 -1.2155 -1.14643 -0.73639 0.282424 0.307802 0.116339 -0.937895 -1.47186 0.0161951 -0.108462 -0.164566 2.57285e-06 -3.49681e-05 -3.07343e-05 
26.982 1 104 19.9425 10.7224 2.9086 -3.98793 -1.00465 -3.60562 0.0996511 -0.101157 0.856879 -0.016294 0.166451 -2.12149 -0.00892036 0.0121526 -0.22349 -1.27316e-05 -1.73342e-06 -6.26936e-05 