ITEM: TIMESTEP
6500
ITEM: NUMBER OF ATOMS
4000
ITEM: BOX BOUNDS pp pp pp
-1.39527 41.8953
0.368836 40.1312
0.376854 40.1231
ITEM: ATOMS mass type id x y z vx vy vz fx fy fz xrad yrad zrad vxrad vyrad vzrad fxrad fyrad fzrad 
26.982 1 43 0.724756 4.1765 2.38618 -1.12268 1.0297 0.125375 0.04435 0.608451 -0.233555 -0.154431 -0.112333 -0.240823 -0.0523475 -0.0375229 -0.0725121 -1.32257e-05 1.31936e-05 -3.69599e-05 
26.982 1 202 0.631682 2.36365 4.44392 1.39514 -2.94148 -1.26447 0.229256 -0.131525 -0.0584975 -0.145037 -0.165429 -0.132558 -0.0502476 -0.035566 -0.0409183 -1.50461e-06 -2.17289e-05 -1.64695e-05 
26.982 1 201 -1.44984 0.241188 4.37656 -3.43143 -0.338616 -0.781502 0.22625 0.424298 -0.148963 -0.0738732 -0.164009 -0.177974 -0.0302343 -0.048949 -0.0671446 -2.0197e-05 -2.15187e-05 -4.8459e-05 
26.982 1 241 -1.2503 4.43707 4.40994 1.33806 -2.99665 -1.32874 -0.531467 -0.632475 -0.0915389 -0.164546 -0.172164 -0.181899 -0.0404409 -0.0421025 -0.0467159 -3.31385e-05 -2.16319e-05 -1.80303e-05 
26.982 1 4 -1.33799 2.29972 2.30791 -2.61232 4.03886 -2.2901 -0.0853916 -0.0238122 0.0807199 -0.151724 -0.204664 -0.218475 -0.0414434 -0.0574564 -0.0682853 -4.42726e-05 -2.01299e-05 -3.22738e-05 
26.982 1 2 0.776791 2.43981 0.292121 1.97782 5.57075 4.23703 0.13078 -0.456233 0.0713392 -0.112894 -0.136987 -0.274063 -0.0319767 -0.0481581 -0.083636 -1.3676e-05 -2.76004e-05 -5.06299e-05 
26.982 1 45 2.93791 4.35288 0.439528 2.48557 1.77599 1.93706 -0.00548503 0.0746638 -0.241482 -0.0210763 -0.0565368 -0.229672 -0.00281175 -0.0172247 -0.070234 8.03122e-06 7.09122e-06 -6.16216e-05 
26.982 1 8 2.78249 2.31369 2.37684 4.16616 2.75264 0.670615 0.399998 -0.0604792 -0.00177457 0.0641508 -0.247328 -0.211416 0.0169857 -0.0689014 -0.0789852 1.73044e-05 -4.67086e-05 -2.92388e-05 
26.982 1 245 2.86405 4.42084 4.24764 4.81587 2.70122 6.84406 0.269708 -0.419769 0.404638 -0.0106643 -0.0313718 -0.0323922 -0.00370673 -0.00752312 -0.0105094 5.09544e-06 -9.81084e-06 3.09933e-06 
26.982 1 205 2.80284 0.29566 4.43466 0.443303 5.0006 3.79978 0.287392 0.610889 -0.184814 0.0127447 -0.101148 -0.0927081 0.00928858 -0.0563466 -0.045391 2.20539e-06 -3.43625e-05 -5.31052e-05 
26.982 1 47 5.03706 4.49521 2.2788 -3.26422 -1.17926 -0.131026 0.149791 -0.467532 0.259609 -0.0284494 -0.0782408 -0.193133 -0.00830086 -0.0187946 -0.0681499 3.42038e-06 -1.22141e-05 -3.33991e-05 
26.982 1 206 5.10723 2.55379 4.25033 -3.71353 1.99155 -0.372012 -0.249618 -0.210497 -0.0146334 -0.0279667 -0.256885 -0.137637 -0.00097151 -0.0706801 -0.0412225 -8.40325e-06 -2.37881e-05 -2.45012e-05 
26.982 1 12 7.42241 2.43579 2.43235 -6.41095 -1.54061 1.97246 -0.379495 0.318573 -0.497878 -0.0447062 -0.316603 -0.172485 -0.015762 -0.0894292 -0.0578771 -2.79617e-05 -1.07897e-05 -2.71416e-05 
26.982 1 9 7.45333 0.431444 0.365815 0.307021 -3.61182 4.96405 -0.59047 0.120603 0.357921 -0.0181176 -0.132402 -0.201641 -0.0130556 -0.040108 -0.0776102 -2.65082e-05 -3.06201e-05 -3.79601e-05 
26.982 1 249 7.36274 4.38207 4.44202 -2.1289 -8.41971 2.36424 -0.317385 0.285847 -0.451629 -0.00194097 -0.026032 -0.0214641 -0.000750839 -0.00770184 -0.00714353 -7.11477e-06 5.95318e-06 -1.00999e-05 
26.982 1 209 7.12901 0.415346 4.21087 4.61072 3.70033 -1.10451 0.245698 0.0618378 0.299381 -0.0112496 -0.2087 -0.206329 -0.00483655 -0.0607937 -0.0534236 -1.44714e-05 -4.59777e-05 -2.75674e-05 
26.982 1 49 7.17551 4.41913 0.360462 -0.734959 -1.82966 1.15853 0.461425 -0.298612 0.191587 -0.0118035 -0.0458762 -0.350892 -0.00854585 -0.0138384 -0.10628 -9.54695e-06 4.16377e-06 -6.22075e-05 
26.982 1 51 9.58546 4.37044 2.44854 1.14419 -0.274452 3.27168 -0.243579 0.427101 -0.21598 -0.00113597 -0.0261939 -0.153704 0.00424952 -0.0119571 -0.0540009 -4.44191e-06 2.01841e-05 -2.57235e-05 
26.982 1 210 9.45378 2.40427 4.28614 0.374378 2.34425 2.7862 0.246119 -0.287627 0.37932 -0.00151532 -0.210918 -0.116688 0.000748293 -0.0607066 -0.0304088 1.7098e-05 -2.44292e-05 3.12774e-06 
26.982 1 11 9.31329 0.355171 2.32499 -0.127579 1.84486 -3.33375 0.408253 0.3136 0.129252 0.0121519 -0.0687604 -0.18671 0.00993655 -0.049357 -0.0574617 3.11295e-05 -5.5765e-05 -7.73594e-06 
26.982 1 16 11.6795 2.49698 2.48478 -0.694481 -2.5899 -1.78966 0.0942912 -0.3912 -0.398764 0.0585567 -0.286163 -0.195595 0.0212508 -0.0808509 -0.0712064 6.05515e-07 -4.21979e-05 -1.25065e-05 
26.982 1 253 11.707 4.44348 4.34633 -2.31085 -3.02735 1.07925 0.0536975 -0.00454164 -0.0704564 0.00208636 -0.0253042 -0.022669 0.000936298 -0.00814645 -0.00890519 2.26249e-06 -4.98478e-06 -3.6966e-06 
26.982 1 10 9.49154 2.59038 0.298338 2.44652 0.745643 -1.88407 -0.113998 -0.238581 0.46631 -0.00812813 -0.201515 -0.335924 0.00159075 -0.054088 -0.10158 7.85021e-06 -1.58467e-05 -5.62119e-05 
26.982 1 53 11.5872 4.45886 0.416629 -6.28313 -1.90643 -0.0185048 -0.0387304 -0.116938 -0.0432602 0.0451618 -0.0275934 -0.375468 0.0102205 -0.00709105 -0.0903325 -1.14321e-05 9.49026e-06 -5.95635e-05 
26.982 1 55 13.8729 4.44201 2.15454 -0.726211 -2.10967 -0.368141 -0.290026 -0.148989 0.711961 -0.00091877 -0.0794915 -0.224409 -0.00136853 -0.0235377 -0.0817158 1.27291e-05 -1.74491e-06 -1.7832e-05 
26.982 1 214 13.942 2.483 4.27817 -7.49712 0.390398 1.11093 -0.621668 0.0583171 0.0907569 0.0389072 -0.242143 -0.122353 0.00837548 -0.0731867 -0.038502 -1.94711e-05 -1.43811e-05 -1.42061e-06 
26.982 1 20 15.894 2.49814 2.29431 -3.7181 -1.89846 -0.851819 0.378057 -0.299639 0.0736058 -0.10808 -0.307749 -0.157949 -0.0288704 -0.0915801 -0.0609275 3.08431e-05 -2.00195e-05 -4.7931e-05 
26.982 1 15 13.7979 0.397164 2.21509 -4.6961 -0.374368 0.774706 -0.385155 -0.00345288 0.512221 -0.00228314 -0.0830491 -0.293728 -0.00455748 -0.0282475 -0.0907855 -1.25103e-05 -5.69194e-05 -1.97773e-05 
26.982 1 14 13.8249 2.39272 0.321454 4.21213 5.85765 1.09422 -0.310028 0.300038 -0.13507 0.00880716 -0.187314 -0.156335 0.0046223 -0.0499018 -0.0441256 8.8809e-06 -1.74706e-05 -6.16971e-05 
26.982 1 257 16.0045 4.32861 4.35554 1.01634 -2.98392 3.62655 -0.0286499 0.0857404 -0.136043 -0.00324755 -0.0337162 -0.0215218 -0.000827439 -0.00972872 -0.00859991 2.04579e-06 3.6864e-07 -7.3729e-06 
26.982 1 218 18.1434 2.18599 4.33383 1.85268 -2.37847 -2.37811 -0.224276 0.370682 -0.0251045 -0.0275696 -0.227611 -0.0715838 -0.0073574 -0.0679292 -0.0250792 -4.18781e-06 -1.42478e-05 -2.35704e-05 
26.982 1 59 18.079 4.42715 2.36879 -0.178357 1.65567 4.21454 0.0208203 -0.535627 -0.240526 0.0128012 -0.00578057 -0.143638 0.0029024 0.000232525 -0.0592494 4.46893e-06 -1.08712e-05 -6.13156e-05 
26.982 1 217 15.7678 0.391503 4.23847 3.41906 -2.68519 6.93392 0.262497 -0.0345564 0.282389 0.00191178 -0.0637438 -0.0553094 -0.00101669 -0.0269933 -0.0239274 1.35709e-05 -4.96139e-05 -2.9309e-05 
26.982 1 21 20.0258 0.166475 0.155828 -4.55132 3.18145 -0.751744 0.723283 0.774187 0.530279 0.0337826 -0.187457 -0.189412 0.00802427 -0.0535381 -0.0536725 -1.69107e-07 -1.29373e-05 -1.73009e-05 
26.982 1 221 20.2362 0.204143 4.3793 3.65728 0.494816 -3.45394 0.0280357 0.111718 -0.252844 -0.0395851 -0.155039 -0.136091 -0.0118657 -0.0508008 -0.0457385 4.15422e-06 -4.31371e-05 -4.88862e-05 
26.982 1 261 20.3543 4.33621 4.35006 5.62111 -1.07007 -2.48846 -0.492688 -0.0276759 -0.239965 0.00164395 -0.0235646 -0.0223684 0.000532138 -0.00709056 -0.00863794 -8.20698e-06 -3.61396e-06 -1.37469e-05 
26.982 1 24 20.0935 2.11714 2.39119 -0.188877 3.51619 2.09527 0.170344 0.584941 -0.458493 0.0288989 -0.230472 -0.120318 0.00750971 -0.0675156 -0.0483973 1.99629e-06 -1.22781e-05 -5.13444e-05 
26.982 1 63 22.3206 4.31312 2.33069 -4.01328 2.30096 1.37017 -0.109859 0.0442292 -0.0803575 0.00436278 0.0038778 -0.203035 0.00389106 -0.00291697 -0.0740315 -4.45082e-06 -6.40551e-06 -6.41737e-05 
26.982 1 222 22.1677 2.37918 4.38842 -1.72195 -0.958743 2.04415 0.948775 -0.355383 -0.446676 -0.0292972 -0.18673 -0.0897154 -0.00418875 -0.0585643 -0.028723 2.33802e-05 -3.06001e-05 -2.67388e-05 
26.982 1 28 24.4262 2.35267 2.36242 -0.551888 -2.1122 2.47011 -0.0267939 -0.450724 0.0355482 -0.0329415 -0.15193 -0.177911 -0.00740478 -0.0528313 -0.0695469 -1.65984e-05 -3.69218e-05 -4.71874e-05 
26.982 1 265 24.5091 4.35839 4.17168 5.39908 -0.201212 3.8139 -0.186463 0.0979809 0.650445 -0.000403447 -0.0149388 -0.0264344 0.000236376 -0.00556431 -0.0105393 -3.08487e-06 -1.58768e-06 5.59187e-07 
26.982 1 67 26.5334 4.27165 2.43094 1.79689 -2.07337 -3.5878 0.740456 0.00129473 -0.600406 0.00967107 0.0093437 -0.242951 0.00406624 0.0029918 -0.0920724 9.25399e-06 -1.30244e-05 -5.03767e-05 
26.982 1 226 26.5765 2.30069 4.29783 -0.322658 0.491283 -3.73343 0.253981 -0.22456 0.348433 0.0299459 -0.135994 -0.0422717 0.00193626 -0.0437868 -0.01791 -7.21597e-06 -2.5053e-05 -2.3281e-06 
26.982 1 269 28.8925 4.09099 4.3287 1.53691 5.1991 -2.79277 0.250007 0.0805125 -0.174198 -0.002 -0.0186335 -0.0274715 -0.000673303 -0.00491262 -0.0116208 6.24879e-06 -2.79727e-06 -1.25803e-05 
26.982 1 27 26.5612 0.368781 2.36609 -5.62639 0.433661 -2.80411 0.358866 -0.224903 -0.369402 0.0540974 -0.389941 -0.144888 -0.00163462 -0.105192 -0.0548582 -2.35302e-05 -4.52136e-05 -2.66293e-05 
26.982 1 29 28.9336 0.279928 0.31846 -3.08882 -2.74925 -0.195144 -0.212384 -0.0116051 -0.0900745 -0.0238612 -0.218016 -0.254472 0.00168707 -0.0652979 -0.082098 1.01775e-05 -1.77166e-05 -3.05382e-05 
26.982 1 32 28.797 2.14332 2.3605 2.36587 0.267268 2.975 0.138087 0.266636 -0.00557342 -0.00070053 -0.185364 -0.182395 0.000145562 -0.0476792 -0.0721523 1.428e-05 7.07273e-07 -4.25967e-05 
26.982 1 71 31.218 4.08314 2.32361 -4.16607 -3.66182 -0.350063 -0.444385 0.496693 -0.100455 -0.0185581 0.00467432 -0.177846 -0.00819301 0.00170339 -0.0758179 -2.16276e-05 -3.15271e-06 -4.86644e-05 
26.982 1 230 31.0717 2.35729 4.3536 2.81765 -5.70955 0.497601 -0.0173784 -0.387235 0.146608 -0.0298878 -0.167205 -0.0627528 -0.00873272 -0.046402 -0.0238732 1.20174e-05 -3.64491e-05 -1.76925e-05 
26.982 1 273 33.3421 4.30761 4.27768 0.88732 -1.62568 2.90422 -0.0720377 -0.310489 0.648273 0.00171767 -0.0110163 -0.02179 0.000101497 -0.0028195 -0.00870285 -2.00249e-06 -1.05823e-05 7.54484e-06 
26.982 1 229 28.7954 0.168883 4.31009 -1.08092 -1.02666 2.98762 0.0459596 0.529538 -0.0395231 -0.00426148 -0.143612 -0.0861879 0.000876358 -0.0573796 -0.0345781 7.87809e-06 -3.71591e-05 -3.11069e-05 
26.982 1 36 33.423 2.32097 2.36334 2.46064 0.955661 2.14771 -0.465005 -0.093352 -0.000946373 -0.00709437 -0.158019 -0.179308 -0.00656669 -0.044944 -0.0679292 -1.3191e-05 -4.75292e-05 -3.12187e-05 
26.982 1 73 33.3156 4.34702 0.373412 1.70637 -0.408652 5.80916 0.110101 -0.43969 0.0889445 0.0649272 -0.013916 -0.342673 0.00864948 -0.00760544 -0.0846347 1.73483e-06 -5.74194e-06 -6.1692e-05 
26.982 1 75 35.4719 4.232 2.48918 4.88511 5.36635 0.55802 0.187214 -0.185624 -0.368448 0.0614221 0.00566115 -0.26111 0.00974951 0.00047969 -0.0791447 1.75019e-05 -4.59549e-06 -5.4153e-05 
26.982 1 234 35.6256 2.24124 4.31479 -2.34967 -1.60955 -3.87168 -0.753803 0.121198 0.377176 0.00796192 -0.10682 -0.0414148 0.0073176 -0.0346599 -0.0155626 -2.13191e-05 -1.59191e-05 -1.53904e-06 
26.982 1 40 37.766 2.14378 2.35547 -1.80487 -1.15858 -0.964598 -0.276039 0.0139216 -0.0236492 0.119965 -0.162974 -0.306384 0.0286153 -0.0546397 -0.082978 -1.63879e-05 -6.66531e-06 -4.86911e-05 
26.982 1 277 37.7248 4.2222 4.28188 1.43491 -0.479993 -1.98289 -0.123184 -0.148179 -0.262108 0.00375442 -0.0156597 -0.0411554 0.000978658 -0.00531727 -0.0118058 -3.96029e-07 -2.03249e-06 -1.32341e-05 
26.982 1 35 35.3545 0.220396 2.40927 2.93844 0.784593 0.285857 0.564567 0.399404 0.0616717 0.0297919 -0.412582 -0.1856 0.00925563 -0.119522 -0.0616121 -1.12412e-05 -4.46299e-05 -3.1013e-05 
26.982 1 79 39.9166 4.39445 2.3074 -0.257766 0.0562513 -2.89738 -0.228628 -0.574799 -0.171299 -0.0421402 -0.0754908 -0.29421 -0.00811619 -0.0156435 -0.0877046 -7.54539e-06 1.00072e-05 -5.13627e-05 
26.982 1 238 39.8889 2.22445 4.21917 -2.1194 -3.38805 2.15177 -0.097901 0.249197 0.551059 0.00432566 -0.196186 -0.133211 -0.00344173 -0.0574669 -0.0372276 -9.28182e-07 -5.11075e-06 2.02949e-06 
26.982 1 39 39.757 0.162783 2.34461 -3.42565 2.42681 -3.97741 0.250971 0.614997 -0.342992 -0.0451408 -0.0385664 -0.28876 -0.0124298 -0.0270854 -0.075951 -3.11657e-07 -5.69994e-05 -3.08309e-05 
26.982 1 38 39.8465 2.41249 0.366437 2.45143 -3.7773 -1.63835 -0.0751709 -0.365758 0.0789116 0.00780193 -0.11739 -0.1484 0.00220221 -0.0329931 -0.0593954 -3.36763e-06 -3.51811e-06 -5.93026e-05 
26.982 1 237 37.4588 0.366748 4.61348 -6.85767 1.01896 3.30763 0.445114 -0.69339 -0.360002 0.0558466 -0.235282 -0.172299 0.0136845 -0.0643148 -0.0460291 5.71539e-06 -4.57546e-05 -2.48788e-05 
26.982 1 83 0.701777 8.275 2.27029 0.0220773 0.542068 -6.45489 0.143003 -0.0469586 0.0122656 -0.19258 -0.0484772 -0.226658 -0.056343 -0.0159603 -0.067296 -3.23708e-05 -3.14744e-05 -3.89408e-05 
26.982 1 242 0.710345 6.31845 4.2394 5.32062 -0.400093 0.848333 0.3754 0.37317 0.0325708 -0.199304 0.023823 -0.110914 -0.059636 -0.000714071 -0.0317386 -1.42243e-05 6.19676e-06 -2.00041e-05 
26.982 1 281 -1.52505 8.20941 4.28339 -1.77973 -1.73067 3.95654 0.117935 -0.149504 -0.109915 -0.0895045 -0.0914521 -0.104825 -0.0370996 -0.0361316 -0.0417748 -2.88989e-05 -3.04417e-05 -4.022e-05 
26.982 1 88 2.72294 10.1727 2.28679 -7.33215 0.782178 -8.23732 0.667309 0.562954 0.143669 -0.0648641 -0.0189438 -0.235383 -0.015434 -0.00754429 -0.0629985 9.0403e-06 1.01664e-05 -7.07035e-06 
26.982 1 285 2.88821 8.36833 4.34794 -0.28411 -4.37341 5.29722 0.013975 -0.0927884 0.202705 -0.0237396 -0.000434856 -0.0266327 -0.00557504 -0.000649265 -0.00774883 -1.82991e-07 -5.08802e-07 2.68304e-06 
26.982 1 48 2.99939 6.37967 2.4751 -0.736118 7.92136 3.18163 -0.54468 0.136819 -0.628302 -0.0640686 -0.0101441 -0.211241 -0.0108313 -0.00499649 -0.0676284 -1.06789e-05 -1.15823e-06 -3.72466e-05 
26.982 1 87 5.00528 8.4012 2.32526 2.73324 0.194115 -4.9137 0.361866 0.169809 0.084124 -0.00503796 0.0221738 -0.187132 -0.00091237 -0.000655836 -0.0606896 1.21979e-05 -1.10078e-05 -1.97652e-05 
26.982 1 246 5.07628 6.51254 4.28135 -1.47624 2.07238 -1.44624 0.494325 -0.510978 0.199392 -0.000618301 -0.000741452 -0.0154237 -0.000236176 -0.000250936 -0.00623372 1.10147e-05 -7.01682e-06 -1.87521e-06 
26.982 1 289 7.45112 8.30853 4.447 3.80198 -2.34851 2.10673 -0.624965 0.382533 -0.313728 0.00181915 0.000899146 -0.0227035 0.000359516 0.000261293 -0.00680925 -9.9948e-06 6.72268e-06 -1.0678e-05 
26.982 1 286 5.187 10.3634 4.29373 -1.88681 2.36779 -1.72442 -0.270161 -0.253363 -0.107259 -0.000507045 0.000829882 -0.0189482 0.000147517 0.000181146 -0.00563957 -4.71135e-06 -4.31649e-06 -3.89595e-06 
26.982 1 85 2.98046 8.30574 0.382054 0.657589 -1.37498 0.0340118 -0.499214 0.0663762 -0.211363 -0.00736515 0.0416962 -0.26704 -0.000378651 0.00198391 -0.0880129 -4.76753e-06 -2.61898e-05 -6.61069e-05 
26.982 1 52 7.25294 6.16076 2.32712 -2.51481 -0.735446 -3.45927 0.170999 0.844952 0.37509 0.0178608 0.0192447 -0.169425 -0.00197267 0.00377581 -0.0554662 6.16702e-06 1.51119e-05 -2.54996e-05 
26.982 1 92 7.19353 10.4402 2.22433 -2.91341 -2.1658 0.881458 0.0144591 -0.404567 0.89029 0.0259899 -0.0204717 -0.212442 0.00940185 0.000654692 -0.06903 1.80965e-06 -8.51424e-06 2.96372e-06 
26.982 1 91 9.35618 8.41508 2.53792 -0.74472 0.738255 -2.44578 0.152034 0.0912006 -0.320758 0.0305432 0.0313811 -0.256564 0.00377575 0.0122815 -0.0708558 9.95646e-06 -1.41617e-05 -3.63548e-05 
26.982 1 250 9.59809 6.40615 4.40905 0.759474 -2.71283 -0.345141 -0.157501 0.0319868 -0.134032 0.00175061 0.00155795 -0.0173524 0.000269833 0.000129804 -0.00521748 -2.46327e-06 1.87337e-06 -9.14883e-06 
26.982 1 290 9.57235 10.4806 4.45297 -1.65332 -1.66507 5.19883 -0.583449 -0.420936 0.0796915 0.00205756 0.000525431 -0.0295769 0.000460243 0.000711931 -0.00933768 -1.14956e-05 -4.64048e-06 1.10177e-06 
26.982 1 293 11.6151 8.42615 4.48022 -2.09943 0.930061 3.35016 0.208776 0.0475532 -0.0795257 -0.000933386 0.00254686 -0.0309011 1.96899e-05 0.00092224 -0.00828341 3.91443e-06 2.26827e-06 -5.8436e-06 
26.982 1 89 7.21321 8.45882 0.456252 7.39024 -2.88929 -2.56772 -0.0600315 -0.274408 -0.141329 0.00852379 0.0584841 -0.268906 0.00198693 0.00956553 -0.0888876 3.11506e-06 -2.95536e-05 -5.84031e-05 
26.982 1 56 11.7846 6.54682 2.42562 3.73534 -2.0938 4.51232 -0.601411 -0.419873 0.0176856 0.0107667 0.0520696 -0.220388 0.00786498 0.00278585 -0.0674904 -2.1138e-05 1.07325e-05 -3.40215e-05 
26.982 1 95 13.6714 8.45002 2.44905 -1.32527 1.71675 -1.59578 0.435486 0.259567 -0.190944 -0.0362624 0.0224828 -0.258757 0.00152644 0.00263124 -0.0803522 5.73873e-06 1.59471e-05 -4.54358e-05 
26.982 1 254 13.8235 6.26081 4.33786 -3.85681 -3.40657 5.00244 0.14746 0.208061 0.0842828 -2.51412e-05 1.90865e-05 -0.0219033 0.000287542 -0.00025261 -0.0080771 1.72337e-06 3.93159e-06 -2.38031e-06 
26.982 1 54 13.6369 6.34268 0.33175 -0.299178 -3.07342 -3.1519 0.661657 0.611149 -0.0454355 -0.0491847 0.0541074 -0.304973 -0.00591879 0.0123501 -0.0843675 1.64002e-05 2.45917e-05 -6.39332e-05 
26.982 1 297 15.9555 8.29325 4.24659 -3.97623 3.57342 0.267972 0.0507147 0.324521 0.227712 -7.13635e-05 0.0030728 -0.0242105 0.000235907 0.000687535 -0.0097096 1.92267e-06 3.84705e-06 -6.22728e-06 
26.982 1 60 15.916 6.44607 2.37345 -0.986963 -0.936371 1.74143 0.10981 -0.284917 -0.317005 -0.0153007 0.0156729 -0.17945 -0.00192706 0.00710452 -0.0727066 1.36719e-05 2.12276e-06 -5.27955e-05 
26.982 1 99 18.1727 8.50998 2.46526 -4.03066 0.154724 6.73898 -0.032333 -0.165419 -0.138198 -0.000712158 0.0417452 -0.210997 -0.00785701 0.0104883 -0.0782865 -1.63353e-05 -1.06844e-05 -3.19899e-05 
26.982 1 258 18.2437 6.24221 4.24143 2.87772 -1.89332 -1.96267 -0.254273 0.534797 0.535564 0.00082033 0.00218106 -0.0167732 0.00011421 0.000354922 -0.00770092 -4.43775e-06 7.25132e-06 -8.09858e-07 
26.982 1 298 18.1647 10.4305 4.42008 0.193026 -0.685996 3.44298 0.130654 -0.436177 0.224084 -0.000147499 0.00177274 -0.0324528 -0.000351017 0.000417702 -0.011328 4.92543e-06 -7.02424e-06 8.49668e-08 
26.982 1 100 15.8458 10.5566 2.3644 -1.29321 4.22311 -5.31415 0.2894 -0.284612 -0.133124 0.00518637 0.0460206 -0.281619 0.00617629 0.007272 -0.0946441 -8.24628e-06 -2.28818e-05 -4.18543e-05 
26.982 1 98 18.0881 10.4502 0.309308 -0.851801 0.606995 2.20413 0.10964 0.239273 0.00139483 -0.0262032 0.00162103 -0.201079 -0.00689624 9.7812e-05 -0.0479715 -5.11597e-06 -5.26265e-06 -5.7685e-05 
26.982 1 301 20.3685 8.20316 4.3392 0.906162 -1.02746 -1.7298 -0.525228 0.67936 0.19305 0.00140878 0.00245384 -0.0241863 -4.64121e-05 0.00051594 -0.00764061 -1.00669e-05 1.36872e-05 1.50014e-06 
26.982 1 64 20.1815 6.4599 2.22731 -0.664669 0.2122 -0.445934 0.111485 -0.228613 0.302311 0.0256805 -0.00182683 -0.200647 0.00265995 -0.00513608 -0.0683001 1.24998e-06 -2.41659e-05 -4.93141e-05 
26.982 1 103 22.3173 8.41781 2.28112 -3.25068 -5.63432 -3.35449 0.291552 -0.30304 -0.38978 0.00600959 0.03398 -0.259144 0.00457524 0.00548967 -0.0760911 1.68075e-05 -2.61869e-06 -5.27283e-05 
26.982 1 262 22.3281 6.4004 4.21437 -6.97891 3.95055 1.34207 0.564634 -0.265554 0.0664604 0.000612525 0.00104718 -0.0249164 0.00029085 -0.000279497 -0.00828306 8.33576e-06 -4.31431e-06 -7.66597e-06 
26.982 1 305 24.6916 8.40071 4.28457 2.96733 0.643153 -2.36589 0.0782485 -0.405466 -0.00220289 -0.000469641 0.00125527 -0.0268144 0.00041202 -4.74835e-05 -0.00886958 2.72117e-06 -8.84356e-06 -7.98233e-06 
26.982 1 101 20.1913 8.39218 0.343984 -0.0575523 -1.1097 2.15222 0.0558188 -0.00828181 -0.596741 0.0388956 0.00150603 -0.335497 0.00456643 0.00281638 -0.110967 9.12084e-06 -1.21444e-05 -6.62005e-05 
26.982 1 68 24.4977 6.37029 2.36418 1.68913 -5.64253 3.98755 -0.114735 -0.0173016 -0.186109 0.0112743 -0.00017888 -0.242565 0.00716538 -0.00425797 -0.0852644 -1.13923e-05 3.02073e-06 -4.59596e-05 
26.982 1 107 26.7164 8.1808 2.26663 7.07725 -0.504494 -2.57619 0.0934613 0.0558132 0.182651 0.0484646 -0.040236 -0.265317 0.0124448 -0.0133173 -0.0884532 -1.12888e-05 1.10955e-05 -3.113e-05 
26.982 1 266 27.0726 6.07004 4.41506 -1.58959 -4.95948 -1.46365 -0.649875 0.434045 -0.214667 0.00153584 0.00194944 -0.030816 0.00024772 0.000115018 -0.0115172 -1.00716e-05 6.33391e-06 -8.98808e-06 
26.982 1 309 29.0377 8.17597 4.46548 -0.699679 -3.24933 3.09456 -0.138934 0.0288286 -0.53241 -0.00126369 -0.000942612 -0.0356459 -0.000415687 -0.000511249 -0.0118346 -3.16169e-06 -8.46934e-07 -1.19918e-05 
26.982 1 66 26.5132 6.15648 0.357758 -2.95893 5.33525 0.0409827 0.417746 0.0809856 -0.307827 0.0150187 0.0477508 -0.204114 0.00461056 0.00603458 -0.0483898 -8.67217e-06 -1.04261e-05 -6.27961e-05 
26.982 1 109 28.9234 8.26149 0.393133 1.8128 4.63694 3.58477 0.050431 -0.0753796 -0.45056 0.000931299 -0.0168881 -0.0410445 0.000359641 -0.00814209 -0.0224305 -3.04765e-06 -2.35428e-06 -6.3842e-05 
26.982 1 72 28.822 6.27722 2.21246 0.37871 2.17431 3.76605 0.272906 -0.434142 0.281677 -0.0278817 0.0446056 -0.284513 -0.00667943 0.00481258 -0.101814 1.63418e-05 -2.41208e-05 -3.27235e-05 
26.982 1 111 31.1864 8.13449 2.36638 3.00744 -1.214 1.78165 -0.41588 0.360198 -0.257206 -0.0321124 -0.0288247 -0.241124 -0.00785186 -0.0118585 -0.0814098 -8.2321e-06 -9.86138e-06 -3.09638e-05 
26.982 1 270 31.0951 6.2088 4.2356 -0.247446 5.42601 -1.81518 -0.0373913 -0.333705 0.241839 -0.0004902 0.00235742 -0.0252493 -0.000498295 0.000580565 -0.00997125 -3.48706e-06 -7.30572e-06 -5.37817e-06 
26.982 1 313 33.1485 8.30799 4.43067 3.05895 -0.194712 -4.30694 0.399898 -0.0660941 -0.0441422 0.000870985 0.000380722 -0.0264207 -0.000174437 -9.1708e-05 -0.00893927 7.58781e-06 -1.24527e-06 -3.16416e-07 
26.982 1 76 33.3234 6.23467 2.42514 1.18565 1.54788 -1.15682 -0.0190635 0.14387 -0.0763682 0.0223646 0.027436 -0.230413 1.89898e-05 0.00434788 -0.080157 1.40057e-06 1.11596e-06 -3.08085e-05 
26.982 1 113 33.3539 8.05156 0.414465 -0.179297 -1.13904 1.36872 -0.07087 0.629795 0.0332594 0.00631718 0.0274234 -0.207752 -0.00098302 0.00768583 -0.0617546 -2.30352e-06 -1.71134e-05 -6.32704e-05 
26.982 1 310 31.0785 10.1903 4.33643 -5.47268 4.69397 -0.8562 -0.0701182 0.391996 -0.0467252 -0.000200158 -0.000502964 -0.0178163 -0.000173112 -9.28136e-05 -0.00698519 -9.84301e-08 8.21155e-06 -4.5926e-06 
26.982 1 116 33.1573 10.1349 2.30061 1.35061 1.16828 -2.84781 -0.0313545 0.247035 0.176746 0.0359847 0.0166429 -0.238094 0.00894994 0.00509469 -0.0787993 -3.35103e-06 5.20471e-06 -1.00517e-05 
26.982 1 110 30.9047 10.3354 0.380738 -3.97027 0.285496 6.57203 0.169122 -0.319751 0.00913567 0.0226737 -0.050681 -0.469664 0.00912894 -0.00949163 -0.133843 -9.05243e-06 3.12324e-06 -5.92561e-05 
26.982 1 115 35.4572 8.49544 2.49274 4.60844 -1.29224 -2.47287 -0.293823 -0.259266 -0.0587659 -0.0490112 -0.0096851 -0.216673 -0.0159315 -0.000913156 -0.0674922 -2.27996e-06 -1.18047e-05 -1.65304e-05 
26.982 1 274 35.4842 6.27282 4.22082 -1.23606 4.86251 -1.50857 -0.327471 0.0902119 0.496981 0.00222722 -0.00190053 -0.0271196 1.71207e-06 -0.000473706 -0.00830351 -4.81987e-06 2.80932e-07 1.71346e-06 
26.982 1 317 37.5344 8.24714 4.41235 -2.42579 -1.74485 -4.8435 0.290794 0.356386 -0.085823 -1.04951e-05 -0.00138873 -0.0175771 0.000326212 -0.000141614 -0.00555559 8.00002e-06 6.40314e-06 -3.44743e-06 
26.982 1 114 35.2823 10.2703 0.395327 0.627456 0.85627 -4.9993 -0.100156 0.150699 -0.0975629 -0.019835 0.0317338 -0.285931 -0.00685188 0.00850675 -0.0841084 2.1517e-06 4.36299e-06 -6.42929e-05 
26.982 1 117 37.4534 8.24551 0.261896 -1.86325 4.01983 -0.689385 0.180542 0.105832 0.139396 0.0140794 0.0222267 -0.475036 0.00768231 0.00650663 -0.14694 1.53825e-05 -1.09509e-05 -5.86502e-05 
26.982 1 80 37.408 6.49678 2.31021 -3.77484 -3.78493 -0.726461 1.19906 -0.346707 0.534776 -0.0106234 -0.090145 -0.235034 0.000693371 -0.0235082 -0.070121 1.23786e-05 -2.4574e-05 -4.38869e-05 
26.982 1 314 35.2335 10.4546 4.50571 0.901582 3.21111 0.471882 0.187651 -0.7881 -0.327089 -0.000646888 0.00142812 -0.0272046 -0.000267624 0.000483665 -0.00859653 2.63801e-06 -1.252e-05 -1.74152e-06 
26.982 1 120 37.4293 10.4992 2.27892 6.25878 0.923684 -6.00504 0.0525365 -1.11275 0.496009 0.0374473 0.0620453 -0.240954 0.0106976 0.0172116 -0.0727125 1.44078e-05 -2.09782e-05 -1.52235e-05 
26.982 1 84 41.8717 10.2895 2.16453 -2.60405 0.774119 -0.0790349 -0.0139128 0.130496 0.765147 -0.209834 -0.0534702 -0.31263 -0.0727827 -0.010837 -0.0903739 2.42397e-06 -2.11113e-05 -3.1019e-05 
26.982 1 44 42.0146 6.31155 2.33622 -0.219294 -2.32054 2.95296 -0.277234 -0.100205 -0.123184 0.00563046 -0.195495 -0.236579 -0.0105484 -0.0531179 -0.071281 6.13765e-06 -3.03487e-05 -4.88546e-05 
26.982 1 119 39.6797 8.4005 2.3552 1.69595 -0.738182 -0.0485728 -0.195074 -0.478113 -0.12373 0.0501 0.0369517 -0.22384 0.0181251 0.00839429 -0.0753283 7.07098e-06 -1.03301e-05 -4.83798e-05 
26.982 1 278 39.7688 6.00308 4.28188 -2.03157 -1.41246 -0.00911675 -0.108015 1.11213 0.571902 0.0781036 -0.079501 -0.0306097 0.0197246 -0.0194266 -0.0101433 1.4425e-05 2.74322e-06 -4.21715e-06 
26.982 1 318 39.733 10.2206 4.30886 3.25372 1.80345 -4.05495 -0.251288 -0.0533193 -0.0739992 0.051448 -0.0418669 -0.0411176 0.0196799 -0.0164907 -0.0130051 9.45209e-06 -1.56888e-05 -9.66061e-06 
26.982 1 123 0.987837 12.3202 2.28287 2.40371 2.62764 3.598 -0.6439 -0.286107 0.0380159 -0.190298 -0.0760724 -0.24902 -0.0586714 -0.0151299 -0.0729214 -4.25658e-05 -9.46901e-06 -6.83799e-06 
26.982 1 282 0.738024 10.1071 4.29092 1.78554 4.09221 1.93421 -0.263695 0.358896 0.0684158 -0.181097 -0.0125642 -0.0778456 -0.0492807 -0.0015551 -0.0216508 -3.13482e-05 1.73846e-05 -1.45025e-05 
26.982 1 322 0.472957 14.137 4.13092 -0.24096 0.646523 -3.29081 0.581934 0.522351 0.476923 -0.118944 -0.050925 -0.0638641 -0.0330137 -0.0116239 -0.0162558 -1.24921e-05 -1.10297e-05 3.23435e-06 
26.982 1 124 -1.63548 14.371 2.22563 1.02918 1.03657 1.09728 0.36603 -0.317767 -0.143279 -0.241352 -0.106286 -0.241507 -0.0934823 -0.0294857 -0.0712978 -4.8504e-05 -2.48116e-05 -3.13253e-05 
26.982 1 325 2.87183 12.1316 4.401 4.22958 -2.2767 0.901147 0.102635 0.132742 -0.14616 -0.0187197 -0.00328296 -0.0226584 -0.00482876 -0.00050724 -0.00610572 -4.69979e-07 3.8364e-06 -4.04359e-06 
26.982 1 122 0.703442 14.3265 0.320736 -0.000964484 -2.24071 -1.96719 -0.00292782 -0.00245056 0.0710207 -0.215188 -0.0365055 -0.268109 -0.0590711 -0.00639604 -0.0813185 -1.81947e-05 1.21121e-05 -5.83426e-05 
26.982 1 128 2.89279 14.2731 2.28761 -1.47362 0.052625 -1.77402 0.0359347 0.111438 0.250103 -0.024701 0.0076289 -0.196521 -0.00872465 0.00873954 -0.0616872 -2.47718e-06 1.80792e-05 -1.64796e-05 
26.982 1 82 0.765578 10.4004 0.366101 2.8979 3.48789 -0.657178 -0.0462738 -0.364221 -0.386084 -0.197975 0.0750723 -0.172832 -0.0637554 0.0157933 -0.0704462 -4.44979e-05 -6.99355e-06 -5.23266e-05 
26.982 1 125 2.92544 12.3718 0.207614 1.5087 -2.07648 -0.745724 -0.0790038 -0.233456 0.325942 -0.0459174 -0.0591079 -0.355645 -0.0141582 -0.00806296 -0.12265 -2.24256e-06 2.01406e-06 -5.97272e-05 
26.982 1 127 5.17704 12.5722 2.31162 -3.29875 -2.1624 -6.17308 -0.447608 -0.966705 0.481828 -0.00582978 0.00334822 -0.175754 0.0059543 0.00143832 -0.0546214 -1.09404e-05 -1.48903e-05 -4.50461e-07 
26.982 1 326 5.05321 14.3208 4.42752 1.46407 -4.07379 8.2096 -0.21631 -0.311359 -0.129691 0.000427895 0.000281883 -0.0189599 0.000122297 -0.000163128 -0.00573984 -5.52617e-06 -6.82493e-06 -2.92284e-06 
26.982 1 126 5.09423 14.2685 0.368665 4.0599 -1.92412 1.78399 -0.0204932 0.595222 -0.444692 0.0329371 0.00148692 -0.315475 0.00919975 0.000699263 -0.103208 -8.05725e-06 2.06438e-05 -6.84672e-05 
26.982 1 132 7.18917 14.3747 2.4055 0.717695 -3.03003 -1.66279 0.314187 -0.26725 0.0897867 0.0129897 0.0224258 -0.205045 0.00490987 -0.00221607 -0.0648456 2.02101e-05 -4.2257e-06 -1.97372e-05 
26.982 1 329 7.23983 12.214 4.40172 1.28753 4.00835 1.26976 0.286433 0.363832 0.00514292 0.000759321 -1.76972e-05 -0.0191616 0.00050446 -5.04914e-05 -0.00723545 5.95928e-06 2.91187e-06 7.18071e-07 
26.982 1 129 7.26565 12.2635 0.380935 1.01207 -1.78438 -1.16637 0.181213 0.4703 -0.067572 0.0264034 0.000197001 -0.378437 0.00592277 0.00465534 -0.0907175 1.56405e-05 1.8504e-05 -6.43508e-05 
26.982 1 86 4.98087 10.4433 0.342292 -1.05443 4.99327 -4.18509 0.170142 -0.141029 0.159927 -0.0118667 -0.0300301 -0.335038 0.00276095 -0.00371919 -0.110902 -4.57886e-07 -4.58329e-06 -5.70913e-05 
26.982 1 131 9.45226 12.2463 2.40384 -0.567279 3.40927 -0.22268 -0.321948 0.52031 -0.277418 0.0267768 -0.00975025 -0.227455 0.00880748 -0.00354434 -0.0806041 -3.87942e-06 2.15788e-05 -2.56513e-05 
26.982 1 330 9.31697 14.404 4.31496 0.812882 -3.29729 -1.19006 0.00956035 -0.865888 0.486699 0.000505645 0.000940113 -0.024581 0.00045599 -0.000239233 -0.00828843 -1.00605e-06 -1.53997e-05 2.23932e-06 
26.982 1 333 11.5167 12.2816 4.27247 -0.341633 -2.30883 -2.68495 0.470462 0.568782 0.334793 0.00135884 -0.000655824 -0.0285935 0.000114047 -9.44129e-05 -0.0104543 7.74395e-06 8.72449e-06 5.24516e-06 
26.982 1 90 9.41661 10.3184 0.330699 -0.836275 -0.362655 -4.01138 0.0143305 0.314913 0.469549 0.0134925 -0.0146314 -0.229109 0.00676691 0.00196897 -0.0698265 1.73108e-05 -1.27957e-05 -6.19178e-05 
26.982 1 294 13.9285 10.4757 4.39667 -0.155955 -3.26045 -4.75632 -0.618604 -0.621488 -0.273061 0.000394228 0.00353888 -0.0314626 0.000318587 0.000960045 -0.00984034 -1.2029e-05 -8.80518e-06 -8.44228e-06 
26.982 1 96 11.4748 10.4258 2.25013 -1.15425 3.51134 -1.6107 0.353647 -0.132194 0.311 0.00186821 -0.0231176 -0.286503 -0.00119605 0.00641921 -0.0868094 1.92736e-05 -2.30474e-05 -3.34024e-05 
26.982 1 136 11.4205 14.5943 2.30779 0.304617 -1.62989 5.71485 0.575644 -0.806095 0.268934 -0.00303746 0.000650071 -0.24353 -0.00299474 -0.00480713 -0.0810946 -1.13702e-05 -1.66101e-05 -2.11974e-05 
26.982 1 135 13.521 12.3831 2.28215 -2.39069 4.4331 -0.55909 0.328842 0.102036 0.477906 0.0267536 -0.0174661 -0.271842 0.0024072 -0.00587402 -0.0854331 7.11639e-06 -1.72423e-05 -1.98382e-05 
26.982 1 334 13.6886 14.2392 4.38556 -1.10808 2.30647 1.00398 0.0574501 -0.184845 0.0676739 0.000123071 -0.00153378 -0.0264361 -0.000166558 -0.000717001 -0.00824999 1.12615e-06 -5.61541e-06 4.25638e-06 