ITEM: TIMESTEP
1000
ITEM: NUMBER OF ATOMS
4000
ITEM: BOX BOUNDS pp pp pp
-0.277438 40.7774
0.000817676 40.4992
-0.00890966 40.5089
ITEM: ATOMS mass type id x y z vx vy vz fx fy fz xrad yrad zrad vxrad vyrad vzrad fxrad fyrad fzrad 
26.982 1 811 9.96545 0.159496 18.2523 0.0364583 0.207108 -2.67309 -0.181996 -0.72821 -0.328136 -0.000213264 0.00281302 -0.00733824 -0.000486825 0.00563644 -0.0146688 -1.67375e-05 -6.67857e-05 -1.19526e-05 
26.982 1 3 1.66644 0.217642 1.87845 3.14082 -2.91339 -1.80699 0.246687 -0.206096 0.383278 -0.00259946 -0.00827125 -0.00135198 -0.00525089 -0.0165378 -0.00269097 -3.11496e-05 -3.39457e-05 -1.15007e-05 
26.982 1 8 3.86717 2.15598 1.91096 -3.25295 0.358288 -0.48543 -0.30344 -0.554459 0.607976 0.00162511 -0.0060795 -0.00371918 0.00313006 -0.0121068 -0.00746632 6.06632e-06 -3.51128e-05 -1.17037e-05 
26.982 1 807 5.85843 0.0584712 18.114 3.75056 -2.95419 -0.490909 -0.0592561 -0.529539 0.708808 -0.00035575 0.00269282 -0.00728765 -0.000542389 0.00524983 -0.0145965 4.21525e-06 -7.01123e-05 6.94778e-06 
26.982 1 43 1.53931 3.87594 1.86893 3.56138 7.37609 -1.4903 0.603872 0.526902 0.342896 -0.000994547 -0.00294989 -0.0035953 -0.00191363 -0.00589783 -0.0071919 -2.89718e-05 -1.33991e-05 -4.00551e-05 
26.982 1 202 1.82502 1.87458 4.04356 -1.52254 4.98581 -0.0192875 -0.162938 0.932874 -0.423833 -0.00300442 -0.00581162 -0.00310237 -0.00591556 -0.0115281 -0.00620163 -1.43738e-05 -2.03601e-05 -2.02185e-05 
26.982 1 241 -0.207282 4.14601 3.9724 0.714128 -1.33186 -3.80769 -0.361766 -0.0894208 -0.172076 -0.00544907 -0.00558701 -0.00519792 -0.0107475 -0.0111156 -0.0102822 -3.19737e-05 -2.90976e-05 -3.18515e-05 
26.982 1 245 3.77053 4.26204 3.97766 -1.75686 -2.10187 -2.03001 -0.0504499 -0.869296 -0.112712 -6.99459e-05 -0.000924102 -0.000798624 -0.00020268 -0.00184023 -0.00166247 -5.18189e-06 -1.6095e-05 -6.1471e-06 
26.982 1 2825 24.3331 20.1671 16.2411 2.0225 -1.26923 -0.561155 -0.110339 -0.0750335 -0.0115141 -0.00303843 -0.00612221 -0.00803567 -0.00607288 -0.0122151 -0.0160451 -1.08912e-05 3.79318e-05 -2.29578e-05 
26.982 1 2819 18.1077 20.1399 18.1139 1.01488 2.16268 3.68171 0.0766906 0.0740823 0.227474 -0.00267456 -0.00862972 -0.00524227 -0.00538115 -0.0173107 -0.0103932 -2.51478e-05 2.74101e-05 -1.98294e-05 
26.982 1 12 7.83093 2.00503 2.02216 -1.55902 3.97932 1.98702 0.20885 0.438192 0.28676 -0.000405237 -0.00605364 -0.00145537 -0.00086073 -0.012112 -0.00288701 -1.29354e-05 -3.95419e-05 -2.9988e-05 
26.982 1 47 5.85477 3.99374 1.98969 0.129658 1.34346 3.77119 -0.00085521 0.317202 -0.0996196 -0.00249184 -0.00101367 -0.00361739 -0.00492333 -0.00195199 -0.00721394 1.35573e-06 -1.28027e-05 -2.75052e-05 
26.982 1 49 8.01324 4.09971 0.0290416 -1.80974 2.82131 4.65373 -0.114079 0.0889264 0.11014 -0.000503207 -0.00047228 -0.0110926 -0.000854514 -0.000725198 -0.0221974 -1.74687e-06 1.85114e-06 -6.17558e-05 
26.982 1 206 5.7031 2.06929 4.07709 1.21406 -3.04115 0.344237 0.276184 0.126439 -0.120397 -0.00236493 -0.00585656 -0.00291594 -0.0046477 -0.0116856 -0.00582341 -7.50392e-06 -3.39649e-05 -1.98756e-05 
26.982 1 209 7.92376 0.0192282 4.05252 -2.9437 1.63654 -5.21045 -0.184793 -0.0530371 0.26413 -0.00067506 -0.00815261 -0.0077265 -0.00118236 -0.0162956 -0.0154483 -7.31988e-06 -4.89165e-05 -4.38553e-05 
26.982 1 249 7.52577 4.23066 4.15358 1.01265 -2.64017 1.50337 1.38906 -0.917883 -0.35135 -9.22528e-05 -0.000360539 -0.000138193 -0.000164984 -0.000661935 -0.000311293 2.11355e-05 -1.46288e-05 -8.49591e-06 
26.982 1 10 9.87637 2.08677 0.082808 -0.291447 2.19788 -2.10136 0.657539 0.18604 0.167941 0.00295663 -0.00580585 -0.0086228 0.00586324 -0.0116557 -0.0172122 -5.73544e-06 -3.2014e-05 -4.74473e-05 
26.982 1 16 11.9636 1.96487 2.03412 -6.26511 -4.302 2.58273 0.0427045 0.489614 -0.0138171 0.0027203 -0.00834134 -0.00599468 0.00540027 -0.0167124 -0.0119459 1.17309e-05 -3.82036e-05 -6.98714e-06 
26.982 1 51 10.0152 4.14644 2.15419 2.8645 3.48852 5.15146 -0.31121 -0.267134 -0.0916626 0.000265168 -0.000798675 -0.00161265 0.00052689 -0.00146457 -0.0031607 -4.83199e-06 3.60015e-06 -1.77645e-05 
26.982 1 53 12.0301 4.11364 0.0651812 0.397315 1.19837 0.916027 0.128575 -0.284321 -0.224219 0.00232634 -0.00283282 -0.0110849 0.00473996 -0.00548898 -0.0222225 -1.88917e-06 1.09186e-07 -6.18266e-05 
26.982 1 210 9.86657 1.85939 3.90797 -2.67595 0.617256 6.59032 0.279264 0.707434 0.295542 0.000172282 -0.00348979 -0.00284613 0.000302157 -0.00703442 -0.00549209 1.72391e-05 -2.30974e-05 -1.65378e-05 
26.982 1 1197 36.8971 16.2941 20.2142 0.686207 -4.70707 -0.566217 -0.449622 0.00401696 0.0944259 -0.00235576 -0.000456246 0.00256192 -0.00463117 -0.000854014 0.00498764 -3.44129e-05 -1.37282e-05 1.36768e-05 
26.982 1 253 11.9622 4.09723 4.07724 -0.526113 0.198803 0.742871 0.234014 -0.250976 -0.123925 0.000100139 -0.00048062 -0.000303099 0.00016886 -0.000944978 -0.000561416 2.87722e-06 -1.10439e-05 -3.86158e-06 
26.982 1 20 16.0956 2.06215 2.01088 -3.30193 -0.282043 0.792685 -0.0854653 -0.235999 0.0701792 -0.00471388 -0.00833042 -0.00373556 -0.00935152 -0.016697 -0.00736058 -1.24583e-05 -4.58935e-05 -4.71072e-06 
26.982 1 55 14.1553 4.01995 1.93945 1.62227 2.24887 1.10154 -0.30863 0.0248058 0.147989 4.8444e-05 -0.00340898 -0.00376742 -7.62434e-06 -0.00666084 -0.00753919 -9.55505e-06 -1.93707e-05 -1.89397e-05 
26.982 1 57 16.1789 4.0659 0.00261437 -1.02614 -0.736211 1.18902 0.0265596 -0.145568 0.305423 -0.00239159 -0.00308308 -0.0110801 -0.00474275 -0.00606083 -0.0222189 -1.37726e-05 -1.38834e-05 -6.33244e-05 
26.982 1 214 13.9377 2.00876 4.00362 -7.00978 2.73802 2.3613 0.126291 0.442465 0.294832 0.00210712 -0.00595049 -0.00359027 0.00420464 -0.0119332 -0.00708905 4.92712e-07 -4.03123e-05 -1.30778e-05 
26.982 1 257 16.1125 4.0267 4.01551 -1.47172 -1.80031 0.865922 0.205947 -0.139691 0.159036 -0.00011844 -0.000981997 -0.000249964 -0.000238478 -0.00185075 -0.000494612 1.20144e-06 -9.21192e-06 2.37176e-06 
26.982 1 218 18.116 2.06717 3.94087 -4.43013 6.37988 -5.02289 -0.166098 -0.298615 0.532847 -0.000102949 -0.00573989 -0.000467918 -0.000266573 -0.0114524 -0.0010211 -1.40275e-05 -3.52012e-05 -5.39419e-06 
26.982 1 18 18.0522 2.00097 -0.00743618 2.61211 -2.38941 -2.7029 0.272243 -0.142754 0.285524 -0.00299256 -0.00368406 -0.0106219 -0.00584482 -0.00730708 -0.0212529 1.16193e-05 -3.41637e-05 -4.66399e-05 
26.982 1 819 18.3035 0.0315739 18.3577 -5.98032 -0.582392 1.44484 -0.334966 -0.233035 -0.655125 0.00204258 0.00279721 -0.00555427 0.0039885 0.00557294 -0.0112378 -3.29858e-05 -6.40136e-05 -5.06552e-06 
26.982 1 2813 12.0688 20.1848 16.1019 3.79432 -0.483942 4.03762 -0.581782 0.630832 -0.0643976 -0.000785886 -0.00353293 -0.00284284 -0.00148628 -0.00711379 -0.00575165 -2.52881e-05 3.42655e-05 -2.14856e-05 
26.982 1 22 22.2917 2.18259 0.120817 -3.84829 7.15898 2.10883 -0.0958079 -0.509749 -0.664478 3.04332e-06 -0.00336151 -0.00845604 -0.000140638 -0.00672375 -0.0169612 -9.86877e-06 -2.07149e-05 -6.53405e-05 
26.982 1 24 20.0801 1.9768 2.12146 1.50723 -2.33128 -2.5831 0.431708 -0.0409419 -0.539881 0.00204411 -0.00591342 0.00108026 0.00409552 -0.0118517 0.00200525 -7.58954e-06 -3.45221e-05 -2.8818e-05 
26.982 1 59 18.2466 4.13219 2.13222 1.59143 -1.14716 1.43995 -0.147476 -0.331979 0.135463 -8.93776e-05 -0.000474157 -0.00146267 -0.000194334 -0.000898083 -0.00290429 -3.17379e-06 -6.97045e-06 -4.74009e-06 
26.982 1 61 20.1469 3.94046 0.0597749 0.19713 -0.361842 -2.79838 0.495121 -0.0404369 -0.128359 -2.31799e-05 0.000385811 -0.0110868 1.67811e-05 0.000856412 -0.0222207 1.54674e-05 4.47479e-06 -6.31536e-05 
26.982 1 63 22.3905 4.01509 2.0003 3.80676 -0.459806 0.950541 -0.188185 0.177993 0.172562 -1.82562e-05 -0.000552055 -0.00144501 -4.73451e-05 -0.00105163 -0.0029131 -2.18182e-06 8.6944e-06 -1.97182e-05 
26.982 1 222 22.2374 1.986 4.04511 -0.814497 2.83825 -1.37149 0.453367 -0.0776454 -0.0147174 -0.00228306 -0.00573058 -0.00253616 -0.00463867 -0.0114271 -0.00506938 7.24188e-06 -9.52966e-06 -1.23777e-06 
26.982 1 261 20.424 4.05141 3.99174 -3.91616 -0.0340505 0.296508 -0.62783 -0.0342442 0.295315 6.05296e-05 -0.000816244 -0.000143987 -2.74054e-08 -0.00158313 -0.000279377 -1.02843e-05 -1.84449e-06 4.06592e-06 
26.982 1 25 24.4128 0.0136301 0.0685639 1.456 -6.28989 4.28606 -0.0281744 0.192428 -0.154106 -0.00172103 -0.00828999 -0.0058213 -0.00339371 -0.0166037 -0.0117155 8.70568e-06 -3.4535e-05 -4.99033e-05 
26.982 1 635 34.6523 0.140038 14.2533 -3.24275 -1.45417 -1.33134 -0.400839 -0.256365 -0.060598 3.37307e-05 0.00293253 -0.00827105 2.67959e-05 0.0057375 -0.0165066 1.96326e-05 -6.24079e-05 -1.17131e-05 
26.982 1 27 26.4831 0.0349217 1.96404 0.271945 1.38436 -1.77752 -0.270697 -0.269269 0.0519793 0.0045574 -0.0108449 -0.00133089 0.00922485 -0.0216044 -0.00271393 2.33793e-05 -5.01123e-05 -1.83666e-05 
26.982 1 28 24.3824 1.99557 1.9129 -0.352808 -0.109132 3.76691 0.102433 0.226186 0.43561 -0.00229454 -0.00377022 -0.00122949 -0.0044451 -0.00745928 -0.00243212 1.67508e-05 -3.97662e-06 -1.64305e-05 
26.982 1 65 24.4205 4.18073 0.03335 -4.37233 3.73782 1.76107 -0.203114 -0.280827 -0.27576 -9.28824e-06 0.000435888 -0.011074 -7.6116e-05 0.0010114 -0.0221638 1.39234e-05 8.83046e-06 -6.86368e-05 
26.982 1 67 26.2748 4.18353 2.0726 -4.15702 4.23905 -3.03545 0.498054 -0.297657 -0.126358 9.28672e-05 -8.23144e-05 -0.00151315 0.000194683 -0.000219106 -0.00307732 1.28705e-05 -4.38556e-06 -3.59074e-05 
26.982 1 225 24.3681 0.0766023 4.02279 1.31931 0.550109 4.78648 -0.189008 -0.15729 -0.10197 -0.00229875 -0.00826078 -0.00525246 -0.00454735 -0.016597 -0.0103878 4.49322e-07 -4.78904e-05 -1.69976e-05 
26.982 1 226 26.3836 2.01786 4.03933 -2.61086 0.411437 0.618089 -0.0864311 0.175326 -0.155022 0.00235304 -0.00366613 -0.000486388 0.00474091 -0.00732946 -0.000900038 1.33825e-05 -1.59937e-05 -8.61505e-06 
26.982 1 265 24.379 4.11911 4.01451 -1.22113 -1.50751 1.13918 -0.0115014 -0.0914181 -0.0708237 -0.000109908 -0.000305333 -0.000201918 -0.000209749 -0.000570588 -0.000318419 2.12898e-06 -2.20688e-06 -2.41818e-06 
26.982 1 30 30.5681 2.14083 -0.00838409 1.41288 0.154376 0.1503 0.000111301 -0.415997 -0.0806685 0.000703759 -0.00797658 -0.00843891 0.00138838 -0.0160509 -0.0167927 -4.60356e-06 -3.58336e-05 -5.67952e-05 
26.982 1 32 28.358 1.96117 2.00836 -4.67235 -2.2264 -2.28972 0.437937 0.580492 -0.0274692 0.00264519 -0.00837437 -0.00133006 0.00516025 -0.0168965 -0.00277326 -6.01027e-06 -2.02535e-05 -2.30284e-05 
26.982 1 69 28.6905 4.1416 -0.000289174 -3.20122 -1.49454 -2.30825 -0.97941 -0.262557 -0.0205202 0.000289886 -0.000199945 -0.0110808 0.00041274 -0.000362384 -0.0221629 -3.65429e-05 -3.14492e-06 -5.74456e-05 
26.982 1 71 30.5052 4.14551 2.0471 -1.48772 4.08167 -1.42698 -0.0744238 -0.140947 0.25608 0.000403602 -0.000880471 -0.00166001 0.000722383 -0.0017807 -0.00333376 -5.44269e-06 -5.0884e-06 -2.69447e-06 
26.982 1 230 30.441 2.18251 3.98273 0.828612 -1.59981 -1.49806 -0.130884 -0.163569 0.208763 5.15652e-05 -0.00815631 -0.00290794 0.000241868 -0.0162861 -0.00578579 -1.39394e-05 -1.63295e-05 5.69526e-07 
26.982 1 269 28.315 4.23436 4.16086 -7.26631 -1.01023 0.357667 0.27263 -0.430689 -0.493926 0.000174533 -0.000854061 -0.000168899 0.000165914 -0.00166154 -0.000237032 3.8996e-06 -9.97505e-06 -1.10512e-05 
26.982 1 35 34.5226 0.0583326 2.02854 2.22937 2.47887 6.66607 0.403081 -0.289592 -0.0081243 -0.00214571 -0.00825829 -0.00610413 -0.00424508 -0.0165675 -0.0121683 1.90068e-05 -6.69258e-05 -2.44975e-05 
26.982 1 36 32.5692 1.96757 2.07616 -1.75648 -1.3454 -3.80656 -0.16928 0.718802 -0.271267 5.74072e-05 -0.00823733 -0.00388375 1.96495e-05 -0.0165451 -0.00777989 -3.23715e-06 -8.96166e-06 -2.47524e-05 
26.982 1 73 32.5067 4.15196 0.0327528 -4.23133 -1.98311 -3.59065 0.0473001 -0.38271 0.140031 0.00502345 -0.000217113 -0.0109911 0.00992877 -0.000496942 -0.0221168 5.07137e-06 -5.76765e-06 -5.94762e-05 
26.982 1 75 34.6293 4.09937 2.07894 1.6181 3.07713 3.07209 -0.144351 -0.310251 -0.197197 0.00233733 -0.000472052 -0.00845691 0.0047443 -0.000856224 -0.0168726 1.05558e-05 -7.01328e-06 -2.11666e-05 
26.982 1 234 34.594 2.00812 4.0366 -0.842069 4.41772 -0.0354647 -0.17615 0.038788 -0.00694784 -0.00219249 -0.00346678 -0.00147997 -0.00442198 -0.00686579 -0.00286559 8.47428e-06 -1.42583e-05 -1.86765e-06 
26.982 1 273 32.5526 4.10318 4.08019 3.47517 1.94797 0.500904 -0.213456 -0.0516771 0.00624687 0.000135111 -0.000813167 -0.000492947 0.000279241 -0.00163894 -0.000963403 -4.94738e-06 -1.32831e-06 1.78244e-06 
26.982 1 4 40.5897 2.10953 1.92413 -1.61453 7.20313 -3.9039 0.105844 -0.234687 0.201841 -0.00456386 -0.00820735 -0.00383837 -0.00909955 -0.0163983 -0.00760897 -1.64176e-05 -1.06606e-05 -4.02568e-05 
26.982 1 40 36.4985 1.95415 1.98137 5.35691 2.72796 3.626 0.517558 0.294404 0.136932 0.00221493 -0.00366187 -0.0107135 0.00452271 -0.00728921 -0.0214254 3.64072e-05 -2.83272e-05 -3.36389e-05 
26.982 1 79 38.7012 4.09581 1.93875 1.23305 0.85834 0.0138058 -0.158087 -0.0691034 0.0418252 -0.0025473 -0.00335993 -0.00610628 -0.00494229 -0.00663262 -0.0122679 -4.33042e-06 -6.71669e-06 -5.70899e-05 
26.982 1 961 -0.200244 16.3043 16.3339 -0.459905 -0.273306 0.0636912 -0.0151193 0.0540788 -0.460641 0.000293643 -0.000303834 -0.000445391 0.000537678 -0.000537874 -0.000811088 -2.89799e-05 -1.55935e-05 -2.32729e-05 
26.982 1 238 38.674 2.01387 4.00505 -0.0857176 1.06259 3.74008 0.073613 0.0251823 -0.136538 0.00219802 -0.00571333 -0.00353729 0.00439768 -0.0113771 -0.00717953 -1.05416e-05 -2.82721e-05 -2.12726e-05 
26.982 1 277 36.7986 3.91029 4.05854 -2.58865 7.86888 0.416127 -0.507732 0.532392 -0.177717 -2.41653e-05 -0.00019244 -0.00117198 -4.64109e-05 -0.000392621 -0.00236604 -3.55204e-06 3.29495e-06 -5.48012e-06 
26.982 1 631 30.5745 0.0459911 14.1037 -2.07091 -1.61353 -2.21899 -0.0952418 0.0438561 0.592444 0.00233717 0.00297806 -0.00596245 0.0045763 0.00580746 -0.0118305 -1.71992e-05 -6.57043e-05 -8.34522e-06 
26.982 1 48 3.78096 6.06514 2.01965 -5.9738 -1.46643 6.43318 -0.0579152 0.219528 -0.45588 -0.000828422 -0.00213781 -0.00369838 -0.00178 -0.00429449 -0.00736841 -1.65302e-05 1.24349e-05 -3.98791e-05 
26.982 1 627 26.3332 0.0729348 14.2932 1.68924 1.91324 -1.89356 0.164319 0.177556 -0.0354962 -0.00234977 0.00297706 -0.0059623 -0.00457501 0.00586377 -0.0117827 2.69168e-06 -5.9995e-05 -2.9602e-05 
26.982 1 83 1.83179 8.14842 1.91326 1.1157 -1.16225 -1.4709 -0.213475 0.00793322 -0.243588 -0.00555336 2.83502e-05 -0.00148964 -0.0110358 -1.31478e-05 -0.00311349 -3.13588e-05 -9.18915e-06 -5.11391e-05 
26.982 1 403 1.50114 0.0213302 9.97216 -3.01704 -4.73314 0.154698 0.535833 -0.238615 0.100141 -0.00758915 0.000155386 -0.00302622 -0.015094 0.000257807 -0.00623836 -3.45492e-05 -4.58672e-05 7.82798e-06 
26.982 1 242 1.7147 6.28048 3.85039 -8.18554 -6.18649 0.812066 -0.0844041 -0.433388 0.190109 -0.00554244 0.00211425 -0.0027379 -0.0111913 0.00401632 -0.00547346 -3.6364e-05 8.44156e-06 -1.88498e-05 
26.982 1 285 3.87105 8.24611 3.99029 0.325671 -7.6416 -0.734859 -0.175832 -0.385252 -0.152234 -0.000886784 4.09131e-05 -0.000314193 -0.00169896 -3.35929e-05 -0.000698175 -6.95168e-06 -6.00504e-06 -9.0475e-06 
26.982 1 46 5.92274 6.13153 0.180072 -0.976444 1.52152 -4.22243 -0.208168 -0.240165 -0.541429 -0.0023353 -0.00162408 -0.0111778 -0.00467612 -0.00316175 -0.0224181 -4.37799e-06 1.88063e-05 -6.60412e-05 
26.982 1 52 7.96391 6.04325 2.01837 -1.33267 -1.60291 -0.183241 0.125247 0.160643 -0.000235847 4.45696e-05 0.00036319 -0.00166474 2.08563e-05 0.000583597 -0.00325027 1.43299e-05 1.34107e-05 -3.31611e-05 
26.982 1 87 5.88665 8.16843 2.09645 -0.0274256 1.48585 2.6647 -0.111772 -0.156323 -0.361024 -0.000138103 0.00229612 -0.00391398 -0.000245966 0.00464809 -0.00772521 -4.1404e-06 -2.9634e-06 -3.83418e-05 
26.982 1 603 1.64085 0.0517553 14.1555 1.45399 -3.89036 1.87847 0.313966 -0.701397 0.158119 -0.00809557 0.000210575 -0.00308731 -0.0161478 0.000264807 -0.00611411 -1.97249e-05 -5.20887e-05 -3.63593e-06 
26.982 1 246 5.83395 6.11269 4.09958 -2.857 -3.86897 -0.446825 -0.399516 0.497435 -0.128541 -6.2414e-05 -3.01377e-05 -0.000180521 -0.000155085 -0.000172816 -0.000368876 -3.41013e-06 6.2084e-06 -3.13737e-06 
26.982 1 289 7.83842 8.0068 3.96916 0.0798015 -0.983858 3.41448 0.202931 0.115573 0.307919 -1.04707e-05 0.000118153 -0.000402553 9.946e-05 0.000220914 -0.000731848 3.02341e-06 8.41913e-07 -2.04631e-06 
26.982 1 92 7.91724 10.0553 2.15945 3.03474 0.51027 -0.841782 0.206157 0.201079 -0.531752 0.000203291 -1.25975e-05 -0.00606521 0.000461189 -6.17805e-05 -0.0120833 2.49767e-06 -7.76725e-06 -2.8965e-05 
26.982 1 286 5.97816 10.2644 4.02989 -2.57464 0.878081 -0.56887 -0.502865 -0.485743 0.0122187 -7.00879e-05 8.76165e-05 -0.000724157 -0.000106075 9.26124e-05 -0.00145003 -5.60927e-06 -4.36785e-06 -2.1624e-06 
26.982 1 1021 20.2458 0.0762329 20.1722 -3.93422 2.939 -1.36149 -0.105804 -0.109821 0.616433 -0.000126082 0.000109877 -0.000849045 -0.000290051 0.000234181 -0.00167667 8.50613e-06 -6.33665e-05 1.88514e-05 
26.982 1 56 12.1384 6.10269 1.99848 2.5405 2.27608 2.22223 -0.0704622 -0.386958 -0.0272025 2.43333e-05 0.00256621 -0.00399884 2.23764e-05 0.00519472 -0.00788451 -1.62751e-05 5.14664e-06 -3.55501e-05 
26.982 1 91 10.1067 8.13218 1.80826 0.554444 -6.32084 -5.07013 -0.476171 -0.361179 0.513739 0.00223917 0.00258702 -0.00627688 0.00462042 0.00509154 -0.0124323 -5.9555e-06 -2.1952e-05 -4.48175e-05 
26.982 1 250 9.89574 6.20556 4.11152 -0.541578 8.77488 -0.517008 0.100627 -0.694737 -0.36056 0.000157029 8.60403e-06 -0.000127573 0.000246961 0.000253039 -0.000231111 1.34227e-06 -9.50739e-06 -9.3376e-06 
26.982 1 293 12.067 7.75904 4.04935 -2.27978 0.247203 -0.109815 0.0292494 0.70915 0.357098 -1.62511e-05 0.000133117 -0.000806098 -0.000151609 0.000269088 -0.00171214 -2.67051e-06 7.98559e-06 2.52126e-06 
26.982 1 54 14.2667 6.15058 0.0608181 6.52948 -1.65014 -6.03226 -0.331233 -0.101745 -0.245157 -0.0022351 0.0023395 -0.0112915 -0.00448264 0.00475193 -0.0225158 -2.13113e-05 6.75847e-06 -6.68648e-05 
26.982 1 60 16.1914 6.1386 2.00678 -3.07309 -1.83591 5.41592 0.166427 -0.239644 0.26316 -4.62057e-05 0.000298319 -0.00177238 -6.3703e-05 0.000629769 -0.00343777 1.99978e-06 -3.29607e-06 -4.80024e-06 
26.982 1 95 14.0498 8.10475 2.12115 2.21657 -3.24297 -2.82048 0.410808 0.178019 -0.0816126 -0.00216609 0.00277878 -0.00631741 -0.00436059 0.00542821 -0.0125636 -8.53507e-06 5.9783e-06 -2.33086e-05 
26.982 1 97 16.1756 8.16662 0.146029 1.0361 -0.692503 3.04198 0.215958 -0.00930325 -0.45874 -0.000138263 0.00526009 -0.0111449 -8.2299e-05 0.0105586 -0.0222182 2.75711e-06 -1.61981e-07 -6.71176e-05 
26.982 1 254 14.2793 5.99733 3.97781 1.72327 -6.0693 0.477481 -0.392613 0.0568143 0.0384507 3.61311e-05 -1.91997e-05 -0.000191722 1.58368e-06 -6.1048e-05 -0.000403141 -5.40257e-06 -2.95468e-06 -1.37865e-06 
26.982 1 297 16.2617 8.09281 4.07474 0.695872 -3.23092 -1.58873 0.419785 -0.198484 -0.374914 1.40102e-05 0.000264525 -0.000454502 4.80902e-05 0.000337889 -0.000932658 8.06989e-06 -4.21302e-06 -7.29371e-06 
26.982 1 58 18.2631 5.85744 0.162648 0.744775 -2.19882 -1.19742 -0.0624266 1.08277 -0.412165 0.00223874 0.00277927 -0.011229 0.00464146 0.00576542 -0.0223883 6.08592e-06 1.73587e-05 -6.57002e-05 
26.982 1 2639 38.6767 20.1749 14.0987 3.75021 -5.01843 -0.73636 0.314516 0.617066 0.434915 0.00419278 -0.00611014 -0.00532993 0.00836026 -0.0121585 -0.0106134 1.32981e-05 2.57418e-05 -2.20899e-05 
26.982 1 64 20.4244 6.02103 2.05376 -1.32628 1.59704 -4.20077 -0.548537 0.155456 -0.243703 0.000108516 0.00263961 -0.00379696 0.000180994 0.00533098 -0.00777711 3.70159e-06 5.61338e-06 -3.01251e-05 
26.982 1 99 18.1699 8.11295 2.05864 0.863417 -0.293717 1.86495 0.49647 -0.145145 0.205331 0.00228908 0.00283484 -0.00616637 0.00450782 0.00560897 -0.0124424 1.20983e-05 -3.67219e-06 -7.19346e-06 
26.982 1 103 22.3124 8.02784 2.09698 4.4635 3.5937 -0.103867 -0.280141 0.896434 -0.423933 -7.93845e-05 0.00277465 -0.00853501 -0.000195833 0.00560965 -0.0170825 -3.69867e-06 1.63961e-05 -3.97545e-05 
26.982 1 258 18.3004 6.07161 4.15395 -6.26015 -0.15885 -0.0835781 -0.0947273 -0.0631174 -0.278954 0.000112158 0.00018474 -0.000149755 0.000108985 0.000337148 -0.000348209 -7.44897e-07 -1.35788e-06 -6.30584e-06 
26.982 1 262 22.2992 6.1043 4.0375 -4.492 3.59337 -1.28265 0.20939 -0.174951 0.272755 -5.41044e-05 0.000277873 -0.000354117 -0.000173371 0.000564104 -0.000689334 3.91619e-06 -2.02856e-06 2.62013e-06 
26.982 1 301 20.3055 8.00188 4.06586 -0.176189 -0.512109 -1.81133 -0.25933 0.404085 0.153929 9.21337e-05 0.000129573 -0.000940974 0.000133929 0.000322705 -0.00198778 -4.82519e-06 7.96189e-06 -9.05503e-07 
26.982 1 298 18.2395 10.1822 4.20057 0.0391482 -0.886106 -1.94802 0.195259 -0.368264 -0.421678 0.000129321 3.05537e-05 -0.00116127 0.000244982 0.000121027 -0.00232842 6.05412e-06 -5.93413e-06 -7.21257e-06 
26.982 1 2637 36.7753 20.2211 12.136 -8.01527 -2.86044 3.5315 -0.626715 0.454539 0.206539 -0.00237333 -0.00829739 -0.00585596 -0.00474149 -0.0165913 -0.0117671 -2.39149e-05 3.27543e-05 -4.15402e-05 
26.982 1 68 24.1901 6.15395 1.93375 -2.14837 -0.184494 -1.00163 0.564078 -0.212562 0.396052 -0.000123787 0.00262409 -0.00387539 -0.000233981 0.00526429 -0.00786997 9.55312e-06 -1.08957e-06 -2.91644e-05 
26.982 1 107 26.4088 8.14566 2.11153 1.57902 -3.27005 3.86653 -0.227873 -0.00663162 -0.252247 -0.000162228 0.000325434 -0.0062156 -0.000348669 0.000493186 -0.0124358 5.92015e-06 -1.31074e-05 -3.56035e-05 
26.982 1 266 26.3921 6.24945 4.07429 -5.15722 -1.70751 0.312737 -0.404687 -0.0149733 0.308855 -3.4479e-06 0.000207785 -0.000285751 -4.32167e-05 0.000310785 -0.000529071 -7.8086e-06 6.13535e-07 2.0675e-06 
26.982 1 305 24.1826 8.16375 4.02644 6.69896 -2.84637 6.35764 0.806442 -0.229766 0.273565 -0.000154188 9.38652e-05 -0.000939603 -0.000204836 0.000264343 -0.0017651 1.19585e-05 -1.24643e-06 1.07544e-06 
26.982 1 106 26.4515 10.2008 0.068596 3.88 -1.27173 2.72422 -0.380287 -0.141466 -0.292017 -0.00295303 -0.00162798 -0.0111305 -0.00587523 -0.00328281 -0.0224151 -6.71849e-06 -7.32353e-06 -6.95753e-05 
26.982 1 108 24.4924 10.1878 2.02645 -0.570407 -1.16508 -0.963916 -0.564121 -0.28309 0.142889 -0.00241962 0.000196423 -0.00871719 -0.00505413 0.000390092 -0.0173784 -2.22464e-05 7.41162e-06 -3.23021e-05 
26.982 1 306 26.4788 10.0173 4.15043 -2.52078 1.37824 3.06519 -0.27075 0.130327 -0.169887 -4.44198e-06 -2.87273e-05 -0.000553766 -0.000127204 -3.7552e-05 -0.000983862 -4.44205e-06 -5.8465e-07 -2.09102e-06 
26.982 1 70 30.4628 6.14613 0.135443 4.77057 3.20627 -1.54974 0.00975401 0.317434 -0.119503 0.000784744 0.00461889 -0.0111918 0.00143293 0.00924974 -0.022417 -1.18963e-05 1.76748e-05 -6.21079e-05 
26.982 1 72 28.2874 6.1606 2.09164 2.28948 0.744832 0.762932 0.522498 -0.130193 -0.251681 6.75257e-05 0.00248123 -0.00375109 0.00011573 0.00493724 -0.00758724 -6.39744e-06 6.19177e-06 -3.81376e-05 
26.982 1 111 30.4376 8.22748 1.88213 1.70558 -5.25308 -4.87697 0.109993 -0.158484 0.47682 0.000158476 -1.29993e-05 -0.00607096 0.000365003 -0.000130737 -0.0121787 -1.21118e-05 -3.5321e-06 -1.71708e-05 
26.982 1 270 30.4995 6.22321 3.93155 -0.911369 2.68319 2.45247 0.142959 -0.113002 0.226634 0.000170829 8.50747e-05 -0.0004224 0.000263957 0.000232891 -0.000742608 2.67833e-06 -2.41669e-06 1.15686e-06 
26.982 1 309 28.6059 8.25794 4.06002 2.13361 -0.107868 -0.51043 -0.169535 0.0469875 0.0059358 5.11256e-05 0.000130137 -0.000670748 5.80218e-05 0.000153903 -0.00137276 -3.51144e-07 1.28383e-06 -2.61605e-06 
26.982 1 112 28.3437 10.2111 1.96808 0.521741 -4.67521 3.92058 0.51542 -0.188072 0.202648 -0.000222479 -0.00226434 -0.0039243 -0.000451694 -0.00457099 -0.00787186 7.38939e-06 -1.44709e-05 -2.11251e-05 
26.982 1 76 32.6404 6.14323 2.09476 -1.45933 3.18034 8.39639 -0.393136 -0.115546 -0.233645 0.00228942 0.00214133 -0.00623268 0.00474563 0.00442561 -0.0124324 -5.79103e-06 -1.56578e-06 -1.0351e-05 
26.982 1 115 34.6176 8.06535 1.91235 4.28316 -4.62663 2.11483 0.139259 0.391819 0.488651 -0.002051 -0.00228057 -0.0060776 -0.00404947 -0.00464738 -0.012294 6.72661e-06 6.71805e-06 -8.20613e-07 
26.982 1 274 34.6172 6.04769 4.11058 4.2118 0.735163 2.28458 0.307548 0.388203 -0.0934902 0.00018099 -7.85046e-05 -0.000963108 0.000260897 -0.000172993 -0.00196025 8.17478e-06 5.70331e-06 1.25132e-06 
26.982 1 313 32.6336 8.09394 3.98239 0.267051 4.80215 0.786835 -0.20493 0.397684 0.102042 0.000124989 -2.93686e-05 -0.000806496 0.000186904 -8.01562e-06 -0.00160062 -4.0468e-06 5.37225e-06 3.37235e-07 
26.982 1 114 34.518 10.1925 0.0961766 2.43294 3.10578 -7.60086 0.604408 -0.102768 -0.252283 0.000530711 7.33187e-05 -0.0111688 0.00113434 0.000146546 -0.0224081 -3.11784e-06 2.19677e-05 -6.13431e-05 
26.982 1 116 32.6001 10.2969 2.06272 -0.682774 0.165951 1.49313 0.0325598 -0.458574 0.0955427 0.000267707 -0.00235115 -0.00399698 0.000455954 -0.00470431 -0.00794589 1.87252e-06 8.5008e-06 -1.99261e-05 
26.982 1 44 40.7112 6.05905 1.73189 -9.02211 3.62686 -1.05284 0.22622 0.269425 0.328052 0.00262138 -0.00738485 -0.00159918 0.00487921 -0.0148796 -0.0032416 1.97017e-05 -2.2933e-05 -4.56651e-05 
26.982 1 281 40.7063 8.09132 3.96062 -4.47549 -5.5283 3.23367 0.118418 0.233292 -0.231834 0.000151369 -0.000688679 -0.000439511 0.000243866 -0.00144944 -0.000887982 3.14549e-06 -3.38793e-07 -1.30821e-05 
26.982 1 2631 30.4873 20.2513 14.028 -5.05374 2.23578 -2.7393 0.376018 -0.060268 0.825521 -0.00294513 -0.00400089 -0.00552571 -0.00594501 -0.00796446 -0.0111559 1.08954e-06 1.80341e-05 -3.0289e-05 
26.982 1 80 36.5489 5.98206 1.89998 0.387287 2.57026 3.96168 0.251366 0.268026 0.159175 -0.00210369 -0.00260465 -0.00618125 -0.00417335 -0.00509582 -0.0124351 1.9147e-05 -9.58136e-06 -3.2856e-05 
26.982 1 117 36.6601 8.3085 0.0662961 2.90817 -0.614418 0.111833 -0.286586 -0.710456 -0.307358 -0.00044322 -2.82592e-05 -0.0111266 -0.000921533 -4.48396e-05 -0.022206 2.54673e-05 -6.518e-06 -6.54147e-05 
26.982 1 119 38.7341 8.05905 1.90465 -0.00330342 -1.31548 -3.20053 0.0790601 0.313893 -0.156668 0.000105621 0.00216163 -0.00396807 0.000213021 0.00417458 -0.00802702 1.41304e-05 1.48678e-06 -4.84918e-05 
26.982 1 278 38.6112 6.1734 3.83777 -4.67436 -0.243501 -3.45714 0.234241 -0.519315 0.181966 0.00244961 -0.00256699 -0.000458597 0.00488182 -0.0051812 -0.00109472 1.34317e-05 -1.94026e-05 -6.80899e-06 
26.982 1 317 36.6893 8.22659 3.89594 1.76754 4.43839 0.711402 -0.302885 -0.0987286 0.142721 -7.10012e-05 -0.000165445 -0.000435062 -5.52475e-05 -0.000166361 -0.00093944 -5.96098e-06 -3.62755e-07 -4.61544e-07 
26.982 1 120 36.8425 10.3013 1.9595 2.57509 3.78581 -1.75427 -0.872784 -0.155339 0.433862 0.00232671 0.00224638 -0.00638185 0.00467097 0.00457581 -0.0127278 1.40811e-06 -1.35905e-06 -1.99691e-05 
26.982 1 318 38.694 10.2542 3.96014 -0.102564 -4.41508 -0.520529 0.577144 -0.391015 0.351322 0.000259379 -0.000117921 -0.00111848 0.000554879 -0.000223549 -0.00230806 1.10506e-05 -6.85425e-06 -9.28917e-07 
26.982 1 88 3.79672 10.0935 1.93994 -3.00837 4.62567 -0.51872 0.142829 0.269464 -0.127833 -0.00104037 8.6443e-05 -0.00592769 -0.00215918 0.000234569 -0.0118919 -1.25014e-05 1.97618e-06 -5.17569e-05 
26.982 1 2611 9.82329 20.2123 13.9706 2.51963 3.67707 -1.01743 0.717744 0.042625 0.746349 -0.00312498 -0.00844179 -0.00109942 -0.00612085 -0.0169451 -0.0021335 2.82779e-06 3.77346e-05 -5.82047e-06 
26.982 1 123 1.82144 12.145 2.05896 1.40493 0.573945 -1.06958 -0.303046 -0.0654233 -0.402919 -0.00777836 -0.00485325 -0.00372931 -0.0154365 -0.00971398 -0.00753454 -1.28009e-05 -9.57025e-07 -6.06611e-05 
26.982 1 2609 7.8839 20.1357 12.154 3.01467 2.76046 -0.769021 -0.0987317 0.121784 -0.461604 -0.00238606 -0.00587805 -0.00345452 -0.00486142 -0.0118467 -0.00707259 -1.57626e-05 1.88151e-05 -3.84233e-05 
26.982 1 128 3.90805 14.1456 1.84588 -1.63291 1.6022 4.19506 -0.0549286 -0.00579252 0.0587739 -0.00123113 -0.000217058 -0.00164683 -0.00247744 -0.000444478 -0.00322326 -6.64699e-06 -4.2491e-07 -6.67157e-05 
26.982 1 282 1.7396 10.1739 4.0915 3.38549 -5.51532 -0.726364 -0.0666134 -0.198572 -0.231486 -0.0079664 -6.55829e-05 -0.00338581 -0.0158597 -0.000199721 -0.00677317 -2.14813e-05 -1.43262e-05 -1.341e-05 
26.982 1 322 2.09984 14.1087 4.05042 -3.56616 6.58208 0.393855 -1.01426 0.0152664 0.0408221 -0.00581335 -0.0024266 -0.00294071 -0.011642 -0.00481688 -0.00583646 -1.98109e-05 1.89882e-06 -6.43365e-06 
26.982 1 325 3.83095 12.0219 3.96834 2.47519 2.62246 0.0814057 0.366635 0.18201 0.202076 -0.000862023 -0.000371843 -0.000443922 -0.00173438 -0.000516728 -0.000876306 4.50776e-06 3.1707e-06 -3.26484e-06 
26.982 1 207 5.7068 0.0932948 6.00109 0.149328 -3.41628 5.21744 0.639512 0.0376341 0.669178 0.00228324 0.00283684 -0.0052164 0.0045695 0.00567943 -0.0104916 1.07194e-06 -6.10477e-05 -4.0359e-06 
26.982 1 127 5.88628 12.1958 1.89095 2.55946 -5.15169 2.05153 0.0984252 -0.0162354 0.107828 -2.57904e-05 -0.002529 -0.0037982 -8.1366e-05 -0.0050414 -0.00752679 -1.05628e-05 1.10582e-05 -3.4297e-05 
26.982 1 129 8.07625 12.2627 0.081449 0.607006 0.881689 -0.899437 -0.387357 0.114674 -0.0583131 8.00042e-05 -0.00467895 -0.011191 0.000202032 -0.00930338 -0.0223906 -1.32277e-06 2.44332e-05 -6.13065e-05 
26.982 1 132 7.91435 14.3061 1.95407 1.8053 0.85714 -0.467377 0.184666 -0.585833 0.069707 2.65014e-05 -0.000257212 -0.00143556 9.01603e-05 -0.000488265 -0.00294404 5.32946e-06 4.06696e-06 -4.31434e-05 
26.982 1 326 5.8799 14.1596 3.85839 0.879412 4.64022 -5.02421 0.178211 -0.350647 0.442332 1.58662e-05 -6.43605e-05 -3.41057e-05 -4.26293e-05 -6.46952e-05 -7.90698e-05 3.0788e-06 -5.07534e-06 9.39005e-07 
26.982 1 329 7.93151 12.0925 4.11441 1.71894 -1.82847 0.5775 0.309705 0.276441 -0.14011 4.8475e-05 -0.000188775 -0.00037535 0.000115306 -0.000387139 -0.000652373 5.30863e-06 7.15646e-06 -2.94245e-06 
26.982 1 96 12.0199 9.95744 2.26258 5.27138 3.56683 3.36733 0.487335 0.441083 -0.494203 0.000319946 -0.00217859 -0.0084643 0.000530103 -0.0044574 -0.0167654 7.26665e-06 -2.65704e-06 -2.85468e-05 
26.982 1 407 5.84649 0.198191 10.052 1.27018 1.16223 1.89268 -0.0559142 -0.943416 0.633349 0.0022704 0.00295285 -0.00528918 0.0046606 0.00595041 -0.0105427 1.46932e-05 -7.07823e-05 1.52157e-05 