ITEM: TIMESTEP
19000
ITEM: NUMBER OF ATOMS
4000
ITEM: BOX BOUNDS pp pp pp
-3.93579 44.4358
1.28723 39.2128
1.38943 39.1106
ITEM: ATOMS mass type id x y z vx vy vz fx fy fz xrad yrad zrad vxrad vyrad vzrad fxrad fyrad fzrad 
26.982 1 202 -0.348243 3.952 5.47284 -1.73348 -3.737 -4.6221 0.0956236 0.573595 -0.00255184 -1.23637 -1.14138 -1.16208 -0.10281 -0.099015 -0.109805 -4.34375e-06 -3.63336e-06 -3.82904e-06 
26.982 1 2 -1.08604 3.44806 2.19973 -1.28757 7.04115 -0.531406 0.0859128 0.342885 -0.100445 -0.862203 -1.29632 -2.38621 -0.0856691 -0.11527 -0.230097 -1.46796e-05 -1.59337e-05 -4.6759e-05 
26.982 1 4 -3.41453 3.09257 4.45168 4.43064 -0.157921 -1.82133 0.932264 0.460055 -0.844373 -1.44252 -1.48215 -1.69757 -0.124664 -0.136778 -0.155807 -1.9304e-05 -4.72707e-06 -4.40562e-05 
26.982 1 241 -2.45358 6.04076 5.61943 4.96697 -0.18827 -1.13427 -0.413821 -0.271541 0.504004 -0.95344 -0.943429 -1.11625 -0.083703 -0.0669429 -0.0972691 -5.5784e-05 -2.36375e-06 1.17301e-05 
26.982 1 41 -3.15425 5.20611 2.2334 1.84844 -0.0848605 -0.598672 -0.280944 -0.0754806 0.168822 -0.7415 -0.725701 -1.77241 -0.0638503 -0.0496394 -0.191125 -2.62813e-05 -1.3097e-05 -3.37288e-05 
26.982 1 5 0.955858 1.77216 2.2742 0.829348 1.27022 -0.180567 0.0449357 0.246745 -0.0776269 0.134137 -1.05014 -1.63794 0.0201051 -0.116222 -0.167608 2.13007e-05 -3.9875e-05 -3.93065e-05 
26.982 1 205 1.71059 2.0518 5.21644 -1.52016 3.41599 -5.23133 0.200587 0.650496 0.294528 0.0924844 -1.6566 -1.37701 0.0131619 -0.172612 -0.134306 2.06682e-05 -3.92052e-05 -1.3333e-05 
26.982 1 245 2.74292 4.68258 5.99309 3.03985 -0.0135711 -4.44293 -0.336218 -0.0424751 0.138797 -0.101688 -0.19473 -0.308427 -0.0107943 -0.0154094 -0.0322144 -5.22479e-06 -1.14103e-05 1.50621e-06 
26.982 1 8 2.10327 4.24768 3.41899 -6.567 0.510261 1.77059 -0.390971 -0.90272 -0.339084 0.306978 -1.87178 -2.11965 0.0153694 -0.149332 -0.214092 -4.6957e-06 -2.47308e-05 -2.79575e-05 
26.982 1 47 4.63265 5.13716 3.99922 0.861136 -5.92023 -3.49297 0.346661 -0.0539036 0.00525889 -0.0827696 -0.458933 -2.08068 -0.00213127 -0.034616 -0.201316 1.30141e-05 -8.33756e-06 -1.31661e-05 
26.982 1 206 5.04837 2.48648 4.73586 -3.7685 -0.704653 0.963943 0.000870146 0.191158 0.435338 -0.0227743 -1.79694 -1.07269 0.00616429 -0.180167 -0.100027 -2.54786e-06 -4.73249e-05 -9.20883e-06 
26.982 1 6 4.57305 3.38448 1.96053 -1.35221 0.663019 2.22642 0.0176173 -0.3984 0.335266 -0.229123 -1.36416 -1.94161 -0.0137389 -0.130118 -0.192243 6.23861e-06 -3.77002e-05 -4.73064e-05 
26.982 1 249 7.2285 4.46149 5.29437 2.39996 -2.34352 3.27662 -0.225407 -0.315541 -0.219015 -0.0079948 -0.206254 -0.25256 -0.000518007 -0.0217985 -0.0256139 -1.17266e-05 -1.49999e-05 -1.42931e-05 
26.982 1 12 7.64921 2.32452 3.164 8.94131 -0.121728 -5.78523 -1.00877 0.604623 0.173551 -0.28348 -2.26429 -1.87441 -0.00911585 -0.2114 -0.188936 -7.1316e-06 -3.85141e-05 -3.70744e-05 
26.982 1 51 9.35103 4.55505 3.25417 2.50208 4.08695 8.93067 -0.616402 0.440117 0.0267618 -0.00168357 -0.225235 -1.83775 -0.00563634 -0.0350769 -0.214086 -1.02101e-05 1.10073e-07 -6.3154e-05 
26.982 1 52 7.0668 6.51569 3.4127 -2.88657 0.0200364 -2.45271 -0.0260226 -0.628565 -0.58161 0.00604011 -0.058004 -1.88835 -0.00429923 -0.0164312 -0.211959 6.79382e-06 -1.0035e-05 -5.47947e-05 
26.982 1 210 9.4778 2.61244 5.36538 -2.59886 -0.538145 2.32512 -0.191967 0.166171 -0.317348 0.100935 -1.74135 -0.94347 0.00529245 -0.174468 -0.0963262 -7.59749e-06 -3.87146e-05 -2.26132e-05 
26.982 1 253 11.2688 4.94394 5.26412 -1.14265 -0.934255 0.149404 0.653795 -0.555952 0.022057 8.41405e-05 -0.240141 -0.266977 -0.00206956 -0.0249756 -0.0302352 1.58774e-05 -1.06437e-05 -8.07164e-06 
26.982 1 16 11.2896 2.77026 3.26553 -1.51398 -4.6542 1.19603 0.874734 0.329454 -0.380076 0.201917 -2.33071 -1.79035 -0.00218808 -0.229356 -0.184009 1.40063e-05 -4.51438e-05 -4.93076e-05 
26.982 1 214 13.3557 2.95037 5.22447 0.979214 -0.603176 -1.26636 0.394911 -0.0617151 -0.166693 0.0575095 -1.8994 -0.964702 -0.000736846 -0.188588 -0.0938321 7.11477e-06 -3.72462e-05 -2.53702e-05 
26.982 1 55 13.3988 4.92514 3.06831 -5.52408 -0.00339594 1.45989 -0.19497 -0.238539 -0.0970025 0.0321584 -0.37954 -2.06517 0.00046511 -0.0219137 -0.200806 -3.98505e-06 -1.14302e-05 -6.02511e-05 
26.982 1 20 15.7973 3.00695 3.36994 1.83187 1.93979 -1.87085 -0.387902 -0.717365 -0.294396 -0.319542 -2.25997 -1.75028 -0.0103233 -0.210255 -0.172239 -9.18874e-06 -4.94269e-05 -4.81871e-05 
26.982 1 257 15.5645 4.90608 5.17239 -2.61093 -2.28047 -0.601846 -0.163629 -0.0757106 0.24368 -0.0107768 -0.236891 -0.268035 -0.00262576 -0.0205954 -0.0282104 -4.31887e-06 -7.28305e-06 -4.44998e-06 
26.982 1 218 17.6834 2.819 5.46971 -5.40051 -3.17836 7.50899 -0.294427 0.320438 -0.814689 -0.0945103 -1.80085 -0.840998 -0.00545934 -0.1714 -0.0877848 -3.68767e-06 -3.10848e-05 -3.11454e-05 
26.982 1 59 17.7746 4.84759 3.12715 -2.77586 3.17568 2.46189 -0.172006 0.574704 0.3231 0.105931 -0.10192 -1.9626 0.0126329 -0.0148888 -0.213538 -5.49083e-06 -5.34928e-07 -5.65373e-05 
26.982 1 24 19.6549 3.07741 3.18671 -3.40246 7.32356 -0.391843 0.426486 -0.452325 0.350203 0.129818 -1.89438 -1.76073 0.00514353 -0.178877 -0.198705 1.08378e-05 -4.81004e-05 -4.01218e-05 
26.982 1 261 19.8272 5.05462 5.33026 5.03115 2.25975 -0.155077 0.130724 -0.0043508 -0.0939982 0.0129613 -0.205608 -0.306195 0.00173991 -0.0194258 -0.0325824 2.69706e-06 -4.89134e-06 -4.05972e-06 
26.982 1 63 21.8944 4.92652 3.06754 1.37968 0.620121 4.37841 -0.112532 -0.137684 0.0224853 0.0627024 -0.10284 -2.3621 0.00205695 -0.0159947 -0.253669 -7.73932e-06 -6.00933e-06 -5.68587e-05 
26.982 1 222 22.1824 3.32418 5.33812 0.913362 -2.03454 -1.35786 -0.20077 0.251611 0.00147678 -0.0247986 -1.67033 -0.888719 0.000224972 -0.154055 -0.0840285 -1.015e-05 -1.54041e-05 -2.05047e-05 
26.982 1 2615 13.5738 19.8137 14.3654 -6.60488 2.84549 1.84413 0.283651 0.495925 -0.309126 -0.786519 -0.268625 -1.88379 -0.0623719 -0.0588307 -0.178025 -2.58819e-05 4.25066e-05 -2.57639e-05 
26.982 1 28 24.091 3.20765 3.05227 3.6022 -0.785827 -1.5785 0.58418 -0.282805 -0.0190286 -0.100757 -1.65392 -2.01409 -0.00525209 -0.169651 -0.211971 1.46406e-06 -3.30592e-05 -5.99365e-05 
26.982 1 265 24.5098 4.92806 5.09552 -0.800665 1.06522 1.6532 -0.160859 -0.177857 0.0537447 -0.000877916 -0.196326 -0.343083 -0.000878729 -0.0209933 -0.0368525 -4.07175e-06 -3.21912e-06 -4.52859e-06 
26.982 1 67 26.5371 5.08753 2.73587 0.409773 -9.62484 -2.61757 -0.41937 -0.149373 0.0436624 0.104738 -0.0275084 -2.67958 0.00380882 -0.00939704 -0.269302 -1.29192e-05 -1.21122e-05 -6.31842e-05 
26.982 1 225 24.2797 1.54359 5.23184 6.1863 -5.15386 -3.44245 0.310792 -0.0298344 0.00663646 -0.0356766 -1.52429 -1.1873 0.00431898 -0.132326 -0.110369 1.03241e-05 -3.58167e-05 -3.81506e-05 
26.982 1 226 26.8619 3.03342 4.64236 6.26296 -0.738786 -2.66779 -0.237509 -0.327538 -0.621288 0.00440763 -1.50242 -0.745495 0.000424508 -0.163127 -0.0860651 9.0065e-07 -4.52974e-05 -3.459e-05 
26.982 1 32 30.4329 5.52395 2.24633 0.443714 0.986164 -4.05236 0.167341 -0.167388 0.79103 0.0319488 -1.44864 -2.20561 0.000273239 -0.137166 -0.233434 -7.09416e-06 -1.74128e-06 -5.99002e-05 
26.982 1 269 28.6668 5.20359 4.50319 0.578881 3.87961 0.473744 0.287515 0.167053 0.108193 -0.00953301 -0.185674 -0.37649 -0.000750238 -0.022245 -0.0384604 2.31039e-06 -1.59238e-06 -4.71964e-06 
26.982 1 27 28.8283 3.18501 2.40652 6.44881 -0.571436 -5.86158 -0.516944 -0.108428 0.468991 -0.0762677 -2.22374 -1.74387 -0.0153032 -0.184962 -0.186776 -2.08912e-05 -2.97775e-05 -4.18568e-05 
26.982 1 230 30.9328 3.28738 4.49605 5.88299 -0.110877 -1.81032 -0.411739 -0.0783271 -0.955242 -0.0949219 -1.51382 -0.81199 -0.00912601 -0.156281 -0.0830149 -1.95432e-05 -2.57391e-05 -2.15039e-05 
26.982 1 273 32.4814 5.58452 4.21167 -2.95978 -1.6369 -3.25687 0.260487 -0.0371249 -0.416833 -0.00141394 -0.156948 -0.290035 -0.000160729 -0.0173841 -0.0288861 -7.55425e-07 -1.01431e-06 -1.70587e-05 
26.982 1 36 34.7171 3.71118 4.16537 0.227509 -1.79275 -4.14115 0.435831 -0.398076 -0.525139 -0.18542 -1.65619 -2.03964 -0.021742 -0.159993 -0.18297 7.86575e-06 -1.3027e-05 -1.78427e-05 
26.982 1 30 32.6312 3.63915 2.28682 3.31467 2.98429 0.563851 0.23727 -0.282745 -0.17321 -0.066275 -1.14867 -2.26219 -0.00952304 -0.117166 -0.208423 1.39683e-06 -7.0572e-06 -5.78379e-05 
26.982 1 73 34.6533 5.78218 2.04404 -1.60164 5.50182 2.8588 -0.370595 -0.109727 0.0740358 0.164129 -0.181185 -2.25873 0.00349149 -0.0151667 -0.217118 -9.59379e-06 -8.64612e-06 -6.24567e-05 
26.982 1 33 34.8976 1.78268 1.98983 -2.53869 1.67119 -1.53525 -0.117967 -0.289547 0.304664 -0.0362666 -1.08733 -2.02156 -0.00863191 -0.106677 -0.200488 5.21122e-07 -4.0715e-05 -4.50187e-05 
26.982 1 236 32.9051 3.40587 6.14692 -3.27821 3.0044 -2.48668 0.119741 -0.195878 0.35471 -0.209451 -2.28549 0.103796 -0.0125646 -0.222379 0.00706689 -1.00988e-05 -4.10083e-05 1.74344e-05 
26.982 1 2837 38.9186 20.1873 15.7252 -2.80481 -0.361845 5.63226 -0.289591 -0.478455 0.28755 -0.546402 -0.863398 -1.63028 -0.0526558 -0.0430666 -0.146846 2.07135e-06 8.66796e-06 -2.51584e-05 
26.982 1 34 36.7472 3.92571 1.90109 1.35773 -0.259462 -7.47093 0.0633915 -0.196306 0.308447 0.0475398 -1.04195 -2.49159 -0.00817775 -0.108708 -0.249133 -4.6836e-06 -1.09569e-05 -6.00027e-05 
26.982 1 35 37.0706 1.80862 4.03037 -2.07343 -2.49943 -6.63961 -0.20603 0.220014 0.112581 0.0720375 -2.67744 -2.01908 0.00254211 -0.234096 -0.187455 2.35004e-06 -4.50968e-05 -2.38082e-05 
26.982 1 77 38.6571 6.17645 1.82329 -6.23725 -2.21924 -0.251204 0.00083455 -0.11583 -0.00673826 0.0658637 -0.0553698 -1.67262 0.00916417 -0.00348388 -0.213165 9.18009e-06 1.22174e-05 -6.44421e-05 
26.982 1 75 36.6568 5.89137 3.88354 3.86456 -0.879696 1.73051 0.0506873 0.142663 0.627421 0.127325 -0.0579695 -2.27493 0.0011451 -0.00425849 -0.194483 6.0879e-06 7.8756e-06 2.13254e-06 
26.982 1 234 36.9065 3.90739 5.93249 -0.154338 -4.01956 1.01331 -0.101002 -0.109477 0.0517842 -0.0121643 -1.23952 -0.629959 -0.00603725 -0.120066 -0.0570644 6.17664e-07 -8.46433e-06 -2.32448e-06 
26.982 1 40 38.8576 4.1633 3.71105 -3.53686 8.4155 -3.36489 -0.0360483 0.424891 0.952759 0.400616 -1.67373 -2.28886 0.0213483 -0.15261 -0.187129 8.00084e-07 -9.24861e-07 6.94437e-06 
26.982 1 237 39.0554 2.12615 6.0805 -3.89165 -0.98183 -0.585981 0.174964 -0.11622 0.0834573 0.214429 -1.92985 -1.44314 0.0179087 -0.199254 -0.123856 1.44022e-05 -5.98826e-05 -2.37607e-06 
26.982 1 37 39.0412 2.26005 1.98178 0.141849 2.08561 -2.96086 0.119767 -0.761808 -0.495924 0.0309696 -1.34409 -1.92404 0.00331584 -0.13683 -0.196658 4.12403e-06 -5.57874e-05 -5.01496e-05 
26.982 1 1 43.2986 2.77554 1.91121 -4.22601 -2.60701 2.90729 0.245931 0.226302 0.349739 -0.591212 -1.0906 -2.42004 -0.0331867 -0.120162 -0.233779 1.52379e-05 -4.33507e-05 -4.40492e-05 
26.982 1 79 42.7937 4.74958 3.78497 -1.76403 -8.80937 0.54792 0.188522 -0.468296 0.872187 -0.0573211 -0.220227 -2.42251 0.00345635 -0.0140887 -0.19931 1.14289e-05 -6.58759e-06 4.8681e-06 
26.982 1 39 41.1256 2.51238 4.09922 -1.47713 -8.09191 -1.84543 0.206484 -0.397012 -0.334244 -0.267697 -1.27482 -2.04021 -0.0105307 -0.159299 -0.178069 6.02499e-06 -4.818e-05 -2.24177e-05 
26.982 1 38 40.8949 4.22262 1.86898 5.59465 1.15779 -1.03044 0.103398 0.742815 -0.0553806 0.00337645 -0.969635 -2.0046 0.00171166 -0.0894815 -0.223401 2.30056e-06 -3.49933e-06 -6.47835e-05 
26.982 1 43 -0.772007 5.92397 3.59429 5.93969 1.50351 5.09249 0.771162 -0.0805224 -0.356595 -1.3189 -0.569091 -2.07619 -0.110475 -0.0301242 -0.201048 4.0557e-06 -6.80709e-06 -1.40651e-05 
26.982 1 83 0.0708141 8.83141 3.94959 -3.17494 0.440497 -2.58921 -0.252199 -0.441596 0.45344 -1.43137 -0.592747 -2.13451 -0.107442 -0.0610536 -0.210544 -6.87423e-06 -7.22959e-06 -3.69576e-06 
26.982 1 44 -2.67661 7.99282 3.81002 -0.311501 -1.47233 -6.2614 0.157042 0.503966 -0.49501 -0.486356 -1.25176 -2.0852 -0.0649409 -0.0921932 -0.201973 -4.89472e-05 7.95159e-06 -2.22476e-05 
26.982 1 242 0.561396 6.67329 6.02858 1.01091 1.22809 3.86945 -0.0722162 -0.178746 0.347031 -1.51489 -0.074269 -0.850006 -0.122751 -0.00845816 -0.0725706 -1.3283e-06 7.12079e-08 2.69351e-06 
26.982 1 281 -1.26766 8.59928 6.38564 4.60555 -8.73503 -0.759597 -0.0941255 0.387454 0.351126 -1.0581 -0.981023 -1.18519 -0.106776 -0.0804881 -0.101486 -1.77026e-05 3.13547e-06 1.60588e-06 
26.982 1 48 2.26923 6.81603 4.04009 6.22187 7.14567 -1.22938 0.316043 0.735988 -0.434727 -0.33837 -0.0959712 -2.03081 -0.0286845 -0.00155625 -0.20322 1.67895e-06 1.21677e-05 -1.33375e-05 
26.982 1 285 2.14388 9.05743 6.14535 0.619265 -7.04407 0.819488 0.22091 -0.137565 0.0565204 -0.121377 -0.00650005 -0.241406 -0.00655196 0.00252838 -0.0246819 8.6935e-06 -4.38408e-06 3.35879e-06 
26.982 1 87 4.85587 8.30332 3.56102 2.10214 3.87321 -7.33795 -0.616318 -0.773108 -0.341967 -0.0513745 -0.0288526 -1.86625 -0.0117205 -0.00709482 -0.200653 -2.63155e-06 -9.29348e-06 -2.12327e-05 
26.982 1 246 4.66321 6.79696 5.98907 5.2529 -2.47487 -0.857432 0.0472667 1.0281 0.256185 -0.0109238 -0.00670765 -0.215805 -0.00356377 0.00129578 -0.0220238 -1.44359e-06 1.59436e-05 4.3183e-06 
26.982 1 88 2.42191 10.0821 3.52657 -5.42505 -0.879475 -2.21166 0.829499 -0.65011 -0.278621 -0.323515 -0.0998206 -1.91554 -0.0254674 -0.015954 -0.195226 1.2578e-05 -1.11802e-05 -7.76883e-06 
26.982 1 286 4.88872 10.0744 5.51185 -2.09933 0.329409 -1.64601 -0.546079 0.655956 -0.351094 -0.0189882 0.00433589 -0.192805 -0.00718244 0.000302102 -0.0185999 -1.38283e-05 5.52715e-06 9.57473e-07 
26.982 1 3037 39.4692 20.0307 19.8984 2.62951 -3.43956 -5.38827 -0.0169717 0.318816 -0.70376 -0.85487 -0.71811 -2.4745 -0.0716096 -0.061492 -0.210211 -1.24423e-05 6.76393e-06 -3.66819e-06 
26.982 1 289 7.11704 8.4083 5.18423 1.62496 -1.31286 7.94209 -0.193397 0.44831 0.595988 0.000671244 -0.000771548 -0.211742 -0.00323342 -0.00147393 -0.0213082 -2.41534e-06 1.46906e-06 2.17843e-06 
26.982 1 250 9.05515 6.57836 5.30339 -1.29258 3.32366 -0.596467 0.111592 0.469012 -0.277949 0.0055142 -0.0111179 -0.220839 -0.00100711 -0.00423226 -0.0256094 -4.56985e-07 9.04159e-06 -1.17208e-05 
26.982 1 91 8.97022 8.81683 2.87944 2.85419 3.61995 4.55126 0.397314 -0.0507759 0.31248 0.17139 0.0926758 -2.09569 0.0133567 0.00340076 -0.200765 -1.11311e-06 -8.69044e-06 -6.34214e-05 
26.982 1 293 10.9572 8.92432 4.99337 3.64957 1.62078 -3.83826 0.050168 0.144037 0.484924 0.00419891 0.0142609 -0.262602 0.0011545 0.000724462 -0.0255746 3.85422e-06 2.33753e-06 -1.23554e-06 
26.982 1 56 10.9595 6.82804 3.41637 -1.35075 1.68969 -3.09845 0.360763 0.0425436 -1.15008 0.0480113 0.165466 -2.05947 0.00301452 0.00916338 -0.209371 7.5606e-06 -3.86202e-07 -6.62392e-05 
26.982 1 95 12.7437 9.23602 2.85094 -3.09012 -3.68623 -2.75935 -0.152822 0.0456802 0.273881 -0.0263765 0.14567 -2.36337 -0.00118377 0.00618349 -0.238547 3.33898e-06 -1.35364e-05 -5.80306e-05 
26.982 1 254 13.333 6.94079 4.9402 -3.30038 5.74157 5.55341 -0.163855 0.180232 0.240651 0.00477641 0.0046847 -0.246235 0.0011052 0.00228007 -0.0276605 -1.4648e-06 5.06958e-06 -9.62844e-06 
26.982 1 60 15.4776 6.79756 3.14925 -1.16492 3.29707 5.27152 -0.0233642 0.218569 0.120206 -0.0112693 0.112623 -2.11089 -0.000874949 0.0117867 -0.212352 -1.43204e-07 5.94007e-06 -5.98671e-05 
26.982 1 297 15.1134 9.19809 4.68077 -0.351285 -5.84012 3.12382 -0.169981 0.0895198 0.160387 0.00804485 0.0138847 -0.28605 0.00293601 0.000203238 -0.0303036 -4.17909e-07 8.81352e-07 -1.05754e-05 
26.982 1 99 17.4126 8.93347 3.18086 2.03728 5.83712 -3.32653 0.465867 0.208633 0.458071 -0.119188 0.169431 -2.21277 -0.00832323 0.0138287 -0.220408 2.20711e-06 -9.39388e-06 -4.09173e-05 
26.982 1 258 17.6634 6.87143 5.14489 2.09658 2.62913 4.90142 -0.17508 0.599099 0.0504541 -0.00309888 0.0120209 -0.242207 -0.00315256 0.00444428 -0.024327 -4.11246e-06 1.27455e-05 4.45232e-07 
26.982 1 64 19.6621 6.89816 3.20346 -4.73888 -3.97711 3.96828 0.251524 -0.39281 -0.406061 0.110025 -0.173549 -2.21072 0.00659673 -0.0181689 -0.236942 5.5073e-06 2.64947e-06 -6.57212e-05 
26.982 1 301 19.858 8.75145 5.06247 1.77248 2.08287 0.372588 -0.170747 0.600588 0.688528 -0.0113887 0.0147032 -0.252847 -0.00469699 0.00246357 -0.0274583 -1.03008e-05 9.45123e-06 6.00389e-06 
26.982 1 103 21.9569 9.10966 3.37755 -0.23628 6.05063 -0.951489 -0.00871065 -1.11289 -1.00214 0.0750656 0.0110442 -2.2878 0.00192001 -0.00595473 -0.233399 -1.47104e-06 -2.62553e-05 -5.70703e-05 
26.982 1 262 21.9378 6.89797 5.11656 -5.46112 0.833968 -1.72533 0.297119 -0.237115 -0.0159872 0.00352793 -0.0184254 -0.290774 -0.000647981 -0.0024995 -0.0315847 3.84998e-06 -5.96185e-06 -7.51479e-06 
26.982 1 302 22.0589 10.858 5.15803 0.763452 3.3413 -0.680473 -0.157982 0.695881 0.831431 -0.0163873 0.0111049 -0.28017 -0.00609082 0.00380795 -0.0263846 -3.31087e-06 9.45139e-06 8.89288e-06 
26.982 1 305 24.3102 8.89495 4.99098 7.84219 -1.88599 -3.77692 -0.513806 -0.29908 0.35795 0.0080207 -0.00399745 -0.285373 0.000395505 -0.00143498 -0.0299892 -4.55827e-06 -1.20379e-05 -1.00073e-06 
26.982 1 68 24.0249 6.68267 3.15921 1.83548 6.55131 -3.34193 0.0288325 0.631284 -0.403589 0.0939477 -0.160776 -2.53451 0.00296954 -0.017798 -0.259959 -6.81486e-06 6.03165e-06 -6.01499e-05 
26.982 1 108 23.9527 10.9346 3.20891 1.75129 -0.212172 -1.96319 -0.576669 0.586733 -0.967759 -0.0717615 0.14533 -2.4189 0.0011714 0.00746271 -0.243674 -3.10568e-06 1.05339e-05 -6.10851e-05 
26.982 1 107 25.9159 8.99934 2.87551 2.97603 4.31086 2.26266 0.454779 0.3066 -0.234022 0.235297 -0.177428 -2.60586 0.0128494 -0.00891964 -0.26438 -2.02295e-06 -2.97173e-06 -6.60588e-05 
26.982 1 266 26.3848 6.95149 4.72612 0.744142 -3.29945 5.54331 0.21746 0.356506 0.764611 0.00443993 -0.0072046 -0.33838 -0.000300828 -0.00276065 -0.034125 3.23532e-06 2.92448e-06 8.93797e-06 
26.982 1 72 28.2367 7.37005 2.58211 1.95781 0.898079 4.0086 -0.175328 -0.0379385 -0.0679167 -0.108966 -0.0134433 -2.88724 -0.0107388 -0.00679862 -0.283606 -1.07652e-05 -1.24794e-06 -6.10165e-05 
26.982 1 309 28.2276 9.32928 4.6773 2.24392 -3.48462 1.66597 -0.139227 -0.0304715 -0.0739569 -0.00905436 -0.010007 -0.340792 -0.00117171 -0.00128354 -0.0336547 -4.64672e-06 9.53311e-08 -6.4367e-06 
26.982 1 112 27.9 11.1761 2.57551 0.236894 2.4314 -0.791472 0.257747 -0.0306678 0.0272583 -0.161189 -0.235406 -2.32358 -0.01447 -0.0123676 -0.248071 -3.18184e-07 -2.71181e-06 -6.20357e-05 
26.982 1 111 30.243 9.157 2.48421 1.13511 1.1594 3.70504 -0.15524 1.21002 -0.522201 -0.190447 -0.246681 -2.37711 -0.0130706 -0.0124058 -0.24269 -2.74179e-06 1.78746e-05 -6.58883e-05 
26.982 1 270 30.337 7.52232 4.49618 -0.463018 -3.38216 5.82586 0.233733 -0.568913 0.104821 -0.00970697 0.00308833 -0.310245 -0.0001773 0.000604557 -0.0310249 -7.41408e-07 -6.60188e-06 -6.74773e-06 
26.982 1 71 32.4979 7.49106 2.26098 -4.74521 2.96056 -1.84602 -0.620604 0.337009 -0.511043 -0.231216 -0.12007 -2.44559 -0.0198685 -0.0160749 -0.256993 -1.21933e-05 4.83809e-06 -6.59234e-05 
26.982 1 76 34.3315 7.73764 4.04034 -1.13491 4.29641 6.28408 0.897147 0.0343964 0.00964028 -0.00968834 0.0262249 -2.32224 -0.002561 -0.000408476 -0.212443 1.37628e-05 3.24247e-06 -1.25453e-05 
26.982 1 313 32.6129 7.63956 6.20186 3.29583 -2.07544 -1.66518 -0.058918 0.129534 0.382839 -0.000453871 -0.00648586 -0.252338 0.000243788 -0.00247168 -0.0204104 -4.72638e-06 2.14668e-06 9.3462e-06 
26.982 1 116 34.3447 9.67305 1.76631 -2.14114 -3.69041 -1.5719 -0.00489621 0.318451 0.510295 0.104919 0.0387766 -2.10734 0.00225314 -0.00428643 -0.203652 1.93886e-08 3.82895e-06 -5.64296e-05 
26.982 1 310 32.3341 9.63957 4.27043 -1.47118 8.49928 3.50246 -0.149864 0.0745709 -0.670873 -0.00534193 -0.00925123 -0.242317 0.000260741 -0.00337215 -0.0277175 -1.10284e-06 5.62783e-06 -2.32585e-05 
26.982 1 115 38.6417 8.78127 3.36581 -0.626909 -0.638845 2.66285 0.235024 -0.792897 -0.330069 -0.260918 -0.115086 -1.98648 -0.0137544 -0.0089323 -0.176287 9.82696e-06 -4.12158e-06 -4.50947e-05 
26.982 1 2405 1.3305 20.3619 9.55932 -1.74861 2.83724 -1.05452 -0.0661057 -0.215363 -0.637214 -0.773901 -0.0373225 -1.60503 -0.0642712 -0.043119 -0.150412 -6.03858e-06 1.11215e-05 -3.5455e-05 
26.982 1 74 36.4935 7.78764 1.9331 4.26641 5.81356 -1.06905 -0.288024 0.766959 -0.330374 0.000941055 -0.199856 -1.94787 -0.00971646 -0.00728109 -0.200873 5.19482e-06 1.79114e-05 -5.87118e-05 
26.982 1 155 36.3917 9.98745 3.92459 -5.4822 -4.74002 -3.82054 -0.795101 -0.250085 -0.192465 -0.0215023 0.181057 -2.34886 0.00576751 0.0197042 -0.19853 -7.71584e-06 -2.93126e-06 -1.77897e-05 
26.982 1 314 36.3017 7.90248 5.96124 6.82908 2.69521 2.41778 1.11786 -0.619106 -1.05417 -0.00435863 0.00339091 -0.238472 0.000306132 -0.00112433 -0.0200929 1.92173e-05 -9.08923e-06 -1.57158e-05 
26.982 1 80 40.5723 6.63042 3.61368 -2.09325 -1.2065 4.85608 -0.0828011 -0.951812 0.483244 0.0510024 -0.404926 -2.09076 0.00560716 -0.0204333 -0.178981 -5.71836e-06 1.03818e-06 -1.79074e-05 
26.982 1 317 41.0911 8.95203 4.57163 1.12377 1.34136 -11.2255 -0.129386 0.306024 0.648796 0.00488941 -0.0103784 -0.193209 -8.86808e-05 -0.00047997 -0.0195723 -7.75788e-06 5.16183e-06 -4.56011e-06 
26.982 1 78 42.7 6.45447 1.84156 2.859 -4.7115 -0.935749 0.159453 0.238005 -0.634332 0.239422 -0.498301 -1.95167 0.0380421 -0.0310295 -0.195036 2.20279e-05 6.52193e-06 -6.62253e-05 
26.982 1 119 42.9951 9.14269 2.42605 0.612226 3.58869 -0.34474 0.220933 -0.889034 -0.278437 0.391506 -0.0381743 -2.2042 0.0376979 -0.00561612 -0.224099 5.93179e-06 -1.43071e-05 -6.35864e-05 
26.982 1 278 43.2928 7.30764 4.57001 4.35278 0.602109 -1.70522 -0.0730157 -0.243768 0.00051656 0.495615 -0.467687 -0.327324 0.04128 -0.0331009 -0.0319069 1.71255e-05 -8.08414e-06 -9.68887e-06 
26.982 1 284 43.4127 10.2259 4.93987 3.59651 1.51669 5.09152 -0.27595 0.08183 0.405843 -0.985694 -0.967074 -0.969746 -0.0264194 -0.088906 -0.0889262 7.48116e-06 -5.31255e-06 3.97088e-06 
26.982 1 282 -2.31039 10.7355 4.66627 -2.56859 2.5379 -4.22571 0.638943 0.0614614 -0.735685 -1.32567 -0.00932106 -0.652448 -0.133108 -0.00170672 -0.0688271 -4.10064e-05 -1.93485e-06 -2.84137e-05 
26.982 1 322 -1.80207 13.6732 3.64264 -2.05653 0.481086 -0.626995 -0.365404 -0.999789 0.971882 -0.96184 -0.30004 -0.545801 -0.102269 -0.0196866 -0.0594065 -2.57209e-05 -1.20759e-05 5.78453e-06 
26.982 1 122 -0.0101253 13.9389 1.81603 -6.84706 -4.16136 3.72695 0.159379 -0.194843 -0.571442 -1.4982 0.0121522 -2.16304 -0.119832 0.00621948 -0.214131 5.2759e-06 4.22357e-06 -5.75563e-05 
26.982 1 325 0.21747 11.612 3.54806 1.89727 4.15018 3.57259 0.102857 0.668644 0.520481 -0.113092 -0.0219277 -0.234073 -0.0079594 -0.00619347 -0.0340697 -5.55039e-06 6.1022e-06 -3.63927e-08 
26.982 1 328 0.437417 13.8822 5.63122 -1.67578 -8.77897 -3.60214 -0.269662 -0.0239889 -0.33169 -0.124395 -0.00816983 -0.0173284 -0.0118363 0.00204871 -0.00748532 -5.418e-06 8.09893e-06 -1.26399e-05 
26.982 1 123 -1.70127 11.5343 1.79748 4.47281 -1.43998 -0.46849 -0.367908 0.189977 -0.538289 -1.42785 -0.391417 -2.1419 -0.121335 -0.0381584 -0.228351 -4.10064e-05 -1.61921e-05 -5.08394e-05 
26.982 1 128 2.30897 14.044 3.45088 -1.40752 7.23589 -2.69686 -0.0821799 0.594161 0.260347 -0.272594 0.171727 -1.86035 -0.0263756 0.0144197 -0.164143 5.58393e-06 1.80903e-05 -2.41279e-05 
26.982 1 127 4.47262 12.3328 3.49193 2.60083 1.78992 -3.28966 -0.521674 -0.37078 0.140912 0.00825588 -0.0428289 -1.61423 -0.000386171 -0.00766243 -0.150154 8.42532e-06 8.73181e-06 -3.12253e-05 
26.982 1 326 4.05591 14.5072 5.68595 -4.22879 6.36189 2.34266 0.0183498 -0.307472 -0.619373 -0.0162852 -0.00121784 -0.172373 -0.00502668 0.000283172 -0.0153154 -2.31598e-06 -1.19342e-06 -1.10894e-05 
26.982 1 125 2.21852 12.0948 1.64569 1.12042 5.31337 4.47116 0.37432 -0.067445 -0.251438 -0.334127 -0.194812 -2.97184 -0.0325895 -0.0180849 -0.277798 1.18729e-05 1.08421e-05 -6.79125e-05 
26.982 1 327 2.52793 11.935 5.41766 3.18778 -3.13293 2.91449 0.23017 0.437719 0.326724 -0.00673854 -0.00385449 -0.0134856 -0.00176726 -0.00591684 -0.00274367 8.59059e-06 4.52096e-06 4.66487e-06 
26.982 1 162 -0.95186 18.4074 1.74005 -3.22214 1.68765 3.80385 -0.518686 -0.430079 -0.450245 -1.31358 1.0171 -2.01198 -0.113642 0.0651333 -0.204075 -1.94416e-05 -2.36432e-06 -6.68706e-05 
26.982 1 290 8.74397 10.6536 5.05067 4.9423 1.92092 3.83828 0.116265 0.292466 0.368298 0.0108691 0.00189609 -0.244354 -1.93389e-06 -0.00041225 -0.022263 4.30358e-06 6.60371e-06 -2.18593e-06 
26.982 1 92 6.63959 10.4045 3.21425 -2.86197 -1.64262 1.27804 0.579337 0.771395 0.33956 0.132307 -0.02308 -1.81358 0.00845218 -0.000456319 -0.169993 1.89357e-05 8.51448e-06 -4.67028e-05 
26.982 1 329 6.49587 12.3346 5.24337 3.54445 -1.09594 3.85934 0.323463 0.636941 0.508277 -0.00644912 -0.00693683 -0.189929 -0.00280449 -0.00252739 -0.0165198 3.35761e-06 1.13188e-05 2.80234e-06 
26.982 1 132 5.78103 14.6515 3.49763 -5.40099 -0.0240423 -3.52607 0.159359 0.291242 -0.556367 0.158336 -0.027835 -1.7382 0.0173556 -0.00154061 -0.170668 1.23917e-06 2.75764e-06 -5.6101e-05 
26.982 1 131 8.33617 13.0731 3.04932 -0.344293 -2.15166 -6.44992 -0.344754 -0.67958 0.581992 0.152926 -0.000334279 -2.08584 0.0129802 0.00393932 -0.2071 -6.66432e-06 -4.40726e-06 -5.71995e-05 
26.982 1 330 8.03689 14.8842 5.23818 -1.15018 3.94391 3.09268 0.079032 -0.433878 0.247761 0.00799294 0.00312928 -0.233068 0.000478979 0.00101999 -0.0230732 3.16275e-07 -1.08396e-05 -2.2911e-06 
26.982 1 294 12.7567 11.12 5.06642 1.8492 0.638596 -7.87024 0.388001 -0.0168617 -0.0705346 0.00445541 0.00734557 -0.292018 0.00163027 -0.00016763 -0.0291186 8.49589e-06 4.57335e-07 -5.67661e-06 
26.982 1 96 10.5147 11.1648 3.01898 0.708812 -0.21423 0.710128 0.17396 -0.108676 -0.292566 0.0875599 -0.0605272 -2.34538 0.00958679 -0.0037073 -0.230279 3.21317e-06 3.78749e-06 -6.02802e-05 
26.982 1 333 10.5564 12.9 5.20632 -0.434455 -1.01875 3.49225 -0.045279 0.1564 -0.0643104 0.00348241 -0.0105623 -0.258263 -0.000133909 -0.00150341 -0.0250725 -3.69606e-07 3.0764e-06 -5.44965e-06 
26.982 1 135 12.4108 13.3168 3.15236 4.18842 -2.28729 -1.63579 0.247423 0.0607021 0.263947 0.0758257 -0.194466 -2.31871 0.00236066 -0.0158029 -0.239155 2.21749e-06 9.84495e-06 -5.40306e-05 
26.982 1 136 9.96464 15.1994 3.37002 -1.68318 0.864304 -0.0260437 0.993352 -0.238653 -0.40953 -0.058362 0.0167634 -2.17883 -0.00364944 0.0034199 -0.225116 1.91446e-05 1.04077e-06 -5.95917e-05 
26.982 1 334 12.3595 15.4192 5.35969 -3.69009 0.637236 -1.82232 -0.346865 -0.466416 -0.304339 0.0081665 -0.00313802 -0.250972 0.00212712 2.42136e-05 -0.0266258 -8.33796e-07 -1.1956e-05 -1.22357e-05 
26.982 1 100 14.5969 11.2582 2.7735 0.417859 -2.39476 -0.294194 0.181951 0.702884 -0.0916261 0.0115215 0.0476027 -2.51302 -0.00272638 -0.00115349 -0.252171 -2.77313e-06 1.97903e-06 -4.83396e-05 
26.982 1 337 14.5784 13.3389 5.26481 1.17814 0.561624 -2.63251 -0.0252287 0.451289 -0.592486 0.012312 -0.00016521 -0.293741 0.00407193 0.00126887 -0.026376 1.55677e-06 3.28971e-06 -6.38771e-06 
26.982 1 139 16.1048 13.6865 2.98273 -0.620186 -10.5475 -4.62275 -0.137581 0.156094 -0.299595 -0.0287567 -0.0400585 -2.56773 0.00141078 -0.00628977 -0.256846 3.66742e-06 9.76014e-06 -5.54396e-05 
26.982 1 298 17.132 11.6535 4.44658 -1.23552 -4.33001 -1.14141 -0.162231 -0.0238031 0.111006 0.0032975 -0.00444556 -0.321849 0.00413097 -0.00367877 -0.0413407 5.38555e-07 1.24668e-06 -6.49744e-06 
26.982 1 338 16.6257 15.2703 5.54442 -5.7932 2.74971 -2.73995 0.0506262 0.336443 -0.737175 -0.0161063 -0.0165713 -0.276883 -0.00454924 -0.000512793 -0.0257629 -4.56978e-06 2.44945e-06 -1.43451e-05 
26.982 1 140 14.2059 15.683 3.4085 0.609046 0.365782 -3.91116 0.15954 -0.0918045 0.0885241 0.169911 -0.160688 -2.25958 0.00955856 -0.00420859 -0.235919 3.48378e-06 -3.21114e-06 -5.01811e-05 
26.982 1 104 19.6873 10.9244 3.27903 0.243613 3.65481 -4.62617 -0.380691 -0.595614 -0.30854 -0.0257719 0.178484 -2.34934 -0.00958062 0.0118968 -0.230895 -1.46226e-05 -3.43189e-06 -3.86948e-05 
26.982 1 341 18.7449 14.2536 3.98767 -4.11628 5.07566 -5.29226 0.00426907 0.0801012 -0.303156 -0.00854512 -0.0153809 -0.32356 -0.000752027 -0.00296123 -0.0542564 -1.3148e-08 -2.22981e-06 -3.79314e-05 
26.982 1 304 19.8161 12.3188 5.48459 0.50874 3.18102 4.0677 -0.419132 0.192791 0.816306 -0.00479116 0.00308473 -0.02027 -0.00186061 0.000686675 -0.00664081 -1.45987e-05 -5.24674e-06 9.88636e-06 
26.982 1 143 21.5457 12.9573 3.27985 1.76206 0.7066 -2.18913 0.445611 0.145704 -0.49403 0.0608276 -0.31978 -2.24502 -0.00276217 -0.0187068 -0.220235 5.26661e-06 1.7038e-05 -5.21162e-05 
26.982 1 342 21.2953 14.8178 5.0941 -4.21712 5.12284 -0.106091 0.462148 0.0307514 0.783772 -0.00178857 -0.00637502 -0.234135 -0.00428399 -0.00229285 -0.0262495 9.40244e-06 1.01015e-05 -1.72025e-07 
26.982 1 306 25.9561 11.2193 4.75488 1.37134 2.54192 -0.456534 0.90967 0.139864 0.404085 0.00496845 -0.00713657 -0.290953 0.000726829 -0.000619137 -0.0314295 1.1831e-05 4.45063e-06 -3.7068e-06 
26.982 1 148 23.5033 15.4429 3.26776 0.887841 -10.4812 3.74087 -0.389064 -0.441174 0.113245 0.37813 0.0753356 -2.53462 0.0238835 0.0114063 -0.243485 -7.61407e-06 5.74772e-06 -4.16322e-05 
26.982 1 345 24.0067 13.2759 4.92362 0.0100878 6.62905 3.22282 -0.872952 -0.297905 -0.0984597 0.00395159 0.0122239 -0.299145 -0.00075953 0.00212938 -0.0293426 -1.54589e-05 1.72599e-06 -9.11985e-06 
26.982 1 147 25.8093 13.119 2.71945 0.515774 -2.83054 0.321276 0.235747 0.268341 0.134288 -0.124196 0.190076 -2.54625 -0.00575411 0.00674782 -0.258181 -8.58999e-06 1.01299e-05 -6.36574e-05 
26.982 1 385 25.9237 15.3063 4.65613 2.82449 -0.843198 -3.62587 -0.182971 -0.0290333 0.0702057 0.00307982 0.00645793 -0.320905 -0.00467964 0.00409516 -0.0297948 -1.17672e-05 4.6879e-06 -7.23275e-06 
26.982 1 346 28.2112 13.3277 4.40004 2.5979 8.2509 0.698737 -0.588123 0.179314 0.462605 0.00146031 -0.00206291 -0.334138 -0.000490806 -5.85561e-05 -0.0325611 -1.03249e-05 2.97813e-06 -3.49627e-06 
26.982 1 152 30.0184 13.3702 2.44812 -1.52065 3.91017 -6.04032 0.625944 0.297374 -0.0207528 -0.169103 0.15437 -2.59518 -0.0118441 0.00293927 -0.254497 -6.96192e-07 1.30845e-06 -6.60547e-05 
26.982 1 349 30.2354 11.4143 4.37987 6.3675 -0.334147 0.792217 -0.211356 -0.0898565 -0.215758 -0.0133288 0.00968984 -0.285839 -0.00171665 -0.000238542 -0.0315241 -3.9266e-06 -1.75341e-06 -1.72551e-05 