ITEM: TIMESTEP
3500
ITEM: NUMBER OF ATOMS
4000
ITEM: BOX BOUNDS pp pp pp
-0.785543 41.2855
0.170564 40.3294
0.170278 40.3297
ITEM: ATOMS mass type id x y z vx vy vz fx fy fz xrad yrad zrad vxrad vyrad vzrad fxrad fyrad fzrad 
26.982 1 3 1.20956 0.192036 2.13787 -1.45002 2.30176 -4.63824 0.170959 0.112256 0.316913 -0.0376837 -0.0868438 -0.0262737 -0.0191009 -0.0498865 -0.0209033 -1.47013e-05 -5.6784e-05 -1.66645e-05 
26.982 1 8 3.40973 2.18709 2.1485 3.64057 -4.04503 -6.32177 -0.0867622 0.653974 -0.40447 0.0156973 -0.0736093 -0.0513741 0.00958669 -0.0421531 -0.0335714 2.53158e-05 -2.57503e-05 -4.25927e-05 
26.982 1 43 1.43822 4.3391 1.94817 -0.349862 1.25728 -2.1843 -0.189814 -0.337383 0.153914 -0.0355128 -0.0343047 -0.0773087 -0.0244011 -0.0175578 -0.0471721 -2.97731e-05 -9.9653e-06 -1.21618e-05 
26.982 1 202 1.44419 2.33201 4.10603 -2.10716 3.76135 0.74678 -0.467654 -0.304008 0.0843441 -0.0337318 -0.0650142 -0.0415081 -0.0194158 -0.0310617 -0.0224716 -3.26876e-05 -1.08199e-05 -2.7748e-06 
26.982 1 241 41.3029 4.3165 4.01447 0.153976 4.236 2.38893 0.0308305 -0.502318 -0.0540741 -0.0644501 -0.0663449 -0.0673703 -0.0319314 -0.032617 -0.0351279 -1.123e-06 -8.26049e-06 -8.66867e-06 
26.982 1 201 41.2071 0.479203 4.10923 -1.6371 -2.35951 -1.81833 0.26291 -0.666491 0.290931 -0.0184184 -0.0414848 -0.0426665 -0.0138269 -0.0311116 -0.0331153 5.07855e-06 -4.69947e-05 -9.04791e-06 
26.982 1 245 3.41346 4.25638 4.08523 2.36216 1.48371 -2.28124 0.247863 0.0880647 0.137306 -0.00209909 -0.0110009 -0.00993922 -0.00157298 -0.00576456 -0.00570753 3.93004e-06 1.1628e-06 5.03264e-07 
26.982 1 47 5.52332 4.32273 2.11303 -3.60639 -3.82227 -0.633534 -0.0665052 -0.266886 0.246939 -0.0153242 -0.0211651 -0.0512129 -0.0052562 -0.0140427 -0.0314979 -7.42186e-07 -2.53858e-05 -1.59814e-05 
26.982 1 206 5.43635 2.10349 4.27279 0.0435232 -5.07312 2.62669 0.0859002 0.456733 -0.0847699 -0.022184 -0.0755139 -0.0385933 -0.00650928 -0.045004 -0.0228644 1.9071e-05 -2.58176e-05 -2.40786e-05 
26.982 1 815 13.8509 0.150845 18.5089 0.0608402 0.494782 -1.87006 -0.267131 0.203396 -0.526086 0.0210418 -0.111011 -0.00694784 0.00839421 -0.0525441 -0.0129358 -1.45799e-06 -6.05506e-05 -1.56393e-07 
26.982 1 12 7.52317 2.24763 2.28116 1.91014 -4.60477 3.14671 0.0286489 0.15926 -0.253082 -0.0118098 -0.0879222 -0.0425303 -0.0057031 -0.0556582 -0.0290994 -1.83274e-06 -6.09606e-05 -3.04153e-05 
26.982 1 249 7.53476 4.22839 4.32817 2.54852 1.13418 0.683842 -0.00696018 -0.200279 -0.248136 -0.000588041 -0.00568843 -0.00488257 -0.000203668 -0.0044695 -0.00358313 -3.79303e-06 -1.06268e-05 -6.77999e-06 
26.982 1 2835 34.9411 20.2764 18.2549 0.514629 1.40602 2.38438 0.00911907 0.0201663 -0.130747 -0.00751821 -0.0183809 -0.0490801 -0.0111559 -0.0139056 -0.0255477 -1.28633e-05 2.83509e-05 -1.84843e-05 
26.982 1 16 11.7465 2.15459 2.12158 1.71324 -1.91362 -1.27623 -0.0722052 0.117307 0.586683 0.0210871 -0.0921288 -0.0470373 0.00585082 -0.0464164 -0.0289105 8.07957e-07 -3.17089e-05 -5.86066e-05 
26.982 1 51 9.50159 4.13907 2.30105 -0.549561 0.270869 1.83663 0.53538 0.113768 -0.0681593 -0.0020182 -0.00062959 -0.0352867 -0.00126078 -0.00352919 -0.0254121 1.69982e-05 -2.01449e-05 -3.07422e-05 
26.982 1 2833 33.0506 20.3683 16.0999 0.387077 0.391302 2.89546 -0.255918 -0.100982 0.212571 -0.0488809 -0.00907367 -0.0642212 -0.026341 -0.00860442 -0.0368862 -1.53289e-05 2.58799e-05 -3.9764e-05 
26.982 1 210 9.774 2.23236 4.31009 -1.66137 -2.36766 1.17603 -0.320668 -0.431496 -0.490445 0.00528184 -0.0575768 -0.0357353 -0.00173775 -0.0362263 -0.0215796 -1.76661e-05 -3.69766e-05 -2.7624e-05 
26.982 1 1161 -0.703186 16.2229 20.1823 -3.92044 5.85618 -3.61317 -0.156486 -0.340825 -0.147482 -0.0228739 -0.0319726 -0.029399 -0.0186984 -0.0185116 -0.015951 -4.72989e-05 -2.18046e-05 -6.75925e-06 
26.982 1 253 11.6773 4.15503 4.07962 -1.78752 6.48145 0.497591 0.532598 0.10049 0.0654341 0.000529014 -0.00703871 -0.00446762 8.68207e-05 -0.00366637 -0.00344783 1.10009e-05 -7.31003e-07 -9.24684e-06 
26.982 1 20 15.9507 2.08793 2.22643 -2.14248 4.39334 -1.44026 0.445584 0.393904 -0.200218 -0.0378265 -0.0937592 -0.0367488 -0.0162653 -0.049321 -0.0242136 -3.10235e-06 -4.72322e-05 -3.20756e-05 
26.982 1 55 14.0431 4.02397 2.09425 -4.65107 -1.28079 5.15063 -0.483884 0.193766 0.0906346 -0.000515074 -0.0297149 -0.0490222 -0.000102402 -0.0103857 -0.0345911 -9.79288e-06 -4.78991e-06 -5.92168e-05 
26.982 1 2827 26.5888 20.2995 18.1759 1.53549 -0.0590498 -7.19789 0.0261802 0.0390762 -0.0441716 -0.0428841 -0.019438 -0.0689949 -0.0304665 -0.0143134 -0.0367939 -2.65325e-05 2.67657e-05 -3.0497e-05 
26.982 1 214 13.8959 2.20646 4.22215 4.41381 -1.3088 -1.65217 -0.0602942 0.0114944 -0.00209722 0.0132208 -0.0737577 -0.037199 0.00644211 -0.037662 -0.0193294 1.20772e-05 -3.14444e-05 -2.08092e-05 
26.982 1 257 16.0519 4.33946 3.9378 5.59938 -0.464121 -0.114558 0.0964012 -0.381013 0.637751 -0.00110615 -0.010352 -0.00396088 -0.000377974 -0.00506075 -0.00325567 1.93147e-06 -1.06451e-05 2.63126e-06 
26.982 1 213 11.7261 0.274499 4.30414 2.98987 -0.956167 -3.47138 0.184415 -0.570852 -0.32091 -0.000513927 -0.0651859 -0.0628967 -0.00361587 -0.0394655 -0.0357321 1.67015e-06 -5.15686e-05 -4.90677e-05 
26.982 1 1000 37.0384 18.2158 18.3493 -0.712382 5.02154 5.23473 0.0777773 0.147228 -0.0761519 -0.00622405 0.0565968 -0.0152858 -0.00973623 0.0268842 -0.00292097 2.02647e-06 -5.36989e-07 3.38294e-06 
26.982 1 999 39.23 16.1988 18.2627 8.26855 -0.652933 0.145376 0.128709 -0.13785 0.092075 0.0195358 -0.00111359 -0.0167067 0.0146434 -0.000953339 -0.0128975 1.59858e-05 -4.69551e-06 -1.1757e-05 
26.982 1 2829 28.6922 20.0179 16.0664 -0.439408 5.54304 -1.14856 0.237681 0.567139 0.291001 0.00448908 0.0639609 -0.0514308 -0.00280453 0.0221944 -0.0263147 4.5758e-06 2.34441e-05 -6.16021e-06 
26.982 1 218 18.1827 2.1412 4.20268 -3.66103 5.66621 -2.46993 -0.499338 0.223234 -0.00304939 -0.00711478 -0.06737 -0.0167737 -0.00333965 -0.0363523 -0.0118225 -2.33337e-05 -2.77459e-05 -1.79934e-05 
26.982 1 18 18.1659 2.03473 0.12124 -3.22389 -0.223678 -0.210005 -0.459769 0.34593 0.349885 -0.00707483 -0.0515814 -0.120585 -0.000258082 -0.0262577 -0.0676641 -1.55101e-05 -5.05982e-06 -4.01874e-05 
26.982 1 59 18.1651 4.24384 2.03186 -1.53997 0.545241 -0.675737 -0.516217 -0.410098 0.215038 0.00330358 -0.00349995 -0.0277575 0.00365981 -0.000238867 -0.023705 -8.72864e-06 -1.43971e-05 -3.44527e-05 
26.982 1 998 39.1754 18.2036 16.3898 -2.49336 1.40985 -0.871186 0.110545 0.0381753 -0.327351 0.0147616 0.0051257 -0.0200414 0.00973472 0.00151083 -0.0107294 5.38569e-06 1.70472e-05 -2.05945e-05 
26.982 1 2821 20.2155 20.2857 16.4123 -5.11386 -0.304492 -1.43802 -0.0773858 -0.405357 -0.211878 0.0123194 0.054704 -0.0466672 -0.00276184 0.024125 -0.0253669 -3.07982e-05 2.30386e-05 -3.30751e-05 
26.982 1 24 20.2225 2.2021 2.28166 -1.14575 -1.77507 -2.37981 -0.0989127 -0.177638 -0.56952 0.00705644 -0.0715483 -0.018314 0.0054215 -0.0384687 -0.0198322 9.28608e-06 -2.09762e-05 -4.36017e-05 
26.982 1 63 22.2849 4.22383 2.15436 -4.88236 -0.931158 2.55044 -0.104201 -0.468822 -0.308098 0.000501652 0.00739766 -0.0425524 0.000157473 0.00272351 -0.0352499 -9.85884e-07 -2.47304e-05 -4.76418e-05 
26.982 1 222 22.2464 2.17935 4.20238 0.142513 1.83111 -2.71773 0.255171 -0.159213 0.0550178 -0.0146923 -0.0542017 -0.0239477 -0.00510399 -0.0317776 -0.0158921 6.70339e-06 -2.11589e-05 -1.69851e-05 
26.982 1 261 20.0806 4.14433 4.19829 -0.709945 0.236217 -0.859321 0.422753 0.0482567 0.144746 0.00047584 -0.00714859 -0.00407002 0.000326448 -0.00386375 -0.00397106 4.5926e-06 -4.18102e-06 -1.60952e-06 
26.982 1 28 24.2734 2.13602 2.05512 1.83913 -0.117294 -5.20315 0.539218 -0.24719 0.549846 -0.00858958 -0.0382295 -0.033219 -0.00815235 -0.0237315 -0.0272106 -2.15855e-05 -2.43029e-05 -4.92354e-05 
26.982 1 27 26.7224 0.196795 2.05391 0.356963 -2.93713 2.19184 -0.689677 -0.319199 0.520294 0.0379857 -0.121707 -0.0281127 0.00930529 -0.0697973 -0.0197706 -8.06212e-06 -6.0733e-05 -2.79174e-05 
26.982 1 67 26.5453 4.06257 2.15633 -1.05371 -2.15675 2.09708 -0.162517 0.17258 0.0196136 0.000701038 0.00250673 -0.0519828 6.53065e-05 0.00317509 -0.0380442 -2.78724e-06 4.12116e-06 -3.5199e-05 
26.982 1 226 26.402 2.09422 4.18423 -2.79515 0.854611 -2.10298 0.217025 -0.0907358 0.0538493 0.0195416 -0.0420127 -0.00886911 0.00483014 -0.0215784 -0.0055783 1.10725e-06 -9.34404e-06 -1.61794e-06 
26.982 1 265 24.3879 3.98591 4.07156 -3.57644 -0.100542 -0.000754697 -0.0749076 0.417118 0.443848 -0.000168987 -0.00315102 -0.00517953 -0.000264072 -0.00236982 -0.00439047 -8.67577e-07 3.70259e-06 8.0339e-07 
26.982 1 26 26.5397 2.12045 0.202434 0.775536 2.33478 1.88345 0.128245 0.0149839 -0.111946 0.00934281 -0.0335829 -0.0988087 -0.00058898 -0.0129232 -0.0587882 -2.97613e-06 -3.01226e-06 -6.3812e-05 
26.982 1 30 30.7556 2.32478 0.152451 0.967751 0.935984 0.0639848 0.276773 -0.957987 -0.267181 -0.00351735 -0.0693307 -0.118751 -0.00658136 -0.0241973 -0.0717014 -1.58351e-05 9.8689e-06 -6.11172e-05 
26.982 1 32 28.6772 2.00315 2.26778 2.74368 -4.12952 -0.379394 0.0797469 0.399293 -0.0714486 0.00507764 -0.0740876 -0.0328175 -0.000724679 -0.028866 -0.0249066 1.91636e-06 -1.90408e-06 -3.81053e-05 
26.982 1 71 30.833 4.12503 2.17853 2.70285 1.74955 4.08051 0.0338632 0.197895 0.23738 -0.00361792 -0.00577579 -0.0256916 -0.00427626 0.00057532 -0.022404 -3.95635e-06 1.74715e-05 -4.01152e-05 
26.982 1 230 30.7245 2.03524 4.10038 0.201645 -1.82358 -1.61891 0.159655 0.132328 0.321556 -0.00943577 -0.0656839 -0.0204854 -0.00504107 -0.0267274 -0.00836944 1.88311e-06 -2.62653e-06 1.31548e-06 
26.982 1 269 28.5104 3.96308 4.22617 -4.90206 2.79688 -2.28223 0.217068 0.355097 0.043227 -0.000439265 -0.00750361 -0.00450006 -0.00062087 -0.00284339 -0.00384046 4.90608e-06 6.72474e-06 -2.81219e-06 
26.982 1 36 32.8599 2.0064 1.97039 -5.13175 -1.38611 0.950271 0.232866 0.404823 0.34977 0.000867495 -0.0678952 -0.043311 0.000392337 -0.0257799 -0.023317 6.25591e-06 1.14786e-05 -1.86786e-05 
26.982 1 2805 3.31405 20.2241 16.1791 5.58402 -1.35336 4.81614 0.167001 0.0819697 -0.0569259 -0.00528037 -0.0491009 -0.0383137 -0.00199294 -0.0242275 -0.0245003 2.02262e-06 2.99291e-05 -2.85854e-05 
26.982 1 273 32.8121 4.0574 4.08044 1.48519 2.11599 -2.05122 -0.030217 0.0644411 0.241686 0.0010543 -0.00563345 -0.00392211 0.000467893 -0.00183856 -0.00259618 -2.36372e-06 1.01544e-06 -2.17242e-06 
26.982 1 229 28.767 0.0753852 4.26041 1.06921 0.699459 3.58441 -0.344336 0.160858 -0.174878 -0.000627978 -0.0177411 -0.0152784 -0.000842686 -0.0235824 -0.0133336 -4.89404e-06 -4.08346e-05 -2.32194e-05 
26.982 1 31 30.8427 0.052325 2.113 -1.34534 -1.7713 -1.18101 -0.307505 0.379883 -0.0192705 -0.022759 -0.0688519 -0.0435529 -0.0115592 -0.0540862 -0.0227581 -1.66923e-05 -5.90796e-05 -2.23859e-05 
26.982 1 997 37.1029 16.2831 16.2683 -0.441136 5.26942 -0.352336 0.362167 -0.312254 0.0293239 0.000280385 -6.59331e-06 -0.000453743 0.000327323 0.000248919 -0.000239705 6.72067e-06 -5.11432e-06 1.82004e-06 
26.982 1 33 32.7279 0.130849 -0.00725932 -1.32204 -2.70559 -6.26971 0.41732 -0.113383 0.359551 0.0177278 -0.0427499 -0.0963981 0.00409626 -0.0351945 -0.052343 3.05065e-06 -4.00262e-05 -4.66916e-05 
26.982 1 35 35.0197 -0.057277 2.27217 -3.76838 0.10115 1.4446 -0.300715 0.687861 -0.295853 0.00175321 -0.11624 -0.0561241 0.00576367 -0.069774 -0.0269773 1.16307e-05 -5.45216e-05 -2.36633e-05 
26.982 1 75 34.9848 4.23314 2.23489 -2.55726 1.35802 1.17464 -0.0537771 -0.218317 -0.388553 0.0295088 -0.00423575 -0.0758452 0.0146259 0.000462787 -0.0406882 -4.90915e-07 1.10469e-05 -5.27178e-05 
26.982 1 234 34.99 2.2897 4.04221 2.8458 1.37092 1.18375 -0.0752221 -0.597185 0.228639 -0.00234776 -0.0374219 -0.0128978 0.00149152 -0.0172597 -0.00612764 -9.48552e-07 -1.35333e-05 -2.43325e-06 
26.982 1 34 34.9619 2.06327 0.139406 -1.41566 -0.436431 -2.81077 -0.0414733 0.0177961 0.138741 0.0183356 -0.0174918 -0.0689253 0.0138785 -0.00537565 -0.0550252 1.57302e-05 6.99469e-06 -5.73284e-05 
26.982 1 233 32.8476 0.195449 4.08522 4.63146 0.59699 -0.52178 0.200167 -0.1666 0.29302 0.00101424 -0.0519888 -0.0246837 0.000533992 -0.0412781 -0.0179644 2.41778e-06 -4.38327e-05 -9.60684e-06 
26.982 1 237 37.1515 0.324913 4.12159 3.74547 -1.59633 2.44485 -0.541578 -0.560214 -0.058576 0.018215 -0.0650256 -0.052033 0.00917064 -0.0393676 -0.0284823 -4.92255e-06 -4.80524e-05 -1.71479e-05 
26.982 1 4 -0.679196 2.21166 2.03825 3.01754 -6.55606 -1.09171 0.00257042 0.284744 0.0123221 -0.0403094 -0.0646304 -0.0699554 -0.0241996 -0.0309519 -0.0388336 -5.66335e-05 -2.58101e-06 -4.18626e-06 
26.982 1 40 36.9911 2.31799 2.08278 -4.96909 -0.397803 0.764875 0.215778 -0.422824 0.391718 0.0377962 -0.0487012 -0.0996778 0.0211221 -0.0231261 -0.0510369 1.08272e-05 -5.70483e-06 -4.97062e-05 
26.982 1 79 39.3752 4.12194 1.99297 -0.316657 -1.38182 -1.38724 -0.302393 0.359018 -0.131061 -0.0176387 -0.0257259 -0.091516 -0.00811838 -0.0125857 -0.051404 -5.47228e-06 -6.55509e-06 -4.88029e-05 
26.982 1 238 39.0779 2.19103 3.86729 -3.0197 -1.38629 1.93981 0.345586 0.572024 0.998101 0.00368985 -0.0641782 -0.0428632 -0.000490601 -0.0309863 -0.0221062 3.7161e-06 1.89856e-06 4.83372e-06 
26.982 1 277 37.203 4.33507 4.24298 0.884418 -0.714403 4.23852 -0.179395 -0.329592 -0.417778 0.00119466 -0.00514314 -0.0132875 0.000698823 -0.00257476 -0.00721951 -1.2839e-06 -1.86852e-06 -9.41448e-06 
26.982 1 2801 41.3597 20.1998 16.0836 -2.03747 -1.70001 -0.722929 -0.00595394 0.119915 0.467884 -0.0788599 -0.00303724 -0.0591554 -0.045696 -0.00362549 -0.0380781 -2.89589e-05 9.91641e-06 -1.25627e-05 
26.982 1 2803 1.36347 20.3156 18.2967 7.32216 -0.587667 3.94929 -0.119158 -0.23051 -0.217154 -0.0646587 -0.0763746 -0.0338093 -0.0385682 -0.031701 -0.0175455 -3.3717e-05 2.86343e-05 -3.30014e-05 
26.982 1 637 37.1879 0.206133 12.1258 0.56309 0.820168 -0.22313 -0.370702 -0.176443 -0.0682586 0.00329071 -0.0507621 -0.0262222 0.000697344 -0.0243319 -0.0183993 -6.93297e-06 -4.64998e-05 -4.50547e-05 
26.982 1 83 1.24944 8.16754 2.1645 -2.46365 0.114365 5.06412 -0.00170518 0.638588 0.029346 -0.0601924 -0.0102799 -0.0660244 -0.0309776 -0.00762853 -0.0452848 -3.78629e-05 -6.3126e-06 -1.60654e-05 
26.982 1 242 1.32837 6.13797 4.14516 0.287005 -1.56074 0.262469 0.0194045 0.477243 0.108269 -0.0601291 0.0203508 -0.0352826 -0.0305354 0.00599283 -0.0187633 -3.21344e-05 -3.24218e-06 -1.18418e-05 
26.982 1 44 41.3546 6.34531 2.10279 -6.89355 -2.71081 1.42437 -0.255998 -0.242029 -0.357046 0.0131006 -0.0686838 -0.063256 -0.00099954 -0.0313056 -0.0443767 7.3133e-06 -1.63746e-05 -3.7743e-05 
26.982 1 281 -0.83851 8.32322 4.25589 0.889471 4.0979 -3.57633 0.00310961 -0.115846 -0.34305 -0.00897038 -0.0132405 -0.0162719 -0.0143946 -0.0132985 -0.016309 -2.56939e-05 -2.9972e-05 -3.45914e-05 
26.982 1 48 3.37639 6.34495 2.06227 -4.54144 0.106117 -2.45144 0.324217 -0.292079 0.363833 -0.0230381 -0.00366847 -0.0654283 -0.0138702 0.000160374 -0.0391758 -7.75713e-08 -6.28039e-06 -1.27155e-06 
26.982 1 285 3.53496 8.28027 4.10899 1.39326 2.44178 5.69112 -0.349633 -0.373635 -0.0250739 -0.00913137 0.00032146 -0.00882408 -0.00410619 6.40347e-05 -0.00517601 -8.51019e-06 -8.54844e-06 1.76287e-06 
26.982 1 46 5.58319 6.30425 0.203827 0.462788 1.16521 -0.552137 -0.0542405 -0.266696 -0.193533 -0.0153251 0.00637232 -0.137493 -0.00583795 0.00440348 -0.0788219 9.61401e-07 -3.03204e-06 -6.43646e-05 
26.982 1 52 7.68477 6.24425 2.18914 0.448124 -4.61013 -0.264415 -0.0981022 0.0450494 -0.106012 0.00932291 0.0116897 -0.0476761 0.00483105 0.00543028 -0.0302066 7.3401e-07 -1.77234e-07 -1.11481e-05 
26.982 1 87 5.55129 8.26335 2.08737 -6.41328 -5.32463 -2.12382 0.182254 0.0979308 0.180555 -0.00191577 0.0138487 -0.0605357 -0.00115942 0.00452267 -0.0338051 1.93178e-06 2.31128e-06 -6.92696e-06 
26.982 1 86 5.73822 10.2444 0.0694434 -0.872018 2.90841 -0.308122 -0.681058 0.174153 0.322441 -0.0117561 -0.0134814 -0.0701493 -0.00377768 -0.00918161 -0.0561764 3.62293e-06 1.82029e-05 -6.16358e-05 
26.982 1 246 5.69653 6.27487 4.13859 5.60036 1.66578 5.51936 -0.743946 -0.145373 0.0947432 -0.000206729 -4.16476e-05 -0.00420712 -3.20631e-05 4.23717e-05 -0.00250944 -1.4746e-05 -4.89259e-06 1.74663e-06 
26.982 1 289 7.61818 8.22917 4.12075 5.56679 -1.31055 -1.07612 0.461113 0.200693 -0.00275738 0.000609923 0.000363305 -0.00775421 0.000409014 0.000165923 -0.00436121 8.83415e-06 4.45517e-06 -1.31115e-06 
26.982 1 286 5.6355 10.1762 4.13266 1.29212 1.82738 -1.49732 -0.131679 0.354216 -0.0270841 -0.000459539 0.000179536 -0.00704373 -8.77118e-05 4.51204e-05 -0.00337548 -2.34198e-06 7.70027e-06 -3.14028e-06 
26.982 1 56 11.8323 6.11913 2.00857 -1.5736 2.27837 -1.67487 -0.0858324 -0.0270558 0.396571 -0.00555315 0.0290687 -0.0624384 0.00129852 0.0120902 -0.0392825 1.5282e-05 -2.12268e-05 -3.47197e-05 
26.982 1 91 9.93793 8.21381 2.15109 -1.80043 2.45436 -1.82358 -0.656526 -0.0301363 -0.143751 0.014103 0.00981344 -0.0880263 0.00521674 0.00458366 -0.0478424 -6.24898e-06 -2.63474e-07 -1.26376e-05 
26.982 1 250 9.63073 6.24594 4.25861 -2.325 0.596763 5.10711 0.165076 0.0436842 -0.267536 0.000778813 0.000907237 -0.00522554 0.000302806 0.00037459 -0.00319148 4.22109e-06 2.28493e-06 -5.60244e-06 
26.982 1 293 11.8435 8.12048 4.08863 0.0710247 -0.804248 0.244403 0.140214 0.332799 0.207609 -0.000824127 0.000582097 -0.0103288 -0.000295622 0.000329377 -0.00567144 3.46807e-06 6.40169e-06 1.90165e-06 
26.982 1 50 9.66401 5.99272 0.272632 -1.87503 -0.0311582 3.54125 0.424269 0.486124 -0.244246 0.0116198 0.0220967 -0.0901855 0.00430803 0.00809201 -0.0545062 2.17277e-05 -7.40269e-06 -6.42243e-05 
26.982 1 95 13.9682 8.21362 2.22211 1.88444 1.21354 -1.8311 -0.146957 0.0312112 -0.139684 -0.0231426 0.0125772 -0.0706678 -0.00922066 0.0015786 -0.0433245 -1.96132e-06 5.57918e-07 -2.94542e-05 
26.982 1 254 13.8003 6.12049 4.05814 4.71948 -3.88892 1.31795 0.379769 -0.0269368 0.208619 -0.000456529 7.95484e-05 -0.00407802 4.26779e-05 6.74463e-05 -0.00364095 6.27321e-06 -1.78408e-06 -2.05057e-06 
26.982 1 427 26.429 0.252281 10.2233 -2.65139 2.2003 1.23745 0.201922 -0.597531 -0.384591 0.0213433 -0.0511293 -0.024066 0.0061514 -0.0216081 -0.0150599 1.28348e-05 -7.02634e-05 1.77984e-06 
26.982 1 96 11.9309 10.3027 2.0976 -6.75753 -3.29426 -0.471658 -0.07338 -0.400773 0.210778 -0.00281651 -0.0230657 -0.0846507 -0.00170034 -0.00740854 -0.0481322 1.31643e-05 1.12535e-05 -3.48634e-05 
26.982 1 100 15.9474 10.2619 2.0579 7.494 -0.719148 -5.0566 0.425351 -0.0485471 0.214127 0.000144535 0.0160587 -0.07236 -0.00017172 0.00764265 -0.0413147 7.61151e-06 1.60384e-05 -4.61057e-05 
26.982 1 294 14.0313 10.272 4.14863 3.19227 -4.6643 0.224212 -0.264227 -0.31616 -0.0802145 -0.000311536 0.00100126 -0.00841237 -3.97299e-05 0.000412424 -0.00474963 -3.49325e-06 -5.37968e-06 -4.6356e-06 
26.982 1 625 24.3621 0.369693 12.1799 3.15384 -5.3753 -5.44837 -0.265335 -1.05237 0.410699 -0.0107149 -0.0506643 -0.035947 -0.00505723 -0.0245119 -0.0184112 -1.41513e-05 -5.87801e-05 -2.16028e-05 
26.982 1 60 15.9569 6.23488 1.95796 -0.406721 -4.71192 1.99166 0.288436 -0.137765 0.364363 -0.00162791 0.0051485 -0.0334217 -0.00289397 0.00214579 -0.0285504 -9.86841e-06 -1.58607e-05 -3.14653e-05 
26.982 1 297 16.1811 8.17113 4.15329 -3.45034 -5.38081 5.02869 -0.544752 0.0536837 -0.183221 -3.1703e-05 0.00105778 -0.00508067 -0.000135146 0.000253524 -0.00347773 -1.02223e-05 1.19539e-08 -6.05259e-06 
26.982 1 99 18.1144 8.23237 2.14357 1.03635 -1.37651 -0.116121 -0.155284 -0.322311 -0.0643943 0.0104669 0.0134385 -0.055986 0.00084616 0.00400404 -0.0316206 -3.35932e-06 9.91007e-06 -2.88722e-05 
26.982 1 258 18.1771 6.14012 4.26245 -2.67133 2.77269 -4.70369 -0.307591 0.0349373 -0.535112 0.000637685 0.00117675 -0.00306116 0.000119776 0.000326051 -0.00277447 -7.60631e-06 -2.3247e-06 -1.1207e-05 
26.982 1 301 20.0571 8.18435 4.15585 -0.62139 2.33764 7.01996 0.487556 0.365451 -0.268615 0.000883062 0.000729986 -0.00801196 0.000263818 0.000293617 -0.00374152 6.0689e-06 1.05911e-05 -6.11507e-06 
26.982 1 298 18.0322 10.3314 4.19091 -4.44498 5.48152 -1.02692 0.303394 0.00271185 0.0173511 0.000556742 0.000451047 -0.00848406 -4.87142e-05 0.000285577 -0.00460944 4.27611e-06 3.96417e-06 -4.59197e-06 
26.982 1 101 20.3496 8.23748 0.0506639 -0.265087 -3.01446 -3.46787 -0.289955 -0.302591 0.304617 0.0187287 -0.00747213 -0.0704365 0.00896495 -0.00450516 -0.0561778 -2.18679e-06 2.19556e-05 -5.87559e-05 
26.982 1 64 20.155 6.05849 2.11939 3.03659 3.74417 0.0185837 -0.123356 0.581726 -0.324989 0.0108151 0.0116318 -0.0548044 0.00543777 -0.00133591 -0.0353455 -2.28571e-06 -5.14116e-06 -3.26203e-05 
26.982 1 103 22.2635 8.12714 2.1333 -1.22598 -3.41381 2.8193 -0.167337 0.312326 -0.352273 0.000375345 0.0132151 -0.0863425 0.000229445 0.00356922 -0.0428672 -3.51756e-06 1.84751e-05 -2.86562e-05 
26.982 1 262 22.0752 6.22713 3.93907 -2.85547 -2.28937 0.123386 0.36513 -0.226623 1.18981 -8.97427e-07 0.00136434 -0.00685826 -4.83846e-05 -5.52591e-06 -0.0044429 6.71015e-06 -4.7891e-06 1.39046e-05 
26.982 1 105 24.5965 8.18894 0.0815236 -3.00245 -1.97033 4.16275 -0.33093 0.00840576 0.231055 -0.00635243 -0.0137574 -0.0694797 -0.00243826 -0.00776899 -0.0558239 8.15759e-07 1.44167e-05 -5.96633e-05 
26.982 1 302 22.2745 10.2791 4.00185 3.14573 -0.809507 0.367872 -0.120271 -0.24463 0.45684 -0.000384928 0.000185399 -0.0120437 3.58954e-05 8.22282e-05 -0.00577075 -4.93923e-06 2.32042e-07 -1.47979e-07 
26.982 1 621 20.0817 0.156156 12.276 -2.14566 -3.29452 1.33703 0.404859 0.02949 0.0203683 0.0125852 -0.0505114 -0.0415469 0.00370872 -0.0243289 -0.0230024 -2.81075e-06 -4.56584e-05 -4.30028e-05 
26.982 1 68 24.2568 6.12596 2.37612 0.101812 5.4062 0.229789 0.739188 0.138547 -0.587897 0.000274056 0.011187 -0.0653655 0.000420478 -0.00136303 -0.0408699 1.56562e-05 -8.38827e-06 -3.02458e-05 
26.982 1 107 26.5901 7.99194 2.11404 -0.363195 2.76377 -3.42553 -0.273561 0.435809 0.305107 0.01144 -0.0117354 -0.0764614 0.0101431 -0.0065278 -0.0438873 1.10312e-05 1.59606e-05 -2.99955e-05 
26.982 1 266 26.5611 6.14948 4.13805 -3.83435 -0.325175 3.01949 -0.259781 -0.230871 0.233261 0.000337037 0.00113521 -0.00737407 0.000281819 0.000422831 -0.00490524 -2.83969e-06 -4.04881e-06 9.732e-07 
26.982 1 305 24.294 8.33195 4.10559 -1.33941 1.70807 0.660671 -0.0302252 -0.719629 0.515711 -0.000698041 0.000456642 -0.00879539 -4.69401e-05 0.000231761 -0.00420643 5.27565e-07 -8.77348e-06 2.82136e-06 
26.982 1 605 3.3576 0.325822 12.3633 -6.38439 0.258813 -5.71109 -0.0315708 -0.203964 -0.294221 -0.00841559 -0.00151303 -0.00957187 -0.00388821 -0.00790425 -0.0082498 -3.62594e-07 -4.05448e-05 -2.37068e-05 
26.982 1 306 26.4696 10.0878 4.25048 0.588675 3.84493 -6.32384 0.235487 0.212816 -0.562417 -0.000397774 -0.000520044 -0.0055944 -0.000111531 -0.000258539 -0.00361896 6.05343e-06 2.60987e-06 -1.36344e-05 
26.982 1 72 28.6761 5.97566 2.24812 -3.41122 0.282529 -3.04478 0.135442 0.183284 0.137278 -0.0131861 0.0243854 -0.0655085 -0.00693436 0.0100555 -0.0450828 1.61485e-05 1.62438e-06 -4.26984e-05 
26.982 1 407 5.39078 0.0793233 10.2841 4.00117 -2.11311 -3.01333 0.0670064 0.699436 -0.0865495 0.0266818 -0.0260362 -0.0295355 0.013674 -0.023451 -0.0151772 1.63698e-05 -5.3695e-05 -1.84247e-05 
26.982 1 111 30.8824 7.96347 2.11351 -0.560881 -1.8091 -2.56183 -0.167683 0.430402 0.391588 -0.0129805 -0.000695398 -0.062016 -0.00891892 -0.0025348 -0.0366893 -6.73688e-06 -8.03682e-06 -4.95642e-05 
26.982 1 270 30.8506 6.21361 4.2895 0.122628 0.636276 2.40441 -0.451034 -0.227888 -0.117123 4.72917e-06 0.00111826 -0.00424985 -0.000248795 0.000522738 -0.00323148 -8.26473e-06 -3.96415e-06 -7.31337e-06 
26.982 1 309 28.5619 8.1698 4.16728 -2.02538 -1.16879 2.83997 0.202548 -0.19113 -0.00741388 -0.00039115 9.16502e-06 -0.00950924 -0.000402759 -0.000141792 -0.00594675 4.47258e-06 -3.68887e-06 -6.42936e-06 
26.982 1 112 28.6961 10.0255 2.09796 1.29754 1.63874 -0.449632 -0.0610668 0.387421 0.384549 -0.00189882 -0.0271492 -0.0505536 -0.00262523 -0.0135349 -0.0334137 -1.06967e-05 9.68682e-07 -5.12712e-05 
26.982 1 76 32.9373 6.18602 2.1931 4.49766 -4.30859 2.1385 -0.0523195 -0.191594 -0.116807 0.014125 0.0134428 -0.0501575 0.00463104 0.00463544 -0.0303419 4.45639e-07 1.74594e-06 -5.911e-05 
26.982 1 603 1.28718 0.202539 14.3506 -3.51231 0.469423 -0.30135 0.0694323 0.114711 -0.197918 -0.0757281 -0.0360711 -0.0276925 -0.0424036 -0.0257747 -0.0131391 -3.12845e-05 -4.16651e-05 8.62649e-06 
26.982 1 2435 34.9291 20.2628 10.2217 2.82736 4.80083 -1.08432 0.747541 0.193241 -0.125588 -0.0239169 0.00585196 -0.0492772 -0.00988226 -0.00164986 -0.0307712 -1.03456e-05 4.32272e-05 -3.42469e-05 
26.982 1 115 35.1501 8.20987 2.03686 -1.17904 -2.09864 -1.46207 -0.42318 -0.269834 0.37595 -0.0118542 -0.00919121 -0.0534889 -0.00579952 2.87943e-05 -0.0324929 -2.18699e-05 -3.72879e-07 -4.11934e-05 
26.982 1 274 34.9053 6.14669 4.1077 -0.848435 -0.26546 -0.995179 0.247033 0.266683 0.39319 0.00155466 -0.000774163 -0.00720049 0.000669149 -0.000382214 -0.0039302 3.72541e-06 5.77933e-06 -1.828e-06 
26.982 1 313 32.8013 8.15958 4.34318 3.41502 0.680406 0.560272 0.092865 0.0823869 -0.201156 0.000505239 0.000233653 -0.00609231 0.000192436 0.000244178 -0.00346766 4.61319e-06 1.64356e-06 -7.91698e-06 
26.982 1 117 37.0886 7.99116 0.0175703 1.48056 -1.93262 0.297301 0.232 0.533852 0.0586952 0.0145401 0.00162914 -0.137014 0.00372076 0.00477607 -0.0785852 -1.05657e-05 1.30941e-05 -5.90516e-05 
26.982 1 120 37.0502 10.1839 2.10102 -0.968912 -3.41838 3.58408 0.190982 -0.133482 -0.0783873 0.0203056 0.0189948 -0.0677815 0.00605751 0.0116975 -0.0409809 1.96943e-06 1.18326e-05 -4.91057e-05 
26.982 1 80 37.2204 6.12029 2.02891 -2.06185 0.795678 -2.39543 0.0885645 0.139372 0.319873 -0.00128732 -0.0306061 -0.0720999 -0.000278244 -0.0171564 -0.0396189 -9.23742e-06 -1.12502e-05 -2.90993e-05 
26.982 1 119 39.2789 8.29654 2.07375 0.780091 -2.19884 -0.651271 -0.330142 -0.211786 -0.0570641 0.0128639 0.0120816 -0.0657129 0.00838374 0.0060251 -0.0366783 4.05991e-06 7.66331e-06 -3.53258e-05 
26.982 1 278 39.2997 6.16061 4.09145 -0.750801 -0.871014 1.11624 -0.399456 0.415607 -0.0187891 0.0297926 -0.0303787 -0.00921131 0.0150251 -0.0152577 -0.00506856 -6.68294e-06 6.53504e-06 -5.43603e-06 
26.982 1 317 36.9517 8.20758 4.19338 0.782267 -1.57224 -0.502029 0.180041 -0.22684 -0.0479003 0.000213393 -0.000892565 -0.00496017 6.63495e-05 -0.000258331 -0.00286134 3.13421e-06 -6.09395e-06 -5.18077e-06 
26.982 1 2431 30.7479 20.5129 10.1128 -1.35752 -0.288304 0.668961 0.269822 -0.746704 0.407922 -0.0374688 0.0457727 -0.0443671 -0.0190706 0.0185911 -0.0301538 1.50276e-05 3.1867e-05 -3.13227e-05 
26.982 1 78 39.315 6.10837 -0.0936857 -1.30649 -1.75325 2.80754 -0.182609 0.138189 0.156903 -0.00326813 -0.0342087 -0.0880009 -0.000986504 -0.0166273 -0.0533682 1.15853e-05 -1.00124e-05 -5.33991e-05 
26.982 1 88 3.51334 10.3766 2.23477 0.493424 4.50318 2.18992 0.0117411 0.149176 -0.134878 -0.0223529 -0.00442001 -0.0843541 -0.0128894 -0.00468718 -0.043913 -3.3518e-07 2.86813e-06 -1.05492e-05 
26.982 1 123 1.21287 12.1724 2.09303 -2.50911 -4.00427 4.46582 0.170852 0.515784 -0.158837 -0.0567336 -0.035611 -0.0801826 -0.0287555 -0.0159326 -0.0440204 -2.53427e-05 5.52511e-06 -1.62807e-05 
26.982 1 128 3.48263 14.083 2.21893 1.5749 4.84177 -2.12076 -0.0443773 0.331938 -0.319977 -0.00814139 -0.000241935 -0.0596164 -0.00312086 0.000263578 -0.0316684 -1.66102e-07 3.30277e-06 -1.38041e-05 
26.982 1 282 1.29471 10.3684 3.96956 1.02773 7.26484 0.666195 -0.187306 -0.671017 0.513642 -0.0640239 -0.0100464 -0.0289883 -0.0280587 -0.00335678 -0.0129051 -2.04721e-05 -3.45335e-06 3.34692e-06 
26.982 1 322 1.14431 14.2019 4.02599 0.981852 7.37928 0.313377 0.159024 0.133097 0.458782 -0.0406053 -0.0157128 -0.0243777 -0.0182885 -0.00741606 -0.0101533 -1.7446e-05 -5.91348e-06 6.21312e-06 
26.982 1 84 -0.947822 10.3897 2.18155 1.67489 3.20205 1.88242 0.158305 -0.436006 -0.0513545 -0.0335354 -0.0302313 -0.107009 -0.0364086 -0.0118114 -0.0548562 -5.52806e-05 3.14089e-07 -2.11007e-05 
26.982 1 124 -0.92679 14.165 2.19652 -2.28968 -4.69006 -0.43867 0.0534342 0.146759 -0.107314 -0.0393959 -0.0291747 -0.0761855 -0.0412353 -0.017128 -0.0396309 -5.6025e-05 -2.61823e-05 -8.89861e-06 
26.982 1 321 41.051 12.2373 4.3312 -2.03217 -2.02974 -4.22674 0.291319 0.0954474 -0.650717 -0.0315837 -0.0204158 -0.0282837 -0.0212684 -0.0132266 -0.0173905 4.27409e-06 -4.37791e-06 -1.20073e-05 
26.982 1 122 1.46865 14.2758 0.188369 2.30275 -2.54515 -1.39092 -0.254305 -0.378215 0.12232 -0.0699349 -0.0129741 -0.0747627 -0.0349499 -0.00849277 -0.0491841 -1.7078e-05 -1.09135e-05 -5.88441e-05 
26.982 1 125 3.44215 12.2375 0.124012 -2.93538 1.47424 2.65278 0.402991 -0.0664958 0.0903545 -0.0130021 -0.0331671 -0.0900205 -0.00851203 -0.0146747 -0.0546723 6.15654e-06 -1.17709e-06 -6.08199e-05 
26.982 1 325 3.31963 12.3133 4.29539 0.815967 0.55274 -3.78408 0.389352 -0.485612 -0.529615 -0.00638266 -0.0016785 -0.00811394 -0.00286664 -0.000615086 -0.00404104 5.63978e-06 -6.53659e-06 -5.8184e-06 
26.982 1 127 5.6653 12.3211 2.16749 4.74317 0.323645 3.78634 -0.295723 -0.341927 -0.0457287 -0.00956056 -0.00492838 -0.0540345 -0.00261981 3.58453e-05 -0.0283571 9.5673e-06 -5.27936e-06 -2.41281e-05 
26.982 1 326 5.59146 14.2011 4.18214 -0.639802 5.17436 0.472684 -0.119247 0.214301 0.00971102 -0.000145637 0.000269709 -0.00545452 0.000119677 0.000259521 -0.00314804 -1.3131e-06 2.34698e-06 -2.65471e-06 
26.982 1 126 5.6426 14.4225 0.0934545 -7.85313 -0.292369 -4.04969 -0.329269 -0.33101 0.00875184 0.00534038 0.00102457 -0.0902418 0.00730893 0.00187291 -0.0545046 4.54119e-06 -1.6858e-05 -6.02602e-05 
26.982 1 92 7.72024 10.1974 1.99911 -3.31885 -2.07752 1.19774 -0.0890924 0.102871 0.589321 0.00540156 -0.0134321 -0.0660903 0.00492246 -0.00681668 -0.0366422 -9.53406e-07 1.59326e-05 -1.37545e-05 
26.982 1 2629 28.7094 20.2382 12.0627 5.66323 -1.97397 -0.87492 0.397025 -0.0140906 0.197543 -0.0423771 -0.0135354 -0.0763556 -0.025842 -0.0132703 -0.0438403 -3.11056e-05 2.34953e-05 -3.27879e-05 
26.982 1 132 7.6715 14.33 2.16303 -1.90032 -2.41621 0.398161 -0.157356 0.110403 0.0389443 0.0043022 0.0132879 -0.0567496 0.0046511 0.00720815 -0.0366685 -3.28216e-06 -1.40518e-05 -2.19874e-05 