ITEM: TIMESTEP
16000
ITEM: NUMBER OF ATOMS
4000
ITEM: BOX BOUNDS pp pp pp
-3.32607 43.8261
0.854331 39.6457
1.00437 39.4956
ITEM: ATOMS mass type id x y z vx vy vz fx fy fz xrad yrad zrad vxrad vyrad vzrad fxrad fyrad fzrad 
26.982 1 43 -2.02566 5.62488 2.52035 -2.54466 0.6854 -1.4122 0.302742 0.105787 -0.379129 -0.963118 -0.468622 -1.47256 -0.118879 -0.0377592 -0.195407 -3.25141e-05 1.12773e-05 -3.84617e-05 
26.982 1 202 -1.46654 3.48226 4.10787 0.0881303 -0.372363 -0.146104 0.258572 -0.104012 0.194748 -0.905107 -0.834746 -0.830177 -0.112133 -0.102551 -0.106707 -1.75385e-05 3.1729e-06 -1.56211e-05 
26.982 1 964 42.9366 18.1269 17.7555 -1.6457 -1.86263 -4.79257 -0.0453301 0.00714563 0.466318 -1.10421 -0.0568942 -0.311326 -0.103984 -0.0165498 -0.050966 2.42637e-05 5.74216e-06 -1.96969e-05 
26.982 1 961 42.7188 15.9868 15.9839 -1.2443 -0.659811 -0.570977 -0.177911 0.283273 0.212857 -0.867342 -0.544769 -0.626892 -0.0923967 -0.0639348 -0.0732015 6.86458e-06 1.56741e-06 -8.2996e-06 
26.982 1 5 -0.0828389 1.28026 1.53087 -3.14237 0.312188 -4.00685 -0.273803 0.38476 -0.636659 0.085534 -0.732334 -1.15661 0.0142712 -0.0972822 -0.149729 8.34972e-06 -2.96011e-05 -4.33145e-05 
26.982 1 245 1.60736 4.24743 4.44098 1.0899 -5.42463 -7.45212 0.0860045 -0.121355 0.632814 -0.0701612 -0.149179 -0.213046 -0.00961659 -0.016517 -0.0284996 -1.07297e-05 -4.68102e-06 1.66464e-06 
26.982 1 8 1.66881 3.6787 1.62053 -2.80726 1.48495 -2.3636 0.22635 0.0403841 0.105102 0.25069 -1.40947 -1.49225 0.0206279 -0.160169 -0.196272 1.96163e-06 3.39266e-07 -5.42171e-05 
26.982 1 47 3.95717 5.06668 2.98054 3.73029 -1.0826 1.33509 0.0526177 -0.223552 -0.586045 -0.0738242 -0.348035 -1.46653 -0.00264716 -0.0394061 -0.200318 5.381e-06 -3.20843e-06 -4.30536e-05 
26.982 1 206 3.75576 2.47796 3.63042 1.80016 1.10058 -5.53688 0.320335 0.0140344 -0.594515 -0.0433328 -1.29138 -0.776939 0.00447608 -0.154939 -0.092599 1.74744e-05 -4.22782e-05 -3.91284e-05 
26.982 1 19 18.3854 1.02179 2.66145 0.960083 3.99529 2.91797 0.486198 0.0093786 0.298179 0.040054 -1.27456 -1.08779 0.00356688 -0.137719 -0.159986 9.08894e-06 -3.55347e-05 -2.3548e-05 
26.982 1 205 0.989954 1.74151 4.00614 2.3976 2.498 -5.02404 -0.51995 0.160548 0.0269768 0.0670502 -1.16123 -0.976297 0.0067088 -0.155765 -0.128616 1.72948e-06 -3.39123e-05 -1.6086e-05 
26.982 1 249 6.68022 5.33537 4.56166 5.02344 -0.229314 -2.26949 0.0284905 -0.170956 0.363086 -0.00947272 -0.143172 -0.176263 -0.000182405 -0.0195892 -0.025722 -3.48474e-06 -6.05598e-06 6.39113e-06 
26.982 1 12 6.41197 3.03959 2.8232 -6.31023 8.49678 -0.818483 -0.244955 0.674199 -0.396217 -0.244146 -1.64915 -1.31186 -0.0168556 -0.199715 -0.181885 -8.27427e-07 -3.55438e-05 -4.16979e-05 
26.982 1 51 8.66254 4.77253 2.01816 3.23957 6.12599 4.72077 0.174238 -0.371199 0.0592318 0.0111237 -0.132139 -1.2322 0.000972977 -0.0223497 -0.1864 -7.83744e-06 -2.22634e-05 -4.75563e-05 
26.982 1 210 8.93896 2.96672 4.29996 4.16969 -4.7293 -3.85392 0.0391088 0.173393 -0.28828 0.0829193 -1.24122 -0.664721 0.00794986 -0.159986 -0.0880738 -1.40821e-06 -2.66882e-05 -1.79562e-05 
26.982 1 113 34.1993 8.41538 1.18748 0.429034 -0.263952 2.56128 -0.528473 0.6623 -0.320059 -0.0189435 0.037663 -1.42539 -0.000510656 0.000272203 -0.192597 -1.61773e-05 -7.1281e-06 -6.59837e-05 
26.982 1 253 11.1244 4.8025 4.07814 2.11798 -1.61601 2.66464 0.0653471 -0.49911 -0.397689 0.00681702 -0.167462 -0.180468 -0.00267305 -0.022962 -0.0277672 -3.39734e-06 -1.67569e-05 -1.02098e-05 
26.982 1 16 10.9127 2.78313 1.98579 3.3257 -2.2132 7.47035 0.0122067 -0.14965 0.146256 0.20394 -1.67125 -1.26279 0.00287607 -0.20671 -0.165629 -6.631e-06 -4.75994e-05 -3.2118e-05 
26.982 1 55 14.0151 5.27348 3.38198 -1.16957 2.43341 -1.80502 0.608795 0.441377 -0.369706 0.0312257 -0.31118 -1.49415 0.000960367 -0.0263006 -0.185941 1.37949e-05 -2.07059e-08 -1.20389e-05 
26.982 1 214 13.2658 2.88727 4.10823 0.453249 -0.559981 0.832761 -0.154148 -0.799928 0.0345987 0.0593914 -1.36295 -0.695888 -0.000205271 -0.168232 -0.0853758 -8.3815e-06 -4.38292e-05 -1.38347e-05 
26.982 1 2227 27.5716 20.2184 6.83608 -0.582364 2.59463 -0.6016 -0.131462 0.117978 0.116791 -0.432448 -0.645449 -1.2858 -0.0486905 -0.0567583 -0.164012 -3.23186e-06 4.42769e-05 -1.62023e-05 
26.982 1 811 9.81263 1.13813 18.2749 0.536646 -4.76043 -0.47676 -0.499694 -0.234274 -0.159138 -0.211973 -0.629813 -0.85327 -0.0106571 -0.131257 -0.0781387 -1.68192e-05 -5.56438e-05 -1.47046e-05 
26.982 1 20 16.0613 2.91435 3.23167 3.97237 -3.6028 -0.351058 0.255253 0.467076 -0.0881615 -0.286228 -1.65292 -1.25686 -0.0105789 -0.194529 -0.161961 3.11456e-06 -1.63199e-05 -1.50109e-05 
26.982 1 257 16.2639 5.18997 5.12332 0.00144371 0.600626 2.72179 -0.242257 0.0498034 -0.0498032 -0.00473455 -0.174771 -0.190012 -0.000255742 -0.0208535 -0.0255993 -1.0446e-05 2.18634e-06 -1.72935e-06 
26.982 1 218 18.2679 3.01547 4.97817 -4.18422 -3.50474 2.98648 -0.0886681 0.167423 -0.436957 -0.0757152 -1.30978 -0.589954 -0.00611979 -0.160809 -0.0828238 -8.60177e-06 -1.20075e-05 -1.14093e-05 
26.982 1 110 31.9353 10.2319 1.06216 -5.64152 -3.63594 -5.99582 -0.352268 0.300191 -0.0568325 0.0724743 -0.149349 -2.27803 0.00472984 -0.010063 -0.246356 -1.63311e-05 9.45679e-06 -6.47877e-05 
26.982 1 2835 36.3381 19.9126 18.2787 -1.13378 2.06513 -2.80506 -0.0474364 0.0506465 0.504209 -0.609692 -0.325175 -1.06692 -0.0811502 -0.0204532 -0.134608 -1.2626e-05 2.41498e-05 1.5723e-05 
26.982 1 417 16.2439 1.0664 8.56389 -4.38504 -1.41007 1.12191 0.289004 -0.0728912 0.0384006 0.0166063 -0.659098 -0.671512 -0.00222393 -0.0965626 -0.0917426 -2.51482e-06 -4.00179e-05 -2.0579e-05 
26.982 1 59 18.2253 5.00404 3.06716 1.5743 3.28398 5.60406 -0.0194431 0.270452 -0.469622 0.066263 -0.0604029 -1.35328 0.0117972 -0.0130163 -0.197803 3.22353e-06 9.3396e-07 -4.45216e-05 
26.982 1 24 20.4271 3.14859 2.9221 -2.42677 -2.25885 1.57298 0.156399 -0.239708 -0.174323 0.111934 -1.37762 -1.18946 0.00246606 -0.167255 -0.18014 -3.20618e-06 -1.64683e-05 -4.97162e-05 
26.982 1 261 20.4381 5.16659 4.69427 2.90241 -7.28072 -1.65274 0.424861 -0.284306 0.339926 0.0109945 -0.147902 -0.210091 0.000755221 -0.0189567 -0.0310012 7.4061e-06 -2.92692e-06 -9.02382e-06 
26.982 1 154 36.4639 14.2919 1.28963 -0.271534 0.562508 0.267938 -0.381876 0.192664 0.420691 -0.0967598 -0.0789736 -1.29359 -0.00887559 -0.00533423 -0.158619 -6.35712e-06 1.88395e-06 -5.61476e-05 
26.982 1 63 22.8043 4.91481 2.6333 0.12141 1.4946 -4.40167 -0.248643 0.067013 0.527069 0.0539702 -0.0610824 -1.64043 0.00336888 -0.0117355 -0.224673 -1.9735e-05 -1.93942e-06 -1.88149e-05 
26.982 1 222 22.8577 3.0047 4.49895 -1.58841 -2.57038 1.30328 -0.671653 -0.317164 0.734604 -0.0292964 -1.21084 -0.637687 -0.000345294 -0.147081 -0.079474 -2.2197e-06 -3.9435e-05 -4.27907e-06 
26.982 1 28 24.9782 2.75245 2.78678 0.73756 -1.57967 -2.73359 0.392356 0.0329409 0.0181229 -0.0860472 -1.16332 -1.41508 -0.00177861 -0.15388 -0.187414 4.57341e-06 -5.80441e-05 -8.57363e-06 
26.982 1 265 24.8029 4.91209 4.70739 1.24338 0.600849 0.489583 0.485343 -0.274983 -0.0268287 -0.000930088 -0.134761 -0.238348 0.00043117 -0.018523 -0.0325181 1.03864e-05 -1.15298e-05 -3.24747e-06 
26.982 1 813 11.6633 1.02792 16.0548 -3.28198 -6.25103 2.03232 -0.111964 -0.154088 -0.0649845 0.0074786 -0.816214 -0.758637 0.00113272 -0.0968132 -0.082043 -6.57815e-06 -4.98685e-05 -1.23926e-05 
26.982 1 118 40.527 10.668 1.15014 2.70407 2.47354 -1.00906 0.238213 -0.128159 -0.0648728 0.312246 -0.0322286 -1.26533 0.0390298 -0.0053883 -0.20226 3.49229e-05 2.11688e-06 -6.03386e-05 
26.982 1 998 40.7102 18.0437 16.0923 6.28536 -2.04667 -4.59476 -0.0273469 0.334202 0.103787 0.215713 0.265727 -0.443037 0.0192387 0.0437417 -0.0566211 3.32498e-06 1.40033e-05 -3.03709e-06 
26.982 1 211 9.17678 0.891585 6.05318 1.78899 -5.21151 -5.59152 -0.333315 0.0913597 -0.0394612 -0.0151775 -1.20594 -0.738288 -0.00214197 -0.0947146 -0.106329 4.61155e-07 -5.4923e-05 -5.47e-06 
26.982 1 67 27.2176 4.55191 2.88992 4.46616 -0.40704 0.517421 -0.125243 0.376304 0.222198 0.0830588 -0.00717119 -1.90522 0.0102234 -0.004102 -0.245252 -3.37484e-06 -7.5638e-06 -7.507e-06 
26.982 1 226 27.1954 2.59834 4.92141 -1.88319 -3.02941 0.667089 -0.109414 0.0392165 -0.0603228 0.00948821 -1.03991 -0.500113 -0.00124504 -0.145314 -0.0777289 -7.78391e-06 -3.9918e-05 -1.78519e-05 
26.982 1 32 29.5356 2.89722 3.2025 -2.53772 -4.52186 -1.33354 0.12499 -0.123843 -0.137495 0.023447 -1.02099 -1.5469 0.00406881 -0.139329 -0.206445 4.69806e-06 -4.33906e-05 8.5379e-06 
26.982 1 269 29.4007 4.71377 5.10826 -1.62695 1.64629 -1.98985 -0.200684 -0.491691 -0.175273 -0.00780813 -0.124128 -0.263634 -0.00087042 -0.018073 -0.0363156 -1.09575e-06 -1.63677e-05 -4.18161e-06 
26.982 1 57 16.4232 5.30319 1.01774 1.20288 -6.49758 1.49916 0.0591163 -0.267582 0.385504 -0.097755 -0.203062 -1.79853 0.00452089 -0.0202384 -0.210886 1.5545e-05 -4.95823e-06 -5.48101e-05 
26.982 1 2839 40.8723 20.1656 18.1216 1.10881 -4.87188 -5.59021 -0.3405 -0.431757 -0.573274 0.0171232 -0.360593 -1.38908 -0.015034 -0.0291335 -0.165594 3.31476e-06 3.5092e-05 -3.4111e-05 
26.982 1 26 27.3564 2.70199 1.10246 -0.66142 2.65592 -4.7703 -0.0597313 -0.0383231 -0.314901 -0.1268 -0.673216 -1.61271 -0.00789548 -0.0933117 -0.198384 -1.15588e-05 -3.62046e-05 -4.94034e-05 
26.982 1 17 16.1095 0.997081 1.22386 0.802988 -5.75243 2.79125 0.190464 0.0354067 -0.190912 -0.118843 -0.637885 -1.22427 -0.0109231 -0.0908706 -0.158604 -9.59285e-06 -3.28043e-05 -3.447e-05 
26.982 1 71 31.7875 4.77477 3.06015 -5.17989 5.1217 -2.64617 -0.247793 -0.509196 0.378786 -0.172571 -0.0639671 -1.71162 -0.0189153 -0.0205072 -0.234138 -1.88917e-06 -1.21107e-06 -1.80373e-05 
26.982 1 230 32.0237 2.66577 5.17343 -0.909131 -3.84178 0.121232 -0.341417 0.0583956 -0.2832 -0.0764197 -1.061 -0.563073 -0.00592381 -0.140579 -0.079341 -1.73662e-05 -2.91997e-05 -2.74825e-05 
26.982 1 273 34.1179 4.70304 5.17387 -1.06301 0.621642 0.935817 -0.0634776 -0.389172 -0.300973 -0.00188561 -0.104715 -0.204425 -0.000343879 -0.0167407 -0.0292753 3.48266e-06 -7.01013e-06 -2.54786e-06 
26.982 1 36 34.1032 2.73902 3.15791 -1.42458 2.34128 -0.965268 -0.0265857 0.10665 0.604279 -0.123417 -1.16432 -1.46087 -0.0165595 -0.158785 -0.197098 -1.21684e-05 -3.69406e-05 -1.32754e-05 
26.982 1 203 -1.28332 1.47558 6.30428 -0.618659 4.34941 -0.757604 0.438187 -0.111213 -0.212655 -1.03504 -1.16701 -0.754249 -0.115834 -0.146057 -0.0917156 -1.01355e-05 -4.22756e-05 7.65101e-07 
26.982 1 999 40.9228 16.1307 18.1658 2.42294 -4.02424 1.42893 -0.055547 -0.173553 0.123066 0.401644 -0.0701879 -0.319184 0.0387081 -0.0105353 -0.0265523 -1.06053e-06 -1.83314e-06 1.64462e-05 
26.982 1 75 36.1293 4.87516 3.08196 -0.967869 -2.84676 0.446236 0.202018 -0.45144 0.510262 0.124407 -0.0416266 -1.66027 8.05608e-05 -0.00698405 -0.208989 2.38899e-06 -5.48478e-06 -6.68793e-07 
26.982 1 234 36.1584 2.75691 5.37812 -4.25398 -5.38034 -1.46592 0.375778 0.578983 -0.363251 0.0057454 -0.866459 -0.44217 -0.00447638 -0.125945 -0.0673254 7.1693e-06 -3.63267e-05 1.18588e-05 
26.982 1 40 38.4163 2.78132 3.20462 0.3266 0.292233 -7.25959 -0.136605 -0.120204 0.216903 0.333346 -1.1917 -1.69753 0.0235602 -0.168489 -0.201877 4.15646e-06 -2.49807e-05 5.90536e-06 
26.982 1 277 38.5075 4.7479 4.95545 -1.61563 -7.81255 1.78724 -0.316862 -0.363465 1.42289 0.0124667 -0.107766 -0.237407 0.000957346 -0.0154183 -0.0281217 -9.4747e-06 -6.80045e-06 2.7096e-05 
26.982 1 65 25.0644 4.86471 0.958613 -1.39926 -0.264049 -5.99843 0.103382 -0.308991 0.446289 0.175212 0.000179819 -1.2184 0.0126303 -0.000421414 -0.135776 1.24936e-06 -8.06255e-06 -6.57384e-05 
26.982 1 41 42.6405 4.8965 1.34952 -2.62402 0.582303 2.38258 0.246598 0.215903 -0.222097 -0.556941 -0.568145 -1.22584 -0.067444 -0.0583013 -0.166644 -6.98821e-07 -2.16058e-06 -5.61491e-05 
26.982 1 4 42.935 2.57945 3.29683 2.33115 0.00385474 1.46227 -0.164056 0.461295 0.35568 -1.07451 -1.07392 -1.2422 -0.129202 -0.132654 -0.149186 -8.157e-06 -5.36421e-06 -5.36775e-06 
26.982 1 241 43.4314 5.20842 4.60943 4.68828 4.061 -1.11872 -0.46587 -0.146292 0.231244 -0.731449 -0.723129 -0.832582 -0.0723874 -0.0752485 -0.0897259 -7.63963e-06 -7.98046e-06 6.01509e-07 
26.982 1 79 40.5959 4.64507 3.07655 3.31996 -1.81973 -1.97978 0.47107 -0.349758 0.100633 -0.0635106 -0.180904 -1.79134 0.0015586 -0.012801 -0.217243 1.77131e-05 -2.17602e-05 -2.09608e-05 
26.982 1 238 40.584 2.71916 5.10553 2.6302 1.3291 3.00605 0.606285 -0.0841837 0.371833 0.0203071 -1.12809 -0.704253 0.00632152 -0.144691 -0.0861728 1.75144e-06 -2.55263e-05 1.06796e-05 
26.982 1 129 6.98114 12.7573 1.30266 -6.4017 7.41909 0.395387 -0.84371 0.606993 0.613295 0.122243 0.0642535 -2.05153 0.0106782 0.00535673 -0.251745 -1.54852e-05 -3.39802e-06 -5.72383e-05 
26.982 1 83 -1.33037 8.4689 3.12263 0.888338 -5.71606 -6.39732 0.0683125 -0.0885158 -0.352662 -1.08155 -0.409941 -1.49521 -0.122101 -0.0590579 -0.205643 -1.32874e-05 -9.02105e-06 -4.28999e-05 
26.982 1 242 -1.00947 6.20634 5.01678 1.34349 -2.34779 0.945635 -0.263975 -0.0650308 0.214099 -1.11943 -0.0460457 -0.624058 -0.137056 -0.0113193 -0.075311 -2.12921e-05 -5.00085e-06 -3.21688e-06 
26.982 1 281 43.8861 7.97253 5.40505 9.76481 -4.1288 -3.10561 0.120277 -0.039648 0.0986521 -0.767242 -0.727163 -0.860707 -0.0868825 -0.0862412 -0.108184 3.33835e-05 -2.85166e-06 -2.00503e-05 
26.982 1 282 -1.35585 10.4003 5.1674 4.4654 -4.03451 3.54911 0.267774 0.327806 -0.0623031 -0.961294 -0.00301086 -0.456267 -0.113455 -0.00273542 -0.0601414 -1.57874e-05 1.14491e-05 -2.1548e-05 
26.982 1 2817 16.2209 19.505 16.6245 -4.27776 -1.81252 1.60473 0.405635 -0.0192921 -0.165645 -0.39641 0.537003 -1.09981 -0.0538442 0.059339 -0.145502 -7.56934e-06 1.64419e-05 -2.46867e-05 
26.982 1 48 0.890528 6.33063 3.08943 -3.82697 2.57289 -0.000819072 0.101862 0.59694 -0.815055 -0.249864 -0.08646 -1.41799 -0.0295117 -0.00565208 -0.196581 -4.17292e-06 6.18191e-06 -5.23704e-05 
26.982 1 285 1.15583 8.62598 4.76284 6.87304 -1.44451 1.60739 -0.111736 0.433153 0.0981876 -0.0979817 -0.0100312 -0.164734 -0.00947354 -0.00153867 -0.0253279 1.24664e-06 1.15128e-05 -8.05998e-06 
26.982 1 87 3.29773 8.00525 1.94785 1.83591 -4.21496 0.624888 0.16842 -0.305875 0.236258 -0.0174685 -0.0142608 -1.27686 -0.00808727 -0.00116056 -0.18384 -2.92152e-06 -1.24576e-05 -5.01552e-05 
26.982 1 246 3.37171 7.00866 4.56944 1.88094 -1.81096 -3.04188 0.118201 0.205175 0.680941 -0.00280407 -0.00832144 -0.146507 0.00059616 -0.00121177 -0.022528 1.37839e-05 3.36077e-06 2.11565e-06 
26.982 1 88 1.06762 9.8514 2.02869 -4.41934 2.50131 -2.95495 -0.24139 -0.576175 0.363665 -0.250301 -0.061545 -1.32601 -0.021135 -0.00955335 -0.187865 -1.02102e-05 -1.7478e-05 -4.47832e-05 
26.982 1 286 4.33301 9.5641 4.12027 -1.04484 2.71594 -0.644593 0.277775 0.467421 0.231368 -0.00348564 0.00300716 -0.132317 -0.00130731 -9.09454e-05 -0.0219077 -3.58076e-06 7.47831e-06 -4.93889e-06 
26.982 1 289 7.03758 8.21137 3.96614 -0.952435 -0.350141 -5.45094 -0.961675 0.0768388 0.855207 0.0069433 0.0011457 -0.147471 -0.000784061 -0.000775889 -0.0208492 -2.84107e-05 -2.16125e-06 2.49506e-06 
26.982 1 52 6.19344 6.25834 2.01917 2.33046 1.83047 -1.77277 -0.114493 -0.021986 -0.218458 0.0166151 -0.0141736 -1.28304 0.000892512 -0.0104054 -0.186094 -1.44106e-05 -4.97581e-06 -5.19846e-05 
26.982 1 91 9.73425 9.10412 3.28273 -1.27376 1.75034 -1.57982 0.247013 0.790221 -0.29842 0.13258 0.0832889 -1.51796 0.0114574 0.00211545 -0.190978 1.93731e-05 1.6934e-05 -2.26491e-05 
26.982 1 250 9.17432 6.70319 3.91886 1.91818 5.47095 1.22086 0.267681 -1.19983 -0.0899686 0.00788926 0.00063728 -0.147437 1.01442e-05 -0.00255605 -0.0235543 -3.02034e-06 -1.90366e-05 -4.81079e-06 
26.982 1 290 9.28006 11.0512 5.10547 3.67396 0.831977 2.76296 0.268763 0.272015 0.219376 0.0111548 0.00288766 -0.178997 0.000263462 -0.000318623 -0.0222896 6.1599e-06 1.28218e-06 3.33836e-08 
26.982 1 50 9.97532 7.12267 1.23228 -3.48723 3.45907 6.66672 -0.492161 -0.507742 0.103298 0.0728095 0.00634889 -1.88663 0.00198317 -0.00402024 -0.211478 1.95647e-06 9.47071e-06 -6.60092e-05 
26.982 1 89 7.56521 8.61399 1.5493 1.63368 -0.314759 3.20319 0.251581 0.271081 -1.21289 0.0791094 0.0542259 -1.923 0.00848346 -0.00324413 -0.245883 -1.15922e-05 -1.60012e-06 -7.00444e-05 
26.982 1 293 11.8397 9.1628 5.28423 -1.30294 1.21863 5.63106 -0.143195 0.961393 -0.357666 0.00240964 0.0124351 -0.189236 -0.000109617 0.000652709 -0.0238657 1.08616e-07 2.26772e-05 -5.43301e-06 
26.982 1 56 12.0444 7.25761 3.11602 -2.34229 -5.23864 -2.85361 -0.36039 0.293264 0.205966 0.0408956 0.138316 -1.46296 -0.000853481 0.00685686 -0.192833 -4.24756e-06 1.56057e-05 -1.85214e-05 
26.982 1 95 13.6218 9.52414 2.82504 -2.68307 -5.27463 0.113494 0.312417 0.372147 0.0909818 -0.0265146 0.11665 -1.68053 0.00206028 0.0131348 -0.214838 -9.97018e-06 1.36625e-05 -3.10032e-05 
26.982 1 254 14.0049 7.49898 4.99077 -3.53416 2.60651 0.0438797 0.603538 -0.50119 0.185413 0.00277455 0.00051347 -0.170324 0.000258823 0.000616219 -0.0233398 1.49886e-05 -6.44212e-06 4.08925e-06 
26.982 1 635 37.0922 1.03955 15.3674 3.12292 -1.59043 1.77062 -0.187325 0.567407 0.762626 0.304431 -0.83578 -1.05845 0.0271894 -0.103766 -0.123985 -1.48142e-05 -5.97644e-05 -1.30781e-06 
26.982 1 294 13.6231 11.7281 4.58516 5.21397 3.6673 -3.89912 0.00521634 -0.555347 0.492433 0.00157993 0.00811815 -0.207828 0.000136863 8.45405e-05 -0.0269586 1.85612e-06 -1.6847e-05 6.59431e-06 
26.982 1 633 35.0965 1.74909 13.4128 -4.19624 0.783229 1.46825 -0.0991628 0.00873183 -0.633215 0.0407157 -1.20684 -0.966852 0.00507484 -0.141773 -0.118856 5.91741e-06 -3.79237e-05 -3.36271e-05 
26.982 1 60 16.2299 7.35558 2.88107 2.81298 2.31423 1.94081 0.0609436 -0.323371 0.380218 -0.0101904 0.0794771 -1.49839 0.00298621 0.00935815 -0.201272 1.05505e-05 -6.85835e-06 -1.22236e-05 
26.982 1 297 15.8858 9.52725 4.60884 -5.12208 -3.97419 1.70342 -0.152954 0.302151 -0.0853251 0.00283363 0.0130602 -0.19998 0.000723331 0.00101841 -0.0280047 -3.12468e-06 4.23122e-06 -1.75498e-06 
26.982 1 99 18.2323 9.38209 2.72776 -0.621971 0.240879 -2.77692 0.101902 -0.536658 0.506266 -0.0906592 0.129899 -1.5702 -0.0120105 0.0115522 -0.210785 1.38975e-05 -2.03462e-05 -2.77496e-05 
26.982 1 100 15.5522 11.8598 2.33998 0.946176 -0.428514 0.796489 0.0756818 0.0872752 0.230431 0.0166808 0.0458545 -1.78402 0.00178277 -0.000807989 -0.230089 -1.32202e-05 1.04924e-05 -3.80924e-05 
26.982 1 258 18.4081 7.27792 4.85375 2.35364 0.296105 1.58588 0.0480043 0.114171 -0.144159 0.00295901 0.00357563 -0.170083 -0.000363784 0.00068247 -0.0243446 -3.57358e-06 8.96231e-06 -6.09113e-06 
26.982 1 64 20.5301 6.93165 2.82312 -0.938233 3.74884 -3.46425 0.0217294 -0.0039212 -0.49979 0.0887912 -0.115058 -1.53613 0.00583211 -0.0211481 -0.213061 -1.76854e-05 4.74471e-06 -5.52559e-05 
26.982 1 301 20.515 9.09476 4.54544 -3.68122 0.959486 3.71305 -0.324757 -0.633141 0.700646 -4.75373e-05 0.0064125 -0.176738 -0.00191655 0.00150628 -0.0235401 -1.27325e-05 -4.54074e-06 9.9151e-07 
26.982 1 104 20.4982 11.0627 2.78824 3.92293 2.57048 -0.185568 -0.0105477 0.269361 -0.45269 0.00146051 0.141698 -1.69152 -0.00900038 0.0121174 -0.207755 4.96609e-06 4.50442e-06 -5.05842e-05 
26.982 1 103 22.7002 8.85593 2.93795 -6.07982 -0.828044 -0.654198 0.323909 0.355639 -0.299666 0.0638774 0.0302177 -1.62991 0.00570132 -0.0071086 -0.204011 -1.02352e-05 2.03562e-05 -4.15877e-05 
26.982 1 262 22.8437 6.9917 4.7726 6.89663 -3.39355 -3.1927 -0.276149 -0.419545 -0.30068 0.00406393 -0.0114127 -0.200823 0.000259986 -0.0026535 -0.027775 -7.42146e-06 -3.09314e-06 -1.01445e-05 
26.982 1 305 24.9564 8.78558 5.01884 -4.30923 1.99468 -2.11245 -0.250651 -0.386904 -0.161599 0.00536819 -0.00147595 -0.20027 0.00143737 -0.00069355 -0.0266033 -6.28149e-06 -4.19315e-06 1.31845e-07 
26.982 1 68 25.1195 6.87822 2.9227 -0.534159 2.43245 5.82355 -0.498915 -0.469983 0.22062 0.0784293 -0.106712 -1.79194 0.00751326 -0.0179949 -0.233118 -7.98824e-06 -6.40691e-06 -8.20225e-06 
26.982 1 302 22.6365 10.786 5.03562 -6.5935 -1.54952 5.03661 0.445694 0.236988 -0.515858 -0.0033446 0.0024573 -0.204165 -0.00143525 0.00103611 -0.0240895 3.55055e-06 8.60092e-06 -1.19043e-05 
26.982 1 109 29.5183 8.54462 1.13224 -5.15959 -1.77602 -2.35696 0.376457 -0.302861 0.485143 -0.0156483 -0.0992117 -0.698438 -0.00662882 -0.00533042 -0.116988 1.34494e-05 -5.8295e-06 -5.87509e-05 
26.982 1 107 27.0336 8.75786 3.18901 -4.25602 0.612186 -1.68364 0.642675 -0.335279 -0.0268022 0.186615 -0.150513 -1.85025 0.0180832 -0.00872411 -0.239612 1.35048e-05 -2.15208e-06 -9.18475e-06 
26.982 1 266 27.3078 6.50401 4.70219 3.1488 3.03677 1.76766 -0.370649 0.237321 0.58579 0.00406459 -0.00133261 -0.239694 0.000274729 -0.00115454 -0.0312497 -6.84293e-06 -3.35149e-07 6.19518e-06 
26.982 1 72 29.4339 6.46775 3.07887 -2.50277 -2.82356 -4.8312 0.357024 0.433071 -0.279702 -0.0804926 0.00931952 -2.06825 -0.00877918 -0.00916527 -0.262008 1.31046e-05 9.02468e-06 -2.24457e-05 
26.982 1 309 29.4279 8.59273 5.01175 -3.60476 3.38168 2.19227 0.194541 -0.21839 -0.544551 -0.00629752 -0.00686904 -0.24379 -0.00109469 -0.000507222 -0.0308652 2.68104e-06 -1.44241e-06 -1.05246e-05 
26.982 1 112 29.4892 10.4868 3.14602 -0.614513 -3.05747 -0.614517 0.310184 0.175121 -0.406997 -0.117783 -0.195151 -1.62175 -0.0152744 -0.0139141 -0.22071 1.01333e-05 1.17269e-05 -2.66506e-05 
26.982 1 78 40.5077 6.76709 1.10892 -0.867414 1.56846 -1.98357 0.145785 -0.209834 0.0015605 0.148635 -0.394874 -1.41467 0.0266196 -0.0401142 -0.159704 1.3839e-05 -9.77193e-07 -6.7487e-05 
26.982 1 157 38.5196 12.4988 1.25073 0.499491 2.05265 -2.72709 -0.0797225 0.227102 -0.135387 0.0348351 0.0724372 -1.35265 0.00277546 0.0113192 -0.177149 7.2075e-06 1.1404e-05 -6.27111e-05 
26.982 1 54 14.0586 7.37335 1.09476 0.822952 -1.4104 -1.77636 0.0133808 -0.122944 -0.015043 -0.123878 0.279933 -1.75904 -0.0104186 0.0281932 -0.217831 -6.84259e-06 1.69955e-06 -5.99599e-05 
26.982 1 111 31.7 8.34314 3.0464 5.99681 -0.633506 1.17651 -0.296841 0.345185 0.335284 -0.14966 -0.20221 -1.69132 -0.0154926 -0.0171089 -0.215556 -6.86913e-06 -9.42916e-06 -2.63617e-05 
26.982 1 270 31.6998 6.51914 5.08577 -1.04347 -7.0411 0.494864 0.000172669 -0.307263 -0.661666 -0.00897789 0.00241464 -0.221242 -0.000976577 -0.000525571 -0.0289513 -1.051e-06 -5.31195e-06 -1.02879e-05 
26.982 1 76 33.8526 6.55166 3.1853 -1.70634 2.75444 -0.960937 0.41848 -0.163156 -0.42837 -0.00572077 0.032588 -1.6642 -5.49146e-05 -0.00526888 -0.21777 -1.12339e-06 -2.80816e-06 -2.34614e-05 
26.982 1 313 33.9191 8.33223 5.1157 1.60398 3.22543 -5.78839 0.02792 0.37849 -0.347921 -0.00379054 -0.00323674 -0.186105 0.000615373 -0.000384958 -0.0238414 8.83175e-06 6.72865e-06 -5.55351e-06 
26.982 1 116 33.7469 10.2969 3.08667 2.99378 -1.66754 2.92556 0.385904 0.142308 0.171614 0.0947583 0.0461035 -1.52379 0.00494792 -0.000319339 -0.189749 8.04292e-06 1.68266e-06 -1.52697e-06 
26.982 1 115 36.1633 8.48217 3.22905 3.89311 -1.27915 5.80868 0.132009 0.392796 0.22679 -0.214809 -0.0792875 -1.43441 -0.0170085 -0.0131336 -0.188531 5.58335e-06 6.43429e-06 -4.30173e-07 
26.982 1 274 36.4016 6.90464 5.29874 5.6637 0.0560507 -1.11472 0.226816 -0.556904 -0.0501106 0.00229766 -0.0107264 -0.18904 0.000316862 -0.000910993 -0.0253231 8.84598e-06 -1.0766e-05 -2.09106e-06 
26.982 1 80 38.6348 6.57574 3.29708 -2.53764 -1.13787 1.11224 -0.769764 1.27516 -0.799692 0.0344865 -0.339433 -1.52265 0.00576534 -0.0233457 -0.195562 -1.42179e-05 1.60151e-05 -1.20682e-05 
26.982 1 317 38.7466 8.88876 5.07194 7.56212 -0.0189633 1.60121 0.386173 -1.1819 0.189178 0.00537726 -0.00732882 -0.135557 -8.39703e-05 -0.000722959 -0.0187491 5.4877e-07 -1.62218e-05 3.16332e-06 
26.982 1 120 38.3314 10.5005 3.13767 1.53303 1.04158 -3.07344 0.16374 0.377194 -0.534148 0.134483 0.257216 -1.46383 0.00836022 0.0219758 -0.185001 -1.24889e-06 5.74853e-06 -8.9763e-06 
26.982 1 2819 18.5376 19.7487 18.9506 -0.743656 -2.482 1.65864 -0.0916966 0.148172 -0.69471 -0.738924 -0.181502 -1.24648 -0.0871189 -0.00295781 -0.146691 -1.72697e-05 2.71713e-05 2.50861e-06 
26.982 1 2229 29.8327 20.1186 4.84373 -0.886635 3.02025 -0.0444982 -0.188745 -0.108026 0.382813 -0.259026 0.347158 -1.1606 -0.0394183 0.0424282 -0.147439 -1.54321e-05 2.93004e-05 -2.31868e-05 
26.982 1 44 42.8787 7.28997 2.97594 1.65708 1.26447 -2.54525 0.449987 -0.221067 -0.503976 -0.328998 -0.968664 -1.48802 -0.0481808 -0.0995058 -0.190314 1.35833e-05 1.38523e-05 -4.11744e-05 
26.982 1 119 40.6014 8.66695 2.94931 2.11469 2.2395 -1.58851 -0.129906 0.141828 0.243907 0.28754 -0.0115533 -1.56235 0.0302076 -0.0150493 -0.201521 1.63547e-05 7.58956e-06 -1.43998e-05 
26.982 1 278 40.9172 6.56497 4.80214 -0.552838 0.464307 -4.6232 -0.0107189 0.808075 0.20942 0.373344 -0.36358 -0.235381 0.0409194 -0.0375592 -0.0303377 6.11424e-06 8.91202e-06 6.87769e-06 
26.982 1 84 43.4636 10.122 3.40589 10.0121 5.02435 -3.22308 0.164996 0.153978 -0.182323 -1.27085 -0.424083 -1.73171 -0.134952 -0.0611311 -0.211317 1.61626e-05 -1.05044e-05 -4.13792e-05 
26.982 1 2633 33.9291 20.0531 12.4508 -0.56627 -6.97352 -0.826365 -0.128027 0.740322 1.11552 -0.703898 -0.140373 -1.32173 -0.0777262 -0.0260813 -0.154899 -2.10685e-05 3.30746e-05 -2.0388e-05 
26.982 1 123 -1.29059 11.4297 2.25982 -4.52477 -2.19593 4.93442 0.110035 -0.0477592 0.389997 -1.07297 -0.282361 -1.49115 -0.115677 -0.031327 -0.200979 -3.77151e-05 1.04932e-06 -3.72007e-05 
26.982 1 322 -0.735002 13.4506 4.2779 2.98241 -1.57921 2.38169 -0.190484 -0.593981 -0.329889 -0.682108 -0.238908 -0.377392 -0.0830686 -0.0216511 -0.0514186 -2.1629e-05 -1.87925e-05 -1.96686e-05 
26.982 1 124 43.6771 12.9418 2.62147 -3.81154 -2.0269 -0.51195 0.289035 0.274648 -0.117251 -1.58332 -0.594649 -1.48454 -0.171281 -0.0754309 -0.188729 4.59633e-06 -1.3729e-06 -5.66701e-05 
26.982 1 122 -0.00348601 14.1763 1.63351 -5.00426 0.085159 -1.58406 0.0304682 0.0904569 -0.141851 -1.12483 -0.00406528 -1.55228 -0.126042 0.00638047 -0.189032 -1.75265e-05 -1.75879e-05 -5.32984e-05 
26.982 1 325 1.26395 11.6383 4.25037 -6.5408 -1.31649 -0.00900225 0.0588627 -0.572085 0.182979 -0.0900076 -0.00938759 -0.148057 -0.00863688 -0.00143615 -0.0228012 2.52318e-06 -1.47745e-05 -5.00652e-06 
26.982 1 128 2.23379 14.2285 3.65107 0.0176699 1.88742 1.97046 0.228514 -0.412732 0.00311605 -0.194166 0.135299 -1.34613 -0.0235675 0.0109896 -0.176284 6.48992e-07 -8.72986e-06 -8.32239e-06 
26.982 1 127 4.80899 12.5907 3.34086 3.00649 -0.529161 -1.75887 0.400494 -0.451836 0.190677 0.0174048 -0.0187422 -1.15605 -0.0017746 -0.00720121 -0.158135 1.05246e-06 -1.41686e-05 -1.40681e-06 
26.982 1 326 4.90911 14.4516 5.42548 -2.02258 0.927499 5.94093 -0.279365 0.569971 0.118966 -0.00383837 -0.000747365 -0.124227 -0.00224417 -0.000833391 -0.0167655 -8.6554e-06 2.69853e-06 3.69528e-06 
26.982 1 125 2.58669 11.9483 1.83579 5.39833 3.37234 -1.12948 0.589176 0.972921 0.153874 -0.240899 -0.144211 -2.17321 -0.0252544 -0.0135124 -0.250208 -9.94689e-06 5.79431e-06 -4.99509e-05 
26.982 1 86 4.80956 10.3727 1.4685 -1.91016 5.65636 0.40613 0.955803 -0.0791207 0.963656 -0.0317223 -0.0587025 -2.01558 -0.010147 -0.00693794 -0.227135 2.54823e-06 -9.44987e-06 -5.51321e-05 
26.982 1 92 7.17165 10.8053 3.14565 -3.86939 1.38254 0.488134 -0.1806 0.389156 0.500341 0.114235 -0.0204762 -1.31545 0.00563045 -0.00110424 -0.168076 -7.6176e-06 5.09409e-06 -1.79241e-06 
26.982 1 329 7.21687 13.1019 5.25385 -6.45105 0.440877 1.93596 -0.0878806 -0.667995 -0.500497 0.00170908 -0.0014219 -0.139575 -0.00152022 -0.000454092 -0.0186031 -4.25548e-06 -1.27731e-05 -8.11512e-06 
26.982 1 132 6.44106 15.0153 3.06432 -3.53342 -3.67379 5.97398 0.628797 -0.753134 0.736175 0.113897 -0.0175531 -1.25042 0.0127556 -0.0056028 -0.159872 1.10698e-05 -1.00521e-05 2.0596e-06 
26.982 1 131 9.06953 13.3717 3.24159 -2.54199 1.61466 6.08459 -0.0412945 -0.80825 -0.464761 0.116207 -0.0109103 -1.49642 0.00920485 0.00213098 -0.189512 5.09673e-07 -1.28684e-05 -1.08625e-05 
26.982 1 330 8.89163 15.227 5.06212 2.03114 2.01138 -3.18135 0.109661 0.99087 0.545235 0.00727487 0.000670235 -0.166959 0.000186174 7.06933e-05 -0.0219206 4.59732e-06 2.22228e-05 5.60387e-06 
26.982 1 77 38.4537 4.58479 1.36576 -1.33241 -0.704215 -2.10827 -0.457338 0.757542 -0.601571 0.036127 -0.0451617 -1.07972 0.010295 -0.0033829 -0.183218 4.89964e-06 -3.41629e-06 -7.01842e-05 
26.982 1 2803 -2.15438 19.9534 17.6449 9.35079 -7.06095 2.44177 0.213783 0.458624 0.0361995 -1.28057 -0.792928 -1.0177 -0.158025 -0.0874601 -0.140209 -2.64168e-05 1.16878e-05 -3.29755e-05 
26.982 1 613 11.6536 1.02102 12.0616 -2.75332 -2.52132 -2.01284 0.340129 -0.450904 -0.176736 -0.112635 -1.37894 -1.11854 -0.00988472 -0.166089 -0.129853 -3.40206e-06 -4.99215e-05 -2.96659e-05 
26.982 1 96 11.4409 11.4237 2.92505 -5.60271 -2.062 3.70258 -0.491158 -0.0843467 0.138851 0.0570069 -0.0466348 -1.69001 0.00819672 -0.00619468 -0.206378 5.10042e-06 -1.38698e-05 -2.89186e-05 
26.982 1 333 11.2584 13.3853 5.12122 -0.607013 -2.30648 -1.22934 0.150738 0.159036 -0.365135 0.00417866 -0.00660276 -0.186151 -3.03592e-05 -0.00121963 -0.0232259 1.65488e-06 1.7858e-07 -3.80453e-06 
26.982 1 136 10.8936 15.4938 3.20186 -2.07164 -2.72961 -0.280232 0.116008 0.309174 -0.0137246 -0.0488258 0.00444373 -1.5443 -0.00468361 0.00409828 -0.195881 8.59076e-06 1.4544e-05 -1.8273e-05 
26.982 1 135 13.2141 13.7055 2.72119 -5.10078 -4.13394 5.34941 -0.0641331 0.310497 -0.0923818 0.0609908 -0.14578 -1.64018 0.00650275 -0.0164715 -0.208204 7.76155e-06 4.40614e-06 -5.33739e-05 
26.982 1 334 13.3752 15.4835 4.76346 -7.39039 -3.58957 -0.425132 -0.653972 0.450894 0.656609 0.00232253 -0.004056 -0.173871 0.00121092 0.000484257 -0.0240582 -4.97637e-06 9.61257e-06 4.6156e-06 
26.982 1 140 14.9621 16.2266 2.7715 -5.17178 -0.0720069 -3.51293 0.023077 -0.0313131 -0.585595 0.140572 -0.147699 -1.58567 0.0104854 -0.00391836 -0.206347 1.12857e-05 1.20639e-05 -5.05493e-05 
26.982 1 337 15.4501 13.8288 4.32474 1.1287 0.794203 -4.45833 0.803466 -0.195392 -0.0668732 0.00380296 -0.00286865 -0.212396 0.000920691 0.000202272 -0.0270474 2.1943e-05 2.57892e-06 -9.71412e-06 
26.982 1 139 17.6269 14.2046 2.04118 -0.834895 0.934176 0.621392 -0.411705 -0.439865 0.510484 -0.0240275 -0.0194887 -1.83409 -0.00221818 -0.00820123 -0.228784 -5.91244e-06 1.04214e-06 -4.51926e-05 