ITEM: TIMESTEP
17500
ITEM: NUMBER OF ATOMS
4000
ITEM: BOX BOUNDS pp pp pp
-3.63093 44.1309
0.931218 39.5688
1.35189 39.1481
ITEM: ATOMS mass type id x y z vx vy vz fx fy fz xrad yrad zrad vxrad vyrad vzrad fxrad fyrad fzrad 
26.982 1 202 -0.919839 3.65275 4.94154 2.3664 -7.05772 -1.77596 -0.124188 -0.34387 -0.289776 -1.07416 -0.989244 -0.994572 -0.112058 -0.102349 -0.112492 -1.60085e-05 -2.16901e-05 -2.6866e-05 
26.982 1 2 -1.77011 3.20968 2.15757 0.262061 1.15542 -5.03249 0.0174632 0.0143901 0.466022 -0.731521 -1.12307 -2.04463 -0.0867635 -0.114968 -0.225498 -3.47388e-05 -1.70369e-05 -2.6191e-05 
26.982 1 5 0.402028 1.06212 2.19745 -1.14687 -2.25439 2.7826 -0.177843 0.255702 -0.133351 0.10839 -0.884044 -1.39029 0.0160606 -0.105656 -0.162509 -3.17126e-06 -3.52934e-05 -3.03114e-05 
26.982 1 4 44.0289 2.5652 4.45223 2.64736 -5.51314 -2.39379 0.0622423 0.849692 -0.217273 -1.26084 -1.27622 -1.46705 -0.120368 -0.135817 -0.151512 1.92363e-05 -2.56406e-05 -2.3307e-05 
26.982 1 241 -3.18229 5.36096 4.81581 0.708894 -1.32101 -5.03904 -0.688043 -0.143346 0.323674 -0.83608 -0.836198 -0.968874 -0.0726697 -0.0748983 -0.095381 -4.07015e-05 -1.77884e-05 -4.43283e-05 
26.982 1 34 37.2163 3.05625 1.57061 1.57552 2.77867 -4.08002 -0.326036 0.104921 -0.00573944 0.0595864 -0.87667 -2.12647 -0.00720747 -0.110707 -0.236813 -1.40447e-05 -2.02391e-05 -6.1259e-05 
26.982 1 205 1.00433 1.62224 4.94981 3.92887 -1.64042 4.18719 -0.113035 0.486355 0.293136 0.077519 -1.40284 -1.17433 0.00822514 -0.164759 -0.134631 6.91876e-07 -3.59399e-05 -1.87744e-05 
26.982 1 245 1.84639 4.39935 5.51366 3.4217 -4.96409 1.46399 0.155461 -0.0137053 0.649958 -0.0855335 -0.172971 -0.259528 -0.0104261 -0.0148449 -0.0328785 -4.61416e-06 4.21085e-06 1.27898e-06 
26.982 1 8 1.57499 3.52874 3.13086 0.509675 6.1845 -0.0427495 0.0969972 0.0127313 -0.967658 0.28083 -1.6454 -1.7988 0.0188036 -0.1535 -0.211307 2.05185e-07 -8.56507e-06 -4.3156e-05 
26.982 1 47 4.40059 4.96346 3.83474 1.52402 -0.569866 5.16359 -0.8002 -0.272326 -0.199506 -0.078128 -0.406011 -1.77277 -0.00330295 -0.0370094 -0.206583 -1.10472e-05 2.35688e-06 -3.13799e-05 
26.982 1 206 4.09293 2.48539 4.7514 1.40369 -2.169 -2.03677 -0.481639 0.0560768 -0.139996 -0.0338475 -1.53502 -0.92248 0.00704041 -0.168504 -0.0999995 -1.51376e-07 -4.69663e-05 -2.46286e-05 
26.982 1 6 4.11736 3.02078 1.96136 4.9575 -0.713485 1.59989 0.599642 -0.0802721 -0.0417126 -0.208919 -1.17357 -1.66107 -0.0134735 -0.126182 -0.179923 -7.4814e-07 -1.83675e-05 -5.80028e-05 
26.982 1 249 6.76585 5.28647 5.60188 2.25951 0.48746 -0.516831 0.109498 -0.185116 -0.124673 -0.00890135 -0.173929 -0.214766 0.00077595 -0.0210069 -0.0254231 8.672e-06 -5.0926e-06 -4.53105e-06 
26.982 1 12 6.57945 3.04849 3.73672 3.71157 -3.22822 2.6499 0.186512 0.230883 -0.419764 -0.267384 -1.95387 -1.59154 -0.0129459 -0.204061 -0.188745 1.43683e-05 -3.41542e-05 -2.54994e-05 
26.982 1 51 9.02494 4.3344 2.66929 -1.20749 -4.92917 -6.74936 -0.11879 0.223407 0.428413 0.00766991 -0.173155 -1.52463 -0.00551049 -0.0328138 -0.202716 -1.8142e-05 -2.44809e-05 -4.11564e-05 
26.982 1 210 9.08443 2.96801 5.30792 3.04851 1.2277 -6.4537 -0.333395 0.199922 -0.151323 0.0926644 -1.48678 -0.801181 0.00636971 -0.165376 -0.0930753 -1.41181e-05 -1.46104e-05 -1.98892e-05 
26.982 1 197 38.6003 15.7459 1.45709 -1.65781 4.93021 -1.22611 -0.125322 -0.241329 -0.192048 -0.0315634 -0.0265824 -1.97725 -0.00133985 -0.00349376 -0.211865 1.06646e-05 -5.73468e-06 -5.98045e-05 
26.982 1 253 11.109 4.5986 4.76986 2.43021 -0.0939381 -6.13166 0.632513 -0.0829804 -0.0367673 0.0033268 -0.202842 -0.22306 -0.00240096 -0.0245664 -0.0284731 1.0465e-05 -3.77775e-06 -2.24036e-06 
26.982 1 16 11.1842 2.55415 2.82764 -2.76555 -0.0702889 3.6015 0.108388 -0.0823986 -0.0770414 0.205166 -1.9924 -1.52029 -0.00223057 -0.220741 -0.175642 -6.89841e-06 -4.22368e-05 -3.66749e-05 
26.982 1 214 13.603 2.93172 4.92951 1.37479 1.89349 -4.99462 -0.302159 0.46505 0.309794 0.0585671 -1.62357 -0.827194 -0.001013 -0.178801 -0.0893706 5.49736e-06 -2.9501e-05 -1.8308e-05 
26.982 1 53 11.4261 5.03533 1.44767 -1.70573 -1.12917 -3.78414 0.433509 0.337517 0.296119 0.0928535 -0.0636462 -2.27411 0.00254984 -0.00497197 -0.23818 1.06577e-05 3.47061e-06 -5.85053e-05 
26.982 1 55 13.7124 5.13748 3.24517 -1.18007 -1.35381 -1.54437 -0.578864 0.013987 -0.32982 0.0314176 -0.347267 -1.77413 -0.000419656 -0.0211893 -0.187913 2.82767e-06 4.42498e-06 -4.20977e-05 
26.982 1 20 15.7222 2.96761 3.10513 -5.67337 -3.50831 -0.411871 0.134859 -0.0574849 -0.0103627 -0.303132 -1.9505 -1.4998 -0.0113452 -0.201606 -0.161952 1.52319e-05 -3.62005e-05 -3.5628e-05 
26.982 1 257 15.5998 5.12336 5.19371 -8.02514 0.609993 0.411533 0.516095 -0.229196 -0.0589847 -0.00691407 -0.205865 -0.228104 -0.0024699 -0.0204938 -0.0251968 1.03037e-05 -7.15303e-06 -8.98996e-06 
26.982 1 439 42.6825 1.48492 10.8355 3.46433 1.38184 7.395 -0.206666 -0.67863 0.323144 0.388882 -0.783137 -1.30312 0.039759 -0.0843304 -0.142978 2.97808e-06 -5.55398e-05 -2.52121e-05 
26.982 1 14 13.5488 2.83684 1.30155 4.92148 -3.15788 1.43397 0.302501 0.321033 0.277761 0.0738742 -1.20036 -1.70073 -0.00121199 -0.130316 -0.222774 1.13607e-05 -2.29146e-05 -4.47349e-05 
26.982 1 9 6.9061 1.128 1.43527 5.78258 -3.21725 -3.86388 0.194055 0.224548 1.35063 -0.269651 -0.888487 -2.0018 -0.0207481 -0.0955225 -0.227078 5.98717e-06 -1.98227e-05 -1.85468e-05 
26.982 1 218 17.69 2.77755 5.14878 -1.65193 5.05314 -5.12929 -0.0854765 -0.0255408 -0.0932528 -0.0854555 -1.55138 -0.713421 -0.00644332 -0.161005 -0.0825404 1.81964e-06 -4.33989e-05 -2.63994e-05 
26.982 1 59 18.0104 4.69491 3.15311 -0.804552 -3.42475 0.379591 -0.370309 0.444104 0.234885 0.0855934 -0.0800418 -1.6517 0.0142707 -0.0140386 -0.200505 -8.42341e-06 2.32224e-06 -5.28734e-05 
26.982 1 24 20.204 2.97916 2.94618 -3.18044 2.80047 -1.23855 -0.431948 -0.624858 0.398606 0.119562 -1.63114 -1.46759 0.00797992 -0.170935 -0.191304 -1.06993e-05 -4.56819e-05 -4.46591e-05 
26.982 1 261 20.0434 4.82054 5.23849 -0.91388 -0.685158 4.1412 -0.0496003 0.0792692 -0.375908 0.0114706 -0.176319 -0.25753 0.000235225 -0.0191769 -0.0321102 1.49057e-06 -5.69004e-06 -8.83626e-06 
26.982 1 2839 41.0022 20.0427 17.7566 2.26229 -3.86513 6.51866 0.283688 0.0386052 -0.561768 -0.00398669 -0.391694 -1.6388 -0.0141914 -0.0123957 -0.167462 -2.29781e-06 3.86521e-05 -2.67373e-05 
26.982 1 63 22.2193 4.73785 2.8916 2.03812 -1.21892 3.53791 0.239505 0.201819 -0.500967 0.0587455 -0.0801343 -1.98927 0.00311345 -0.0138503 -0.242434 1.02376e-06 -1.71281e-06 -6.24072e-05 
26.982 1 222 22.0694 2.94717 4.97776 -2.61795 0.265934 -1.92181 -0.314203 -0.0757947 0.564654 -0.027354 -1.43787 -0.761358 0.00310067 -0.15449 -0.0850799 4.94747e-06 -4.06376e-05 -6.65481e-06 
26.982 1 28 24.5362 2.40027 2.65643 1.54132 -5.33617 4.79416 -0.160804 0.350541 -0.0591168 -0.0913249 -1.40273 -1.70482 -0.00614639 -0.164033 -0.19975 -1.36831e-05 -4.10211e-05 -4.06084e-05 
26.982 1 265 24.3307 4.33336 4.57195 -5.45048 -0.641796 2.60871 0.735602 0.211805 0.376459 -0.000282484 -0.164358 -0.289017 0.000197867 -0.0212652 -0.0351445 7.41512e-06 -8.82998e-06 -3.23634e-07 
26.982 1 67 26.4755 4.56839 2.58585 1.43733 -0.732313 -4.11186 0.0470116 -0.418651 0.079447 0.0966309 -0.0159 -2.28224 0.00707348 -0.00614986 -0.259567 -1.23558e-06 -1.02719e-05 -5.49748e-05 
26.982 1 226 26.6842 2.31574 4.55009 -9.55798 4.43327 -6.08056 -0.266776 -0.120452 0.0678399 0.0066385 -1.26521 -0.619484 -0.00293631 -0.153538 -0.081778 -6.86294e-06 -3.97832e-05 -1.83008e-05 
26.982 1 32 30.6112 4.14771 2.31667 5.51978 0.0377103 -0.447096 0.490743 0.272365 0.334963 0.0295397 -1.23668 -1.86503 0.00282758 -0.144801 -0.220208 -4.13641e-06 1.02057e-06 -4.81296e-05 
26.982 1 269 28.9759 4.15253 4.59468 -1.53389 -2.68056 1.27248 0.364487 0.170086 -0.162205 -0.0089766 -0.153084 -0.319181 -0.000100556 -0.0207991 -0.0376826 9.06245e-06 -1.03806e-05 -6.41597e-06 
26.982 1 27 28.6303 2.50877 2.48034 6.31181 -4.1399 0.300583 -0.891259 -0.26025 0.00831042 -0.0563368 -1.95056 -1.47155 -0.0120912 -0.178035 -0.175784 -2.33324e-05 -3.81622e-05 -4.11433e-05 
26.982 1 964 43.3308 17.8729 17.7347 3.94075 4.27303 -1.08434 -0.176843 0.673946 -0.897356 -1.2519 -0.0817496 -0.38844 -0.0926 -0.0170081 -0.0515792 -3.56275e-06 1.06814e-05 -1.69088e-05 
26.982 1 71 32.6078 5.8178 1.94355 6.72091 2.4665 -2.23313 0.0656507 0.473011 0.304962 -0.201592 -0.09482 -2.06884 -0.019853 -0.0182151 -0.245133 -5.24325e-06 9.44754e-06 -5.40127e-05 
26.982 1 230 31.9375 3.10645 4.57004 -0.891898 -2.21649 4.45878 -0.0770637 -0.0818265 -0.302434 -0.0851074 -1.28136 -0.686601 -0.00518334 -0.151645 -0.0831326 -6.13079e-07 -2.66923e-05 -8.13261e-06 
26.982 1 273 34.0617 4.69469 5.30921 -0.189547 9.64177 -8.33876 0.31548 0.361784 -0.0145193 -0.00143877 -0.130273 -0.247646 -2.23258e-05 -0.0177221 -0.0287326 -4.87118e-08 -1.14626e-06 -5.64055e-06 
26.982 1 36 35.1127 2.795 3.74028 1.30368 2.8414 -1.678 -0.37703 -0.132596 -0.243692 -0.151865 -1.4105 -1.75613 -0.0218241 -0.16596 -0.195096 -2.0798e-05 -3.38378e-05 -1.96052e-05 
26.982 1 161 -2.74726 16.1116 1.4483 2.88095 -0.516678 -2.6336 0.488778 0.0594473 0.379557 -0.51673 -0.407188 -1.35511 -0.0506324 -0.043579 -0.136236 -2.2499e-05 -9.48632e-06 -3.52078e-05 
26.982 1 30 32.9694 2.66847 2.03465 -3.09378 0.228775 1.04328 0.190561 0.432115 -0.271573 -0.0542195 -0.972021 -1.96018 -0.00591556 -0.115952 -0.194529 1.49187e-05 -2.90631e-05 -4.70682e-05 
26.982 1 73 34.9919 4.73229 1.69724 2.66278 2.99747 4.13122 0.30038 -0.263868 -0.15556 0.157071 -0.157629 -1.94469 0.00668565 -0.0161077 -0.201077 -4.17453e-06 -1.12356e-05 -6.29248e-05 
26.982 1 35 37.2966 1.08198 3.76609 1.38945 -4.15306 -3.47807 -0.42118 0.392297 0.00965827 0.0694369 -2.3328 -1.73466 0.00174565 -0.224683 -0.191361 -1.1351e-05 -4.90957e-05 -3.40807e-05 
26.982 1 77 38.8317 5.49054 1.52297 -2.05733 2.3664 3.81813 -0.061668 -0.394502 0.204539 0.0512446 -0.0501387 -1.36397 0.00990805 -0.00311812 -0.197589 1.00887e-06 -2.22381e-07 -5.75246e-05 
26.982 1 75 36.9277 5.04933 3.63989 2.67136 4.29459 8.91334 -0.388081 0.4916 -0.169289 0.125743 -0.0508841 -1.97332 0.00140825 -0.00503133 -0.207908 -3.74239e-06 1.0369e-05 -4.42155e-06 
26.982 1 234 36.8948 3.1569 5.62228 -2.67979 -0.689541 4.52902 0.304185 0.376798 0.943435 -0.00223925 -1.05599 -0.540323 -0.00633554 -0.124371 -0.0630504 -1.57856e-05 -1.55866e-05 2.61161e-05 
26.982 1 40 38.9742 3.39455 3.77122 -2.27202 -2.3559 -3.29424 0.538183 -0.218144 -0.235787 0.367841 -1.43889 -1.99869 0.0223844 -0.16008 -0.199693 7.75594e-06 -7.87934e-06 -9.33625e-06 
26.982 1 277 39.8114 4.05302 6.35634 0.626819 10.2909 7.69326 -0.586608 0.344835 0.357674 0.0136924 -0.130863 -0.277701 0.00101676 -0.0152733 -0.0260568 -7.49386e-06 1.94666e-06 7.86369e-06 
26.982 1 237 39.2246 1.41181 5.8754 -0.884532 4.05689 -4.17321 0.136792 -0.176752 -0.139059 0.189942 -1.64567 -1.24976 0.0147876 -0.179244 -0.134445 7.4623e-06 -6.25836e-05 -1.44217e-06 
26.982 1 37 39.2602 1.27933 1.77904 0.30206 2.47467 -4.01275 -0.302886 0.283463 -0.45048 0.027117 -1.15074 -1.63485 0.0017377 -0.120518 -0.18822 8.45534e-06 -4.90429e-05 -4.42488e-05 
26.982 1 1 43.3686 2.23206 1.70604 -0.470525 -3.79308 1.00928 -0.0443648 0.0305164 -0.375949 -0.534633 -0.919079 -2.07217 -0.041952 -0.108352 -0.229386 1.17401e-05 -3.49668e-05 -4.84372e-05 
26.982 1 41 43.8572 5.12101 2.26672 2.44828 4.01479 1.13388 -0.0693652 -0.345584 0.0614708 -0.651862 -0.651169 -1.48959 -0.0584208 -0.0515117 -0.184505 8.84723e-06 1.62836e-05 -5.06179e-05 
26.982 1 79 41.5904 4.53499 4.24236 0.523016 4.20036 -2.99352 0.403012 -0.181669 -0.428636 -0.0610107 -0.200425 -2.11359 0.00186261 -0.0126941 -0.212071 1.02332e-05 -1.47432e-06 -1.41307e-05 
26.982 1 238 41.8488 2.56939 6.2264 2.73463 4.87146 -4.34699 0.666132 -0.47086 0.510424 0.0336278 -1.35592 -0.827989 0.0128664 -0.158842 -0.0796466 2.16483e-05 -5.13988e-05 1.63646e-05 
26.982 1 39 41.4272 1.75326 3.58597 4.59667 1.04744 2.44117 -0.553453 0.170789 0.133488 -0.248024 -1.04588 -1.7707 -0.0154397 -0.145324 -0.181581 1.57204e-06 -4.44402e-05 -2.11181e-05 
26.982 1 1105 24.321 8.58389 20.3199 2.61364 -2.42905 2.9092 0.0555208 0.625241 -0.199933 -0.332219 -0.94451 -1.09683 -0.0425983 -0.0993678 -0.10771 -1.43554e-05 -1.08753e-05 -1.3757e-07 
26.982 1 43 -1.17393 6.43891 3.63251 0.61847 0.728807 3.91003 0.3605 0.192399 0.560379 -1.14513 -0.521948 -1.77157 -0.119829 -0.0340759 -0.202163 -7.99581e-06 7.17798e-06 -3.09012e-05 
26.982 1 83 -1.24147 9.25164 3.10356 -1.94132 -1.00779 -5.0189 0.548627 0.021949 -0.203463 -1.26302 -0.500242 -1.81154 -0.117428 -0.0606317 -0.215666 7.62734e-06 -1.57361e-05 -4.33465e-05 
26.982 1 44 -3.65501 8.16758 3.74099 -7.77234 -1.87683 1.75862 0.28097 0.0148351 -0.423085 -0.400486 -1.11106 -1.78163 -0.0524778 -0.0938927 -0.200128 -3.2974e-05 -1.51678e-05 -4.01848e-05 
26.982 1 1170 6.60786 18.9651 20.0975 -6.66738 -2.66401 -2.02634 -0.562862 0.137235 -0.351937 -0.324801 -0.144365 -1.3486 -0.0479391 -0.0245888 -0.117694 -2.33872e-05 -9.02249e-06 -1.10368e-06 
26.982 1 48 1.81837 6.4603 3.29779 -0.711946 4.50941 -8.86386 -0.158235 -0.609098 0.351199 -0.29441 -0.0938736 -1.72079 -0.0297918 -0.00286409 -0.207186 -3.38954e-06 1.40394e-06 -2.66668e-05 
26.982 1 285 0.560796 8.02591 5.34045 -9.18936 -1.83538 5.69321 -0.34949 0.47186 -0.947539 -0.111491 -0.0106836 -0.203328 -0.00716509 0.00234181 -0.0256685 7.44259e-06 1.93984e-05 -1.64785e-05 
26.982 1 87 4.0645 7.71702 2.95858 3.77095 0.704436 -0.937003 1.14401 0.0808886 0.0997168 -0.0318533 -0.018752 -1.56413 -0.0117656 -0.00462323 -0.198153 1.00526e-05 -6.48797e-06 -4.69243e-05 
26.982 1 246 4.11588 6.62942 5.71398 -0.995271 -2.14415 1.18909 0.0574492 1.36255 0.107366 -0.00441983 -0.00885351 -0.181376 -0.00338548 0.00117598 -0.0235597 -5.45437e-06 2.97124e-05 -7.42626e-06 
26.982 1 88 1.91873 9.33265 3.25707 2.69978 0.95856 0.514348 -0.184565 0.684771 0.39785 -0.284656 -0.0777173 -1.61717 -0.024766 -0.012139 -0.19828 -1.53264e-05 -8.06322e-07 -3.11969e-05 
26.982 1 286 4.29839 9.63191 4.98683 -1.84539 -5.19677 -3.50239 0.150819 -0.00560773 0.250393 -0.00831076 0.00382566 -0.163948 -0.00616263 0.000639663 -0.0197731 -7.92939e-06 -8.49666e-06 8.62921e-06 
26.982 1 86 4.73729 10.3912 2.21964 8.00232 -2.95085 -4.53856 0.105168 -0.192817 -0.383465 -0.0499929 -0.0726983 -2.37097 -0.013662 -0.0115632 -0.246231 -6.81924e-06 -1.2246e-05 -5.56398e-05 
26.982 1 289 6.83266 8.07169 4.52405 -0.68471 -5.69492 -4.6295 -0.576883 0.0381859 0.406332 0.00465058 0.000125669 -0.179264 -0.00217634 -0.000388481 -0.0214044 -1.57974e-05 2.15957e-06 8.09516e-07 
26.982 1 52 6.60777 5.85681 2.89631 1.18173 -0.838763 -0.187087 0.639419 0.680408 -0.413289 0.013935 -0.033348 -1.57547 -0.00433594 -0.0150865 -0.203337 -1.78921e-06 1.27e-06 -5.73534e-05 
26.982 1 250 9.15749 6.51062 4.45613 0.524832 2.06162 1.9857 -0.675669 -0.569438 0.305115 0.00698558 -0.00457218 -0.183285 -0.000715555 -0.00416383 -0.0241671 -1.07582e-05 -1.22114e-05 1.17347e-07 
26.982 1 89 7.23486 8.83357 1.67878 -1.49906 -1.31214 -7.03029 -0.25909 0.116443 0.696972 0.0880966 0.0471259 -2.30677 0.00387898 -0.00600102 -0.265479 -2.43796e-05 -1.34277e-05 -5.43598e-05 
26.982 1 91 9.36811 9.13786 3.56854 -0.87719 -1.44107 3.67825 -0.0724532 0.204623 0.0508888 0.151303 0.087147 -1.80395 0.0133065 0.00319455 -0.190514 -3.69134e-06 9.22543e-06 -5.70001e-06 
26.982 1 50 9.4095 7.0702 1.69698 5.57304 8.838 -5.65207 0.00112574 -0.159075 -0.471903 0.07612 0.000598057 -2.22064 0.00191076 -0.00335712 -0.233549 -9.04091e-06 -9.72224e-06 -6.27552e-05 
26.982 1 293 11.6309 9.36421 5.12066 -2.69894 2.80346 3.20746 0.178116 0.0136519 0.520037 0.00303579 0.0133143 -0.225341 0.000641994 0.000613446 -0.0242571 4.62403e-06 6.44977e-08 5.93318e-06 
26.982 1 56 11.519 7.14634 3.51391 3.57308 2.43178 -1.57773 0.690345 0.0418954 -0.502785 0.0426992 0.150626 -1.75535 0.0034428 0.00972133 -0.197066 2.20181e-05 3.64436e-07 -2.77124e-05 
26.982 1 95 13.6987 9.42008 3.06193 5.0495 2.76883 7.11686 -0.374372 0.0255248 -0.373061 -0.0256718 0.133805 -2.01241 -0.00023868 0.00925684 -0.228159 8.76608e-06 -9.58321e-06 -5.01222e-05 
26.982 1 254 13.7509 7.22726 5.11059 -3.35728 2.55292 -10.7933 -0.351491 0.507861 0.222043 0.00349919 0.00217873 -0.206675 0.000553264 0.00147211 -0.025386 -5.41328e-06 5.33513e-06 -3.21064e-06 
26.982 1 60 15.7395 7.15788 3.2586 -0.577404 -5.60282 -3.92799 0.170972 0.140774 -0.387039 -0.00914059 0.0946776 -1.79973 -0.00202189 0.0111692 -0.201403 6.52185e-06 1.712e-06 -6.06943e-05 
26.982 1 297 15.5417 9.68934 4.91872 3.49378 6.85289 -0.676588 0.275791 -0.0808394 0.0178056 0.00452241 0.0135082 -0.241728 0.00178688 3.25045e-05 -0.0282312 7.31692e-06 1.71369e-06 -7.37964e-06 
26.982 1 2801 42.9918 20.1525 15.6151 -0.666839 -4.48612 0.855671 0.0871463 -0.318622 -0.138025 -1.56814 -0.098907 -2.02813 -0.130324 -0.0201793 -0.218379 5.5071e-06 -1.6197e-06 -2.28358e-05 
26.982 1 2203 -1.13778 20.3427 7.28637 -2.79535 -0.768374 2.35743 0.141208 -0.608096 -0.213634 -1.1638 -0.971962 -1.6006 -0.145154 -0.0798483 -0.16999 -2.14674e-05 -3.97364e-07 -3.85725e-05 
26.982 1 99 17.9436 9.06003 3.16361 1.11423 -1.3892 -2.56121 0.213484 0.26195 -0.179732 -0.105921 0.14819 -1.88706 -0.0088833 0.0134783 -0.21203 -3.96529e-06 5.00338e-06 -6.25004e-05 
26.982 1 258 17.9223 7.14423 4.96229 -6.05548 1.49659 -3.2734 -0.0820968 -0.585159 0.212276 0.000916749 0.00645438 -0.205878 -0.00231904 0.00311669 -0.0234423 -5.7304e-06 -6.06897e-06 -5.05077e-06 
26.982 1 64 20.095 6.75098 3.08061 -4.26889 5.56065 -3.4982 0.254194 -0.0829479 0.0293038 0.0985985 -0.145422 -1.86404 0.0083657 -0.0196456 -0.224473 -6.87231e-06 7.53704e-07 -6.00262e-05 
26.982 1 301 20.3237 8.82853 4.915 -2.49626 -2.06219 -2.04845 0.215222 -0.133899 0.24555 -0.00493421 0.0102739 -0.213087 -0.00399652 0.00333027 -0.0249386 1.59635e-06 -5.67971e-07 -1.93307e-06 
26.982 1 2803 -2.51905 20.2877 17.471 1.7211 2.37461 7.11201 0.0349591 -0.0599515 -0.333821 -1.52056 -0.921426 -1.2363 -0.160763 -0.0836692 -0.151388 -2.29255e-05 8.19415e-06 -4.13751e-05 
26.982 1 103 22.3748 8.59839 3.01371 -1.35065 -2.0502 -4.94296 -0.0511778 -0.613798 -0.510104 0.0706155 0.0201776 -1.9468 0.00428665 -0.0064511 -0.220002 -1.68741e-06 -9.65081e-06 -6.34324e-05 
26.982 1 262 22.2624 6.52892 4.99896 -2.10203 0.0943195 -3.12792 0.323865 0.31968 0.0300966 0.00390547 -0.0148704 -0.24425 -0.00019823 -0.00219435 -0.0303233 6.93684e-06 3.04936e-06 -4.578e-06 
26.982 1 305 24.7674 8.25832 4.9392 -2.62025 0.564403 -4.82064 -0.0672606 -0.0153701 -0.226463 0.00727247 -0.00245189 -0.241435 0.00085352 -0.000718768 -0.0287376 -4.52601e-06 -6.72474e-06 -7.72064e-06 
26.982 1 68 24.5592 6.5309 2.72518 -3.29602 1.18452 -4.00202 -0.52021 -0.248748 0.490646 0.0878255 -0.133861 -2.15163 0.00516954 -0.0179403 -0.249425 -1.2273e-05 2.78066e-06 -5.42296e-05 
26.982 1 302 22.7642 10.3605 4.877 -5.55909 -1.01782 -1.30534 -0.355552 0.481045 0.782987 -0.00792185 0.00548955 -0.241598 -0.00496295 0.00324943 -0.0253471 -1.15036e-05 9.30176e-06 8.95201e-06 
26.982 1 108 24.6367 10.3223 3.00403 -4.25428 -1.90782 3.11634 0.32639 -0.285263 -0.761442 -0.0751658 0.133719 -2.06251 0.00352163 0.00778076 -0.230536 2.81969e-06 -5.44463e-06 -6.6644e-05 
26.982 1 107 26.7122 8.30188 2.71775 -4.77201 -0.105683 -1.00071 0.138401 0.410662 0.410264 0.212934 -0.163984 -2.21685 0.016634 -0.00901592 -0.253267 -1.19118e-06 9.29557e-06 -5.7119e-05 
26.982 1 266 26.9793 6.30909 4.64224 1.33474 3.98806 2.34642 -0.398249 -0.0707168 0.286222 0.00435166 -0.00367378 -0.287676 0.000278128 -0.00201746 -0.0331248 -1.08914e-05 -4.39758e-06 -1.68097e-07 
26.982 1 72 28.8253 6.26439 2.50595 0.763914 0.612146 1.12609 -0.0732271 -0.336464 -0.0608461 -0.0937834 -0.00343986 -2.46825 -0.00955526 -0.00690583 -0.274084 -2.09595e-06 -2.94569e-06 -6.32744e-05 
26.982 1 309 29.2588 8.01131 4.28699 -2.37587 2.13086 2.38961 -0.205848 1.08913 0.199742 -0.00765484 -0.00801421 -0.291039 -0.000678062 -0.0012747 -0.0325499 -2.23964e-06 1.1114e-05 -6.46864e-06 
26.982 1 112 29.0485 10.1928 2.67835 0.103041 4.86158 5.85037 -0.0368971 0.126088 0.15767 -0.139756 -0.215979 -1.9604 -0.0141809 -0.013543 -0.235219 -8.48508e-06 2.21377e-06 -6.0482e-05 
26.982 1 306 27.0968 10.3512 4.87505 -0.671524 5.1607 4.89289 0.179708 -0.0536785 -0.850245 0.00374249 -0.00623932 -0.244586 0.00072684 -0.00059483 -0.0305546 4.4901e-06 -4.15536e-06 -1.77759e-05 
26.982 1 111 31.1831 8.1716 2.22912 -2.6535 -3.6635 -4.84004 0.220007 -0.296922 0.456008 -0.171624 -0.227085 -2.02251 -0.0124889 -0.0138578 -0.229506 8.91442e-06 1.05572e-05 -5.90361e-05 
26.982 1 270 31.5334 6.26649 4.39136 -4.56444 -2.10184 -3.95427 0.179784 -0.388441 -0.23442 -0.00978487 0.00207251 -0.264806 -0.000242341 0.000441641 -0.0292929 9.21712e-06 -1.35998e-06 -1.21241e-05 
26.982 1 76 34.7208 6.74593 3.27466 8.04556 -0.869104 0.750341 0.0330736 0.426736 0.508171 -0.00629244 0.0270717 -1.99453 -0.00115439 -0.00113399 -0.222862 -7.17493e-06 1.63443e-05 -1.17731e-05 
26.982 1 313 34.1207 7.36094 5.79829 4.29328 3.48737 -2.28305 -0.127813 -0.0596585 -0.331167 -0.00125246 -0.00373142 -0.220263 0.00113662 -0.000421124 -0.0220363 -6.12916e-06 -3.38146e-06 -8.23672e-06 
26.982 1 116 33.8526 9.28388 3.63771 -4.61294 -1.6897 2.52783 0.198761 -0.426481 -0.288186 0.101514 0.0444874 -1.81076 0.00223291 -0.0025328 -0.194253 -3.41624e-06 -1.91608e-05 -3.59949e-05 
26.982 1 310 31.3362 9.99277 4.37004 -1.48283 0.619301 -1.06224 -0.203909 -0.477345 0.146797 -0.00618289 -0.00421466 -0.201782 0.000601133 -0.00297654 -0.0265105 3.23963e-06 -1.51159e-05 -9.73611e-06 
26.982 1 115 37.2714 8.29585 4.20227 3.20224 1.86067 -0.308952 -0.429685 -0.250111 0.206423 -0.239035 -0.0985692 -1.71599 -0.0154822 -0.0120561 -0.185827 -7.48152e-06 -6.44191e-06 3.26837e-06 
26.982 1 80 39.312 6.19322 4.4886 9.25302 -4.01125 -0.123988 -0.14856 0.135855 -0.206361 0.0425583 -0.37338 -1.81359 0.00582466 -0.0213615 -0.191055 -5.24145e-06 4.4377e-06 -2.59806e-06 
26.982 1 317 39.9384 8.78668 5.4314 -3.33492 8.76903 -2.37104 -0.473544 0.266872 -0.139886 0.00494619 -0.00884772 -0.164107 -0.000276304 -0.00106908 -0.0195707 -8.489e-06 -1.88946e-06 -6.95088e-06 
26.982 1 117 39.1424 8.2239 2.28958 0.497238 -3.28792 -1.06925 -0.363626 -0.366299 0.136407 0.108763 0.0121192 -3.00699 0.00813553 -0.00204843 -0.298908 6.61834e-06 1.20084e-05 -5.12281e-05 
26.982 1 114 36.3917 9.94089 2.07045 6.61599 -1.97274 -0.264288 -0.181735 -0.243411 -0.319493 -0.0566722 0.0866399 -2.09019 -0.00175006 0.00373211 -0.244458 -1.17848e-06 1.16216e-05 -5.9549e-05 
26.982 1 120 38.7256 10.7167 3.34462 4.4155 1.36743 2.3177 0.0419268 -0.10841 -0.434168 0.148324 0.294212 -1.74818 0.0102955 0.0280211 -0.196306 5.49144e-06 1.5704e-05 -4.30171e-05 
26.982 1 78 41.3473 6.45335 2.21356 1.26584 -3.69982 5.4115 0.0468085 0.171821 0.144129 0.18932 -0.450906 -1.6701 0.0287038 -0.0332341 -0.180223 2.08085e-05 1.56722e-05 -5.0752e-05 
26.982 1 119 41.4463 9.29336 2.88661 4.45321 3.41023 -0.269598 0.225359 -0.114537 0.441357 0.337546 -0.0281869 -1.87435 0.035115 -0.00831382 -0.215207 8.428e-06 6.68462e-06 -4.73284e-05 
26.982 1 278 41.9456 7.22335 4.9039 4.208 -7.69858 4.67564 0.106616 -0.351537 -0.166878 0.434948 -0.417024 -0.280422 0.0403569 -0.034242 -0.0304666 -1.19485e-07 -5.03424e-06 -8.28697e-06 
26.982 1 284 42.6691 9.93416 5.49738 -3.60746 4.67042 3.28051 0.131502 -0.0641651 0.0100838 -0.939547 -0.831896 -0.833228 -0.0356585 -0.0911433 -0.0926887 1.92798e-05 -1.16945e-05 -1.10797e-05 
26.982 1 282 -2.69134 11.0024 4.52417 -6.37818 5.17349 -3.51487 0.0177437 0.0611585 0.0637807 -1.13524 -0.0063946 -0.55119 -0.120129 -0.00155323 -0.0659126 -4.92115e-05 -6.40426e-06 -9.5832e-06 
26.982 1 123 -2.24557 11.9153 1.89768 0.299523 0.494969 -0.161608 0.429605 -0.567672 -0.188363 -1.24905 -0.334115 -1.80539 -0.118153 -0.0378202 -0.218765 -2.76192e-05 -6.63277e-06 -5.92232e-05 
26.982 1 322 -2.17579 13.8921 3.78099 2.34457 -1.9449 4.13263 -0.0674089 -0.11036 -0.733218 -0.813462 -0.271354 -0.457807 -0.0933348 -0.0198255 -0.056127 -4.48625e-05 1.07081e-05 -2.64714e-05 
26.982 1 122 0.0252372 14.3525 2.17502 -2.04383 1.74722 -4.76283 -0.289548 0.0870418 -0.0983533 -1.31433 0.00386004 -1.84865 -0.125207 0.00540008 -0.205481 -6.4668e-06 4.7307e-06 -4.94409e-05 
26.982 1 124 43.4557 13.6939 1.54836 -3.5649 5.14421 -6.92834 -0.106044 0.832145 -0.0918519 -1.83628 -0.707584 -1.78 -0.165273 -0.0749019 -0.205212 -9.0677e-06 1.55434e-05 -6.03101e-05 
26.982 1 325 -0.00992646 11.7414 3.52783 4.47848 3.28768 0.891811 -0.0491066 0.0542466 0.0189918 -0.101912 -0.0133897 -0.185703 -0.00717635 -0.00433905 -0.0282497 2.89472e-06 -8.19211e-06 -2.70904e-05 
26.982 1 128 2.46102 14.2885 3.70233 3.05455 0.707695 -0.419824 0.126057 0.0552641 0.261673 -0.231871 0.152337 -1.6079 -0.0266004 0.011951 -0.172699 -5.8431e-06 4.57733e-06 -8.81504e-06 
26.982 1 127 4.59586 12.4187 4.18555 -2.327 -1.3782 -1.80751 0.00626641 0.168804 -0.505003 0.0127244 -0.0302645 -1.38862 -0.00425465 -0.00810476 -0.152422 -2.15723e-06 4.44016e-07 -1.42111e-05 
26.982 1 326 4.67983 14.705 5.79988 0.391625 -3.66694 -0.572839 -0.496574 -0.244053 0.0899944 -0.00939398 -0.00103119 -0.148883 -0.00454197 3.02852e-05 -0.016279 -8.57725e-06 4.37194e-07 1.56172e-06 
26.982 1 125 2.51686 11.9584 2.20762 1.27315 -0.161244 1.82343 -0.0870215 0.61577 0.443678 -0.284045 -0.166901 -2.56195 -0.0318454 -0.0170727 -0.267832 -1.52301e-05 -6.27304e-06 -5.80843e-05 
26.982 1 126 4.21701 14.3713 1.6399 -5.03878 1.78314 0.966978 -0.30324 0.318453 0.140718 0.00993083 0.0414219 -2.47948 -0.00938334 0.00469697 -0.272209 -1.12059e-05 -3.29056e-06 -5.72649e-05 
26.982 1 328 0.215932 14.1052 5.05882 -8.81268 -1.3862 1.61753 -0.116323 0.231462 0.66862 -0.107342 -0.00952954 -0.00817081 -0.0110265 -0.000415161 -0.00438958 -2.88984e-06 1.31138e-05 2.92218e-06 
26.982 1 327 2.14565 11.6588 5.21692 3.35237 5.20714 -4.70984 0.0571475 0.063509 -0.0212618 -0.00479553 0.00446979 -0.00869169 -0.000523248 -0.0042169 -0.0035155 7.9564e-07 -1.11085e-05 -9.51126e-07 
26.982 1 433 33.4384 1.12497 9.50205 6.32973 4.39268 -3.14762 -0.0748453 -0.476365 0.203101 -0.0956369 -1.13456 -0.823706 -0.00351181 -0.0990409 -0.0784868 5.11301e-07 -4.198e-05 -2.66077e-05 
26.982 1 290 9.34792 11.1658 5.54716 -4.26019 0.909789 -0.872294 -0.510493 -0.514242 -0.088296 0.0112064 0.00243078 -0.211716 -0.000240647 -0.000221714 -0.0213936 -9.69216e-06 -8.09528e-06 -8.05682e-07 
26.982 1 92 6.85176 10.7519 3.85339 -6.97371 1.35611 3.82706 0.517811 0.0886499 -0.028471 0.122321 -0.0220761 -1.56476 0.00526005 -0.000821607 -0.164516 6.63458e-06 -5.87216e-07 -7.07964e-06 
26.982 1 329 6.87937 12.8799 5.66116 4.85519 -5.27572 2.3768 0.444758 -0.200458 0.0505421 -0.00196341 -0.00346488 -0.165511 -0.00296902 -0.00219079 -0.0163685 1.03848e-05 -4.26161e-06 -2.91648e-07 
26.982 1 132 6.32873 14.7535 3.53734 -2.71895 -0.309837 1.74503 -0.102191 -0.113867 -0.384724 0.133884 -0.0244371 -1.49034 0.0148017 -0.00314911 -0.162023 -3.07639e-06 -3.81063e-06 -1.54417e-05 
26.982 1 131 8.66125 12.9457 3.30711 4.74658 2.39468 -4.93619 -0.0616837 -0.225041 0.260304 0.132822 -0.00654421 -1.78444 0.0128438 0.00423673 -0.196053 1.37961e-05 -5.96681e-06 -2.15389e-05 
26.982 1 129 6.40303 12.7275 1.44754 5.02369 -3.88747 1.5329 0.312643 -0.40368 0.26993 0.139204 0.0716845 -2.44281 0.0130725 0.0055315 -0.269436 6.62583e-07 -1.17534e-05 -5.46843e-05 
26.982 1 330 8.51401 15.1207 5.15757 -3.15015 -5.78507 -0.5784 0.367233 0.148551 0.648024 0.00761409 0.00175549 -0.199548 0.000205349 0.000930408 -0.0219311 1.00067e-05 3.68792e-06 1.21751e-05 
26.982 1 2003 -0.98168 20.0645 3.46781 -1.95934 -1.77942 -1.20195 0.105112 0.680085 0.274175 -0.98626 -0.256121 -2.67593 -0.125742 -0.0152461 -0.27092 -2.27973e-05 2.3355e-05 -3.16937e-05 
26.982 1 294 13.513 11.8149 4.90922 0.190118 1.30628 -0.199343 0.177366 -0.428357 0.322091 0.00235201 0.0076066 -0.249104 0.000905648 -0.000170482 -0.0281464 8.17806e-06 -7.30891e-06 6.18532e-07 
26.982 1 96 11.4208 11.3364 3.24982 0.491069 -0.220262 -4.26482 -0.49592 -0.202289 0.0604261 0.0720197 -0.0547742 -2.0085 0.0111309 -0.00421302 -0.218608 -5.93522e-07 1.3552e-05 -4.08153e-05 
26.982 1 333 10.9933 13.2711 5.10428 0.0559454 -0.809295 0.870472 0.0968032 0.895568 0.111317 0.00395369 -0.00836411 -0.221397 -0.000262097 -0.00126933 -0.0239474 -2.59718e-06 1.70771e-05 -1.52378e-07 
26.982 1 135 12.9316 13.7658 3.081 0.749989 -5.46392 -6.13499 -0.232511 -0.671207 0.0549937 0.0703316 -0.170088 -1.96767 0.00512638 -0.0162474 -0.227909 -7.39789e-06 -6.16162e-06 -5.55314e-05 
26.982 1 100 15.1362 11.8223 2.63551 -1.22655 -3.24798 -2.71902 0.257835 -0.325042 0.0515559 0.0155674 0.0474808 -2.13978 -0.00312958 0.00201925 -0.244109 1.87296e-06 -1.26711e-05 -5.36674e-05 
26.982 1 337 15.4449 14.0713 4.58972 -4.20402 1.05219 1.00314 -0.375599 -0.465445 -0.102446 0.00692053 -0.00171757 -0.253404 0.0027015 0.000939477 -0.0272839 1.84514e-06 -8.19541e-06 -3.62131e-06 
26.982 1 139 16.9778 13.7342 2.19687 3.27091 0.286045 0.741102 -0.331311 0.174566 -0.1396 -0.0273268 -0.0296314 -2.19027 -0.0026906 -0.00590175 -0.245967 -3.36535e-06 -1.20052e-05 -5.76469e-05 
26.982 1 298 17.7689 11.7078 3.9712 0.840026 -1.15005 3.24514 -0.14585 0.326137 0.563475 -0.00194037 -0.000639345 -0.264227 0.00295239 -0.00121349 -0.0347395 -3.7096e-06 7.83376e-07 -2.01759e-05 
26.982 1 338 18.0188 14.7848 4.94734 -12.8668 1.95953 -4.4008 0.201422 0.0758064 -0.159535 -0.0102668 -0.0148108 -0.238581 -0.00383877 -0.00140927 -0.0256212 2.14138e-06 -3.01591e-06 -2.4777e-06 
26.982 1 74 36.6824 7.19419 1.48593 1.33176 0.270956 1.79629 -0.181234 -0.101233 0.0862293 0.0151644 -0.185442 -1.65999 -0.0070887 -0.0118078 -0.181746 -1.15208e-05 9.55382e-06 -6.19669e-05 
26.982 1 142 22.8688 14.5127 1.34273 0.323217 5.72078 -6.13019 -0.778966 0.4972 -0.46534 0.219362 -0.0101007 -2.88786 0.0157379 -0.00396306 -0.305495 -1.0216e-06 -2.67246e-06 -6.32689e-05 
26.982 1 104 20.4799 10.8368 2.97054 1.30724 -0.114182 -2.04146 -0.313045 -0.413132 0.521032 -0.0119925 0.160367 -2.01113 -0.00827296 0.0121499 -0.218441 -9.75224e-06 -1.63286e-06 -6.12994e-05 