ITEM: TIMESTEP
19500
ITEM: NUMBER OF ATOMS
4000
ITEM: BOX BOUNDS pp pp pp
-4.03741 44.5374
1.41064 39.0894
1.36175 39.1382
ITEM: ATOMS mass type id x y z vx vy vz fx fy fz xrad yrad zrad vxrad vyrad vzrad fxrad fyrad fzrad 
26.982 1 202 -1.27868 4.12237 5.48963 1.65383 3.57192 2.28924 1.17736 -0.622215 0.141336 -1.28705 -1.19054 -1.21656 -0.0997932 -0.0976998 -0.107814 1.10081e-05 -7.33342e-06 -3.43912e-08 
26.982 1 2 -1.18559 3.81309 1.51221 2.19557 -3.29893 0.973239 -0.190713 -0.653224 0.257898 -0.904668 -1.35368 -2.50173 -0.0842169 -0.113949 -0.23173 7.13887e-07 -6.12115e-06 -5.00628e-05 
26.982 1 4 -3.30324 3.38186 3.73 -4.6304 -1.52808 3.21334 -0.0632881 -0.0528958 -0.127604 -1.50529 -1.5504 -1.77575 -0.126822 -0.136559 -0.156569 -3.60433e-05 -1.53115e-05 -3.33578e-05 
26.982 1 241 -3.14977 5.81951 5.19743 -1.70761 -0.944397 0.0422294 0.162517 0.649329 -0.576918 -0.996296 -0.976062 -1.16449 -0.0869894 -0.0634684 -0.0962304 -2.06412e-05 2.13839e-05 -2.79097e-05 
26.982 1 41 -3.52269 5.10062 1.63747 -0.77543 8.2147 -3.95031 0.310165 0.435115 0.302094 -0.773522 -0.750478 -1.86836 -0.0643675 -0.0490818 -0.192384 -1.80166e-05 4.18429e-06 -3.75455e-05 
26.982 1 43 -0.793938 6.16428 3.3091 -1.68358 -2.38744 -4.41253 -0.515841 -0.00158701 0.336708 -1.37306 -0.583636 -2.17717 -0.106069 -0.0277065 -0.202632 -1.69754e-06 1.42715e-05 -4.1114e-05 
26.982 1 998 41.2574 18.064 15.6805 -3.60353 -1.10549 -0.0308077 1.02403 0.165128 -0.0055576 0.286325 0.424525 -0.637802 0.0211384 0.0503813 -0.0547707 1.79017e-05 1.58042e-05 -1.13037e-05 
26.982 1 5 0.801238 1.73608 1.53148 1.27701 -2.91065 6.49241 -0.951674 0.697108 -0.0348512 0.144309 -1.10924 -1.72196 0.0205083 -0.120464 -0.168455 3.39181e-06 -3.23661e-05 -3.6534e-05 
26.982 1 205 0.959961 2.15935 5.32207 1.18574 -0.875537 2.31616 0.16718 0.139537 0.089795 0.0995368 -1.7436 -1.44415 0.0150942 -0.175695 -0.134014 8.3054e-06 -2.94071e-05 -1.74585e-05 
26.982 1 245 3.12612 4.16219 5.22248 3.84127 -5.38065 7.46457 -0.0978477 0.433256 -0.053222 -0.107031 -0.202685 -0.32453 -0.0105265 -0.0164768 -0.032188 9.55507e-07 1.72165e-06 -9.22829e-06 
26.982 1 8 0.864887 4.17315 3.42447 -3.40572 -3.05039 -0.557799 0.388318 -0.681818 -0.00380832 0.314683 -1.94533 -2.22681 0.0153465 -0.145016 -0.214014 8.5093e-06 -2.66907e-06 -3.40363e-05 
26.982 1 47 5.1628 4.16351 2.88212 -0.140234 -3.37188 5.27258 -0.246778 0.333469 0.342785 -0.0836134 -0.475972 -2.18167 -0.00118454 -0.0334199 -0.203149 3.28406e-07 6.19702e-06 -5.35044e-05 
26.982 1 6 3.0646 2.46926 2.93872 -3.51296 -4.93073 0.63987 -0.0727932 -0.00226895 -0.0512499 -0.23554 -1.42964 -2.03805 -0.0115783 -0.132692 -0.192838 9.91977e-06 -3.70811e-05 -3.55249e-05 
26.982 1 206 5.12268 2.3205 5.01472 7.12945 -1.67475 2.51002 0.224694 0.238727 0.31025 -0.0198903 -1.88773 -1.12288 0.00551557 -0.18362 -0.10046 6.44405e-06 -4.35684e-05 -1.97781e-05 
26.982 1 249 7.25625 4.4444 5.08767 0.432733 -1.6005 -0.993532 -0.360532 0.389024 0.00397385 -0.00838543 -0.217192 -0.265572 -0.000668392 -0.0220942 -0.0263005 -3.37029e-06 8.97821e-07 -8.84795e-06 
26.982 1 12 7.2959 2.38393 3.04534 7.5351 2.7387 1.37718 -0.299939 0.417936 0.00820568 -0.287795 -2.37031 -1.96941 -0.00774337 -0.213364 -0.190844 5.28439e-06 -4.37003e-05 -4.35146e-05 
26.982 1 51 9.16194 4.64973 3.11254 -0.374283 -1.97786 -2.2158 0.00387898 0.942398 0.236064 -0.0045083 -0.242826 -1.94582 -0.00554436 -0.035361 -0.217811 1.78725e-07 4.01385e-06 -5.61511e-05 
26.982 1 210 9.37101 2.52847 5.0497 3.36649 1.99128 5.21233 -0.191 0.0807359 0.208152 0.103528 -1.82932 -0.99186 0.00527287 -0.177893 -0.0970207 1.33589e-07 -4.21643e-05 -1.78787e-05 
26.982 1 253 11.302 4.74286 5.05758 5.47743 7.01684 -0.632127 0.0223848 0.393922 -0.288711 -0.000946128 -0.252635 -0.282245 -0.00202348 -0.025056 -0.030794 -1.37842e-06 7.52435e-07 -1.50474e-05 
26.982 1 16 11.3891 2.75718 3.07237 -4.49975 2.95353 -2.51157 0.215279 0.071532 0.475034 0.200859 -2.44577 -1.88312 -0.00203317 -0.231333 -0.186642 9.4393e-06 -4.17722e-05 -4.57398e-05 
26.982 1 214 13.5726 2.92186 5.25801 -4.01284 -0.00750912 1.73821 -0.469233 0.312788 -0.924859 0.0571261 -1.99427 -1.01193 -0.00077305 -0.191227 -0.0947952 -6.7947e-06 -3.07966e-05 -3.56174e-05 
26.982 1 55 13.0851 5.18209 2.92458 -1.66042 -5.02882 3.66111 0.101099 -0.37633 -0.0761417 0.0322629 -0.390536 -2.16652 -4.17555e-05 -0.0221835 -0.204171 5.47055e-06 -1.757e-05 -5.73925e-05 
26.982 1 20 15.5556 2.8513 3.19123 7.53677 -2.61931 -1.04789 -0.948428 0.452203 -0.477205 -0.324674 -2.3657 -1.83709 -0.00993803 -0.212988 -0.174633 -1.12206e-05 -3.49567e-05 -5.07374e-05 
26.982 1 257 15.2807 5.23968 4.98528 5.88248 -4.56081 2.2521 0.434026 -0.331984 -0.483648 -0.0121401 -0.247149 -0.28235 -0.0026724 -0.0205556 -0.0289162 7.46364e-06 -8.06917e-06 -1.83331e-05 
26.982 1 218 17.5824 2.97661 4.8064 0.705029 -4.46078 -0.260708 0.35616 0.405054 0.722486 -0.0970838 -1.88724 -0.885491 -0.005027 -0.174558 -0.0896568 8.01271e-06 -3.71592e-05 -1.83659e-05 
26.982 1 59 17.6167 5.05195 3.07838 0.553773 -3.13795 2.22939 -0.219965 0.481965 0.045942 0.112164 -0.109343 -2.06996 0.0123081 -0.0148302 -0.215811 -9.42964e-06 2.90172e-06 -5.77322e-05 
26.982 1 24 19.8433 3.2655 3.06883 -6.68038 -1.91569 1.61772 -0.150145 -0.00238004 -0.396652 0.132173 -1.98429 -1.86032 0.00408563 -0.180897 -0.199538 -8.73566e-06 -3.0606e-05 -4.54765e-05 
26.982 1 261 19.7811 5.24215 5.00317 2.34596 -4.57285 2.02206 -0.237411 -0.23193 -0.0346303 0.0138044 -0.215334 -0.322468 0.00171158 -0.0194756 -0.0324955 -5.42277e-06 -3.61426e-06 -6.016e-06 
26.982 1 63 22.0171 5.04417 3.02611 2.52267 2.06139 0.577877 -0.254376 -0.567547 -0.117292 0.0636646 -0.110959 -2.48962 0.00182507 -0.0165175 -0.25603 7.58589e-07 -8.62244e-06 -6.12738e-05 
26.982 1 222 21.9468 3.69801 5.63267 -0.224456 -1.55738 -3.01843 0.140185 0.165409 -0.696309 -0.0248875 -1.74685 -0.93059 -0.000547466 -0.152593 -0.083344 -6.14331e-06 -3.20704e-05 -8.77764e-06 
26.982 1 162 -1.18439 19.0665 2.0244 2.67887 0.293362 -4.66582 -1.32102 -0.92362 0.340524 -1.37041 1.0494 -2.1145 -0.114072 0.0638846 -0.20558 -2.9453e-05 -1.06905e-05 -4.05349e-05 
26.982 1 28 24.3025 2.73507 2.39183 -0.338102 -0.798429 2.71381 0.261599 0.312159 0.00246044 -0.103183 -1.73874 -2.12104 -0.00449669 -0.170134 -0.215371 1.26832e-05 -1.481e-05 -5.38202e-05 
26.982 1 265 24.419 4.82922 4.60005 7.93235 1.36994 1.35369 -0.00753421 0.234937 0.0134764 -0.0013588 -0.206859 -0.361594 -0.00112838 -0.0210778 -0.0372738 -3.26937e-06 1.92032e-06 -1.2367e-05 
26.982 1 67 26.4059 5.24285 2.5831 -1.73358 1.61125 2.25763 0.0452667 0.207055 0.268968 0.10643 -0.0323461 -2.81489 0.00294317 -0.0100269 -0.27152 -1.1135e-05 -5.77913e-07 -6.18461e-05 
26.982 1 225 24.1775 2.07378 5.04977 -4.32366 0.0909382 -5.72932 0.118981 -0.538137 0.254844 -0.0329988 -1.59099 -1.24287 0.00618826 -0.134713 -0.111735 1.41224e-05 -3.97591e-05 -1.62395e-05 
26.982 1 226 26.818 3.31321 4.50159 1.90011 3.25958 -3.06333 -0.119209 -0.492242 -0.0159677 0.00486593 -1.58469 -0.788894 0.00143315 -0.166216 -0.0873582 -7.6213e-06 -3.54935e-05 -2.13827e-05 
26.982 1 32 30.4307 5.58097 2.42011 1.61031 -3.38918 -2.93418 0.636834 -0.0949136 -0.0694878 0.0317956 -1.51641 -2.3233 -0.000738014 -0.134287 -0.236878 6.35416e-06 -2.92e-06 -5.85857e-05 
26.982 1 269 28.7189 5.53259 4.56482 1.95411 -2.62755 -1.81651 0.0456441 -0.4606 -0.379348 -0.00993395 -0.19687 -0.395768 -0.000859651 -0.0226379 -0.0386001 -1.92001e-06 -8.92294e-06 -1.48159e-05 
26.982 1 27 28.5884 3.401 2.41789 -4.42581 2.61818 -0.936977 0.362555 0.271376 0.335635 -0.0843526 -2.31644 -1.83802 -0.0170505 -0.185931 -0.189757 -1.08844e-05 -1.90819e-05 -5.88352e-05 
26.982 1 230 31.0875 3.53212 4.44265 2.11474 -0.246421 -3.4833 0.0352714 0.279609 0.0404891 -0.099809 -1.59207 -0.853362 -0.0104081 -0.156404 -0.0822213 3.10076e-07 -4.92344e-06 -9.34254e-06 
26.982 1 964 43.6701 18.0478 17.417 1.69076 -2.19411 -2.76397 0.362454 0.570475 -0.049287 -1.42053 -0.114337 -0.492676 -0.076102 -0.0143605 -0.0534467 2.13807e-05 1.83838e-05 -2.0028e-05 
26.982 1 273 32.7558 5.89528 4.38882 -3.56333 3.70809 1.1465 0.316119 -0.683261 -0.959823 -0.00158668 -0.165572 -0.304633 -0.000550897 -0.0170723 -0.0294469 3.48299e-06 -1.12762e-05 -2.33462e-05 
26.982 1 36 35.1265 4.08784 3.98262 -4.96652 3.79774 3.6954 -0.280163 -0.176308 0.233987 -0.196285 -1.73555 -2.13019 -0.0216234 -0.15766 -0.178879 -5.44426e-06 -9.22812e-06 -6.94049e-06 
26.982 1 30 32.7516 3.67601 2.32159 7.23979 -5.03031 -0.188525 0.274197 0.648582 -0.201559 -0.0712875 -1.20709 -2.36745 -0.010315 -0.116417 -0.212408 -1.48859e-06 4.39619e-06 -5.68814e-05 
26.982 1 73 34.8332 5.96164 1.96248 -1.96688 -0.269022 -4.34455 -0.813673 0.174787 0.0324046 0.165649 -0.188772 -2.36844 0.00240802 -0.0151546 -0.221324 -1.82922e-05 3.58796e-07 -6.48796e-05 
26.982 1 33 34.9392 2.0271 1.91694 -5.8879 1.83788 2.97879 0.244301 -0.185094 0.780863 -0.0407177 -1.14199 -2.12228 -0.00894472 -0.112107 -0.202244 4.64321e-06 -4.25071e-05 -4.59073e-05 
26.982 1 276 35.1355 5.88529 6.11193 1.17334 1.13085 -2.64677 -0.346186 0.436958 -0.283728 0.00624449 -0.00924411 -0.00343727 0.00107163 -0.00211842 0.000730228 -1.24593e-06 3.4741e-06 -6.2729e-06 
26.982 1 34 36.894 4.22542 1.82229 -4.08941 -3.18638 2.17202 0.352441 -0.394899 0.633554 0.0433029 -1.09591 -2.61705 -0.00877958 -0.107512 -0.252142 8.72231e-06 -1.25743e-05 -6.02576e-05 
26.982 1 35 37.1385 2.19063 4.08222 1.37259 1.25283 3.41006 0.0134451 0.12387 0.0607055 0.0733821 -2.79506 -2.11249 0.00280392 -0.236826 -0.18586 2.13112e-06 -4.68794e-05 -2.15762e-05 
26.982 1 75 36.8217 6.31897 3.77262 -2.94658 8.10903 -6.70226 0.539816 -0.449334 0.527313 0.127855 -0.0600634 -2.37112 0.000953525 -0.0041267 -0.189914 1.09568e-05 -6.71744e-06 -1.18648e-06 
26.982 1 234 37.18 4.23502 6.1291 1.2467 -0.588038 -5.50484 -0.0257109 -0.328125 -0.397904 -0.0151195 -1.29912 -0.658165 -0.00582872 -0.118592 -0.0555577 -3.28428e-06 -7.21967e-06 -6.16473e-06 
26.982 1 40 39.0039 4.33677 3.98987 4.76669 -2.97265 -0.0518837 -0.0470334 0.182146 -0.546239 0.411169 -1.74938 -2.38143 0.0209363 -0.15018 -0.182962 -2.02198e-06 -6.74458e-07 -2.09158e-05 
26.982 1 237 39.2859 2.44417 6.09302 4.70219 3.0995 1.87059 0.0780286 -0.599516 -0.795707 0.223664 -2.03097 -1.50435 0.0190137 -0.205695 -0.120758 7.32794e-06 -6.61508e-05 -1.27018e-05 
26.982 1 37 39.08 2.22188 2.08718 -6.74401 5.14404 -0.788394 0.079069 0.832317 -0.91024 0.0327371 -1.41363 -2.02305 0.00363353 -0.141633 -0.198954 9.83298e-07 -4.40998e-05 -4.71536e-05 
26.982 1 1 43.3227 2.76124 1.6512 1.38347 0.381837 -3.44103 -0.0686698 -0.333553 -0.0483561 -0.606829 -1.15165 -2.53721 -0.0298244 -0.124416 -0.23446 4.59038e-06 -4.45972e-05 -4.13224e-05 
26.982 1 79 42.9928 4.91746 3.64505 0.314408 -3.96636 5.47717 0.167379 -0.0902513 0.510735 -0.0552858 -0.227402 -2.52111 0.00442532 -0.0146686 -0.194734 5.10806e-06 -2.92641e-06 -5.00829e-06 
26.982 1 39 41.2031 2.49876 3.83093 2.27074 -0.545433 -0.616654 0.437017 0.415323 0.250243 -0.272604 -1.35549 -2.129 -0.00901577 -0.163578 -0.176768 1.04963e-05 -4.13654e-05 -2.28346e-05 
26.982 1 38 41.0334 4.46276 1.66027 -5.86838 -4.6412 0.693378 0.170174 -0.315269 0.398297 0.00419541 -1.01418 -2.11734 0.00145395 -0.0889044 -0.227057 -6.09214e-06 -1.38409e-05 -5.66789e-05 
26.982 1 277 41.0718 4.57173 5.83878 1.34276 -3.42503 -4.08504 0.150379 -0.301538 -0.356795 0.0162875 -0.163928 -0.327889 0.00218225 -0.0182233 -0.024108 9.03183e-06 -7.99747e-06 -9.50772e-06 
26.982 1 238 43.2928 3.15813 5.89942 -4.31434 -0.761186 0.981854 -0.225365 -0.520138 -0.475942 0.073709 -1.69223 -0.98371 0.0267305 -0.177369 -0.0772398 1.41179e-05 -4.09832e-05 -2.57797e-05 
26.982 1 83 0.06964 8.72763 4.58377 1.11657 -1.52747 6.95401 0.129018 0.0375144 -0.637935 -1.48442 -0.623099 -2.23899 -0.104417 -0.0605759 -0.206952 9.14036e-06 -1.47546e-06 -2.43369e-05 
26.982 1 44 -2.54041 8.13048 3.22615 -4.49621 -4.52164 0.265511 0.3774 -0.257617 0.527825 -0.519936 -1.29717 -2.18633 -0.0693005 -0.0900043 -0.202823 -3.55282e-05 1.1618e-06 -4.20667e-05 
26.982 1 82 0.366926 9.74179 1.63417 2.60251 0.295702 -2.40756 -0.540117 -0.0386353 0.138142 -1.63081 0.285288 -2.05185 -0.130552 0.00868232 -0.174379 -4.69434e-06 -3.47843e-05 -4.78844e-05 
26.982 1 48 2.86269 6.31039 3.39692 -0.0971029 -3.9689 7.0089 -0.289058 -0.664659 -0.0927507 -0.352651 -0.096711 -2.13269 -0.0288269 -0.000842406 -0.204888 -1.01128e-05 1.16431e-06 -5.8018e-05 
26.982 1 87 4.60466 8.38196 3.37428 4.04109 -2.53598 0.167883 -0.497073 0.453749 -0.473126 -0.0571345 -0.0327945 -1.96676 -0.011162 -0.00829535 -0.201771 -2.01604e-05 -4.27559e-06 -3.32191e-05 
26.982 1 246 5.08596 6.46105 5.19189 1.96162 5.37746 2.05472 -0.339665 -1.0329 0.443291 -0.0126715 -0.0060241 -0.226836 -0.00343628 0.00145884 -0.022196 -4.88032e-06 -1.90681e-05 4.16753e-07 
26.982 1 88 2.46637 10.1268 3.34058 -6.83823 0.166724 2.09295 -0.443448 -0.160346 0.742393 -0.336027 -0.108037 -2.01261 -0.0246654 -0.0168481 -0.193211 -1.2199e-05 -2.08892e-05 -7.34302e-06 
26.982 1 286 4.19998 10.3487 5.43954 2.15818 2.54456 -1.59592 0.915467 -0.0764483 -0.468717 -0.0226387 0.00442053 -0.201917 -0.00729667 0.000133368 -0.0179114 8.41017e-06 3.23074e-06 -7.93817e-06 
26.982 1 29 30.919 1.65851 2.43342 3.1097 1.93277 0.0820562 0.170934 -0.358028 0.00641524 0.0304372 -1.58778 -2.52524 -0.00260461 -0.128181 -0.244579 4.45256e-07 -4.93082e-05 -4.68712e-05 
26.982 1 52 6.69637 6.66394 2.98055 0.379151 -2.87861 -0.832797 0.540782 -0.752088 0.174091 0.00396881 -0.0663237 -1.99512 -0.00394596 -0.0166879 -0.215037 1.481e-05 -2.85056e-05 -5.05127e-05 
26.982 1 289 6.68689 8.51675 4.97648 -2.63869 2.2927 -7.77672 0.17206 1.08707 0.933822 -0.000970224 -0.00155496 -0.222458 -0.00326311 -0.00147997 -0.0215947 3.42045e-06 1.46871e-05 9.58308e-06 
26.982 1 250 8.80921 6.98018 5.10645 -1.29361 -4.22613 -0.00479946 0.514253 -0.848138 -0.0837332 0.00500076 -0.0132397 -0.233753 -0.000958557 -0.00432772 -0.0260009 7.13039e-06 -1.51475e-05 -1.03494e-05 
26.982 1 91 8.76542 8.97833 3.20399 -6.10913 3.79977 -2.54146 -0.350715 -0.0475978 -0.505082 0.177938 0.0942603 -2.19711 0.0128389 0.00305258 -0.204663 5.40852e-06 8.56301e-07 -5.64818e-05 
26.982 1 290 8.56823 10.8593 5.30331 -4.51379 1.8516 4.34108 -0.3062 0.0368686 -0.408146 0.0108494 0.00172665 -0.25564 -8.85696e-05 -0.000263494 -0.0227781 -5.05313e-06 2.19856e-06 -1.60841e-05 
26.982 1 92 6.38786 10.775 3.27472 7.05183 -3.59427 5.5086 0.0473396 -0.0862781 0.280818 0.136831 -0.0231662 -1.89938 0.00946288 -0.000149881 -0.173291 1.03278e-05 1.29413e-05 -2.87216e-05 
26.982 1 23 21.9676 1.52697 3.22207 7.14919 1.91011 3.90268 -0.225171 0.18618 -0.085258 0.00627413 -1.60913 -2.09746 -0.00429191 -0.154938 -0.206783 -1.40505e-05 -4.36176e-05 -2.56725e-05 
26.982 1 293 10.8274 8.89573 5.06218 0.212009 -5.83879 -3.22746 0.0189972 0.605076 0.263993 0.00476561 0.0146227 -0.275448 0.00113656 0.000679378 -0.025877 2.52956e-06 1.14257e-05 -2.21881e-06 
26.982 1 56 10.969 7.06498 3.03096 4.48124 2.04205 -3.64115 -0.30144 -0.0627438 0.0407317 0.0494553 0.169866 -2.16522 0.00274575 0.00857956 -0.213136 -7.84385e-06 -7.43518e-06 -5.91922e-05 
26.982 1 95 12.7329 9.32588 2.95893 5.1872 -2.94767 -5.024 -0.0918026 -0.393595 -0.261219 -0.0272426 0.148444 -2.4832 -0.00224784 0.00483334 -0.240403 -3.16967e-07 -8.92229e-06 -5.66692e-05 
26.982 1 254 13.0401 7.15098 4.9711 1.58883 0.335865 -6.1991 0.122328 0.0630297 -0.174711 0.00533596 0.00583039 -0.260323 0.00116927 0.00238185 -0.0286807 4.23505e-06 2.17989e-06 -1.19623e-05 
26.982 1 60 15.0231 7.1416 2.88645 0.534866 3.6734 4.24609 0.218227 0.318974 0.021767 -0.0116603 0.118288 -2.21737 -0.00060038 0.0109254 -0.213309 1.13402e-05 8.25466e-06 -6.08693e-05 
26.982 1 297 14.8799 9.51599 4.70447 -2.25678 -4.40672 2.72755 0.106018 -0.446287 -0.184241 0.00960766 0.0140431 -0.301266 0.003187 0.000243555 -0.0303582 5.15757e-06 -5.99504e-06 -1.49878e-05 
26.982 1 99 17.6843 9.42955 3.152 -3.82989 0.955689 1.38088 -0.300702 -0.706858 -0.158405 -0.12299 0.175963 -2.32305 -0.00689319 0.0122251 -0.220196 -6.66951e-06 -3.79775e-06 -5.9825e-05 
26.982 1 258 17.1233 7.3725 4.81204 -5.98772 1.36032 -2.80203 0.341552 -0.146719 0.300627 -0.00471377 0.014342 -0.254384 -0.00344503 0.00482771 -0.0244638 5.42666e-06 -5.08046e-07 -9.59509e-06 
26.982 1 3 -1.28769 1.6457 3.86009 5.82001 5.48511 1.18142 0.196077 0.431842 -0.116879 -0.976813 -2.28156 -1.71194 -0.0844906 -0.188372 -0.161712 2.3777e-07 -4.19202e-05 -3.59276e-05 
26.982 1 64 19.5324 7.18171 3.04689 4.73374 9.00526 2.80077 0.0307731 0.300858 0.0709464 0.113239 -0.18232 -2.33003 0.00626587 -0.0171032 -0.239973 8.71019e-07 5.25159e-06 -5.82869e-05 
26.982 1 301 19.7596 9.22654 5.16895 -4.47439 -3.98995 -4.67424 -0.0403771 -0.229623 -0.463152 -0.0139246 0.0160375 -0.266618 -0.00532046 0.00270885 -0.0276735 -2.49883e-06 -4.33942e-06 -8.54117e-06 
26.982 1 103 22.0414 9.01665 3.16944 -3.0989 2.04646 2.84933 -0.513547 0.482595 -0.390111 0.0758176 0.00796894 -2.40545 0.000896588 -0.00624701 -0.236921 -1.89524e-05 3.1623e-06 -6.45398e-05 
26.982 1 262 21.876 6.97555 4.78862 1.08867 -2.75932 5.6749 -0.0387846 0.00184371 1.02774 0.00318267 -0.0197269 -0.306645 -0.000786586 -0.00279867 -0.0319591 1.32317e-06 -9.17673e-07 4.5187e-06 
26.982 1 305 24.2991 9.29828 4.87269 0.540159 1.43934 6.00303 -0.0678459 -0.654983 0.206661 0.00814002 -0.00471005 -0.300458 0.000144419 -0.00143952 -0.0302775 -2.85164e-06 -1.10105e-05 -3.64104e-06 
26.982 1 68 24.0062 7.14415 3.12291 -2.05623 7.03667 -5.50673 0.661663 0.272234 -0.167594 0.0952507 -0.169652 -2.66526 0.00215859 -0.0177131 -0.262594 6.67678e-06 -4.9739e-06 -5.78051e-05 
26.982 1 107 26.243 9.19706 2.78996 2.46518 -3.90575 -1.81177 -0.244093 0.0423087 -0.413341 0.241458 -0.181845 -2.73885 0.0117833 -0.00888096 -0.267158 -8.4326e-06 -1.36608e-06 -6.10331e-05 
26.982 1 266 26.5499 7.16496 4.59933 0.196101 6.98765 0.387523 -0.453789 0.160571 0.204957 0.00424046 -0.00860897 -0.3555 -0.000496904 -0.00282185 -0.0343314 -8.54409e-06 -1.22275e-06 -8.1807e-06 
26.982 1 72 28.4237 7.49127 2.24661 0.455718 2.55402 -2.66015 -0.241273 -0.25643 0.984422 -0.114501 -0.0168183 -3.02964 -0.0113323 -0.00676208 -0.285563 -7.45301e-06 -3.41651e-06 -6.08572e-05 
26.982 1 309 28.332 9.34097 4.60565 4.26563 -4.86473 6.0283 -0.0742348 0.128347 -0.000386943 -0.00968342 -0.010608 -0.357693 -0.00127577 -0.00122411 -0.0337851 -3.31889e-06 2.16888e-06 -6.60819e-06 
26.982 1 111 30.239 9.60599 2.38136 -3.16091 2.84686 -5.19379 0.55622 0.181539 0.215247 -0.197178 -0.252838 -2.49938 -0.0136916 -0.0122287 -0.245973 8.28062e-06 3.41394e-06 -5.81118e-05 
26.982 1 270 30.5055 7.65398 4.4607 -1.73106 0.0621077 0.646342 0.175617 -0.16256 -0.394642 -0.00981538 0.00338157 -0.325894 -0.000242682 0.000524869 -0.0313934 1.15995e-06 2.89496e-07 -1.5347e-05 
26.982 1 71 32.558 7.73104 2.31349 5.05247 -2.94772 -5.93876 -0.399147 -0.0454683 -0.3459 -0.241258 -0.127988 -2.57489 -0.0202007 -0.0157424 -0.259737 -1.38132e-05 -1.75469e-06 -6.52509e-05 
26.982 1 76 34.6405 7.97073 4.0044 -0.36321 -0.69442 -5.0939 0.559176 -0.344822 0.577747 -0.0109989 0.0260199 -2.42732 -0.00270268 -0.000398053 -0.207352 7.68589e-06 -5.51406e-06 -7.31683e-07 
26.982 1 116 34.3771 9.95847 2.19162 -1.35569 6.30509 -1.93403 -0.0105687 0.349352 -0.529095 0.105802 0.0367213 -2.21044 0.00129602 -0.00389414 -0.208395 -7.51848e-06 1.11305e-05 -6.62125e-05 
26.982 1 310 32.6254 9.61631 4.46911 -6.19488 -1.96898 -0.702717 -0.728791 0.72939 -0.367205 -0.00526159 -0.0109874 -0.256344 1.3559e-05 -0.00347825 -0.0282416 -1.30469e-05 1.43756e-05 -1.44343e-05 
26.982 1 77 38.9992 6.32914 1.65528 6.39415 2.72021 1.28771 -0.143726 0.377663 0.501322 0.0703393 -0.0569688 -1.78046 0.00867971 -0.00320365 -0.217723 -6.91414e-06 1.48881e-06 -5.95231e-05 
26.982 1 115 38.6968 8.31407 3.77485 -2.38425 -0.821373 11.0907 -0.0160172 -0.0456906 0.339437 -0.267597 -0.119095 -2.07395 -0.0130995 -0.00745721 -0.17252 2.61287e-06 -3.24508e-06 -1.51969e-07 
26.982 1 74 36.6263 8.30365 1.94213 7.71555 -1.4802 0.793594 -0.0375682 -0.218296 -0.252346 -0.00375294 -0.203208 -2.04967 -0.00947052 -0.00636747 -0.205901 -1.43856e-06 -4.48382e-07 -7.07525e-05 
26.982 1 155 36.5439 10.1382 3.99547 4.48478 -3.9819 6.35119 0.1071 -0.06237 0.231151 -0.0184464 0.190865 -2.44712 0.00620389 0.0193907 -0.193942 9.27056e-07 -6.0289e-07 -3.58586e-06 
26.982 1 314 36.9227 8.08134 6.09863 1.12468 1.48504 -6.58166 -0.139316 -0.0351025 -0.43256 -0.004108 0.00288829 -0.248368 0.000532134 -0.000852673 -0.0195162 -2.80683e-06 -1.67859e-07 -7.35243e-06 
26.982 1 274 39.1458 6.25276 5.998 -0.511111 0.865841 -0.131692 -0.4801 0.808455 -0.273785 0.00480284 -0.0146679 -0.270384 0.000793523 -0.000406405 -0.0202879 -5.52412e-06 1.53217e-05 -8.62672e-06 
26.982 1 320 38.8197 10.0684 6.13566 -0.353835 -0.744386 3.60591 0.910672 -0.294374 -1.10255 0.0917276 -0.0254124 -0.0273743 0.00816023 -0.00186548 -0.00190965 1.57874e-05 -3.13606e-06 -1.34875e-05 
26.982 1 80 40.836 6.66246 3.76932 -4.46421 -3.63743 -2.96006 0.228493 -8.48453e-05 0.280012 0.0538929 -0.41496 -2.17935 0.00582914 -0.0199491 -0.17488 5.66431e-06 1.85485e-06 -2.31769e-06 
26.982 1 317 40.9914 9.68114 4.22653 3.50103 2.31151 1.15075 0.289967 0.276911 0.134897 0.0046282 -0.0103838 -0.202894 -0.000664433 0.000555017 -0.0192466 7.482e-06 6.60698e-06 -6.3475e-06 
26.982 1 78 42.6933 6.73861 1.71898 6.96406 2.74148 -0.228606 0.399289 0.0722362 -0.0265347 0.259603 -0.513861 -2.05038 0.0426346 -0.0313351 -0.199568 2.92255e-05 -3.70528e-06 -5.83236e-05 
26.982 1 119 43.9052 9.18839 2.31527 5.74906 2.49353 -0.284474 -0.778836 0.537317 -0.353458 0.410952 -0.0409582 -2.3169 0.0401771 -0.00569621 -0.226079 6.74191e-06 -1.76019e-06 -5.03585e-05 
26.982 1 278 43.4902 7.83482 4.59146 -1.48065 -0.0969368 -1.62734 -0.161576 -0.622425 -0.118056 0.516639 -0.4841 -0.343454 0.0423503 -0.0324433 -0.03264 2.3868e-06 -9.56077e-06 -1.39932e-05 
26.982 1 284 43.6583 10.4175 5.32824 -0.910996 2.90782 -1.58082 -0.136683 0.718507 -0.958013 -0.998321 -1.01124 -1.01376 -0.024259 -0.0878334 -0.0870055 5.33508e-06 4.51898e-06 -2.33555e-05 
26.982 1 117 40.8398 8.82466 1.7193 -0.562027 3.0913 4.87135 0.00336645 -0.664734 0.0649422 0.125532 0.0170645 -3.61315 0.0069209 0.00550642 -0.305764 2.02347e-06 -4.08957e-06 -6.07164e-05 
26.982 1 282 -2.10916 10.6446 4.26676 0.562933 4.99255 3.46335 -0.220832 -0.170147 0.0717613 -1.39315 -0.0103659 -0.687166 -0.136905 -0.00218994 -0.0698808 -4.56859e-05 -2.66738e-06 -1.95596e-05 
26.982 1 322 -2.01204 13.4705 3.79347 -2.54769 0.672556 3.40679 0.287085 -0.0180566 0.0763217 -1.01351 -0.310045 -0.575132 -0.104783 -0.020158 -0.0578656 -3.61906e-05 -2.23958e-06 -1.48611e-06 
26.982 1 122 -0.259535 13.8974 1.71963 6.3264 7.2826 0.191027 0.138113 0.608265 -0.520357 -1.55704 0.0154647 -2.27112 -0.115139 0.00747537 -0.217884 7.00055e-07 1.55768e-05 -6.22747e-05 
26.982 1 325 0.460229 12.0712 3.70738 0.111835 -1.34334 -4.16684 -0.658034 -0.695248 -0.107099 -0.117084 -0.0252456 -0.25136 -0.00764693 -0.00702965 -0.0352248 -5.49148e-06 -1.46456e-05 -1.85979e-06 
26.982 1 328 -0.0906797 14.1115 5.57029 -2.13277 -9.34738 6.25322 0.527906 0.433094 -0.361348 -0.130387 -0.00687746 -0.0213512 -0.0119667 0.00289792 -0.0085495 5.70534e-06 9.49343e-06 -8.09435e-06 
26.982 1 2839 41.3634 20.0543 17.5084 5.30647 -0.078318 4.82609 0.347381 0.10286 0.117171 -0.0325735 -0.401672 -1.97233 -0.014236 -0.00120248 -0.166122 1.07644e-05 1.65755e-05 -1.85937e-05 
26.982 1 124 -3.17688 14.2702 1.70087 -2.48465 0.556585 0.475334 -0.507693 0.0485312 -0.246176 -2.14813 -0.852279 -2.20432 -0.15351 -0.0691405 -0.213565 -5.16291e-05 1.1397e-05 -4.07858e-05 
26.982 1 128 1.90433 14.3922 3.33061 -7.76702 3.04548 3.14243 0.463535 -0.465018 0.627751 -0.285572 0.179144 -1.9422 -0.0254769 0.0154425 -0.16372 1.68207e-05 4.70408e-06 -1.28306e-05 
26.982 1 127 4.28798 12.6533 3.45666 2.4015 -3.45431 0.251653 -0.536134 -0.580671 -0.100267 0.00848009 -0.0464012 -1.68966 0.00117816 -0.00690413 -0.152016 4.03502e-06 1.66403e-06 -3.40276e-05 
26.982 1 326 4.08233 14.2724 5.57323 1.17911 -3.6613 5.78007 -0.14894 1.11986 -0.346589 -0.0186857 -0.00107617 -0.18012 -0.0046357 0.000345605 -0.0156663 -5.59846e-06 1.93622e-05 -1.23108e-05 
26.982 1 123 -1.59751 11.6366 1.71285 -1.61004 0.37783 -5.56461 -0.505891 0.0503182 -0.305576 -1.48889 -0.411208 -2.25628 -0.122908 -0.0411611 -0.229066 -3.65499e-05 -2.56267e-05 -5.37391e-05 
26.982 1 327 2.27819 12.1669 5.59841 -6.31195 3.3891 4.58556 -0.187736 0.132676 0.360136 -0.00769856 -0.00693465 -0.0147925 -0.00238954 -0.00644622 -0.00221945 -9.80133e-06 -4.49966e-06 1.37345e-05 
26.982 1 329 6.35455 12.8615 5.42345 3.23141 4.2878 1.05253 0.32578 -0.255046 -0.596521 -0.00786444 -0.00810972 -0.198327 -0.00267848 -0.00225826 -0.0169457 6.13994e-06 -3.45174e-06 -1.56736e-05 
26.982 1 132 5.7476 14.8507 3.12536 -0.772447 8.81672 0.598918 0.307675 0.406197 0.00977279 0.167121 -0.0286157 -1.82459 0.0175901 -0.00141305 -0.174735 9.60707e-07 5.68652e-06 -5.21005e-05 
26.982 1 131 7.96536 13.0899 2.90406 -3.96984 -0.415277 0.413236 0.100341 -0.136636 0.531214 0.159302 0.00160125 -2.19044 0.0124572 0.00376165 -0.210937 2.46944e-06 -7.36395e-06 -5.07585e-05 
26.982 1 330 8.23897 15.1276 5.20824 -5.74236 3.79426 4.41139 -0.700787 -0.758732 -0.0959547 0.00821281 0.00358629 -0.244772 0.000334379 0.00107655 -0.0235859 -9.17139e-06 -9.43196e-06 -1.27943e-05 
26.982 1 294 12.5995 11.544 4.91494 7.53611 -1.24885 5.8768 -0.818575 -0.758223 0.386557 0.00530143 0.00734117 -0.306568 0.0019079 1.88606e-05 -0.0291282 -1.0199e-05 -1.2914e-05 9.46853e-07 
26.982 1 96 10.4506 11.1537 3.08611 3.51329 -0.0860067 1.45375 -0.0761531 0.3019 -0.0210998 0.092174 -0.0622578 -2.4614 0.00897248 -0.00351863 -0.233472 -6.90603e-06 1.11661e-06 -5.49262e-05 
26.982 1 333 10.2067 13.0935 5.17461 4.95775 1.42434 0.563389 0.175535 -0.0252488 -0.498767 0.00343761 -0.0112948 -0.270963 6.69333e-05 -0.00145407 -0.0255356 6.34599e-07 -2.34769e-06 -1.7587e-05 
26.982 1 135 12.0086 13.4835 2.80634 8.36311 -1.36806 2.54551 0.247278 0.0192368 0.337722 0.0767881 -0.20207 -2.43901 0.00162183 -0.0147913 -0.241659 -3.95841e-06 1.06485e-05 -5.96939e-05 
26.982 1 136 9.65957 15.2061 2.91335 -7.19366 3.33989 -5.2138 0.378588 0.32719 0.217205 -0.0601131 0.0183983 -2.29237 -0.003532 0.00330825 -0.228528 5.37247e-06 3.7835e-06 -5.95918e-05 
26.982 1 334 11.7885 15.3381 5.16881 3.80642 -0.952388 1.48112 -0.00751562 0.417322 -0.553228 0.00931316 -0.00323051 -0.26438 0.00241996 -0.000352521 -0.0269293 -2.00707e-06 5.90243e-06 -1.81599e-05 
26.982 1 100 14.1167 11.5814 2.72319 -6.03912 4.8047 -1.53517 0.78618 -0.0656508 -0.0261144 0.0098778 0.0471852 -2.6393 -0.0043317 -0.000571857 -0.252648 1.20146e-05 -1.0981e-05 -6.14702e-05 
26.982 1 337 14.0404 13.7573 4.99602 2.50459 7.46897 5.82725 0.434197 -0.556167 -0.138929 0.0144108 0.000410389 -0.306798 0.00418037 0.00111469 -0.0259095 1.02763e-05 -1.10209e-05 -4.6551e-06 
26.982 1 139 15.5814 13.6903 2.78063 0.0155375 -1.85418 6.11666 0.758125 0.575492 0.0197086 -0.0276421 -0.0428119 -2.69666 0.00294847 -0.00455082 -0.258486 1.84286e-05 3.37122e-06 -6.30595e-05 
26.982 1 298 16.7699 11.614 4.23752 4.66891 0.621965 -1.38595 -0.433451 0.411417 0.14454 0.0056512 -0.00610884 -0.342507 0.00518211 -0.00323266 -0.0412845 -3.5827e-06 2.56637e-06 -2.71624e-05 
26.982 1 338 16.1485 15.4812 5.16003 2.81178 1.26841 -2.27338 0.15759 -0.04516 0.185593 -0.0182442 -0.0168042 -0.289834 -0.00401157 -4.56271e-05 -0.0260944 1.5644e-06 3.7962e-06 -2.90121e-09 
26.982 1 302 21.8146 11.1507 4.73957 -5.2335 0.523208 -10.3492 0.133173 0.268612 0.821028 -0.0194846 0.0129885 -0.293386 -0.00660766 0.00391193 -0.0264859 -6.11272e-06 9.09125e-06 4.78733e-06 
26.982 1 104 19.5909 11.4957 3.1792 1.47496 -1.0279 -2.42219 0.129256 0.158209 0.0384418 -0.0305043 0.184334 -2.46497 -0.0089623 0.0118819 -0.231492 -2.28513e-06 6.90472e-06 -5.65649e-05 
26.982 1 341 18.3634 14.0642 4.0022 -2.60318 3.55542 3.27568 -0.053486 -0.741987 -0.182542 -0.00893347 -0.0170712 -0.351827 -0.00016605 -0.00329859 -0.0587614 1.53037e-05 -1.28642e-05 -4.09493e-05 
26.982 1 304 19.0586 11.6564 6.03293 -1.096 -0.210121 5.2451 0.53572 0.367198 0.277486 -0.00611934 0.00329333 -0.0237472 -0.00274463 0.000334133 -0.00709215 1.63912e-05 2.59681e-06 3.27107e-06 
26.982 1 143 22.0335 13.0617 2.85621 1.15511 0.973624 -2.17617 -0.214292 -0.305581 -0.274448 0.0593727 -0.328798 -2.35597 -0.00369786 -0.0172862 -0.223556 -1.21795e-05 4.08178e-06 -6.34943e-05 
26.982 1 342 21.0771 14.8337 4.57717 -0.297515 4.82265 -3.84191 -0.117435 0.172731 -0.342864 -0.00376225 -0.00727183 -0.247449 -0.00400472 -0.00141242 -0.0273518 -6.52742e-06 1.28373e-06 -3.3356e-05 
26.982 1 825 24.5577 1.377 16.5165 1.95757 -6.32867 -1.29689 0.802585 0.149931 -0.796516 0.0787647 -1.53609 -1.25461 0.00497272 -0.115001 -0.0920609 -6.0131e-06 -4.58542e-05 -3.94926e-05 
26.982 1 108 24.0675 10.9189 2.90612 1.73002 0.649629 -6.71938 -0.133528 0.827105 -0.284414 -0.0713037 0.149007 -2.54165 0.000587348 0.00733387 -0.246923 -3.69963e-06 1.0622e-05 -6.65569e-05 
26.982 1 306 26.1929 11.4264 4.83067 -0.215351 1.58843 4.01574 0.12368 -0.255113 -0.242722 0.00529261 -0.00746209 -0.306791 0.000614068 -0.000547257 -0.0318147 5.91921e-06 9.49065e-07 -1.07109e-05 
26.982 1 148 23.6284 15.3201 3.03425 -3.09444 1.08138 -0.547508 -0.344418 -0.264518 0.0358063 0.389744 0.0813805 -2.65668 0.0222223 0.0128609 -0.244333 -1.74385e-05 1.27175e-05 -4.52476e-05 
26.982 1 345 23.9461 13.0905 4.9882 4.67845 -8.1849 3.2504 -0.255806 0.291741 -0.456352 0.00353489 0.0133362 -0.313947 -0.000805768 0.00239704 -0.029769 -6.65845e-06 5.36019e-06 -1.31296e-05 
26.982 1 147 25.8405 13.3259 2.71081 1.32415 6.17758 -0.0858159 -0.214394 -0.448104 0.389192 -0.127364 0.193468 -2.67622 -0.0067677 0.00690683 -0.261154 -9.76623e-06 -5.11949e-06 -6.14588e-05 
26.982 1 385 25.8323 15.303 4.73081 5.70144 5.53853 2.03825 0.00274381 -1.3271 -0.0246297 0.000307269 0.00879432 -0.335903 -0.0062201 0.00536788 -0.0301013 -8.22358e-06 -1.01039e-05 -3.13869e-06 