ITEM: TIMESTEP
5500
ITEM: NUMBER OF ATOMS
4000
ITEM: BOX BOUNDS pp pp pp
-1.19203 41.692
0.305144 40.1949
0.31212 40.1879
ITEM: ATOMS mass type id x y z vx vy vz fx fy fz xrad yrad zrad vxrad vyrad vzrad fxrad fyrad fzrad 
26.982 1 3 1.12239 0.288036 2.19143 0.0505955 -0.646436 1.60273 -0.18494 0.169352 0.428774 -0.0904049 -0.222673 -0.0843619 -0.0333919 -0.0821881 -0.041328 -1.6761e-05 -2.78031e-05 -3.9851e-05 
26.982 1 8 3.20286 2.23594 2.42605 -3.0413 2.57914 -0.480017 -0.376402 0.420077 -0.173525 0.0460433 -0.181458 -0.140973 0.0187834 -0.0632875 -0.0605317 7.60249e-06 -1.50193e-05 -5.65329e-05 
26.982 1 43 1.0197 4.29407 2.32657 -4.63281 4.22578 0.0946333 -0.17328 -0.348531 -0.0176937 -0.10522 -0.0780388 -0.176542 -0.0452146 -0.0293676 -0.0566007 -3.58081e-05 -3.22886e-05 -3.72944e-05 
26.982 1 202 1.09938 2.22419 4.42694 1.09566 -5.11387 2.11268 -0.170255 -0.00825934 -0.156427 -0.0973383 -0.131514 -0.0952658 -0.0438706 -0.0335761 -0.0334888 -2.80935e-05 4.09075e-07 -2.49314e-05 
26.982 1 205 3.2566 0.219075 4.33805 6.73121 -1.7217 3.47462 -0.202754 -0.0357685 0.231564 0.00346068 -0.0527159 -0.0526795 0.0084613 -0.0405058 -0.0345112 8.20232e-06 -4.51245e-05 -3.23821e-05 
26.982 1 201 -1.00826 0.249367 4.52529 2.28605 -2.66013 0.219862 -0.248189 0.374148 -0.247104 -0.0482786 -0.118799 -0.1199 -0.0204891 -0.042337 -0.0489338 -2.28399e-05 -1.03742e-05 -5.9225e-05 
26.982 1 245 2.87691 4.33593 4.41883 -3.51708 -0.941178 -0.701194 0.902897 -0.230574 -0.175951 -0.00697755 -0.0239587 -0.0228988 -0.00342006 -0.00714473 -0.00822649 1.10204e-05 -7.28281e-06 -8.52636e-06 
26.982 1 47 5.15058 4.30939 2.34128 -3.40582 2.546 -0.872098 0.00858831 -0.320197 -0.0250706 -0.0220997 -0.0581042 -0.132009 -0.00416298 -0.0207735 -0.0534085 -1.47617e-05 -1.09302e-05 -4.40042e-05 
26.982 1 206 5.31515 2.18204 4.37458 -3.61358 -0.373766 3.74739 0.0517375 0.392754 -0.117548 -0.0272008 -0.188361 -0.0983143 -0.000680137 -0.0659687 -0.0369198 -4.93361e-07 -1.02176e-05 -2.02309e-05 
26.982 1 49 7.45434 4.28666 0.371977 0.921265 -2.0068 -0.612556 -0.31442 -0.116381 -0.437475 -0.00402479 -0.0317743 -0.256036 -0.00567397 -0.0137964 -0.0834917 -2.7882e-05 -2.03017e-06 -6.78567e-05 
26.982 1 12 7.32759 2.29365 2.11642 -0.166679 5.05731 -0.0725388 0.117897 -0.461235 0.612889 -0.0288108 -0.230958 -0.120274 -0.0148211 -0.0817467 -0.0470334 -2.57611e-05 -2.67819e-05 -1.2751e-05 
26.982 1 249 7.42664 4.31452 3.99704 -0.935246 -3.26816 6.66668 -0.211635 -0.473729 0.535714 -0.00128384 -0.0184391 -0.0147713 -0.000593851 -0.00753339 -0.00608726 -6.68076e-06 -1.18629e-05 5.01018e-06 
26.982 1 51 9.59578 4.27746 2.19522 1.70598 2.72251 0.335393 0.00755142 -0.0935623 0.0219679 -0.0036338 -0.0156228 -0.105563 0.000231086 -0.0089497 -0.0428581 1.38613e-05 -4.33852e-06 -2.17202e-05 
26.982 1 210 9.75801 2.45389 4.306 -7.01565 4.60771 0.424987 -0.686067 -0.340097 -0.335613 -0.00141499 -0.15221 -0.0875372 -0.0013837 -0.0562754 -0.0279428 4.89521e-07 -2.36091e-05 -1.15255e-05 
26.982 1 11 9.51289 0.360322 2.43247 0.106344 -1.50989 5.47985 -0.0412457 0.0170677 -0.502856 0.00394547 -0.02821 -0.135739 0.00574582 -0.0312364 -0.0456236 2.1112e-05 -5.63354e-05 -1.21845e-05 
26.982 1 10 9.52664 2.20721 0.27586 -4.41745 -5.03568 2.55975 0.0255475 0.166107 -0.0348461 -0.00896848 -0.150855 -0.239851 -0.00127384 -0.0479063 -0.0892865 2.27262e-05 -1.20284e-05 -6.03183e-05 
26.982 1 9 7.28172 0.214905 0.202442 -0.441321 -1.80575 -1.88103 0.272038 -0.0437871 0.233679 -0.00645956 -0.0990772 -0.131202 -0.00950677 -0.0266572 -0.0637752 -1.99232e-05 -3.1048e-05 -2.78879e-05 
26.982 1 209 7.46608 0.309964 4.40885 -4.24563 1.65171 -3.74774 -0.158497 0.148532 -0.414458 -0.0068116 -0.155878 -0.157653 -0.00354439 -0.0447567 -0.0438244 -1.2094e-05 -3.84874e-05 -3.84155e-05 
26.982 1 16 11.6888 2.35283 2.13829 2.62932 1.45588 -0.922896 -0.238297 -0.0821043 0.309675 0.0390973 -0.209886 -0.132948 0.0161457 -0.0713585 -0.0539557 2.73775e-05 -3.43449e-05 -3.64125e-05 
26.982 1 253 11.694 4.294 4.27709 -4.67395 3.79081 -2.30033 0.291652 0.265737 -0.271905 0.00113646 -0.0176215 -0.0147091 0.00063984 -0.00704512 -0.00679404 8.97284e-06 7.38414e-07 -1.01246e-05 
26.982 1 55 13.8291 4.22043 2.12311 2.87896 3.06965 5.24412 -0.0451581 0.593692 0.281096 -0.000417434 -0.0586848 -0.149219 0.000422516 -0.0183406 -0.06651 2.15674e-06 -1.26904e-06 -5.76038e-05 
26.982 1 214 13.6974 2.33184 4.22054 0.414746 -0.370212 -4.83333 0.626728 0.223812 0.134001 0.0300913 -0.172961 -0.087194 0.00887966 -0.0633275 -0.0311905 9.47545e-06 -4.32002e-05 -2.15363e-05 
26.982 1 20 16.0295 2.39817 2.21937 -1.83177 -0.261836 2.72857 -0.323032 -0.592231 -0.230583 -0.0799673 -0.221872 -0.105439 -0.0259387 -0.0789025 -0.0450192 -1.69994e-05 -4.84122e-05 -3.38602e-05 
26.982 1 257 15.923 4.3465 4.16111 -8.56797 -1.49966 -3.6092 -0.0210765 0.0436318 0.316423 -0.00235344 -0.0243599 -0.0136827 -0.000954921 -0.00884804 -0.00691218 -1.49795e-06 -4.15617e-06 -3.54762e-06 
26.982 1 218 18.0696 2.28829 4.22821 2.01979 -1.44673 3.14266 -0.154512 0.398517 -0.264659 -0.0189247 -0.163396 -0.0486228 -0.00861588 -0.0596798 -0.0205259 -1.74594e-05 -2.43829e-05 -2.1201e-05 
26.982 1 18 18.1104 2.39469 0.0780956 -4.20605 -1.15562 -0.0317832 -0.462931 -0.375473 0.281204 -0.0123916 -0.11842 -0.294451 -0.00357102 -0.0413462 -0.105947 1.25938e-07 -1.60633e-05 -4.60913e-05 
26.982 1 59 18.0107 4.26744 2.1215 -1.22115 -2.27179 0.834962 0.332676 0.0993705 0.578541 0.0099844 -0.00620579 -0.092317 0.00282877 -0.000302686 -0.0436876 5.92254e-06 1.5707e-05 -4.21143e-05 
26.982 1 261 20.2031 4.34676 4.11166 6.1399 -4.02498 -2.35588 -0.208911 0.162206 0.485317 0.00126737 -0.0171483 -0.0145325 0.000442846 -0.00595646 -0.00689859 -5.0447e-06 4.43274e-06 5.97772e-07 
26.982 1 221 20.1582 0.214729 4.33331 -1.93393 -4.76567 -1.73331 -0.10651 0.335361 -0.597593 -0.0279182 -0.106541 -0.0928101 -0.0103721 -0.0445736 -0.0401952 -1.80896e-05 -3.9857e-05 -4.17611e-05 
26.982 1 24 20.0734 2.26822 2.28824 0.0403671 1.37404 -3.42499 0.194417 -0.233976 -0.199169 0.0214246 -0.168095 -0.0753139 0.00735721 -0.0576945 -0.0400503 1.26229e-06 -2.25376e-05 -5.23422e-05 
26.982 1 63 22.3312 4.26709 2.28231 -5.87599 0.136405 4.5666 0.0189698 0.131045 -0.115862 0.00193549 0.00608219 -0.135118 0.00114199 -0.00171147 -0.0606324 4.03922e-06 1.19047e-06 -6.44233e-05 
26.982 1 222 22.0975 2.28037 4.20428 -1.4574 -6.31238 -3.38166 0.315421 -0.179883 0.559867 -0.024614 -0.135101 -0.0642107 -0.00485396 -0.046871 -0.022928 6.5517e-06 -8.94917e-06 1.89013e-06 
26.982 1 23 22.299 0.150561 2.35269 2.78446 2.91244 2.30254 -0.193507 0.285599 -0.00542192 -0.0153045 -0.115471 -0.121097 -0.00143356 -0.0520723 -0.0533284 -7.47186e-07 -4.6271e-05 -4.41922e-05 
26.982 1 28 24.1877 2.11172 2.48849 -4.23661 -6.50338 -0.625541 0.601983 0.450966 -0.363448 -0.0273425 -0.104867 -0.114103 -0.00551395 -0.0424918 -0.0564377 2.65704e-05 -1.39075e-05 -5.85491e-05 
26.982 1 265 24.4625 4.11366 4.3727 4.56352 -0.741131 0.826087 0.0183718 0.134476 -0.285646 -0.000530565 -0.0101004 -0.0170613 0.000106282 -0.00435363 -0.00795667 1.77739e-06 -1.00179e-06 -1.38118e-05 
26.982 1 67 26.5813 4.33095 2.35487 -3.1672 2.15551 -2.27439 0.0101011 -0.211246 -0.158465 0.00543577 0.00736101 -0.159635 0.00438673 0.00118176 -0.0736292 -2.5076e-06 -1.04723e-05 -6.39472e-05 
26.982 1 226 26.6995 2.35915 4.34862 -3.02104 -3.24419 1.2084 -0.610265 -0.528916 -0.103185 0.0261015 -0.0957102 -0.0257116 0.00392558 -0.0358644 -0.0140373 2.7591e-06 -3.90523e-05 -2.86285e-05 
26.982 1 32 28.8529 2.34652 2.21021 -0.0738475 -3.64724 -3.07096 -0.475947 -0.0973545 -0.04551 0.00219794 -0.139133 -0.117103 -0.00396754 -0.0420866 -0.0588926 -2.05722e-05 -3.81099e-05 -3.51333e-05 
26.982 1 269 28.6675 4.10331 4.34122 -0.58636 2.23481 0.671979 0.786105 0.812555 -0.110984 -0.00135522 -0.013903 -0.0170669 -0.00053127 -0.00412205 -0.00905157 1.31442e-05 7.54797e-06 -9.3301e-06 
26.982 1 225 24.5864 0.101046 4.43676 -1.1657 2.94014 2.12999 -0.439932 0.342079 -0.197638 -0.0262671 -0.188948 -0.115121 -0.00460283 -0.0608825 -0.041776 1.07201e-05 -3.69517e-05 -4.23462e-05 
26.982 1 71 30.9974 4.26477 2.34002 -0.366979 1.38269 -2.54716 -0.290435 -0.194137 -0.115954 -0.0124681 0.000503716 -0.109333 -0.00477246 0.00520162 -0.0610163 -8.12494e-06 6.66844e-06 -4.51097e-05 
26.982 1 230 30.896 2.12507 4.21892 5.97923 -0.563952 5.89433 0.22142 0.483555 0.225454 -0.0207308 -0.12531 -0.0427102 -0.00807157 -0.0371544 -0.0162046 -1.23374e-05 -2.95885e-05 -1.83148e-05 
26.982 1 233 33.2989 0.572334 4.38965 -3.20825 -4.27204 -4.72769 -0.577298 -0.393212 -0.315026 0.000728852 -0.166816 -0.0763704 -0.00251536 -0.0734659 -0.0362607 -1.29671e-05 -4.55493e-05 -3.25296e-05 
26.982 1 30 30.8513 2.12351 0.302637 3.53185 -1.46048 0.756964 0.356082 0.602448 -0.0232874 -0.0205888 -0.118008 -0.285672 -0.00922644 -0.0281986 -0.0944683 5.81653e-07 -1.68171e-05 -4.4721e-05 
26.982 1 273 33.1219 4.15204 4.22736 3.92163 -3.41116 2.26661 0.0269831 -0.222154 0.375232 0.0016697 -0.00886893 -0.0136424 0.000154958 -0.00182689 -0.00732599 -2.05477e-06 -6.81255e-06 -1.45247e-06 
26.982 1 36 33.1053 2.30697 2.18893 5.92345 2.84674 -1.38629 -0.171633 -0.487612 0.37835 -0.00246518 -0.120913 -0.117673 -0.00352412 -0.0311165 -0.0542249 1.98233e-06 -1.85874e-05 -4.81655e-05 
26.982 1 35 35.1518 0.296359 2.1253 5.11787 -2.48524 5.2912 0.253158 -0.272051 0.636619 0.0186433 -0.29759 -0.130382 0.0112437 -0.109516 -0.0489928 1.23161e-05 -4.07798e-05 -3.29355e-05 
26.982 1 75 35.4012 4.24914 2.34212 -2.14256 0.450152 0.0558491 -0.11709 -0.201757 0.0784747 0.0535683 0.00420869 -0.187057 0.00756804 0.00335229 -0.0690212 -1.08096e-05 -2.24354e-05 -3.52375e-05 
26.982 1 234 35.4322 2.24384 4.39273 2.39526 3.11068 0.954597 -0.0839537 0.283437 -0.177406 0.0016757 -0.0772603 -0.0285586 0.00424816 -0.0247547 -0.0104216 1.36504e-05 -1.89666e-05 -1.42794e-05 
26.982 1 277 37.4821 4.29712 4.57541 5.52649 3.48962 -0.98507 -0.0713576 -0.137071 -1.02775 0.0027179 -0.0109387 -0.0305254 0.00112143 -0.00391088 -0.00977284 2.14096e-07 -3.98645e-06 -1.84329e-05 
26.982 1 77 37.6118 4.08546 0.384062 0.83144 -2.91405 2.04918 -0.356154 0.125379 -0.049149 -0.00382227 -0.00223787 -0.0267143 -0.00239155 -0.00300492 -0.0340985 6.60361e-06 -1.30303e-05 -6.38266e-05 
26.982 1 40 37.4733 2.28597 2.42816 -1.26159 1.0105 0.907622 0.0826065 0.214619 0.0106119 0.0895913 -0.11163 -0.227439 0.0304748 -0.0455792 -0.0750399 1.24972e-05 -4.87901e-05 -2.71471e-05 
26.982 1 41 41.8704 4.38713 0.465583 8.84549 -2.15486 -5.90535 -0.528794 -0.549166 0.0234263 -0.0573235 -0.0842541 -0.146615 -0.0238368 -0.0314819 -0.061726 -1.40078e-05 -2.27278e-05 -6.07712e-05 
26.982 1 241 41.6694 4.36328 4.21516 4.87358 -1.94276 1.49134 0.353954 0.0325635 0.167827 -0.129006 -0.134179 -0.140462 -0.0325407 -0.0352134 -0.0377358 6.89869e-06 1.92568e-07 -4.3376e-06 
26.982 1 4 41.8649 2.07888 2.52679 0.292519 -3.0273 0.486688 0.0176344 0.651384 -0.292323 -0.110791 -0.147489 -0.156913 -0.0407509 -0.0549464 -0.0541149 -1.59078e-05 -2.51654e-05 -5.02694e-05 
26.982 1 79 39.7115 4.22797 2.30729 -0.53102 0.377877 4.40731 -0.19572 -0.0382447 0.3439 -0.0339931 -0.0577582 -0.214936 -0.00814968 -0.018462 -0.0714133 -3.35349e-06 -8.42271e-06 -3.74391e-05 
26.982 1 238 39.6579 2.33451 4.38632 0.894468 -0.869392 1.73653 -0.148319 -0.145219 -0.13428 0.0059659 -0.141678 -0.097053 0.000600399 -0.0500527 -0.0338783 -1.21513e-05 -3.56048e-05 -2.85521e-05 
26.982 1 83 0.920622 8.42745 2.33613 6.09494 -2.06076 0.699108 0.365444 -0.618136 -0.204085 -0.139775 -0.0338055 -0.166988 -0.0486828 -0.014373 -0.0542968 -1.866e-05 -1.25969e-05 -1.31878e-05 
26.982 1 242 1.01804 6.24695 4.28673 0.869565 -2.58393 -5.44835 -0.424662 0.321729 0.12497 -0.142858 0.0244155 -0.0821952 -0.05224 -0.00040464 -0.0267189 -3.75943e-05 2.65164e-06 -3.45596e-06 
26.982 1 285 3.06963 8.11524 4.27744 -0.610232 2.04683 -0.642038 -0.0664702 0.437413 0.0248231 -0.0182822 5.00252e-05 -0.0198696 -0.00525382 -0.000386036 -0.00593273 -3.96006e-06 6.23642e-06 -2.33863e-06 
26.982 1 42 0.834693 6.37634 0.403414 -0.692847 1.25354 4.6395 0.539417 0.112633 -0.0623134 -0.112523 -0.043321 -0.178298 -0.0439494 -0.0140543 -0.0744899 -1.71943e-05 -1.49297e-05 -6.16984e-05 
26.982 1 48 3.04484 6.15433 2.13335 -0.5147 0.877421 -3.82722 0.141822 0.17691 0.463017 -0.052274 -0.00510825 -0.151923 -0.0133256 -0.00386096 -0.0514732 1.28894e-05 -1.44747e-05 -3.24292e-05 
26.982 1 85 3.19144 8.19179 0.442504 -2.14318 0.260062 -1.97487 -0.3526 0.353531 -0.0914471 -0.00731216 0.0386103 -0.182668 -0.000523984 0.00444654 -0.0788017 5.09761e-06 -1.21295e-05 -6.2464e-05 
26.982 1 44 -1.24089 6.54527 2.24544 3.75558 -1.95278 -2.27649 0.000244861 -0.368236 0.557352 0.0163844 -0.147107 -0.171908 -0.00639624 -0.0452821 -0.0604564 -5.31523e-05 -1.20709e-05 -4.83832e-06 
26.982 1 87 5.19945 8.45633 2.46037 -2.04549 -1.04096 1.55549 -0.174448 -0.410251 -0.853598 -0.00409826 0.022022 -0.135613 -0.000983389 0.00135518 -0.0436673 -2.95862e-06 -1.31866e-05 -2.98172e-05 
26.982 1 246 5.19973 6.34811 4.19073 5.43239 -0.891298 -0.792745 -0.0494569 -0.585268 -0.049125 -0.000445864 -0.000415349 -0.0102541 -7.17284e-05 -0.000409112 -0.00413573 -2.70049e-06 -1.18659e-05 -7.64774e-06 
26.982 1 52 7.25948 6.26281 2.16396 -6.15835 -2.23195 -4.12064 0.250907 0.423138 0.0629804 0.0181142 0.017315 -0.120172 0.00183116 0.000629113 -0.0439231 -1.23542e-05 5.36952e-06 -2.6641e-05 
26.982 1 289 7.2792 8.25483 4.12345 -0.0937969 -2.91263 -3.80222 0.455642 -0.183204 0.532656 0.00142161 0.000669627 -0.0168632 0.000463294 0.00016117 -0.00508764 7.85037e-06 -2.26758e-06 6.15598e-06 
26.982 1 89 7.18541 8.36324 0.326751 -2.39886 2.49921 0.538632 0.153555 -0.0982372 0.157664 0.00678169 0.0480177 -0.183846 0.00156084 0.0103286 -0.0794165 2.2303e-06 6.39072e-08 -6.43062e-05 
26.982 1 286 5.301 10.2383 4.42145 3.97919 0.550244 0.660996 -0.25598 0.270811 0.124269 -0.000655028 0.000550483 -0.014278 0.000113105 0.000410385 -0.00395628 -4.00856e-06 4.42938e-06 2.63247e-06 
26.982 1 88 3.14945 10.3225 2.36629 0.204702 -1.8592 0.462254 -0.187207 -0.0115578 -0.0256392 -0.0497406 -0.0133509 -0.179088 -0.0147815 -0.00427772 -0.0510093 -5.72507e-06 1.48772e-06 -8.87082e-06 
26.982 1 92 7.39519 10.2583 2.27252 -0.390303 2.53521 3.92337 -0.126745 0.155938 -0.00528933 0.016716 -0.0210599 -0.152114 0.00822732 -0.000573138 -0.0515056 1.02257e-05 1.87631e-05 -3.8944e-05 
26.982 1 91 9.51497 8.19463 2.18022 4.09767 1.47079 3.72515 -0.0923016 0.00549907 -0.0497889 0.025601 0.0205325 -0.192241 0.0061345 0.00835509 -0.058591 -4.78806e-07 1.5282e-05 -2.73431e-05 
26.982 1 250 9.45048 6.22014 4.16125 -0.980762 -3.17283 3.60856 0.188144 0.271138 0.100189 0.00146614 0.00139231 -0.0126865 0.000327622 0.00011114 -0.004151 3.94409e-06 6.24883e-06 -4.66053e-07 
26.982 1 50 9.53766 6.20798 0.23428 2.17189 -2.11445 -1.2118 0.289845 0.308686 0.296753 0.0217465 0.0290725 -0.244721 0.00606777 -0.00012509 -0.0999831 1.31373e-05 4.27986e-07 -6.51969e-05 
26.982 1 290 9.46066 10.0833 4.17398 -3.37681 2.19726 3.89533 0.183925 0.552631 -0.0338598 0.00154739 -0.000156927 -0.0211965 0.000445926 0.000511523 -0.00726486 4.35409e-06 9.22106e-06 -6.66032e-06 
26.982 1 93 11.7612 8.39052 0.427123 3.21156 -1.5887 -2.52605 -0.176499 -0.117137 -0.429905 0.0234765 0.00587657 -0.0716731 0.0145571 0.00507211 -0.0565641 2.15028e-06 -1.19739e-06 -6.56913e-05 
26.982 1 56 11.6641 6.25218 2.25651 -0.189372 0.310943 -3.01455 0.0626167 -0.128161 -0.258004 0.00253255 0.0479322 -0.157987 0.00712362 0.00656971 -0.0570316 1.65687e-05 -1.30014e-05 -3.87889e-05 
26.982 1 293 11.6808 8.19319 4.17611 1.24221 1.95295 -1.70333 -0.281538 0.314245 0.190118 -0.000982424 0.00171883 -0.0231544 9.03406e-05 0.000752914 -0.00727466 -5.18763e-06 5.83127e-06 1.25243e-06 
26.982 1 95 13.8205 8.49557 2.34897 0.747384 1.71366 2.57159 0.212069 0.033011 -0.0616081 -0.0361876 0.0201916 -0.18369 -0.00230691 0.00346887 -0.0697571 1.45296e-05 -1.5071e-05 -3.61999e-05 
26.982 1 254 13.802 6.35426 4.0772 3.89764 0.868413 -0.0746675 0.229642 -0.525299 0.187226 -0.000363114 0.000206022 -0.0142651 0.000280814 -9.77697e-06 -0.0068025 6.16193e-06 -1.02239e-05 -7.07291e-06 
26.982 1 60 16.0609 6.32189 2.16483 1.75781 1.55617 1.79995 -0.061945 0.141623 0.339134 -0.0113054 0.0102834 -0.114304 -0.00520518 0.00422346 -0.0565017 -4.28926e-06 4.6884e-06 -6.05495e-05 
26.982 1 297 16.0291 8.2363 4.22432 -5.30059 3.39741 -1.22081 -0.0660729 0.140697 0.131864 -0.000235116 0.00240328 -0.0155532 -6.48581e-05 0.000770596 -0.00752282 -1.16763e-07 3.11369e-07 -5.36613e-06 
26.982 1 294 13.9152 10.2901 4.43126 -1.72504 4.63471 -4.96483 -0.173595 0.022207 -0.150532 5.6496e-05 0.00250102 -0.0222087 0.000346282 0.00101935 -0.00876274 -2.60968e-06 1.96037e-06 -3.19403e-06 
26.982 1 94 14.1395 10.3337 0.226127 -3.54034 2.68579 -2.92362 -0.773658 0.051132 0.434534 -0.021803 -0.0205497 -0.160861 -0.00293878 -0.00392276 -0.0591293 9.54408e-06 6.16808e-06 -5.95746e-05 
26.982 1 99 18.2707 8.42782 2.21799 -2.45025 -2.34501 3.42528 -0.18217 -0.450852 0.259754 0.00651367 0.0307268 -0.142441 -0.0063477 0.0110915 -0.0586315 -1.68969e-05 1.61314e-06 -5.01826e-05 
26.982 1 258 18.1081 6.42053 4.20903 -1.32827 1.54481 -2.15733 0.1216 -0.466928 0.0103579 0.000799622 0.00183068 -0.0102631 -1.01109e-05 0.000402969 -0.00526958 1.41554e-06 -8.7056e-06 -4.48662e-06 
26.982 1 301 20.3978 8.31513 4.27198 -0.900833 0.360124 0.69595 -0.41783 0.0244275 0.184933 0.00138106 0.00182519 -0.0175018 7.98801e-05 0.000664108 -0.00581711 -8.57743e-06 -2.42698e-06 1.35731e-06 
26.982 1 101 20.4052 8.35869 0.176922 -1.55018 1.48984 -2.49495 -0.35234 -0.289255 0.379492 0.0347156 -0.00198789 -0.228289 0.00515264 0.00438525 -0.101694 -1.69192e-05 -1.80887e-05 -6.20266e-05 
26.982 1 64 20.2193 6.44153 2.27053 7.0576 -1.85993 -2.76142 0.0705886 -0.367243 -0.127235 0.0215894 0.00436273 -0.139562 0.00540637 -0.00633609 -0.0536036 -3.71133e-07 -2.01493e-05 -4.90862e-05 
26.982 1 103 22.3654 8.49445 2.32753 -1.8141 0.00182387 1.06055 0.532246 -0.765217 -0.142593 0.00198442 0.0281679 -0.189959 0.0031307 0.00694215 -0.0628604 1.98491e-05 -2.51924e-05 -3.29685e-05 
26.982 1 262 22.4208 6.3349 4.10742 1.60231 -1.42648 2.01842 -0.10728 -0.259359 0.40374 0.000223547 0.00131823 -0.017327 0.000332965 -0.000158072 -0.00675098 -8.70647e-08 -7.84568e-06 -3.8479e-06 
26.982 1 305 24.5119 8.24837 4.24071 0.259813 1.55974 -1.3878 0.109923 0.236314 0.383886 -0.000666359 0.00119532 -0.0191063 0.000132803 0.000228034 -0.00666022 2.42655e-06 4.01522e-06 1.01465e-06 
26.982 1 302 22.1764 10.4794 4.33427 -1.55769 7.88477 2.27136 1.05532 -0.0558721 0.182739 -0.00042978 0.000612216 -0.0269566 -5.90845e-05 0.000372464 -0.00863478 1.58797e-05 -1.82745e-07 6.57706e-06 
26.982 1 102 22.3385 10.2379 0.282298 3.75867 -1.75346 5.87606 0.633261 0.462678 -0.144764 0.0127793 0.00830947 -0.0644759 0.00389629 0.0019698 -0.0345783 1.17027e-05 2.90519e-06 -6.9914e-05 
26.982 1 68 24.508 6.31781 2.33492 0.264193 2.94711 5.42465 -0.0732504 -0.162923 -0.456863 0.00544628 0.00410262 -0.166486 0.00459139 -0.00421556 -0.0661637 1.03912e-06 -3.92851e-06 -6.5895e-05 
26.982 1 107 26.8139 8.46516 2.35236 2.12833 1.35725 8.03639 -0.167836 -0.462003 -0.121395 0.0358 -0.0267253 -0.186768 0.0126008 -0.0123179 -0.0685782 -1.29374e-06 -2.21086e-05 -4.67141e-05 
26.982 1 266 26.5827 6.3616 4.13049 3.8634 -2.37718 -1.06577 0.337351 -0.164753 0.668256 0.00117711 0.00180618 -0.0205578 0.00044023 0.000176196 -0.00890807 6.01801e-06 -3.15621e-06 -8.553e-07 
26.982 1 108 24.5129 10.3019 2.45359 -4.66143 -0.811914 0.670554 0.102982 0.225733 -0.290278 -0.0456694 0.035048 -0.200966 -0.0123926 0.010142 -0.0675712 4.12549e-06 -1.05077e-05 -2.73531e-05 
26.982 1 309 28.7987 8.29104 4.43773 3.13777 -3.03051 -4.27461 -0.00564233 -0.126301 -0.228346 -0.00100619 -0.000432316 -0.0249084 -0.000170686 -0.000509002 -0.00953176 7.40441e-07 -4.12461e-06 -9.97428e-06 
26.982 1 72 28.9124 6.25945 2.45053 1.24743 -1.79108 3.11302 -0.246001 -0.00657464 0.117417 -0.0224472 0.0394436 -0.191534 -0.00412112 0.00507501 -0.0828456 -3.13671e-06 -1.34056e-06 -5.6379e-05 
26.982 1 111 31.0707 8.14819 2.48323 2.34485 -1.06868 1.58967 -0.100103 0.674297 -0.185591 -0.0260692 -0.0160083 -0.166032 -0.00468298 -0.0129672 -0.0675063 -2.76521e-06 -1.24089e-06 -5.01973e-05 
26.982 1 270 31.0817 6.23738 4.36572 -0.600405 -1.70705 -5.66837 -0.48671 -0.557641 0.378328 -0.000218064 0.00192748 -0.0159521 -0.00016836 0.00033831 -0.00849246 -1.07643e-05 -9.43111e-06 7.13148e-07 
26.982 1 112 28.8974 10.2695 2.34713 0.444843 1.00381 -6.00844 0.263272 -0.0844798 -0.0273979 -0.0102823 -0.0548384 -0.139276 -0.00432825 -0.0140718 -0.0545235 8.30325e-06 -2.19823e-06 -4.08722e-05 
26.982 1 310 31.0811 10.2797 4.42495 -2.17884 1.86974 1.0761 -0.295945 -0.30514 -0.94285 -0.00028056 -0.000324399 -0.0117512 0.000153336 -5.12195e-05 -0.00519841 -3.11204e-06 -4.54514e-06 -1.84291e-05 
26.982 1 313 33.1678 7.99113 4.37371 3.08436 -3.49743 -2.32479 -0.0325697 0.661078 -0.0718734 0.000951779 0.000413894 -0.0178322 0.000192937 -7.42884e-05 -0.00805198 -8.74431e-07 1.01842e-05 -5.70261e-06 
26.982 1 116 33.2007 10.2819 2.33562 6.40971 -2.72948 0.790229 -0.307045 -0.48359 -0.217442 0.0254243 0.011646 -0.162955 0.0119095 0.00505259 -0.0700211 -8.05347e-06 -1.25763e-05 -3.3121e-05 
26.982 1 76 33.1453 6.03209 2.28678 2.79098 -2.62444 -5.89873 0.0135749 0.502417 0.215444 0.0221293 0.0229826 -0.153694 0.00151781 0.00455765 -0.0715582 -1.33862e-05 6.00994e-06 -5.07251e-05 
26.982 1 115 35.2282 8.26494 2.30988 0.204886 -6.09808 -1.24684 0.028978 -0.0501021 0.026295 -0.0328539 -0.00938202 -0.152019 -0.0152808 -0.000387484 -0.0617292 -1.33219e-05 -1.09283e-06 -2.0883e-05 
26.982 1 274 35.2416 6.13973 4.27732 0.983223 1.42636 2.0587 0.290512 0.241113 0.122921 0.00227562 -0.00147371 -0.0192841 1.29181e-05 -0.000315964 -0.00752154 5.53137e-06 4.53695e-06 -1.09675e-06 
26.982 1 117 37.2616 8.1921 0.352737 -3.7545 1.76503 0.296555 0.0997531 0.493425 -0.181043 0.0107279 0.0151541 -0.339489 -0.00132537 0.00715789 -0.124069 2.2051e-05 3.22024e-06 -6.30207e-05 
26.982 1 80 37.3562 6.12613 2.26552 -0.243109 2.1891 3.50711 0.0584012 0.204938 0.376457 -0.00927068 -0.0690209 -0.171583 -0.00385673 -0.0196391 -0.0579929 1.43098e-05 5.0414e-07 -1.81281e-05 
26.982 1 317 37.3488 8.35055 4.22687 0.993143 -3.58463 4.43431 -0.212502 -0.560429 -0.0662836 -8.71467e-05 -0.00125613 -0.0125558 -0.000135101 -0.000218155 -0.00455345 -4.68759e-06 -9.2922e-06 -4.45294e-06 
26.982 1 314 35.1487 10.219 4.26543 0.949619 -0.109292 1.71732 0.248782 0.146367 0.227716 -0.000275106 0.00106792 -0.0188921 -0.000421994 0.000349405 -0.00797561 2.76968e-06 2.6194e-06 4.09249e-06 
26.982 1 74 35.1614 6.28953 0.342841 -7.2195 0.915548 3.50948 0.293703 -0.283679 -0.124018 0.036159 -0.0273998 -0.161722 0.00483624 -0.00850385 -0.0595225 -2.11652e-05 -9.29688e-06 -6.37549e-05 
26.982 1 281 41.7667 8.20205 4.51517 2.92095 5.89281 4.19558 -0.103337 -0.289682 -0.653583 -0.0572783 -0.0599387 -0.0687117 -0.0292301 -0.028775 -0.0322082 -3.40866e-06 -6.56284e-06 -1.12075e-05 
26.982 1 119 39.3099 8.2489 2.16428 -0.39723 1.81267 1.04184 0.337079 0.0507566 0.337435 0.0342408 0.0284089 -0.157465 0.0134434 0.00862449 -0.0574229 1.95281e-05 3.44728e-06 -4.42016e-05 
26.982 1 278 39.5016 6.28952 4.22044 4.18781 0.990372 -3.04987 0.0312441 -0.0370147 -0.0441659 0.0606809 -0.0620777 -0.0217219 0.0160193 -0.0162808 -0.00770553 1.62409e-06 6.09913e-07 -7.8522e-06 
26.982 1 318 39.4528 10.1475 4.23691 -2.01359 -0.438061 0.741666 0.115597 0.441135 -0.169575 0.0341543 -0.0273957 -0.0294611 0.0157067 -0.0131676 -0.0103728 3.92653e-06 6.7586e-06 -1.13578e-05 
26.982 1 123 0.938318 12.112 2.36845 -3.15311 4.79286 0.865788 0.0183676 0.39576 0.220263 -0.135772 -0.0632801 -0.18149 -0.0504108 -0.0114737 -0.061139 -2.81038e-05 1.22684e-05 -3.2411e-05 
26.982 1 282 0.964572 10.1251 4.32052 -0.192081 0.594135 -0.596413 0.260074 0.380286 0.412823 -0.134075 -0.0107779 -0.0580188 -0.0438616 -0.000770086 -0.0178803 -2.62666e-05 -8.46294e-06 -8.24189e-06 
26.982 1 322 0.915446 14.0282 4.49544 1.09984 -1.4092 -5.5303 0.369657 -0.0612324 -0.911123 -0.0888774 -0.0384194 -0.0483316 -0.0280097 -0.0134381 -0.014582 5.22924e-07 -3.69424e-06 -2.07991e-05 
26.982 1 124 -1.27411 14.2336 2.3359 -1.57864 2.58869 -2.71266 0.301187 -0.138756 -0.0568068 -0.157504 -0.0777483 -0.173177 -0.0749899 -0.0280372 -0.0632746 -3.98917e-05 -1.04466e-05 -4.83139e-05 
26.982 1 82 0.877699 10.3698 0.371547 -3.94968 -2.98474 -4.52568 0.263957 -0.209102 -0.132663 -0.138673 0.0575904 -0.105567 -0.0538359 0.0183525 -0.0627641 -3.66416e-05 -4.49596e-07 -5.32452e-05 
26.982 1 321 -1.15599 12.1111 4.35223 4.67817 -1.97912 0.584089 -0.132053 0.0832338 -0.422488 -0.076021 -0.0521733 -0.0693811 -0.0277769 -0.0224701 -0.028229 -2.97568e-05 -2.84706e-05 -3.98973e-05 
26.982 1 128 3.12005 14.1724 2.4591 1.65878 3.3898 2.23312 -0.165944 0.0546898 -0.3494 -0.0163936 0.00137378 -0.13944 -0.00707587 0.00377112 -0.0517012 -1.88387e-05 1.23212e-05 -3.71115e-05 
26.982 1 86 4.97304 10.3893 0.254582 -1.97108 -1.17408 -1.12707 0.721446 -0.708729 0.770758 -0.0145399 -0.0264168 -0.227846 0.00153941 -0.00424713 -0.101584 2.20539e-05 2.67864e-06 -6.02801e-05 
26.982 1 125 3.13024 12.3369 0.189877 -4.49017 -1.24814 -2.03894 -0.0713327 -0.204782 0.493873 -0.0321267 -0.053882 -0.244474 -0.0127044 -0.00432486 -0.099846 -2.06169e-05 1.9336e-05 -5.58527e-05 
26.982 1 325 3.12099 12.2238 4.38587 2.71156 2.52613 -5.39629 -0.0926226 -0.184725 0.0898429 -0.0140255 -0.00284073 -0.0170857 -0.00447501 -0.000374408 -0.00517869 -3.02984e-06 -2.96661e-06 -1.66432e-06 
26.982 1 127 5.26361 12.3213 2.36414 4.89316 -0.595006 3.86538 -0.0294838 -0.404594 -0.0671271 -0.0101756 -1.84005e-05 -0.126469 0.00232581 0.00467522 -0.0439272 1.20554e-05 -7.65681e-06 -2.25108e-05 
26.982 1 326 5.31947 14.1506 4.31108 -0.063292 1.59042 3.76111 -0.144645 0.51394 0.230877 0.000278993 0.000353633 -0.0135404 0.000137616 -9.5765e-05 -0.0049807 -3.06702e-06 7.67311e-06 3.47362e-06 
26.982 1 126 5.2919 14.2501 0.368246 -4.79468 1.24685 -2.09906 0.0561836 -0.149028 -0.154331 0.023698 0.00134869 -0.223712 0.00909096 1.85659e-06 -0.0804247 -2.87731e-06 -5.47893e-07 -6.43582e-05 
26.982 1 132 7.44866 14.2934 2.31547 2.48604 -1.38149 0.650204 -0.355967 -0.364274 -0.287437 0.0101459 0.0228069 -0.146243 0.00155459 0.00193615 -0.0530697 -2.54535e-06 -1.8026e-05 -2.78413e-05 
26.982 1 130 9.6163 14.0221 0.170681 3.30118 -0.315397 -8.77791 -0.237915 1.07884 -0.443075 0.0117998 -0.0278393 -0.182865 0.00816326 -0.015128 -0.0792415 9.69702e-06 3.26976e-07 -6.5462e-05 
26.982 1 329 7.54601 12.2608 4.20974 3.09074 0.367349 -5.75535 -0.380153 -0.098235 0.225339 0.000366247 4.0359e-05 -0.012878 0.000276298 -2.86913e-06 -0.00531013 -3.62911e-06 -4.39963e-06 -1.32761e-06 
26.982 1 131 9.45653 12.375 2.09681 0.0832585 -4.03885 -4.34601 0.126827 -0.59719 0.961924 0.0179839 -0.00577176 -0.156175 0.0087486 -0.00296073 -0.0616815 2.47719e-06 -2.64838e-05 -3.69235e-05 
26.982 1 330 9.41429 14.3116 4.31868 0.208719 1.3039 -2.28548 -0.089953 -0.0346781 -0.146885 0.000172473 0.00101597 -0.0173689 0.000190434 8.08676e-05 -0.00635451 -2.44241e-06 2.01947e-07 -3.31657e-06 
26.982 1 333 11.5982 12.3655 4.11731 2.07179 2.57543 -3.18669 -0.199762 -0.83494 0.513552 0.00113539 -0.000493903 -0.0191114 0.000369188 -0.000177426 -0.00842538 -4.93459e-06 -1.52855e-05 -2.98988e-06 
26.982 1 96 11.6713 10.3709 2.2664 -5.5046 -2.03051 -6.26004 -0.0030026 -0.0957399 0.192312 0.00168799 -0.0280551 -0.206316 0.00225434 0.00236129 -0.0736917 -1.04273e-05 1.42682e-05 -3.4481e-05 
26.982 1 136 11.5631 14.3087 2.42267 -0.759018 -1.29528 2.5933 0.0205445 0.345261 -0.935237 -0.00202976 0.0053014 -0.170173 0.000211347 -0.00444708 -0.0652748 2.69933e-06 4.85978e-06 -4.87721e-05 
26.982 1 135 13.927 12.2011 2.45111 -2.28193 -2.42052 4.55651 -0.0723642 0.0324506 -0.534846 0.0226836 -0.0119782 -0.190854 0.00518323 -0.00563103 -0.0758897 -7.44899e-07 1.47881e-06 -3.6345e-05 
26.982 1 334 13.6441 14.167 4.28154 -2.90528 0.242046 2.04643 0.44852 0.254862 0.00285079 0.000209323 -0.000752173 -0.0186539 -8.94784e-05 -0.000758738 -0.0071725 7.60299e-06 1.59503e-06 -4.70395e-06 
26.982 1 100 16.0229 10.359 2.34749 0.226232 -2.08001 -3.6349 0.150553 -0.0450244 0.0494944 0.000377805 0.0365053 -0.193668 0.00237772 0.0108182 -0.0802208 1.56759e-05 -1.33088e-06 -4.60838e-05 
26.982 1 337 16.1975 12.2893 4.33612 -0.173966 1.3986 0.285492 -0.617425 -0.162121 -0.0154332 0.000374903 0.000747823 -0.025575 0.000125832 -0.000185972 -0.0104064 -8.25645e-06 -2.48975e-06 -4.6064e-06 
26.982 1 134 13.8786 14.2722 0.431627 5.03316 -0.214296 -0.183638 0.0805999 -0.0698031 0.125242 -0.0344855 -0.00802208 -0.206879 -0.0116711 -0.0104559 -0.0821226 -1.09684e-05 -1.50203e-05 -5.97904e-05 
26.982 1 298 18.1392 10.2296 4.30642 0.67885 0.488892 7.89487 0.134401 -0.01291 -0.220388 0.000190222 0.00129193 -0.0220779 -0.000347686 0.000482119 -0.00911154 2.24862e-06 -4.18098e-07 -1.02631e-05 
26.982 1 140 15.976 14.2766 2.44257 0.587041 -0.448834 -7.47617 0.0385182 -0.171483 -0.571005 0.0268803 -0.0483808 -0.186936 0.00850393 -0.0183712 -0.070002 1.14481e-05 -1.56654e-05 -4.08603e-05 
26.982 1 139 18.3456 12.2262 2.21759 4.7096 1.09682 3.11589 -0.302898 0.184441 0.513052 -0.0146718 0.0149295 -0.225053 -0.00824862 0.000319946 -0.0847472 -8.64612e-06 -6.18815e-08 -5.84865e-05 
26.982 1 144 20.3166 14.3175 2.2201 0.0779136 -0.786634 4.33094 -0.0353705 -0.178165 -0.444471 -0.0247243 0.0198973 -0.219395 -0.0113891 0.000565692 -0.068196 -1.55191e-05 -1.65183e-05 -4.53003e-05 
26.982 1 338 18.1572 14.2458 4.32643 3.62789 -1.59123 -0.568815 -0.164047 -0.1919 -0.2444 -0.000311249 -0.00199664 -0.0252176 -0.000309725 -0.000879563 -0.00884032 -5.95611e-06 -4.02608e-06 -8.83139e-06 
26.982 1 341 20.3685 12.5427 4.22411 3.44197 -5.89507 3.87793 -0.222135 -0.629165 0.129167 -0.000258671 -0.000445657 -0.0244632 -0.000306803 -0.000522964 -0.00843476 -5.13685e-06 -1.08987e-05 -2.22702e-06 