ITEM: TIMESTEP
8000
ITEM: NUMBER OF ATOMS
4000
ITEM: BOX BOUNDS pp pp pp
-1.70013 42.2001
0.469611 40.0304
0.452753 40.0472
ITEM: ATOMS mass type id x y z vx vy vz fx fy fz xrad yrad zrad vxrad vyrad vzrad fxrad fyrad fzrad 
26.982 1 43 0.57129 4.26841 2.39742 -3.13696 4.08589 -0.453985 -0.297728 0.220544 -0.0572055 -0.23898 -0.166274 -0.362747 -0.0610873 -0.0356344 -0.0889314 -3.224e-05 3.69795e-06 -3.45018e-05 
26.982 1 202 0.623495 2.50353 4.55225 1.52243 2.07659 2.18401 -0.160365 -0.195325 -0.68902 -0.223921 -0.227383 -0.202325 -0.059114 -0.0469604 -0.0529601 -4.27654e-05 -1.49047e-05 -3.48459e-05 
26.982 1 4 42.14 2.31553 2.57478 2.85532 1.09359 2.08197 0.254489 0.456069 -0.432404 -0.229543 -0.298679 -0.333087 -0.0585783 -0.0688636 -0.0795228 2.13511e-06 -2.77296e-05 -1.06186e-05 
26.982 1 2 0.523768 2.22089 0.364221 -5.19982 -7.31269 -0.346976 -0.345789 0.796164 0.368071 -0.165101 -0.219404 -0.418318 -0.0367962 -0.0581067 -0.107556 -1.70578e-05 7.3417e-06 -3.20016e-05 
26.982 1 8 2.62354 2.49189 2.44006 -2.31714 1.24789 -1.76464 0.0781282 -0.194279 0.0768607 0.0931914 -0.365858 -0.344563 0.0202012 -0.0839705 -0.0985712 -1.63855e-06 -4.2736e-06 -3.20623e-05 
26.982 1 205 2.68109 0.475732 4.31259 -1.7803 -1.71527 -4.44059 0.0570348 -0.325065 -0.050884 0.025893 -0.203821 -0.178159 0.00636185 -0.0805031 -0.0667588 -1.58347e-05 -4.86601e-05 -2.82377e-05 
26.982 1 1 -1.80528 0.465525 0.469328 5.3038 -3.68179 -2.77875 0.21483 0.108989 -0.0918087 -0.14134 -0.175232 -0.452199 -0.032094 -0.0435908 -0.101329 -1.6989e-05 -1.18521e-05 -1.24175e-06 
26.982 1 1013 11.5529 0.572155 20.359 0.787964 5.9967 3.43566 0.00678681 -0.382071 0.0457474 -0.111067 -0.373429 0.0130317 -0.028015 -0.0668503 0.00296405 -3.50219e-05 -3.7698e-05 1.82385e-05 
26.982 1 245 2.72232 4.45143 4.52681 -2.3066 -1.97592 -3.88214 -0.076344 -0.054295 -0.019436 -0.0163894 -0.0434773 -0.0501109 -0.0042418 -0.00850933 -0.0134258 -4.96051e-06 4.24888e-07 -7.12251e-06 
26.982 1 47 4.67906 4.28136 2.57054 -3.6352 -3.15148 -2.83764 0.6957 0.282922 -0.465886 -0.0410256 -0.108849 -0.311763 -0.00844046 -0.0221412 -0.0924294 9.59088e-06 6.44322e-06 -5.88566e-05 
26.982 1 206 4.97785 2.46441 4.53193 1.35297 -1.27541 0.167244 -0.0997768 0.0315282 -0.133898 -0.0297213 -0.371053 -0.207256 -0.00127544 -0.0795398 -0.0499187 -4.39855e-07 -2.93037e-06 -9.26695e-06 
26.982 1 12 7.11399 2.46405 2.37344 4.58693 1.38385 -0.0276823 -0.260807 0.0625369 -0.0118504 -0.0759662 -0.457628 -0.269835 -0.0233654 -0.096982 -0.0756898 -1.57638e-05 -5.98248e-06 -4.88338e-05 
26.982 1 249 7.22621 4.43377 4.36411 5.22816 0.3222 1.7734 -0.468481 -0.542825 0.268138 -0.00326764 -0.0378402 -0.0340622 -0.000856665 -0.00810678 -0.00998448 -8.81213e-06 -6.14578e-06 -5.02408e-06 
26.982 1 209 7.20776 0.565173 4.52106 1.78551 1.99197 0.260792 -0.304265 -0.262844 -0.813197 -0.0213805 -0.318039 -0.298866 -0.00679816 -0.0850414 -0.0695795 -1.04794e-06 -4.03163e-05 -3.29391e-05 
26.982 1 7 4.90928 0.602124 2.51861 2.36386 1.19396 -0.855439 0.00794476 -0.206718 -0.0654008 -0.0269377 -0.0147826 -0.375169 -0.0119893 -0.0161481 -0.0988084 1.26145e-05 -4.43516e-05 -3.58275e-05 
26.982 1 5 2.71974 0.550884 0.566652 -0.311754 -2.86471 2.45362 -0.00556593 -0.535351 -0.123315 0.0168558 -0.182616 -0.316347 0.00284608 -0.0430081 -0.0639587 6.42061e-06 -3.40292e-05 -3.5452e-05 
26.982 1 961 -1.63347 16.1951 16.2074 -2.26065 -1.04033 -2.81811 -0.186824 0.682528 0.0684246 -0.239981 -0.142832 -0.167007 -0.054574 -0.0339157 -0.0397348 -3.39527e-05 -2.01847e-05 -2.96255e-05 
26.982 1 51 9.20688 4.58848 2.15148 -1.30894 0.486513 -0.508898 0.0299283 -0.317809 0.53234 0.00513079 -0.040945 -0.246023 0.00313215 -0.0089674 -0.0711489 -1.55012e-05 1.71822e-05 -4.16362e-05 
26.982 1 210 9.28214 2.68727 4.20691 3.11484 1.82916 -2.56987 0.219102 -0.579473 0.285936 0.00361662 -0.309715 -0.164949 0.00472493 -0.0700022 -0.0349714 5.34279e-06 -1.243e-05 -4.27335e-07 
26.982 1 16 11.5195 2.32537 2.28095 -3.7899 3.69194 -3.22742 0.0812148 -0.353303 0.34587 0.0913908 -0.421052 -0.309064 0.0244374 -0.0979486 -0.0838418 2.68741e-05 -3.44248e-05 -2.87634e-05 
26.982 1 213 11.5357 0.304517 4.25988 -0.808496 -4.55899 -1.21885 0.0908889 0.724177 -0.0469735 -0.00976553 -0.30012 -0.291983 0.00118524 -0.0682232 -0.0673284 7.32479e-06 -3.50108e-05 -3.6974e-05 
26.982 1 998 40.0938 18.4614 16.1462 -1.70696 0.755918 2.23206 0.0121223 -0.801576 0.540659 0.0744315 0.0374097 -0.105042 0.0167922 0.0108701 -0.0247645 1.04956e-05 -2.04622e-05 6.87916e-06 
26.982 1 253 11.4704 4.34757 4.148 -2.11028 0.377485 -6.57291 -0.00713064 0.0302262 0.441927 0.00351172 -0.0390023 -0.0373574 0.00100365 -0.0097194 -0.0111806 -1.26151e-06 -1.84891e-06 2.79436e-06 
26.982 1 55 13.6989 4.51037 2.36602 -3.49629 2.01091 -2.33132 0.0358366 -0.274757 0.357433 0.00156452 -0.115655 -0.358773 0.00402168 -0.0252796 -0.101602 1.30642e-05 -7.35618e-06 -4.99567e-05 
26.982 1 214 13.77 2.30952 4.41742 -1.9792 -0.80828 1.58518 -0.465514 0.559819 -0.404338 0.0485363 -0.360583 -0.183597 0.00636941 -0.0855284 -0.0455096 -7.34183e-06 -1.18039e-05 -2.81181e-05 
26.982 1 20 15.8166 2.49658 2.35584 1.49058 -0.643223 0.226573 0.508449 -0.0466261 0.298882 -0.144918 -0.453948 -0.268676 -0.0255347 -0.103993 -0.0871524 -4.54139e-06 -1.17173e-05 -5.93567e-05 
26.982 1 257 15.6835 4.48303 4.48529 3.72767 1.3543 2.39321 0.53029 -0.29308 -0.17525 -0.00406748 -0.0491065 -0.0375133 -0.000449036 -0.011001 -0.0127168 1.24209e-05 -6.59118e-06 -1.27308e-05 
26.982 1 218 18.0793 2.3136 4.28866 -6.26816 -6.4797 -0.969163 -0.256324 0.48094 0.565346 -0.0393793 -0.33784 -0.117469 -0.00914217 -0.0779641 -0.0341103 -7.18994e-06 1.384e-06 -1.42419e-06 
26.982 1 59 18.335 4.36129 2.4375 2.81935 3.84472 3.62269 -0.756358 0.238469 0.00518085 0.0164479 -0.00731797 -0.254991 0.00127417 -0.00314497 -0.0863191 -1.47486e-05 -9.27155e-06 -4.10138e-05 
26.982 1 24 20.3338 2.47534 2.55788 1.76402 -4.3798 -1.5768 0.0274659 -0.143302 -0.270158 0.0402999 -0.338224 -0.210823 0.00656982 -0.0758689 -0.0715255 -1.02296e-05 -1.47394e-05 -4.82097e-05 
26.982 1 19 18.0864 0.372221 2.43904 4.09348 1.77896 4.1254 -0.176555 0.0139858 -0.125475 0.0150708 -0.389854 -0.19322 -0.00176577 -0.0865811 -0.06547 -3.70865e-07 -4.34998e-05 -4.67794e-05 
26.982 1 815 13.7744 0.490126 18.3464 2.47225 0.9067 -4.06489 0.0619135 0.101808 -0.244133 0.0453928 -0.436488 -0.080347 0.008203 -0.072864 -0.0303409 2.59235e-05 -6.08051e-05 -1.81103e-06 
26.982 1 221 20.2328 0.601614 4.48678 0.559239 -3.52309 2.73791 0.380028 -0.428709 0.284988 -0.0567132 -0.249195 -0.220726 -0.0113548 -0.07488 -0.064639 2.75202e-06 -4.66993e-05 -1.82108e-05 
26.982 1 261 20.3894 4.47325 4.40273 -0.88578 -3.1689 -0.397245 -0.333287 -0.600201 0.404334 0.00242766 -0.0350475 -0.0384957 0.000539372 -0.00798818 -0.0124712 -8.14115e-06 -1.06465e-05 2.72004e-06 
26.982 1 63 22.3359 4.44729 2.27767 -6.8505 4.95349 2.85598 0.847228 -0.00891577 0.469012 0.0103519 -0.00141244 -0.336683 0.00403426 -0.00159208 -0.101396 1.0342e-05 1.32058e-05 -4.58417e-05 
26.982 1 222 22.6318 2.40931 4.45021 -6.9694 0.581095 -0.889161 -0.608834 0.115541 0.0721109 -0.0309037 -0.286454 -0.141237 0.000912841 -0.0716186 -0.0374992 -7.54117e-06 -6.85616e-06 -4.0115e-06 
26.982 1 28 24.5262 2.61113 2.4561 -2.31606 -0.345333 1.14087 0.362192 -0.305977 -0.0325093 -0.0475193 -0.24458 -0.299565 -0.00871332 -0.0693607 -0.0914368 2.18457e-05 -1.05978e-05 -5.1677e-05 
26.982 1 265 24.6063 4.61792 4.43313 0.449325 -1.84491 1.0261 0.0822878 -0.225569 -0.0456882 -0.000505985 -0.0252262 -0.0451842 -0.000233868 -0.00768975 -0.0141514 1.58622e-06 -2.02725e-06 -1.09224e-05 
26.982 1 23 22.4911 0.505203 2.48481 2.80205 -0.0326498 7.11006 -0.0241933 -0.206119 0.285032 -0.00762478 -0.254519 -0.290216 0.00753771 -0.0646164 -0.0813172 1.31413e-06 -5.98273e-05 -3.12378e-05 
26.982 1 1009 7.10965 0.497706 20.1829 1.68058 2.20863 4.59713 -0.229587 -0.216807 -0.397665 -0.0369242 -0.395406 -0.148839 -0.0181385 -0.0908697 -0.0466355 1.6113e-06 -5.94614e-05 -2.90421e-05 
26.982 1 22 22.3447 2.44353 0.447129 -1.07359 1.07327 3.24374 0.34628 -0.235908 -0.0971672 0.0235175 -0.22706 -0.481476 0.0150917 -0.0616026 -0.111627 1.53545e-07 -7.24579e-06 -6.26132e-05 
26.982 1 67 26.9927 4.41299 2.39048 -4.31144 1.67555 -1.66156 -0.118078 -0.077848 0.107157 0.0154227 0.00823386 -0.398582 0.00367202 -0.00267511 -0.115196 -2.08656e-06 -6.77832e-06 -5.83768e-05 
26.982 1 226 26.5804 2.51127 4.49366 1.37056 -1.37008 -6.22894 0.612401 0.0417147 -0.21351 0.0282165 -0.209725 -0.0731424 -0.0030828 -0.054281 -0.0238007 1.04715e-05 -4.84014e-06 -1.48449e-05 
26.982 1 269 29.0924 4.43677 4.38321 2.64529 3.32028 1.11751 -0.0318972 -0.0268943 0.458195 -0.00270222 -0.0268647 -0.0474595 -0.000170128 -0.00600168 -0.0149464 -1.74628e-06 -8.03475e-06 -2.19551e-06 
26.982 1 229 29.1629 0.552827 4.55743 -1.64512 -1.7385 1.67779 -0.14872 -0.233907 0.0357146 0.00143972 -0.247545 -0.151852 0.00643407 -0.0812634 -0.053647 1.13448e-05 -3.99518e-05 -3.07104e-05 
26.982 1 809 7.23358 0.543378 16.4107 2.51105 -1.70117 4.72093 -0.330921 -0.0193488 -0.468433 0.0172182 -0.3896 -0.313978 0.00310167 -0.0922472 -0.0730932 6.23888e-06 -3.6408e-05 -3.41488e-05 
26.982 1 2801 -1.71077 20.2042 16.2754 6.9756 3.08257 -3.40716 0.169723 0.102186 0.0937777 -0.390073 -0.00252468 -0.380431 -0.0921613 0.0041721 -0.10186 -3.10851e-05 2.0785e-05 -2.80088e-05 
26.982 1 2835 35.6253 20.0853 18.1473 1.40311 -0.264385 3.75736 0.0819808 0.0883832 0.229621 -0.126262 -0.104679 -0.228022 -0.0362495 -0.0298585 -0.0605994 1.20231e-05 1.91421e-05 -2.40128e-05 
26.982 1 32 29.1407 2.45126 2.63104 -1.95175 -0.452434 0.045088 0.0824219 0.156206 -0.751268 0.00381331 -0.261642 -0.308588 0.0054525 -0.0567983 -0.0964537 1.12528e-05 -1.73181e-05 -6.00413e-05 
26.982 1 71 31.3117 4.51508 2.43676 3.97524 -5.9931 -2.69833 -0.141841 -0.438803 -0.0535155 -0.0345352 0.0047009 -0.309893 -0.0115832 -0.00179052 -0.0994811 -1.62062e-06 -8.79712e-06 -6.46161e-05 
26.982 1 230 31.4877 2.48311 4.30997 -2.22003 2.35003 -3.4142 -0.66124 0.168733 0.442652 -0.0382529 -0.250005 -0.107417 -0.00224801 -0.0639509 -0.0356241 1.07487e-06 -3.11928e-05 -1.44365e-05 
26.982 1 36 33.3469 2.46739 2.35735 -3.81232 3.50998 -0.150579 0.288537 -0.108335 -0.263282 -0.0205118 -0.244617 -0.294594 -0.0105558 -0.0698455 -0.0863109 -6.54564e-06 -3.59575e-05 -4.89281e-05 
26.982 1 2833 33.4725 20.2794 16.3804 0.386385 2.43507 -2.42497 -0.394932 -0.257844 -0.654045 -0.22104 -0.0298044 -0.361495 -0.0471498 0.00280209 -0.0888302 -1.71237e-05 1.78062e-05 -5.08258e-05 
26.982 1 2821 20.3079 20.3045 16.3021 2.88962 7.17703 1.42625 -0.0986903 0.120053 0.0773924 -0.0705289 0.186305 -0.24275 -0.0287168 0.0189616 -0.063985 -2.52687e-05 2.9275e-05 -3.07651e-05 
26.982 1 273 33.5566 4.42496 4.35108 -3.04234 0.0495499 1.2168 -0.0545119 -0.209734 0.433291 0.00175817 -0.0172208 -0.0366483 -0.000120643 -0.00566688 -0.0113097 -8.51121e-07 -8.12593e-06 1.41177e-06 
26.982 1 75 35.5388 4.34918 2.40626 -0.718291 -0.176588 -1.1919 0.450872 0.193277 -0.0681408 0.0803583 0.00474491 -0.400179 0.0145013 -0.00300044 -0.10604 4.10452e-06 -1.60315e-05 -5.10605e-05 
26.982 1 234 35.7896 2.35659 4.33269 -0.13635 6.19567 -3.64213 -0.333952 0.0590394 0.13325 0.0150025 -0.16778 -0.0688987 0.0034134 -0.0486443 -0.0218085 -3.67153e-06 -3.19417e-05 -5.31327e-06 
26.982 1 40 37.8314 2.51608 2.42597 -7.49924 -0.740418 -1.68737 0.000746667 -0.39802 -0.332527 0.158308 -0.249748 -0.450703 0.0235323 -0.0632994 -0.106728 3.44028e-06 -2.34009e-05 -2.14344e-05 
26.982 1 277 37.8444 4.3791 4.34147 -1.21198 1.51633 -1.76055 0.181984 0.249086 0.160829 0.00505079 -0.0240763 -0.061849 0.000786737 -0.00648078 -0.0158099 4.66423e-06 -2.00368e-06 -4.43444e-06 
26.982 1 241 42.4405 4.31905 4.45857 -1.05345 1.55695 1.31242 -0.418375 0.473587 -0.284109 -0.234559 -0.240211 -0.259075 -0.0493979 -0.0477253 -0.0543678 -9.00279e-06 1.05712e-06 -1.45614e-05 
26.982 1 79 39.8197 4.40212 2.43958 0.920303 -0.119462 2.15555 0.651597 0.0816601 -0.0803438 -0.055093 -0.0945429 -0.445198 -0.00969201 -0.0119358 -0.112325 1.00528e-05 -3.40343e-06 -3.11018e-05 
26.982 1 238 40.1566 2.45358 4.60578 4.38704 -3.17786 0.231785 -0.047865 -0.125599 -0.358304 -0.000709981 -0.287297 -0.191955 -0.00333344 -0.0682002 -0.0422176 -3.90943e-06 -4.11241e-05 -2.26831e-05 
26.982 1 999 39.9716 16.2951 18.1967 -4.75361 -2.33843 1.80568 0.391536 0.247542 -0.175685 0.115273 -0.00977814 -0.102323 0.0239832 -0.00251609 -0.0206943 2.23706e-05 5.40073e-06 -1.52546e-05 
26.982 1 83 0.483398 8.32784 2.62923 -0.89181 0.707234 -5.48035 0.225958 -0.0124265 -0.535633 -0.288835 -0.081439 -0.34091 -0.070452 -0.0246765 -0.0854177 -6.80098e-06 -4.09427e-07 -5.19884e-05 
26.982 1 242 0.500758 6.36041 4.46333 2.12178 -2.48732 1.28688 0.244179 -0.100409 0.107719 -0.296436 0.0224961 -0.164881 -0.0701172 -0.00214969 -0.0388312 -1.28332e-05 -1.3979e-05 -6.93729e-06 
26.982 1 285 2.81439 8.59451 4.63636 1.89091 -1.32256 1.74026 -0.260126 -0.560191 -0.363766 -0.0325706 -0.00158018 -0.0392837 -0.00617718 -0.000967909 -0.00919547 -5.18748e-06 -7.73114e-06 -9.31233e-06 
26.982 1 48 2.62576 6.35945 2.47392 -0.18793 -3.94586 1.1169 0.0431043 0.259425 0.156745 -0.0814528 -0.0193981 -0.325733 -0.0121504 -0.00898027 -0.0860412 1.84558e-06 -5.27137e-06 -4.21586e-05 
26.982 1 84 42.0931 10.3121 2.41595 1.77224 -1.45621 1.3211 0.446473 0.231593 0.0126572 -0.321038 -0.0800815 -0.461235 -0.0756296 -0.024996 -0.105436 3.62988e-05 -4.01105e-05 -1.93912e-05 
26.982 1 44 -1.64921 6.27657 2.49721 -4.97609 5.58049 -2.77189 0.067243 0.104108 -0.0899763 -0.00935902 -0.285584 -0.359267 -0.017142 -0.0641022 -0.0893277 -4.01541e-05 -1.89644e-05 -3.30993e-05 
26.982 1 2823 22.4564 20.3733 18.2714 1.53593 -1.40936 -0.877042 -0.0263223 -0.420928 0.00522687 -0.0708276 -0.0615543 -0.267226 -0.0297395 -0.00333137 -0.0657852 -4.7355e-06 1.95357e-05 -2.80916e-05 
26.982 1 87 4.80367 8.53875 2.51005 2.75314 -3.28987 4.15056 -0.0150454 -0.472177 0.0926902 -0.00621259 0.0162194 -0.287628 0.000438625 -0.00539138 -0.0752936 1.30781e-05 -9.15535e-06 -4.80914e-05 
26.982 1 246 4.77547 6.44206 4.5373 1.01173 2.19107 -0.684389 0.159771 0.0566258 -0.37248 -0.000990375 -0.00133004 -0.0267743 -0.000259098 -0.000504163 -0.00897276 2.15181e-06 1.35418e-06 -1.53304e-05 
26.982 1 289 7.01619 8.45715 4.49514 -0.401767 -2.38947 -0.200393 -0.0948197 -0.341315 0.0363188 0.00230512 0.00105132 -0.0341081 0.000360037 -5.80466e-05 -0.00873481 -3.05527e-06 -5.5061e-06 -6.3786e-06 
26.982 1 85 2.70375 8.28759 0.459532 0.55761 -1.81371 -0.750419 -0.188088 0.0271902 0.114434 -0.00912183 0.0370678 -0.424661 -0.001603 -0.00527914 -0.122186 -1.69222e-06 -7.97892e-07 -5.74411e-05 
26.982 1 3021 20.2422 20.287 20.4236 -0.372646 -2.78557 1.9864 -0.00960607 0.0135663 -0.635861 -0.171076 -0.261084 -0.396206 -0.046973 -0.066355 -0.0791618 -1.65321e-05 1.74682e-05 -2.43417e-05 
26.982 1 2819 18.0349 20.2659 18.2753 -1.91913 -0.64552 -1.27351 0.381092 0.284819 0.452986 -0.180065 -0.0877835 -0.331298 -0.0500328 -0.0257731 -0.0809941 -8.21556e-06 4.18577e-05 2.99611e-06 
26.982 1 52 6.84074 6.2775 2.624 -3.0106 1.76084 -3.4173 0.0437036 0.45788 -0.671769 0.0149105 0.0236654 -0.26582 -0.002141 0.00164221 -0.0754046 -3.55321e-06 9.98223e-06 -6.26898e-05 
26.982 1 91 9.08478 8.44449 2.58934 -0.769427 3.71215 2.72865 0.435268 -0.434408 0.109205 0.0404265 0.0451662 -0.376325 0.00769175 0.00794585 -0.0902759 5.9211e-07 -3.57232e-06 -6.32012e-05 
26.982 1 250 9.20281 6.41798 4.41855 0.34101 -4.77851 -4.91846 0.147835 -0.423794 -0.118101 0.00217909 0.00191587 -0.0272766 0.00037618 0.000227462 -0.00813298 3.22695e-06 -3.64735e-06 -8.07706e-06 
26.982 1 56 11.3794 6.35793 2.46643 0.0797936 4.00856 5.257 -0.0400946 0.206566 -0.28753 0.0198735 0.0606409 -0.336501 0.00609413 0.00746376 -0.0883462 -3.03688e-06 2.00455e-05 -4.93581e-05 
26.982 1 3013 11.4964 20.2958 20.1276 -1.42791 0.896904 -1.55875 0.28823 0.213946 0.669618 -0.162527 -0.12231 -0.231555 -0.0466372 -0.0378932 -0.0635066 -8.79102e-07 1.5483e-05 -1.46329e-06 
26.982 1 435 35.8183 0.545361 10.0901 1.4029 -0.265964 -1.79757 -0.204048 -0.0640464 0.312963 0.0266739 -0.0534022 -0.311082 0.00669865 -0.00545653 -0.0764002 -5.74526e-07 -5.97683e-05 -3.04198e-06 
26.982 1 293 11.5669 8.41708 4.25299 -1.8242 -6.04411 3.18831 -0.282936 -0.512081 0.355051 -0.000602288 0.00411368 -0.0457017 0.0002774 0.00100219 -0.0114174 -3.21476e-06 -7.36326e-06 -5.25817e-06 
26.982 1 95 13.6284 8.18675 2.2239 0.903669 2.26697 3.15393 0.135814 0.454291 0.330596 -0.0338257 0.0306479 -0.398219 0.00148786 0.0066866 -0.106585 2.51695e-06 3.75722e-06 -5.81835e-05 
26.982 1 254 13.592 6.31098 4.42341 -3.2427 5.55066 -0.219207 -0.0510605 0.427884 -0.0996203 0.000595396 -2.16627e-05 -0.0358299 0.00039846 6.72739e-05 -0.0107901 -2.91689e-07 8.68642e-06 -8.1807e-06 
26.982 1 297 15.7624 8.25799 4.55855 -4.61529 -0.833064 -1.48791 0.0575632 0.279024 -0.286393 0.000300658 0.00396864 -0.0411647 5.61455e-05 0.000566386 -0.0126974 1.28469e-06 6.36973e-06 -1.1251e-05 
26.982 1 60 15.9362 6.3524 2.43128 0.710522 -2.19081 -1.03393 0.0643542 -0.14443 -0.0581432 -0.0150704 0.0253726 -0.308081 -0.000967765 0.00505116 -0.0982685 -4.825e-06 -1.04908e-06 -4.41508e-05 
26.982 1 99 18.1248 8.31565 2.30731 -3.28098 0.590544 1.80791 0.247532 -0.034343 0.517718 -0.0158144 0.0526631 -0.342656 -0.0114989 0.00583624 -0.0951653 -1.06444e-05 -3.65957e-06 -1.21852e-05 
26.982 1 258 18.0689 6.34876 4.58133 1.28962 1.96328 -2.48133 -0.15453 -0.0397326 -0.503381 0.000736462 0.00248236 -0.0308515 -0.000119487 9.62548e-05 -0.0106396 -5.29105e-06 -6.18276e-07 -1.28525e-05 
26.982 1 298 18.0457 10.2417 4.29262 -1.22094 0.650942 7.19106 0.0249882 -0.346179 0.475542 -0.000717571 0.00230038 -0.0505867 -0.0004742 0.000377509 -0.0126831 -2.52965e-06 -7.65671e-06 2.03751e-06 
26.982 1 100 15.8237 10.1647 2.42173 -0.62551 2.16569 0.565869 0.104776 0.215775 0.39686 0.00971398 0.0524438 -0.438403 -0.000396068 0.00300523 -0.114511 -1.50757e-05 -1.49492e-05 -3.53659e-05 
26.982 1 98 18.0733 10.3145 0.3462 -3.04121 1.99587 2.2496 0.101113 -0.277134 0.194236 -0.0361235 0.00103835 -0.298294 -0.00718515 -0.000343557 -0.0817295 -1.45178e-05 -8.58432e-06 -5.95121e-05 
26.982 1 821 20.2888 0.560282 16.2607 3.34579 6.60054 5.56233 0.222853 0.0113685 -0.103473 0.0398577 -0.369702 -0.326285 0.0064637 -0.0680763 -0.0627234 -7.31954e-06 -4.08519e-05 -3.04996e-05 
26.982 1 58 18.1201 6.30911 0.431256 2.43519 0.1239 2.11052 -0.117347 -0.0842998 0.0564835 0.0222677 0.0283162 -0.505184 -0.000571481 0.00169002 -0.104907 -9.90158e-06 -1.57745e-05 -5.82286e-05 
26.982 1 301 20.3238 8.23173 4.4906 4.97851 -0.528466 4.10856 -0.300497 0.517936 -0.191681 0.00150791 0.00329929 -0.0373839 0.000331292 0.000496463 -0.00987851 -7.15582e-06 8.9185e-06 -5.44916e-06 
26.982 1 64 20.426 6.34596 2.55231 -3.22219 -4.53869 -1.58714 -0.564438 0.520006 -0.785142 0.0306298 -0.0141532 -0.321881 0.0055598 -0.0101445 -0.0917012 -3.1314e-06 -1.41555e-06 -4.27993e-05 
26.982 1 103 22.5121 8.3271 2.25529 -1.19887 5.37865 6.39632 0.330615 -0.187951 0.396119 0.0175217 0.042092 -0.394132 0.0102233 0.00377247 -0.102973 1.86966e-05 -2.13319e-05 -3.03883e-05 
26.982 1 262 22.4502 6.3559 4.39566 3.24257 0.365115 -0.93706 0.3847 0.301137 0.0803388 0.00145432 0.000437105 -0.0404315 0.000732231 -0.000442628 -0.0122275 9.42575e-06 6.32493e-06 -5.64562e-06 
26.982 1 305 24.7478 8.19929 4.44441 1.36653 -1.11372 -3.58962 -0.31194 -0.00128475 -0.146712 -0.000286071 0.00124586 -0.0431084 -2.79405e-05 -3.13021e-05 -0.0127389 -6.5464e-06 -5.57668e-07 -9.36007e-06 
26.982 1 68 24.8381 6.29627 2.31984 1.02277 -2.22447 1.89819 -0.367469 0.250625 0.174686 0.0171062 -0.00585246 -0.390454 0.00189047 -0.00265763 -0.112266 -3.85361e-06 1.56874e-06 -5.97168e-05 
26.982 1 107 26.9693 8.33348 2.43512 6.41406 -5.67363 -7.15115 0.0634479 -0.0626076 0.11629 0.0618499 -0.0551711 -0.413101 0.0057269 -0.00918797 -0.10841 -9.78043e-06 -1.54891e-05 -3.43086e-05 
26.982 1 266 26.9142 6.4087 4.51384 1.50761 1.84947 2.79978 -0.233114 -0.291673 -0.595051 0.00165691 0.00203839 -0.0494439 -8.08514e-05 5.50048e-05 -0.0136585 -6.23732e-06 -6.0568e-06 -1.61989e-05 
26.982 1 623 22.515 0.642987 14.3145 4.2105 -0.756027 -2.20368 -0.258997 -0.26675 0.352236 -0.0159962 0.0935335 -0.317916 -0.00808856 -0.0123346 -0.0671205 1.08159e-05 -6.13567e-05 -1.02935e-05 
26.982 1 72 29.1358 6.34866 2.51252 3.56507 3.73208 -1.57556 -0.268445 0.232602 -0.354457 -0.034424 0.0466923 -0.451301 -0.00346141 -0.00133726 -0.120307 -4.14188e-06 -1.03223e-05 -5.23487e-05 
26.982 1 306 26.8975 10.2193 4.44561 -6.56367 2.66597 -5.44354 0.0158284 0.0337872 -0.152393 -0.000349043 -0.00224763 -0.0367239 -0.000104575 -0.000399495 -0.0110865 1.18311e-06 9.60771e-07 -6.24004e-06 
26.982 1 309 29.0302 8.20083 4.55173 -3.59633 6.71177 -0.467379 0.222763 0.683462 -0.724079 -0.00185114 -0.00150498 -0.0544229 -0.000425684 -0.000307257 -0.0132055 4.31414e-06 1.05005e-05 -1.34492e-05 
26.982 1 109 29.1459 8.34655 0.548061 -0.364685 0.365944 -0.290217 0.0586783 -0.0655036 -0.269219 -3.64492e-06 -0.0287368 -0.0998557 -0.000970071 -0.00837318 -0.0559205 1.31777e-05 -1.8322e-05 -6.316e-05 
26.982 1 111 31.394 8.24398 2.6011 2.41784 -1.3547 -1.14332 -0.430945 0.777393 -0.434221 -0.0444036 -0.0512857 -0.373065 -0.0080743 -0.0163513 -0.0952515 -7.84558e-06 5.96789e-06 -3.77081e-05 
26.982 1 270 31.2643 6.40995 4.34409 -0.647615 -6.31066 1.38434 0.157318 -0.144568 0.664565 -0.00139726 0.00293342 -0.0421409 -0.000634728 0.000127804 -0.0125329 3.03786e-06 8.03314e-08 2.32547e-06 
26.982 1 113 33.3301 8.42561 0.547777 0.522492 7.4672 -5.60042 0.428055 -0.266923 -0.155559 0.005165 0.0313537 -0.326026 -0.000772115 0.00102212 -0.0958624 -9.02912e-06 7.39112e-06 -6.50751e-05 
26.982 1 116 33.2063 10.3819 2.38858 3.10402 2.41952 0.996912 0.383352 0.194231 0.488309 0.0491682 0.0253277 -0.362104 0.00871417 0.00838787 -0.0904212 1.79963e-06 2.04525e-05 -4.39613e-05 
26.982 1 615 13.6825 0.315623 14.3462 -2.16147 -0.38012 3.14892 0.00540071 0.304536 0.203773 -0.0268641 0.0745274 -0.378061 0.000395171 -0.000798562 -0.0842885 5.77531e-06 -5.51532e-05 1.16154e-05 
26.982 1 2639 40.1334 20.3974 14.3257 2.09399 -1.33929 2.84991 -0.162284 -0.150833 -0.2943 0.0502425 -0.0223193 -0.375886 0.000916222 0.00867632 -0.0991442 9.39827e-06 4.1917e-05 -4.01203e-05 
26.982 1 313 33.5394 8.48586 4.43713 -3.7783 -2.06027 -1.34017 -0.242256 -0.27496 0.197303 0.00047138 5.45711e-05 -0.0406244 -0.000341749 -0.000269322 -0.0102556 -1.4166e-06 -3.37718e-06 7.44338e-07 
26.982 1 76 33.6087 6.36672 2.55364 -2.07396 4.74951 2.27031 -0.271813 0.343467 -0.244124 0.0228526 0.0329618 -0.363709 0.000247091 0.00212967 -0.0974006 -1.27877e-05 -8.50065e-06 -3.51404e-05 
26.982 1 115 35.5501 8.40426 2.47221 -1.85228 -2.92824 -2.85129 0.206099 0.32485 -0.0129734 -0.0718749 -0.0166164 -0.328783 -0.0131847 -0.00585463 -0.0835296 1.20012e-05 2.01832e-05 -3.1416e-05 
26.982 1 274 35.8428 6.2612 4.3999 0.869635 1.91973 4.12722 -0.469529 0.524598 0.00115939 0.00245027 -0.00303623 -0.0417365 0.000277389 -0.000856629 -0.0111099 -6.38284e-06 9.39146e-06 -9.11933e-07 
26.982 1 317 38.0081 8.27131 4.43872 -3.62925 -1.92993 -1.40877 -0.158547 0.0214167 0.502895 0.000913871 -0.00187218 -0.0273526 0.000676784 -0.000520552 -0.0079361 -4.17031e-06 7.82136e-07 3.36509e-06 
26.982 1 827 26.9234 0.574497 18.4434 -0.575629 -3.50345 -0.0552009 0.181343 -0.122317 -0.54562 0.0351493 -0.302849 -0.137715 0.00572645 -0.0717414 -0.0296943 1.19686e-05 -5.80433e-05 -1.56819e-05 
26.982 1 314 35.5501 10.3599 4.59648 -2.73947 -0.457876 2.41505 0.399387 -0.283429 -0.316986 -0.000920786 0.00214367 -0.0406881 -0.000259124 0.000471674 -0.00987242 6.84898e-06 -6.14382e-06 -9.33886e-06 
26.982 1 281 -1.62558 8.38001 4.46424 -1.14316 2.93843 0.0931502 -0.0417323 0.00271139 0.115728 -0.154969 -0.155243 -0.179633 -0.0490774 -0.0469316 -0.0554631 -2.9824e-05 -1.84369e-05 -1.76782e-05 
26.982 1 80 37.6792 6.52981 2.32985 2.06073 0.226156 -0.389939 0.213808 -0.406445 0.0988777 -0.00866942 -0.130774 -0.359959 0.00168484 -0.0287217 -0.0962778 6.01521e-06 -2.31684e-06 -3.80229e-05 
26.982 1 119 40.1239 8.35898 2.54632 3.94687 2.16679 2.64953 -0.211451 0.0898164 -0.203868 0.0818431 0.0477672 -0.356922 0.0225711 0.00572015 -0.100455 -1.69518e-06 -1.00501e-06 -3.33668e-05 
26.982 1 278 40.222 6.38299 4.33828 1.13254 -3.52805 -2.45732 -0.394851 -0.2925 0.542595 0.112617 -0.113057 -0.0490883 0.0245676 -0.0238483 -0.0142754 -5.82463e-06 -7.23704e-06 2.16229e-06 
26.982 1 318 40.1049 10.4232 4.38548 -0.705614 2.23487 -2.84423 -0.0463577 -0.0220188 0.308044 0.08589 -0.0710723 -0.0630182 0.0256078 -0.0219768 -0.0159678 1.14171e-05 -1.27862e-05 2.61658e-06 
26.982 1 118 40.1399 10.247 0.421174 1.2088 2.31953 4.72144 -0.285165 0.232482 0.126616 0.0954424 -0.0112555 -0.194167 0.0219124 -0.0058794 -0.0557235 -4.169e-06 -2.17299e-05 -5.84012e-05 
26.982 1 123 0.437946 12.4019 2.36815 1.75072 1.88275 -0.557094 0.0692707 -0.139412 0.195303 -0.293224 -0.102583 -0.364608 -0.0764783 -0.0203839 -0.0845753 -2.201e-05 -3.07835e-05 -2.78536e-05 
26.982 1 282 0.406953 10.4241 4.33695 4.03091 2.32298 -2.00001 0.353594 0.175888 0.168379 -0.26689 -0.0116633 -0.115745 -0.0650299 0.00266007 -0.0288623 -2.22004e-05 1.40085e-05 -1.81833e-05 
26.982 1 322 0.487965 14.5784 4.19912 0.815169 0.792547 -2.63447 0.285437 -0.745913 0.469501 -0.176866 -0.0724184 -0.0910123 -0.0463211 -0.0165495 -0.0215935 -2.01804e-05 -2.37273e-05 -9.32504e-06 
26.982 1 325 2.61105 12.534 4.63764 3.29724 3.05431 -4.44386 0.0501174 -0.0162832 -0.672801 -0.0271081 -0.00389719 -0.0326881 -0.0063288 -0.000342987 -0.00801929 -5.60411e-06 -2.00151e-07 -1.56373e-05 
26.982 1 128 2.7551 14.297 2.3778 -2.43794 -3.0725 -2.93744 -0.493623 -0.109375 0.383589 -0.0388579 0.0257173 -0.300877 -0.010593 0.0118914 -0.0791126 -1.35019e-05 -2.20724e-05 -1.85443e-05 
26.982 1 2603 0.448107 20.2501 14.2171 -2.55544 2.11887 -1.69113 0.0410556 -0.373623 0.0383206 -0.338165 -0.249584 -0.321263 -0.0738592 -0.0310805 -0.0875534 -1.50574e-05 2.06414e-05 -2.2178e-05 
26.982 1 88 2.69019 10.3843 2.40808 -5.1004 -4.65417 -7.89822 -0.330753 0.0913767 0.16672 -0.0894861 -0.0295486 -0.335192 -0.01742 -0.0046837 -0.0740761 -1.16989e-05 1.25421e-05 -4.25175e-05 
26.982 1 286 4.76134 10.4884 4.51775 3.51165 3.95291 -2.26412 0.15057 -0.169474 0.14075 -0.000448231 0.00117134 -0.0278739 4.8486e-05 0.000328547 -0.00688456 1.16209e-06 -4.34195e-06 -2.23994e-06 
26.982 1 92 6.99532 10.3942 2.56145 1.95535 -1.66099 3.63382 -0.117243 0.0178769 -0.173345 0.0404221 -0.0197717 -0.321273 0.00971438 0.000265267 -0.0806494 3.65476e-06 -2.37712e-06 -6.39691e-05 
26.982 1 127 4.77121 12.2755 2.38431 -2.93038 -3.68081 -1.16894 0.0963889 -0.0932754 -0.147315 0.00253046 0.00635078 -0.263435 0.00451105 0.00156246 -0.0666939 -1.56661e-06 -1.7739e-05 -4.6309e-05 
26.982 1 326 4.9828 14.306 4.28729 -1.14297 0.924907 -1.56141 -0.417678 0.037685 0.399924 0.000311392 0.00031523 -0.0286117 -0.000298541 8.82937e-05 -0.00734815 -6.07869e-06 5.70386e-07 5.10947e-06 
26.982 1 329 6.90505 12.2686 4.41809 0.900216 2.16152 -1.72437 0.346869 0.212321 0.0674197 0.00140263 -0.000130857 -0.0306269 0.000433497 -0.000106632 -0.00856174 8.08054e-06 1.70075e-06 -5.12873e-06 
26.982 1 429 29.2022 0.582051 8.36788 0.824491 -2.73158 -0.459115 -0.456257 -0.191723 -0.0755184 -0.00311551 -0.0645302 -0.0636315 -0.000311824 -0.0191412 -0.0209523 -8.3804e-06 -4.68965e-05 -3.95449e-05 
26.982 1 290 9.27093 10.4361 4.46785 4.37314 2.78754 2.98527 -0.0394761 -0.118996 -0.0119622 0.00310408 0.00155433 -0.0446121 0.000908988 0.000660292 -0.0111046 -3.8227e-07 -2.0354e-07 -4.79642e-06 
26.982 1 132 6.94368 14.216 2.25714 9.94724 5.26169 -2.80926 0.390057 0.321164 0.35508 0.0236085 0.0193384 -0.311122 0.00848883 -0.0032968 -0.0781889 2.61695e-05 -1.60873e-05 -3.72317e-05 
26.982 1 223 22.4558 0.210752 6.41964 -1.19456 -1.8619 -3.42512 -0.00235801 0.672442 -0.134742 -0.090417 -0.319483 -0.252234 -0.0114669 -0.0710153 -0.0635499 2.7071e-06 -5.66025e-05 -4.9133e-06 
26.982 1 131 9.22217 12.3887 2.4829 1.52063 3.17058 -0.240525 0.035006 0.305165 0.413004 0.0404516 -0.0108873 -0.358201 0.0093907 0.000471129 -0.0965516 6.67188e-07 -1.71501e-07 -5.79361e-05 
26.982 1 330 9.08497 14.478 4.38524 -1.82717 4.89406 -1.24775 0.372865 -0.145291 -0.138511 0.00118376 0.000771279 -0.0385589 0.00050828 -4.11867e-05 -0.0106563 9.51943e-06 -1.49011e-06 -4.30243e-06 
26.982 1 425 24.621 0.592522 8.46652 -0.503322 -2.22475 -2.21094 0.223833 -0.549178 -0.189404 0.0160439 -0.404639 -0.252235 0.00732511 -0.107936 -0.0746622 1.73993e-05 -4.60181e-05 -2.55989e-05 
26.982 1 96 11.3837 10.3243 2.41046 0.558425 -0.464021 2.5196 0.226133 0.355571 -0.306468 0.00494687 -0.0182776 -0.430827 0.00409487 0.00195141 -0.107376 -2.53846e-06 8.70742e-07 -6.86545e-05 
26.982 1 421 20.324 0.368428 8.29807 -1.64215 1.56438 -4.91603 0.137238 0.600033 0.115577 -0.0291471 -0.143863 -0.152961 -0.00696742 -0.0487319 -0.0429688 -2.22123e-05 -3.79308e-05 -3.23634e-05 
26.982 1 333 11.526 12.3029 4.32573 0.0525642 -2.60213 -2.66491 -0.322463 0.313173 0.615964 0.00163123 -0.000989863 -0.0452569 0.000244216 -0.000348488 -0.012367 -7.57075e-06 9.72067e-06 2.18836e-06 
26.982 1 294 13.5404 10.3014 4.28529 -3.08144 1.17414 4.15715 0.561028 -0.351968 0.307898 0.00067148 0.00475691 -0.0486097 9.61564e-05 0.000769258 -0.0131711 1.09497e-05 -9.62103e-06 -3.3726e-06 
26.982 1 136 11.4148 14.2966 2.47686 1.73907 -2.69857 -3.16961 0.0647124 0.0864073 -0.0186219 -0.0105915 -0.00618533 -0.375364 -0.00501706 -0.00355299 -0.0989109 -4.01779e-06 5.94606e-06 -5.6787e-05 
26.982 1 135 13.5796 12.385 2.55729 3.68811 2.611 1.56038 0.0592113 -0.0261034 -0.9717 0.0308297 -0.0315772 -0.411829 0.00274047 -0.0107548 -0.104806 -8.31523e-06 -1.70968e-06 -6.37861e-05 
26.982 1 334 13.8126 14.3902 4.32318 0.34906 3.34718 0.036906 -0.467286 -0.17961 0.380799 -0.000171166 -0.00268536 -0.0397809 -0.000123406 -0.00060571 -0.0104203 -1.04081e-05 2.85217e-06 -5.18281e-06 