ITEM: TIMESTEP
12000
ITEM: NUMBER OF ATOMS
4000
ITEM: BOX BOUNDS pp pp pp
-2.5131 43.0131
0.679808 39.8202
0.683342 39.8167
ITEM: ATOMS mass type id x y z vx vy vz fx fy fz xrad yrad zrad vxrad vyrad vzrad fxrad fyrad fzrad 
26.982 1 43 -0.173838 4.43632 2.79315 -4.09784 -0.0677076 2.05553 -0.210843 0.194928 -0.24388 -0.540637 -0.314493 -0.80636 -0.0910893 -0.0372272 -0.135382 -2.79583e-05 8.30265e-06 -2.44619e-05 
26.982 1 202 -0.31309 2.56459 4.71055 3.59516 2.63918 0.256761 -0.266299 0.393952 -0.139785 -0.513832 -0.468721 -0.461785 -0.083185 -0.0739156 -0.0767264 -1.453e-05 -2.94675e-05 -2.4296e-05 
26.982 1 245 2.0126 4.38044 4.72745 -1.22604 -1.80706 -0.13174 0.0643673 0.891097 -0.272565 -0.0382361 -0.0849147 -0.115725 -0.00693929 -0.0136417 -0.0200486 6.01085e-07 8.44495e-06 -6.43567e-06 
26.982 1 2 -0.182818 2.63234 0.709099 1.24562 3.14564 -1.69938 -0.190408 -0.356631 0.0814996 -0.345926 -0.519524 -0.948895 -0.0542401 -0.0864751 -0.160714 -1.55725e-05 -2.80007e-05 -4.23363e-05 
26.982 1 1161 43.0063 16.3747 20.172 6.19444 2.23083 -0.308437 -0.435431 0.170806 0.0399015 -0.588651 -0.474667 -0.357005 -0.0937029 -0.0759499 -0.0597196 -9.95105e-06 -6.29084e-06 -5.39474e-06 
26.982 1 201 42.8294 0.57777 4.68789 1.97776 1.55641 3.05399 0.520554 0.0839671 0.0903422 -0.315733 -0.565219 -0.695941 -0.0566528 -0.0889592 -0.118486 6.50699e-07 -4.01518e-05 -4.35104e-05 
26.982 1 1197 38.4221 16.2662 20.4075 1.69451 -1.36109 -3.96557 0.00293908 0.166999 -0.418004 -0.297708 -0.385598 -0.155968 -0.0516943 -0.0690645 -0.0288652 -2.77066e-07 -3.4846e-06 -4.30481e-06 
26.982 1 1000 38.2298 18.0842 18.3644 -0.650635 2.63971 -0.954126 0.23621 0.486768 0.0124383 -0.13959 0.532409 0.0799765 -0.0227289 0.0862808 0.0172016 -8.36158e-06 1.83158e-05 -1.20696e-06 
26.982 1 8 2.0875 2.63521 2.66868 -1.80608 -1.82106 -1.62657 0.0707912 -0.175864 -0.343367 0.166947 -0.796508 -0.826223 0.0198097 -0.129357 -0.139616 -2.37109e-06 -5.97871e-05 -1.08325e-05 
26.982 1 997 38.1974 16.3718 16.3137 -0.534832 0.551286 2.34109 0.371163 -0.23414 0.521973 0.00418513 0.00170162 -0.00661411 0.000569998 0.000512786 -0.00121138 8.58926e-06 -4.61121e-06 6.08125e-06 
26.982 1 47 4.23475 4.56601 2.66673 5.62995 -0.964799 -6.94736 0.235322 0.497503 0.0193181 -0.0636511 -0.199145 -0.777546 -0.0062792 -0.0306522 -0.141892 1.36525e-05 4.04726e-06 -1.92881e-05 
26.982 1 206 4.41054 2.62433 4.56665 -1.55416 -0.996368 -0.551629 0.119111 -0.455001 -0.475573 -0.037597 -0.750434 -0.448145 -0.00448533 -0.113477 -0.0692368 -4.80449e-06 -3.6356e-05 -2.52063e-05 
26.982 1 249 6.69239 4.74096 4.62678 -1.35601 1.80023 2.83439 -0.162873 -0.364272 0.421686 -0.00709348 -0.0774397 -0.0879644 -0.00077871 -0.0127152 -0.0169698 -3.00573e-06 -5.08627e-06 -3.36932e-06 
26.982 1 801 -2.53769 0.568319 16.2199 -1.94929 -6.91194 0.604192 0.118096 0.164208 -0.00327244 -0.248626 -0.548806 -0.531425 -0.0528824 -0.108104 -0.103675 -4.20744e-05 -1.64214e-05 -3.74596e-05 
26.982 1 12 6.79028 2.89353 2.74107 1.78601 -3.58696 3.49591 -0.254337 -0.640581 -0.276053 -0.162214 -0.944977 -0.677286 -0.0202422 -0.149804 -0.127479 -1.28276e-06 -1.7201e-05 -5.55699e-05 
26.982 1 51 9.12307 4.80037 2.67379 -3.52401 1.6966 0.568217 -0.545633 -0.479604 0.17822 0.00940117 -0.0800385 -0.615413 -0.000421111 -0.00874234 -0.115893 -7.17485e-06 -6.68358e-06 -5.65196e-05 
26.982 1 210 8.7765 2.71984 4.66477 -1.66067 -1.43105 1.84304 0.481925 0.127795 -0.171518 0.0394813 -0.68075 -0.360458 0.0117834 -0.118614 -0.0634683 6.36406e-06 -3.39973e-06 -1.20266e-05 
26.982 1 253 11.2556 4.36796 4.47547 -4.38494 0.464035 -6.55518 -0.121006 0.140294 0.857358 0.00719003 -0.0898748 -0.0924975 0.000646067 -0.0161829 -0.0164741 -5.12166e-06 2.88144e-06 6.21605e-06 
26.982 1 803 -0.224436 0.717693 18.1417 4.14527 -0.429385 1.49815 0.22913 -0.126322 0.00234298 -0.515724 -0.354797 -0.462558 -0.0827775 -0.0633187 -0.0881744 -2.5108e-05 -5.07825e-05 1.0507e-05 
26.982 1 16 11.2477 2.47444 2.60773 -2.83514 0.438577 10.1146 -0.201425 -0.176571 0.209713 0.171213 -0.93714 -0.704593 0.0149428 -0.161959 -0.11049 -1.71103e-05 -1.32016e-05 -4.97311e-05 
26.982 1 2839 40.4334 20.0824 18.3835 -1.23604 -1.62613 -0.327655 0.388835 0.0310206 -0.139149 0.0518322 -0.189456 -0.782285 -0.00172833 -0.0514685 -0.131741 -1.72307e-05 3.13724e-05 -1.31813e-05 
26.982 1 55 13.4273 4.38247 2.64821 -3.1376 0.000108827 1.62441 0.598303 0.271277 0.115389 0.0222214 -0.210628 -0.844399 0.00600636 -0.0237124 -0.138031 -2.69267e-06 3.31185e-06 -2.03417e-05 
26.982 1 214 13.5089 2.5917 4.66752 -2.02101 1.99353 -1.92167 -0.206393 -0.311122 -0.0223512 0.0557984 -0.773262 -0.401805 0.000140499 -0.126805 -0.064648 7.38786e-06 -2.41202e-05 -5.54834e-06 
26.982 1 14 13.5163 2.56442 0.579788 -1.97407 -3.72823 4.15318 0.199823 -0.18067 0.411836 0.0532155 -0.575024 -0.661948 0.00943888 -0.0949603 -0.142537 -8.8471e-06 -2.1753e-05 -5.48885e-05 
26.982 1 57 15.7346 4.48393 0.709557 1.1011 1.11349 -4.54167 0.282446 0.165562 -0.0165275 -0.109456 -0.122877 -1.04186 -0.003481 -0.0163445 -0.158966 2.88689e-05 -3.43991e-06 -5.69793e-05 
26.982 1 20 15.835 2.55797 2.7152 -3.80804 -3.61419 1.52363 -0.325688 -0.156645 -0.202351 -0.239056 -0.942053 -0.687046 -0.021531 -0.149442 -0.12075 1.75094e-05 -4.62091e-05 -2.69404e-05 
26.982 1 257 15.6408 4.51167 4.62406 0.194893 -0.521922 0.769518 0.213435 0.609902 -0.487663 -0.00583742 -0.0995957 -0.100291 -0.000268873 -0.015552 -0.0184827 5.31995e-06 7.74947e-06 -1.57395e-05 
26.982 1 218 18.0042 2.51407 4.39059 -0.47574 -0.196278 3.15347 0.120296 0.00869761 0.756121 -0.0545513 -0.730029 -0.298522 -0.0044141 -0.118503 -0.0558543 -3.32903e-06 -3.87942e-05 -2.03111e-05 
26.982 1 59 18.1543 4.60751 2.80742 -3.25748 -5.47139 0.654466 -0.163416 -0.0347778 -0.0139606 0.0246078 -0.0192008 -0.681698 0.00599079 -0.00416174 -0.132386 6.82997e-06 -1.83959e-06 -5.57837e-05 
26.982 1 24 20.5012 2.63389 2.97321 1.07616 -2.97371 1.25039 -0.326772 0.210595 -0.890904 0.0865411 -0.766976 -0.576351 0.0159313 -0.130913 -0.120397 -1.68109e-05 -1.04996e-05 -6.42806e-05 
26.982 1 261 20.316 4.69161 4.69687 1.01756 -4.9083 -1.66251 0.159951 0.0469385 -0.199217 0.00644259 -0.0797718 -0.10325 0.00141441 -0.0139971 -0.0210827 4.42775e-06 -3.23158e-07 -1.10733e-05 
26.982 1 63 22.6173 4.65621 2.52035 0.296712 0.882402 2.92276 -0.1674 -0.303725 0.357043 0.0366728 -0.0227074 -0.852423 0.00489829 -0.00755821 -0.162696 -6.92671e-06 -2.70103e-06 -5.6962e-05 
26.982 1 222 22.6635 2.63768 4.60748 2.22436 -6.04191 2.46109 0.14741 0.200222 0.176109 -0.0287919 -0.674523 -0.3483 0.00287584 -0.120111 -0.0650015 3.27941e-06 6.2641e-07 -6.87756e-06 
26.982 1 28 24.7888 2.58106 2.47608 3.97487 -1.37545 2.69624 -0.162674 -0.165124 0.27159 -0.0742696 -0.619283 -0.755597 -0.00732672 -0.121617 -0.133645 -2.86072e-06 -6.00568e-06 -3.20916e-05 
26.982 1 265 25.0183 4.43354 4.50979 -0.942989 1.48296 -2.26054 -0.486729 0.570317 0.20042 -0.000994582 -0.0691254 -0.12234 -0.000134597 -0.014418 -0.0238955 -8.47361e-06 6.07852e-06 -5.59151e-06 
26.982 1 67 27.1331 4.61062 2.59265 -3.51622 -2.0111 1.02093 -0.257863 -0.015948 0.346619 0.0406619 0.000153368 -1.01652 0.0104081 0.00144874 -0.188522 -4.02982e-07 -6.63579e-06 -2.90765e-05 
26.982 1 226 27.0184 2.58964 4.62099 3.60695 -3.8322 4.34 0.304125 0.565991 -0.0234572 0.0174677 -0.530606 -0.229498 -0.00445133 -0.107041 -0.0544943 1.97373e-05 -3.15867e-05 -2.81602e-05 
26.982 1 32 29.3309 2.79945 2.80902 -1.53691 1.70524 1.90772 -0.0187857 -0.56058 0.109835 0.0128417 -0.55354 -0.808894 0.00273517 -0.0941839 -0.154135 -1.90455e-06 -4.45689e-05 -3.01586e-05 
26.982 1 26 26.9948 2.65296 0.671331 -0.371422 -3.72614 1.07174 0.0404771 -0.0681981 -0.488768 -0.0885093 -0.355219 -0.932621 -0.0111986 -0.0649631 -0.14384 1.3702e-05 -1.45242e-05 -4.39665e-05 
26.982 1 269 29.3247 4.65922 4.82318 -2.82791 -4.24238 -3.42353 0.0123235 0.221292 -0.262209 -0.00494898 -0.0631445 -0.132333 -0.000702812 -0.0119953 -0.0274105 3.20236e-06 -2.24876e-06 -1.02284e-05 
26.982 1 71 31.6052 4.66274 2.42463 0.108903 0.399612 -0.881867 -0.0614513 0.0307204 0.243284 -0.0967436 -0.0124635 -0.869124 -0.0189086 -0.00619924 -0.177247 -5.03973e-06 -3.87186e-06 -2.94847e-05 
26.982 1 230 31.453 2.88113 4.55693 -3.72449 -1.8276 6.10117 0.393423 -0.671706 0.108627 -0.0541367 -0.574218 -0.285838 -0.00563352 -0.100646 -0.0573316 6.66561e-06 -4.64126e-05 -1.00444e-05 
26.982 1 30 31.6173 2.60309 0.701979 1.15446 -3.25466 -3.39481 -0.280894 0.47247 -0.0896886 -0.0528809 -0.448271 -1.03461 0.00197885 -0.0767212 -0.139014 -1.98186e-05 -1.26939e-05 -4.52035e-05 
26.982 1 273 33.7143 4.74598 4.46046 2.43439 -2.30835 -2.45915 0.049444 -0.703455 0.484976 0.000487887 -0.0498566 -0.10055 -0.000642895 -0.0105139 -0.0207086 2.9795e-07 -1.58211e-05 1.3337e-06 
26.982 1 36 33.76 2.60741 2.52818 -5.16871 -4.30538 1.55079 0.0493539 0.292554 0.210696 -0.0613107 -0.61704 -0.764031 -0.0141469 -0.11714 -0.145868 1.9145e-06 -1.79648e-05 -8.31188e-06 
26.982 1 75 35.8762 4.47722 2.67937 -6.15132 2.93618 -3.5597 0.460602 0.783535 -0.524622 0.118716 -0.0210474 -0.91809 0.00435474 -0.00472667 -0.152348 1.12683e-05 5.71395e-06 -6.08522e-05 
26.982 1 234 36.195 2.67429 4.49593 5.01783 -4.02185 2.4436 -0.208249 0.17788 0.297484 0.0170181 -0.441 -0.208963 -0.000121011 -0.0879329 -0.0477376 -1.46774e-05 -9.36351e-06 -7.47928e-06 
26.982 1 2837 38.4512 20.2563 16.2281 2.80784 5.04377 4.27035 -0.0939667 -0.261922 0.0284945 -0.174873 -0.432705 -0.675408 -0.0380387 -0.0609825 -0.107955 -2.58706e-05 2.21449e-05 -2.85149e-05 
26.982 1 40 38.4116 2.73374 2.77343 -0.0188485 -1.85046 -0.820029 0.274539 0.335747 -0.2848 0.237178 -0.611403 -0.969156 0.0221159 -0.119149 -0.153171 9.70434e-06 -6.90988e-06 -5.05927e-05 
26.982 1 237 38.331 0.65351 4.44106 2.33922 0.876531 -1.78847 0.377946 0.205191 0.50078 0.119248 -0.7724 -0.566316 0.00996005 -0.130267 -0.100701 1.89981e-05 -4.6458e-05 -2.75126e-05 
26.982 1 4 -2.48327 2.52625 2.68324 -0.739556 -1.49725 -1.70165 0.147357 0.486779 0.410009 -0.573005 -0.628014 -0.710989 -0.10947 -0.0907035 -0.11207 -3.63952e-05 -1.76207e-05 -1.09025e-05 
26.982 1 241 42.9074 4.70261 4.62825 1.37805 -2.27531 -2.50126 0.305439 -0.801774 -0.00610036 -0.455835 -0.45403 -0.506887 -0.0591513 -0.058133 -0.0694726 6.96497e-06 -1.06669e-05 -8.81963e-06 
26.982 1 2833 33.872 20.3113 16.379 -0.772188 -2.11186 -0.100379 0.0753627 -0.349146 -0.189272 -0.418311 -0.0548868 -0.808196 -0.0556244 -0.0236675 -0.132557 -9.03026e-06 1.03874e-05 -3.21817e-05 
26.982 1 277 38.2636 4.74057 4.87161 -0.0764153 -2.87959 2.60893 0.22551 -0.19391 -0.04348 0.00862069 -0.0571769 -0.135485 0.00103592 -0.0103507 -0.021221 5.00443e-06 -7.70794e-07 -1.2846e-05 
26.982 1 79 40.7641 4.56384 2.55288 1.64457 2.66726 4.29794 -0.102151 -0.197916 0.171404 -0.0714551 -0.131142 -0.999976 0.00245347 -0.0121629 -0.169568 -4.20888e-06 -8.41374e-06 -2.83563e-05 
26.982 1 238 40.7487 2.76697 4.73023 -3.45253 2.26034 -1.2607 -0.17158 -0.18868 -0.566101 0.00299921 -0.630456 -0.399107 0.00300161 -0.102435 -0.0620424 -4.51499e-06 -2.37486e-05 -3.0841e-05 
26.982 1 998 40.7705 18.5108 16.2746 0.537511 -0.81032 2.8782 0.103085 -0.132492 -0.397051 0.141349 0.115952 -0.236761 0.017647 0.0290577 -0.0433493 1.73077e-06 1.36592e-05 -2.37223e-05 
26.982 1 83 -0.354706 8.69424 2.78629 2.79325 3.33949 4.7325 0.405275 -0.637949 -0.715051 -0.628545 -0.206182 -0.793615 -0.0976716 -0.0404463 -0.141565 -2.38991e-05 -3.35883e-05 -3.6286e-05 
26.982 1 242 -0.107283 6.53864 4.51271 5.37392 2.96869 -3.94919 -0.340228 0.153821 0.54537 -0.635431 -0.00445888 -0.353926 -0.100431 -0.0117528 -0.0559291 -3.79904e-05 2.07974e-06 -9.72275e-06 
26.982 1 84 -2.62229 10.4985 2.68449 0.994742 1.67833 -0.177379 0.278337 -0.0878374 -0.450446 -0.723721 -0.212641 -0.980639 -0.127859 -0.0390181 -0.158481 -5.28386e-05 -2.07899e-05 -2.66289e-05 
26.982 1 281 43.0771 8.63067 4.6396 4.60843 1.60398 0.516392 -0.110934 -0.658126 -0.161407 -0.420618 -0.402299 -0.469497 -0.0822786 -0.0752872 -0.0882609 -1.91045e-06 -1.59089e-05 -9.3707e-06 
26.982 1 88 2.11764 10.3627 2.61086 2.27515 3.35138 -1.74272 -0.523216 0.539306 -0.209258 -0.173806 -0.0400831 -0.709892 -0.0193153 -0.00405578 -0.116519 -6.61575e-07 4.40681e-06 -5.26015e-05 
26.982 1 48 1.94106 6.57188 2.76538 2.42898 -6.17189 -0.800094 0.452656 -0.0554974 -0.398891 -0.141289 -0.0601451 -0.756332 -0.0212832 -0.0119467 -0.132804 -7.18314e-06 1.09147e-05 -3.55054e-05 
26.982 1 282 -0.307854 10.5416 4.56047 3.78453 -0.838709 6.1775 0.408369 0.0589822 0.541599 -0.564009 0.00350438 -0.254445 -0.08271 0.0030626 -0.0402331 -8.52695e-06 -1.74809e-05 -2.77777e-07 
26.982 1 2823 22.5819 20.2366 18.2227 4.59615 -0.14451 1.38084 0.0274762 -0.0865428 0.422238 -0.247365 -0.145562 -0.581151 -0.0602927 -0.0298118 -0.09578 1.78787e-06 2.55798e-05 -2.69559e-05 
26.982 1 285 2.113 8.56344 4.58391 0.659133 -3.26992 0.404169 -0.169387 -0.122882 0.368886 -0.0609338 -0.00548757 -0.0852336 -0.00798345 -0.00126232 -0.0145126 -5.54143e-06 -3.52263e-06 -3.13149e-06 
26.982 1 87 4.28393 8.68684 2.54076 0.276576 -5.57465 -1.66488 0.17252 -0.259962 0.180833 -0.002556 -0.0166914 -0.669427 -0.000538721 -0.003086 -0.118816 -9.28237e-06 6.42261e-06 -3.32343e-05 
26.982 1 246 4.35229 6.65224 4.64506 -0.508389 1.17126 0.340544 -0.195285 -0.20474 -0.195665 -0.00171917 -0.00429872 -0.0742614 -0.000338622 -0.000924161 -0.01427 -4.26861e-06 -4.21858e-06 -8.18432e-06 
26.982 1 289 6.54056 8.75456 4.35556 0.809319 -5.43211 -2.23684 0.00752137 -0.822885 0.255316 0.00449956 0.000743342 -0.0779207 0.000766692 3.07765e-06 -0.0134412 2.26847e-07 -1.0324e-05 1.98801e-06 
26.982 1 52 6.70239 6.55319 2.76546 3.40869 2.88281 -2.68464 -0.203062 -0.0123907 -0.45535 0.00299029 0.0159191 -0.663317 0.00108221 -0.00417898 -0.121883 2.3198e-06 -1.50748e-05 -3.8961e-05 
26.982 1 92 6.53584 10.6066 2.48189 0.0513807 -3.38954 -2.15635 -0.267191 0.495415 0.191821 0.0867442 -0.0248779 -0.71273 0.00855686 0.000114729 -0.119855 -1.43967e-05 2.38224e-05 -3.3574e-05 
26.982 1 46 4.25216 6.69014 0.74208 1.29471 -3.97157 -1.16015 -0.09676 0.121826 0.494248 -0.0360688 -0.00530082 -1.17486 -0.00434274 -0.00521438 -0.175878 -2.81476e-06 -2.45699e-06 -5.62685e-05 
26.982 1 91 9.01499 8.36309 2.64191 -0.669332 -2.09074 2.65395 -0.137065 -0.259042 -0.376552 0.0845528 0.0771157 -0.833969 0.0128121 0.00349494 -0.139522 9.25762e-06 -1.72509e-05 -4.17579e-05 
26.982 1 250 8.82048 6.76832 4.78833 -0.136403 0.603339 0.62014 0.0626172 0.0272183 -0.281153 0.00458639 0.00283651 -0.0703205 0.000924591 5.55652e-05 -0.0143686 3.1314e-06 -9.51798e-07 -6.80621e-06 
26.982 1 290 8.83657 10.4477 4.37554 2.4015 -3.57043 -0.172832 0.0569857 0.0451623 0.0971227 0.00789443 0.00305316 -0.099184 0.00137938 0.000123099 -0.0161384 2.95571e-06 1.61472e-06 -2.42122e-06 
26.982 1 293 11.1736 8.46379 4.62198 1.90943 -2.94169 1.22246 -0.259347 0.339456 -0.403823 0.00127303 0.00898869 -0.104881 0.000605773 0.000964556 -0.0175975 -5.97289e-06 5.04439e-06 -1.19946e-05 
26.982 1 89 6.6044 8.41181 0.763588 -4.04558 -7.76524 1.8782 -0.0440238 0.493957 -0.0399858 0.0364068 0.060978 -1.04419 0.00968201 -0.000585552 -0.194045 4.15477e-06 -4.00275e-06 -6.17897e-05 
26.982 1 2813 11.0837 20.2295 16.3668 3.99988 -1.41226 -0.548462 0.155186 -0.155405 0.000832017 -0.169402 -0.311729 -0.612948 -0.0371709 -0.0509558 -0.107651 -8.46064e-06 2.51189e-05 -1.36043e-05 
26.982 1 56 11.3246 6.33242 2.74082 2.21006 3.00427 -1.14977 0.0287052 0.818468 -0.239874 0.0453825 0.103822 -0.788431 0.00321353 0.0129171 -0.136476 -1.1349e-05 9.76464e-06 -4.71716e-05 
26.982 1 95 13.3368 8.38279 2.70893 1.72892 -0.216929 1.62538 0.437273 0.0506453 -0.0886076 -0.0343218 0.0685421 -0.937243 0.000802161 0.00888209 -0.157015 2.50752e-06 1.46617e-05 -4.78232e-05 
26.982 1 254 13.3919 6.54888 4.77091 0.971271 0.342081 1.37235 0.429249 -0.426196 -0.462836 0.00191518 0.000273028 -0.0912748 0.000155086 0.000173876 -0.0164598 9.10989e-06 -5.66025e-06 -1.1965e-05 
26.982 1 54 13.4556 6.30103 0.673476 1.13341 3.08031 -0.370372 0.305064 0.47522 0.807477 -0.0805874 0.166736 -0.972653 -0.00829721 0.0277884 -0.161695 -1.33153e-05 1.80239e-05 -5.93517e-05 
26.982 1 100 15.6291 10.3454 2.64476 4.32395 -3.27043 4.15353 -0.210271 -0.393122 0.223776 0.00234924 0.055556 -0.993238 0.00355721 0.000334684 -0.16711 -1.56621e-06 -2.62198e-05 -4.65572e-05 
26.982 1 60 15.7236 6.49061 2.53761 -0.927941 5.99936 -0.00362242 -0.0114388 -0.0440253 0.47456 -0.0217623 0.0440169 -0.797373 -1.76983e-05 0.00676445 -0.14647 1.30408e-05 1.61713e-05 -2.99452e-05 
26.982 1 297 15.6186 8.416 4.60286 0.83091 1.07607 -2.92489 0.0584996 -0.0385287 0.209187 0.000487812 0.00779729 -0.104939 0.000261107 0.00137588 -0.0196411 -2.29529e-07 -1.5966e-06 -4.63495e-06 
26.982 1 99 18.0606 8.49282 2.74512 -0.432084 -2.46044 1.97432 -0.608461 -0.759304 -0.57823 -0.0462212 0.0838158 -0.833514 -0.007957 0.0127032 -0.154094 -2.0117e-05 -1.23088e-05 -5.4445e-05 
26.982 1 258 18.0025 6.53496 4.72767 0.280606 -1.24578 7.99588 -0.249291 -0.16232 -0.230848 0.00145922 0.00333319 -0.0853546 0.000444865 0.000218828 -0.0169551 -6.85169e-06 -2.76188e-06 -9.87227e-06 
26.982 1 64 20.3192 6.70553 2.71583 1.98269 -0.878638 2.64704 -0.00254223 -0.655611 -0.411128 0.0574496 -0.0403449 -0.80231 0.00928156 -0.0105927 -0.151233 -1.05284e-06 -2.44524e-05 -4.82854e-05 
26.982 1 301 20.1421 8.32425 4.76376 -0.685505 -0.796948 4.26286 0.31498 0.707333 0.191911 0.00194144 0.0049423 -0.0938404 -0.000142132 0.000276537 -0.0178006 7.29392e-06 8.22872e-06 3.57713e-06 
26.982 1 298 17.8003 10.2848 4.62545 2.66164 1.3927 0.256941 -0.0462135 0.317211 0.440753 -0.0020515 0.0025509 -0.115811 -0.000342055 1.87028e-05 -0.0210694 -1.61648e-06 1.24787e-06 2.27848e-06 
26.982 1 3009 6.5561 20.3036 20.4016 -3.13469 3.68615 -2.51127 -0.16496 -0.502606 -0.0628924 -0.505011 -0.352737 -0.922523 -0.0895835 -0.0555732 -0.150026 -1.81087e-05 2.02093e-05 -1.8279e-05 
26.982 1 104 19.843 10.3759 2.72123 -2.30737 1.753 -3.75052 0.975076 0.179647 -0.0101214 0.0268837 0.0867847 -0.950249 -0.00247899 0.0111091 -0.161813 1.67925e-06 1.50788e-05 -4.00158e-05 
26.982 1 103 22.3925 8.51287 2.8033 -0.732593 -0.144149 0.0430006 0.0404219 -0.0901107 -0.259562 0.0386546 0.0531076 -0.910605 0.00370497 -0.000535766 -0.156845 1.01656e-05 -1.59611e-05 -3.51504e-05 
26.982 1 262 22.7964 6.57901 4.51594 3.70473 0.575532 -1.79659 -0.453134 -0.546127 0.577012 0.00310074 -0.00298767 -0.103516 0.000289001 -0.00148459 -0.0202488 -6.48458e-06 -8.89734e-06 -1.01062e-07 
26.982 1 302 22.3425 10.3929 4.56166 0.516829 -0.874536 4.30484 -0.0539693 0.0481178 0.446908 -0.00113421 0.000900459 -0.11809 -0.000119946 0.000188123 -0.0193621 -1.82689e-06 -7.13362e-07 7.84525e-06 
26.982 1 101 20.3234 8.55702 0.549866 3.98605 1.42383 -5.39776 0.100468 -0.373428 0.370367 0.0917309 -0.0108796 -1.11934 0.0100351 -0.00433314 -0.177918 -1.40579e-05 -1.29672e-05 -5.83028e-05 
26.982 1 305 24.8121 8.41492 4.69606 -0.456398 3.21369 -2.87445 0.0707898 -0.245202 -0.403894 0.000975738 0.000869311 -0.107141 0.00062962 -0.000134934 -0.0193705 -1.19679e-06 -2.7872e-06 -1.09455e-05 
26.982 1 68 24.8529 6.48081 2.66259 0.529056 -1.80048 -0.611195 0.226326 0.0543197 0.280027 0.0443101 -0.0405957 -0.962115 0.00858515 -0.0125192 -0.173669 -8.47614e-06 2.72582e-06 -5.11829e-05 
26.982 1 2807 4.36329 20.0782 18.2925 -4.22742 0.909758 6.76386 -0.0512958 0.32105 -0.116534 -0.487713 -0.0803503 -0.55537 -0.0620771 -0.0377461 -0.100003 -2.61045e-05 3.18927e-05 -8.57456e-06 
26.982 1 102 22.4424 10.3234 0.891404 1.83753 3.33059 -1.66469 0.0825237 0.0598576 -0.703498 0.0317852 -0.0133633 -0.554558 0.00602988 -0.00682579 -0.116145 2.56595e-07 -3.31791e-06 -6.56106e-05 
26.982 1 107 27.0247 8.45206 2.81316 2.53395 -0.356224 -5.85409 0.0252708 -0.112348 -0.394693 0.11224 -0.101333 -0.995169 0.0194581 -0.0136755 -0.182926 -1.1179e-05 -2.37149e-06 -2.20565e-05 
26.982 1 266 27.155 6.50796 4.81001 -2.50788 4.86633 1.08317 -0.0758057 0.559718 -0.419523 0.00274289 0.00145322 -0.126146 0.000539339 -0.000345467 -0.0242532 -1.96226e-06 6.72014e-06 -6.74736e-06 
26.982 1 306 27.0102 10.295 4.64903 1.38376 4.13275 -0.618295 0.3144 0.550927 0.284645 0.00033854 -0.00382018 -0.100601 0.00036464 -0.000365031 -0.02083 7.15831e-06 1.0842e-05 3.87366e-07 
26.982 1 112 29.3366 10.3135 2.60109 0.740859 -0.329114 -4.67535 -0.30748 -0.0838129 0.677878 -0.0679036 -0.131305 -0.84245 -0.0104357 -0.0173956 -0.165957 -5.49112e-06 2.6171e-06 1.47127e-06 
26.982 1 72 29.1234 6.58181 2.76501 0.0484918 -2.31444 0.964869 0.604257 -0.145745 0.0434037 -0.0523737 0.0383685 -1.10995 -0.00541749 -0.00231696 -0.208584 1.14693e-05 -1.46361e-05 -1.92538e-05 
26.982 1 309 29.3889 8.54679 4.87883 2.76032 -1.59325 1.30853 -0.182313 -0.159861 -0.665546 -0.00369465 -0.00413018 -0.130395 -0.000374284 -0.000892028 -0.0248085 -8.36613e-07 -2.69455e-06 -9.50506e-06 
26.982 1 111 31.4906 8.50797 2.59886 2.20439 -5.49421 1.32732 0.209493 -0.755549 0.218915 -0.0881411 -0.125637 -0.907289 -0.0172979 -0.019904 -0.16917 1.55252e-05 -1.2577e-05 -1.49127e-05 
26.982 1 270 31.6117 6.51819 4.43322 -6.115 -1.88044 0.847492 -0.23629 0.18429 0.595971 -0.00482635 0.00360648 -0.11416 -0.00121079 3.01247e-05 -0.0231748 -3.44508e-06 3.89391e-06 7.01434e-06 
26.982 1 310 31.647 10.3593 4.48296 -7.82304 -2.71155 -0.622844 -0.20877 0.482195 0.499662 -0.0016362 -0.0011351 -0.0816387 -0.00089577 -0.000419148 -0.0174024 -3.79488e-06 6.62877e-06 8.4857e-06 
26.982 1 76 33.9217 6.62894 2.60243 -2.70035 4.58621 1.96837 -0.273504 -0.0505476 -0.397285 0.00577466 0.0452558 -0.882845 -0.00629875 -0.000838179 -0.160045 9.2382e-06 2.58791e-06 -5.62309e-05 
26.982 1 313 33.816 8.52657 4.59428 -7.31771 -0.0407514 -4.2772 -0.0707551 -0.294004 0.36726 -0.00224212 -0.00135438 -0.098553 -0.00113225 -0.000628442 -0.0177601 -4.44959e-10 -2.34813e-06 5.0093e-06 
26.982 1 115 35.9694 8.56822 2.81589 3.33601 2.99673 0.666045 0.502437 -0.0211023 -0.12123 -0.143142 -0.0351456 -0.767263 -0.0169869 -0.00772844 -0.134965 2.28525e-06 -1.46962e-05 -3.58359e-05 
26.982 1 274 35.9085 6.51522 4.6853 -2.90464 -1.26752 1.07158 0.412584 -0.195352 -0.603521 0.00229742 -0.00683486 -0.0988776 -0.00017986 -0.00102305 -0.0178883 1.1105e-05 -1.24991e-06 -1.32149e-05 
26.982 1 2809 6.70384 20.1552 16.0706 -1.62537 1.78101 -2.54625 -0.511526 0.73182 0.870419 -0.286119 0.0748937 -0.641232 -0.0447278 0.0148647 -0.101686 -3.34542e-06 5.28183e-05 -7.799e-06 
26.982 1 80 38.3347 6.39666 2.74539 2.50728 4.2269 0.693216 -0.0187713 0.295759 -0.00417002 0.011353 -0.243092 -0.830158 0.00598279 -0.0249071 -0.14162 -9.93241e-06 -1.0034e-05 -3.49816e-05 
26.982 1 44 43.0797 6.41433 2.67902 1.76484 -0.324653 -0.806406 -0.0601111 0.649632 -0.0148498 -0.136537 -0.587485 -0.815679 -0.04768 -0.0852207 -0.141726 2.49375e-05 -1.00258e-05 -4.90472e-05 
26.982 1 317 38.4416 8.56186 4.69025 0.536007 1.99304 -1.71671 0.348817 -0.0120611 -0.603464 0.00364712 -0.00435702 -0.067915 0.000786443 -0.000482024 -0.0130554 6.54777e-06 -3.08092e-06 -1.46515e-05 
26.982 1 119 40.8469 8.44 2.6308 1.58864 0.332766 -1.94122 -0.231111 -0.10582 0.222175 0.174949 0.0360118 -0.843167 0.0257559 -0.00715737 -0.148705 8.46116e-06 -7.14901e-06 -1.62095e-05 
26.982 1 278 40.6915 6.48381 4.71317 0.794131 -0.357653 -3.28932 -0.0460554 0.284206 -0.403955 0.226071 -0.223263 -0.123701 0.0313246 -0.0302143 -0.0231609 -1.16578e-06 3.44294e-06 -1.28703e-05 
26.982 1 120 38.5516 10.3929 2.62263 -2.00828 1.61746 -1.14731 0.114397 0.16922 0.164262 0.0981126 0.167123 -0.802969 0.0102791 0.0241353 -0.137635 3.83481e-06 -6.98575e-07 -7.54015e-06 
26.982 1 123 -0.261838 12.3603 2.5851 3.85309 1.95386 3.18763 0.142566 0.135346 -0.112894 -0.641578 -0.185729 -0.807525 -0.0994034 -0.0206366 -0.136767 -2.32972e-06 1.54258e-05 -5.03191e-05 
26.982 1 322 -0.115217 14.2468 4.4965 0.702758 -1.26317 -0.334552 -0.520591 0.844885 -0.128542 -0.391902 -0.150764 -0.201206 -0.0613839 -0.021357 -0.0347011 -2.41363e-05 1.54322e-05 -1.85191e-05 
26.982 1 325 1.89904 12.4236 4.56127 -2.52096 3.62309 -0.645576 0.499521 -0.528759 -0.168027 -0.0567012 -0.00574142 -0.0749335 -0.00782332 -0.000411664 -0.013026 1.03197e-05 -1.0019e-05 -1.07872e-05 
26.982 1 128 2.06822 14.3864 2.76365 -0.438227 -4.0719 0.406458 -0.027618 0.0201262 -0.604863 -0.106705 0.0821089 -0.711966 -0.019934 0.0186197 -0.127201 -1.13478e-06 -1.24046e-05 -4.95824e-05 
26.982 1 321 -2.42735 12.3524 4.67963 7.7797 -4.87695 0.362614 -0.0966171 0.461316 0.0193343 -0.365498 -0.286163 -0.362923 -0.067054 -0.0513127 -0.0654718 -3.48526e-05 -7.21275e-06 -1.89046e-05 
26.982 1 124 42.9796 14.4267 2.75777 5.13742 4.95761 1.91868 0.560473 -0.0301567 0.304804 -0.934671 -0.326032 -0.815138 -0.154702 -0.0527614 -0.143715 3.26632e-05 -4.46205e-05 -1.89302e-05 
26.982 1 82 -0.411695 10.5416 0.648525 -4.02772 2.42666 2.21684 0.460619 -0.379502 0.0961727 -0.675542 0.172771 -0.76712 -0.106189 0.0191528 -0.14718 -1.46699e-06 -5.48437e-06 -5.92657e-05 
26.982 1 2805 2.15225 20.2484 16.1434 2.41384 -3.15374 1.63412 0.234215 -0.0641931 0.581679 -0.147582 -0.389117 -0.535229 -0.02751 -0.0394168 -0.0930736 -5.67006e-06 1.05134e-05 5.88414e-06 
26.982 1 286 4.32544 10.5914 4.63972 -1.57292 0.843719 -2.44585 -0.129177 0.242039 -0.267202 -0.00136 0.00212721 -0.0632978 -0.000437218 0.000301111 -0.0121731 3.01566e-07 8.05412e-06 -9.24598e-06 
26.982 1 127 4.15065 12.4225 2.55342 4.58168 2.62228 -0.744486 0.351186 0.140356 0.0915333 0.0113253 0.00419467 -0.593356 0.00286652 -0.00456266 -0.106435 9.13665e-06 2.97314e-06 -5.56395e-05 
26.982 1 326 4.18709 14.3371 4.56858 1.07003 -0.776919 -7.47933 0.587662 0.0852592 0.0696681 -0.00173686 0.000612903 -0.0631271 -0.000576151 1.39659e-05 -0.0111607 1.55034e-05 -1.07626e-06 -6.8692e-06 
26.982 1 329 6.79466 12.6193 4.70054 -3.19632 2.24499 4.23594 -0.890235 -0.491492 -0.187935 0.00303053 -0.000807503 -0.0710904 7.18595e-05 -7.72426e-05 -0.0127899 -1.8343e-05 -5.52917e-06 -6.6021e-06 
26.982 1 627 27.3787 0.72685 14.4535 6.39426 -8.33665 -4.75355 -0.543559 -0.190371 -0.0759867 -0.103223 -0.458987 -0.717201 -0.00948343 -0.0620248 -0.122441 2.1824e-06 -6.61442e-05 -1.86594e-05 
26.982 1 96 10.9666 10.3327 2.44232 0.700811 -3.11623 0.290946 0.352354 0.504314 0.753945 0.0314693 -0.0267725 -0.962619 0.00641743 -0.00426011 -0.153356 2.01548e-05 5.66486e-06 -4.86819e-05 
26.982 1 132 6.69483 14.3944 2.6 4.41457 4.41382 -4.36981 -0.62264 0.16819 0.272422 0.0640813 0.00242391 -0.673141 0.0115718 -0.00432508 -0.111845 -1.11329e-05 3.33829e-06 -5.27043e-05 
26.982 1 131 8.7461 12.7383 2.66868 -1.88052 -2.74501 1.56 0.460881 -0.473357 0.0155188 0.0835752 -0.0182144 -0.819165 0.0100569 -0.0001798 -0.137381 1.29855e-05 8.02032e-06 -4.71807e-05 
26.982 1 330 8.7772 14.497 4.91698 6.27185 -4.3715 -0.542169 0.401381 0.231899 -0.366086 0.0048788 0.00050318 -0.0884603 0.00108421 8.56389e-05 -0.015277 6.97994e-06 5.51196e-06 -9.43454e-06 
26.982 1 333 11.0384 12.3693 4.46653 -1.33656 2.59984 0.0973602 -0.054502 0.107889 0.198328 0.00325757 -0.00344625 -0.103822 0.000395171 -0.000560573 -0.0170419 -4.70631e-06 2.1837e-06 -5.46949e-06 
26.982 1 615 13.3265 0.598449 14.3901 6.78327 0.974025 -0.0238309 0.412761 0.266201 -0.206666 -0.0236553 0.0235707 -0.759205 0.00443413 -0.0282874 -0.105723 1.88059e-06 -6.01968e-05 2.19522e-06 
26.982 1 136 11.3408 14.5335 2.76376 1.25482 0.997495 -0.812146 -0.538182 -0.198425 -0.536165 -0.0234697 -0.00546513 -0.858432 -0.00315051 0.00199106 -0.143204 -2.13459e-05 -1.71757e-05 -3.55267e-05 
26.982 1 415 13.3741 0.813687 10.3751 -0.417829 -0.606245 5.05553 0.266381 0.0826022 -0.483453 -0.0037847 -0.599098 -0.442246 -3.98444e-05 -0.118833 -0.0675394 2.83656e-05 -5.60033e-05 -1.31964e-05 
26.982 1 294 13.205 10.5298 4.53819 4.07159 -1.42962 0.674597 0.24788 -0.103613 -0.0345479 0.000873199 0.0071029 -0.115519 0.000262867 0.000361477 -0.0192149 3.93938e-06 -2.64135e-06 -1.03304e-05 
26.982 1 613 11.3824 0.728725 12.226 1.37722 1.06621 -1.56043 -0.57984 0.233797 0.471366 -0.081184 -0.790568 -0.658811 -0.00800415 -0.125321 -0.0987948 -4.13257e-06 -4.63272e-05 -1.8796e-05 
26.982 1 135 13.308 12.4252 2.55702 4.90852 1.57035 -6.24727 -0.0918941 -0.181152 -0.266735 0.0425637 -0.0864099 -0.926842 0.00514077 -0.0118206 -0.150947 -1.9096e-05 -1.82911e-05 -4.09342e-05 
26.982 1 334 13.4503 14.3165 4.50303 0.323965 8.64402 -1.02211 -0.248202 0.177266 0.686691 0.000217746 -0.00392617 -0.0937094 0.000540194 8.4046e-05 -0.0165451 -7.09936e-06 3.31051e-06 9.4313e-06 
26.982 1 134 13.607 14.5258 0.604815 1.44154 -0.153531 -3.10655 -0.360029 -0.186983 0.645417 -0.133581 -0.0624287 -1.08701 -0.0121476 -0.00980808 -0.178837 -1.64832e-05 -1.29202e-05 -5.98945e-05 
26.982 1 140 15.6392 14.4609 2.87382 -1.7298 -2.13916 0.415153 0.170448 0.176335 -0.742877 0.0947444 -0.126515 -0.880594 0.0131277 -0.00614526 -0.152372 1.84072e-06 1.93031e-06 -2.0834e-05 
26.982 1 337 15.5803 12.2878 4.32041 -1.12831 -1.3048 -5.91025 -0.214369 -0.0688999 0.735151 0.00154903 -0.00108736 -0.120632 0.000472234 -0.000166589 -0.0198557 -2.866e-06 -4.73954e-06 6.5551e-06 
26.982 1 139 17.7766 12.4816 2.76192 -4.64958 1.32059 1.31234 0.281821 -0.281439 -0.241537 -0.0273842 0.0111176 -1.03896 -0.000161132 -0.00304574 -0.173379 1.59664e-05 -1.66141e-05 -3.68544e-05 
26.982 1 338 18.0039 14.5219 4.50193 -2.88263 -0.690786 0.0145262 0.0216753 -0.111238 0.727988 -0.00372463 -0.00893914 -0.112223 -0.000807219 -0.00129249 -0.0192846 5.54872e-08 -1.03274e-07 1.01244e-05 
26.982 1 341 20.0879 12.4121 4.4945 3.9892 -2.09413 0.529891 0.0920839 -0.0359389 0.336362 -0.00168384 -0.00461418 -0.115938 -0.000267105 -0.000797451 -0.0196117 4.79131e-06 -3.1477e-07 -1.1847e-06 
26.982 1 144 20.281 14.4214 2.81825 -5.69083 3.90807 3.13547 0.07647 -0.0680556 -0.987789 -0.128879 -0.0169095 -0.904768 -0.0239897 -0.00917874 -0.142311 2.2003e-06 1.31663e-06 -5.12776e-05 
26.982 1 138 17.9135 14.3101 0.80172 -3.24114 -3.11875 2.00447 0.109123 -0.237703 0.304091 -0.0372612 0.00335809 -0.619694 -0.00576996 0.000155409 -0.115227 2.27975e-05 -4.59552e-06 -6.293e-05 