ITEM: TIMESTEP
9000
ITEM: NUMBER OF ATOMS
4000
ITEM: BOX BOUNDS pp pp pp
-1.90337 42.4034
0.526337 39.9737
0.515245 39.9848
ITEM: ATOMS mass type id x y z vx vy vz fx fy fz xrad yrad zrad vxrad vyrad vzrad fxrad fyrad fzrad 
26.982 1 43 0.467793 4.37149 2.53593 -2.91352 0.896194 3.24881 -0.489098 0.0336662 -0.206485 -0.305211 -0.200974 -0.456674 -0.0713991 -0.0333931 -0.0986442 -3.41507e-05 7.0582e-06 -2.8125e-05 
26.982 1 202 0.291776 2.55257 4.57306 5.07367 1.12095 -2.56245 0.131169 0.185062 -0.0446531 -0.288584 -0.278348 -0.259293 -0.0695882 -0.0549827 -0.0607078 -2.51796e-05 -1.46742e-05 -1.98425e-05 
26.982 1 4 -1.89717 2.59253 2.49012 0.771515 1.32787 -0.780946 -0.091193 0.151104 0.162938 -0.294253 -0.371393 -0.414673 -0.0719839 -0.0761028 -0.0836188 -3.93856e-05 -1.5317e-05 -8.43124e-06 
26.982 1 2 0.155369 2.43267 0.419275 -3.11787 4.47893 -0.181281 0.461105 0.504441 -0.0899389 -0.204781 -0.281532 -0.533646 -0.0424881 -0.0672563 -0.123397 -9.50106e-06 -2.14861e-05 -3.93509e-05 
26.982 1 8 2.51423 2.52628 2.60969 -2.19685 -5.57555 -5.34707 0.196328 -0.259297 -0.0409522 0.113094 -0.456249 -0.448265 0.0195694 -0.098272 -0.108595 -1.47951e-06 -4.65049e-05 -2.5e-05 
26.982 1 45 2.76614 4.33722 0.684934 -3.3817 -1.34409 -2.20781 -0.796023 0.101613 -0.799245 -0.0216374 -0.0945577 -0.455483 0.000315217 -0.0112964 -0.110732 -8.81984e-06 1.43253e-05 -7.10232e-05 
26.982 1 205 2.38916 0.580525 4.43831 -4.41092 3.31973 -0.669681 0.366978 -0.247877 0.0991819 0.0313094 -0.292443 -0.252355 0.00496238 -0.0967683 -0.0822408 2.89115e-06 -4.60844e-05 -4.39486e-05 
26.982 1 245 2.62618 4.62706 4.48517 -0.442359 5.69673 5.49594 -0.122272 -0.479299 0.445657 -0.0210919 -0.0522525 -0.0643248 -0.00515074 -0.00904591 -0.0148265 -5.11673e-06 -7.83805e-06 6.17117e-06 
26.982 1 47 4.71311 4.48196 2.49311 1.26465 2.48217 -2.32626 0.454368 -0.15905 0.513913 -0.0476642 -0.129734 -0.41178 -0.00464256 -0.019355 -0.106769 2.18207e-05 9.20139e-06 -3.08217e-05 
26.982 1 206 4.76515 2.59522 4.56734 1.65909 -1.58014 5.79352 0.00925031 -0.0299444 -0.123807 -0.0309295 -0.454179 -0.260396 -0.00103249 -0.087421 -0.0566544 1.98249e-06 -2.30581e-05 -1.97569e-05 
26.982 1 12 6.84612 2.48083 2.60503 -0.742805 -1.60457 -0.0445136 0.305521 -0.034673 -0.0752503 -0.0998265 -0.559457 -0.353105 -0.0240048 -0.107386 -0.0904557 3.24633e-06 -2.65187e-05 -4.06497e-05 
26.982 1 249 7.10488 4.45851 4.51252 0.155319 2.59109 4.4843 -0.268872 0.129688 -0.279764 -0.00431544 -0.0461909 -0.0451982 -0.00110774 -0.0087045 -0.0121865 -5.11833e-06 8.12736e-07 -1.16367e-05 
26.982 1 6 4.73776 2.43621 0.536766 0.187579 0.679782 1.00515 0.107125 -0.141559 0.231182 -0.0948154 -0.272044 -0.430733 -0.0123948 -0.0704628 -0.0981089 1.43538e-05 -3.2803e-05 -4.43468e-05 
26.982 1 209 7.04282 0.586732 4.56479 2.37568 3.59967 3.41908 -0.0284425 -0.276848 -0.100713 -0.0279614 -0.41109 -0.375812 -0.00630239 -0.101264 -0.0849294 -6.45285e-07 -4.88432e-05 -4.11834e-05 
26.982 1 51 9.36266 4.53192 2.49782 -1.19363 4.29719 1.36943 -0.520229 -0.609989 0.102708 0.00620434 -0.050104 -0.321817 -0.00104039 -0.0101336 -0.079785 -2.10067e-05 -1.53012e-05 -1.98639e-05 
26.982 1 210 9.1116 2.55023 4.51466 -2.82286 0.487488 7.2672 0.544966 -0.426525 -0.321805 0.00993562 -0.38501 -0.20282 0.00829193 -0.0815133 -0.0412221 1.93151e-05 -3.50508e-05 -2.1759e-05 
26.982 1 53 11.5275 4.45926 0.487283 3.02862 -0.422536 -4.02118 -0.24548 -0.238411 -0.478503 0.0664879 -0.037102 -0.661873 0.0084805 -0.00270027 -0.140143 -8.71021e-06 -8.37378e-06 -6.57765e-05 
26.982 1 10 9.01682 2.35617 0.576075 0.233544 -0.887718 -1.55824 0.352114 0.465249 -0.120855 -0.00165324 -0.354512 -0.647539 -0.00115239 -0.0722469 -0.146182 -8.1877e-06 -2.7526e-05 -3.90997e-05 
26.982 1 16 11.3558 2.54419 2.53915 -1.29577 -2.79567 -0.551927 -0.0478521 -0.143512 -0.202009 0.114963 -0.52713 -0.395864 0.0213626 -0.114936 -0.0887452 -1.35099e-05 -5.19993e-05 -1.31216e-05 
26.982 1 253 11.3653 4.5467 4.53648 2.36182 0.892854 -2.73441 0.162808 -0.340873 0.0866196 0.00451655 -0.0494723 -0.0488429 0.000946711 -0.0114274 -0.0118402 1.84965e-06 -1.31121e-05 2.4765e-06 
26.982 1 55 13.6578 4.51534 2.40831 -4.1714 -5.07022 1.9861 0.219161 -0.179214 -0.164051 0.00579794 -0.141368 -0.463924 0.00384356 -0.0261757 -0.107249 2.26608e-06 -5.34467e-06 -1.06056e-05 
26.982 1 214 13.4811 2.65691 4.3156 3.4854 1.04117 0.981916 0.320941 -0.0589804 0.504848 0.0532479 -0.449613 -0.230544 0.00250115 -0.0926144 -0.0476899 -9.76469e-06 -1.91357e-05 3.64751e-06 
26.982 1 257 15.777 4.44141 4.39432 3.37958 -2.53279 -3.14013 0.214688 -0.202437 -0.388196 -0.00453428 -0.0604932 -0.0506803 -0.000303149 -0.0117942 -0.0133117 5.35435e-06 -5.22268e-06 -4.17185e-06 
26.982 1 15 13.6962 0.507278 2.66183 -1.76315 -3.31057 1.13498 -0.138716 -0.0918223 -0.720694 -0.0209053 -0.197873 -0.548939 -0.0131385 -0.0638935 -0.110943 -2.72165e-05 -5.67084e-05 -1.73166e-05 
26.982 1 17 15.8007 0.547643 0.508174 -4.23325 2.87452 -2.93557 0.0674535 -0.0673688 0.0780707 -0.0612705 -0.188698 -0.351209 -0.00700206 -0.0414378 -0.0841101 8.62016e-06 -4.48212e-05 -3.33781e-05 
26.982 1 14 13.6074 2.54264 0.473568 -0.00135877 1.82302 4.8416 -0.0171361 -0.192233 0.289636 0.0299718 -0.335385 -0.319917 0.00696571 -0.0687067 -0.0869511 -1.23189e-05 -2.69728e-05 -5.40157e-05 
26.982 1 20 15.9476 2.44134 2.53762 4.07739 -0.65095 0.337522 -0.300391 -0.0748818 -0.0915229 -0.169175 -0.561746 -0.35954 -0.0221314 -0.111837 -0.0926801 6.58339e-06 -2.25717e-05 -8.92823e-06 
26.982 1 218 18.2198 2.44322 4.38289 -7.38449 -1.2102 -1.66005 -0.251251 -0.261257 0.166064 -0.0465563 -0.420937 -0.154524 -0.00492363 -0.0892322 -0.0401724 1.17323e-05 -3.83904e-05 -1.12338e-05 
26.982 1 59 18.0672 4.33868 2.50848 3.21512 3.4241 1.67218 0.0295093 0.535526 0.00171294 0.0179421 -0.0118167 -0.3446 0.00191422 -0.00543344 -0.0915172 2.3997e-06 1.91651e-06 -4.51021e-06 
26.982 1 24 20.3066 2.37024 2.32163 5.31706 -1.3284 1.51717 -0.212897 0.459006 0.293385 0.0466569 -0.423026 -0.285584 0.00675779 -0.0954187 -0.0765738 5.16558e-07 -5.78271e-05 -1.72089e-06 
26.982 1 261 20.2996 4.5875 4.31191 0.0981178 3.48145 -4.4813 0.0583448 -0.318264 0.145852 0.00305887 -0.0438568 -0.0514504 0.000742767 -0.00984096 -0.0134515 3.21537e-06 -1.18589e-05 -1.85644e-06 
26.982 1 217 15.7369 0.553952 4.50087 -1.36718 1.14308 2.79834 0.600404 -0.0994366 -0.317946 0.0056722 -0.173278 -0.148889 0.0043538 -0.0617508 -0.0505698 1.59979e-05 -4.15893e-05 -2.8924e-05 
26.982 1 57 15.7856 4.42073 0.526106 -6.80624 -0.338939 -1.40373 0.0641424 -0.081027 -0.222645 -0.0826827 -0.0782333 -0.643633 -0.0105271 -0.0146206 -0.122558 9.32276e-08 -5.72991e-06 -6.12164e-05 
26.982 1 61 20.1316 4.41673 0.453507 0.0165646 2.19424 0.568231 0.112682 -0.18085 -0.155583 0.0280058 0.0138324 -0.524532 0.00239346 0.00113437 -0.108949 3.3896e-06 -5.29593e-06 -6.17732e-05 
26.982 1 18 17.9493 2.53923 0.509687 -2.20675 8.55478 -1.12005 0.125546 -0.307032 -0.0987105 -0.0367394 -0.293022 -0.704661 -0.00703859 -0.0646433 -0.13594 1.35663e-05 -3.60919e-05 -5.00484e-05 
26.982 1 63 22.4928 4.41898 2.47857 0.884247 -3.69314 -0.432328 -0.168923 0.107638 0.0376164 0.0162229 -0.00351435 -0.44295 0.00792591 -0.00326018 -0.110101 8.44206e-06 -5.38305e-06 -1.7912e-05 
26.982 1 222 22.5459 2.44292 4.38941 -4.68923 0.122285 0.0129756 -0.310484 0.420362 0.220472 -0.0298824 -0.36464 -0.181742 0.000881335 -0.0861039 -0.0439709 -2.48723e-06 -4.19886e-05 -1.11775e-05 
26.982 1 22 22.3594 2.52072 0.497363 -6.27919 -1.44754 -1.03937 0.285095 -0.0613688 -0.43462 0.0389125 -0.292239 -0.601986 0.0156244 -0.0692306 -0.128663 9.65056e-06 -2.61736e-05 -4.78852e-05 
26.982 1 28 24.6915 2.51224 2.49859 -0.862472 2.87234 1.33551 -0.328285 0.141112 -0.21841 -0.0540143 -0.318667 -0.395926 -0.00443316 -0.0796412 -0.100227 6.03437e-06 -3.04465e-05 -2.02107e-05 
26.982 1 265 24.6618 4.61795 4.42141 7.31945 6.23332 2.4222 -0.290771 -0.429484 0.224307 -0.000647112 -0.0338475 -0.0607571 8.72452e-05 -0.00961168 -0.0168602 -4.37352e-06 -1.18999e-05 -1.27388e-06 
26.982 1 67 26.6935 4.44179 2.34909 2.27933 4.5495 0.427477 0.337946 0.117224 0.053453 0.0192633 0.00477337 -0.525008 0.00418428 -0.00433381 -0.137538 1.47853e-05 -8.48101e-06 -5.87521e-05 
26.982 1 226 26.7142 2.5354 4.36293 2.42098 -0.902088 -0.883791 0.718403 0.242779 0.42624 0.0251087 -0.270381 -0.100596 -0.00308589 -0.0683378 -0.0314306 8.04143e-06 -4.0636e-05 -1.28432e-05 
26.982 1 32 29.2127 2.39053 2.51005 0.435779 2.87123 -0.951759 -0.585296 0.820868 0.0885769 0.00808069 -0.321804 -0.412084 0.00226065 -0.0634874 -0.10941 -2.50908e-05 -9.98285e-06 -2.02219e-05 
26.982 1 25 24.7897 0.628348 0.61007 -0.865063 -4.37792 -3.12077 -0.314714 -0.249236 -0.579014 0.0182951 -0.269349 -0.287053 0.00831081 -0.0504686 -0.0628047 9.58925e-06 -3.04189e-05 -2.16127e-05 
26.982 1 29 29.2107 0.655317 0.577955 1.14585 -0.933979 -0.62097 -0.548595 -0.283087 -0.490136 -0.0151367 -0.405454 -0.497702 0.000976878 -0.084862 -0.111904 -1.3814e-05 -2.19507e-05 -3.83495e-05 
26.982 1 269 29.1396 4.35713 4.56259 6.28096 -0.723538 4.23854 -0.143375 -0.183791 -0.408498 -0.00305308 -0.0337453 -0.0640277 -0.000366965 -0.00789055 -0.0181735 -6.23428e-06 -7.82994e-06 -1.06214e-05 
26.982 1 71 31.2541 4.28607 2.47739 2.36041 1.37136 5.01262 0.0513667 0.683602 -0.182792 -0.0462267 0.00247948 -0.420607 -0.011747 -0.00257025 -0.121882 -7.35496e-07 9.96196e-06 -5.98245e-05 
26.982 1 230 31.3966 2.45054 4.40907 -2.99728 -1.70712 5.08573 -0.117303 -0.270122 0.279139 -0.0398239 -0.319392 -0.145415 -0.00144604 -0.074665 -0.0397514 1.41519e-06 -3.25982e-05 -3.30441e-06 
26.982 1 273 33.5933 4.21483 4.17217 -2.52367 1.06004 -0.260017 -0.190447 0.593039 0.636909 0.00160608 -0.0239605 -0.0494219 -0.000252431 -0.0076498 -0.0142458 -1.21544e-06 4.051e-06 -2.56954e-06 
26.982 1 31 31.3308 0.546037 2.41304 2.34685 -0.683578 -5.06152 0.342902 0.0811819 0.225545 -0.0902507 -0.498416 -0.378143 -0.00901717 -0.0913075 -0.0909394 1.583e-05 -4.97281e-05 -1.05784e-05 
26.982 1 36 33.4714 2.44216 2.1728 1.38466 -1.79501 -1.65671 0.164817 -0.247989 0.441798 -0.0299528 -0.320545 -0.389412 -0.00767849 -0.0820636 -0.10331 1.62601e-05 -3.13753e-05 -4.85106e-05 
26.982 1 75 35.7547 4.3097 2.54773 -3.84018 2.72283 -2.89454 0.0534017 0.341387 -0.321902 0.0930245 -0.0015892 -0.513276 0.0102925 -0.00980883 -0.119826 -1.12259e-05 -1.79515e-05 -3.79224e-05 
26.982 1 234 35.7599 2.3513 4.44072 -3.34971 2.44606 0.179041 0.253737 -0.121252 -0.209755 0.0166182 -0.222396 -0.0941791 -0.0007154 -0.0605681 -0.0293835 -7.98509e-06 -3.58528e-05 -2.59953e-05 
26.982 1 40 38.0611 2.46468 2.25405 3.15453 0.360004 -2.01763 -0.346843 -0.285591 0.381999 0.178706 -0.318462 -0.563308 0.0162611 -0.0747979 -0.119186 -2.77364e-05 -3.81188e-05 -2.68241e-05 
26.982 1 237 38.2138 0.683789 4.48588 2.01829 -1.68567 -0.478874 -0.377328 -0.413117 0.0024406 0.0870876 -0.432141 -0.3099 0.00919511 -0.0932956 -0.0662366 -1.13707e-05 -4.61517e-05 -3.0232e-05 
26.982 1 77 37.9564 4.60312 0.578002 1.30015 -4.80422 -0.8852 -0.281184 -0.371795 -0.262711 -0.00888912 -0.0215553 -0.177845 -0.00164963 -0.00777275 -0.061444 -2.56784e-06 -2.2285e-06 -6.75774e-05 
26.982 1 1 42.462 0.503031 0.697603 10.661 -3.68634 -1.15634 -0.239502 0.107962 -0.560556 -0.172429 -0.225206 -0.558081 -0.0290529 -0.0572361 -0.111504 9.59044e-06 -4.31377e-05 -2.90232e-05 
26.982 1 39 40.3078 0.570296 2.4758 -1.8544 -4.32332 -3.23388 -0.20574 0.119113 -0.119135 -0.0778371 -0.159615 -0.505552 -0.0138115 -0.0692328 -0.0929462 -2.36295e-06 -5.45956e-05 -7.98802e-06 
26.982 1 277 37.9148 4.55799 4.32255 -3.0849 1.82702 2.17238 0.134146 -0.524058 0.522356 0.00582494 -0.03111 -0.0783438 0.000647013 -0.00734542 -0.0170515 2.27812e-06 -1.15099e-05 6.48257e-06 
26.982 1 241 42.49 4.60418 4.49235 6.60911 1.71343 0.454108 -0.201242 -0.465978 0.0501367 -0.283991 -0.288865 -0.314769 -0.049256 -0.0494853 -0.0570384 -4.96857e-06 -9.86754e-06 -7.86785e-06 
26.982 1 79 40.0984 4.55444 2.48281 -2.54958 0.623507 -0.566317 0.353212 0.0455464 0.241706 -0.0631172 -0.10503 -0.563918 -0.00602957 -0.00843138 -0.125274 1.92408e-05 1.33121e-05 -2.90181e-05 
26.982 1 238 40.2102 2.59661 4.50306 0.0952776 2.59108 2.34352 0.119411 0.0982169 -0.137308 -0.00252892 -0.359723 -0.235694 0.000216946 -0.0758689 -0.0446253 1.11685e-05 -1.28641e-05 -6.95996e-06 
26.982 1 38 40.1976 2.74024 0.479523 1.4018 -1.77268 2.63997 0.146384 -0.703949 0.176391 0.0121693 -0.20559 -0.35625 0.00141512 -0.0372897 -0.107378 8.17227e-06 -7.07469e-06 -6.15101e-05 
26.982 1 83 0.352964 8.38323 2.58398 -1.2643 -2.39456 6.22837 0.295144 0.123044 0.153455 -0.363878 -0.108285 -0.435363 -0.0802845 -0.0292357 -0.103492 -2.32709e-05 -1.20328e-05 -4.82568e-05 
26.982 1 242 0.385629 6.37284 4.53596 -5.05879 -1.34822 -0.400671 -0.0198407 0.214571 -0.35468 -0.371467 0.0183601 -0.206804 -0.0802742 -0.00603115 -0.0452579 -3.30567e-05 -7.31136e-06 -2.2525e-05 
26.982 1 285 2.61736 8.33663 4.37876 1.95965 2.71022 5.12731 0.0246748 0.0691968 0.151066 -0.0389747 -0.00253141 -0.0491236 -0.00667053 -0.000957318 -0.0103195 -1.13698e-06 3.1012e-06 -4.51842e-06 
26.982 1 84 -1.74639 10.2863 2.62003 0.315988 0.747332 0.0177003 -0.437997 0.185716 -0.0492414 -0.401854 -0.109642 -0.572784 -0.0882622 -0.0331898 -0.118147 -4.33899e-05 -1.8794e-05 -3.96208e-05 
26.982 1 85 2.7161 8.43795 0.484754 -0.443085 0.167835 -2.01943 -0.290591 -0.0902061 0.511404 -0.0126693 0.0300756 -0.558353 -0.00603391 -0.00895911 -0.145209 -1.10258e-05 -1.22991e-05 -5.31756e-05 
26.982 1 281 -1.87445 8.52379 4.68679 1.45239 -0.244161 2.22238 0.122521 -0.369048 -0.463259 -0.209012 -0.207462 -0.240725 -0.0590327 -0.057969 -0.0672344 -1.91828e-05 -3.57423e-05 -3.70248e-05 
26.982 1 282 0.246635 10.4256 4.61612 -2.54389 4.15216 -1.24815 0.466819 -0.474172 0.156826 -0.333702 -0.00888435 -0.14632 -0.0678219 0.00267268 -0.0319226 7.89178e-06 -8.87201e-06 -3.45416e-06 
26.982 1 48 2.45538 6.32858 2.45135 1.87912 5.78598 2.77255 0.332639 0.682335 -0.0216849 -0.0941374 -0.0286916 -0.418153 -0.0133256 -0.00917908 -0.0982932 -1.58622e-06 1.7015e-05 -3.61239e-05 
26.982 1 87 5.05724 8.4889 2.55676 -1.66056 4.76387 2.67307 -0.430353 -0.0264947 -0.451674 -0.00536667 0.00880462 -0.368588 0.000765097 -0.010076 -0.0856942 -1.02796e-05 -1.37152e-05 -3.10188e-05 
26.982 1 246 4.80325 6.40151 4.47547 -1.09082 -3.23038 -3.46212 -0.0832309 0.26353 -0.10629 -0.00116678 -0.00189921 -0.0368131 -0.000127809 -0.000672947 -0.0110904 -1.09987e-06 4.80047e-06 -8.28153e-06 
26.982 1 289 7.05778 8.46347 4.46187 -0.460075 7.43868 -2.74751 0.031209 -0.261434 0.373484 0.00270968 0.000992406 -0.0435056 0.000491445 -1.08945e-06 -0.00986516 1.71768e-06 -1.43478e-06 2.43136e-06 
26.982 1 88 2.65682 10.3885 2.51407 6.18159 -2.0806 1.81937 -0.14558 -0.0436156 -0.068386 -0.108908 -0.0338908 -0.414227 -0.0217465 -0.00456692 -0.0830855 -1.3377e-05 -3.76481e-06 -1.94436e-05 
26.982 1 86 4.8719 10.5598 0.492106 1.95703 1.50293 -1.56179 0.210152 -0.403488 0.833144 -0.00664418 -0.0402994 -0.673711 0.00133443 -0.00467597 -0.15934 5.57764e-06 -5.02472e-06 -5.44462e-05 
26.982 1 89 7.23669 8.49444 0.542233 0.65546 -2.67318 1.54629 -0.154031 0.0831904 0.701678 0.0153432 0.066667 -0.552122 0.00337545 0.000790441 -0.136845 2.12939e-06 6.45887e-07 -5.61643e-05 
26.982 1 52 6.98564 6.37225 2.52251 4.25491 0.577049 0.713599 0.300526 0.216589 -0.0473664 0.0112876 0.0234729 -0.348709 -0.00550869 -0.00259647 -0.0894109 -7.33037e-06 -1.05231e-05 -3.82492e-05 
26.982 1 91 9.47895 8.28967 2.50713 2.23945 -2.10086 -3.02825 -0.539104 -0.632371 -0.358364 0.0498146 0.0552033 -0.474137 0.0115054 0.0125662 -0.104318 1.84451e-06 1.1882e-05 -4.59114e-05 
26.982 1 250 9.33938 6.45519 4.46142 2.50932 -2.22579 4.14847 -0.548877 0.160345 0.12877 0.00254351 0.00228403 -0.0359361 0.000410875 0.00044319 -0.00903553 -1.21346e-05 3.81763e-06 5.25803e-07 
26.982 1 293 11.5082 8.1774 4.39991 -1.83346 1.40857 -0.892997 0.415195 0.466524 0.391859 -0.000296781 0.00531284 -0.0583355 0.000177795 0.00147555 -0.0136628 8.3551e-06 8.93257e-06 4.16416e-06 
26.982 1 290 9.52156 10.1878 4.19505 0.322479 -4.46485 -1.63517 -0.258919 1.0393 0.958477 0.00414162 0.00209655 -0.0567432 0.0012846 0.00038385 -0.0131183 -6.23853e-06 1.81368e-05 9.60161e-06 
26.982 1 96 11.6687 10.3853 2.59536 -1.39476 2.79899 -1.18485 -0.205406 -0.216182 -0.0841736 0.00919057 -0.0184661 -0.547168 0.00422638 -0.00260389 -0.124731 -2.78736e-06 -1.51425e-05 -4.66807e-05 
26.982 1 50 9.3409 6.28769 0.582087 -0.857726 -4.08499 -3.07517 -0.39992 0.344564 -0.393055 0.0457159 0.0221236 -0.677652 0.00663993 -0.00276545 -0.149009 -1.06908e-05 9.36057e-06 -6.59696e-05 
26.982 1 56 11.5957 6.29365 2.44028 -0.245955 -0.715682 -0.513412 -0.0707396 0.255008 0.048297 0.0258404 0.0709493 -0.430479 0.0059001 0.0132206 -0.0986622 -4.61447e-07 2.12058e-05 -2.55784e-05 
26.982 1 95 13.724 8.31858 2.34978 -4.87803 4.17032 1.28479 -0.00566099 -0.066022 0.66815 -0.0342466 0.0395971 -0.512206 -0.00274235 0.0117334 -0.120458 -1.54568e-05 1.70075e-05 -2.4962e-05 
26.982 1 254 13.656 6.26893 4.46939 -0.594706 5.93777 -1.30632 0.11149 0.579421 -0.10338 0.000916231 5.06943e-05 -0.0470932 0.000151938 0.000253426 -0.0115503 2.81667e-06 1.30274e-05 -3.69193e-07 
26.982 1 60 15.971 6.40179 2.37664 7.99801 1.07525 -4.09118 -0.123002 -0.013035 0.298785 -0.0165019 0.0306097 -0.409933 -0.00140051 0.0055334 -0.104077 -2.86435e-07 3.08359e-06 -3.91936e-06 
26.982 1 97 15.833 8.4336 0.447127 4.48091 -3.19526 0.961138 0.0492262 0.184826 -0.0792897 -0.0383006 0.116118 -0.522298 -0.0118377 0.0188761 -0.0991959 -8.29201e-06 1.21959e-05 -6.10478e-05 
26.982 1 54 13.7603 6.42626 0.372596 -0.18748 -0.674656 0.750142 -0.371221 -0.103395 0.221166 -0.0581735 0.0965374 -0.566375 -0.00637454 0.0216496 -0.125119 -1.49753e-05 1.47038e-05 -6.44054e-05 
26.982 1 297 15.8811 8.2946 4.33881 -0.962253 -2.39696 3.72575 -0.234595 0.020463 0.199032 0.000313322 0.004752 -0.0543648 -6.31363e-05 0.000917535 -0.0134403 -6.53404e-06 7.56934e-07 1.21284e-06 
26.982 1 99 18.1527 8.38992 2.40347 0.13433 0.31965 2.34336 -0.305874 -0.406311 -0.22134 -0.025983 0.0585742 -0.441723 -0.00808273 0.00602738 -0.102918 5.06547e-06 -6.25941e-06 -2.40155e-05 
26.982 1 258 18.1026 6.40847 4.56086 -1.00944 -0.108312 2.70419 0.0529856 0.166097 -0.791666 0.000765163 0.00255437 -0.041787 0.000221533 7.743e-05 -0.0110824 1.62756e-06 1.96352e-06 -1.15379e-05 
26.982 1 58 17.9297 6.26297 0.420834 5.91112 1.42301 -4.11429 0.0457549 0.465651 0.172192 0.0230009 0.0309507 -0.621585 0.00296125 0.00459971 -0.127808 1.20034e-05 1.54029e-05 -6.25464e-05 
26.982 1 64 20.226 6.40418 2.2492 -4.66506 -1.79257 -1.87913 0.0183183 0.166124 0.347467 0.03676 -0.0227417 -0.418476 0.0063404 -0.0061343 -0.101128 2.24798e-06 1.89484e-05 -2.05585e-05 
26.982 1 104 20.1621 10.3619 2.37428 -2.62298 0.13937 1.65052 0.279468 -0.1112 0.295351 0.0232156 0.058568 -0.528646 0.0031719 0.00999813 -0.112627 7.77488e-06 -1.64684e-05 -1.76959e-05 
26.982 1 102 22.297 10.3799 0.433216 -2.08544 0.748283 -0.199612 0.227985 0.0145287 -0.0749121 0.0201558 0.00391181 -0.266723 0.00350228 -0.00326149 -0.0845592 5.91873e-06 -4.53759e-06 -6.22025e-05 
26.982 1 301 20.2037 8.30619 4.26191 0.579032 8.7617 3.27699 0.188033 0.121489 0.219193 0.00177092 0.00374932 -0.0480157 0.000279749 0.000539975 -0.0114592 2.86041e-06 2.86961e-06 -2.91275e-06 
26.982 1 103 22.6674 8.46728 2.46556 -8.83889 7.83742 -1.37199 -0.592007 -0.507728 -0.384194 0.0267122 0.0452327 -0.501744 0.00725385 0.00317308 -0.111803 -1.77472e-05 -7.90077e-06 -2.40561e-05 
26.982 1 262 22.4759 6.50479 4.39613 0.848741 0.418563 2.86999 -0.0560866 0.0275085 -0.216728 0.0020743 -0.000124261 -0.0532084 0.000577462 -0.000609243 -0.0132364 -1.78493e-06 2.61394e-07 -7.45922e-06 
26.982 1 68 24.6266 6.36627 2.401 4.17414 1.77766 5.1013 -0.0966941 0.261833 -0.209668 0.0208833 -0.0105961 -0.510515 0.00625468 -0.00731635 -0.126893 1.00226e-05 -8.77633e-06 -3.86036e-05 
26.982 1 302 22.4242 10.2795 4.35696 -0.904633 3.59758 -2.73724 0.0293449 0.52888 0.250549 -0.000556785 0.000603428 -0.0670393 5.02006e-05 -5.90531e-05 -0.0138528 1.92567e-06 7.95802e-06 3.01294e-06 
26.982 1 62 22.3152 6.25013 0.428221 6.38373 -1.96403 -3.00629 0.122545 0.63765 0.075097 0.0134632 0.0546672 -0.4579 0.00455991 0.00565502 -0.100052 1.00716e-05 8.89676e-06 -6.04957e-05 
26.982 1 105 24.6171 8.37492 0.481911 -3.40978 4.34587 1.83808 0.0685499 0.135636 0.00398906 -0.0122361 -0.0328844 -0.538346 0.00599191 -0.0032376 -0.109095 2.22614e-05 -1.19865e-07 -6.56367e-05 
26.982 1 305 24.7692 8.43414 4.45067 -4.15484 -1.15108 0.887098 -0.17919 -0.156982 0.0144992 -0.000219974 0.00122918 -0.0565704 0.000169743 -1.30002e-05 -0.0140938 -2.97822e-07 -1.238e-06 -2.25498e-06 
26.982 1 107 26.8619 8.22589 2.40405 -2.1232 -2.2774 2.65415 -0.0446123 0.652617 0.558943 0.0689256 -0.065016 -0.530451 0.00943374 -0.00996521 -0.126743 1.51789e-05 4.89528e-06 -4.88101e-05 
26.982 1 266 26.8193 6.33051 4.41701 -1.12501 1.53637 1.37858 0.268325 0.21267 -0.102121 0.00164424 0.00199614 -0.0646258 3.23904e-05 -6.38731e-05 -0.016563 6.64049e-06 2.53375e-06 -6.94099e-06 
26.982 1 306 26.7942 10.3374 4.4795 -0.260433 1.42281 -1.089 0.289654 0.0214979 -0.0261512 -0.000312737 -0.00261306 -0.0489918 0.000105278 -0.000362243 -0.0136714 7.32049e-06 4.34834e-07 -7.41942e-06 
26.982 1 72 29.0016 6.21866 2.44755 0.500055 0.399685 0.524274 0.269058 0.323042 0.243589 -0.0379827 0.0446864 -0.582595 -0.00350611 -0.0021921 -0.14274 5.18106e-06 -3.54171e-07 -5.87075e-05 
26.982 1 309 29.1649 8.26096 4.34616 -7.76885 2.24508 1.15786 -0.204178 0.215866 0.146604 -0.00222355 -0.0019479 -0.0690412 -0.000508777 -0.000413916 -0.0161595 -2.77755e-06 4.68673e-06 -7.09749e-06 
26.982 1 111 31.2658 8.42461 2.40532 2.95472 -1.2396 2.17248 0.0108042 -0.0671587 0.0581359 -0.0526155 -0.0675854 -0.478887 -0.00827328 -0.0163149 -0.117245 -2.58311e-06 3.29366e-06 -6.02491e-05 
26.982 1 270 31.3754 6.43276 4.32654 0.505673 0.282713 -2.58778 -0.173291 -0.452722 0.265161 -0.00204767 0.00312312 -0.0561706 -0.000571326 0.000139975 -0.0155934 -2.1631e-06 -7.1478e-06 -5.84927e-06 
26.982 1 313 33.4768 8.28406 4.6032 1.89778 -0.0107531 4.6359 0.153812 0.554014 -0.10941 9.39997e-05 -0.000120971 -0.0520993 -0.000533037 -0.000106832 -0.0127544 -1.04607e-06 1.00978e-05 -6.05479e-06 
26.982 1 76 33.5042 6.43472 2.51696 3.32111 -0.0600096 0.050744 0.0682143 -0.102429 -0.145079 0.0208715 0.0345366 -0.470104 -0.00424031 0.00139059 -0.11579 -1.26591e-05 -4.41018e-08 -4.92807e-05 
26.982 1 310 31.2695 10.5006 4.4717 -2.56134 0.895669 3.42357 0.117599 -0.74509 -0.148361 -0.000636107 -0.000538334 -0.0391492 -0.000123987 8.9727e-05 -0.0115414 1.04115e-06 -1.32194e-05 -1.15895e-05 
26.982 1 116 33.5455 10.2268 2.55278 1.01296 0.721405 2.09884 -0.0651703 0.0646079 0.0645932 0.0576453 0.0341678 -0.463253 0.00831332 0.00893388 -0.112398 -1.10419e-06 1.80391e-06 -5.64502e-05 
26.982 1 115 35.7794 8.3854 2.61065 2.74821 7.39222 -0.00653194 -0.188731 0.191705 -0.399206 -0.0865853 -0.0197904 -0.4191 -0.0170063 -0.000474318 -0.0971626 -1.31357e-05 1.91627e-05 -3.95182e-05 
26.982 1 274 35.7949 6.4962 4.4729 -2.42015 -1.57367 2.7121 -0.30481 -0.743723 0.0175107 0.00263491 -0.00398124 -0.0534932 7.71979e-06 -0.00105303 -0.0122672 -8.65891e-06 -1.27488e-05 -8.79496e-07 
26.982 1 317 37.9333 8.27047 4.62133 6.65941 1.73774 8.09121 0.370516 0.367272 -0.317232 0.00160856 -0.00232941 -0.0358036 0.000755981 -0.00039805 -0.0087947 9.81286e-06 9.66812e-06 -7.26493e-06 
26.982 1 314 35.8145 10.2013 4.5407 1.18486 2.27403 2.19308 -0.196412 0.260576 0.269575 -0.00125755 0.00270235 -0.0518534 -0.000426543 0.000680063 -0.0124096 -4.14975e-06 5.43189e-06 -2.01263e-06 
26.982 1 74 35.6557 6.44275 0.663943 -0.771425 -2.68172 -4.30023 0.0763873 -0.0265638 -0.453613 0.0542361 -0.0680117 -0.452388 -0.000194519 -0.0133458 -0.110198 -2.36453e-05 1.82789e-06 -6.59555e-05 
26.982 1 44 42.5254 6.48001 2.63768 5.715 1.43186 -3.5101 -0.281706 -0.0194159 -0.171302 -0.0258529 -0.355004 -0.456518 -0.0140041 -0.0751389 -0.105637 1.10099e-05 -3.03297e-05 -4.42202e-05 
26.982 1 80 37.8125 6.46008 2.45144 0.955947 -0.698631 1.36097 0.438446 0.362268 0.0233584 -0.00553285 -0.159766 -0.461075 0.00503003 -0.0292102 -0.105324 1.6769e-05 6.13301e-06 -2.03623e-05 
26.982 1 119 40.2022 8.28583 2.58269 0.701993 0.281595 0.01187 -0.055848 0.140262 0.041265 0.104578 0.0513692 -0.462418 0.0229585 0.00114513 -0.110331 -1.6403e-06 -1.14815e-05 -2.16206e-05 
26.982 1 278 40.2146 6.37664 4.50644 5.79712 -4.56391 -6.5893 -0.135372 -0.0552338 0.143475 0.137533 -0.137281 -0.064363 0.0253485 -0.0246965 -0.0164366 -8.3845e-07 -3.84573e-06 -4.0085e-06 
26.982 1 318 40.3327 10.4817 4.45172 2.7489 -1.88514 1.05954 -0.424258 -0.231603 -0.109851 0.113874 -0.0952392 -0.0793829 0.0303332 -0.0262126 -0.0167716 2.15666e-06 -1.82329e-05 -3.93071e-06 
26.982 1 118 40.1873 10.3586 0.731158 -0.237195 -0.111675 -2.8615 0.356192 -0.326378 -0.538186 0.115897 -0.0164799 -0.261061 0.0186592 -0.0033905 -0.077992 -6.26261e-06 5.23793e-06 -6.32191e-05 
26.982 1 81 42.4125 8.35524 0.692451 -2.59316 -1.93397 -4.7865 -0.133509 0.0299166 -0.420752 -0.192187 -0.128034 -0.405248 -0.0290792 -0.0272681 -0.0844163 1.07022e-05 -1.48394e-05 -6.59323e-05 
26.982 1 117 38.0113 8.63312 0.697918 -1.45962 -2.1514 1.03419 -0.106712 -0.742524 -0.0809626 0.0429118 0.0293482 -0.894569 0.0118931 0.00287805 -0.188928 -9.89879e-06 1.08172e-06 -6.21223e-05 
26.982 1 121 -1.87122 12.2243 0.612707 1.59696 -1.70021 -1.69722 0.12403 -0.0145831 -0.632401 -0.0883939 -0.0655064 -0.114993 -0.0227443 -0.0167977 -0.0526465 -1.44671e-05 -5.8931e-06 -5.02418e-05 
26.982 1 123 0.360085 12.2323 2.7118 0.231256 -0.620955 0.730226 6.45206e-05 0.503171 -0.728077 -0.371603 -0.124095 -0.456235 -0.0794652 -0.021635 -0.0988889 -3.69012e-06 3.01651e-06 -4.37986e-05 
26.982 1 322 0.144255 14.425 4.47784 2.3233 -0.224642 -4.60339 0.512663 -0.510443 0.21945 -0.224822 -0.0894798 -0.114212 -0.0487712 -0.0170385 -0.0246031 6.43613e-06 -6.30225e-06 -3.99274e-06 
26.982 1 124 -1.90369 14.2494 2.38514 4.40838 -0.558159 4.63179 0.318338 0.255526 0.106111 -0.512477 -0.194826 -0.453407 -0.120725 -0.0350077 -0.0995633 -3.8999e-05 1.493e-05 -3.57483e-05 
26.982 1 321 -1.94167 12.4208 4.52811 -4.31054 -3.52314 -3.47179 0.0888044 -0.0331032 -0.22293 -0.205248 -0.157408 -0.200581 -0.0457564 -0.0357206 -0.044781 -2.81501e-05 -1.44492e-05 -2.11805e-05 
26.982 1 126 4.71513 14.4028 0.651699 -0.259312 -3.12751 -1.85575 0.108641 0.183296 -0.230243 0.0471351 0.0104101 -0.63489 0.00141174 0.00504614 -0.153691 -1.12482e-05 9.52341e-06 -6.05696e-05 
26.982 1 325 2.43881 12.3951 4.55432 -1.20358 3.74788 3.37569 0.145392 -0.185604 0.235695 -0.0336868 -0.00430186 -0.0412921 -0.00681093 -0.000404232 -0.00897669 1.09937e-06 -5.02429e-06 -2.96382e-07 
26.982 1 128 2.42483 14.324 2.52931 3.59073 0.883577 -5.96788 0.0397541 -0.203353 -0.203453 -0.051476 0.0391441 -0.386162 -0.0148988 0.0160899 -0.091849 -1.0512e-05 1.01276e-05 -3.85309e-05 
26.982 1 286 4.71998 10.4898 4.42797 -2.0581 2.07771 -2.29707 0.0798747 0.017964 0.0944594 -0.000482116 0.00139746 -0.0351803 -0.000159395 0.000180997 -0.0075401 -5.87368e-07 4.91622e-07 -1.51341e-06 
26.982 1 127 4.84119 12.5047 2.57569 -0.0788614 -0.0421632 0.598734 -0.0698642 -0.422991 -0.260549 0.00704073 0.00739379 -0.333576 0.00429113 0.00106097 -0.0722808 -1.67081e-06 -6.55433e-06 -1.42521e-05 
26.982 1 326 4.61592 14.4322 4.43808 1.9214 0.753557 0.958679 0.347274 0.103594 0.0276333 -1.2217e-05 0.000380998 -0.0361573 -0.000364837 9.94313e-05 -0.00770792 4.89239e-06 1.35245e-06 -2.24471e-06 
26.982 1 129 7.26067 12.423 0.67404 -4.76065 -1.66648 -2.43777 -0.768437 -0.224709 0.102442 0.0485804 0.0192743 -0.6662 0.0120381 0.00590602 -0.138712 2.79289e-06 -1.29314e-05 -5.98126e-05 
26.982 1 125 2.51235 12.3267 0.542966 1.38541 0.446323 -3.16673 -0.180974 0.262651 0.350769 -0.0871232 -0.0761972 -0.712917 -0.0230638 -0.00563622 -0.163753 -2.34982e-05 4.48152e-06 -5.7932e-05 
26.982 1 92 7.2227 10.4172 2.74833 3.124 3.52497 4.34776 -0.381556 0.307464 -0.741999 0.0519842 -0.0196801 -0.407359 0.0138624 -5.05092e-05 -0.0899921 4.99453e-06 4.06888e-06 -2.72299e-05 
26.982 1 329 7.03106 12.5075 4.44998 -3.42377 -1.53836 -2.82911 0.0876854 -0.352608 -0.115237 0.00182021 -0.000286705 -0.0396685 0.000452195 -0.000211431 -0.00935214 6.38057e-06 -7.64895e-06 -2.79647e-06 
26.982 1 132 6.93906 14.4898 2.53413 -5.11546 0.787765 -3.05298 -0.341774 -0.416506 -0.164767 0.0325154 0.0152279 -0.392292 0.00895824 -0.00420173 -0.0832441 -5.93888e-06 -7.25843e-06 -1.08529e-05 
26.982 1 131 9.37958 12.5142 2.38403 1.0309 -5.26831 3.27801 -0.272621 0.118012 0.847606 0.0500446 -0.0126949 -0.460778 0.00990147 -0.00462371 -0.107239 -6.50999e-06 -2.20498e-05 -1.47095e-05 
26.982 1 330 9.37567 14.3636 4.57761 1.1298 2.77721 0.567423 -0.647559 -0.178026 -0.496327 0.0018437 0.000643439 -0.0495806 0.000847706 -7.62431e-05 -0.0113019 -1.05093e-05 -3.06284e-06 -6.84282e-06 
26.982 1 133 11.5779 12.3816 0.640142 -2.56166 1.31849 2.56552 -0.31819 -0.0752423 -0.562898 0.0170834 -0.0203934 -0.442236 0.00405539 -0.00941097 -0.0973133 -3.31801e-06 -2.40953e-05 -6.93348e-05 
26.982 1 130 9.28704 14.5764 0.615776 3.99752 -1.8017 0.657409 -0.0286343 -0.327789 -0.443938 0.0489511 -0.0819793 -0.502369 0.0150861 -0.0131673 -0.113883 1.24247e-05 7.16095e-06 -6.8726e-05 
26.982 1 137 15.6725 12.3938 0.612806 1.09495 -0.729106 3.0595 0.524635 -0.517344 -0.446971 0.0328971 0.0202056 -0.288925 -0.0021715 -0.00326246 -0.0903705 -2.09139e-06 -1.34587e-05 -6.48594e-05 
26.982 1 333 11.351 12.4459 4.49982 0.913268 -0.119415 -1.77095 0.0727822 -0.392177 0.0283097 0.0018669 -0.0014461 -0.0582486 0.000227654 -0.000678002 -0.0135182 -2.28326e-06 -8.65941e-06 1.01107e-06 
26.982 1 294 13.4871 10.2761 4.65599 -0.0348985 0.863461 -3.23676 0.434754 0.0245783 -0.321961 0.000681693 0.00543893 -0.0628523 -0.000189487 0.000601318 -0.0152771 5.44387e-06 -2.38949e-06 -5.59638e-06 