ITEM: TIMESTEP
10500
ITEM: NUMBER OF ATOMS
4000
ITEM: BOX BOUNDS pp pp pp
-2.20824 42.7082
0.611614 39.8884
0.60521 39.8948
ITEM: ATOMS mass type id x y z vx vy vz fx fy fz xrad yrad zrad vxrad vyrad vzrad fxrad fyrad fzrad 
26.982 1 43 0.133598 4.62512 2.52745 2.10237 1.55054 -5.46624 -0.115362 -0.259182 0.355453 -0.415129 -0.256985 -0.616927 -0.0764617 -0.0397919 -0.11793 -1.18251e-05 -9.93697e-06 -4.68703e-05 
26.982 1 202 -0.041469 2.40011 4.49612 1.78848 1.93548 3.08741 0.185353 0.476445 0.157263 -0.395619 -0.365104 -0.354391 -0.0743782 -0.0616989 -0.0661566 -6.22535e-06 -9.22544e-06 -8.05006e-06 
26.982 1 4 -2.01858 2.4031 2.63111 -0.694962 -1.95105 3.47211 -0.379988 0.271332 0.00214733 -0.418717 -0.493977 -0.553746 -0.0937729 -0.0856277 -0.10017 -4.22483e-05 -4.79628e-06 -2.38671e-05 
26.982 1 8 2.33918 2.52199 2.51961 1.12161 -0.291789 3.24143 0.0144097 0.47049 0.32107 0.139279 -0.613827 -0.625477 0.0180176 -0.110952 -0.127425 1.04726e-05 -6.38762e-06 -2.35975e-05 
26.982 1 961 -2.4416 16.2882 16.187 0.65458 -1.34624 5.97893 0.258171 0.199266 0.513506 -0.399341 -0.243336 -0.28298 -0.0709152 -0.0447507 -0.0508702 -2.2396e-05 -7.63269e-06 -3.02401e-06 
26.982 1 241 42.7211 4.53522 4.56513 -3.64142 -2.48062 0.291489 0.0432668 -0.589607 -0.106646 -0.367478 -0.368226 -0.406414 -0.0587507 -0.0556057 -0.0643876 2.26306e-07 -1.59875e-05 -1.20318e-05 
26.982 1 805 2.30893 0.75844 16.4273 -2.48157 3.69596 -1.7104 -0.521484 -0.248825 -0.742556 -0.037353 -0.233453 -0.261823 -0.00290933 -0.0452661 -0.044913 1.33836e-06 -3.86824e-05 -3.97891e-05 
26.982 1 3 0.261238 0.558188 2.50068 -2.89743 -0.186763 2.00597 -0.45167 -0.160157 0.0902565 -0.312956 -0.745664 -0.448918 -0.0523202 -0.135044 -0.101288 -1.25842e-05 -4.39683e-05 -1.33679e-05 
26.982 1 3025 24.5349 20.0613 20.1512 -2.9557 1.7738 -1.76496 0.432623 0.591184 -0.15269 -0.399882 -0.0831842 -0.652267 -0.0690451 -0.0216769 -0.126736 -9.94267e-06 1.16192e-05 -2.49626e-05 
26.982 1 2821 20.2676 20.472 16.324 4.15795 -0.0918721 0.800106 -0.349134 -0.519758 0.104053 -0.167335 0.208871 -0.440191 -0.0460421 0.0053102 -0.0936545 -1.60109e-05 3.18731e-06 -2.88869e-05 
26.982 1 245 2.15006 4.55449 4.60511 -0.300209 -3.3804 -4.29422 0.25203 -0.121704 -0.421392 -0.0289033 -0.06672 -0.0879268 -0.00558329 -0.010726 -0.0173621 4.0918e-06 -5.29218e-06 -1.56756e-05 
26.982 1 47 4.71655 4.52998 2.5939 1.09613 1.0162 1.18137 -0.31479 -0.00531567 -0.106775 -0.0552478 -0.159974 -0.579554 -0.00694137 -0.02164 -0.121571 -1.96984e-05 -5.67147e-06 -4.52239e-05 
26.982 1 206 4.43861 2.59155 4.4502 2.0664 -3.69852 -2.91236 0.203908 -0.359791 0.227052 -0.0326307 -0.591319 -0.348809 -0.00106171 -0.0997241 -0.0634721 4.38176e-06 -4.60269e-05 -1.65394e-05 
26.982 1 12 6.89259 2.54062 2.55669 -2.42147 0.420522 -6.51902 -0.11231 0.302597 -0.154613 -0.131725 -0.735994 -0.500042 -0.020188 -0.131305 -0.106056 2.61452e-06 -5.53111e-05 -3.04776e-05 
26.982 1 2809 6.92478 20.338 16.3585 2.97434 -0.933883 2.95454 -0.323948 -0.292542 -0.0840122 -0.223194 0.0533795 -0.500867 -0.0389784 0.00760095 -0.0855665 6.24389e-07 3.71003e-05 -1.86788e-05 
26.982 1 1000 38.1883 18.3665 18.2561 -2.36874 1.8168 -1.5168 -0.0719148 -0.0517479 -0.336878 -0.109437 0.408764 0.0561085 -0.0191808 0.0822385 0.0126931 -2.24689e-06 2.53462e-05 -7.69017e-06 
26.982 1 49 6.79487 4.65933 0.467711 4.34953 -2.93126 -4.26658 0.351084 -0.344781 0.420125 -0.0558974 -0.0927374 -0.874935 -0.0103746 -0.0133414 -0.161343 -1.04309e-05 -1.21976e-05 -5.49862e-05 
26.982 1 249 6.91013 4.37947 4.53971 1.13966 -2.89533 -1.56064 -0.272844 -0.0468006 0.242511 -0.0057512 -0.0601998 -0.0645741 -0.000988377 -0.0106269 -0.014002 -6.17181e-06 -1.36004e-05 -1.26986e-06 
26.982 1 998 40.4656 18.3715 16.2729 1.36569 1.9806 6.96483 -0.219946 0.0618064 0.0269025 0.115351 0.0760725 -0.176497 0.0168009 0.0222039 -0.0356886 9.15168e-06 6.75816e-06 -1.91123e-05 
26.982 1 51 9.21814 4.50936 2.60148 -1.16948 2.74759 1.78407 -0.344453 0.0820856 0.257439 0.00860193 -0.0642513 -0.455354 0.00271441 -0.0122405 -0.0973633 -8.11302e-06 -2.39073e-05 -2.63228e-05 
26.982 1 210 9.16133 2.61549 4.80097 0.411355 -3.84405 2.18043 -0.0661723 -0.239145 -0.675773 0.0229794 -0.517997 -0.273084 0.0088256 -0.0986218 -0.052738 -2.26626e-06 -3.90337e-05 -3.2391e-05 
26.982 1 2807 4.54176 20.2486 18.2993 -1.81983 -0.306123 0.270641 0.65223 0.356374 0.290042 -0.397772 -0.0373895 -0.413739 -0.0609897 -0.0192864 -0.0857003 -4.19197e-06 2.52914e-05 -1.02612e-06 
26.982 1 16 11.2356 2.49396 2.89801 4.536 3.06499 3.8673 0.35552 0.0150192 -0.178917 0.146452 -0.7138 -0.543887 0.0191539 -0.137627 -0.106624 -4.73691e-06 -5.72744e-05 -2.28352e-05 
26.982 1 253 11.2849 4.61727 4.74076 -4.7523 0.0675743 5.22159 0.185866 -0.188885 -0.459153 0.00591033 -0.0676401 -0.0691867 0.000856938 -0.0134229 -0.0148205 4.85803e-06 -3.34482e-06 -9.89942e-06 
26.982 1 55 13.6043 4.70567 2.62017 -1.8915 1.28107 -2.01508 -0.0431156 0.193755 0.404472 0.0126112 -0.177144 -0.642993 0.00618543 -0.0216013 -0.130616 4.81802e-06 1.27764e-05 -2.53137e-05 
26.982 1 214 13.562 2.76581 4.62926 0.269512 -2.47127 -0.974625 0.0532028 -0.307926 -0.356641 0.0560442 -0.598476 -0.31042 -0.00022641 -0.107572 -0.0587512 -7.64495e-06 -2.75434e-05 -1.91904e-05 
26.982 1 14 13.6321 2.751 0.895669 3.49151 -4.80226 2.50905 -0.0657547 -0.974926 -0.449968 0.0402145 -0.446351 -0.469703 0.00638236 -0.0792966 -0.112554 -1.78514e-06 -2.63977e-05 -5.06281e-05 
26.982 1 217 15.8835 0.579698 4.7394 -1.51919 2.90358 5.3292 -0.614505 -0.1456 -0.460599 0.0121343 -0.283732 -0.241998 0.00216042 -0.085641 -0.0718156 -1.77776e-05 -4.58591e-05 -3.51914e-05 
26.982 1 999 40.3652 16.3264 18.1208 3.16153 0.235452 0.429443 0.0883359 -0.184539 0.224171 0.194682 -0.0239594 -0.164617 0.0365522 -0.00702977 -0.0284223 1.89085e-05 -4.2402e-06 -1.1918e-05 
26.982 1 257 15.9773 4.57434 4.52979 3.44967 -3.07658 -0.924896 -0.361756 0.0575112 0.00863899 -0.00516385 -0.0787004 -0.0736278 -0.000513254 -0.0125937 -0.0170871 -8.00553e-06 -1.04944e-06 -6.8396e-06 
26.982 1 20 15.676 2.57061 2.68554 -2.38742 -1.9718 -2.00218 0.294375 0.206816 0.337224 -0.202983 -0.740068 -0.514011 -0.024734 -0.123134 -0.111601 -6.68702e-06 -3.09719e-06 -1.87943e-05 
26.982 1 218 17.918 2.44741 4.56357 -0.290556 3.36703 2.73799 0.510809 0.439519 0.0648439 -0.0496996 -0.566931 -0.222328 -0.000931815 -0.102303 -0.0481983 6.58968e-06 -3.0196e-06 -5.97258e-06 
26.982 1 59 18.2099 4.6401 2.592 0.410919 0.291625 -2.53541 -0.586288 -0.253561 -0.0777264 0.020314 -0.0170431 -0.49918 -0.000110067 -0.00262679 -0.111727 -1.94777e-05 -5.04298e-06 -2.16644e-05 
26.982 1 18 18.1716 2.55084 0.784247 -0.693426 -1.74632 0.105694 -0.287634 0.26167 -0.727585 -0.0462689 -0.397415 -0.928977 -0.00589598 -0.0729711 -0.165057 -2.70601e-06 -5.56915e-06 -6.55334e-05 
26.982 1 24 20.1745 2.57943 2.63235 -4.83903 0.419665 6.0414 0.564224 -0.3224 -0.222023 0.0622502 -0.583528 -0.414936 0.0158329 -0.11744 -0.0960758 3.65533e-05 -3.37387e-05 -3.04829e-05 
26.982 1 261 20.2492 4.48768 4.43819 -0.245541 2.9321 -2.35451 0.42112 -0.317407 0.390924 0.00445397 -0.06072 -0.0748213 0.00125012 -0.0121691 -0.0170246 1.0001e-05 -6.71872e-06 -9.75868e-07 
26.982 1 63 22.7354 4.55275 2.56739 -4.23993 -0.120812 1.05119 -0.408724 0.0975636 0.119685 0.0280701 -0.0115782 -0.630822 0.00787327 -0.00939373 -0.13647 -7.79445e-06 -1.74346e-05 -2.23514e-05 
26.982 1 222 22.711 2.63419 4.65522 -1.6986 2.95111 10.6287 -0.363173 -0.0834731 -0.717834 -0.0316426 -0.507641 -0.257889 -0.00062238 -0.104659 -0.0573963 3.50305e-06 -3.10051e-05 -3.25308e-05 
26.982 1 28 24.7968 2.66181 2.6083 -0.776275 3.76484 -4.24331 0.173736 -0.205051 0.168846 -0.0644697 -0.451823 -0.565746 -0.00818079 -0.101767 -0.124266 1.8711e-07 -5.72198e-05 -3.04723e-05 
26.982 1 997 38.211 16.3461 16.3062 -0.424203 -0.645227 0.685423 -0.381592 -0.167187 0.228989 0.00354291 0.00113534 -0.00489455 0.000517701 0.000296649 -0.0010884 -5.93916e-06 -9.83237e-07 3.1812e-06 
26.982 1 265 24.934 4.62859 4.69346 2.06938 1.80878 3.18681 -0.193552 -0.496004 -0.0507058 -0.000853257 -0.049597 -0.0893893 -4.83533e-05 -0.0117323 -0.0206998 -6.13113e-07 -9.29477e-06 -2.24667e-06 
26.982 1 67 27.0314 4.54023 2.72948 1.84935 3.3203 1.72391 0.186377 -0.396039 -0.570207 0.0264703 0.000676789 -0.751879 0.00689395 -0.00262609 -0.165206 1.26256e-05 -5.62537e-06 -4.98436e-05 
26.982 1 226 27.0415 2.41372 4.51177 -1.32222 4.67857 -0.617798 -0.0604404 0.0997803 -0.142283 0.0234719 -0.386447 -0.156321 -0.00183519 -0.0864276 -0.0433659 -1.40821e-05 -2.63921e-05 -2.24255e-05 
26.982 1 2803 0.0189381 20.2438 18.1971 -0.885203 -2.54615 -0.0209296 0.0491771 0.531429 0.138467 -0.549948 -0.365295 -0.394214 -0.104207 -0.0558438 -0.0861096 -1.619e-05 2.25933e-05 -2.8672e-05 
26.982 1 32 29.3117 2.48149 2.48756 -2.55679 -4.16571 1.65266 -0.292824 -0.369194 -0.143658 0.0103971 -0.428277 -0.59208 -0.000666669 -0.0752459 -0.131797 -1.77852e-05 -4.63698e-06 -4.98742e-05 
26.982 1 269 29.4097 4.20745 4.4854 1.05118 3.31622 -0.160913 -0.392069 0.770545 0.231611 -0.00390748 -0.0473109 -0.0946927 -0.00069507 -0.00975114 -0.0227154 -1.17076e-05 1.0703e-05 -4.03472e-06 
26.982 1 71 31.5296 4.32831 2.55497 0.537425 -1.37214 0.657083 0.139648 0.1972 0.0312745 -0.068672 -0.00250128 -0.624067 -0.0184379 -0.00581663 -0.147343 -9.72464e-06 -1.16704e-05 -3.74835e-05 
26.982 1 230 31.4532 2.41778 4.4889 -6.37072 5.43905 4.21799 0.414317 -0.475516 -0.165002 -0.0460346 -0.438749 -0.209008 -0.00561611 -0.0828793 -0.0447105 7.25537e-06 -1.71331e-05 -1.01018e-05 
26.982 1 273 33.8407 4.30475 4.36571 -2.86102 -1.40893 6.37246 0.00182326 0.377272 0.197011 0.00119375 -0.0359962 -0.0726791 -0.000285738 -0.00834517 -0.0164133 4.51919e-06 2.522e-06 -3.725e-06 
26.982 1 31 31.5277 0.520713 2.52004 -1.75755 -0.436736 -2.39047 -0.180354 0.209649 -0.170984 -0.107051 -0.653649 -0.528723 -0.0109734 -0.115901 -0.110253 7.41286e-06 -4.37432e-05 -3.49504e-05 
26.982 1 36 33.8091 2.5059 2.38087 6.2632 0.758772 -2.02117 -0.178012 -0.172437 0.00431703 -0.0421748 -0.456557 -0.559774 -0.00981883 -0.0981669 -0.123621 -1.38729e-05 -2.52466e-05 -3.55434e-05 
26.982 1 233 33.7529 0.430417 4.46355 2.17447 3.68037 -0.593151 -0.102752 0.830259 0.215013 -0.0107331 -0.620273 -0.344794 0.000230167 -0.112877 -0.0716423 -3.05927e-06 -3.67775e-05 -2.64484e-05 
26.982 1 73 33.7023 4.57455 0.450666 1.78954 -0.0303085 -4.97615 0.0521291 0.0871786 0.31025 0.104513 -0.0545795 -0.800296 0.00717919 -0.0103631 -0.14661 1.98339e-06 -4.64176e-06 -6.02631e-05 
26.982 1 75 36.1786 4.46811 2.50518 -0.740753 -1.11332 -1.46346 -0.343481 0.091134 0.456544 0.108185 -0.0129728 -0.704633 0.010104 -0.00461278 -0.135131 -6.50154e-06 1.59716e-05 -1.80696e-05 
26.982 1 234 35.8106 2.43879 4.50161 1.74039 -0.463707 1.76791 0.478749 0.242322 -0.0292268 0.0155499 -0.322146 -0.145347 -0.00059709 -0.0703916 -0.0369844 9.34167e-06 -1.94188e-06 -2.81288e-06 
26.982 1 77 38.1742 4.6017 0.585871 3.31904 0.111494 3.39635 0.30098 -0.79321 0.0767166 -0.0106314 -0.0278404 -0.295159 0.0012717 -0.00125919 -0.095004 1.51905e-05 6.06058e-06 -6.57528e-05 
26.982 1 277 38.3961 4.48319 4.51311 -0.605614 2.41172 -5.84203 -0.537672 0.14883 -0.0876958 0.00700705 -0.0428588 -0.10543 0.000996744 -0.00818623 -0.0192241 -1.0758e-05 -8.19997e-07 -4.21439e-06 
26.982 1 34 36.0204 2.57349 0.594506 1.42331 -1.92452 2.58173 -0.066294 0.163362 -0.000661599 0.0780969 -0.204373 -0.767186 0.00573365 -0.0634471 -0.143137 2.23957e-06 -2.42897e-05 -6.16286e-05 
26.982 1 40 38.2435 2.51457 2.60343 6.62597 -1.48802 3.16815 -0.101394 -0.415979 -0.0721281 0.204209 -0.447844 -0.753949 0.0213832 -0.0964737 -0.136155 1.99072e-05 -4.06098e-05 -3.15228e-05 
26.982 1 237 38.1491 0.513971 4.70021 -0.391524 -1.19306 -1.02492 0.0796245 0.321777 -0.170923 0.101662 -0.590322 -0.42687 0.0121815 -0.117729 -0.0885601 1.79326e-05 -3.49685e-05 -3.69718e-05 
26.982 1 79 40.3934 4.23338 2.53251 0.0572153 2.64785 -3.23727 0.56201 -0.137593 0.156602 -0.071261 -0.115147 -0.764673 -0.00347361 -0.00695235 -0.145542 2.52373e-05 -5.79755e-06 -5.25118e-05 
26.982 1 238 40.4447 2.5815 4.67621 -4.96366 8.40434 1.59527 0.043444 -0.0733661 -0.0693846 -0.00150134 -0.483703 -0.310625 0.00272675 -0.0908398 -0.0561133 1.60649e-05 -3.79616e-05 -2.28387e-05 
26.982 1 637 38.3505 0.523645 12.287 4.02371 -1.89158 0.111027 -0.755522 0.0669399 0.399483 -0.00138109 -0.423122 -0.345313 -0.0054897 -0.0875841 -0.074669 -2.09424e-05 -4.56308e-05 -2.47978e-05 
26.982 1 83 0.069462 8.32921 2.58396 1.96381 0.439713 0.331054 0.117647 0.174123 -0.0997508 -0.490884 -0.15343 -0.599679 -0.0888191 -0.0331308 -0.114442 -1.34149e-05 -1.26414e-05 -1.50382e-05 
26.982 1 242 -0.048532 6.43789 4.64424 -3.20392 -0.57661 -4.07683 0.441033 -0.107329 -0.199556 -0.495595 0.00907876 -0.276737 -0.0878451 -0.00643301 -0.048467 -2.15085e-05 -2.71597e-06 -1.05816e-05 
26.982 1 84 42.8237 10.3858 2.59416 1.22519 -3.41242 -0.0631011 -0.0263788 0.414352 -0.0612973 -0.551864 -0.157149 -0.761095 -0.103566 -0.035666 -0.132879 9.82669e-06 -2.55754e-05 -2.68396e-05 
26.982 1 281 42.9815 8.50827 4.52559 0.101893 -4.01901 -5.77666 -0.822988 -0.0860453 0.195937 -0.307252 -0.29939 -0.348446 -0.0684573 -0.0633958 -0.0745476 -1.5718e-05 -1.41976e-06 -4.148e-08 
26.982 1 44 -2.1369 6.40933 2.55504 -2.88762 3.19675 -0.218213 0.145527 -0.0970518 0.150255 -0.0662551 -0.466007 -0.624841 -0.0389647 -0.0762612 -0.116225 -4.21718e-05 -1.95006e-05 -6.18984e-06 
26.982 1 439 40.3773 0.442541 10.2642 8.53003 -0.13883 -0.289088 0.107973 0.17508 0.229093 0.144652 -0.312201 -0.457427 0.0261604 -0.0589508 -0.0884688 -1.8148e-06 -5.93685e-05 -6.148e-06 
26.982 1 285 2.09312 8.3009 4.61319 -0.679457 1.89191 5.37915 0.515055 -0.0893024 0.293486 -0.0493972 -0.0039072 -0.0654069 -0.00741533 -0.000980492 -0.0114689 6.73503e-06 -5.68331e-06 3.01991e-06 
26.982 1 85 2.33937 8.446 0.728843 0.333848 4.32806 -3.83487 -0.193403 0.436471 -0.541213 -0.0219038 0.0167143 -0.802303 -0.00425137 -0.0109244 -0.18014 1.52553e-05 -6.02791e-06 -6.29888e-05 
26.982 1 48 2.40441 6.52175 2.46206 -1.26466 -5.98476 -0.0355131 0.0732826 -0.27825 0.744674 -0.114902 -0.0437993 -0.572735 -0.0143584 -0.0127968 -0.112063 5.54987e-06 -2.39601e-05 -3.48161e-05 
26.982 1 87 4.60873 8.53153 2.76426 0.0334391 2.3433 2.94163 -0.309334 -0.284576 -0.308692 -0.00353356 -0.00645135 -0.504369 0.00295343 -0.0102385 -0.100193 2.36765e-06 -5.20931e-06 -4.77606e-05 
26.982 1 246 4.67399 6.48766 4.64802 4.93067 4.16223 1.72767 -0.518181 -0.128127 -0.28231 -0.00134901 -0.00304966 -0.0540556 -2.12538e-05 -0.000782065 -0.0126075 -1.20309e-05 -1.93805e-06 -8.57576e-06 
26.982 1 88 2.30175 10.3843 2.82009 -1.00993 2.97935 1.54119 -0.244629 -0.170217 -0.45042 -0.142334 -0.0357516 -0.548848 -0.0212438 0.000177299 -0.0961079 1.4128e-06 -5.41318e-06 -2.38008e-05 
26.982 1 627 26.7439 0.618284 14.3572 -1.03255 1.40176 -0.934585 0.704459 -0.0748395 -0.0583239 -0.0903043 -0.372498 -0.546781 -0.00627009 -0.0454672 -0.10739 1.50148e-05 -5.63889e-05 -1.16969e-07 
26.982 1 289 6.75969 8.51853 4.51738 -1.80229 -0.963073 -3.25692 0.114848 -0.30409 0.563733 0.00364794 0.000789878 -0.0591747 0.000501808 -0.000127482 -0.0116177 1.6751e-06 -3.69307e-07 4.15444e-06 
26.982 1 423 22.4885 0.603795 10.4608 -2.76858 -2.57618 1.75933 0.338671 -0.375596 -0.578261 0.0751925 -0.155744 -0.384429 0.00939591 -0.0272569 -0.0837037 -6.01872e-06 -6.36407e-05 -1.87038e-05 
26.982 1 52 6.78786 6.39801 2.64081 -2.75584 -5.48863 -0.301434 0.140583 0.120624 -0.10449 0.00593185 0.0200167 -0.492653 -0.00450347 -0.000175369 -0.104288 -1.115e-05 1.34279e-05 -3.77182e-05 
26.982 1 91 8.98442 8.29526 2.52013 5.73049 0.460359 2.17176 0.0155095 0.565422 0.296033 0.067032 0.0695137 -0.641426 0.00980735 0.0080555 -0.118026 -1.1597e-05 9.88154e-06 -1.87276e-05 
26.982 1 250 8.85877 6.42114 4.5873 1.5863 -3.86007 -4.24236 0.444913 0.0180094 -0.172576 0.00343669 0.00268304 -0.0513029 0.000770043 7.4331e-05 -0.0111463 7.68795e-06 1.76944e-06 -4.35207e-06 
26.982 1 290 9.03054 10.3783 4.39809 2.13825 0.00350252 0.928694 0.0256517 -0.245365 0.105238 0.00599287 0.00270309 -0.0769416 0.00120687 0.000369843 -0.0139268 -1.04557e-06 -5.10079e-06 1.01771e-06 
26.982 1 90 9.00648 10.4987 0.71466 1.18749 3.46426 5.74959 0.0248627 -0.342625 -0.103596 0.0577 -0.0205756 -0.627103 0.0117431 -0.0020992 -0.131623 5.27569e-07 1.91732e-06 -5.77137e-05 
26.982 1 293 11.1912 8.23827 4.44246 -1.72315 -1.89171 1.20524 0.166971 0.133941 0.182639 0.000372441 0.0073012 -0.0801042 0.000639732 0.00119304 -0.0151661 4.71218e-06 3.23975e-06 -2.78099e-06 
26.982 1 56 11.2655 6.48609 2.42332 -1.76437 -2.6192 0.384962 0.293926 -0.128221 0.259948 0.0361115 0.0863759 -0.596044 0.00880996 0.00864636 -0.119103 1.8153e-05 -3.7333e-06 -1.36184e-05 
26.982 1 95 13.5047 8.39082 2.63102 -1.00286 -2.14668 -2.80134 0.036852 -0.135953 -0.0516802 -0.0341861 0.0559557 -0.712433 0.00144237 0.00853428 -0.143521 1.11716e-06 -1.38804e-05 -2.28708e-05 
26.982 1 254 13.6544 6.44694 4.78051 -2.10448 -4.0382 1.37733 -0.592054 -0.217746 -0.464258 0.00145124 0.000194317 -0.0674626 0.000378334 7.63411e-07 -0.0152827 -9.78058e-06 -1.90625e-06 -1.36504e-05 
26.982 1 294 13.842 10.3602 4.48665 4.21967 -5.78017 -0.0635044 -0.423007 -0.324097 0.079284 0.000686286 0.00622562 -0.0878843 0.000216747 0.000478532 -0.0178156 -8.74878e-06 -5.93179e-06 -1.99498e-06 
26.982 1 100 15.9769 10.4548 2.42586 -2.97027 -2.27675 -3.08648 -0.390634 -0.488248 0.597551 0.000960328 0.054264 -0.760471 -0.00229613 0.000430176 -0.146888 8.05858e-06 1.27175e-05 -3.23226e-05 
26.982 1 93 11.2973 8.51675 0.523549 4.36139 -1.38288 -1.27232 -0.0138131 0.0649082 -0.167866 0.100232 0.0365715 -0.494591 0.022226 0.0015746 -0.118539 1.07061e-05 -2.66593e-06 -6.12729e-05 
26.982 1 60 15.8802 6.44589 2.44973 4.20247 -0.964827 -5.58516 -0.140063 0.0836313 0.41589 -0.019494 0.0383684 -0.589108 -0.00378795 0.00311101 -0.132162 -1.54566e-05 -1.61369e-05 -3.15503e-05 
26.982 1 297 15.7439 8.25073 4.5197 -3.16404 1.7703 3.25544 0.234325 0.724579 -0.0992691 0.00027611 0.00613041 -0.0777468 -3.18206e-05 0.0010274 -0.0170946 3.13283e-06 1.23047e-05 -5.11658e-06 
26.982 1 99 17.9546 8.48403 2.4913 0.612925 0.630151 -2.20703 0.325707 -0.135174 0.490845 -0.0373051 0.0684236 -0.619558 -0.00584921 0.00908768 -0.131341 1.99838e-05 1.58156e-05 -2.63274e-05 
26.982 1 258 18.0181 6.5642 4.563 0.601089 2.60801 -1.90436 0.0857076 -0.0532641 -0.130383 0.00103196 0.00285901 -0.0614762 0.000184608 0.000340709 -0.0145268 1.01642e-06 4.64023e-06 -3.38902e-06 
26.982 1 64 20.2942 6.47862 2.83306 -3.37073 6.53985 -1.37504 0.191752 0.451251 -0.347221 0.0464132 -0.0307405 -0.592898 0.00646076 -0.00292273 -0.127353 7.96673e-06 2.24666e-05 -3.25822e-05 
26.982 1 104 20.2621 10.3498 2.74539 -0.176355 -1.2184 0.887466 0.0586295 -0.0895153 -0.243522 0.0272469 0.0723167 -0.721022 0.000590043 0.00686196 -0.141289 -1.02487e-05 -1.24546e-05 -3.31993e-05 
26.982 1 301 20.3549 8.45688 4.83891 -4.8513 -1.32057 2.01265 -0.213948 -0.0311757 -0.603291 0.00194999 0.0043767 -0.0685919 -0.000131576 0.00040309 -0.0156724 -5.09008e-06 -3.67924e-07 -1.3362e-05 
26.982 1 103 22.5549 8.39275 2.53311 -0.125126 -2.31591 7.4393 -0.0760862 -0.16459 -0.00808584 0.0336867 0.0497606 -0.689614 0.00329636 0.00298767 -0.136306 -7.81876e-06 -6.00153e-06 -3.61305e-05 
26.982 1 262 22.6331 6.59021 4.61535 -3.45065 1.84585 -1.36078 -0.376739 -0.504464 -0.0108763 0.00276743 -0.00131658 -0.0760898 0.000250846 -0.000951458 -0.0165644 -6.34333e-06 -9.56754e-06 -2.28337e-06 
26.982 1 621 20.321 0.719798 12.2655 -2.70723 1.57903 -0.0731648 -0.293717 -0.418409 0.313328 0.00680599 -0.468131 -0.396964 -0.00416379 -0.0854468 -0.0745668 -2.04465e-05 -4.94451e-05 -2.47998e-05 
26.982 1 305 24.6752 8.48335 4.41501 1.06301 0.125273 -2.52767 0.530934 0.167595 0.433866 0.000137358 0.00111526 -0.079845 0.000481833 -0.000182729 -0.0170936 1.4624e-05 -1.86322e-06 -1.73342e-06 
26.982 1 68 24.8107 6.49877 2.70863 -1.43289 1.12956 -2.1389 0.187768 -0.1961 -0.540727 0.0310118 -0.025694 -0.720094 0.0088688 -0.00934026 -0.151308 1.35597e-05 1.0574e-05 -4.31234e-05 
26.982 1 107 27.1427 8.60175 2.59433 -0.647944 -1.92636 -1.82219 -0.648137 -0.257529 0.0960729 0.0870627 -0.0811814 -0.741816 0.0135987 -0.0132457 -0.154384 -7.1539e-06 -2.19662e-05 -3.84681e-05 
26.982 1 266 27.2036 6.48396 4.50685 -0.940892 1.66566 -3.46233 -0.0406619 0.288493 0.349346 0.00198137 0.00178951 -0.0925263 0.00039665 -0.000163494 -0.0206118 5.85218e-07 4.26524e-06 6.6573e-07 
26.982 1 306 26.7309 10.7075 4.50285 7.87115 -3.96403 -1.48234 0.618955 -1.11852 -0.0986729 -0.000118959 -0.00321792 -0.0721935 0.00034112 -0.000550571 -0.0169532 1.27805e-05 -1.82864e-05 -4.28936e-06 
26.982 1 72 29.3853 6.45633 2.54075 -1.90947 -3.50657 -1.11934 -0.407771 -0.0535219 0.606409 -0.0438914 0.0414173 -0.821729 -0.00583454 -0.00228399 -0.174905 -2.12562e-05 -4.40829e-06 -3.90229e-05 
26.982 1 309 29.2255 8.63006 4.37136 4.33025 2.02301 -1.6935 0.0519142 -0.408506 0.576837 -0.00291151 -0.00288912 -0.0964777 -0.000463262 -0.000766304 -0.0202895 -2.50465e-06 -7.61959e-06 5.04384e-06 
26.982 1 112 29.2103 10.4262 2.36619 -3.55125 3.22009 -2.8468 0.178053 0.195801 0.177376 -0.0523338 -0.109651 -0.613658 -0.0106531 -0.0132029 -0.136221 1.41127e-05 7.48699e-06 -5.23816e-05 
26.982 1 111 31.4178 8.52427 2.37906 2.92929 2.39218 0.0921017 0.447951 -0.0879393 -0.00588199 -0.0661849 -0.0968002 -0.673914 -0.0112146 -0.0190146 -0.141281 -4.91463e-06 1.31418e-05 -3.77742e-05 
26.982 1 270 31.6247 6.48265 4.43182 -3.32621 0.72026 -0.860649 -0.185542 0.0552285 -0.700748 -0.0031599 0.00341665 -0.0824891 -0.00106256 0.000244944 -0.0189804 -6.29488e-06 4.17603e-06 -1.4175e-05 
26.982 1 623 22.574 0.662998 14.213 -0.833033 0.987065 -2.29932 0.00974056 -0.462038 -0.212065 -0.0151577 0.0201861 -0.502118 0.00401185 -0.0418984 -0.0809107 -1.79934e-06 -6.39063e-05 -4.21499e-06 
26.982 1 313 33.8612 8.50207 4.29277 0.903782 1.93199 4.20561 -0.166206 -0.765354 0.781295 -0.000833505 -0.000647772 -0.0737118 -0.000754593 -0.000493095 -0.0154621 -3.80856e-07 -7.05459e-06 5.04485e-06 
26.982 1 76 33.6951 6.36251 2.49477 1.56503 6.15146 7.48602 0.297946 0.270185 -0.0345787 0.0140721 0.0414011 -0.661749 -0.003028 0.00623722 -0.136594 1.46592e-05 5.96993e-06 -2.12345e-05 
26.982 1 116 33.8061 10.3248 2.57054 -5.62036 0.564803 -4.78071 -0.024087 0.524467 -0.641772 0.0695389 0.0426094 -0.642966 0.0058422 0.00399388 -0.126436 -1.09049e-05 3.24661e-06 -2.65486e-05 
26.982 1 115 36.1475 8.31733 2.54651 2.82395 2.64577 -3.65272 -0.26155 0.284932 -0.455074 -0.115458 -0.0259418 -0.579485 -0.0187455 -0.00807392 -0.116871 4.71199e-06 -1.19599e-05 -4.41475e-05 
26.982 1 274 36.0561 6.43774 4.47616 2.7533 3.47781 -4.63832 -0.0873055 -0.2843 -0.225988 0.00257074 -0.00537019 -0.0743193 2.23595e-05 -0.000854969 -0.0154835 -1.70669e-06 -5.31467e-06 -8.18934e-06 
26.982 1 314 36.1907 10.353 4.37888 2.49402 2.3676 10.2416 -0.520774 -0.19787 0.155927 -0.00189421 0.00368972 -0.0716685 -0.000235382 0.000601118 -0.013632 -8.35494e-06 -5.87576e-06 2.60186e-06 
26.982 1 80 38.4258 6.47433 2.43704 -4.65201 -3.42028 -2.84034 -0.267185 -0.117542 0.279243 0.00241674 -0.203279 -0.632783 0.00559574 -0.0272339 -0.125589 4.69086e-06 1.28417e-05 -4.41539e-05 
26.982 1 411 9.02462 0.471195 10.5613 -1.07014 1.91871 -3.16771 0.285858 0.367123 0.0778204 0.0779295 0.0879298 -0.541159 0.00743218 -0.000150435 -0.0963213 -1.16148e-05 -6.07822e-05 -1.35971e-05 
26.982 1 114 36.2372 10.3581 0.542169 3.11633 3.91754 0.151841 -0.765915 -0.350045 0.187275 -0.0441358 0.0651906 -0.741945 -0.00393514 0.00597033 -0.146244 4.65368e-06 -2.59182e-05 -5.98623e-05 
26.982 1 317 38.2279 8.29015 4.36317 2.49506 -2.11199 0.723454 0.156957 0.458642 0.402354 0.00262229 -0.00334093 -0.0503317 0.000692391 -0.000969801 -0.0108231 2.38395e-06 5.95448e-06 -1.35897e-06 
26.982 1 119 40.6198 8.43844 2.7686 -0.386811 0.0275224 1.76444 -0.0687449 0.0170014 -0.534625 0.138875 0.0468815 -0.63943 0.0214466 -0.00731485 -0.126978 -9.6488e-06 -1.20214e-05 -3.5031e-05 
26.982 1 278 40.6161 6.34162 4.46282 5.7577 -3.9139 0.490601 -0.131853 -0.0292258 -0.0284653 0.17997 -0.178598 -0.0916519 0.0300576 -0.0293379 -0.0200747 2.55755e-06 -5.46088e-07 -8.2354e-06 
26.982 1 118 40.5876 10.3656 0.584422 4.33347 6.32258 -2.19456 0.0616486 -0.242279 0.465973 0.144503 -0.0163301 -0.403385 0.0196312 -0.00154822 -0.111957 4.72011e-07 -2.04186e-05 -5.77053e-05 
26.982 1 81 -2.17306 8.45579 0.714699 -2.21763 0.828628 -3.4476 -0.125254 -0.246356 -0.289832 -0.240255 -0.174881 -0.556293 -0.0358075 -0.0372161 -0.115106 -1.61192e-05 -2.80683e-05 -4.65307e-05 
26.982 1 282 0.0703841 10.362 4.65824 -0.0957502 0.0745747 -1.7259 0.0900143 0.589131 -0.20431 -0.442663 -0.00195998 -0.196604 -0.0791307 0.00412457 -0.0362291 -3.08175e-05 -2.21293e-06 -1.67451e-05 
26.982 1 123 0.0831464 12.3573 2.40539 0.526349 -1.45378 1.84796 -0.082283 0.197358 0.664663 -0.498293 -0.152583 -0.618675 -0.0910369 -0.0195247 -0.11563 -3.41097e-05 -1.00559e-05 -1.38838e-05 
26.982 1 322 -0.223763 14.4518 4.30985 8.02682 -1.45379 3.83945 0.394499 -0.271666 0.050704 -0.303722 -0.118935 -0.153995 -0.0550537 -0.0210901 -0.027817 -3.40667e-06 -9.59349e-06 -6.29382e-06 
26.982 1 124 -2.41788 14.4541 2.42404 1.42195 -1.15271 -1.19624 0.0542085 0.213971 0.295079 -0.711344 -0.253369 -0.617999 -0.145906 -0.0419438 -0.120403 -4.90279e-05 -8.25445e-06 -3.69474e-05 
26.982 1 325 2.06271 12.4631 4.59112 1.16004 0.14996 -1.78477 0.0580079 -0.118177 -0.302499 -0.0448969 -0.00490598 -0.0567886 -0.00791589 -0.000501205 -0.0111986 -3.16879e-06 -3.83938e-07 -7.67101e-06 
26.982 1 82 0.0742337 10.3902 0.614246 1.22774 -3.81435 -1.87513 0.431283 -0.265212 -0.20548 -0.524614 0.142868 -0.565332 -0.0956435 0.0218662 -0.129309 -2.13026e-05 3.2102e-06 -4.90295e-05 
26.982 1 603 0.0251155 0.6668 14.3862 -1.71139 1.98285 -2.30926 0.12164 0.00346 0.00684182 -0.579777 -0.633991 -0.119611 -0.0973213 -0.128881 -0.0308729 -3.1824e-05 -4.66373e-05 -8.37838e-06 
26.982 1 126 4.35679 14.4199 0.59534 4.86488 2.81959 -3.91307 0.438321 -0.509052 -0.161187 0.0446955 0.0147155 -0.891691 -0.00272965 0.00132743 -0.188817 7.53578e-06 -1.47274e-05 -6.15212e-05 
26.982 1 128 2.1556 14.4748 2.63662 -0.37371 4.44191 0.312896 0.178379 -0.446156 0.112649 -0.0786574 0.0589664 -0.537128 -0.0197165 0.0118018 -0.106497 3.99948e-06 -8.72805e-06 -6.72201e-06 
26.982 1 286 4.36951 10.4519 4.72709 4.10156 4.31329 0.941263 0.289562 -0.541784 -0.218717 -0.000825341 0.00180008 -0.047302 -0.000154776 0.000308324 -0.00917195 5.45612e-06 -9.27534e-06 -4.99552e-06 
26.982 1 127 4.42333 12.2073 2.68339 -0.563747 2.97129 -4.89442 0.271751 0.395656 -0.306596 0.0096039 0.00821074 -0.450484 0.000683714 -0.00189972 -0.0844302 6.55542e-06 -3.70523e-06 -2.61681e-05 
26.982 1 326 4.39924 14.4158 4.60045 0.0908299 4.25665 1.19574 0.099027 -0.051581 -0.212537 -0.000838904 0.000521288 -0.0484175 -0.000572184 0.000103036 -0.00848979 2.45998e-06 1.65564e-07 -1.6622e-06 
26.982 1 329 6.76993 12.4952 4.53788 2.10469 -4.19172 -3.57885 -0.360346 -0.0984042 0.117607 0.00259981 -0.000548138 -0.054154 0.000492043 -0.000304081 -0.0102476 -6.91857e-06 -2.49572e-06 4.73013e-07 
26.982 1 132 6.57547 14.3003 2.48498 -0.347167 0.869386 5.01005 0.141137 0.132472 0.334284 0.0467309 0.00884123 -0.522239 0.0114347 -0.00432604 -0.0914149 1.15245e-05 2.33649e-07 -1.33913e-05 
26.982 1 129 6.83672 12.3684 0.668906 -3.94161 -0.482272 3.87838 -0.305198 -0.181489 -0.326874 0.0666826 0.0276241 -0.900379 0.0120145 0.00490271 -0.173567 -5.4129e-06 -4.55763e-06 -6.36989e-05 
26.982 1 92 6.74073 10.3658 2.65648 -1.41943 -0.786978 -1.55646 0.075858 0.33707 -0.468269 0.0724082 -0.0209191 -0.54874 0.0118543 -0.00322517 -0.101425 -9.52579e-06 -7.95321e-06 -3.7059e-05 
26.982 1 131 8.85026 12.564 2.65265 -4.62054 -3.7566 -2.89052 0.317077 -0.216011 -0.261382 0.0657619 -0.0189814 -0.628126 0.0122037 -0.00195242 -0.118954 1.58059e-05 7.62458e-06 -3.57122e-05 
26.982 1 330 9.03608 14.4048 4.62925 0.648889 0.557371 0.130871 -0.278939 0.125562 -0.370273 0.00318667 0.000414123 -0.0671844 0.00110982 -7.72187e-05 -0.0127403 -6.04602e-06 1.73442e-06 -9.146e-06 
26.982 1 2601 -2.29656 20.1637 12.4437 4.01499 2.25153 6.41005 0.340701 0.315304 0.13515 -0.381401 0.139195 -0.739063 -0.0700287 -0.00206959 -0.134816 -3.7632e-05 -4.16745e-07 -5.17781e-05 
26.982 1 96 11.3301 10.4519 2.46481 -1.88632 -1.97645 -1.07988 -0.192088 -0.225562 0.184752 0.0197376 -0.0222211 -0.744162 0.00842663 -0.000337306 -0.138305 -4.0802e-06 1.06507e-05 -2.01807e-05 
26.982 1 2431 31.3961 20.3608 10.3109 3.57173 -2.3233 -0.50381 0.0880407 -0.0572057 0.407217 -0.263675 0.210721 -0.497896 -0.0461853 0.017858 -0.107924 2.85479e-05 2.95418e-05 -2.82818e-05 
26.982 1 2629 29.3142 20.1355 12.3405 -4.35854 2.86353 -0.308264 -0.0941864 0.146471 0.0329953 -0.287774 -0.192592 -0.639274 -0.0433257 -0.0427429 -0.109888 -3.2099e-07 1.43455e-06 -3.35822e-06 
26.982 1 333 11.1556 12.2831 4.482 -1.71513 1.32794 0.338379 0.148989 0.254646 0.0745215 0.00241034 -0.0025167 -0.0795454 0.000473924 -0.000705285 -0.0152964 4.74941e-06 1.17904e-06 -4.63047e-06 
26.982 1 136 11.1362 14.4001 2.65336 3.5251 4.17979 -2.96446 0.29044 -0.0603484 -0.219861 -0.0191851 -0.00738394 -0.654631 -0.00283067 -0.00179948 -0.124825 -3.18983e-06 -1.3943e-05 -3.84518e-05 
26.982 1 135 13.4333 12.2826 2.66141 -0.0318319 -1.27269 -3.52195 -0.057303 0.669935 -0.270641 0.0369745 -0.0676491 -0.711541 0.00310835 -0.0155533 -0.136051 -1.44722e-06 1.2042e-05 -3.01991e-05 
26.982 1 334 13.56 14.5213 4.54407 4.00176 -1.93582 -2.49977 -0.295716 -0.40797 -0.461398 -0.000269293 -0.0037843 -0.07027 0.000279322 -0.000416176 -0.0141794 -4.25169e-06 -9.33686e-06 -1.28368e-05 
26.982 1 337 15.6888 12.4496 4.38245 2.63956 2.41055 -1.21711 0.42291 0.0415312 0.419162 0.00105719 -0.000824234 -0.0930195 0.00016477 -0.000238712 -0.0172364 9.74865e-06 1.70191e-06 -1.17476e-06 