ITEM: TIMESTEP
2000
ITEM: NUMBER OF ATOMS
4000
ITEM: BOX BOUNDS pp pp pp
-0.48068 40.9807
0.0733891 40.4266
0.0685253 40.4315
ITEM: ATOMS mass type id x y z vx vy vz fx fy fz xrad yrad zrad vxrad vyrad vzrad fxrad fyrad fzrad 
26.982 1 811 9.96441 0.0984832 18.244 0.592808 -0.0899876 -1.80643 -0.199645 -0.586643 0.263833 -0.00325394 -0.0023959 -0.024087 -0.00563672 -0.0161285 -0.0187747 -1.77794e-05 -6.59129e-05 -1.04253e-05 
26.982 1 3 1.60851 -0.000158036 1.91262 3.73574 -2.52818 2.81255 0.466463 0.0734194 0.192511 -0.0127404 -0.0306143 -0.00556127 -0.0150237 -0.0281406 -0.00581062 -2.583e-05 -2.95015e-05 -7.64306e-06 
26.982 1 8 3.58684 2.10029 2.1171 -3.09009 1.09905 -0.564574 0.234889 0.0257324 -0.127867 0.00621666 -0.0240696 -0.0150608 0.00600705 -0.0239214 -0.0150537 7.33204e-06 -3.5784e-05 -2.50304e-05 
26.982 1 807 5.63709 0.00993178 18.2508 -4.28103 3.41261 1.25632 0.189197 0.165222 -0.245985 -0.00111357 -0.0030328 -0.02172 -0.0009951 -0.0166888 -0.0142731 6.72534e-07 -5.86241e-05 4.46505e-06 
26.982 1 43 1.73159 4.08474 2.10715 -0.493366 -2.74607 -6.91939 -0.38704 0.535314 -0.0671542 -0.00840817 -0.0116134 -0.0193248 -0.0128211 -0.0113977 -0.0244053 -3.72638e-05 -5.11626e-06 -4.62418e-05 
26.982 1 202 1.45425 2.13484 4.00044 -7.61711 5.68713 -3.50097 0.4484 -0.130604 0.135258 -0.0120971 -0.0231119 -0.0129665 -0.0122365 -0.0228455 -0.0135918 -1.70602e-05 -3.32571e-05 -2.60037e-05 
26.982 1 241 -0.536676 4.18522 4.03172 4.19031 0.931574 1.42016 0.230922 0.196754 0.0585284 -0.0216905 -0.0224109 -0.0215892 -0.0215401 -0.0224961 -0.0225236 -2.81396e-05 -2.70031e-05 -3.24825e-05 
26.982 1 245 3.68354 4.19428 4.12789 2.01709 -0.643166 3.96974 -0.239711 -0.0952452 0.169363 -0.000493775 -0.00367268 -0.0030889 -0.000624574 -0.00366303 -0.00289983 -4.80833e-06 -4.18545e-06 1.55524e-06 
26.982 1 2825 24.4935 20.3537 16.4044 -3.53287 5.89599 2.98751 -0.626047 -0.359551 -0.381006 -0.0115371 -0.0112277 -0.029297 -0.0109952 0.00208534 -0.0264243 -1.46225e-05 3.48805e-05 -3.0444e-05 
26.982 1 2819 18.2194 20.1021 18.3123 -2.72075 -0.344635 -2.11615 -0.0201815 0.739307 -0.204939 -0.0135033 -0.0209794 -0.02059 -0.0162156 -0.00732218 -0.0203055 -2.71176e-05 3.84598e-05 -2.38993e-05 
26.982 1 12 7.70314 2.05466 1.98489 -1.49825 -3.16231 -0.910985 0.183384 0.0978326 0.390193 -0.00331557 -0.02627 -0.0103337 -0.00501926 -0.0284125 -0.0149326 -7.42233e-06 -4.90371e-05 -3.265e-05 
26.982 1 47 5.78762 4.11182 2.22464 -2.27227 -1.75508 1.015 -0.237095 0.374848 -0.899358 -0.00747823 -0.0059401 -0.0150472 -0.00508278 -0.00788701 -0.0155492 -3.53464e-06 -5.50106e-06 -3.28327e-05 
26.982 1 49 7.9112 3.95352 -0.00373385 -1.96465 2.72179 -0.136955 -0.545833 0.415443 0.108796 -0.00130947 -0.00146136 -0.04437 -0.000786274 -0.00122703 -0.0443098 -8.44908e-06 4.65431e-06 -6.21864e-05 
26.982 1 206 5.67741 2.09954 3.91965 -5.26379 -1.1633 -1.52976 -0.0438421 -0.154558 0.896883 -0.00917846 -0.0233832 -0.0121352 -0.00908214 -0.0234185 -0.012618 -1.52028e-05 -3.89268e-05 -5.67633e-06 
26.982 1 209 7.67706 0.13218 4.06729 -0.505972 0.00831702 -1.58488 0.463126 -0.221417 0.0403563 -0.00186082 -0.0327142 -0.0313897 -0.00121327 -0.0327617 -0.0319435 3.09205e-06 -4.62909e-05 -4.27169e-05 
26.982 1 249 7.63097 4.01886 4.21508 1.99832 2.68232 -0.617535 0.585303 0.019421 0.0571996 -0.000268101 -0.00137285 -0.00100106 -0.000139239 -0.0014231 -0.0013771 8.60301e-06 -2.31416e-06 1.0549e-06 
26.982 1 10 10.0382 2.04642 -0.0147518 -3.86724 1.89284 2.22913 -0.392823 0.116558 0.0947707 0.00660823 -0.0227127 -0.0342318 0.00131454 -0.0222032 -0.0339474 -1.45063e-05 -3.2548e-05 -4.62177e-05 
26.982 1 16 11.9299 2.21034 2.09259 -2.10298 -1.10715 -1.04394 0.230533 -0.32001 0.074485 0.0102575 -0.0331407 -0.0192136 0.00962099 -0.0330322 -0.0143914 1.51549e-05 -4.74172e-05 -7.96191e-06 
26.982 1 51 9.69347 3.94105 2.04351 1.41355 5.12211 -0.0234574 0.330121 0.3251 0.181973 0.000733042 -0.000869595 -0.00891919 0.000459964 0.00143419 -0.011381 2.1156e-06 8.80833e-06 -1.65336e-05 
26.982 1 53 11.8991 4.06051 -0.00236754 -0.0795093 2.17235 -1.19473 -0.176194 0.539004 0.111724 0.00691606 -0.00816538 -0.0443294 0.00443554 -0.00500661 -0.0443367 5.16967e-06 8.16237e-06 -5.87447e-05 
26.982 1 210 9.95548 1.98312 4.16078 0.98339 -0.59586 2.04207 -0.586813 -0.125693 -0.120138 0.00272574 -0.0163846 -0.0113904 0.00477117 -0.0187699 -0.0114773 1.78148e-06 -3.87173e-05 -2.13553e-05 
26.982 1 1197 36.8449 16.2921 20.3279 0.390868 -3.97034 -1.6424 -0.244012 -0.356486 -0.248703 -0.0121326 -0.00389965 0.0100373 -0.0149845 -0.00609554 0.00985587 -3.60117e-05 -1.73433e-05 1.04061e-05 
26.982 1 253 11.725 4.1148 4.11511 -0.61495 0.227109 0.961626 0.974357 -0.193335 -0.128305 0.000324263 -0.00236912 -0.00133146 0.000228091 -0.00281002 -0.00144089 1.18713e-05 -5.97641e-06 -4.40757e-06 
26.982 1 20 16.0287 2.27094 2.33536 -2.53544 2.84417 -1.30085 0.387655 -0.834865 -0.766861 -0.0163675 -0.0333729 -0.012453 -0.0139541 -0.03339 -0.0100223 -6.00166e-06 -5.84405e-05 -1.91606e-05 
26.982 1 55 14.0378 4.09413 2.14885 1.70443 1.18609 2.66299 -0.490589 0.254117 -0.190774 -0.000233182 -0.0133643 -0.0151176 -0.00040072 -0.0131911 -0.0151361 -9.5256e-06 -1.23837e-05 -2.57402e-05 
26.982 1 57 16.0447 4.05665 0.169086 -0.384456 0.218047 -3.32572 -0.0277415 0.309959 -0.217853 -0.00947877 -0.0117927 -0.0443584 -0.00943018 -0.0113036 -0.0443496 -1.40845e-05 -1.03456e-05 -6.47735e-05 
26.982 1 214 14.0714 2.1994 4.10814 2.15907 0.654779 -0.556375 -0.602858 -0.48692 0.323577 0.0063626 -0.0259703 -0.0139956 0.00430892 -0.0280908 -0.0137024 -1.02024e-05 -5.37904e-05 -1.36544e-05 
26.982 1 257 16.1363 4.09431 4.22338 -3.2026 0.43615 0.616428 0.098227 0.502572 -0.108656 -0.000482855 -0.00394607 -0.00106181 -0.000567617 -0.00402983 -0.00113342 5.00152e-06 3.9995e-06 -5.61049e-06 
26.982 1 218 18.075 1.99507 4.3916 -3.50108 -1.60775 0.722646 0.464401 0.236802 -0.614154 -0.00282849 -0.0232809 -0.00417633 -0.00513231 -0.0234955 -0.00644338 -6.66166e-06 -3.34219e-05 -2.61853e-05 
26.982 1 18 18.0177 2.0319 0.192011 -3.35895 -0.326245 2.64855 0.219463 -0.133407 0.00819051 -0.00727137 -0.0168063 -0.0402683 -0.00269548 -0.0188825 -0.0381135 7.91129e-06 -3.50861e-05 -4.80638e-05 
26.982 1 819 18.2838 0.0253826 18.2155 3.75043 5.94211 3.21237 0.0175582 -0.347806 -0.0500128 0.00120719 -0.00246104 -0.0172793 -0.00561468 -0.0160329 -0.0120545 -2.62072e-05 -6.75639e-05 -4.23151e-06 
26.982 1 2813 12.0056 20.3319 16.0231 5.99685 -1.1142 -4.14298 0.282931 -0.7051 0.970156 -0.00522676 -0.00579947 -0.012015 -0.00722444 0.00255965 -0.012662 -1.39903e-05 2.53219e-05 -9.59429e-06 
26.982 1 22 22.3611 2.00254 0.0304514 -2.58842 -4.62568 -1.93155 -0.261881 -0.0997711 0.546169 -0.0018505 -0.0128444 -0.0364132 -0.00369709 -0.012232 -0.0390446 -1.30688e-05 -1.49148e-05 -5.27212e-05 
26.982 1 24 20.0687 1.93674 2.17943 2.08824 5.16907 -4.27851 0.575511 0.231663 0.0959376 0.0037904 -0.0236407 -0.00062705 -0.000644708 -0.0236104 -0.00545168 -4.64428e-06 -3.2247e-05 -1.93665e-05 
26.982 1 59 18.1756 3.94209 2.10763 2.33633 2.10553 -1.14356 8.16182e-05 0.550656 0.325175 -0.000364577 -0.00241457 -0.00589362 -0.00029984 -0.00290772 -0.00595204 2.021e-06 3.09472e-06 -4.15988e-06 
26.982 1 61 20.2149 4.00143 0.0130378 -1.95945 0.0559962 -2.22527 0.174538 0.208783 0.376773 0.00232118 0.00267913 -0.0444467 0.00459754 0.00382361 -0.044551 1.49172e-05 1.88138e-07 -5.8101e-05 
26.982 1 63 22.2711 3.97958 2.02847 3.45767 2.38991 2.65802 -0.180258 -0.109693 0.384354 5.32793e-05 0.000526328 -0.00837006 0.000327553 0.00333576 -0.0108534 -3.96851e-06 9.51651e-06 -1.96104e-05 
26.982 1 222 22.3551 2.20876 4.2077 1.12671 -0.690949 1.93894 -0.210012 -0.767079 -0.630023 -0.00711298 -0.0183966 -0.00807148 -0.00500067 -0.0138658 -0.00598416 -3.35319e-06 -1.41943e-05 -1.38312e-05 
26.982 1 261 20.1266 4.0967 4.29354 3.19856 -1.85283 -1.71186 -0.0131156 -0.189143 -0.666403 0.000114731 -0.00260305 -0.000672709 0.000124652 -0.00200646 -0.000832287 -3.67518e-07 -4.28009e-06 -1.55335e-05 
26.982 1 25 24.412 0.151956 0.233341 -3.35049 -1.7398 -2.29156 -0.100036 -0.437824 -0.452607 -0.00286528 -0.0308105 -0.0257182 0.00113856 -0.028476 -0.0280282 1.3097e-05 -3.67664e-05 -4.9589e-05 
26.982 1 635 34.6866 0.107769 13.9872 2.52417 -0.986921 -3.21629 -0.0458372 -0.0168789 0.281476 0.00523756 -0.00226392 -0.0258566 0.0104712 -0.0161051 -0.0187044 3.14692e-05 -6.54796e-05 4.97992e-07 
26.982 1 27 26.4404 0.116059 2.2005 -3.78673 3.20201 0.572024 0.304977 -0.658803 -0.228795 0.0184028 -0.0408302 -0.00775709 0.0184121 -0.0383949 -0.0101379 3.13729e-05 -5.65227e-05 -2.02886e-05 
26.982 1 28 24.5711 1.96783 2.22202 -0.293844 -4.77909 -0.952049 -1.10865 0.721663 0.00167885 -0.00431127 -0.012427 -0.00759681 0.0003829 -0.00996541 -0.0101542 -3.62948e-06 2.84484e-06 -2.09769e-05 
26.982 1 65 24.4219 4.05263 0.262294 1.45919 -2.26812 -0.67335 -0.0567153 0.114376 -0.25519 0.00219716 0.00369552 -0.0444612 0.00452034 0.00564215 -0.0446247 1.20946e-05 1.22629e-05 -6.23138e-05 
26.982 1 67 26.4753 4.07954 2.18303 1.3458 1.39998 -2.57275 -0.029773 0.274481 0.197994 0.000413486 -0.000463948 -0.0108393 0.000428149 -0.000396614 -0.0156384 2.19602e-06 5.17437e-06 -2.79421e-05 
26.982 1 225 24.2236 0.0388185 4.17723 -2.45511 -3.00727 -2.86851 0.244694 0.00771009 0.160383 -0.00629831 -0.0329978 -0.0189812 -0.00345875 -0.0328535 -0.0170259 4.57952e-06 -4.39118e-05 -1.38879e-05 
26.982 1 226 26.454 2.06107 4.10442 4.66357 2.44096 8.40166 0.16712 0.283927 0.523409 0.00951056 -0.0142943 -0.00243286 0.00955309 -0.0139366 -0.00291761 1.48203e-05 -1.05928e-05 1.96428e-06 
26.982 1 265 24.1759 4.25312 4.18728 -0.354661 3.09882 -0.692594 0.684025 -0.488213 0.00456938 -0.000144357 -0.000842446 -0.000981731 0.000108331 -0.000480882 -0.00122453 1.15286e-05 -5.17852e-06 -2.99067e-06 
26.982 1 30 30.6096 2.29771 0.0107219 -0.902933 1.25645 -1.2281 0.0439536 -0.342779 0.430503 0.00132804 -0.029672 -0.036106 1.65907e-05 -0.0273051 -0.0385757 -4.27483e-06 -2.43339e-05 -5.60197e-05 
26.982 1 32 28.5436 2.01173 1.98763 3.3891 -1.17413 0.87867 0.478263 0.650382 0.815423 0.00562791 -0.0312075 -0.00784404 0.000677064 -0.0288383 -0.0102719 -3.86893e-06 -2.90267e-05 -1.86172e-05 
26.982 1 69 28.3542 4.22245 0.177827 -0.0172663 1.3615 1.93342 0.959344 0.116748 0.148629 -0.0037802 -0.000659602 -0.0443777 -0.0086189 -0.000466647 -0.0444711 -1.55308e-05 2.28701e-06 -5.6897e-05 
26.982 1 71 30.7235 4.20372 2.23612 -3.02096 1.60105 0.502346 -0.520868 -0.114424 -0.376418 0.000746833 -0.00302323 -0.00659019 -5.5413e-05 -0.00246362 -0.00658025 -1.37493e-05 -3.31864e-06 -1.36546e-05 
26.982 1 230 30.7047 1.96714 4.07793 3.77398 2.53747 2.6708 -0.352157 0.534312 0.116432 -0.00210766 -0.0279382 -0.00924572 -0.00448215 -0.0232261 -0.00686812 -2.18515e-05 -9.07635e-06 -1.31184e-06 
26.982 1 269 28.4649 4.10412 4.20347 5.56631 -0.323343 2.17392 0.10852 0.0091869 -0.480504 0.000230043 -0.00313067 -0.000853838 -7.85878e-05 -0.00291159 -0.0011039 2.12773e-06 -3.65963e-06 -1.28755e-05 
26.982 1 35 34.7943 0.311258 2.1592 -3.86021 5.76752 2.76488 0.158696 -0.803028 -0.324187 -0.00333126 -0.0354322 -0.0220988 0.0018863 -0.0377896 -0.0197083 2.02678e-05 -6.51496e-05 -2.32994e-05 
26.982 1 36 32.6957 2.16185 2.01598 -4.04981 4.79363 0.111174 -0.0547336 -0.0309923 -0.0142931 0.000268388 -0.0286559 -0.0154145 0.000327393 -0.0243637 -0.0154733 -3.53986e-06 -1.73415e-05 -2.3372e-05 
26.982 1 73 32.8504 4.28729 0.0975776 1.17055 0.760785 -2.13545 -0.481948 -0.557169 0.0712665 0.0155448 -0.00131444 -0.0442978 0.011107 -0.00176869 -0.0445893 -2.05289e-06 -1.05446e-05 -5.93263e-05 
26.982 1 75 34.7913 4.05651 2.22599 0.419146 -1.28618 -1.32941 0.123044 0.367312 -0.367424 0.00975415 -0.00183659 -0.0292478 0.0100544 -0.00186427 -0.0246693 1.47075e-05 5.71756e-06 -2.37248e-05 
26.982 1 234 34.7803 2.09561 4.15005 -1.64569 5.36659 -0.808996 0.125732 0.258235 0.178777 -0.00412008 -0.0138219 -0.00510279 0.000646853 -0.01379 -0.00445717 1.59367e-05 -1.43326e-05 -1.64956e-06 
26.982 1 273 32.735 4.10429 4.18634 -2.76172 4.32299 -0.769235 -0.234245 0.213241 -0.0280352 0.000434962 -0.00258739 -0.00158476 0.000379844 -0.0019019 -0.00131839 -6.35008e-06 2.05686e-06 -1.05625e-06 
26.982 1 4 41.1819 2.16386 1.93161 0.293272 -1.85829 -0.622511 -0.310937 0.0402425 0.0599604 -0.0162929 -0.0257931 -0.0198438 -0.0141826 -0.01867 -0.024485 -2.03774e-05 -3.30993e-07 -5.00041e-05 
26.982 1 40 36.9319 2.16528 2.06902 1.37197 -2.08264 0.583942 -0.0266212 -0.182914 -0.0872148 0.0113144 -0.0167046 -0.038353 0.0137599 -0.0188038 -0.0337818 2.41036e-05 -3.27791e-05 -3.6282e-05 
26.982 1 79 38.9303 4.05952 2.02204 1.37894 3.92448 -0.813301 -0.0262113 0.296303 0.212989 -0.00737498 -0.0108946 -0.0291797 -0.00464121 -0.00832054 -0.0339672 -1.12568e-06 -3.59934e-06 -5.98266e-05 
26.982 1 961 -0.271681 16.354 16.3229 2.7434 1.77356 -2.88414 -0.385297 -0.349853 -0.0518532 -0.00486517 -0.00343305 -0.00466951 -0.0106858 -0.00566204 -0.00764778 -3.27762e-05 -1.76365e-05 -1.90345e-05 
26.982 1 238 39.0417 2.12667 4.16478 1.20964 2.30063 6.12918 -0.317234 -0.000170477 -0.439329 0.00433715 -0.0226874 -0.0144284 -0.000139512 -0.0226245 -0.0145569 -1.53227e-05 -2.77134e-05 -2.84255e-05 
26.982 1 277 36.929 3.98854 4.18369 2.35198 -1.47514 0.965509 -0.16233 0.413587 -0.165683 0.000234566 -0.00149845 -0.0045977 0.000500131 -0.0021482 -0.0045015 -3.65952e-07 1.95746e-06 -1.0507e-05 
26.982 1 631 30.5941 0.246862 14.1566 -3.56876 -0.571856 2.83767 -0.0193643 -0.858023 -0.280735 0.00461444 -0.00215081 -0.021099 -0.000119329 -0.0160805 -0.0183468 -1.46456e-05 -6.99618e-05 -2.03218e-05 
26.982 1 48 3.65848 6.1703 2.09444 3.85235 2.85342 -3.09098 0.112448 -0.108536 0.0862399 -0.00569219 -0.00424372 -0.0175044 -0.00797332 0.00018917 -0.0203051 -1.38538e-05 1.28594e-05 -3.63401e-05 
26.982 1 627 26.5299 0.0142115 14.0116 -0.630482 4.0737 -0.955345 0.140019 0.379818 0.281985 -0.00747183 -0.00212844 -0.0233251 -0.0056512 -0.0160563 -0.0228557 -3.15326e-06 -5.67026e-05 -2.68005e-05 
26.982 1 83 1.45757 8.10083 2.21456 1.00905 1.801 -3.23713 0.255905 0.334766 -0.48901 -0.022243 -0.00215324 -0.0132606 -0.0223166 -0.00436033 -0.0205211 -3.23263e-05 -8.37998e-06 -5.23631e-05 
26.982 1 403 1.53816 0.0412025 10.0462 -0.144504 4.04517 -0.865636 0.134404 0.326347 0.281779 -0.0283758 -0.00764235 -0.00755506 -0.0265106 -0.0159123 -0.00271392 -3.06502e-05 -4.33787e-05 8.02251e-06 
26.982 1 242 1.61142 6.26467 4.11564 4.24292 -3.61925 0.658303 -0.00367079 -0.783842 0.143193 -0.0223236 0.00836364 -0.0119226 -0.0223468 0.00826743 -0.0128416 -3.26924e-05 -6.73712e-07 -1.53297e-05 
26.982 1 285 3.57817 8.23625 4.07652 1.54277 4.32446 -0.151326 0.143543 0.00825244 0.276086 -0.00345141 0.000171272 -0.00214142 -0.00336157 0.000223867 -0.0029657 -8.2062e-07 -4.03948e-07 -2.71192e-06 
26.982 1 46 5.75778 6.0407 -0.0182034 -0.303916 7.25468 -0.00384604 -0.0804925 0.254556 0.485896 -0.00711492 -0.0010132 -0.044802 -0.00490993 0.00448802 -0.044839 5.69266e-06 2.17532e-05 -5.4718e-05 
26.982 1 52 7.83763 6.07181 2.11311 -1.80808 -2.85731 -1.23714 -0.616074 -0.170847 -0.0363175 0.00224528 0.00322535 -0.0109334 0.00436685 0.00510197 -0.0155027 8.58723e-07 1.09981e-05 -3.66887e-05 
26.982 1 87 5.55278 8.20299 2.07777 3.73983 -0.517367 -2.43614 0.774131 -0.299079 0.187321 -0.000601664 0.00699485 -0.0178069 -0.000698598 0.00470627 -0.0201358 7.72863e-06 -8.21299e-06 -3.27699e-05 
26.982 1 603 1.41298 0.077099 14.2839 -5.99138 1.92198 2.97398 0.120597 -0.247968 -0.409055 -0.0269631 -0.0078718 -0.00984606 -0.0216224 -0.0164929 -0.00737168 -1.74611e-05 -4.57021e-05 -9.34112e-06 
26.982 1 246 5.66816 6.08445 4.27189 -0.22194 -3.07269 -6.42663 0.244007 0.392572 -0.239757 -9.61822e-05 -0.000115232 -0.00103982 1.20046e-06 -1.54117e-05 -0.0014657 5.25675e-06 7.54978e-06 -5.0149e-06 
26.982 1 289 7.81648 8.11873 4.01266 -1.09554 -1.4489 4.95415 -0.664807 -0.101252 0.396637 0.000139093 0.000247736 -0.00208467 0.000232407 -5.4566e-06 -0.00253456 -1.21026e-05 -3.74973e-06 -1.04027e-06 
26.982 1 92 7.8061 10.2088 2.046 0.732 -1.03687 -4.70237 -0.189328 -0.153447 -0.0939335 0.000598505 -0.00235542 -0.0222906 0.000327448 -0.00463236 -0.0204361 -4.47226e-06 -1.76581e-05 -2.55459e-05 
26.982 1 286 5.68508 10.3192 4.03435 1.50703 -1.04872 -3.01632 0.12934 -0.663173 0.232299 -0.000207555 0.000193085 -0.00260607 -0.000211688 0.000121495 -0.00243265 1.02807e-06 -1.2718e-05 -1.12295e-07 
26.982 1 1021 20.3491 0.0670022 20.2328 1.58611 2.55291 1.48886 0.0414704 -0.35508 0.0723555 0.00116863 -0.0105559 -0.000627996 0.00282929 -0.0215632 0.00216301 1.10147e-05 -6.97028e-05 8.76729e-06 
26.982 1 56 11.8171 5.9696 2.17907 -0.423536 1.83249 -7.56195 0.0391849 0.22092 -0.398282 -0.00231179 0.0100301 -0.0180116 -0.00463186 0.00965519 -0.0202145 -1.01762e-05 1.66394e-05 -3.7841e-05 
26.982 1 91 9.68638 8.04407 2.19342 -4.42031 7.78696 -2.71039 0.657495 0.0176855 -0.491094 0.00686281 0.00542981 -0.0270373 0.00458047 0.000639079 -0.0291889 1.09054e-05 -1.1373e-05 -5.36494e-05 
26.982 1 250 9.79152 5.95327 4.17341 4.15301 3.53478 6.47014 -0.131339 0.332715 -0.0992949 0.000411291 0.000244355 -0.00117466 0.000310319 0.000360581 -0.00182756 -3.45974e-06 4.1634e-06 -5.80806e-06 
26.982 1 293 11.8679 7.93044 4.21989 3.17699 2.00562 1.2921 0.00444598 0.027197 -0.42322 -0.00027354 0.000265785 -0.00330813 -0.000334214 0.000124606 -0.00324401 -9.97414e-07 -3.99873e-07 -1.2879e-05 
26.982 1 54 13.8792 6.21055 0.168377 -4.09579 -4.64968 0.189966 0.0134482 -0.177413 -0.147075 -0.00958045 0.00874879 -0.0451034 -0.0101419 0.0080239 -0.0450576 -1.69491e-05 8.7251e-06 -6.10248e-05 
26.982 1 60 15.9482 6.10427 2.04208 0.712062 2.49366 -1.75693 0.513579 -0.152452 0.0429692 -0.000270304 0.000887257 -0.00682596 -0.000429501 0.000574274 -0.00660491 1.05688e-05 -1.80923e-06 -1.08525e-05 
26.982 1 95 13.9001 8.1327 2.32316 0.260596 -0.29923 0.713154 -0.0714501 -0.135973 -0.491822 -0.0090192 0.00820503 -0.022639 -0.00925311 0.00535652 -0.02011 -1.49378e-05 -2.05564e-06 -2.5778e-05 
26.982 1 97 16.0268 8.17768 0.118209 7.79352 -2.33434 -0.129986 0.235266 -0.591935 -0.242363 -0.00075038 0.0157518 -0.0445984 -0.00103602 0.0104349 -0.0446218 2.71624e-06 -8.99127e-06 -6.06057e-05 
26.982 1 254 14.008 5.95486 4.22346 -2.69658 0.125865 1.9191 -0.272085 0.358615 -0.371855 -0.000124153 -4.29995e-05 -0.000838931 -0.000303652 -9.27397e-05 -0.000850156 -5.34586e-06 3.57761e-06 -7.00063e-06 
26.982 1 297 15.987 7.96778 4.0172 4.67459 2.84163 0.0199934 0.548276 0.329905 0.349317 1.76555e-05 0.000623101 -0.00145355 6.37092e-05 0.000330414 -0.0010985 1.30048e-05 3.84006e-06 2.36138e-06 
26.982 1 58 18.2959 5.97467 -0.00704811 1.86001 2.70491 -1.13934 -0.78065 0.333199 0.347874 0.00737314 0.00868919 -0.044924 0.00568969 0.00597304 -0.0449523 -8.73501e-06 3.44032e-06 -5.96089e-05 
26.982 1 2639 38.9113 20.2482 14.2661 -0.307973 -1.61529 1.50158 -0.163828 0.072229 -0.246888 0.0143461 -0.0153862 -0.0219015 0.0119475 -0.00647608 -0.0224979 6.52153e-06 1.63692e-05 -3.28415e-05 
26.982 1 64 20.1399 6.0239 2.07225 -0.796295 0.855158 -3.196 0.090892 -0.102928 0.366369 0.00275608 0.00810988 -0.0153267 0.00502461 0.00568602 -0.0152104 1.28993e-05 4.05773e-07 -1.22428e-05 
26.982 1 99 18.087 8.10188 1.97705 -0.990245 -0.499907 2.12919 0.172156 -0.173327 0.603033 0.0070102 0.00847294 -0.0201744 0.00492983 0.00561078 -0.0154706 5.66894e-06 -3.09115e-06 2.29247e-06 
26.982 1 103 22.207 7.97415 2.24604 3.87908 0.207649 3.01911 0.00482648 0.710645 -0.170486 -0.000110602 0.00847038 -0.0318801 0.000279967 0.00575817 -0.029537 7.92243e-07 8.19802e-06 -3.46205e-05 
26.982 1 258 18.2088 6.03768 4.17878 4.6762 -3.1093 -3.30404 -0.24506 0.480534 -0.320951 0.000297568 0.000568989 -0.000536436 0.000249761 0.000438544 -0.00048508 -1.95191e-06 1.10508e-05 -9.54679e-06 
26.982 1 262 22.2057 6.07593 4.16149 -1.2174 3.15391 -3.50867 -0.115247 -0.0743956 0.0701458 -0.000103619 0.000862068 -0.00173388 4.48273e-05 0.000717856 -0.00214874 -1.25335e-06 -1.15375e-06 -4.55526e-06 
26.982 1 301 20.254 8.14678 4.32292 -2.44505 -7.30446 2.90956 -0.346084 0.167572 -0.357237 0.000375283 0.000431265 -0.00319524 0.000433487 0.000216767 -0.00260527 -8.6719e-06 4.73439e-06 -9.85846e-06 
26.982 1 298 18.1237 10.2679 4.21755 3.86123 -5.61407 -0.248142 0.135691 -0.773491 0.0464977 0.000384909 0.000231661 -0.00356635 0.000326198 0.00017395 -0.00252624 3.03755e-06 -1.43029e-05 -7.81317e-07 
26.982 1 2637 36.8312 20.31 12.1402 2.92622 2.32184 2.78515 -0.065161 -0.377271 0.0253439 -0.0100087 -0.0199906 -0.0256301 -0.0105063 -0.00674103 -0.0276922 -1.59474e-05 2.01502e-05 -4.39087e-05 
26.982 1 68 24.3496 6.14489 2.19753 -2.2067 2.37977 -2.68745 0.118073 -0.133352 -0.00966127 -0.000166726 0.0079822 -0.0178437 5.4447e-05 0.00549063 -0.0201042 3.00321e-06 -6.18153e-07 -3.59875e-05 
26.982 1 107 26.5823 8.13833 2.12785 -0.822626 -4.20973 -2.63136 -0.521105 0.526752 0.211151 0.0013893 -0.00132944 -0.0249281 0.00346202 -0.00396836 -0.0249027 2.46299e-06 -6.07537e-06 -3.18288e-05 
26.982 1 266 26.3894 6.08754 4.16202 -2.16335 2.11824 0.6584 0.203292 0.288913 0.130037 6.71478e-05 0.000573674 -0.00168491 5.77101e-05 0.000438368 -0.00230185 3.7107e-06 5.42791e-06 -1.76738e-06 
26.982 1 305 24.3394 8.19538 4.05635 -0.744837 2.45506 -5.93933 0.22822 0.068686 0.391209 -0.000429694 0.000331291 -0.00335426 -0.000338072 0.000198665 -0.0030452 5.53538e-06 3.32517e-06 1.76638e-06 
26.982 1 106 26.4333 10.1235 -0.0454713 -0.367003 -2.26552 1.50478 0.40186 -0.374755 0.710528 -0.00937166 -0.0056355 -0.0447264 -0.00704495 -0.00464978 -0.0448301 -4.36311e-06 -6.23752e-06 -5.79242e-05 
26.982 1 108 24.3258 10.111 2.01012 1.51683 2.31277 -0.647598 0.322198 0.00283082 0.455488 -0.00960484 0.00256831 -0.0322955 -0.00932831 0.00430209 -0.0298074 -9.89619e-06 9.56994e-06 -3.04895e-05 
26.982 1 306 26.4081 10.1448 4.21994 1.23205 -5.41575 4.17491 -0.0124293 -0.0773869 -0.443122 -0.000122025 -0.000134384 -0.00195657 -0.000161481 -0.000285936 -0.00166753 -3.03777e-06 -2.97896e-06 -8.37437e-06 
26.982 1 70 30.7042 6.26622 0.00113444 -2.56437 6.37123 -1.63231 -0.484206 -0.452249 0.299521 -0.000698601 0.01608 -0.0447817 -0.00435597 0.0137717 -0.0448151 -2.30903e-05 -2.45651e-07 -5.87941e-05 
26.982 1 72 28.5986 6.37733 2.02716 -3.21778 -2.22168 -3.48276 0.139661 -1.24525 0.379923 -0.00213802 0.00967565 -0.0173701 -0.00463296 0.00947769 -0.0197962 -1.12549e-05 -5.10068e-06 -3.31433e-05 
26.982 1 111 30.586 8.29962 2.08699 4.0619 -2.46626 -2.3352 0.164951 0.0890619 -0.1359 -0.00182317 -5.4906e-05 -0.0220773 -0.00431731 -2.13781e-05 -0.0198806 -1.04799e-05 2.38725e-06 -2.17167e-05 
26.982 1 270 30.6954 6.19428 4.16763 0.173172 4.59755 2.4995 -0.00123919 -0.222492 -0.200673 0.000307927 0.000379513 -0.00143326 2.09568e-05 0.000518032 -0.00119127 -1.57385e-07 -5.99398e-06 -5.70879e-06 
26.982 1 309 28.6331 8.02506 4.15082 1.86961 -0.32623 -2.73278 -0.337085 0.751422 0.0859608 6.24127e-06 0.000199482 -0.00286236 -9.06526e-05 -1.95322e-05 -0.00304347 -7.30516e-06 1.00158e-05 -2.26191e-06 
26.982 1 112 28.5194 10.308 2.05064 0.199289 -2.38213 3.93508 0.138312 -0.378666 0.127779 -0.000666684 -0.00902722 -0.015904 -0.000371922 -0.00918422 -0.0159877 9.38307e-07 -1.58595e-05 -1.59914e-05 
26.982 1 76 32.6647 6.25157 2.04763 -2.52556 -0.12446 3.01987 0.25573 -0.121773 0.156915 0.00705208 0.00659462 -0.0203148 0.00474463 0.00448383 -0.0156287 4.94478e-06 -2.42908e-06 -5.30075e-06 
26.982 1 115 34.8325 8.29588 2.11598 -2.47329 -1.38861 -2.08461 -0.533167 -0.0377947 -0.347024 -0.00594674 -0.00682866 -0.0200505 -0.0037497 -0.00454907 -0.0156862 -9.56027e-06 1.39515e-08 -1.58281e-05 
26.982 1 274 34.8393 6.205 4.15745 0.27825 -3.54466 -0.511583 -0.184389 0.00240919 -0.625498 0.000529679 -0.000317488 -0.00309611 0.000503832 -0.000387634 -0.00232007 -1.61995e-06 -1.28956e-06 -1.36332e-05 
26.982 1 313 32.6873 8.16783 3.95414 -0.479765 2.82188 -2.33795 0.196476 0.477768 0.421315 0.000293748 -3.47961e-05 -0.00256463 0.0001193 0.00011066 -0.00188097 3.17147e-06 8.88237e-06 2.04206e-06 
26.982 1 114 34.867 10.3098 0.124512 -4.07291 3.72599 2.43502 -0.105731 -0.276843 -0.0982701 -0.000106833 0.0030229 -0.0446997 -0.00243179 0.00578172 -0.044765 -1.31816e-05 8.46326e-06 -6.27105e-05 
26.982 1 116 32.6562 10.4036 2.03237 -2.56176 1.03541 4.04685 0.573832 -0.984296 0.0311633 0.000669766 -0.00446795 -0.0159233 0.000268874 0.000506162 -0.0158895 9.87157e-06 -1.6996e-06 -2.43948e-05 
26.982 1 44 40.8773 6.17557 1.92507 1.08933 -1.04656 3.01727 0.314369 -0.0462937 0.324385 0.0101789 -0.0272713 -0.0134846 0.0102055 -0.0249557 -0.0204913 1.79607e-05 -2.82286e-05 -4.94916e-05 
26.982 1 281 40.875 7.88437 4.14209 1.57691 -7.16287 3.08753 -0.127032 0.839095 0.0153603 0.000632522 -0.00283052 -0.00274807 0.000626016 -0.00296378 -0.00360807 -4.80103e-06 7.47439e-06 -3.54075e-06 
26.982 1 2631 30.4687 20.3116 14.2345 6.01123 0.855278 -3.26013 0.616297 0.174061 -0.00406256 -0.00892821 -0.00904206 -0.0241843 -0.00600957 -0.00203521 -0.0261614 7.48142e-06 2.24157e-05 -4.48932e-05 
26.982 1 80 36.7719 6.24096 1.97655 -4.30118 -0.843926 -0.880991 0.104372 -0.297426 0.481185 -0.0035495 -0.0101748 -0.024857 0.00130058 -0.0101008 -0.0249393 1.58332e-05 -2.45388e-05 -3.00716e-05 
26.982 1 117 36.9925 8.2773 0.155289 -2.15604 0.26246 2.08517 -0.658135 -0.00272362 -0.177174 0.00382194 -0.000704053 -0.0445708 0.00941087 -0.00131585 -0.0447497 2.0632e-05 -2.50868e-06 -6.77179e-05 
26.982 1 119 38.9555 8.25692 1.97659 0.147056 0.903634 0.882214 0.163675 -0.0268673 0.482339 0.00304134 0.00601611 -0.0207529 0.00564149 0.00351294 -0.0254382 1.93112e-05 3.16478e-06 -4.17443e-05 
26.982 1 278 38.8495 6.13984 3.92321 1.50873 2.52792 0.311945 -0.291048 -0.0302221 0.541481 0.0099102 -0.0102596 -0.00283493 0.0100548 -0.010152 -0.00363555 8.95821e-06 -1.23741e-05 3.6616e-06 
26.982 1 317 36.8056 8.25463 3.9663 3.67655 -2.90257 1.18249 0.30094 -0.309869 0.564917 -5.89599e-05 -0.00045983 -0.00175623 0.000284341 -0.000421517 -0.00165848 8.92788e-06 -5.98193e-06 6.41414e-06 
26.982 1 120 36.8421 10.3041 2.16914 -5.60956 0.993386 0.529132 0.148619 -0.0751943 -0.301819 0.00927858 0.00681545 -0.0230846 0.00931364 0.0047183 -0.0206486 1.37025e-05 -7.57403e-07 -2.21182e-05 
26.982 1 318 38.8206 10.0964 4.27263 -0.832356 -0.673476 1.9532 0.389534 0.23931 -0.399133 0.00118061 -0.000424056 -0.00443738 0.0012312 -0.00043637 -0.00431258 1.03041e-05 1.11311e-06 -1.0081e-05 
26.982 1 88 3.6956 10.2223 2.22428 -0.63043 2.20215 2.1802 -0.277625 0.288776 -0.528903 -0.00584952 0.000239248 -0.0266423 -0.00753691 3.14311e-05 -0.0294966 -1.88201e-05 2.75568e-06 -5.28057e-05 
26.982 1 2611 9.98971 20.266 14.3359 5.65591 0.0692634 -0.134511 -0.466188 -0.0966119 -0.649101 -0.0117375 -0.0202133 -0.00625546 -0.0109236 -0.00654002 -0.00807908 -2.6473e-05 2.4951e-05 -2.33852e-05 
26.982 1 123 1.64048 12.1824 2.21947 -1.09214 2.15939 1.49526 0.256986 0.224428 -0.507805 -0.0239285 -0.0149498 -0.0222114 -0.0169033 -0.0104966 -0.0293799 -1.97331e-07 1.38634e-06 -6.63465e-05 
26.982 1 2609 7.86729 20.2938 12.1762 -4.45049 4.16909 -2.33026 -0.08255 0.36363 -0.0588546 -0.0102023 -0.0151368 -0.0161964 -0.0107419 -0.00665321 -0.0184333 -1.73132e-05 2.1555e-05 -3.20733e-05 
26.982 1 128 3.82463 14.2232 1.90269 -0.0932254 -4.96019 4.84109 -0.21301 -0.0232806 0.0812356 -0.00372973 -0.000493602 -0.0158568 -0.00262448 -0.000174436 -0.0251892 -2.94056e-06 1.91178e-06 -6.12213e-05 
26.982 1 282 1.57659 10.2961 4.08441 2.60472 4.15127 1.99866 0.300816 -0.465954 0.503915 -0.0271758 -0.00253749 -0.0116119 -0.0224458 -0.00477952 -0.0096805 -8.47878e-06 -1.75558e-05 -8.6112e-07 
26.982 1 322 1.74173 14.1191 4.02807 -6.39785 -4.44845 2.99352 -0.185366 0.737141 0.129092 -0.0182114 -0.00741575 -0.0101495 -0.0132083 -0.00519716 -0.008505 -5.25829e-06 1.3999e-05 -8.70279e-06 
26.982 1 325 3.75308 12.3135 4.30221 4.52493 -1.41251 0.325323 -0.339951 -0.550658 -0.408564 -0.00280361 -0.000853393 -0.00248055 -0.00207334 -0.000458098 -0.00328467 -5.31877e-06 -5.42968e-06 -1.0021e-05 
26.982 1 207 5.6861 0.0112416 6.09799 -8.23031 2.15056 -3.06548 -0.00538465 0.211313 -0.125907 0.00691819 -0.00246824 -0.0166059 0.0045807 -0.016224 -0.012316 -1.42394e-06 -5.7072e-05 -8.59216e-06 
26.982 1 127 5.74153 12.2254 2.0293 -2.45348 -7.95828 -3.83396 -0.330594 -0.200234 -0.291795 -0.00249516 -0.00504403 -0.0177603 -0.00495043 -0.000195142 -0.0204777 -1.87705e-05 1.03107e-05 -4.15982e-05 
26.982 1 129 7.74624 12.1015 0.0038371 -1.22276 -0.378314 2.1373 0.242881 0.0127191 -0.118789 -0.000184731 -0.00940087 -0.0447541 -0.000774549 -0.00024099 -0.0447835 -3.99234e-06 2.36457e-05 -6.53891e-05 
26.982 1 132 7.81276 14.0115 2.08407 0.335864 0.59063 -4.81431 0.21686 0.546825 -0.23221 3.88848e-06 0.00176846 -0.0128313 -0.000204133 0.00466285 -0.0199199 1.71896e-06 2.38749e-05 -4.51088e-05 
26.982 1 326 5.64333 14.133 4.15994 -2.12599 -0.612894 1.75005 0.553112 0.56259 -0.257791 -9.88686e-05 -7.87803e-05 -0.00120062 -0.000263083 0.000123309 -0.0022904 5.36926e-06 1.40067e-05 -1.02346e-05 
26.982 1 329 7.73172 12.1205 4.01566 1.93553 -2.71076 -5.07143 0.833263 0.112302 0.115558 5.83206e-05 -0.000390046 -0.00144371 -9.28577e-05 -0.000150615 -0.00156405 1.43625e-05 3.47408e-06 2.06273e-07 
26.982 1 96 11.8869 10.079 2.14274 0.946143 -3.62482 3.43413 0.370427 0.0496931 0.0603813 0.000457936 -0.00904868 -0.0292814 -0.000118174 -0.00935089 -0.0247428 3.65119e-06 -2.05983e-05 -2.61933e-05 
26.982 1 407 5.68669 0.135318 10.1823 3.62025 1.7388 3.14727 -0.220869 -0.250836 0.0607292 0.00976888 -0.00206145 -0.0139 0.0103973 -0.0160494 -0.00662681 1.38747e-05 -6.21063e-05 1.44152e-05 
26.982 1 131 9.96929 12.2011 1.89775 0.33107 -3.99604 -1.50744 -0.236992 -0.257659 0.401328 0.000349279 -0.00535884 -0.0159454 0.000118975 -0.000398626 -0.0160761 -5.03234e-06 1.56489e-05 -2.2367e-05 
26.982 1 133 12.0745 12.0237 0.0720101 2.98252 3.72201 -2.90164 -0.0355361 0.185793 -0.222653 0.00634973 -0.00661927 -0.0448061 0.00101266 -0.00140158 -0.0448783 -7.74333e-06 1.2477e-05 -6.77626e-05 