ITEM: TIMESTEP
11500
ITEM: NUMBER OF ATOMS
4000
ITEM: BOX BOUNDS pp pp pp
-2.41148 42.9115
0.657327 39.8427
0.649983 39.85
ITEM: ATOMS mass type id x y z vx vy vz fx fy fz xrad yrad zrad vxrad vyrad vzrad fxrad fyrad fzrad 
26.982 1 43 0.0613182 4.55197 2.68752 -3.11662 -0.562266 -0.537808 -0.626611 0.16535 0.144827 -0.496347 -0.295722 -0.740249 -0.0862045 -0.0377752 -0.128897 -3.18525e-05 7.45686e-06 -3.26179e-05 
26.982 1 202 -0.0351529 2.4487 4.66832 0.805432 2.29544 -1.66328 -0.41014 0.661879 0.140582 -0.472901 -0.432438 -0.424243 -0.0804081 -0.071729 -0.0735535 -1.54723e-05 -5.07504e-07 -1.00436e-05 
26.982 1 245 2.14697 4.62599 4.43379 -0.208161 -1.9313 -1.75478 -0.0129354 -0.135517 0.141945 -0.0348919 -0.0783657 -0.105943 -0.00646134 -0.0125845 -0.0188656 -5.27689e-06 -7.65231e-06 -4.05841e-06 
26.982 1 2 -0.142111 2.64638 0.82153 -3.99545 7.07414 -0.386714 -0.330966 -0.136282 -0.508161 -0.319444 -0.476197 -0.870757 -0.0517294 -0.087899 -0.15163 -2.31617e-05 1.91834e-05 -5.28841e-05 
26.982 1 3 -0.122359 0.762799 2.70787 4.87473 -3.18285 -0.603797 -0.242641 -0.694442 -0.285653 -0.367606 -0.884662 -0.556527 -0.0565201 -0.144185 -0.112443 -1.39185e-05 -5.11326e-05 2.35074e-06 
26.982 1 201 -2.56726 0.770826 4.79278 -0.288233 0.626416 3.01763 0.350114 -0.795172 -0.326128 -0.288162 -0.521766 -0.638858 -0.053021 -0.0855369 -0.109656 -2.04577e-05 -1.58237e-05 -5.32442e-05 
26.982 1 1 -2.37196 0.43847 0.549798 -4.60571 -2.39189 2.6495 0.130444 0.437614 0.294314 -0.25437 -0.389275 -0.885506 -0.0354914 -0.0695504 -0.153809 -2.05894e-05 -1.11146e-05 -1.3225e-05 
26.982 1 5 1.96557 0.719076 0.797927 -0.742256 -2.83505 -4.26947 0.358815 -0.450531 -0.608465 0.031404 -0.363421 -0.589787 0.00922852 -0.0692219 -0.0995229 1.47687e-05 -3.47887e-05 -4.55251e-05 
26.982 1 8 2.16838 2.6133 2.56921 5.77032 4.34501 3.20808 0.00562594 -0.21638 0.898077 0.157273 -0.733033 -0.75725 0.0186321 -0.125853 -0.135815 1.64187e-05 -4.04574e-06 -1.81066e-05 
26.982 1 7 4.39362 0.386227 2.47193 2.56582 0.736399 2.32839 -0.266631 0.119145 0.541827 -0.0802177 -0.121174 -0.783706 -0.0176522 -0.0498156 -0.136048 1.46417e-05 -3.84733e-05 -1.2292e-05 
26.982 1 47 4.39403 4.63307 2.69617 -0.389804 -3.14624 -3.49521 0.0038156 -0.0897484 -0.263476 -0.060702 -0.184495 -0.708129 -0.00499074 -0.0277526 -0.135486 -1.22538e-05 -1.46001e-05 -3.87475e-05 
26.982 1 206 4.30225 2.44314 4.45376 4.70476 -2.0133 0.920158 -0.0320473 0.0785178 0.157095 -0.0354922 -0.695106 -0.414151 -0.00412303 -0.107984 -0.0670505 -1.81692e-06 -3.03135e-05 -4.1069e-06 
26.982 1 249 6.6689 4.49386 4.52387 0.548085 0.397682 -1.29517 -0.139633 0.431337 0.291444 -0.00668603 -0.0713041 -0.0797088 -0.000873164 -0.0117856 -0.0161949 -2.69342e-06 2.12014e-06 3.20067e-06 
26.982 1 49 6.66102 4.71238 0.824937 -1.61814 4.04018 -2.74439 -0.22336 -0.168931 -0.474363 -0.066619 -0.10644 -1.03819 -0.0107798 -0.0142275 -0.167545 -5.25324e-06 -2.59261e-06 -6.31179e-05 
26.982 1 12 6.62157 2.57496 2.70558 0.0781013 2.1601 -0.89305 -0.0643149 0.00789316 -0.261047 -0.152016 -0.87192 -0.614963 -0.0203841 -0.141655 -0.122404 -1.62217e-06 -5.10675e-05 -2.5389e-05 
26.982 1 51 8.93596 4.66743 2.62602 -6.40548 2.38761 2.7267 0.176077 -0.0750844 -0.479338 0.00959793 -0.0754559 -0.559171 -0.000522189 -0.00978245 -0.109883 4.04743e-06 8.59885e-06 -3.10194e-05 
26.982 1 210 8.83952 2.82068 4.52706 3.26316 -0.886212 -2.7689 0.353178 -0.748312 0.247859 0.0335318 -0.622936 -0.32955 0.011843 -0.111707 -0.0601294 9.61917e-06 -4.86054e-05 -1.12106e-05 
26.982 1 253 11.2344 4.50996 4.60712 -7.10091 -0.798035 -1.97867 -0.0436771 0.101589 0.0353719 0.00680266 -0.0819822 -0.0844783 0.000660867 -0.0152242 -0.0157836 4.09511e-09 -5.21797e-06 -1.10015e-06 
26.982 1 10 8.6928 2.73923 0.620208 1.90805 -1.93882 0.545688 0.63496 -0.0668863 0.296309 0.00228015 -0.567788 -1.06023 -0.00173001 -0.0977093 -0.183919 1.34458e-06 -3.66288e-05 -4.42901e-05 
26.982 1 16 11.0973 2.53363 2.55713 -1.04995 -2.86708 -4.78305 -0.0284452 0.133038 0.185138 0.16347 -0.858225 -0.650462 0.0153687 -0.152424 -0.107031 -2.64742e-07 -5.85676e-05 -5.44058e-06 
26.982 1 53 11.2808 4.39693 0.611462 -3.96961 4.50002 -3.57671 -0.389483 0.453363 -0.193779 0.0855406 -0.0437672 -1.04455 0.00416432 -0.000518687 -0.178089 -1.72277e-05 7.83567e-06 -5.96227e-05 
26.982 1 55 13.4628 4.56124 2.48866 -2.30943 2.79929 -2.4614 -0.0253569 -0.422247 0.614547 0.0190003 -0.199008 -0.776094 0.00639738 -0.0224688 -0.135495 1.3548e-06 -1.43412e-05 -5.70069e-07 
26.982 1 214 13.3624 2.59834 4.69284 1.24761 2.86355 -2.0342 0.17861 0.272717 -0.182043 0.0558575 -0.711545 -0.370175 -3.43677e-05 -0.119308 -0.0614062 2.45775e-06 -4.00101e-05 -2.49092e-05 
26.982 1 14 13.4314 2.67429 0.578812 2.03156 3.38535 -0.735512 0.195123 -0.0524389 -0.155062 0.0483801 -0.529204 -0.593064 0.00952154 -0.0876789 -0.133517 7.38308e-06 -4.60232e-05 -4.20748e-05 
26.982 1 57 15.9174 4.53478 0.490037 -1.03799 0.302329 0.569325 -0.074552 0.360981 0.447405 -0.106932 -0.115068 -0.965378 -0.00647676 -0.0145752 -0.147217 1.63093e-05 -1.21519e-05 -5.25805e-05 
26.982 1 20 15.72 2.63356 2.59162 7.71669 -1.70185 -2.96063 0.079153 0.132888 -0.0995779 -0.227646 -0.870027 -0.627753 -0.0237567 -0.138464 -0.116354 1.09541e-05 -5.53768e-05 -1.67574e-05 
26.982 1 257 15.7143 4.34004 4.70112 2.33818 1.34988 -1.72184 -0.0565169 0.200995 -0.278461 -0.00566841 -0.0920833 -0.0911477 -0.000326037 -0.0144519 -0.0180159 -2.7308e-07 -9.99372e-06 -9.75389e-06 
26.982 1 218 18.2313 2.56621 4.47322 -7.13295 0.877404 0.710637 -0.398239 0.281886 0.236559 -0.0524345 -0.672664 -0.271691 -0.00439263 -0.1107 -0.0514108 -7.62838e-06 -4.12976e-05 -2.1573e-05 
26.982 1 59 18.1321 4.55261 2.6675 2.98629 1.66599 -2.10356 -0.299552 -0.0490085 -0.461074 0.0220983 -0.0179028 -0.617453 0.00397099 -0.000595938 -0.124976 2.97062e-06 -1.58722e-05 -3.73535e-05 
26.982 1 24 20.3667 2.68236 2.53835 1.83698 -3.50223 2.57679 -0.260545 -0.511849 -0.215204 0.0784471 -0.703221 -0.518487 0.0162241 -0.12345 -0.111407 1.65333e-06 -4.58657e-05 -5.05309e-05 
26.982 1 261 20.5375 4.48503 4.42294 -2.86464 0.333904 -1.76803 -0.308628 0.493698 0.770448 0.00576853 -0.0730673 -0.0930585 0.0013269 -0.0127168 -0.0196008 -7.13642e-06 4.06198e-06 3.65026e-06 
26.982 1 63 22.7123 4.48784 2.55465 -2.59039 -3.91232 -1.27523 -0.124414 0.0865 0.120261 0.0342371 -0.0192004 -0.773968 0.00476794 -0.00637655 -0.151209 -6.99454e-08 -1.01609e-06 -6.14106e-05 
26.982 1 222 22.5865 2.60875 4.585 4.00343 1.0548 -3.53282 0.012619 -0.385393 0.00504031 -0.0302035 -0.615976 -0.3167 0.00290908 -0.113104 -0.0609399 -3.96632e-07 -4.47934e-05 -1.96292e-05 
26.982 1 28 24.8002 2.39916 2.53235 -1.009 -2.85331 0.177502 -0.232092 0.39745 0.232109 -0.0709272 -0.559957 -0.690451 -0.00575908 -0.114741 -0.126844 -5.99983e-06 -4.16031e-05 -3.27955e-05 
26.982 1 265 24.811 4.38664 4.54115 2.72682 2.41179 3.64356 0.0547667 -0.192813 0.348198 -0.000935981 -0.0621332 -0.110768 -2.01691e-05 -0.0133754 -0.0222333 -6.08189e-07 -1.12087e-05 -5.42536e-06 
26.982 1 67 27.0563 4.46349 2.90732 4.62585 3.67349 -2.35914 0.163517 -0.336237 -0.744321 0.0354508 -0.000472053 -0.924289 0.0105662 0.00067245 -0.180012 1.86299e-06 -2.49243e-06 -4.83624e-05 
26.982 1 226 27.033 2.4049 4.82033 0.988355 0.964424 4.1443 0.237701 0.490724 -0.366252 0.0198662 -0.479005 -0.203212 -0.00485774 -0.0992303 -0.0505224 -3.04475e-06 -3.72395e-05 -2.8873e-05 
26.982 1 32 29.2568 2.48052 2.7436 0.771445 -6.53186 -2.79225 -0.0627495 0.129051 -0.299428 0.0114738 -0.508461 -0.733105 0.00275542 -0.0861091 -0.149057 -3.70496e-06 -4.39942e-05 -2.77023e-05 
26.982 1 26 27.1216 2.63892 0.570752 -0.216813 1.36028 2.6653 -0.265931 -0.394628 0.831308 -0.0828263 -0.323557 -0.862797 -0.0112166 -0.0614918 -0.13552 -5.61827e-07 -1.10921e-05 -3.77356e-05 
26.982 1 269 29.5219 4.42817 4.61042 -1.86661 -0.835071 5.16324 -0.466195 0.284863 0.0384769 -0.00460399 -0.0574877 -0.118994 -0.000749111 -0.0107307 -0.0259317 -7.83643e-06 -4.20059e-06 -6.73014e-06 
26.982 1 71 31.5036 4.58813 2.75119 1.97452 -3.26595 -2.93885 0.250307 0.152828 -0.292843 -0.0873031 -0.0092488 -0.782445 -0.0187958 -0.00707601 -0.169076 1.07786e-06 9.73221e-06 -4.61657e-05 
26.982 1 230 31.67 2.44355 4.4411 5.56559 -2.74628 3.21781 -0.188026 1.16725 -0.234302 -0.0514166 -0.525907 -0.258121 -0.00525884 -0.0926687 -0.0534343 8.07378e-07 -3.57301e-05 -2.33461e-05 
26.982 1 30 31.5469 2.7027 0.731291 -4.85089 -5.83757 2.24852 0.0713716 -0.26902 -0.0950154 -0.0540131 -0.410735 -0.967201 0.00224362 -0.0732186 -0.130711 -1.32732e-06 -1.73183e-05 -4.50365e-05 
26.982 1 273 33.7837 4.63988 4.58589 2.62775 -4.34696 3.74666 -0.191487 0.130722 0.174945 0.000803966 -0.0448268 -0.090538 -0.000507382 -0.00959568 -0.0193028 -2.83134e-06 -1.67547e-06 -2.07476e-06 
26.982 1 36 33.8254 2.73272 2.61556 2.58153 1.56964 1.4655 -0.141894 -0.0173736 -0.626929 -0.054367 -0.560103 -0.692413 -0.0136923 -0.109851 -0.140543 1.35152e-06 -4.50561e-05 -3.27319e-05 
26.982 1 75 35.9554 4.42726 2.5128 3.77467 0.013527 -3.90129 0.256273 0.234805 0.00739538 0.116211 -0.018445 -0.844057 0.00601201 -0.00595757 -0.144498 -4.60023e-06 9.65767e-06 -3.18466e-05 
26.982 1 234 35.9186 2.78368 4.65423 2.58112 -0.712877 0.588423 0.415104 0.171746 0.195608 0.0166266 -0.398329 -0.185876 0.00181304 -0.0822995 -0.0443878 -2.07794e-06 -3.16174e-05 -1.88124e-05 
26.982 1 34 36.2933 2.62374 0.45662 0.0456469 3.24497 3.73974 -0.44336 -0.0654634 -0.17568 0.0819039 -0.273642 -0.919317 0.00182666 -0.0750194 -0.160605 -1.3686e-05 -3.45696e-05 -4.05533e-05 
26.982 1 40 38.5943 2.88556 2.36398 -2.99295 0.703002 0.368167 -0.143431 -0.406386 0.292505 0.226113 -0.553148 -0.894517 0.0220336 -0.113486 -0.145693 6.10022e-06 -3.38322e-05 -3.1926e-05 
26.982 1 237 38.3438 0.828107 4.41269 -2.34007 -3.5556 -2.47275 0.177995 0.190422 -0.0244913 0.114041 -0.709331 -0.517668 0.0116133 -0.121981 -0.0940101 -1.50958e-05 -3.37207e-05 -3.5e-05 
26.982 1 4 42.9611 2.53653 2.7121 -0.62318 3.69187 -1.6547 0.181591 0.0325784 -0.113198 -0.51933 -0.582748 -0.656311 -0.106017 -0.0907945 -0.106165 -1.09746e-05 7.21891e-06 -3.78437e-05 
26.982 1 241 42.9415 4.6035 4.63191 2.55835 2.4983 4.01596 0.124224 0.0561393 -0.154435 -0.42629 -0.425069 -0.472573 -0.0589302 -0.0577222 -0.0678179 5.28155e-06 5.20189e-07 -1.14874e-05 
26.982 1 77 37.9859 4.82522 0.592689 3.38983 -3.98323 -1.73013 0.633894 0.272415 0.0986744 -0.00733023 -0.0314971 -0.401622 0.0050609 -0.00504456 -0.117863 1.2309e-05 2.20749e-05 -5.74797e-05 
26.982 1 277 38.3389 4.43788 4.56776 0.671843 5.63543 2.83175 0.0734829 0.466267 0.0146402 0.0080995 -0.0520971 -0.125111 0.00111731 -0.00996426 -0.0202916 1.67301e-06 3.82499e-06 -4.99445e-06 
26.982 1 79 40.8763 4.69916 2.57932 5.1046 -0.378693 -1.42852 -0.238088 -0.0767351 0.292217 -0.0723952 -0.125087 -0.917328 0.0011294 -0.0121707 -0.16029 8.35265e-06 8.37202e-07 -5.32776e-05 
26.982 1 238 40.7049 2.73083 4.58414 -4.22412 -2.86795 -3.43003 -0.431808 -0.153428 -0.0752072 0.00148001 -0.57984 -0.368709 0.00294402 -0.10037 -0.0599215 -1.07784e-05 -6.8555e-06 -1.2035e-05 
26.982 1 39 40.7577 0.516914 2.76668 -2.1688 -2.1521 2.76474 -0.212176 0.48184 -0.640164 -0.120302 -0.349573 -0.780047 -0.018585 -0.0883237 -0.125351 -1.36716e-05 -4.13505e-05 -3.36254e-05 
26.982 1 83 -0.134267 8.61676 2.71024 -0.932349 -0.977216 0.704256 0.156477 -0.0743825 -0.530685 -0.580999 -0.187194 -0.724563 -0.0925622 -0.0355706 -0.134593 -2.59407e-05 -2.7966e-05 -3.86399e-05 
26.982 1 242 -0.0633925 6.56599 4.56509 5.09829 -4.01471 -3.44034 -0.0878729 0.0722542 0.212721 -0.586661 0.00103419 -0.326862 -0.0947366 -0.00997048 -0.052411 -3.20859e-05 -1.079e-05 -1.56253e-05 
26.982 1 84 -2.2524 10.5934 2.58715 -1.97341 2.21172 1.86743 -0.447057 -0.0525337 -0.0530032 -0.662186 -0.193658 -0.903172 -0.118387 -0.0373661 -0.151052 -5.50795e-05 -6.03778e-06 -3.88793e-05 
26.982 1 281 -2.39125 8.70157 4.5482 1.24731 -0.127104 -2.6458 0.0475817 -0.534631 -0.205508 -0.380344 -0.365707 -0.42658 -0.0779694 -0.0703443 -0.0826696 -2.35656e-05 -4.15223e-05 -3.75873e-05 
26.982 1 88 2.10482 10.5988 2.58527 0.964678 3.71827 -1.54845 0.130798 -0.238087 -0.0811178 -0.163696 -0.0380388 -0.653109 -0.0210924 -0.00407326 -0.111421 1.28957e-05 -3.65798e-06 -2.07964e-05 
26.982 1 48 2.01855 6.84421 2.47477 -2.87096 4.16054 1.4134 0.335994 -0.415128 0.321874 -0.131278 -0.0545219 -0.691712 -0.0187885 -0.00986561 -0.125716 -1.01089e-05 -2.02802e-05 -3.08603e-05 
26.982 1 282 -0.0947798 10.3666 4.66528 0.223351 -2.84073 7.04715 -0.0317555 0.655491 0.135817 -0.523048 0.00178229 -0.23453 -0.0813619 0.0034431 -0.0392384 -3.45388e-06 7.10982e-06 -2.49912e-06 
26.982 1 85 1.93847 8.62561 0.442347 -3.8689 -1.02154 1.81556 0.250289 0.533622 0.696278 -0.0263261 0.00547227 -0.9844 -0.00494816 -0.0117558 -0.18645 -1.68066e-07 -3.79864e-06 -5.67299e-05 
26.982 1 285 2.24377 8.72183 4.5696 0.694032 -3.95162 -2.09228 -0.135721 -0.470476 -0.067037 -0.0570123 -0.00492702 -0.0781703 -0.00779498 -0.00111366 -0.0138098 -9.12048e-07 -7.09812e-06 -6.2368e-06 
26.982 1 87 4.50418 8.65488 2.66311 -1.436 -0.101628 3.40606 -0.308562 -0.507561 0.410936 -0.00239513 -0.0145376 -0.611494 -0.000336548 -0.00561263 -0.113195 -6.13389e-06 8.6331e-06 -2.50794e-05 
26.982 1 246 4.12825 6.54464 4.61802 3.3405 -2.71432 0.0502895 0.620232 0.546104 -0.390661 -0.0015436 -0.00386765 -0.0672936 -0.000292346 -0.000850048 -0.0136492 9.93677e-06 8.42854e-06 -8.5234e-06 
26.982 1 289 6.83831 8.44341 4.5818 -1.84411 8.39001 3.35238 -0.750345 0.162193 0.330867 0.004172 0.000722398 -0.0713866 0.00051763 0.000124807 -0.012713 -1.42597e-05 -8.09636e-07 4.0639e-06 
26.982 1 52 6.5453 6.52668 2.73971 -0.654185 -1.23436 2.70192 0.0217665 0.379987 -0.162894 0.00297664 0.0178217 -0.603719 -0.000825388 -0.00389652 -0.117098 6.55198e-06 5.46924e-06 -2.06506e-05 
26.982 1 92 6.61775 10.5216 2.70224 1.22813 -0.369513 3.67816 0.211388 0.0512175 -0.0457602 0.0823638 -0.0242776 -0.654829 0.00875088 -0.00252447 -0.111667 2.51277e-06 1.39549e-05 -4.11704e-05 
26.982 1 46 4.26313 6.72541 0.683676 -1.83483 0.388097 -0.535394 0.1999 -0.223881 0.0379189 -0.0342732 -0.00286782 -1.08991 -0.00254513 -0.00420803 -0.163973 -5.6674e-06 -1.22966e-05 -5.80801e-05 
26.982 1 91 8.71527 8.52592 2.65389 3.51898 -1.25011 -0.607722 0.564322 -0.0624136 -0.0339558 0.0783056 0.075171 -0.76615 0.0125595 0.00378377 -0.131829 1.40912e-05 -7.33613e-06 -3.93213e-05 
26.982 1 250 8.97119 6.39287 4.64328 -0.446223 -1.00762 -2.67116 -0.0350999 0.186485 0.0620793 0.00415879 0.00277432 -0.0634599 0.000839788 5.89322e-05 -0.0132825 3.72913e-06 3.68601e-06 -2.3452e-06 
26.982 1 290 8.86835 10.3801 4.62533 3.79028 1.91651 0.0737607 0.0458927 0.454042 -0.303081 0.00723208 0.00297622 -0.0913617 0.00141744 0.000198064 -0.0150911 9.68351e-07 5.67475e-06 -6.34425e-06 
26.982 1 293 11.2487 8.58947 4.56256 -6.27097 -0.805889 0.0489316 -0.139872 -0.402892 -0.38577 0.00100556 0.00847721 -0.0962476 0.000430483 0.00104341 -0.0170457 -3.44873e-06 -1.00319e-05 -1.22728e-05 
26.982 1 89 6.64244 8.70008 0.676575 6.15442 3.52563 -1.50448 -0.0415591 -0.176939 -0.0514765 0.0318325 0.0616849 -0.950197 0.00830541 -0.00266139 -0.182018 8.79525e-06 7.48421e-06 -6.28435e-05 
26.982 1 93 10.9379 8.52603 0.662903 2.49 -0.49105 2.83448 0.745682 -0.462769 -0.222213 0.122552 0.0380936 -0.614922 0.0212794 0.00140563 -0.124337 -1.47885e-05 -8.60628e-06 -5.80949e-05 
26.982 1 56 11.236 6.42539 2.56433 3.22454 -1.36199 -4.64458 -0.0924467 0.426091 0.0767238 0.0432904 0.0973709 -0.721631 0.00522991 0.012803 -0.131662 -1.19218e-05 1.06894e-05 -1.92371e-05 
26.982 1 95 13.5203 8.47759 2.57237 4.19882 7.1753 -3.93437 -0.45261 -0.213924 -0.0230431 -0.0343795 0.0643209 -0.860175 -0.000801158 0.00846013 -0.152031 1.66454e-06 -3.07815e-06 -1.97845e-05 
26.982 1 254 13.3464 6.3681 4.67332 0.587267 6.66023 5.97977 0.0651644 0.32136 -0.144492 0.00181361 0.0002451 -0.083148 0.000252804 0.000129045 -0.0159926 -7.76324e-07 3.82914e-06 -4.1711e-06 
26.982 1 54 13.6287 6.4417 0.609753 2.84709 3.13889 -1.3415 -0.281756 0.236886 -0.136158 -0.0763366 0.153399 -0.894754 -0.00934137 0.0256547 -0.149975 1.66792e-06 1.7817e-05 -6.3577e-05 
26.982 1 100 15.5413 10.5012 2.34543 -1.14335 -1.90713 0.933518 0.32154 -0.407049 0.938284 0.000856775 0.0551391 -0.912039 0.0020944 0.000877429 -0.157648 1.79016e-05 -3.85148e-06 -3.53017e-05 
26.982 1 60 15.4869 6.42445 2.70277 1.97273 0.793646 0.973971 0.616465 0.0177865 -0.085089 -0.0215877 0.0414097 -0.72559 -0.000418829 0.00391704 -0.140901 1.677e-05 1.03221e-05 -2.19371e-05 
26.982 1 297 15.5135 8.41494 4.69691 0.323838 -3.28672 4.70251 0.130965 0.288505 -0.447809 0.000372252 0.00717136 -0.0954291 0.000213606 0.00113016 -0.0184135 2.9251e-06 5.61434e-06 -1.25876e-05 
26.982 1 99 17.8404 8.72377 2.73377 1.43757 2.09187 -4.38967 0.0893836 -0.543012 -0.250134 -0.0427915 0.0779444 -0.758486 -0.00582069 0.01051 -0.146421 -8.23158e-06 -1.01525e-06 -3.69048e-05 
26.982 1 258 17.7427 6.43777 4.49975 1.6357 2.05539 -2.4268 0.345001 0.635062 0.0894051 0.00126297 0.00320808 -0.0769994 0.000360445 0.000342186 -0.0164604 1.11555e-05 7.17701e-06 -5.56119e-06 
26.982 1 64 20.3142 6.54157 2.64271 5.37527 -1.83469 2.79077 -0.229949 0.361973 0.347809 0.0531737 -0.0357825 -0.728625 0.00764222 -0.00765053 -0.143753 7.40351e-06 -1.00109e-05 -2.97959e-05 
26.982 1 301 20.151 8.55604 4.64926 -2.21561 2.48369 1.16909 0.0792048 -0.212778 -0.501117 0.00196119 0.00479217 -0.0850783 -5.47388e-05 0.000384885 -0.0172283 -7.84718e-07 -6.41863e-06 -1.16642e-05 
26.982 1 298 17.8988 10.5788 4.60471 -1.85423 -5.53254 -0.110706 -0.0314947 0.0643774 -0.725604 -0.00190263 0.00253047 -0.105567 -0.000219874 2.50399e-06 -0.0199503 -3.74323e-06 -1.67346e-06 -1.72504e-05 
26.982 1 58 18.0785 6.6223 0.721684 -0.140913 1.59488 3.8057 -0.238418 -0.224541 0.106319 0.03021 0.0435099 -0.96406 0.00288905 0.00549892 -0.148994 -2.27215e-06 2.57873e-06 -5.18664e-05 
26.982 1 104 20.2604 10.4872 2.53545 1.23041 1.71811 -4.1231 -0.243064 0.0571863 0.253081 0.0275969 0.0813725 -0.870637 -0.00040402 0.0108826 -0.157057 -1.34841e-05 -2.2426e-06 -1.40227e-05 
26.982 1 103 22.556 8.64125 2.64912 -5.73784 3.08997 -1.34477 0.00872107 -0.169659 -0.280967 0.0369603 0.0527129 -0.833667 0.00314253 0.00224463 -0.151222 2.34646e-06 -1.68852e-05 -2.77033e-05 
26.982 1 262 22.6069 6.66013 4.52498 -0.54751 0.520896 2.97972 -0.452522 -0.382633 -0.0283225 0.00302441 -0.00230216 -0.093724 9.51048e-05 -0.00120853 -0.0188236 -1.02927e-05 -5.86281e-06 -9.40871e-06 
26.982 1 302 22.5069 10.4361 4.61899 2.05738 1.44125 0.0821325 -0.134265 0.129807 -0.069976 -0.00102675 0.000766737 -0.108483 -0.000247908 0.000331533 -0.0190092 -2.27838e-06 3.87587e-06 -5.61159e-06 
26.982 1 101 20.372 8.53955 0.738418 0.511795 4.48731 1.77347 -0.124024 -0.177411 -0.0425035 0.0865149 -0.00895567 -1.03341 0.0106444 -0.00330896 -0.165844 -4.09311e-06 -9.99333e-06 -6.0321e-05 
26.982 1 305 24.7696 8.50762 4.67274 -4.51724 -0.0714447 0.204801 -0.245354 0.369973 0.0639935 0.00063581 0.000935338 -0.0976582 0.00053384 -0.00010123 -0.0185641 -4.89814e-06 7.26497e-06 -1.06491e-06 
26.982 1 68 24.8329 6.49923 2.91412 2.90484 -0.823438 0.693595 -0.0390602 0.0578343 -0.948001 0.0398592 -0.0348764 -0.877611 0.00902137 -0.0100567 -0.164487 -5.53924e-07 -1.06637e-05 -5.36684e-05 
26.982 1 105 24.9247 8.40357 0.585175 -0.897333 -2.14706 4.45905 -0.388343 0.0635907 0.744719 0.00384341 -0.0404832 -0.865808 0.00745844 -0.0027667 -0.153337 7.18036e-06 -1.43799e-05 -5.68029e-05 
26.982 1 102 22.5273 10.5849 0.58931 2.0423 0.251679 -0.890082 -0.114135 -0.502394 0.496479 0.0291249 -0.00986627 -0.499427 0.00429408 -0.00746261 -0.104432 1.65086e-05 3.92187e-06 -5.9392e-05 
26.982 1 107 26.9088 8.47191 2.70987 2.38469 0.955616 -1.12369 0.35091 -0.181825 -0.115965 0.10275 -0.0945566 -0.905807 0.0179898 -0.0134335 -0.173791 1.88772e-05 -3.81065e-06 -5.36786e-05 
26.982 1 266 27.1388 6.48597 4.57325 -0.500339 -1.64797 -1.69909 -0.125039 0.0485885 0.306678 0.00246013 0.00160132 -0.114273 0.000529331 -0.000291554 -0.0231079 -5.32869e-07 -2.42893e-06 -4.53228e-06 
26.982 1 306 27.0388 10.3999 4.54133 0.0343226 -0.300185 1.37885 -0.0712862 0.08261 0.314327 0.000157421 -0.00362369 -0.0904467 0.000349578 -0.000337605 -0.019633 -6.37882e-07 3.63844e-06 -2.6234e-06 
26.982 1 112 29.4672 10.3927 2.60684 -1.49575 -4.14722 2.39165 -0.286895 -0.0326761 -0.0390088 -0.0626631 -0.123164 -0.761198 -0.0104628 -0.0147253 -0.158082 -4.02931e-06 -1.75613e-05 -4.522e-05 
26.982 1 72 29.2839 6.48723 2.71422 3.01818 -2.15857 2.29989 -0.0999383 -0.221502 -0.314031 -0.049591 0.0393241 -1.00808 -0.00557196 -0.00203634 -0.197973 -4.36021e-06 -2.04231e-06 -6.21234e-05 
26.982 1 309 29.1513 8.42349 4.64225 -2.33183 3.47713 -5.46532 0.390013 0.30339 -0.0443458 -0.00344455 -0.00371271 -0.118286 -0.000643673 -0.000769665 -0.0235196 8.99005e-06 5.37166e-06 -7.82577e-06 
26.982 1 111 31.4365 8.36447 2.39418 1.27778 0.087855 -1.85649 0.559493 0.1965 1.05468 -0.0796748 -0.115853 -0.824671 -0.0157422 -0.0193141 -0.160436 -9.10233e-06 1.20446e-06 -4.76958e-05 
26.982 1 270 31.5459 6.73442 4.56901 1.41033 -3.55665 -8.98538 -0.0442782 -0.437752 0.0653292 -0.00422076 0.00358827 -0.102878 -0.00114288 1.36984e-05 -0.0219967 -1.24373e-06 -4.19956e-06 -6.31519e-06 
26.982 1 310 31.4918 10.5261 4.63984 -0.0215931 1.1996 -8.09165 -0.0273973 -0.0207148 -0.300001 -0.00127921 -0.000985896 -0.0731552 -0.000584308 -0.000182745 -0.016558 -1.52847e-06 -1.37752e-06 -8.84077e-06 
26.982 1 76 33.8525 6.51656 2.61036 -3.21556 -0.295972 3.34456 -0.0889798 0.234075 -0.054692 0.00905909 0.0452268 -0.80514 -0.00660706 0.00125584 -0.15089 8.78404e-07 -5.4563e-06 -4.48399e-05 
26.982 1 313 33.7031 8.64452 4.50974 0.6906 -0.502708 0.463832 0.223737 -0.101008 -0.424984 -0.00174165 -0.00107473 -0.0899144 -0.000949616 -0.000460063 -0.0169539 8.08086e-06 -4.79717e-06 -1.29528e-05 
26.982 1 115 36.3276 8.50967 2.52335 -4.44515 -0.748639 3.00112 -0.553287 -0.052514 -0.0642404 -0.134349 -0.0319086 -0.701576 -0.0186461 -0.00515293 -0.127778 3.60995e-06 -1.48251e-05 -3.95977e-05 
26.982 1 274 36.211 6.442 4.35426 -2.21248 -2.63053 4.77376 -0.123586 0.28222 0.247791 0.00240454 -0.00633614 -0.0902365 -0.000262803 -0.0010776 -0.0165236 -2.75106e-06 6.10256e-06 -6.48371e-06 
26.982 1 113 33.7527 8.57469 0.607628 4.98233 1.35653 -5.56218 0.345379 -0.503639 -0.0442905 -0.000777281 0.0371666 -0.701451 -0.00575907 0.00253619 -0.135664 -5.43977e-06 -1.59043e-05 -5.74118e-05 
26.982 1 80 38.6798 6.51358 2.71967 2.24675 2.24449 -2.30782 -0.340726 -0.0715047 -0.226876 0.00829831 -0.230401 -0.76146 0.00604069 -0.0265917 -0.132987 -1.12539e-06 9.04002e-06 -4.3427e-05 
26.982 1 44 43.0985 6.65749 2.82618 -0.403391 -1.4599 3.07586 -0.247088 -0.250489 -0.476665 -0.112039 -0.545542 -0.747501 -0.0500745 -0.0827041 -0.130661 7.85738e-06 -1.73563e-05 -6.09629e-05 
26.982 1 317 38.3703 8.56442 4.49143 3.78718 -0.856956 1.67858 0.0686205 -0.299505 -0.404306 0.00327529 -0.00407119 -0.0616305 0.000744586 -0.000655228 -0.0118436 -1.97113e-06 -2.60248e-06 -1.37853e-05 
26.982 1 119 40.795 8.56659 2.58822 2.3154 -2.89299 5.82372 0.0342379 -0.0269837 0.0987276 0.162304 0.0395851 -0.771132 0.02517 -0.00733008 -0.138339 -1.34204e-06 -8.69389e-07 -6.23801e-05 
26.982 1 278 40.7102 6.65556 4.67657 -3.51833 -4.71424 -5.75895 -0.0631057 -0.392508 -0.355772 0.210494 -0.208234 -0.112466 0.0309481 -0.0300519 -0.0218061 -2.4482e-06 -8.73219e-06 -1.10185e-05 
26.982 1 120 38.4476 10.5965 2.56722 -1.98057 2.99199 1.38455 -0.066566 -0.178403 0.220034 0.0933327 0.155041 -0.735969 0.00829281 0.0243615 -0.129271 1.18129e-05 -7.72891e-06 -5.13896e-05 
26.982 1 123 -0.142488 12.4472 2.70485 3.37235 -1.65072 -2.0178 0.21341 -0.396749 -0.167431 -0.5924 -0.174722 -0.741058 -0.0969646 -0.0233065 -0.129494 -5.64062e-06 1.32192e-05 -3.72314e-05 
26.982 1 322 -0.267609 14.2682 4.5517 -2.27634 1.19755 3.54187 0.392586 0.73816 0.0747658 -0.3616 -0.140122 -0.18439 -0.0602333 -0.0212287 -0.0327353 4.95478e-06 1.12011e-05 -8.91677e-06 
26.982 1 325 2.0472 12.3333 4.75382 0.544227 3.17625 1.76204 0.157093 0.0723744 -0.012361 -0.0528122 -0.00548477 -0.0686024 -0.00781668 -0.000520659 -0.0123586 4.02529e-06 1.44475e-06 -1.2778e-06 
26.982 1 128 2.34783 14.159 2.68079 -0.882039 0.31466 3.10837 -0.310099 -0.0238176 -0.0715026 -0.0971378 0.073041 -0.650216 -0.0181391 0.0167313 -0.120005 -1.78843e-05 1.56444e-05 -3.32692e-05 
26.982 1 321 -2.45823 12.4283 4.69205 -7.29443 5.40552 7.3419 -0.132229 -0.423466 -0.12539 -0.333163 -0.261148 -0.33106 -0.0623471 -0.0488306 -0.0618174 -3.03729e-05 -1.91231e-05 -1.79449e-05 
26.982 1 124 -2.35506 14.266 2.69381 2.25881 4.13719 1.04805 0.0109448 0.197694 -0.478536 -0.858214 -0.300384 -0.745267 -0.149381 -0.050825 -0.134973 -4.17759e-05 6.3955e-06 -5.30606e-05 
26.982 1 82 -0.244683 10.5998 0.622602 -0.478056 3.75701 5.06066 0.433733 -0.339838 -0.0866842 -0.623307 0.163197 -0.696479 -0.102082 0.0190418 -0.135503 -2.51616e-05 -1.63215e-06 -5.93133e-05 
26.982 1 125 2.11067 12.3213 0.50038 0.87196 -3.40538 -1.88806 -0.0834578 0.210627 0.021901 -0.142433 -0.095519 -1.15596 -0.0194918 -0.0111198 -0.202841 1.62547e-06 8.70506e-06 -5.83614e-05 
26.982 1 286 4.45119 10.4283 4.75327 7.71429 2.01575 2.94696 -0.0567394 0.0522634 -0.19725 -0.00115102 0.00201237 -0.0574882 -0.000272307 0.000195363 -0.0110789 -1.97337e-06 9.81502e-07 -7.13712e-06 
26.982 1 127 4.48206 12.3416 2.58103 4.55456 -5.33982 4.08186 -0.258054 0.137333 0.126028 0.0102619 0.00611948 -0.542153 0.00129281 -0.00288128 -0.0988612 6.62554e-06 -1.00079e-05 -3.5808e-05 
26.982 1 326 4.32958 14.3376 4.73368 1.64624 4.44982 -0.528221 0.172034 -0.269447 -0.137474 -0.00143727 0.000564693 -0.0578075 -0.000587607 0.000121602 -0.0102549 3.18584e-06 -4.73937e-06 -7.07973e-06 
26.982 1 329 6.5186 12.3864 4.68507 -1.337 -0.520909 -2.27646 0.227989 -0.133064 0.193321 0.00291692 -0.000751394 -0.0649705 0.000274766 -0.000143247 -0.0116507 4.18256e-06 -2.18605e-06 -1.69321e-06 
26.982 1 126 4.24065 14.4555 0.586805 -1.25253 4.61983 1.78366 0.429988 -0.742753 0.504853 0.0419346 0.0159546 -1.08251 -0.00222102 0.00186055 -0.195273 1.07721e-05 1.33631e-05 -5.69388e-05 
26.982 1 96 11.0922 10.464 2.41446 -2.08256 -1.49588 -1.38802 0.306153 -0.051267 0.721972 0.0281008 -0.0246538 -0.887478 0.0076463 -0.00421361 -0.148089 -1.12273e-05 -4.76616e-06 -1.75264e-05 
26.982 1 132 6.69947 14.2322 2.74171 3.16138 -0.570371 2.40406 -0.289371 0.409707 -0.313824 0.0583166 0.00456747 -0.619421 0.0116707 -0.00427765 -0.103515 -8.02134e-06 4.88812e-06 -4.03651e-05 
26.982 1 131 8.90054 12.3589 2.72566 -3.92872 -7.4987 -1.41815 -0.000875084 0.0737186 0.0781795 0.0782313 -0.0184081 -0.752402 0.0117676 0.00149741 -0.12996 -8.61429e-06 -1.27624e-05 -3.24196e-05 
26.982 1 330 8.69077 14.4167 4.69129 3.87881 -0.565529 3.22341 0.166339 -0.0299732 0.0285603 0.00435507 0.000454375 -0.0809918 0.00120336 0.000101974 -0.0146347 3.86764e-06 1.78184e-06 -8.04838e-07 
26.982 1 333 11.0658 12.2176 4.65918 4.86864 -2.67856 -2.44009 0.170232 0.47411 -0.227589 0.00298924 -0.00316151 -0.0954742 0.000679754 -0.000579166 -0.0164728 3.26395e-06 7.93754e-06 -4.89881e-06 
26.982 1 133 11.2207 12.5218 0.649147 1.45878 -2.81264 4.09546 -0.182216 0.277478 -0.161003 0.0431547 -0.0415323 -0.740808 0.0114755 -0.00496128 -0.141771 -1.55594e-05 -8.19801e-06 -6.25493e-05 
26.982 1 136 11.0457 14.3842 2.79432 2.46995 -5.07325 3.49849 -0.0174344 -0.107565 -0.312273 -0.0220765 -0.00672256 -0.787807 -0.00268987 0.00257365 -0.139774 -1.18036e-06 -2.16631e-06 -1.2069e-05 
26.982 1 130 8.75183 14.2668 0.76879 2.54438 -3.47581 -1.597 0.166652 -0.113429 -0.0163498 0.0882444 -0.11484 -0.832732 0.014644 -0.0134641 -0.141279 -2.14718e-05 -4.43503e-06 -6.3066e-05 
26.982 1 294 13.3749 10.4459 4.50113 2.54441 0.838048 7.01413 0.258626 0.00195339 0.129736 0.000783633 0.00684009 -0.106077 0.00022136 0.000650866 -0.0185639 6.56089e-06 1.01836e-06 -1.9096e-06 
26.982 1 94 13.5179 10.3623 0.540881 0.0419652 -2.54336 -1.01514 -0.610916 -0.0570461 0.0180711 -0.0329183 -0.0351862 -0.662022 -0.00239556 -0.00105077 -0.117281 1.25991e-05 -1.78027e-06 -6.37954e-05 
26.982 1 135 13.2677 12.3669 2.56019 -2.20705 -4.05464 4.25023 0.15961 0.00932932 0.293917 0.0401611 -0.0807145 -0.852744 0.00390284 -0.0113428 -0.14603 1.3959e-05 4.6721e-07 -1.13891e-05 
26.982 1 334 13.1655 14.4127 4.54809 3.46042 5.8269 -0.664166 0.655905 -0.243781 0.208652 -1.86774e-05 -0.00392256 -0.0855452 0.000450337 0.000130636 -0.0161866 1.26421e-05 -7.87091e-06 3.48373e-06 
26.982 1 134 13.3859 14.3042 0.691367 3.95722 0.801745 -2.6767 -0.0302148 0.332544 -0.513977 -0.127338 -0.0580162 -1.00052 -0.0133553 -0.00788078 -0.167167 1.15487e-05 -5.98106e-06 -6.16126e-05 
26.982 1 140 15.6679 14.2502 2.67731 -3.9089 1.096 3.85313 -0.260193 0.269131 0.0572918 0.0881811 -0.123947 -0.805523 0.0129077 -0.00385656 -0.147455 -3.87796e-06 -1.0376e-05 -2.09253e-05 
26.982 1 337 15.6149 12.3198 4.61841 4.12966 -3.41203 2.05456 -0.0973452 0.170163 -0.182845 0.00134615 -0.00101693 -0.110979 0.0004477 -0.000136743 -0.0187761 -2.99318e-06 2.53157e-06 -6.74524e-06 
26.982 1 139 17.7026 12.3377 2.37018 2.03001 -0.361172 0.875098 0.474567 0.00332365 0.637181 -0.027559 0.0119482 -0.954022 0.00139662 -0.00031438 -0.166331 -4.96592e-06 -1.50361e-05 -3.11128e-05 
26.982 1 338 18.0201 14.3102 4.51989 -0.997916 -3.99153 1.87419 -0.483296 0.191624 -0.123557 -0.00333768 -0.00831006 -0.102698 -0.00082679 -0.00130729 -0.0187759 -9.45806e-06 2.43286e-06 -3.95353e-06 
26.982 1 341 20.0316 12.4459 4.44124 -0.338546 -1.84177 0.70734 0.613083 -0.187007 0.0230137 -0.00152901 -0.00419483 -0.106288 -0.000270393 -0.000880648 -0.0190661 1.24981e-05 -4.20962e-06 -4.09639e-06 
26.982 1 144 20.1815 14.5058 2.64044 -0.24726 3.46171 3.71745 0.0506787 -0.199279 -0.604031 -0.117031 -0.0122538 -0.834712 -0.023673 -0.00935676 -0.138697 -2.05896e-07 -1.97825e-07 -1.74563e-05 