ITEM: TIMESTEP
13500
ITEM: NUMBER OF ATOMS
4000
ITEM: BOX BOUNDS pp pp pp
-2.81796 43.318
0.738531 39.7615
0.772103 39.7279
ITEM: ATOMS mass type id x y z vx vy vz fx fy fz xrad yrad zrad vxrad vyrad vzrad fxrad fyrad fzrad 
26.982 1 43 -0.508628 4.82621 2.76819 2.54852 -0.545364 2.11361 -0.266706 -0.520345 -0.0294587 -0.6865 -0.369237 -1.0248 -0.103313 -0.0362674 -0.155629 -3.02706e-05 -1.777e-07 -2.03425e-05 
26.982 1 202 -0.61369 2.65737 4.49469 2.3415 -2.84118 -0.909 -0.270737 0.264138 0.718443 -0.64577 -0.590538 -0.584206 -0.0952306 -0.0855931 -0.0859066 -4.2332e-05 -9.66414e-07 -4.2909e-06 
26.982 1 3 -0.661453 0.689372 2.74012 -1.46078 -0.67299 -0.741517 0.268767 -0.218504 -0.171444 -0.486099 -1.19651 -0.791711 -0.0652255 -0.170456 -0.126899 -2.18341e-05 -4.77624e-05 -1.86838e-05 
26.982 1 41 -2.97703 4.72618 0.834776 2.30391 4.62039 2.22277 0.117761 -0.54453 0.223726 -0.385757 -0.422002 -0.856917 -0.0671534 -0.0552465 -0.127917 -2.08076e-05 -1.23538e-05 -2.91944e-05 
26.982 1 2 -0.610622 2.49252 0.693972 0.318837 -0.499319 0.30513 0.00822988 0.707468 0.208815 -0.433326 -0.663112 -1.20723 -0.0622789 -0.104363 -0.184535 -1.21933e-05 -1.44842e-05 -4.1237e-05 
26.982 1 245 2.09838 4.88928 4.66169 2.04295 1.01189 1.2934 -0.285017 0.246415 0.254908 -0.0491571 -0.107312 -0.147524 -0.00765762 -0.0155352 -0.022456 -8.0136e-06 9.45881e-07 -3.01644e-06 
26.982 1 8 1.61871 2.9948 2.92421 -1.1257 -3.59337 -0.169903 0.438028 -0.615165 -0.524518 0.198265 -1.01048 -1.04735 0.0231964 -0.151893 -0.158462 1.24184e-05 -2.61537e-05 -3.65886e-05 
26.982 1 47 4.16089 4.77538 2.6671 2.37272 -3.56813 5.79195 -0.00573394 0.381902 0.00641769 -0.0687915 -0.249972 -1.00317 -0.00153674 -0.0368833 -0.161751 -1.48165e-06 -3.74986e-07 -4.65932e-05 
26.982 1 206 4.03714 2.77823 4.68139 1.22594 -0.887751 1.70192 0.0785469 -0.166915 -0.119538 -0.0447081 -0.934581 -0.561133 -0.00224922 -0.130462 -0.080397 1.15631e-05 -2.16088e-05 -1.17423e-05 
26.982 1 205 1.65211 0.809018 4.66498 -2.33929 -3.72225 -3.7488 0.247468 -0.241388 -0.19693 0.0525984 -0.803598 -0.678391 0.00641314 -0.131054 -0.109266 7.65629e-06 -4.40439e-05 -2.84175e-05 
26.982 1 45 1.57171 4.61635 0.702143 -3.09416 2.45241 -2.10286 0.264369 -0.374737 0.142725 -0.0410265 -0.168466 -1.12154 -0.00700457 -0.0173893 -0.189898 1.26195e-05 7.53679e-06 -5.67451e-05 
26.982 1 7 4.16961 0.842529 2.7748 0.0633454 -0.546906 0.770614 -0.308774 -0.131422 -0.202896 -0.111572 -0.238927 -1.07968 -0.0139035 -0.066869 -0.16465 6.25139e-06 -4.06043e-05 -3.27829e-05 
26.982 1 249 6.26031 4.66863 4.69287 6.06319 -0.910811 2.4344 0.307584 0.0814092 -0.0953486 -0.00804735 -0.0982094 -0.116448 -0.000435867 -0.0153961 -0.0206234 5.09933e-06 -2.72383e-06 -6.65722e-06 
26.982 1 12 6.46876 2.72863 2.69564 -3.62993 3.99794 -0.11693 -0.300382 0.0534694 0.278312 -0.194511 -1.18179 -0.888498 -0.0231194 -0.169187 -0.151194 -8.02689e-06 -4.51532e-05 -1.95931e-05 
26.982 1 51 8.66536 4.55337 2.80738 5.34201 0.140202 -1.11242 -0.0828701 0.238982 -0.312459 0.00950538 -0.0939429 -0.813645 0.00159905 -0.00860799 -0.146224 1.00211e-05 1.19283e-05 -3.46371e-05 
26.982 1 210 8.46948 2.65195 4.74017 -1.06365 -4.71773 3.10959 0.294906 0.135441 0.35045 0.0572819 -0.866921 -0.46094 0.0120518 -0.133491 -0.0712983 6.78239e-06 -3.90282e-05 -8.3797e-06 
26.982 1 49 6.59909 4.53959 0.604425 -2.3503 2.79761 4.30163 -0.367306 -0.227673 1.09269 -0.0888158 -0.137221 -1.3951 -0.0126251 -0.0155363 -0.189567 -1.33146e-05 9.47672e-06 -5.4762e-05 
26.982 1 10 8.67617 2.63481 0.734132 -4.65586 3.73111 -2.9325 0.0550279 -0.417681 0.253748 0.00171057 -0.785384 -1.44991 0.00158591 -0.117229 -0.205057 1.38974e-05 -2.88087e-05 -4.31952e-05 
26.982 1 253 10.8242 4.43811 4.48266 3.65155 -0.16345 -3.08613 0.288155 0.312895 0.509915 0.00770596 -0.11541 -0.120364 0.000278024 -0.0185481 -0.0209079 5.88486e-06 -2.71977e-06 -1.68537e-07 
26.982 1 16 10.7705 2.38791 2.79598 -1.60604 5.41274 -4.29586 0.382596 -0.047793 -0.261855 0.18853 -1.18826 -0.888857 0.00825181 -0.175501 -0.13231 1.07592e-06 -4.03562e-05 -2.21928e-05 
26.982 1 55 13.2503 4.55259 2.82209 1.00958 -0.358472 0.113921 -0.117777 0.171651 -0.767984 0.0271039 -0.246982 -1.06222 0.0014717 -0.0229537 -0.155056 -6.44713e-06 1.1506e-05 -4.97269e-05 
26.982 1 214 13.4531 2.79074 4.71519 -5.82426 3.33184 -2.10675 -0.436049 0.0807851 0.35866 0.0585545 -0.973648 -0.501309 0.00177749 -0.141364 -0.0682127 -9.012e-06 -2.11524e-05 -3.57768e-06 
26.982 1 14 13.3367 2.60664 0.740883 2.82474 -0.684338 6.46522 -0.187529 -0.128874 -0.100663 0.0634623 -0.725258 -0.901313 0.00554505 -0.103889 -0.176805 -3.64035e-06 -4.30483e-06 -5.2301e-05 
26.982 1 15 13.4935 0.757308 2.92115 1.44724 -4.97135 3.18008 -0.311145 0.295128 -0.324028 -0.0599456 -0.579795 -1.13143 -0.00425274 -0.124143 -0.145588 -2.2858e-06 -5.75015e-05 -1.19066e-05 
26.982 1 20 15.4502 2.76612 2.76055 3.33698 -0.921053 -2.88702 0.581199 0.611137 -0.510329 -0.262117 -1.18684 -0.878171 -0.00934488 -0.175232 -0.13614 3.67884e-05 -2.39483e-05 -3.22945e-05 
26.982 1 257 15.5963 4.85071 4.83123 -4.67741 5.75548 2.42867 0.254327 -0.1517 -0.146715 -0.00575622 -0.125138 -0.129712 0.000203728 -0.0184366 -0.0211215 9.10155e-06 -7.55619e-06 -9.44759e-06 
26.982 1 218 18.0667 2.62816 4.64006 2.32444 0.379265 3.51613 -0.235969 0.409379 -0.107101 -0.0636041 -0.924081 -0.392777 -0.00644571 -0.141163 -0.0700735 -1.14233e-05 -3.72121e-05 -2.96242e-05 
26.982 1 59 17.9045 4.73172 2.66752 -0.965371 -4.53969 1.83766 -0.0829344 -0.324413 0.177764 0.0378451 -0.0303287 -0.899987 0.0104791 -0.0109241 -0.159738 -3.78692e-06 -1.35788e-05 -5.18267e-05 
26.982 1 24 20.2301 2.6684 2.72994 4.1008 2.20314 2.99651 0.243922 -0.132888 0.0507155 0.103579 -0.974716 -0.777796 0.00560129 -0.147929 -0.145604 -2.48132e-05 -3.09363e-05 -3.4458e-05 
26.982 1 261 20.2058 4.59048 4.73488 -4.2029 4.05088 -2.0896 0.132272 0.188901 -0.27034 0.00837391 -0.102268 -0.138268 0.0010254 -0.0164309 -0.025552 2.25046e-06 -4.11284e-06 -9.04732e-06 
26.982 1 63 22.6703 4.2479 2.74721 3.21191 2.81481 3.46244 -0.290603 1.01854 -0.243252 0.0437083 -0.0344405 -1.11763 0.00456588 -0.00654813 -0.189176 -2.69437e-06 2.97815e-05 -4.07407e-05 
26.982 1 222 22.6681 2.49477 4.58855 -2.71694 -2.08502 -3.61083 -0.0880542 -0.422291 0.681608 -0.0266794 -0.860527 -0.449685 -0.0015866 -0.128983 -0.0698582 -1.39967e-05 -2.04765e-05 3.6059e-06 
26.982 1 28 25.0111 2.55926 2.7765 -4.11643 -3.29402 3.46153 -0.139868 -0.174108 -0.179668 -0.0829689 -0.805257 -0.974232 -0.00330356 -0.127931 -0.158981 1.2684e-05 -2.64194e-05 -4.13647e-05 
26.982 1 265 24.8682 4.62023 4.50099 -5.18237 7.29175 -7.72236 0.133324 -0.0921622 0.254514 -0.00123635 -0.0913849 -0.161208 -0.000175494 -0.015006 -0.0280464 1.86361e-06 1.45249e-06 -4.70486e-06 
26.982 1 225 24.7099 0.487229 4.74852 -8.71964 1.14563 5.39344 0.509846 0.700788 -0.480715 -0.0470945 -0.838219 -0.617627 0.00107966 -0.114994 -0.0916293 1.18712e-05 -3.40818e-05 -4.0333e-05 
26.982 1 23 22.6299 0.826555 2.4314 -3.00171 0.775663 -0.762621 -0.144273 -0.476516 0.590187 0.0177237 -0.719126 -0.970278 -0.00173496 -0.121426 -0.158887 -8.63678e-06 -6.07389e-05 -1.97638e-05 
26.982 1 22 22.4235 2.7445 0.661399 2.89811 2.54929 3.16403 0.173796 0.385622 -0.586317 0.096981 -0.680863 -1.26531 0.00912606 -0.0991269 -0.182473 -2.36637e-06 1.25731e-06 -6.49907e-05 
26.982 1 67 27.1446 4.38302 2.63416 2.96814 -1.51824 2.9733 0.0126948 0.802167 0.170524 0.0569532 0.00108556 -1.31903 0.0115261 0.00145157 -0.217117 -1.67823e-06 1.83414e-05 -4.01737e-05 
26.982 1 226 27.2074 2.62615 4.74531 -0.355652 2.75244 -1.89374 -0.119184 -0.0665708 0.112574 0.0137327 -0.701357 -0.318509 -0.00049121 -0.120394 -0.0641152 5.50335e-06 -3.34021e-05 -1.78058e-05 
26.982 1 32 29.3835 2.70095 2.70138 -2.27759 0.783239 -1.86875 0.242019 -0.0997134 0.00362786 0.0173051 -0.707552 -1.05757 0.00424415 -0.110704 -0.179473 2.10805e-05 -4.53593e-05 -3.2468e-05 
26.982 1 269 29.3867 4.43696 4.78619 -0.519315 2.3169 9.59155 0.0499036 0.393057 -0.087124 -0.00590545 -0.082983 -0.176862 -0.000579071 -0.0144119 -0.0319711 1.90576e-06 -2.68489e-06 -7.92546e-06 
26.982 1 26 27.3502 2.69175 0.65406 2.61141 -2.08809 4.02108 0.00466807 -0.57354 0.255836 -0.103046 -0.459963 -1.16342 -0.00893304 -0.0755317 -0.164106 -1.89134e-07 -2.0429e-05 -4.88183e-05 
26.982 1 71 31.7951 4.66103 2.67184 -0.973253 -5.91024 3.6994 0.338577 0.0842389 -0.0861827 -0.125491 -0.0238991 -1.15435 -0.0192689 -0.010857 -0.205474 6.01648e-06 -2.76165e-05 -4.94581e-05 
26.982 1 230 31.9124 2.94653 4.59334 -2.26008 0.875235 -4.23017 -0.0410727 -0.825487 0.0581473 -0.0612256 -0.738999 -0.37898 -0.00503179 -0.11773 -0.0673428 -9.38745e-06 -4.01574e-05 -2.87714e-05 
26.982 1 273 34.2531 4.52353 4.83083 -3.37914 -2.5291 -0.923798 -0.231708 0.0246278 -0.70718 -0.000611171 -0.0677886 -0.134694 -0.000689963 -0.0132391 -0.0250645 -4.14574e-06 -5.27914e-06 -1.53796e-05 
26.982 1 36 34.3163 2.83303 2.60809 0.176378 -2.76009 -3.34199 -0.386416 -0.129918 0.331545 -0.0827643 -0.803473 -0.995855 -0.015556 -0.131617 -0.167933 -1.62926e-05 -1.91245e-05 -5.82936e-05 
26.982 1 233 34.0648 0.717269 4.7476 1.79281 1.63354 -2.47949 -0.0171494 0.261123 -0.526542 -0.00953856 -0.997933 -0.600741 -0.00104953 -0.135217 -0.0948488 -1.6201e-05 -3.43962e-05 -4.16845e-05 
26.982 1 75 36.5584 4.64112 2.85386 -1.69842 -1.28027 -5.0159 -0.236953 0.131873 -0.319336 0.123926 -0.0295904 -1.16632 0.00223047 -0.00668939 -0.178703 1.04208e-06 8.1534e-07 -5.97671e-05 
26.982 1 234 36.362 2.57259 4.62347 -4.04646 -4.80442 -2.98264 0.162077 0.0699568 0.382026 0.0141767 -0.584082 -0.286289 -0.00263958 -0.102289 -0.0556287 2.43358e-06 -8.88216e-06 -2.35205e-06 
26.982 1 40 38.6191 2.78887 2.66898 -1.18341 4.38548 2.96153 0.49196 -0.685989 0.752695 0.271909 -0.804578 -1.21639 0.0232359 -0.13778 -0.176511 -1.47585e-06 -1.19153e-05 -4.68925e-05 
26.982 1 277 38.7135 4.73325 4.76907 -1.6787 7.5761 -2.68966 0.103309 0.0120133 -0.252993 0.0101674 -0.0740323 -0.169928 0.000966218 -0.011975 -0.0248091 1.97999e-06 -2.5641e-06 -9.77173e-06 
26.982 1 35 36.4164 0.668914 2.66047 -0.445126 -0.882261 1.24 -0.127123 -0.0470739 0.346916 0.0537542 -1.49372 -0.992764 0.00437647 -0.187434 -0.164941 -2.2649e-06 -4.27135e-05 -4.23518e-05 
26.982 1 237 38.6944 0.801788 4.67321 0.6942 0.904829 -1.50121 0.255636 0.038184 -0.109457 0.136437 -0.979925 -0.727818 0.0118158 -0.145903 -0.113662 2.34711e-06 -3.50613e-05 -2.33568e-05 
26.982 1 4 43.1382 2.64775 2.85053 -2.44561 0.466583 1.87066 0.450411 0.211724 -0.082214 -0.751998 -0.773269 -0.888467 -0.125261 -0.10336 -0.126896 1.03475e-05 -1.35404e-05 -2.78062e-05 
26.982 1 241 43.406 4.71138 4.7226 -2.67286 0.787378 4.85432 0.0323694 -0.410405 -0.233332 -0.549144 -0.544732 -0.616453 -0.0655416 -0.0626709 -0.0765102 1.12226e-06 -2.65793e-07 -4.45948e-06 
26.982 1 79 40.9765 4.71543 2.89348 -0.996417 -3.14054 2.44413 -0.044177 -0.0258123 -0.184933 -0.0679759 -0.151437 -1.27059 0.00098119 -0.0126873 -0.192287 -1.10869e-05 1.20445e-05 -3.31339e-05 
26.982 1 238 41.0811 2.77224 4.77331 0.19592 -1.08665 -9.24171 -0.506492 -0.222973 -0.0823571 0.00747902 -0.796966 -0.501197 0.00286964 -0.118315 -0.0727947 -1.17771e-05 -8.4283e-06 -5.75693e-06 
26.982 1 201 43.2906 0.536743 4.77064 -2.19725 -1.43059 0.362381 0.11496 0.579508 0.123242 -0.401119 -0.710391 -0.88668 -0.0573822 -0.104275 -0.133503 3.06735e-06 -3.99618e-05 -2.14886e-05 
26.982 1 39 41.1918 0.628103 2.87736 -1.5156 -0.125053 -0.824929 -0.642237 0.439973 -0.206378 -0.164224 -0.545933 -1.06227 -0.0232458 -0.108895 -0.158148 -1.1434e-05 -5.46636e-05 -2.90311e-05 
26.982 1 38 41.0516 2.68296 0.934582 -2.12973 -1.59686 -2.38729 -0.510634 -0.0951098 -0.282756 0.00989637 -0.466405 -0.943025 -0.00327017 -0.0757514 -0.154761 -1.60184e-05 -1.4101e-05 -5.89187e-05 
26.982 1 83 -0.571731 8.65699 2.64952 1.81231 0.147062 -4.50668 -0.189564 -0.405046 -0.168877 -0.786238 -0.274783 -1.02439 -0.111527 -0.049884 -0.166366 -1.89095e-05 -1.94789e-05 -2.85935e-05 
26.982 1 242 -0.189881 6.61271 4.76305 -2.21451 -0.37031 -1.89052 -0.565123 -0.0654338 -0.0141355 -0.800464 -0.0208827 -0.445169 -0.118168 -0.010194 -0.064735 -3.17539e-05 -3.38574e-06 -6.88678e-06 
26.982 1 44 -2.87226 6.61703 2.74658 0.440647 -1.05141 -6.5415 0.0830715 0.298941 0.18732 -0.202378 -0.722298 -1.04598 -0.0471736 -0.0918518 -0.16046 -3.30118e-05 1.12097e-05 2.57757e-06 
26.982 1 82 -0.523795 10.6778 0.704107 3.17747 -0.408284 -2.52141 0.187074 -0.779076 -0.0476964 -0.841134 0.199476 -1.0061 -0.117815 0.0155954 -0.17018 -2.58673e-05 -1.15816e-05 -5.18601e-05 
26.982 1 48 1.6495 6.74979 2.66945 1.07553 -0.688189 -2.56374 0.305852 -0.52155 -0.0519501 -0.178499 -0.0719947 -0.971376 -0.0270703 -0.00405051 -0.155361 4.3392e-06 9.0837e-06 -4.99635e-05 
26.982 1 285 1.90459 8.57274 4.68708 4.72323 -3.79919 -3.35269 -0.313934 0.105767 0.194793 -0.0738841 -0.00692569 -0.109947 -0.00907781 -0.00103351 -0.0184577 -7.2925e-06 2.44417e-06 -4.37022e-06 
26.982 1 87 4.06361 8.38746 2.66562 0.0234571 1.65232 -10.0975 0.15932 0.369385 0.179948 -0.00604856 -0.0158011 -0.86465 -0.00394475 0.000990651 -0.141693 -7.8412e-06 -9.8372e-06 -3.51444e-05 
26.982 1 246 4.12394 6.73262 4.92671 1.75247 0.736692 -1.67469 0.107605 -0.192754 -0.556321 -0.00208184 -0.00567447 -0.0971449 -0.000185167 -0.000782003 -0.0165454 1.44022e-06 -1.67228e-06 -1.31398e-05 
26.982 1 88 1.70385 10.4744 2.67331 4.77123 0.651199 1.62011 0.316556 0.194687 -0.00927496 -0.201242 -0.046593 -0.907012 -0.0186207 -0.00638103 -0.144185 3.34499e-06 -1.2817e-05 -2.59348e-05 
26.982 1 286 4.08229 10.5457 4.59918 2.76013 -3.78753 1.98533 -0.0841989 0.0560926 -0.46052 -0.00205945 0.00261068 -0.0846252 -0.000418442 0.000180774 -0.0158371 -4.02705e-06 9.24248e-07 -1.06874e-05 
26.982 1 86 4.07624 10.3968 0.583694 0.370605 -4.07184 0.36522 0.0806569 0.0580937 0.653992 -0.0167539 -0.0478269 -1.49269 -0.00417893 -0.00319203 -0.197582 -1.06087e-05 -1.47286e-05 -5.62558e-05 
26.982 1 289 6.2629 8.59225 4.73647 1.14466 -2.36508 -1.38038 0.344986 0.283361 -0.271407 0.00567556 0.0010103 -0.100022 0.000866422 6.57101e-05 -0.0161192 6.93111e-06 4.08468e-06 -4.86265e-06 
26.982 1 52 6.52415 6.63976 2.67176 2.90807 0.983541 2.57742 -0.384982 -0.3268 0.199026 0.00867635 0.00611753 -0.863851 0.00529352 -0.00702379 -0.14513 -2.21038e-06 -5.85108e-06 -2.70001e-05 
26.982 1 91 8.66411 8.51484 2.73162 0.370897 5.42209 -4.95883 -0.0502259 0.52402 -0.0504165 0.104704 0.0791181 -1.06226 0.0139368 0.000987359 -0.166716 1.21109e-05 1.79119e-06 -5.28637e-05 
26.982 1 250 8.61907 6.63987 4.70769 -3.45299 -2.2785 -6.15853 0.138234 -0.315178 -0.568876 0.00606252 0.00268896 -0.0949779 0.00095902 -0.000284991 -0.0184631 3.24645e-06 -4.4649e-06 -1.30084e-05 
26.982 1 92 6.39731 10.4671 2.57931 0.769922 2.75914 2.7794 -0.124432 -0.455983 0.179362 0.0972334 -0.0210628 -0.911469 0.00806423 0.00280416 -0.144214 8.10768e-06 -9.93586e-06 -1.84545e-05 
26.982 1 290 8.65533 10.542 4.60976 1.89099 5.74291 6.06473 -0.135024 -0.424886 0.309883 0.009581 0.0032051 -0.125587 0.00102427 -5.30302e-05 -0.0193748 -3.99735e-06 -8.42707e-06 -2.01656e-06 
26.982 1 89 6.32252 8.39922 0.647694 5.13271 -2.43393 0.501677 0.311859 0.134908 0.197193 0.0515391 0.0598363 -1.35304 0.0115459 -0.00196753 -0.217376 1.06762e-05 -7.34426e-06 -5.84687e-05 
26.982 1 293 10.9036 8.62622 4.48306 -0.962687 2.17843 2.94018 0.219801 -0.601111 0.590284 0.00198177 0.010388 -0.133355 0.000362276 0.000814933 -0.0205889 5.58511e-06 -9.09947e-06 -6.19785e-06 
26.982 1 56 11.0203 6.52162 2.77157 -2.82903 1.20274 0.0281667 -0.00606147 0.0903113 -0.0562155 0.0451456 0.120683 -1.01308 -0.00185675 0.00970158 -0.164224 1.0179e-06 2.26217e-06 -5.8903e-05 
26.982 1 95 13.2786 8.63067 2.79246 1.06485 3.57828 -5.14018 0.199056 -0.0237111 -0.204618 -0.0333788 0.0852769 -1.18785 0.000334879 0.0114778 -0.178811 4.43629e-06 -4.99717e-07 -6.11496e-05 
26.982 1 254 13.3925 6.53324 4.5835 -2.09646 3.89829 3.03295 -0.197149 0.20647 0.200876 0.00205272 0.000456631 -0.11719 3.5091e-05 1.93409e-05 -0.0188057 -4.77846e-06 1.98601e-06 -6.52541e-06 
26.982 1 60 15.6593 6.44517 2.62785 -7.3786 -1.99147 2.4029 -0.160436 0.0804116 0.141339 -0.0189479 0.0568569 -1.03017 0.0020084 0.00880921 -0.166576 -2.71877e-06 2.73556e-06 -6.34147e-05 
26.982 1 297 15.7744 8.31539 4.51684 1.17776 3.84502 -3.1669 -0.232586 0.527933 -0.183274 0.001071 0.00973969 -0.136289 0.000495928 0.00128943 -0.0224089 -4.20501e-06 8.43063e-06 -1.2927e-05 
26.982 1 99 18.0333 8.56115 2.58363 -1.5959 1.74143 -3.3166 -0.142117 0.0929037 0.356695 -0.0602671 0.102346 -1.08034 -0.0100457 0.0104174 -0.174652 -4.17831e-06 -1.58373e-05 -4.54608e-05 
26.982 1 258 18.1214 6.75766 4.74245 4.15244 2.01807 3.79081 -0.169342 -0.255101 -0.0833092 0.0021456 0.00356001 -0.113152 0.000560001 -4.79489e-05 -0.0200331 -3.31381e-06 -4.12958e-06 -9.87449e-06 
26.982 1 298 18.0543 10.4754 4.73257 1.35416 5.38229 2.76353 0.0849372 -0.550312 -0.625959 -0.00255597 0.00240496 -0.149402 -0.000530761 -0.000104779 -0.0233186 8.89429e-07 -5.16722e-06 -1.00864e-05 
26.982 1 98 18.0079 10.6137 0.679411 -3.22493 -1.18654 -1.87038 -0.41791 -0.599429 0.646655 -0.0613691 -0.0185752 -0.885584 -0.00422249 -0.00389281 -0.132274 -1.7374e-05 -1.25665e-05 -5.5756e-05 
26.982 1 64 20.1386 6.41749 2.71199 -0.562958 1.0623 2.31864 0.3031 -0.0325509 0.100906 0.0712867 -0.062409 -1.04684 0.00921749 -0.0175115 -0.176391 7.92809e-06 -8.87578e-07 -6.23254e-05 
26.982 1 301 20.4365 8.47609 4.58551 5.96649 0.748877 4.44403 -0.611178 0.158251 0.317335 0.00162269 0.00532553 -0.122066 -3.63393e-05 0.00024901 -0.0199429 -1.0806e-05 4.88759e-06 -2.41675e-06 
26.982 1 104 20.276 10.376 2.77909 1.80529 1.77611 3.1529 -0.0792007 0.243681 -0.474924 0.0208368 0.108488 -1.20715 -0.00430816 0.014856 -0.179955 -1.9881e-06 -1.10686e-05 -3.00508e-05 
26.982 1 103 22.5586 8.39165 2.85135 -1.26508 2.98766 1.37951 0.409836 -0.029217 -0.309338 0.0468931 0.0482814 -1.15841 0.00608252 -0.00599124 -0.174568 6.40576e-06 -2.02104e-05 -4.97171e-05 
26.982 1 262 22.497 6.36086 4.54702 1.90898 -2.42738 1.18012 0.328123 -0.224571 0.225162 0.00345769 -0.00545654 -0.136311 0.000322027 -0.00187426 -0.0235914 7.92028e-06 -4.93125e-06 -7.52275e-06 
26.982 1 305 24.9438 8.45025 4.86655 -1.51694 -2.91856 -2.02573 0.0823942 -0.601927 -0.766418 0.00217807 0.000269826 -0.138488 0.0010021 -0.000644215 -0.0226206 1.17693e-06 -1.14778e-05 -1.43065e-05 
26.982 1 68 25.0172 6.652 2.48341 -0.953439 -1.05958 2.0481 -0.126256 -0.376812 0.942373 0.0566 -0.0619658 -1.24294 0.00919791 -0.015946 -0.202047 -6.86615e-06 -1.18446e-06 -5.38656e-05 
26.982 1 102 22.6057 10.4105 1.05418 -1.86643 -2.85922 -1.06015 0.0564974 -0.501224 -0.616069 0.0392267 -0.0231506 -0.754691 0.0041117 -0.00812452 -0.151167 1.23652e-06 -2.29705e-05 -6.60803e-05 
26.982 1 108 24.9155 10.4468 2.85815 -1.71469 -1.87364 7.4386 0.355308 -0.237707 -0.283489 -0.0933232 0.102267 -1.23057 0.00204152 0.00897655 -0.183884 1.64696e-05 -1.65949e-05 -3.52065e-05 
26.982 1 107 27.2009 8.51872 2.71739 -0.973048 0.58279 -3.24209 -0.0988067 -0.0424735 -0.125127 0.14045 -0.122454 -1.28557 0.018589 -0.0145637 -0.208218 -1.25293e-05 -5.2316e-07 -4.9552e-05 
26.982 1 266 27.3093 6.46771 4.47059 1.29105 2.49994 0.822879 -0.205005 0.174847 0.157833 0.00341931 0.000736188 -0.165003 0.000533192 -0.000538961 -0.0279417 -6.57654e-06 3.55049e-06 -8.52885e-06 
26.982 1 72 29.6475 6.2887 2.84574 -1.91726 4.17739 -0.43303 -0.303942 0.513769 -0.212771 -0.0607625 0.0308365 -1.44156 -0.00706083 -0.00744335 -0.235289 -1.52742e-05 -8.09768e-06 -3.82776e-05 
26.982 1 309 29.595 8.46028 4.38397 -0.0766761 3.27377 1.34139 -0.0258981 0.195909 0.255126 -0.00435442 -0.00531264 -0.169606 -0.000706521 -0.000721436 -0.0277421 -1.56916e-06 1.65399e-07 -2.67167e-06 
26.982 1 306 27.4029 10.2982 4.69066 0.446222 -3.94956 0.816941 -0.223559 0.198343 0.00470672 0.00107105 -0.00452406 -0.133725 0.000561624 -0.000595684 -0.0238284 -7.34272e-06 1.54137e-06 -7.36281e-06 
26.982 1 112 29.4954 10.6451 2.69729 4.12918 3.70248 -2.92291 0.150704 -0.248812 -0.192203 -0.0841047 -0.157736 -1.10522 -0.0122496 -0.017726 -0.186446 -7.99801e-06 -4.75133e-06 -2.43425e-05 
26.982 1 109 29.3841 8.44681 0.856886 -3.68884 0.0764967 3.22923 0.392711 0.352084 0.251913 -0.00331959 -0.0803042 -0.446674 -0.00439371 -0.0111966 -0.0830551 -1.95555e-05 -3.27061e-06 -5.5339e-05 
26.982 1 111 31.9434 8.55061 2.70984 1.34304 0.141266 -1.8318 -0.185809 0.319412 -0.0550807 -0.111952 -0.156169 -1.17712 -0.0156968 -0.0207959 -0.19052 -2.46606e-06 5.21554e-06 -1.39183e-05 
26.982 1 270 32.0778 6.51576 4.56537 -1.3634 3.06407 3.01674 -0.512511 -0.232327 0.0411274 -0.00635816 0.00328107 -0.151112 -0.00102851 -0.000419393 -0.0262465 -1.04324e-05 -4.86418e-06 -4.78159e-06 
26.982 1 76 34.3424 6.46378 2.82015 0.640659 -2.75614 -2.38551 -0.5498 -0.194664 -0.272589 -0.00250222 0.0434152 -1.14467 -0.0049337 -0.00340355 -0.188148 1.79496e-06 -1.49573e-05 -4.76985e-05 
26.982 1 313 33.9778 8.38553 4.76487 -2.27384 4.23165 -0.53515 0.443661 0.934539 -0.380701 -0.00319227 -0.00212216 -0.127692 -0.00042627 -0.00035468 -0.0210297 9.09963e-06 1.90622e-05 -7.87315e-06 
26.982 1 310 31.7783 10.5757 4.71434 1.94063 -5.27521 -4.44081 0.195345 -0.415036 -0.275649 -0.002886 -0.00165196 -0.109495 -0.000931326 -0.000320151 -0.0199984 6.69273e-06 -5.05878e-06 -1.13525e-05 
26.982 1 113 33.9412 8.43994 0.585752 0.0631036 0.186208 3.17281 0.292784 0.0189072 0.507385 -0.0144367 0.0385502 -0.993888 -0.00377901 0.000551999 -0.157015 2.52271e-05 -4.02812e-06 -5.74404e-05 
26.982 1 70 31.7239 6.64507 0.811528 -3.98172 -5.86691 0.15031 0.159326 -0.151011 -0.299204 -0.21682 0.182488 -1.03846 -0.0233236 0.00963069 -0.130088 1.53151e-07 -2.32572e-05 -6.10854e-05 
26.982 1 110 31.7908 10.6236 0.697087 3.03383 1.1999 -4.52505 0.0912909 -0.330192 0.239887 0.0564522 -0.120389 -1.70438 0.00802783 -0.012796 -0.212674 8.05851e-06 6.74577e-06 -5.982e-05 
26.982 1 115 36.2034 8.38504 2.73789 1.0714 -4.8279 -2.98018 0.507086 0.478825 0.0959882 -0.171089 -0.0482269 -0.987446 -0.0175618 -0.0077298 -0.160873 1.75471e-05 7.2892e-06 -4.51482e-05 
26.982 1 274 36.3805 6.46571 4.82001 0.891841 1.31233 3.2553 0.293606 0.637245 -0.184247 0.00211183 -0.00825954 -0.128255 5.06742e-05 -0.000942761 -0.0213623 9.08674e-06 1.0131e-05 -7.91172e-06 
26.982 1 80 38.7341 6.62151 2.5324 1.25915 4.49368 -6.74582 -0.0910351 -0.180188 0.368384 0.0195513 -0.281982 -1.05913 0.00640642 -0.0248737 -0.166694 -1.33403e-06 4.95252e-07 -5.73827e-05 
26.982 1 317 38.5583 8.41321 4.65067 -7.22033 -2.13086 1.66707 -0.0682199 0.210046 -0.0762038 0.00452865 -0.00547772 -0.0895195 0.000387772 -0.000707541 -0.0164097 -1.71454e-06 2.62345e-06 -9.05863e-06 
26.982 1 120 38.5112 10.4788 2.81177 4.66211 -0.964305 3.83539 0.3151 0.0826115 -0.334632 0.11314 0.203371 -1.0244 0.00874809 0.0240798 -0.162625 -6.05418e-06 -5.0719e-06 -5.55448e-05 
26.982 1 314 36.399 10.6298 4.58433 2.88104 1.6166 -0.781316 -0.286761 -0.380649 0.1715 -0.00252746 0.00541734 -0.12062 -0.000173929 0.000519337 -0.0195708 -5.58982e-06 -7.61827e-06 -6.53825e-06 
26.982 1 281 43.3223 8.70774 4.61835 -1.50623 0.786091 2.62084 0.027588 -0.308123 -0.0230613 -0.544632 -0.517493 -0.606237 -0.0831434 -0.0783197 -0.0942064 1.70586e-06 -7.75287e-06 -5.54699e-06 
26.982 1 119 41.0293 8.5481 2.63278 1.63561 -0.626034 -3.84854 -0.319739 -0.0192291 0.149849 0.216616 0.0243985 -1.08329 0.0283559 -0.00968718 -0.174986 -4.57059e-06 -1.57071e-05 -4.38278e-05 
26.982 1 278 40.9943 6.80756 4.71614 -0.00637718 -0.00690703 -2.1724 0.0791475 -0.189588 0.074028 0.27567 -0.271071 -0.16104 0.0348873 -0.0334734 -0.0271494 3.0309e-06 -2.58527e-06 -5.87255e-06 
26.982 1 318 40.736 10.4027 4.70497 -0.525042 -3.01686 2.56274 0.311834 -0.185774 0.0750573 0.285328 -0.244414 -0.171508 0.0426269 -0.0375821 -0.0253572 4.38025e-06 -4.79922e-06 -3.20767e-06 
26.982 1 118 40.8924 10.5992 0.846932 0.301989 -0.87278 -0.000163569 -0.0326224 -0.132845 -0.439371 0.224929 -0.0177411 -0.809272 0.0315441 -0.00186301 -0.155743 -8.3648e-06 -4.63461e-06 -6.40719e-05 
26.982 1 282 -0.395374 10.5568 4.653 0.563023 0.717537 1.07469 -0.325977 -0.178461 -0.0181398 -0.697334 0.00379018 -0.320054 -0.0977916 -0.00139656 -0.0482666 -3.95122e-05 -4.30943e-06 -1.12691e-05 
26.982 1 123 -0.578547 12.454 2.66805 1.7147 -5.43124 -2.58734 0.194853 0.0225951 0.237138 -0.793679 -0.216145 -1.03261 -0.107112 -0.0209903 -0.161772 -3.35876e-05 3.79446e-06 -2.01727e-05 
26.982 1 322 -0.292147 14.5743 4.46614 -3.93912 -2.04095 -1.25765 -0.435649 -0.554983 0.241022 -0.489107 -0.183683 -0.258974 -0.0694252 -0.0236106 -0.0424516 -3.39801e-05 -1.49568e-05 -1.30646e-05 
26.982 1 325 1.72631 12.5475 4.65258 0.408541 1.21836 1.38653 0.188352 -0.266628 -0.172515 -0.0685064 -0.00681693 -0.0977375 -0.00833474 -0.000851347 -0.0169058 2.02418e-07 -4.51146e-06 -6.85935e-06 
26.982 1 128 1.82625 14.3727 2.63712 -0.522236 -4.02264 0.293404 0.110592 0.218941 -0.0380094 -0.137269 0.104817 -0.922169 -0.0223824 0.0149617 -0.15247 -1.34563e-05 1.73817e-05 -3.43959e-05 
26.982 1 127 4.12313 12.3728 2.52616 3.95073 -4.87228 0.219363 -0.207085 -0.0431783 0.443192 0.0156936 -0.00295636 -0.777168 0.00288484 -0.00497388 -0.133808 -4.68753e-06 -4.21585e-06 -3.89498e-06 
26.982 1 326 4.11502 14.3996 4.59758 2.04043 -0.0251669 2.19587 -0.0673411 -0.176292 0.279962 -0.00228859 0.000349491 -0.0828634 -0.00028512 -0.000217406 -0.0146469 -1.47252e-07 -2.74122e-06 3.0597e-06 
26.982 1 126 4.05965 14.4476 0.774644 -1.25772 -3.48724 -0.905313 0.122178 0.0118922 -0.266439 0.0397915 0.0225933 -1.49571 -0.00246401 0.00527788 -0.218396 -8.54398e-06 1.78897e-05 -6.4278e-05 
26.982 1 125 1.87926 12.5102 0.7211 1.19468 5.65196 -0.396014 -0.344706 -0.212944 -0.147493 -0.182732 -0.117025 -1.58457 -0.0225112 -0.00981805 -0.226179 -1.63648e-05 4.54939e-06 -6.07211e-05 
26.982 1 329 6.3637 12.3697 4.72623 -0.50443 1.36178 -1.33074 -0.187507 0.454923 -0.643886 0.0029229 -0.000916646 -0.0936236 -0.000166834 -0.000148203 -0.0166117 -4.9489e-06 4.86811e-06 -1.02315e-05 
26.982 1 132 6.18144 14.4638 2.80351 3.58325 4.87132 1.27303 0.613236 -0.187892 -0.329616 0.0818698 -0.00472635 -0.865019 0.0119832 -0.00472446 -0.139187 1.28689e-05 -8.88075e-07 -1.45795e-05 
26.982 1 131 8.53052 12.3764 2.74393 -2.91592 0.953735 1.44739 0.190509 0.529173 -0.11732 0.0970421 -0.0153166 -1.04588 0.00895623 0.00045979 -0.164173 1.45686e-05 -8.1263e-06 -3.46628e-05 
26.982 1 330 8.6094 14.2956 4.77369 4.91557 -0.439856 -1.41603 -0.0776505 0.317651 -0.151988 0.00616753 0.000616108 -0.114534 0.000869495 0.000100413 -0.0188698 -1.28484e-06 4.75224e-06 -6.51833e-06 
26.982 1 130 8.60019 14.1902 0.671837 0.423748 0.491365 -1.43147 0.230533 0.318379 0.306692 0.111767 -0.143616 -1.13647 0.0129461 -0.0162794 -0.162793 1.32587e-05 -1.24796e-06 -5.52423e-05 
26.982 1 129 6.39352 12.4933 0.8401 -4.28495 2.46786 -3.25384 -0.152269 0.127891 -0.471125 0.0955008 0.049369 -1.47907 0.0107929 0.00656121 -0.207404 8.48364e-06 -8.121e-06 -6.37342e-05 
26.982 1 294 13.2485 10.4701 4.82204 0.532698 0.765787 7.40611 0.0568156 0.616574 -0.386383 0.00098369 0.00763558 -0.146489 7.90456e-05 0.000313198 -0.0219728 3.68441e-06 6.96485e-06 -1.24903e-05 
26.982 1 96 11.0106 10.6012 2.88078 1.50003 -0.441118 1.37861 0.0412652 0.337387 -0.683722 0.0414718 -0.0330613 -1.21054 0.00570257 -0.00452362 -0.178201 2.30728e-06 1.36239e-06 -6.43256e-05 
26.982 1 333 10.8606 12.6401 4.64651 -2.4823 -2.17988 -0.574995 0.21396 -0.36928 0.534055 0.00375122 -0.00431834 -0.131839 0.00037038 -0.000664998 -0.0203582 6.38594e-06 -4.44909e-06 4.72698e-07 
26.982 1 136 10.904 14.2733 2.62373 3.41804 -0.347403 4.09795 -0.0391569 0.594474 -0.0906224 -0.0311827 -0.00410382 -1.09048 -0.00549486 0.0002981 -0.165507 -6.11709e-07 -1.01899e-05 -2.94015e-05 
26.982 1 135 13.3135 12.458 2.7849 1.81671 0.547011 0.123009 0.0427996 -0.522113 0.420996 0.047425 -0.105989 -1.16824 0.00277258 -0.0138996 -0.172203 3.36089e-06 -2.38733e-05 -3.56866e-05 
26.982 1 334 13.3781 14.5553 4.61141 -4.22065 -1.88117 -3.83324 -0.366558 -0.282506 0.0483286 0.000825934 -0.00401103 -0.120297 0.000290544 -3.64403e-05 -0.0191053 -8.25315e-06 -7.96007e-06 -3.43588e-06 
26.982 1 134 13.3027 14.2211 0.832709 0.26713 0.453276 0.396554 0.157016 0.40141 -0.529355 -0.154781 -0.0809439 -1.37283 -0.0145061 -0.0151747 -0.201847 3.91866e-06 -2.21755e-05 -6.37025e-05 
26.982 1 100 15.7461 10.4983 2.86465 -4.60817 1.4665 1.32708 -0.131754 0.133167 -0.202252 0.00761217 0.0527391 -1.25907 0.00228001 -0.00249277 -0.187649 -1.36321e-05 1.02636e-06 -4.65808e-05 
26.982 1 140 15.6685 14.242 2.95889 5.01568 -1.29621 0.464114 -0.0329791 0.16403 -0.0839435 0.113036 -0.133779 -1.11944 0.0110764 -0.00488962 -0.168236 8.37262e-07 -1.40823e-05 -2.64264e-05 
26.982 1 337 15.5379 12.347 4.98097 2.06013 -1.63307 -0.0938898 0.0521905 0.400179 -0.363695 0.00235715 -0.00142577 -0.151464 0.000515437 -0.00043679 -0.0217222 1.16375e-07 1.04326e-06 -1.2267e-05 
26.982 1 139 18.0075 12.4879 2.84488 2.42715 -2.13381 -6.02465 -0.0430248 -0.0585174 -0.124614 -0.0235289 0.00343004 -1.31243 0.00283033 -0.00579886 -0.189938 -1.1306e-05 -2.2266e-06 -1.76895e-05 
26.982 1 338 17.8484 14.334 4.91886 0.988949 -0.594565 -1.52124 0.0198649 0.0727448 -0.308551 -0.00467282 -0.0108186 -0.142416 -0.000588995 -0.0012494 -0.0209905 2.58859e-06 -1.9529e-06 -7.17472e-06 
26.982 1 138 17.9462 14.5583 0.901182 1.92918 3.53631 0.186515 0.034928 -0.623661 -0.319825 -0.0409636 0.00422748 -0.818633 -0.00337757 0.000347506 -0.150356 -7.03773e-06 -1.11606e-05 -5.95478e-05 
26.982 1 341 20.4947 12.3618 4.50275 -1.31519 -1.64157 -0.928521 -0.197837 0.000869571 0.0719643 -0.00217627 -0.00573669 -0.1479 -0.000319016 -0.000763144 -0.0225023 -2.60538e-06 -1.57752e-06 -1.11939e-07 
26.982 1 144 20.1697 14.6445 2.84204 0.426833 4.74966 -0.380569 0.0969276 -0.452763 -0.0893011 -0.163624 -0.032755 -1.13462 -0.0220889 -0.0120816 -0.161123 2.51228e-06 -6.24873e-06 -1.01958e-05 