ITEM: TIMESTEP
9500
ITEM: NUMBER OF ATOMS
4000
ITEM: BOX BOUNDS pp pp pp
-2.00499 42.505
0.546139 39.9539
0.55451 39.9455
ITEM: ATOMS mass type id x y z vx vy vz fx fy fz xrad yrad zrad vxrad vyrad vzrad fxrad fyrad fzrad 
26.982 1 43 0.29071 4.61076 2.41963 1.7752 6.77829 5.30395 -0.22323 0.130124 0.0783774 -0.341201 -0.218332 -0.507196 -0.0724254 -0.0361888 -0.103454 -8.84576e-06 -1.31974e-05 -2.51484e-05 
26.982 1 202 0.207292 2.63977 4.42464 2.17158 -1.0402 -3.10903 -0.486819 -0.114544 -0.0368754 -0.323717 -0.306287 -0.290114 -0.0705771 -0.0566971 -0.0625029 -1.28301e-05 -7.5387e-06 -8.36402e-06 
26.982 1 4 -2.01946 2.5611 2.46882 -0.849103 1.84187 -0.659815 0.0200588 0.272894 0.133742 -0.332077 -0.410451 -0.458003 -0.079464 -0.0802143 -0.0899619 -3.98329e-05 -1.9177e-05 -3.20142e-05 
26.982 1 8 2.23198 2.25594 2.48182 1.60974 2.32804 1.32543 0.324546 0.715563 -0.313747 0.122432 -0.50658 -0.504111 0.0177795 -0.102995 -0.114954 -3.57065e-06 -1.52946e-05 -3.90766e-05 
26.982 1 205 2.41924 0.604475 4.50927 -4.00481 1.88209 -4.41183 0.345831 0.269927 0.268795 0.0338312 -0.342864 -0.294717 0.00495822 -0.104856 -0.0871212 5.73589e-06 -4.04352e-05 -2.15587e-05 
26.982 1 241 -2.05593 4.54253 4.41495 2.71824 2.08191 -0.372818 0.209016 0.0473536 0.313886 -0.309808 -0.314208 -0.343976 -0.0541469 -0.0518988 -0.0598957 -3.01161e-05 -1.39511e-05 -1.22016e-05 
26.982 1 201 -2.11602 0.551495 4.45157 1.96615 -5.94084 -1.68013 0.345726 0.348993 0.149806 -0.186862 -0.354524 -0.430067 -0.0465527 -0.0788548 -0.0974811 -2.80565e-05 -2.39711e-05 -3.37262e-05 
26.982 1 3 0.0339579 0.631474 2.43722 2.40623 -2.61541 2.85747 -0.0473654 -0.0327454 0.0123181 -0.26282 -0.618625 -0.351498 -0.0490501 -0.118972 -0.0907983 -4.90286e-06 -4.80998e-05 -4.17325e-05 
26.982 1 41 -2.07631 4.60264 0.646614 -5.73456 1.8877 1.81399 0.220393 0.155707 -0.329857 -0.170772 -0.224472 -0.437592 -0.0365487 -0.03945 -0.0862294 -2.71281e-05 -9.33418e-06 -4.64497e-05 
26.982 1 45 2.34922 4.49805 0.567708 -5.3791 1.25494 -3.76652 0.0462636 -0.024763 -0.0228838 -0.0219122 -0.100726 -0.513692 -0.00162687 -0.0137124 -0.122273 -7.95839e-06 -1.61851e-05 -5.99063e-05 
26.982 1 245 2.3445 4.41329 4.43854 -1.3259 -5.02004 4.63036 0.189682 0.424427 -0.19607 -0.0236637 -0.0568813 -0.0718915 -0.00512608 -0.00942971 -0.0152202 2.96089e-06 3.87155e-06 -6.07353e-06 
26.982 1 47 4.59304 4.58457 2.43948 6.15384 5.58282 -4.39499 -0.20514 -0.148364 0.391581 -0.0499415 -0.139481 -0.465837 -0.00450401 -0.0196852 -0.109282 -7.62181e-06 -7.50611e-06 -6.70113e-06 
26.982 1 206 4.62872 2.72816 4.57123 0.670857 4.43256 -0.835139 -0.240459 -0.525822 -0.42536 -0.0314831 -0.498372 -0.28906 -0.00116052 -0.0891535 -0.0577509 -6.83775e-06 -1.72485e-05 -6.7208e-06 
26.982 1 12 6.87432 2.55393 2.58411 0.541594 -0.586827 3.27292 -0.255407 -0.0379395 -0.278807 -0.111305 -0.614688 -0.399568 -0.0218286 -0.11353 -0.0953757 1.10792e-05 -3.37553e-05 -2.80466e-05 
26.982 1 6 4.53133 2.5181 0.78943 3.9689 3.17612 -2.76355 0.127324 0.301116 -0.976058 -0.100968 -0.308568 -0.482491 -0.0124323 -0.075646 -0.109106 4.06452e-09 -2.33598e-05 -6.62611e-05 
26.982 1 7 4.71854 0.634243 2.49738 -2.87879 5.55017 -1.25195 -0.248921 -0.577255 0.746091 -0.0479488 -0.0443271 -0.534032 -0.0155034 -0.0284978 -0.11346 2.9344e-06 -6.25992e-05 -1.88891e-05 
26.982 1 49 6.80139 4.56763 0.543998 -0.65287 -1.57769 -0.791841 -0.0374276 -0.408197 -0.124752 -0.0469614 -0.0812362 -0.724915 -0.0100029 -0.0113536 -0.138578 1.55891e-05 -4.45397e-06 -6.57335e-05 
26.982 1 249 6.8124 4.68651 4.20488 -1.19442 0.0731319 3.72961 0.151432 -0.0672431 0.508002 -0.00484874 -0.0506427 -0.0514306 -0.00102699 -0.00899143 -0.0125536 7.52003e-06 -1.89965e-06 6.02375e-06 
26.982 1 209 6.91355 0.590811 4.56246 -0.92408 4.01472 -3.16947 -0.191174 0.266749 -0.245845 -0.0306371 -0.463783 -0.419917 -0.00421452 -0.109534 -0.0913588 9.84529e-06 -3.99076e-05 -3.30337e-05 
26.982 1 51 9.07841 4.53425 2.34544 0.98984 2.41014 -2.10946 0.114294 -0.172881 0.0752456 0.00612727 -0.0549701 -0.363207 0.00102747 -0.00884157 -0.0861449 1.73214e-05 9.3277e-06 -3.70155e-05 
26.982 1 210 9.08408 2.69169 4.31141 4.15517 -2.01625 3.21244 0.135804 -0.00155791 0.503715 0.0141959 -0.426839 -0.224382 0.00879875 -0.085804 -0.0448671 5.8675e-06 -2.23418e-05 -1.08486e-05 
26.982 1 10 9.07659 2.3994 0.512428 3.3829 -0.698229 -0.055192 0.134206 0.0622923 0.0911379 -0.00180298 -0.391945 -0.722795 0.000741124 -0.0775382 -0.15502 1.07033e-05 -2.75609e-05 -4.17964e-05 
26.982 1 16 11.4061 2.50417 2.58113 7.65753 -1.93748 -0.0920562 -0.201806 0.484087 -0.277787 0.125601 -0.586083 -0.441872 0.0215841 -0.120561 -0.0956864 -5.51334e-07 -2.51415e-05 -3.97102e-05 
26.982 1 253 11.3017 4.71164 4.47196 -0.414937 -3.87731 0.452354 -0.196515 -0.38795 0.220165 0.00496348 -0.0552992 -0.0550447 0.000938533 -0.0118385 -0.0130426 -6.16113e-06 -6.1865e-06 3.49083e-07 
26.982 1 55 13.4851 4.37567 2.59021 -3.81797 0.150913 -3.96097 0.346195 0.355399 0.167315 0.00780377 -0.154076 -0.519498 0.00414512 -0.0245562 -0.115503 6.97105e-06 1.17234e-05 -3.79588e-05 
26.982 1 214 13.6229 2.58162 4.74257 0.525693 2.43334 -1.42589 -0.19584 -0.156914 -0.43943 0.0544016 -0.496928 -0.255265 0.00229295 -0.0967128 -0.0514636 -4.52326e-06 -2.01592e-05 -2.22711e-05 
26.982 1 14 13.6281 2.61996 0.570688 0.864815 -2.47354 2.46923 -0.168671 -0.21962 -0.417699 0.0334012 -0.370656 -0.365595 0.00692147 -0.0722118 -0.0956225 1.06215e-06 -1.82837e-05 -4.81779e-05 
26.982 1 217 15.7267 0.41031 4.66517 -0.694813 -5.39305 2.34758 0.358482 0.81009 -0.121412 0.00796176 -0.206137 -0.176119 0.00472349 -0.069749 -0.0584276 1.7282e-06 -3.5471e-05 -5.09191e-05 
26.982 1 213 11.2863 0.681609 4.44332 6.33536 4.08782 4.27735 0.227598 -0.462104 0.468705 -0.00730839 -0.407231 -0.397864 0.00166567 -0.0780526 -0.0774902 1.11592e-06 -5.15365e-05 -2.896e-05 
26.982 1 257 15.8225 4.39969 4.62036 5.27723 10.406 4.93604 -0.0318801 0.517211 -0.345343 -0.00472538 -0.0664259 -0.0576478 -0.000285044 -0.011849 -0.0146631 -2.02948e-06 4.43177e-06 -1.28937e-05 
26.982 1 20 15.753 2.58068 2.60173 0.503502 -0.209659 -3.48231 0.24475 -0.344013 -0.0469022 -0.180188 -0.618962 -0.40761 -0.0220916 -0.117061 -0.100005 2.00298e-06 -3.14925e-05 -3.71588e-05 
26.982 1 218 18.0822 2.54789 4.53905 -1.75673 -0.446926 -4.21414 -0.108373 0.0754987 0.0523615 -0.048423 -0.467063 -0.175534 -0.00270845 -0.0952446 -0.0439367 5.86359e-06 -3.65366e-05 -2.1893e-05 
26.982 1 59 18.0646 4.49687 2.52842 -1.02853 -0.164397 7.81702 -0.265496 -0.0836198 -0.179916 0.0188917 -0.0142248 -0.392318 0.00189588 -0.00387007 -0.0997425 -6.08657e-06 8.7324e-06 -5.27245e-05 
26.982 1 18 18.2021 2.38929 0.840485 -2.42192 -1.56329 -0.160495 -0.322447 0.0951926 -0.306966 -0.0401174 -0.326295 -0.774816 -0.00655756 -0.0683522 -0.144635 1.06672e-08 -2.44305e-05 -4.67083e-05 
26.982 1 24 20.3548 2.59221 2.66669 -4.22322 4.59709 -0.973103 -0.0739768 -0.29097 -0.552464 0.0504783 -0.472781 -0.325385 0.00872332 -0.103313 -0.0829109 1.1735e-05 -4.57299e-05 -4.2934e-05 
26.982 1 261 20.2259 4.46787 4.45927 -1.45068 0.371369 -1.49761 0.221889 -0.171196 1.04684 0.00346405 -0.0490628 -0.0585209 0.00079241 -0.0108464 -0.0150584 5.39132e-06 -5.75499e-06 5.24993e-06 
26.982 1 63 22.6566 4.50033 2.58587 -1.56838 -1.82749 -3.09096 -0.388647 -0.524705 -0.92572 0.020243 -0.00537911 -0.500581 0.00792343 -0.00423383 -0.120927 -4.79204e-06 -1.26159e-05 -6.93242e-05 
26.982 1 222 22.3618 2.55864 4.51794 2.47207 6.32497 1.0986 0.424828 -0.156221 0.284107 -0.0298578 -0.409275 -0.204815 -0.000993372 -0.0922339 -0.0485163 -1.40648e-06 -3.83874e-05 -2.09692e-05 
26.982 1 28 24.7777 2.31505 2.67563 2.75099 -1.2818 -2.06795 0.215587 0.37789 -0.124429 -0.0566479 -0.359793 -0.448188 -0.00630657 -0.0849085 -0.109239 -1.43299e-05 -3.21285e-05 -5.15833e-05 
26.982 1 225 24.6915 0.398635 4.6338 -2.40881 -1.56913 -1.80502 -0.0811943 0.0392836 0.00752934 -0.0382656 -0.464037 -0.315848 -0.0028078 -0.0807119 -0.0622528 -7.55838e-06 -4.45017e-05 -4.85807e-05 
26.982 1 265 24.7813 4.42937 4.40254 0.728957 0.695136 -0.0320542 -0.0592372 -0.126716 0.439912 -0.000680932 -0.0388267 -0.0696104 -9.94593e-05 -0.0101194 -0.0184695 -8.39326e-07 -4.37341e-06 -1.16317e-06 
26.982 1 67 26.8739 4.31076 2.61533 5.56823 2.89905 5.603 0.319953 -0.0674474 -0.563362 0.0213974 0.00289931 -0.59608 0.0042989 -0.00297623 -0.146582 2.56451e-06 3.06584e-06 -4.99181e-05 
26.982 1 226 26.9278 2.36244 4.61431 -2.45079 6.28485 -2.8446 -0.0499564 0.201953 -0.160528 0.023977 -0.306074 -0.117217 -0.00124457 -0.0742599 -0.0351411 1.74478e-05 -3.03867e-05 -2.74909e-05 
26.982 1 26 27.0083 2.4077 0.592393 -1.31759 -3.9283 -0.987302 -0.170996 0.170083 -0.096188 -0.0527946 -0.214493 -0.618537 -0.015377 -0.0479064 -0.111232 -2.58711e-06 -1.74846e-05 -4.39843e-05 
26.982 1 32 29.3016 2.50604 2.38282 -0.884149 2.07888 -3.04088 -0.541541 0.623224 0.598887 0.00913318 -0.354896 -0.468456 0.00198107 -0.0690904 -0.116241 -3.92357e-06 -2.22578e-05 -3.53978e-05 
26.982 1 269 29.0947 4.39594 4.54328 -6.08944 -0.683833 -0.143634 0.0201391 -0.157462 0.176839 -0.00332694 -0.037902 -0.0735012 -0.00071718 -0.00874766 -0.0196655 -6.03526e-07 -6.3869e-06 -4.12394e-06 
26.982 1 71 31.4983 4.56893 2.61677 0.807016 2.15792 -2.40348 -0.301783 -0.346239 -0.532941 -0.0525662 0.0011721 -0.483963 -0.0137049 -0.0026688 -0.131545 -1.61522e-05 -2.89543e-06 -5.34666e-05 
26.982 1 230 31.3761 2.64766 4.45898 5.16845 -0.0569281 -1.03774 0.0116377 -0.503366 0.0585103 -0.041009 -0.357684 -0.165764 -0.00342819 -0.0783693 -0.0415843 -1.15247e-05 -2.03872e-05 -6.31083e-06 
26.982 1 273 33.673 4.52055 4.446 -0.724675 4.50279 0.684445 -0.213006 -0.209751 -0.0289262 0.00148762 -0.0278752 -0.0567828 -0.000246549 -0.00788232 -0.0151817 -2.37643e-06 -3.84281e-06 -1.79193e-06 
26.982 1 31 31.1442 0.4692 2.74621 5.00807 7.04267 -1.93507 0.63358 -0.0719051 -0.163956 -0.0951662 -0.546065 -0.425075 -0.0108602 -0.0993413 -0.0970462 -1.00516e-05 -4.63419e-05 -3.06672e-05 
26.982 1 36 33.5974 2.51292 2.46802 3.6162 -2.74602 3.50716 -0.167041 0.273637 0.312756 -0.0337491 -0.363046 -0.442811 -0.00758874 -0.0880931 -0.110186 -4.47251e-06 -3.69021e-05 -3.89375e-05 
26.982 1 233 33.5763 0.477458 4.37839 2.07919 4.23675 1.05856 -0.225577 0.085011 0.149798 -0.0106355 -0.515614 -0.277994 -0.00116885 -0.09658 -0.0610456 4.95774e-06 -4.13925e-05 -3.65923e-05 
26.982 1 73 33.6371 4.59116 0.581092 -1.13197 3.49211 -0.759749 -0.163693 -0.208768 -0.0155785 0.0966151 -0.0446129 -0.665228 0.00962208 -0.0107669 -0.123575 -1.47162e-05 7.40138e-06 -6.54305e-05 
26.982 1 75 35.6995 4.50706 2.50192 -4.18676 -2.36396 -1.01149 0.483858 -0.42103 -0.0570639 0.0981137 -0.00626074 -0.574521 0.0100198 -0.00859928 -0.125066 1.02682e-05 4.09891e-06 -2.80519e-05 
26.982 1 234 35.7879 2.45352 4.4315 0.893918 -4.50333 -4.0072 0.173854 0.569545 0.438667 0.0162305 -0.253825 -0.109747 -0.000779736 -0.0650745 -0.0329643 6.32634e-06 -1.86704e-05 -1.8211e-05 
26.982 1 77 38.129 4.456 0.649597 1.81241 2.68903 -0.296443 -0.317136 -0.0693557 -0.128858 -0.00972568 -0.0248341 -0.211347 -0.00173491 -0.00523649 -0.0726972 -4.10223e-06 1.00158e-05 -5.85845e-05 
26.982 1 277 38.099 4.59068 4.21931 2.89052 -0.429161 -3.78301 -0.106765 -0.0903203 0.527964 0.00617814 -0.0348826 -0.0870415 0.000800637 -0.00772035 -0.0177208 -2.27099e-06 -5.20945e-06 5.61602e-06 
26.982 1 34 35.851 2.51621 0.367953 2.98235 1.63311 -2.85249 0.0700266 0.465831 0.661716 0.0723864 -0.145935 -0.634813 0.00584649 -0.0523016 -0.122878 -4.82085e-07 -3.27133e-05 -4.08829e-05 
26.982 1 40 38.0239 2.42277 2.62923 3.79527 -0.438379 4.57025 0.217739 0.00403843 -0.199583 0.186671 -0.357816 -0.624142 0.0160719 -0.0827849 -0.124129 3.21192e-06 -4.32962e-05 -2.76832e-05 
26.982 1 237 38.1146 0.527651 4.71888 -4.65857 2.51516 1.63363 -0.0185802 -0.0176704 -0.866987 0.0916363 -0.480827 -0.34498 0.00912573 -0.10141 -0.0742388 3.62408e-06 -3.83357e-05 -5.06813e-05 
26.982 1 79 40.3349 4.66669 2.54144 3.51599 -1.81145 3.68458 -0.106639 -0.152282 -0.0134696 -0.0660417 -0.108841 -0.627816 -0.00579987 -0.00693782 -0.130327 -2.0035e-06 5.40852e-06 -2.40248e-05 
26.982 1 238 40.4292 2.58705 4.53657 -2.45443 3.46815 1.94946 -0.486956 -0.244827 -0.116341 -0.00238701 -0.398703 -0.258813 0.000147782 -0.0800489 -0.0480327 -1.00378e-05 -2.26824e-05 -2.00776e-05 
26.982 1 38 40.2338 2.58893 0.429352 -3.35669 1.58818 1.72524 0.109266 0.061871 0.108174 0.0129635 -0.225799 -0.412186 0.00161318 -0.0439132 -0.116197 2.59478e-06 -3.59504e-05 -4.05745e-05 
26.982 1 83 0.148219 8.5944 2.35127 0.19376 -0.580202 -1.52432 0.193791 -0.419636 0.0630822 -0.404787 -0.122995 -0.488258 -0.0832939 -0.0295107 -0.107819 -1.18349e-05 -8.66981e-06 -1.99903e-05 
26.982 1 242 0.21984 6.54388 4.45038 4.42849 5.15458 -1.43213 0.0758563 0.00454365 0.029374 -0.411973 0.0152792 -0.229694 -0.0814035 -0.00602591 -0.0461385 -2.10181e-06 -9.81159e-07 -3.06951e-06 
26.982 1 84 -1.93564 10.4533 2.41893 -3.56654 -2.71164 3.63009 -0.359677 -0.129322 -0.501927 -0.448331 -0.12582 -0.633119 -0.0978705 -0.0310948 -0.123094 -5.66214e-05 1.62443e-05 -2.57447e-05 
26.982 1 281 -1.97187 8.75964 4.50954 3.29123 0.874275 -3.4217 -0.315573 -0.719038 -0.405924 -0.239776 -0.237115 -0.275251 -0.0640611 -0.0604976 -0.0707175 -3.11512e-05 -2.30475e-05 -1.79667e-05 
26.982 1 44 -1.87796 6.62092 2.71302 1.25788 0.152348 -2.20555 -0.322163 0.117755 -0.658962 -0.0348972 -0.392352 -0.510593 -0.0227403 -0.0737955 -0.110648 -5.08221e-05 9.09284e-06 -3.01135e-05 
26.982 1 42 0.323217 6.63317 0.25843 -0.119192 -0.764327 4.07367 -0.341681 -0.369788 0.985533 -0.355803 -0.110313 -0.572907 -0.0771103 -0.0190162 -0.120014 -2.12963e-05 -1.65114e-07 -5.41917e-05 
26.982 1 285 2.44157 8.48671 4.67313 -5.78421 -4.58863 1.10135 0.193113 0.422703 -0.657753 -0.0423474 -0.00300671 -0.0543846 -0.00690351 -0.00100666 -0.010625 4.93814e-06 5.99537e-06 -1.07438e-05 
26.982 1 85 2.32948 8.58816 0.409003 2.32452 0.517006 1.40495 0.770886 0.0194897 0.234897 -0.0158243 0.0256373 -0.633837 -0.00644015 -0.00859314 -0.156847 4.90058e-06 3.5948e-06 -6.1213e-05 
26.982 1 48 2.4618 6.58462 2.4862 2.22179 0.846597 1.47177 -0.119802 0.0818041 0.103575 -0.100904 -0.0333621 -0.46795 -0.0136913 -0.00934537 -0.100626 -4.80418e-06 3.00666e-06 -6.71905e-06 
26.982 1 87 4.56437 8.61903 2.43036 -2.00541 -2.44685 -0.40679 0.147059 -0.422339 0.434833 -0.00496468 0.00368143 -0.412037 0.000810837 -0.0101972 -0.0880301 -8.48456e-07 -4.87453e-06 -1.54204e-06 
26.982 1 246 4.60764 6.39039 4.54334 4.24803 3.55463 1.90696 -0.0788713 0.596763 -0.501962 -0.00123689 -0.00225586 -0.0423949 -9.48924e-05 -0.000701486 -0.0111988 -2.00276e-06 1.05746e-05 -6.73367e-06 
26.982 1 88 2.37018 10.3772 2.4615 -0.744108 -0.543285 -0.164533 0.198135 0.160087 0.433462 -0.12002 -0.0355551 -0.456859 -0.0224633 -0.00188342 -0.087544 2.64093e-06 1.96152e-05 -1.71206e-05 
26.982 1 46 4.67207 6.5253 0.627279 1.55589 4.34467 -3.47052 -0.273152 0.347649 -0.739033 -0.0306135 0.00378807 -0.798787 -0.00197954 -0.00317209 -0.130822 -5.14299e-06 4.31994e-06 -6.8042e-05 
26.982 1 289 6.84807 8.35117 4.48574 0.0643354 -1.13303 2.27227 -0.136156 0.0627728 -0.253783 0.00301434 0.000959625 -0.0485093 0.000689723 -7.19649e-05 -0.010123 -2.85798e-06 4.2089e-08 -4.37557e-06 
26.982 1 89 6.85878 8.71235 0.593652 0.217297 5.43095 1.34663 -0.0368174 -0.852642 -0.335303 0.0175032 0.0667033 -0.623403 0.00530394 -0.000705703 -0.148492 9.3017e-06 -1.95734e-05 -6.32082e-05 
26.982 1 52 6.75321 6.57476 2.32122 -0.321866 -4.64628 1.62148 0.176129 0.342731 0.441027 0.00891296 0.0220994 -0.394444 -0.00366586 -0.0028729 -0.093409 1.64228e-05 6.36099e-06 -1.74634e-05 
26.982 1 91 9.1904 8.37241 2.41962 5.33325 8.75402 -0.134148 -0.287717 0.619217 0.197791 0.0556643 0.0610221 -0.527528 0.0120236 0.010403 -0.109231 -5.66137e-06 -1.95996e-05 -2.99815e-05 
26.982 1 250 8.93663 6.5366 4.31165 0.474751 -1.37964 -2.59398 0.449189 -0.397781 0.509391 0.00274383 0.00250292 -0.0406749 0.000520731 0.000357025 -0.00996273 1.13174e-05 -9.47214e-06 6.53341e-06 
26.982 1 290 9.16685 10.1986 4.4121 -1.62518 0.457099 1.56002 -0.0377798 0.0722163 0.510751 0.00473711 0.00230449 -0.0633502 0.00120564 0.000434967 -0.0133315 -5.89729e-07 1.43943e-06 1.09937e-05 
26.982 1 90 9.12027 10.3216 0.506663 4.3591 -2.58422 2.44335 0.450641 0.250454 -0.104788 0.0456761 -0.0180797 -0.506916 0.0118916 -0.00215388 -0.108597 1.22244e-05 2.22656e-06 -6.47217e-05 
26.982 1 293 11.3201 8.35307 4.1732 -0.275996 1.66108 3.10671 0.257399 -0.550731 0.959345 -0.00016481 0.00602495 -0.0653202 0.000364615 0.00143861 -0.0142759 4.77843e-06 -7.64289e-06 1.17657e-05 
26.982 1 56 11.417 6.33256 2.2772 3.25482 -0.840858 -1.68467 -0.1168 0.155844 0.442275 0.0288831 0.0771014 -0.481836 0.00640834 0.011012 -0.107095 3.26937e-06 -1.48734e-05 -4.61509e-05 
26.982 1 95 13.8075 8.41221 2.64961 4.8019 -1.09852 2.75502 -0.390667 -0.0805882 -0.943043 -0.0351407 0.0454266 -0.574696 -0.000498957 0.0114959 -0.129678 4.26392e-06 -5.23369e-07 -6.05319e-05 
26.982 1 254 13.5529 6.48231 4.48965 -1.59269 3.60558 2.30229 0.0608272 -0.399907 -0.459013 0.0010492 0.000137801 -0.0531978 0.000311382 0.000161515 -0.0130139 7.67655e-07 -6.76015e-06 -1.29104e-05 
26.982 1 294 13.7826 10.2714 4.4192 0.45106 1.22282 -2.99135 -0.392998 0.744283 0.456156 0.000622941 0.00570847 -0.0707106 -4.32642e-05 0.00053563 -0.0162472 -7.3063e-06 1.22872e-05 -2.78774e-06 
26.982 1 100 16.0342 10.4731 2.38458 -1.44935 2.19056 -0.613664 -0.241749 0.15421 0.557095 0.00483999 0.0555135 -0.620838 -0.0046256 -0.000298755 -0.131422 -7.39554e-07 -2.19626e-05 -4.67555e-05 
26.982 1 93 11.4398 8.41963 0.5813 1.16419 -5.35095 -1.03384 0.0753186 0.0762715 -0.323971 0.0801482 0.0336564 -0.387419 0.0177121 0.00492684 -0.0957716 1.91214e-05 -1.04124e-05 -6.52448e-05 
26.982 1 60 15.8109 6.45888 2.60393 -0.463713 -4.55872 -2.64191 0.119092 -0.312703 -0.255631 -0.0173068 0.033401 -0.464504 -0.00162678 0.00551075 -0.114837 1.71853e-06 -6.4542e-06 -5.97228e-05 
26.982 1 297 15.9104 8.41079 4.47156 5.54196 1.18817 3.47125 0.546885 -0.0591818 0.0126335 0.000275849 0.00521864 -0.061462 2.5313e-05 0.000976365 -0.0148744 1.27626e-05 -1.35364e-06 -1.10168e-05 
26.982 1 99 18.1847 8.33778 2.45504 -1.54452 1.28307 -3.1469 -0.0520454 -0.0706458 0.497902 -0.0299831 0.0615814 -0.49582 -0.00796861 0.00604747 -0.113854 -8.34388e-07 3.1047e-07 -5.49356e-05 
26.982 1 258 18.0257 6.24193 4.53235 3.36015 -0.728405 -0.587283 -0.147962 0.931755 -0.0844321 0.000860493 0.00261011 -0.0476756 0.000218914 0.000159703 -0.0125269 -1.77055e-06 1.71336e-05 -9.50449e-06 
26.982 1 64 20.2654 6.34079 2.75469 5.72985 3.56186 1.69401 0.207786 0.388666 -1.02699 0.0399915 -0.0256928 -0.471649 0.00652177 -0.00582234 -0.111983 5.01779e-06 7.25725e-06 -6.48861e-05 
26.982 1 104 20.4652 10.3635 2.38592 -4.42299 1.54552 2.61978 -0.411098 0.266895 0.193881 0.024817 0.063485 -0.587566 0.00309196 0.00970956 -0.123514 -8.03886e-06 1.60226e-06 -5.76466e-05 
26.982 1 301 20.5495 8.46604 4.32541 4.64339 0.716213 1.11577 -0.231821 0.212308 0.597769 0.00191546 0.00397099 -0.054108 0.000283518 0.000427393 -0.0129912 -6.29587e-06 2.11502e-06 -3.77484e-07 
26.982 1 103 22.6443 8.48871 2.52642 -0.739997 -2.99533 2.46663 0.163207 -0.00951397 0.361454 0.0299369 0.0467646 -0.55992 0.0052671 0.00297018 -0.121194 -1.14525e-05 -7.10927e-06 -4.31106e-05 
26.982 1 262 22.653 6.2402 4.43103 5.52473 2.93868 1.39157 -0.156531 0.978357 0.627638 0.00237041 -0.000456496 -0.0602095 0.000647447 -0.000636401 -0.0147681 -9.00092e-07 1.45911e-05 1.12221e-06 
26.982 1 105 24.6029 8.51723 0.460596 -0.858097 -2.83481 -2.53462 0.492959 0.26856 0.23642 -0.00911385 -0.0344948 -0.595733 0.0062765 -0.0032282 -0.120571 3.69641e-06 1.69051e-06 -5.75168e-05 
26.982 1 305 24.9661 8.41574 4.45072 -2.84929 3.10206 -2.83148 -0.311585 0.0940879 -0.343439 -0.000130197 0.00121373 -0.0638506 0.000123493 -3.89918e-05 -0.0150961 -5.04006e-06 2.24057e-06 -1.16271e-05 
26.982 1 68 24.7014 6.45885 2.34163 -0.990843 -5.26213 -1.65596 0.347954 0.154545 0.235219 0.0240308 -0.014872 -0.576125 0.00618607 -0.00991184 -0.135651 4.38444e-06 -1.0539e-05 -4.73313e-05 
26.982 1 107 27.1414 8.27158 2.40602 -2.2158 3.28276 3.86999 -0.329726 0.554596 0.181068 0.07416 -0.0700505 -0.596212 0.0113916 -0.0102094 -0.136267 1.52377e-06 2.10009e-06 -5.49946e-05 
26.982 1 266 26.9219 6.29426 4.3804 1.18914 3.40842 -2.28995 0.180257 0.322077 0.517947 0.0016868 0.001936 -0.0732631 0.000149961 -7.997e-05 -0.0179545 4.41624e-06 5.44142e-06 -8.92223e-07 
26.982 1 306 27.0509 10.3484 4.20082 1.9265 0.669077 -2.83034 -0.275763 -0.121536 0.284413 -0.000245499 -0.00278513 -0.0561448 0.000166615 -0.000371357 -0.0149856 -5.84681e-06 -4.97064e-06 -7.85344e-06 
26.982 1 72 29.0931 6.23022 2.61349 -1.51485 3.91927 3.96834 0.28546 0.437136 -0.414898 -0.0397468 0.0436192 -0.656792 -0.00351549 -0.00203081 -0.154133 5.97603e-06 3.57936e-06 -6.09145e-05 
26.982 1 309 29.1955 8.43737 4.46429 -2.43847 2.85581 3.87173 0.0334752 -0.244643 -0.0794663 -0.00241772 -0.0021948 -0.0775008 -0.000481802 -0.000533745 -0.0176037 -2.02072e-06 -5.28284e-06 -7.58656e-06 
26.982 1 112 29.2564 10.3932 2.31405 0.337836 5.96358 -2.30298 -0.194613 0.479848 0.329052 -0.0406678 -0.0970872 -0.486319 -0.0106382 -0.0104495 -0.11969 -1.6275e-05 -1.26075e-05 -3.80034e-05 
26.982 1 111 31.4237 8.42042 2.45299 -2.21235 0.249717 -3.08167 -0.152639 -0.0474337 0.0659629 -0.0568227 -0.0763739 -0.539736 -0.00857029 -0.0190696 -0.126142 -3.15675e-06 -1.86966e-05 -4.88779e-05 
26.982 1 270 31.4056 6.49984 4.40479 -0.387417 3.44753 -0.0536722 -0.117324 0.20437 0.412007 -0.00235474 0.00321212 -0.0643015 -0.000651754 0.000247008 -0.0170102 -4.41585e-06 3.52995e-06 -3.15707e-06 
26.982 1 110 31.4981 10.6001 0.545052 -5.43469 -3.02406 1.82873 -0.243966 -0.30833 -0.298081 0.0382169 -0.068296 -0.941372 0.00395589 -0.00853177 -0.173834 -6.52503e-06 -2.60501e-05 -6.53391e-05 
26.982 1 313 33.6798 8.61213 4.52938 -1.3727 5.33217 -1.86376 -0.0231096 -0.675644 -1.05943 -0.000183962 -0.000205704 -0.0587928 -0.000617061 -0.000198067 -0.0139769 6.8767e-07 -1.00435e-05 -2.11912e-05 
26.982 1 76 33.6541 6.49152 2.51528 -2.57126 5.93718 0.524802 -0.0500721 0.200068 0.617062 0.0185621 0.0358154 -0.530148 -0.00482157 0.00385455 -0.124387 1.51268e-07 2.34764e-05 -4.31134e-05 
26.982 1 116 33.4466 10.5008 2.39291 -3.15039 3.01131 5.412 0.543999 -0.215882 0.212625 0.0618075 0.0380697 -0.52081 0.00828292 0.00645941 -0.117508 1.02042e-05 -1.75342e-05 -2.09006e-05 
26.982 1 115 35.833 8.65792 2.46272 1.26233 -0.102571 -0.0381142 -0.216254 -0.299801 0.24012 -0.0955816 -0.0205216 -0.469263 -0.0190346 -0.00283562 -0.10365 -1.482e-05 -1.80985e-05 -2.70909e-05 
26.982 1 274 35.8704 6.48244 4.4217 -1.89225 -0.606311 3.90143 -0.0369653 0.107794 -0.0127216 0.00264515 -0.00447588 -0.0598914 -7.26345e-05 -0.000987806 -0.0132383 9.94915e-07 1.93803e-06 -5.85609e-06 
26.982 1 314 35.7375 10.457 4.58444 0.819612 1.77431 1.86926 0.307134 -0.128483 -0.428626 -0.00147181 0.00304714 -0.0582338 -0.000436918 0.000733659 -0.0129601 5.09891e-06 -9.64151e-07 -1.04e-05 
26.982 1 80 38.0121 6.54183 2.30459 3.22759 -6.32862 -1.39167 0.143442 0.178378 0.382409 -0.00294166 -0.174401 -0.515099 0.00518667 -0.0294892 -0.111036 -2.27512e-06 8.39021e-07 -2.70093e-05 
26.982 1 117 37.9737 8.57161 0.53237 -2.85294 0.816477 2.22261 -0.259092 0.101688 -0.120836 0.0487562 0.0301316 -0.991972 0.0115375 -5.74098e-05 -0.200852 -4.68745e-06 -1.85547e-05 -6.39725e-05 
26.982 1 114 35.7952 10.4067 0.385787 -2.99292 4.02303 3.58911 -0.211232 0.184858 0.148007 -0.0385753 0.0572981 -0.60724 -0.00622359 0.00866267 -0.12318 -3.15615e-06 6.49327e-06 -5.73971e-05 
26.982 1 317 37.9848 8.35897 4.57114 -4.99073 1.58493 1.55394 0.116935 0.394217 -0.508788 0.00194711 -0.00258083 -0.0403635 0.000588781 -0.000568357 -0.00926294 2.76601e-06 4.0233e-06 -9.46496e-06 
26.982 1 119 40.1717 8.48972 2.37491 5.64152 -2.25134 -0.753301 0.272568 0.0197612 0.396379 0.116098 0.0512664 -0.518765 0.0233656 -0.0016077 -0.115154 8.92886e-06 -1.68818e-05 -1.84662e-05 
26.982 1 278 40.3112 6.77271 4.48499 1.77804 -0.642661 -2.07654 0.0919177 -0.377647 -0.028197 0.150707 -0.150104 -0.0728567 0.0276378 -0.0268404 -0.0175856 1.08084e-05 -1.49812e-05 -6.41887e-06 
26.982 1 118 40.1565 10.3226 0.406557 1.59694 2.72386 2.34422 0.419356 0.735635 0.482803 0.125248 -0.0173552 -0.302845 0.0189603 2.64748e-05 -0.0892418 4.99405e-06 2.28604e-05 -6.01604e-05 
26.982 1 81 42.4705 8.51204 0.465977 -4.68294 5.98931 5.94924 0.0177987 -0.127685 0.167933 -0.207102 -0.142249 -0.45025 -0.0310287 -0.029498 -0.0955957 -1.00187e-05 -1.61947e-05 -5.81871e-05 
26.982 1 282 0.289295 10.3947 4.4839 0.512731 3.21977 -0.427106 0.0796878 0.658929 -0.126503 -0.368268 -0.00714683 -0.162485 -0.07064 0.00448293 -0.0327468 -1.29389e-05 2.00198e-05 -2.63481e-06 
26.982 1 123 0.173393 12.425 2.55155 1.32895 2.33899 -0.703736 0.186027 0.164696 0.306289 -0.412044 -0.134356 -0.507377 -0.0824804 -0.0192074 -0.105579 -1.19587e-05 1.82541e-05 -2.4442e-05 
26.982 1 322 0.203421 14.433 4.70971 3.25844 1.51542 3.30412 -0.0622771 -0.405873 -0.631842 -0.249861 -0.0984671 -0.126849 -0.0514827 -0.0190556 -0.0259635 -1.48384e-05 -1.54415e-05 -1.48466e-05 
26.982 1 124 -1.88068 14.3604 2.45623 -0.888206 -5.58649 3.9358 -0.305551 -0.299125 0.0362233 -0.574747 -0.212997 -0.504878 -0.128345 -0.0379425 -0.10633 -4.21484e-05 -1.86014e-05 -3.42351e-05 
26.982 1 325 2.36306 12.3693 4.58971 3.05959 2.99451 5.67855 -0.0844225 -0.0481554 -0.566076 -0.0372031 -0.00451447 -0.0460444 -0.00728394 -0.000307077 -0.00995915 -5.59374e-06 -2.5551e-06 -1.5085e-05 
26.982 1 82 0.227763 10.7006 0.486701 1.28638 3.58971 0.220699 -0.0824361 -0.386859 0.248712 -0.433485 0.122446 -0.445768 -0.0875529 0.0183174 -0.10894 -1.32365e-05 1.6527e-05 -6.28722e-05 
26.982 1 86 4.80025 10.4763 0.523439 1.93377 0.340704 0.0360531 -0.509646 0.192627 -0.559858 -0.00643247 -0.0422601 -0.756314 -0.000528483 -0.0028788 -0.17117 -1.91503e-05 1.27764e-05 -6.26357e-05 
26.982 1 126 4.77861 14.1759 0.560273 -2.31877 -1.84144 1.72948 -0.0446198 0.654043 0.154238 0.0472522 0.0126074 -0.714634 -0.00104734 0.00345534 -0.16528 -1.38444e-05 1.91136e-06 -5.9758e-05 
26.982 1 128 2.43431 14.3736 2.57233 1.83083 -6.0323 -2.99971 0.0207695 -0.293716 0.279172 -0.0595748 0.0467121 -0.433687 -0.0173197 0.0138262 -0.0982829 -1.53e-05 -1.96742e-05 -3.25772e-05 
26.982 1 286 4.72663 10.4388 4.47668 3.1218 6.11144 4.94079 -0.252763 -0.149947 -0.127976 -0.000546066 0.00150056 -0.0389973 -0.000129932 0.000381547 -0.00771078 -7.16986e-06 -3.63777e-06 -4.65183e-06 
26.982 1 127 4.64987 12.3562 2.50863 -0.555403 -1.04918 -1.12937 0.0481926 0.00734631 0.338129 0.00869842 0.00793292 -0.370593 0.00221663 0.00115739 -0.0758951 -1.49157e-05 2.01496e-06 -1.64699e-05 
26.982 1 326 4.75238 14.3132 4.54574 3.2973 -2.46322 -2.25542 -0.119511 0.20465 -0.635476 -0.000239326 0.000444626 -0.0401001 -0.000434035 6.14635e-05 -0.0080563 -2.51233e-06 2.8082e-06 -1.49124e-05 
26.982 1 329 6.87295 12.4605 4.45745 -0.484177 0.826962 -3.56812 0.0438925 -0.479466 -0.0880454 0.00209911 -0.000401767 -0.044375 0.000545993 -0.000169882 -0.0095349 9.20968e-07 -7.43683e-06 -1.1101e-06 
26.982 1 132 7.12541 14.2702 2.45472 3.39436 3.97864 -5.49525 -0.60502 0.300745 -0.0615742 0.0370464 0.0131024 -0.434396 0.00906056 -0.00421764 -0.0851795 -1.14144e-05 7.11796e-06 -1.367e-05 
26.982 1 129 7.0265 12.3584 0.490501 0.433391 -6.64188 -2.07605 -0.0433514 -0.0482112 0.247796 0.0546766 0.0221867 -0.738423 0.0120356 0.0056783 -0.150291 -1.28893e-06 1.92068e-06 -6.15262e-05 
26.982 1 92 7.0291 10.4858 2.56415 1.99232 -0.604607 3.95185 -0.356247 -0.0795912 0.246562 0.0589768 -0.0197701 -0.45294 0.0140404 -0.000221722 -0.0922499 -6.63176e-06 -2.91601e-06 -3.42948e-06 
26.982 1 131 9.18717 12.2075 2.60147 -1.61116 -1.2226 0.350636 0.309129 0.540413 -0.390894 0.0550014 -0.0150604 -0.515005 0.00997223 -0.00479179 -0.109472 1.11835e-05 9.38733e-06 -1.65765e-05 
26.982 1 330 9.09036 14.2223 4.47475 -0.481805 3.68265 -1.82825 0.468757 0.194495 0.0447897 0.00224249 0.00056499 -0.0552842 0.000792641 -0.000183567 -0.0114801 1.11038e-05 1.79723e-06 -8.06166e-07 
26.982 1 130 9.10918 14.3676 0.519587 2.80869 -6.88426 0.444031 0.487591 0.0541872 0.54518 0.0565846 -0.0885003 -0.56219 0.0155074 -0.0131001 -0.125462 1.18259e-05 2.47516e-06 -5.668e-05 
26.982 1 96 11.3461 10.2923 2.50543 1.10234 -5.27488 1.59183 0.460375 0.827164 -0.455265 0.011786 -0.0198842 -0.610669 0.00633861 -0.0030336 -0.12907 2.16821e-05 1.32763e-05 -2.62559e-05 
26.982 1 133 11.4968 12.4936 0.570012 -0.0597159 -5.08456 2.91503 -0.133264 -0.251198 0.329651 0.0200553 -0.0251912 -0.493779 0.00813785 -0.00970367 -0.108874 1.86786e-05 -1.11761e-06 -5.46524e-05 
26.982 1 137 16.0051 12.5357 0.520382 -6.28913 3.84547 -4.16315 -0.366847 -0.471951 0.030465 0.0318454 0.0185208 -0.336966 -0.00185005 -0.00339985 -0.101876 -3.6218e-06 3.34721e-06 -6.36659e-05 
26.982 1 333 11.3669 12.1586 4.58232 -0.802882 -2.08961 0.856605 0.260978 0.217186 -0.128268 0.00197575 -0.00179909 -0.0651017 0.000293267 -0.000776585 -0.0138613 7.64198e-06 2.89417e-06 -3.65481e-06 
26.982 1 136 11.5358 14.3665 2.72203 0.568116 -3.43658 2.43919 -0.440764 -0.363654 -0.464777 -0.0174253 -0.00740343 -0.536083 -0.00261453 0.000764413 -0.113646 3.1259e-06 -6.79987e-06 -2.62095e-05 
26.982 1 135 13.6718 12.3547 2.55953 -2.59978 -0.735719 -1.16461 -0.0546843 -0.159107 0.11206 0.0341626 -0.0521318 -0.581782 0.00244719 -0.0155441 -0.122779 -1.07213e-06 -1.96322e-06 -3.7335e-05 
26.982 1 334 13.5234 14.3059 4.63341 -0.246369 3.59307 -4.13588 0.368561 -0.0615883 0.139569 -0.000325202 -0.00341914 -0.0568776 -1.99624e-05 -0.000414254 -0.0125543 6.58131e-06 -2.77365e-06 -4.70515e-07 
26.982 1 337 15.9488 12.2271 4.49048 3.12361 1.58002 6.65169 -0.0580178 0.0946131 0.367993 0.0010505 -0.000563461 -0.0769262 1.29031e-05 -0.000275992 -0.0150661 -1.74182e-06 3.98397e-06 2.53156e-06 