ITEM: TIMESTEP
12500
ITEM: NUMBER OF ATOMS
4000
ITEM: BOX BOUNDS pp pp pp
-2.61472 43.1147
0.715635 39.7844
0.702189 39.7978
ITEM: ATOMS mass type id x y z vx vy vz fx fy fz xrad yrad zrad vxrad vyrad vzrad fxrad fyrad fzrad 
26.982 1 43 -0.458043 4.50628 2.67691 -2.18992 1.21686 2.51173 0.2608 0.432949 -0.356165 -0.5874 -0.332772 -0.875316 -0.0958586 -0.036035 -0.140484 -7.59193e-06 2.24206e-06 -6.02644e-05 
26.982 1 202 -0.422533 2.70842 4.52893 2.92361 -0.0281776 -1.10938 0.371868 -0.25984 0.928948 -0.556149 -0.507262 -0.501148 -0.0860448 -0.0800735 -0.0807027 -1.10059e-06 -1.87245e-05 5.03409e-06 
26.982 1 3 -0.363408 0.73446 2.7986 -4.54306 0.412847 -1.14107 0.00123083 0.163108 -0.744503 -0.424952 -1.035 -0.66991 -0.0582544 -0.153127 -0.115503 -8.98183e-06 -4.74886e-05 -3.67761e-05 
26.982 1 4 -2.64534 2.41867 2.7139 -5.28198 -0.487749 -0.67859 0.0042569 0.382808 -0.331707 -0.629519 -0.674285 -0.767572 -0.116675 -0.0945824 -0.11431 -4.24933e-05 -2.00282e-05 -3.47895e-05 
26.982 1 241 -2.62984 4.49751 4.62201 -4.06024 3.58065 -2.38585 0.208814 0.368259 -0.0397039 -0.485461 -0.483233 -0.542002 -0.0596446 -0.058766 -0.071009 -3.34503e-05 -1.24462e-05 -2.18743e-05 
26.982 1 245 1.9915 4.70251 4.45418 -4.39002 -1.56014 -1.40412 0.02516 -0.391867 0.0415352 -0.0417652 -0.0920409 -0.125954 -0.00736612 -0.0149543 -0.0207448 1.69966e-06 -1.09286e-05 -3.38054e-06 
26.982 1 8 2.06514 2.60448 2.56617 3.18465 -7.50607 3.25641 -0.282341 0.144015 0.0399108 0.176813 -0.863902 -0.896658 0.0195902 -0.14038 -0.142229 8.68276e-06 -3.14316e-05 -4.11675e-05 
26.982 1 47 4.35648 4.65453 2.52983 4.24902 -0.13424 6.58193 -0.0295802 -0.055886 0.182504 -0.0663214 -0.214803 -0.849553 -0.00432554 -0.0320422 -0.146129 1.44597e-05 -2.10211e-05 -3.40834e-05 
26.982 1 206 4.32246 2.78578 4.60835 -2.30076 -0.446908 1.13282 -0.149174 -0.178532 -0.198565 -0.0403727 -0.808763 -0.483729 -0.00655771 -0.120065 -0.0731956 6.28647e-06 -2.88402e-05 -2.04913e-05 
26.982 1 205 1.94005 0.762943 4.57454 -0.64503 4.62022 -1.99333 -0.204973 0.386401 0.470523 0.0467948 -0.680526 -0.574852 0.00420323 -0.115078 -0.0970069 1.24417e-05 -3.60594e-05 -2.64906e-05 
26.982 1 45 2.18348 4.60751 0.715472 -0.0832719 -1.12884 -3.72648 -0.241673 -0.122404 0.170797 -0.0333269 -0.150725 -0.943674 -0.00647941 -0.0162885 -0.16601 -1.43384e-05 -9.32192e-06 -5.91503e-05 
26.982 1 249 6.77561 4.78608 4.6341 -2.36445 1.33806 2.23104 -0.747781 -0.992477 0.0523773 -0.00746093 -0.0839002 -0.0967602 -0.000741128 -0.0130813 -0.0181687 -1.03017e-05 -1.9557e-05 -8.11967e-06 
26.982 1 12 6.53202 2.7832 2.86088 -3.96045 -4.33517 3.14402 0.0212919 -0.101253 -0.525018 -0.172348 -1.02083 -0.74346 -0.0204546 -0.154042 -0.137116 -9.44362e-06 -3.07931e-05 -4.48197e-05 
26.982 1 51 8.99116 4.47033 2.7543 3.13733 1.3956 -0.416642 -0.303179 0.514951 0.0901999 0.00931155 -0.0845876 -0.676128 0.000201418 -0.0092371 -0.127046 -8.95423e-06 2.45767e-06 -5.8047e-05 
26.982 1 210 8.89278 2.30085 4.6734 4.84689 -2.66461 0.421326 -0.013077 0.56912 0.00177559 0.0454066 -0.740499 -0.392751 0.0119936 -0.120667 -0.0655695 3.16821e-06 -2.1869e-05 -1.13192e-05 
26.982 1 11 8.60923 0.841882 2.48197 1.34855 -1.41038 -2.77509 0.242086 -0.379067 -0.211618 0.106433 -0.532678 -0.674383 0.0160199 -0.0930865 -0.11041 -2.70004e-06 -4.37656e-05 -3.3172e-05 
26.982 1 253 11.0229 4.59152 4.65411 -0.117202 3.27121 5.85759 0.270025 -0.064383 -0.130332 0.00746712 -0.0980138 -0.101063 0.000443623 -0.016373 -0.0177879 3.85173e-06 -6.15038e-06 -5.79583e-06 
26.982 1 16 11.0509 2.64466 2.63328 5.22978 4.32885 -0.497064 0.303334 0.174557 0.202642 0.178125 -1.01866 -0.762251 0.0128767 -0.164355 -0.119915 -2.5276e-06 -2.45987e-05 -3.40208e-05 
26.982 1 55 13.4418 4.73841 2.80081 -3.19655 0.908862 -0.16853 -0.168465 -0.520811 -0.579569 0.02477 -0.222579 -0.914568 0.00413489 -0.0241414 -0.142524 -1.19391e-05 -1.20335e-05 -2.6683e-05 
26.982 1 214 13.4652 2.79234 4.67712 -1.30688 1.45707 -1.36601 -0.310973 -0.131956 -0.131409 0.0563957 -0.837599 -0.434393 0.00215328 -0.13063 -0.0657691 -9.27587e-06 -2.06149e-05 -7.02097e-06 
26.982 1 14 13.3609 2.58734 0.759717 1.99986 -3.54119 1.43589 0.0459081 0.623617 0.075459 0.0574383 -0.623413 -0.736047 0.00755976 -0.0986306 -0.15383 -6.9576e-06 -1.04933e-05 -5.51256e-05 
26.982 1 15 13.4656 0.793931 2.78966 -1.10679 -6.22485 -3.4049 -0.126989 -0.0789878 0.109055 -0.0555258 -0.46657 -0.988519 -0.00454838 -0.102318 -0.140393 -2.20866e-06 -5.87079e-05 -1.0902e-05 
26.982 1 57 15.7181 4.58573 1.04733 1.45321 0.106379 1.88716 -0.064249 0.0811411 -0.25021 -0.110119 -0.131147 -1.12418 0.000806638 -0.0167576 -0.170359 5.1763e-06 -1.12992e-05 -5.98321e-05 
26.982 1 20 15.7656 2.51023 2.85543 0.200171 0.642076 -2.53754 -0.176282 0.0328121 -0.56908 -0.248753 -1.01904 -0.748472 -0.0173246 -0.158689 -0.125013 1.63719e-05 -4.84068e-05 -2.85729e-05 
26.982 1 257 15.803 4.58634 4.51749 4.42226 -2.59776 -1.21423 -0.020958 0.300238 -0.10688 -0.0059009 -0.107613 -0.109769 7.47599e-05 -0.0165283 -0.0193103 9.44858e-07 4.27984e-06 -6.35179e-06 
26.982 1 218 18.0372 2.39108 4.51232 -0.70063 -0.771358 -6.69928 0.00134828 0.816262 0.74302 -0.0572673 -0.79087 -0.32764 -0.00632261 -0.124951 -0.0605112 6.98208e-06 -4.27332e-05 -2.04201e-05 
26.982 1 59 18.0544 4.51709 2.68616 0.947481 -0.998553 -1.32395 -0.0417159 0.240832 0.016794 0.0281417 -0.0215406 -0.750326 0.00797782 -0.00530049 -0.141936 7.72923e-06 -1.25226e-05 -3.26143e-05 
26.982 1 24 20.1629 2.67436 2.68387 -2.75447 3.77963 2.93468 0.372473 -0.041752 -0.0676852 0.0939383 -0.833317 -0.639372 0.0136212 -0.134743 -0.131389 -8.85052e-06 -3.20826e-05 -3.56498e-05 
26.982 1 261 20.248 4.6473 4.6652 4.50749 -9.47194 -1.09519 -0.0437057 0.0475901 -0.173522 0.00712355 -0.0868169 -0.114226 0.00140432 -0.0143856 -0.0226922 -2.527e-06 -1.5493e-06 -9.94019e-06 
26.982 1 63 22.7397 4.69519 2.63831 1.17279 2.63813 3.28459 -0.544737 -0.16505 -0.184165 0.0390673 -0.0265054 -0.936672 0.00474465 -0.00766714 -0.174026 -1.32737e-05 -7.4528e-06 -3.44373e-05 
26.982 1 222 22.6586 2.94339 4.6119 1.73657 2.89051 2.07528 -0.267694 -1.04313 -0.590234 -0.02735 -0.735032 -0.381347 0.00287073 -0.12193 -0.0669909 -1.5894e-05 -2.31909e-05 -1.34973e-05 
26.982 1 28 24.832 2.77514 2.49227 3.25735 -2.25096 -3.76655 0.255468 -0.245229 0.18076 -0.0779026 -0.680346 -0.824159 -0.00714789 -0.122683 -0.140634 1.78397e-05 -1.24724e-05 -5.01541e-05 
26.982 1 265 24.875 4.63309 4.62797 -5.63251 1.11242 -4.71665 0.478919 -0.131958 0.130673 -0.00109418 -0.0764178 -0.134631 -0.00037021 -0.0147751 -0.0252581 1.22237e-05 -2.51695e-06 -1.45738e-06 
26.982 1 225 24.8984 0.861653 4.59622 -4.90846 -0.851769 8.61302 -0.211511 -0.186672 -0.222012 -0.0467501 -0.731265 -0.532086 -0.000711763 -0.0988946 -0.0802278 8.73288e-08 -4.68106e-05 -2.89137e-05 
26.982 1 23 22.5463 0.762854 2.8901 1.42486 2.08653 -1.35243 -0.061209 0.25254 0.110787 0.0172499 -0.608412 -0.816157 0.00279319 -0.0999115 -0.149616 -1.59264e-05 -5.61756e-05 -1.82973e-05 
26.982 1 22 22.5017 2.54964 0.792589 2.64893 0.278498 3.06235 0.0286684 0.387665 -0.0139448 0.087585 -0.582977 -1.09455 0.00950473 -0.0963297 -0.159159 -5.67531e-06 -8.7798e-06 -5.85323e-05 
26.982 1 67 27.2266 4.48542 2.72834 -1.12345 5.68498 1.99016 -0.214258 -0.133311 -0.281857 0.0458671 0.000624137 -1.11239 0.010743 0.000461299 -0.195056 -1.52133e-06 -4.61476e-06 -6.18727e-05 
26.982 1 226 27.0958 2.60589 4.76922 -0.882054 -1.91237 0.321399 0.182825 0.397564 -0.464734 0.015767 -0.585663 -0.257765 -0.00246128 -0.113145 -0.0583585 2.09264e-06 -1.40492e-06 -1.58113e-05 
26.982 1 32 29.6248 2.64801 2.68991 -0.66471 2.07496 -1.30158 -0.552026 -0.223269 -0.490438 0.0143017 -0.602653 -0.887248 0.00269567 -0.102129 -0.159299 -1.06045e-05 -1.53532e-05 -6.47539e-05 
26.982 1 269 29.31 4.45275 4.60959 -6.14556 -1.0694 -0.237918 0.0711195 0.892109 -0.195476 -0.00526085 -0.0694375 -0.146364 -0.000717385 -0.0132467 -0.0288261 4.27712e-06 1.29057e-05 -9.36847e-06 
26.982 1 229 29.4593 0.809654 4.83737 -8.71933 -3.60519 -3.52255 -0.455418 0.00406897 -0.357567 0.0258278 -0.666978 -0.452766 0.00391671 -0.107858 -0.0815279 -6.86806e-06 -4.33059e-05 -3.55996e-05 
26.982 1 27 27.1216 0.70099 2.72472 -1.54491 -0.788878 0.233279 0.050841 0.386269 -0.317975 0.00570654 -1.157 -0.696506 -0.00983997 -0.135872 -0.121815 5.14842e-06 -3.97041e-05 -4.32311e-05 
26.982 1 71 31.5615 4.67416 2.58637 -0.58487 0.195774 4.17167 0.353957 -0.506472 0.278198 -0.106272 -0.0158652 -0.959257 -0.0191517 -0.0073023 -0.183522 9.74422e-06 2.09608e-06 -5.7313e-05 
26.982 1 230 31.5122 2.87182 4.76083 1.94113 2.44824 2.10406 0.659657 0.152968 -0.0616181 -0.0568952 -0.626481 -0.315486 -0.00557056 -0.108435 -0.0609091 2.05395e-05 -5.66599e-06 -8.36167e-06 
26.982 1 273 34.0694 4.70282 4.67397 2.41426 0.102313 -1.59274 -0.346997 0.372823 -0.0459726 0.000139454 -0.0553691 -0.111193 -0.000727637 -0.0114768 -0.0220163 -8.74263e-06 2.76647e-07 -9.35039e-06 
26.982 1 36 33.9012 2.76675 2.75449 2.17072 -4.38723 3.58536 -0.0614671 -0.0912079 -0.207918 -0.0683362 -0.676551 -0.837943 -0.0139513 -0.120922 -0.150108 -3.47361e-06 -3.29894e-05 -3.96625e-05 
26.982 1 31 31.6995 0.783809 2.83145 -4.67108 2.68867 -2.03517 0.159787 -0.0644346 -0.123458 -0.120803 -0.890937 -0.78158 -0.00445712 -0.121465 -0.13675 1.69518e-05 -4.56953e-05 -3.48303e-05 
26.982 1 75 36.1019 4.5854 2.72347 1.56787 0.0695791 4.96189 0.342832 0.428346 -0.0455526 0.120997 -0.0234883 -0.997047 0.00456615 -0.00518128 -0.163312 -4.32955e-06 -8.75309e-07 -2.25003e-05 
26.982 1 234 36.3003 2.66377 4.57925 -2.15771 -1.24667 3.28342 0.262476 0.0546989 0.135307 0.0164262 -0.485757 -0.23327 -0.00204424 -0.0913692 -0.0494981 6.71142e-06 -3.83791e-05 -1.82196e-05 
26.982 1 40 38.5855 2.59889 2.78632 -5.10385 1.29324 -3.09812 0.273407 0.20823 -0.00839684 0.24825 -0.671864 -1.0482 0.0221796 -0.12315 -0.162773 1.50345e-05 -5.6086e-05 -1.53104e-05 
26.982 1 277 38.6564 4.58454 4.67385 3.28087 -1.39149 3.91954 -0.319349 -0.0162612 -0.131363 0.00909226 -0.0623864 -0.146447 0.000959257 -0.0106604 -0.0225265 -5.42088e-06 -4.97512e-06 -7.95625e-06 
26.982 1 34 36.4918 2.71816 0.869251 -1.21553 -2.16299 1.28165 -0.482342 -0.348024 -0.208803 0.0824683 -0.353643 -1.08688 0.000223197 -0.0847028 -0.172122 -1.50232e-05 -3.6274e-05 -4.71625e-05 
26.982 1 77 38.7009 4.5542 0.896253 -1.06138 -0.675837 5.14744 -0.121316 -0.308158 -0.697265 -0.000936358 -0.0354524 -0.527248 0.00680883 -0.00401397 -0.128375 2.05666e-05 -4.65215e-06 -6.29147e-05 
26.982 1 79 41.0228 4.60909 2.80407 -1.36912 -0.905198 -3.18536 -0.692212 -0.0227006 -0.5226 -0.0702601 -0.137534 -1.08638 0.00224664 -0.0133688 -0.17597 -1.27293e-05 -7.24523e-06 -4.14572e-05 
26.982 1 238 41.0776 2.63595 4.62194 1.00505 5.11205 2.75058 -0.684137 -0.362395 -0.0608935 0.00453506 -0.682787 -0.431111 0.00309575 -0.106981 -0.0659869 -1.33703e-05 -4.65646e-05 -2.32012e-05 
26.982 1 41 43.089 4.57877 0.79151 3.01414 2.33235 3.90766 0.0961609 -0.060466 0.218463 -0.321975 -0.367801 -0.737191 -0.0625126 -0.053643 -0.109007 8.17802e-07 -2.44385e-06 -6.28478e-05 
26.982 1 83 -0.163006 8.61524 2.59433 3.92383 2.86273 3.38799 -0.372686 -0.0479995 0.141445 -0.678637 -0.227576 -0.866167 -0.102842 -0.0450335 -0.148667 -2.39437e-05 -8.11933e-06 -5.16491e-05 
26.982 1 242 -0.271679 6.55219 4.45572 -2.05982 0.988291 0.491116 -0.372795 -0.0382278 -0.0979956 -0.687505 -0.010345 -0.38271 -0.107791 -0.0118344 -0.059145 -3.2697e-05 6.93475e-06 -2.37308e-05 
26.982 1 282 -0.374657 10.4876 4.73035 -4.9284 -0.450503 3.07222 -0.0668336 -0.415648 -0.363524 -0.606127 0.00450779 -0.274918 -0.0859306 0.000919585 -0.0415018 -2.41198e-05 -1.67185e-05 -2.16034e-05 
26.982 1 48 1.96646 6.67502 2.66761 -2.34489 -2.65766 0.744744 -0.064227 -0.10583 -0.545339 -0.152571 -0.0654458 -0.824387 -0.0238048 -0.00922927 -0.139464 -1.55042e-05 7.30863e-06 -4.17792e-05 
26.982 1 285 1.96026 8.41374 4.72277 -1.50573 1.14839 -1.68384 -0.199368 0.375923 -0.171107 -0.0650604 -0.00605239 -0.0928034 -0.00849081 -0.000948183 -0.0157938 -3.98419e-06 6.81617e-06 -8.12694e-06 
26.982 1 87 4.07816 8.75554 2.63891 0.594255 -1.8886 2.70441 0.254137 -0.0465942 0.532833 -0.00332985 -0.0175045 -0.73055 -0.00244138 -0.000275912 -0.125756 4.48942e-06 1.46659e-05 -4.07657e-05 
26.982 1 246 4.23891 6.47897 4.62167 -1.93685 -4.22139 -2.33782 -0.135145 -0.0867845 -0.0477023 -0.00188407 -0.00479005 -0.0815312 -0.000328353 -0.00101026 -0.0148467 -3.97562e-06 -5.53963e-06 -1.94949e-06 
26.982 1 46 4.17859 6.84604 0.904908 0.321563 5.9357 -1.3686 0.0916206 -0.646798 -0.850733 -0.0382044 -0.0077653 -1.26581 -0.00410215 -0.00439198 -0.187801 1.18722e-05 9.06842e-06 -6.74899e-05 
26.982 1 289 6.30335 8.57803 4.51761 1.05654 4.98775 6.32986 0.121887 0.5521 0.334117 0.00488905 0.000816464 -0.0847383 0.000809754 0.000241745 -0.0139039 2.25654e-06 1.06162e-05 -5.69606e-06 
26.982 1 52 6.48305 6.71123 2.73039 -2.38027 0.600659 -1.32685 -0.194023 -0.262983 -0.679697 0.00398832 0.0131047 -0.72598 0.00303048 -0.00685946 -0.128845 1.05245e-05 -7.39773e-06 -5.74347e-05 
26.982 1 91 8.59261 8.59497 2.52813 0.0241161 2.02968 -0.391171 0.118274 0.112477 0.351895 0.0914748 0.0782511 -0.905584 0.0147747 0.00113878 -0.146789 -1.06034e-05 1.22647e-06 -4.52476e-05 
26.982 1 250 8.59978 6.6234 4.64487 0.520116 3.84604 -1.04329 0.760934 0.601135 -0.295964 0.00509188 0.00284151 -0.0778063 0.00108091 5.84358e-05 -0.0156647 1.35392e-05 8.87561e-06 -1.19761e-05 
26.982 1 293 10.8936 8.64111 4.48382 -0.907889 0.966525 0.258138 -0.164133 -0.25595 0.322142 0.00155415 0.00949238 -0.113973 0.000618184 0.000984852 -0.0187412 -2.66254e-06 -5.51011e-06 6.74175e-06 
26.982 1 56 10.9782 6.661 2.6874 1.72948 -4.5901 5.89284 -0.424646 -0.600882 0.13924 0.0463694 0.11024 -0.859076 0.000910095 0.0126481 -0.145962 -1.88887e-05 -2.30804e-05 -2.97701e-05 
26.982 1 95 13.2789 8.66937 2.69842 0.487492 -2.18359 3.57927 0.255427 -0.0523385 0.214033 -0.0339408 0.0737202 -1.01796 0.000836269 0.0116066 -0.165625 8.42049e-06 1.53182e-06 -7.47458e-06 
26.982 1 254 13.0503 6.59721 4.57929 -1.94545 0.484251 -3.78132 0.247873 0.511972 0.38153 0.00194753 0.000353562 -0.0996639 5.82321e-05 0.000232102 -0.0170484 6.77586e-06 6.8654e-06 6.70248e-06 
26.982 1 54 13.0634 6.67433 0.843092 2.64421 1.61562 -0.625124 0.57004 0.111407 -0.0897739 -0.0852229 0.181256 -1.0565 -0.0101957 0.0301911 -0.173653 -8.07516e-07 -1.54295e-05 -6.50994e-05 
26.982 1 294 13.1565 10.4703 4.82599 1.62693 -1.49207 -0.702457 0.666447 -0.247215 -0.0700195 0.000940091 0.00727632 -0.125505 0.000125583 0.000284608 -0.0205859 1.1867e-05 -3.57588e-06 -4.37125e-07 
26.982 1 93 10.9039 8.5883 0.906953 5.63977 2.09857 -2.18303 0.127304 -0.0171833 -0.882194 0.141355 0.0396625 -0.747151 0.0182322 0.00164046 -0.13509 -2.16707e-05 -2.28286e-07 -7.03661e-05 
26.982 1 60 15.4715 6.80161 2.75184 3.62806 1.73772 -0.769391 0.207607 -0.201214 0.0385988 -0.0212242 0.0479642 -0.872449 0.00221827 0.00912073 -0.153582 6.98357e-06 -2.43018e-06 -1.04731e-05 
26.982 1 297 15.6575 8.67974 4.72058 -0.0201428 -3.12499 -0.674313 -0.131006 -0.364281 -0.264074 0.000635044 0.00848428 -0.115052 0.000297173 0.00131761 -0.0208371 -5.6599e-06 -6.12898e-06 -5.36453e-06 
26.982 1 99 18.0508 8.53646 2.75019 3.9576 1.46511 -0.712153 -0.0630174 -0.297385 -0.698163 -0.0505919 0.0901648 -0.912998 -0.00956907 0.0126722 -0.163605 -1.94166e-06 -6.54654e-06 -1.79561e-05 
26.982 1 258 18.0371 6.62048 4.63878 4.75422 -1.82538 -3.16467 0.00149649 -0.225929 0.111321 0.00167645 0.00344392 -0.0942183 0.000524064 0.000213269 -0.0184065 2.27879e-06 -3.54964e-06 -2.29012e-06 
26.982 1 298 18.0149 10.4056 4.50681 5.65889 -0.0857106 2.68945 0.126756 0.585699 0.613875 -0.00223274 0.00254483 -0.126681 -0.000175563 -5.48917e-05 -0.0223717 3.97578e-06 6.62116e-06 6.44724e-06 
26.982 1 97 15.7953 8.57007 0.697224 -3.4361 0.949062 -0.945771 -0.187406 -0.038027 0.267808 -0.0702142 0.184354 -0.935075 -0.00573825 0.0198905 -0.134716 -2.05412e-06 -7.17998e-07 -5.73292e-05 
26.982 1 58 17.9844 6.50092 0.705976 1.0238 0.455726 -3.25584 -0.268698 -0.0683514 0.519163 0.0333779 0.0489417 -1.1211 0.00335187 0.00547132 -0.160007 7.31343e-06 -1.06072e-05 -5.67564e-05 
26.982 1 64 20.2179 6.58541 2.59129 -0.779174 10.2365 3.09424 0.207769 0.144319 0.533914 0.0621065 -0.046363 -0.880205 0.00926605 -0.013379 -0.160185 4.28361e-06 -1.69083e-05 -1.81679e-05 
26.982 1 301 20.4309 8.66299 4.65882 -2.73352 3.89828 -0.450242 -0.0763463 -0.524518 -0.328531 0.00188372 0.00507862 -0.10297 -0.000231649 0.000275599 -0.0186342 -3.75629e-08 -8.8299e-06 -3.29128e-06 
26.982 1 101 20.3658 8.6181 0.749518 3.73547 -1.18195 2.35352 0.0251732 -0.222851 -0.0755155 0.0962287 -0.0135782 -1.21121 0.00811722 -0.006132 -0.189676 -1.53238e-06 -3.817e-06 -6.12689e-05 
26.982 1 103 22.6604 8.49533 2.77099 5.17873 -0.164924 -0.187081 -0.134355 0.51434 -0.167652 0.041 0.0521192 -0.990787 0.00576318 -0.003253 -0.163832 -1.71556e-06 9.44463e-06 -1.01652e-05 
26.982 1 262 22.8174 6.60482 4.58245 -2.83643 1.23283 3.20381 -0.519693 -0.105768 0.345764 0.00321353 -0.00373547 -0.113997 0.000193545 -0.00155411 -0.0216339 -1.31929e-05 8.88143e-07 2.82295e-06 
26.982 1 305 24.9844 8.57708 4.56571 4.66428 -1.41313 6.42945 0.272763 0.0740842 0.0166714 0.00127354 0.000747015 -0.117133 0.000680505 -0.000360609 -0.0206373 9.25616e-06 5.14527e-06 -2.24305e-06 
26.982 1 68 24.9122 6.48951 2.73314 -1.40683 0.332912 0.494184 0.371514 0.0100349 -0.362396 0.0480394 -0.0469143 -1.05142 0.00652519 -0.0126955 -0.183347 2.21136e-05 -1.03636e-05 -3.90241e-05 
26.982 1 62 22.6011 6.61735 0.838979 1.02615 8.0065 2.438 -0.259617 0.116251 -0.467417 0.0306778 0.0837465 -0.846016 0.00509463 0.00978642 -0.117781 -2.32815e-06 -1.87863e-05 -6.66631e-05 
26.982 1 105 24.8514 8.41315 0.876311 -4.57578 3.97753 -3.87996 0.089245 0.431099 -0.156408 0.012872 -0.0445361 -1.02721 0.00947612 -0.00442171 -0.164435 2.37284e-05 6.1169e-07 -6.29668e-05 
26.982 1 107 27.2565 8.66111 2.6055 -4.35783 0.197692 1.20937 -0.139172 -0.234631 -0.0901412 0.121389 -0.108226 -1.08778 0.017257 -0.0139405 -0.187562 1.10974e-05 -1.57378e-06 -4.78069e-05 
26.982 1 266 27.2728 6.58158 4.43653 -0.777949 2.73853 -0.609734 -0.158995 0.312411 0.299409 0.00296269 0.00123387 -0.13848 0.00028535 -0.000409161 -0.0250917 -3.13779e-06 6.84827e-06 -5.66051e-06 
26.982 1 72 29.4021 6.5169 2.57689 5.51616 0.963248 -4.60682 0.0134812 -0.00801494 0.103406 -0.0550841 0.036484 -1.21571 -0.00536814 -0.00518391 -0.214536 3.70776e-06 7.41796e-07 -6.08345e-05 
26.982 1 309 29.559 8.54237 4.35263 2.12453 0.93008 0.664686 -0.0601911 0.522862 0.506235 -0.00389476 -0.00455417 -0.142892 -0.000358005 -0.000834056 -0.0252056 -1.95201e-07 9.59302e-06 -1.55013e-06 
26.982 1 111 31.7877 8.60266 2.65886 0.405491 -2.08399 -1.36489 -0.00618621 0.0923728 -0.271282 -0.0962993 -0.135616 -0.99296 -0.015403 -0.0202408 -0.173719 -4.88448e-06 -2.42728e-06 -5.96815e-05 
26.982 1 270 31.8439 6.59275 4.61356 0.793938 -0.313509 2.09091 -0.134052 -0.00767889 -0.526693 -0.0053331 0.0035373 -0.125855 -0.000973701 -0.000276495 -0.02374 -3.52779e-06 -2.57447e-06 -1.7526e-05 
26.982 1 76 33.9934 6.71823 2.63531 -3.32492 4.18368 3.48908 -0.0241104 -0.0592902 0.0250378 0.00319415 0.044851 -0.965267 -0.00427857 -0.000924836 -0.169623 -1.5194e-05 -4.31083e-06 -4.79916e-05 
26.982 1 313 34.0578 8.54896 4.72404 2.78842 1.7176 -0.0155019 0.0797765 -0.140675 -0.435329 -0.00260463 -0.00164075 -0.107646 -0.000562337 -0.000534597 -0.0186881 1.83116e-07 -4.23957e-07 -1.10973e-05 
26.982 1 116 34.1478 10.3462 2.53119 -2.93447 -4.91106 0.884226 -0.147913 0.482305 0.426634 0.0790417 0.0497808 -0.917941 0.00373653 0.000617348 -0.147559 -1.51207e-06 -5.24583e-06 -4.72305e-05 
26.982 1 115 36.3074 8.55833 2.76777 -0.264703 -4.96211 3.54604 0.163974 -0.0618662 -0.0938403 -0.152229 -0.0397983 -0.836425 -0.0192934 -0.0107524 -0.141784 8.74822e-06 1.19262e-05 -4.10067e-05 
26.982 1 274 36.2544 6.57185 4.71151 -2.94272 1.70212 2.47911 0.233227 -0.0208459 -0.319191 0.00225014 -0.00732438 -0.10813 -0.000172994 -0.00100773 -0.0190848 7.54905e-06 9.65456e-07 -9.37697e-06 
26.982 1 80 38.5239 6.48896 2.52629 5.24026 -3.35396 2.55235 0.0326447 0.431445 0.706604 0.0138002 -0.256333 -0.902694 0.00411127 -0.027956 -0.148446 8.97954e-06 1.7323e-05 -2.60117e-05 
26.982 1 317 38.725 8.54978 4.44868 -4.41244 4.15915 1.43706 -0.514509 0.0610585 0.337768 0.0039614 -0.00473047 -0.074528 0.000477203 -0.000853506 -0.0133986 -1.02674e-05 7.33459e-07 -2.77006e-06 
26.982 1 74 36.196 6.59937 0.858994 -0.400314 -0.910457 -1.20354 0.0347715 -0.118536 -0.525426 0.046576 -0.118188 -0.873571 -0.00441143 -0.0157034 -0.13224 -8.05184e-06 1.00433e-05 -6.58246e-05 
26.982 1 84 43.1203 10.2159 2.70701 2.60531 0.870328 -6.00868 0.223546 0.402915 -0.332829 -0.789969 -0.233176 -1.06122 -0.136779 -0.0431613 -0.163982 1.66265e-05 -1.89311e-05 -4.83256e-05 
26.982 1 281 43.0508 8.38751 4.52279 -3.20355 2.45905 -1.89907 0.138923 0.502359 0.436786 -0.461828 -0.44014 -0.514054 -0.0825402 -0.0760533 -0.0899333 2.90971e-06 6.59182e-07 -7.28777e-06 
26.982 1 44 42.9624 6.52528 2.76931 0.0481856 -5.02385 2.04111 0.348334 -0.197709 -0.406921 -0.159295 -0.630961 -0.888974 -0.0435098 -0.0888045 -0.151336 2.20218e-05 -1.51351e-05 -3.43605e-05 
26.982 1 119 40.7722 8.37809 2.53966 -4.11932 -2.34955 -3.29488 -0.0603407 0.277893 0.019791 0.188403 0.0323371 -0.918627 0.0280208 -0.00759477 -0.1534 -2.64657e-08 1.86772e-06 -6.22913e-05 
26.982 1 278 40.6749 6.5769 4.75008 2.00421 0.316139 -1.45009 0.274404 -0.236977 -0.0644618 0.241831 -0.238496 -0.135464 0.0317777 -0.0307844 -0.0239653 9.87249e-06 -1.12578e-05 -4.04334e-06 
26.982 1 123 -0.275839 12.3188 2.69053 1.02933 -2.18221 1.61408 -0.00776734 0.0720134 0.135786 -0.691503 -0.195609 -0.87809 -0.100193 -0.0189968 -0.145436 -2.85559e-06 -9.26378e-06 -4.63581e-05 
26.982 1 322 -0.150544 14.5583 4.40936 0.151678 3.92837 2.10638 -0.68697 -0.51957 0.710506 -0.423358 -0.161469 -0.219312 -0.0642645 -0.0215638 -0.0376372 -1.73073e-05 -8.82141e-06 1.08438e-06 
26.982 1 321 -2.60515 12.2886 4.65 -3.97116 -0.377135 2.26482 -0.0601069 0.324732 -0.295124 -0.400335 -0.312551 -0.396515 -0.0721217 -0.0543765 -0.0688405 -2.78965e-05 -2.01195e-05 -3.32246e-05 
26.982 1 124 -2.56311 14.3364 2.47528 -1.8607 1.36785 3.6406 -0.132969 0.353782 0.882243 -1.01114 -0.354541 -0.888001 -0.151407 -0.06104 -0.147761 -3.72047e-05 1.35833e-05 -2.69455e-05 
26.982 1 121 -2.46768 12.2643 0.940091 2.39731 0.829014 2.1908 -0.135676 -0.248095 -0.620026 -0.202229 -0.141403 -0.372264 -0.0411 -0.0251648 -0.0849497 -8.23848e-06 -3.30463e-05 -4.05248e-05 
26.982 1 88 1.98545 10.5406 2.8057 1.44073 2.22825 -6.54299 -0.232151 -0.0608657 -0.489687 -0.18307 -0.0421129 -0.770555 -0.0177496 -0.00396256 -0.126007 -5.53738e-06 7.87343e-07 -5.78723e-05 
26.982 1 325 1.7882 12.2855 4.82125 4.01686 3.33664 1.43289 0.513041 0.512489 -0.0376407 -0.0605803 -0.00602985 -0.0817911 -0.0076851 -0.00065264 -0.0144212 8.53127e-06 4.92723e-06 -6.0021e-06 
26.982 1 128 1.80671 14.4347 2.64247 0.192645 4.55922 5.5362 0.44326 -0.618941 -0.0232446 -0.116702 0.0907389 -0.777748 -0.0200238 0.0158107 -0.135869 7.40242e-06 -2.59496e-05 -4.65855e-05 
26.982 1 286 4.11896 10.5398 4.77194 -6.74948 -4.13792 -0.571077 0.0742004 -0.130294 -0.300827 -0.00158011 0.00229715 -0.0697289 -0.000634412 0.000340693 -0.0134679 2.88487e-06 1.04723e-06 -7.94319e-06 
26.982 1 127 4.18246 12.3914 2.71206 1.4806 -2.71051 4.57083 0.0820018 0.0879854 -0.116217 0.0127748 0.0018407 -0.649403 0.00295788 -0.00480311 -0.11772 -4.29143e-08 2.55999e-06 -6.20594e-05 
26.982 1 326 4.00836 14.3428 4.45109 1.69652 -1.81147 2.00536 0.134742 0.158417 0.60308 -0.00196501 0.000564002 -0.0690252 -0.000340923 -0.000213954 -0.0125257 3.711e-06 -2.16017e-07 1.29492e-06 
26.982 1 92 6.48642 10.6051 2.55797 3.06943 -0.73367 0.647654 0.0449564 -0.306572 -0.0563935 0.0905118 -0.0240592 -0.774339 0.00665493 0.00307638 -0.126717 9.86584e-07 2.48572e-06 -5.77049e-05 
26.982 1 290 8.76206 10.6685 4.55542 -2.91705 -2.1739 0.558946 -0.0743827 -0.0978993 -0.228801 0.00854569 0.00317483 -0.107422 0.00122809 0.000200095 -0.0168134 -1.74446e-06 1.02676e-06 -1.13657e-05 
26.982 1 329 6.49285 12.5206 4.49963 -6.47302 0.272538 0.384242 0.284171 0.297596 0.145901 0.00307971 -0.000841613 -0.077884 -0.000132198 -1.43571e-05 -0.0142909 7.36832e-06 5.39202e-06 -7.8397e-06 
26.982 1 132 6.51647 14.567 2.62848 2.90322 3.30413 -0.129831 -0.0243071 -0.50205 -0.165424 0.0699843 0.000120811 -0.731855 0.0120904 -0.00476907 -0.123058 -5.37257e-07 -5.96064e-06 -6.06994e-05 
26.982 1 131 8.97244 12.5967 2.63497 -1.55815 1.62542 -0.311941 -0.237639 0.160483 -0.0818377 0.0886217 -0.0176094 -0.890039 0.00996506 0.00260754 -0.146131 -1.81206e-05 2.98685e-06 -4.5929e-05 
26.982 1 330 8.82524 14.5403 4.67172 2.83753 -1.34493 -1.79795 0.0165419 -0.748028 -0.298126 0.00534183 0.000523438 -0.0964871 0.00100275 -3.31381e-05 -0.0167986 3.98114e-06 -1.23637e-05 -7.15774e-06 
26.982 1 96 11.0716 10.5423 2.61245 3.01503 0.344679 1.8331 -0.0461093 0.433505 0.175222 0.0351305 -0.0288603 -1.04177 0.00816843 -0.00418571 -0.163025 -1.2471e-05 7.09062e-06 -1.99513e-05 
26.982 1 333 11.296 12.4051 4.60912 -2.86964 -0.252018 -3.7207 -0.585328 0.403533 0.246898 0.00343413 -0.00374956 -0.112687 0.000252132 -0.000614802 -0.0183743 -1.16469e-05 8.53703e-06 1.47391e-06 
26.982 1 136 11.1883 14.4533 2.5979 5.38883 1.49337 0.293664 -0.0158787 0.196614 0.463024 -0.0256573 -0.00522723 -0.931816 -0.00524706 -0.0007966 -0.150272 -6.1925e-07 1.58649e-05 -3.73306e-05 
26.982 1 135 13.5694 12.5025 2.86357 -0.0749089 6.04136 1.87295 -0.163919 -0.293813 -0.375398 0.0445557 -0.0931471 -1.00407 0.00297156 -0.0147136 -0.157982 -4.19644e-06 7.50056e-06 -2.88222e-05 
26.982 1 334 13.3958 14.5078 4.65956 2.38193 -1.42843 1.52946 0.0806634 -0.229451 -0.0381873 0.000457705 -0.00398875 -0.102091 0.000471109 -0.000176493 -0.0170474 -6.90484e-07 -3.1646e-06 -7.7013e-06 
26.982 1 94 13.4905 10.5417 0.776825 2.28513 4.03386 -2.00161 -0.0423893 0.0419653 0.0768118 -0.0325694 -0.0361507 -0.787142 0.0011014 -0.000920569 -0.127981 9.88931e-07 4.44566e-06 -5.92273e-05 
26.982 1 133 11.2906 12.4828 0.759447 0.677754 -0.455719 1.72937 -0.185952 -0.133115 -0.376646 0.0531704 -0.0474832 -0.890505 0.00964148 -0.00604605 -0.152735 -8.97212e-06 1.44524e-05 -6.30588e-05 
26.982 1 100 15.7554 10.5752 2.80333 2.56869 1.80097 -1.78805 -0.227873 -0.311333 -0.52996 0.00411933 0.0550533 -1.0791 0.00372925 -0.00233057 -0.176038 -6.68084e-06 -6.07681e-06 -1.65396e-05 
26.982 1 137 15.9085 12.4956 0.783226 0.394649 -2.88755 0.773407 -0.275378 -0.439221 -0.308355 0.0331278 0.0128201 -0.704394 0.00232221 -0.00433256 -0.144833 -1.53248e-05 5.17372e-06 -6.41211e-05 
26.982 1 140 15.692 14.4341 2.58697 -0.265607 -1.47484 0.844166 0.293592 0.104986 0.598336 0.101359 -0.129607 -0.95745 0.0132109 -0.00620636 -0.155167 -6.96929e-06 1.7326e-05 -2.71911e-05 
26.982 1 337 15.6702 12.4323 4.72953 4.71682 -5.54232 2.01441 0.18248 0.142285 0.149087 0.00182602 -0.00119767 -0.13065 0.000628603 -0.000363648 -0.0203248 9.98802e-07 1.3996e-06 1.51462e-06 
26.982 1 139 17.9601 12.4631 2.77952 3.90159 -3.08341 0.108784 0.0736594 0.171989 -0.0818742 -0.026874 0.00893943 -1.12742 0.00211182 -0.00571643 -0.18039 8.98977e-06 1.79465e-06 -1.65955e-05 
26.982 1 338 17.9702 14.5525 4.63462 2.29912 -3.66208 0.434274 -0.430677 -0.447436 0.187477 -0.00407889 -0.00960256 -0.121989 -0.00056401 -0.00140756 -0.0198177 -9.33602e-06 -5.90334e-06 -5.3963e-07 
26.982 1 138 18.0353 14.4257 0.765812 -2.39971 1.46067 -1.02023 -0.113807 -0.0266266 0.0830964 -0.0390222 0.00345225 -0.680193 -0.00139051 0.000163633 -0.126636 -2.15016e-07 5.06691e-06 -6.38032e-05 
26.982 1 98 18.1731 10.5548 0.786107 4.84882 -2.46574 -1.58576 -0.584319 -0.321115 -0.00221838 -0.0580662 -0.0155465 -0.764977 -0.00450646 -0.00417381 -0.108891 7.00139e-06 7.34869e-06 -5.92843e-05 
26.982 1 104 20.4456 10.5482 2.64564 2.30282 3.26168 -4.46638 -0.196625 -0.170392 0.398885 0.0251466 0.092915 -1.03296 -0.00437648 0.0135953 -0.168856 -2.39277e-06 1.34703e-05 -1.94179e-05 
26.982 1 341 20.2417 12.5509 4.52925 -3.95743 3.94659 -0.0519027 0.029848 -0.454671 0.236652 -0.00186179 -0.00499944 -0.126066 -0.00049118 -0.000764287 -0.0208761 2.36208e-06 -8.55292e-06 -2.40124e-06 
26.982 1 144 20.0984 14.4232 2.65958 -0.913592 -2.53419 -3.70722 0.418509 0.0256601 -0.36294 -0.140904 -0.0215027 -0.977952 -0.0242848 -0.00927765 -0.150344 2.18906e-05 -1.12235e-05 -3.85983e-05 
26.982 1 145 24.928 12.6325 0.69576 3.44336 3.21224 -1.95089 -0.415646 -0.42986 0.481535 0.0937404 -0.0253043 -0.559975 0.0122244 -0.00418659 -0.102877 7.61063e-06 1.25581e-05 -5.50793e-05 
26.982 1 302 22.7111 10.487 4.79191 6.17359 -0.092189 -1.93014 -0.222338 0.354533 -0.596455 -0.0012007 0.00097174 -0.127939 1.46111e-05 0.000112627 -0.0200618 -8.29511e-07 8.82346e-06 -1.29762e-05 
26.982 1 102 22.6423 10.5206 0.825404 -2.83133 -0.944748 -0.619992 0.226136 -0.233823 -0.0727767 0.0347367 -0.0169825 -0.615464 0.00571702 -0.00757781 -0.127535 4.53211e-07 1.16827e-05 -5.97377e-05 
26.982 1 143 22.4826 12.5115 2.63352 -4.28129 -3.31503 1.40136 0.319864 -0.251419 0.168518 0.0497897 -0.175604 -1.01741 0.00441849 -0.028469 -0.153749 1.35262e-06 1.02192e-05 -3.27605e-05 
26.982 1 342 22.4309 14.3776 4.53097 -2.61581 -1.45325 0.567998 0.0357355 0.53821 0.372608 0.0054457 0.000447988 -0.0990839 0.000493806 -0.000429002 -0.0144728 2.99436e-06 8.76786e-06 -2.24795e-06 
26.982 1 148 24.6187 14.5766 2.76759 1.61575 -8.56269 -0.232546 0.440778 -0.130145 -0.391943 0.189937 0.0221803 -1.14121 0.0297077 0.000917942 -0.171828 7.05717e-06 6.93849e-06 -4.27599e-05 
26.982 1 108 25.1892 10.5936 2.62093 0.621852 -1.14876 2.56457 -0.482862 0.103809 0.139081 -0.0933347 0.0912508 -1.05321 -0.00206694 0.0113089 -0.172212 1.46712e-06 5.3662e-06 -2.07456e-05 
26.982 1 345 24.9663 12.5663 4.73307 3.45584 -1.07486 0.433277 -0.0170949 -0.186375 -0.496798 0.000854919 0.00652899 -0.131538 0.000765174 0.000401202 -0.0212272 5.12097e-07 -2.65025e-06 -1.0851e-05 