ITEM: TIMESTEP
4000
ITEM: NUMBER OF ATOMS
4000
ITEM: BOX BOUNDS pp pp pp
-0.887164 41.3872
0.205005 40.295
0.204095 40.2959
ITEM: ATOMS mass type id x y z vx vy vz fx fy fz xrad yrad zrad vxrad vyrad vzrad fxrad fyrad fzrad 
26.982 1 3 1.11916 0.230089 2.26772 0.0628211 -8.00954 -0.647767 0.267038 0.143199 -0.0652854 -0.0478394 -0.11438 -0.0375969 -0.021716 -0.0602221 -0.0244141 -2.49364e-05 -4.23261e-05 -1.24207e-05 
26.982 1 8 3.24695 2.26206 2.09205 1.55607 3.05024 2.67974 -0.00664409 -0.28042 0.537261 0.0215402 -0.0962282 -0.0696416 0.0137285 -0.0482636 -0.0395355 4.43336e-06 -3.18024e-05 -1.28225e-05 
26.982 1 43 0.960996 4.1648 2.34787 0.144655 -0.669075 -1.9761 0.680212 0.029566 -0.18401 -0.0490295 -0.0432703 -0.101333 -0.0296146 -0.0183074 -0.0488822 -2.14029e-05 -1.70639e-05 2.42391e-06 
26.982 1 202 1.07274 2.32769 4.52692 -2.82304 -3.15812 -4.63697 0.406969 -0.468569 -1.07632 -0.0446734 -0.080923 -0.0529954 -0.0244988 -0.0324444 -0.0235806 -3.05262e-05 -1.04955e-05 -3.26601e-05 
26.982 1 245 3.24489 4.21415 4.29585 -2.6864 -0.226489 2.63222 0.0654476 -0.123807 -0.224016 -0.00298318 -0.0139832 -0.0128607 -0.00198135 -0.00615503 -0.00596139 -1.74848e-06 -2.95573e-06 -8.16177e-06 
26.982 1 2 1.15257 2.15199 0.243768 3.26348 2.46539 0.604083 -0.00232049 0.0504206 -0.220631 -0.0446687 -0.0420328 -0.0985741 -0.0235209 -0.0248214 -0.0539674 -1.58877e-05 -2.5024e-05 -4.66268e-05 
26.982 1 205 3.30865 0.378779 4.29509 6.43474 1.48016 1.58234 -0.34225 -0.602094 -0.27713 -0.00456301 -0.00974174 -0.0147465 0.00220264 -0.0166451 -0.0162073 7.20393e-06 -4.64982e-05 -3.60324e-05 
26.982 1 41 -0.853433 4.28036 0.246199 -5.89699 -1.94094 2.12876 -0.233497 -0.17892 -0.27379 -0.0280927 -0.0449742 -0.075122 -0.0125821 -0.0183204 -0.0377281 -3.29593e-05 -3.04048e-05 -3.33225e-05 
26.982 1 47 5.64224 4.04562 2.24309 1.00292 2.9611 -0.652908 -0.522118 0.594056 0.148348 -0.0178611 -0.0291083 -0.0679885 -0.00493401 -0.0176721 -0.0356486 3.37077e-06 3.17882e-06 -1.72092e-05 
26.982 1 206 5.27694 2.10701 4.22478 -6.28371 0.524306 -3.67704 0.486171 0.3682 -0.13526 -0.0248458 -0.0994894 -0.0510011 -0.00427758 -0.0509874 -0.026737 1.73432e-05 -2.67937e-05 -2.20116e-05 
26.982 1 45 3.45259 4.23226 0.32734 -2.9983 -2.01732 -2.95112 -0.321611 0.0215734 -0.270983 -0.0141342 -0.0180831 -0.0714409 -0.00328524 -0.0126858 -0.0469841 -3.45597e-06 2.17916e-08 -5.67566e-05 
26.982 1 6 5.4877 2.11682 0.250856 -2.33779 0.559552 0.340237 -0.269717 0.241685 -0.174535 -0.033293 -0.0398777 -0.0858988 -0.00978669 -0.0209573 -0.0385733 1.053e-05 -3.35187e-05 -4.74337e-05 
26.982 1 12 7.58147 2.18705 2.26508 -6.0754 -0.951421 -2.88103 -0.0580858 0.0436328 0.202946 -0.0146663 -0.118396 -0.0585977 -0.0057416 -0.0662437 -0.0350542 -1.26531e-05 -3.70585e-05 -1.76906e-05 
26.982 1 249 7.63123 4.2237 4.27608 3.6753 1.98345 -3.49074 -0.17456 0.00206837 0.0368679 -0.000709652 -0.00824399 -0.00682419 -0.000179555 -0.00563364 -0.00419393 -3.09469e-06 -4.28073e-06 -2.44692e-06 
26.982 1 51 9.64223 4.1589 2.30317 -0.143188 0.343468 7.44797 0.357545 0.128396 -0.0771949 -0.00208997 -0.00332616 -0.0496001 0.00090032 -0.00720918 -0.0316777 -3.58685e-06 -2.73992e-06 -2.05199e-05 
26.982 1 210 9.65205 2.14755 4.30801 -2.64886 1.3711 -1.7339 0.35141 0.253292 0.0739103 0.00385765 -0.0771975 -0.0475067 -0.00387483 -0.042142 -0.0254918 5.75279e-06 -2.64456e-05 -2.1424e-06 
26.982 1 11 9.62866 0.250667 2.24783 1.49347 -2.66468 -0.922439 0.429318 0.017731 -0.236998 0.00198882 -0.00493474 -0.0712191 0.000645361 0.000252717 -0.0403399 1.04711e-06 -6.00954e-05 -8.26942e-06 
26.982 1 53 11.7601 4.30732 0.281334 0.924889 1.37857 1.70943 0.0251453 -0.460062 -0.137138 0.020177 -0.0120134 -0.166552 0.00734058 -0.00192594 -0.0671877 6.5695e-06 -1.7458e-05 -6.25181e-05 
26.982 1 10 9.619 2.23783 0.292468 0.31048 2.18338 -2.66793 0.212464 -0.121976 -0.281529 -0.00185685 -0.0836926 -0.130303 -0.00356792 -0.0400942 -0.0568716 -7.42805e-06 -1.69296e-05 -6.14429e-05 
26.982 1 16 11.8863 2.23512 2.17599 -6.60254 -5.66252 -0.105432 -0.325528 0.0912339 0.235186 0.0240287 -0.116805 -0.0641788 0.0059869 -0.0523477 -0.0395059 5.98366e-06 -3.59313e-05 -1.72422e-05 
26.982 1 15 13.9373 0.222031 2.20538 3.10117 -2.23337 -1.16127 0.377776 -0.0201269 -0.133961 0.00237892 -0.0178198 -0.115171 -0.00135865 -0.0149181 -0.054657 2.96483e-07 -4.66538e-05 -2.38931e-05 
26.982 1 253 11.8587 4.23878 4.24807 -1.08651 2.4494 3.61754 -0.155149 -0.1746 -0.146228 0.000607909 -0.00906696 -0.0065023 0.000189986 -0.00434164 -0.00464709 -1.15198e-06 -6.62589e-06 -4.3953e-06 
26.982 1 55 13.9397 4.08899 2.18663 1.79037 -0.108904 1.95701 0.2183 0.409554 0.173385 -0.000557987 -0.0352263 -0.0690363 -3.33691e-05 -0.0116579 -0.0453292 3.38722e-06 -1.20769e-05 -1.91115e-05 
26.982 1 214 14.0712 2.05502 4.23011 -1.38249 4.78136 2.15616 -0.119671 0.156426 -0.246206 0.0170035 -0.0940445 -0.0478655 0.00860448 -0.043469 -0.0233524 -1.65088e-06 -2.70435e-05 -1.21915e-05 
26.982 1 20 16.201 2.16646 2.08251 1.72389 -3.6648 -5.76077 -0.218538 0.228432 0.443598 -0.0465474 -0.120434 -0.0504455 -0.0186927 -0.0573344 -0.0304831 -1.68744e-05 -3.2389e-05 -2.08564e-05 
26.982 1 257 16.162 4.17267 4.16543 -3.11642 -5.82271 3.29279 -0.415073 0.157951 -0.0983757 -0.00135317 -0.0131686 -0.00587344 -0.000642731 -0.00620899 -0.00438355 -1.04211e-05 -8.40939e-07 -4.52144e-06 
26.982 1 19 18.2564 0.260796 2.27783 -0.0836096 4.80333 -0.990297 0.367632 0.0327929 -0.0872708 0.00198067 -0.107476 -0.0284152 0.00514332 -0.0464549 -0.0219987 1.93792e-06 -5.86417e-05 -8.5576e-06 
26.982 1 218 18.2106 2.30483 4.30748 -2.19486 2.3542 2.73862 0.28852 -0.586341 -0.774051 -0.0093927 -0.0870659 -0.0235085 -0.00574461 -0.0423234 -0.01509 2.72437e-06 -3.40688e-05 -1.726e-05 
26.982 1 18 18.3353 2.2804 0.258925 1.63965 2.35727 -0.963048 -0.272049 0.0380012 -0.188425 -0.00778829 -0.0651287 -0.156538 -0.00251347 -0.0280978 -0.0761732 -3.85696e-06 -2.9051e-05 -6.02821e-05 
26.982 1 59 18.2557 4.2884 2.29469 2.00117 -3.13736 1.55315 -0.0681512 -0.132548 -0.45771 0.00513452 -0.00390804 -0.0411223 0.00363061 -0.00140987 -0.0296751 -3.33427e-06 -2.95186e-06 -1.5563e-05 
26.982 1 57 16.0838 4.35354 0.198714 2.77157 0.662795 -0.734719 0.181326 -0.195166 0.103447 -0.0276612 -0.0236514 -0.166433 -0.00883647 -0.00401682 -0.0670153 -8.6231e-06 -1.38586e-05 -6.0094e-05 
26.982 1 24 20.4303 2.29456 2.22993 0.877698 -4.24883 -4.08287 -0.301833 -0.299087 0.0334088 0.0102924 -0.0916444 -0.0297735 0.00750107 -0.0419285 -0.0260493 -5.20071e-06 -3.5497e-05 -7.13043e-06 
26.982 1 63 22.5028 4.23611 2.26731 3.63847 0.136084 0.961516 0.0226933 -0.0974936 -0.0854971 0.000667379 0.00794325 -0.0622851 0.000492715 -0.000522173 -0.0434649 3.03179e-06 -4.50949e-06 -9.33872e-06 
26.982 1 222 22.4643 2.25205 4.27143 0.85334 -0.782209 -0.716326 0.199218 -0.26272 -0.0124109 -0.0172247 -0.0710362 -0.0328444 -0.00503544 -0.035571 -0.019692 3.26622e-06 -3.48753e-05 -3.33624e-06 
26.982 1 261 20.3496 4.17335 4.29992 0.459371 0.985866 0.642703 -0.030909 0.0653078 -0.496404 0.000666841 -0.0091899 -0.00631339 0.00042697 -0.00424196 -0.0049848 -5.95469e-07 -2.09644e-06 -7.52428e-06 
26.982 1 23 22.3815 0.319649 2.14501 1.00944 -1.02438 -1.09912 0.195509 -0.42267 -0.0245509 -0.0129691 -0.0573271 -0.0550382 -0.00172048 -0.0233611 -0.0396732 -2.35064e-06 -6.44288e-05 -6.87705e-06 
26.982 1 61 20.3262 4.27152 0.297729 5.56892 4.49337 -3.03814 -0.044786 -0.0917749 -0.438111 0.0127015 0.00809883 -0.137327 0.00541463 0.00221966 -0.0470834 -2.03097e-06 -6.65959e-06 -6.14822e-05 
26.982 1 22 22.5407 2.25293 0.170267 3.50076 4.93085 -3.11569 -0.274429 -0.194821 0.505545 -0.00753804 -0.0490394 -0.140616 0.000510348 -0.0244064 -0.0569998 1.65455e-06 -2.54205e-05 -6.11385e-05 
26.982 1 28 24.5823 1.99888 2.22237 -5.98256 -3.41302 -0.135835 -0.114865 0.4503 0.0829439 -0.0138049 -0.0509602 -0.0489842 -0.0125363 -0.0273457 -0.0357748 9.17601e-06 -2.95269e-05 -1.73323e-05 
26.982 1 27 26.7188 0.283569 2.16684 -2.38396 -3.93928 0.763455 0.00560533 -0.480119 -0.0216166 0.0424686 -0.159249 -0.0394706 0.00857007 -0.0804065 -0.02569 -9.41477e-06 -5.08106e-05 -3.85948e-05 
26.982 1 67 26.7095 4.04431 2.22697 -0.0770606 1.77748 -1.52397 -0.270439 0.518016 0.0736665 0.000748077 0.00405446 -0.0725585 0.000245315 0.0030062 -0.0442511 7.50605e-06 3.37741e-06 -4.66003e-05 
26.982 1 226 26.8285 2.05213 4.24241 4.31684 0.367679 -4.1102 -0.53886 0.579296 -0.137671 0.0219366 -0.0531119 -0.0118525 0.00471335 -0.0228678 -0.0064823 -1.95686e-05 -9.05627e-06 -7.49173e-06 
26.982 1 265 24.6738 4.12601 4.18992 -1.31543 -3.67126 2.89459 0.0609523 0.0260146 0.157362 -0.000311435 -0.00443522 -0.00764767 -0.000411327 -0.0027831 -0.00541445 3.56547e-06 -5.35119e-06 1.23745e-06 
26.982 1 65 24.6678 4.20813 0.312816 4.96175 -0.396924 0.907277 -0.432768 0.224619 -0.0901779 0.0118402 0.012634 -0.137412 0.00500326 0.00310465 -0.0470214 2.49319e-05 -2.90808e-06 -6.18952e-05 
26.982 1 32 28.7519 2.29614 2.07933 -0.991791 2.90236 0.133518 0.41231 -0.475215 0.100207 0.00465762 -0.0887645 -0.0469236 -0.000947172 -0.0299343 -0.0315784 5.9395e-06 -1.11323e-05 -6.18918e-05 
26.982 1 71 30.9099 4.18695 2.1501 -0.049483 -0.260613 2.74608 -0.0341142 0.237739 0.0167055 -0.00578018 -0.00484267 -0.0390455 -0.00427908 0.00319959 -0.0310164 2.19375e-06 3.01123e-06 -5.91205e-05 
26.982 1 230 30.8259 2.03959 4.23071 -2.508 -2.12506 1.7842 0.00219019 0.633509 0.234026 -0.0119895 -0.0793051 -0.0248434 -0.00517394 -0.0278039 -0.00903765 1.08717e-07 1.76227e-06 -3.5715e-06 
26.982 1 269 28.8303 4.20406 4.05357 0.110618 3.72693 -2.94077 0.192937 0.0966738 0.413675 -0.000683915 -0.00894064 -0.00668436 -0.000454998 -0.00284827 -0.00495633 6.26613e-06 2.80037e-06 -2.26023e-06 
26.982 1 273 32.8851 4.40611 4.20707 -3.399 1.99156 1.833 0.197073 -0.738931 -0.0444725 0.00128973 -0.00650987 -0.00547816 0.000428585 -0.00162454 -0.00363487 -1.94557e-06 -1.01318e-05 -6.74468e-06 
26.982 1 229 28.7706 0.188469 4.15841 -5.26469 -5.26547 -0.143633 0.0224075 -0.0906399 -0.0575667 -0.00110201 -0.0315197 -0.0228846 -0.00103537 -0.0316943 -0.0170686 1.64493e-06 -4.71096e-05 -2.34593e-05 
26.982 1 31 30.9354 0.372088 2.11949 2.49386 2.97929 -0.676598 -0.0449993 -0.531386 -0.000234414 -0.0290969 -0.0985558 -0.0558546 -0.0137065 -0.0647042 -0.0266414 3.20536e-07 -4.74381e-05 -4.84142e-05 
26.982 1 36 32.9649 2.26547 2.33324 -2.36868 -0.657257 4.88398 0.209761 0.0561111 -0.179068 0.00110359 -0.080453 -0.0560817 0.000412755 -0.0245003 -0.027799 -6.6924e-06 -6.33546e-06 -4.69694e-05 
26.982 1 35 35.1173 0.261065 2.22817 3.06922 0.735702 0.483095 -0.274752 0.00383225 0.0188336 0.00522259 -0.153781 -0.0706119 0.00806825 -0.0804674 -0.0309835 -1.94485e-06 -5.61839e-05 -3.45056e-05 
26.982 1 75 35.0621 4.24419 2.32928 1.04809 -0.386512 -2.95612 0.210528 -0.115081 -0.213641 0.036853 -0.00338432 -0.0983429 0.0148217 0.00293603 -0.0492776 -8.6497e-06 7.48487e-06 -3.71815e-05 
26.982 1 234 34.9717 2.26663 4.36841 -0.386954 3.36212 2.48895 0.0814547 0.132496 -0.221535 -0.0015883 -0.0462851 -0.016134 0.00163669 -0.0181955 -0.00677205 5.34125e-07 -3.71902e-06 -6.19915e-06 
26.982 1 34 35.0698 2.24349 0.233866 -0.450253 4.47666 -0.410439 0.273287 0.198153 0.0927335 0.0259322 -0.0197426 -0.099223 0.0165542 -0.00364309 -0.0661409 -1.62596e-05 -1.29356e-05 -5.81734e-05 
26.982 1 233 33.0425 0.2754 4.36021 -1.39398 -0.315042 3.74459 -0.331353 -0.387995 -0.283585 0.00120811 -0.0746379 -0.0344507 0.000331358 -0.0494429 -0.021143 -4.19525e-06 -4.84639e-05 -2.65007e-05 
26.982 1 237 36.9651 0.310272 4.20144 2.12146 -2.14196 -0.639352 0.651873 -0.154959 0.131683 0.0228358 -0.0867238 -0.0673251 0.00939756 -0.0474951 -0.0326606 2.18685e-05 -4.46823e-05 -2.468e-05 
26.982 1 277 37.133 4.20926 4.19788 -1.37009 -1.91334 -1.01014 0.27589 0.101504 0.109617 0.00151817 -0.00642663 -0.0171698 0.000687337 -0.00263171 -0.00826824 7.07371e-06 -2.78073e-06 -2.10479e-06 
26.982 1 77 37.2596 4.10266 0.292734 10.4846 4.73157 -1.64788 -0.0870506 0.665848 -0.328385 0.000477004 -0.00136403 -0.000490263 0.000218334 -0.00124824 -0.000953577 -1.50107e-05 1.32684e-05 -6.11935e-05 
26.982 1 241 41.2868 4.22306 4.31365 -0.0887265 3.96874 -3.3432 -0.0918029 0.316633 -0.21125 -0.0804655 -0.0827462 -0.085229 -0.0321576 -0.0328862 -0.0362798 -3.95021e-06 9.87389e-07 -4.689e-06 
26.982 1 4 41.2989 2.06595 2.14927 3.77281 6.51916 3.26789 0.247749 0.18398 0.087224 -0.0548627 -0.080465 -0.0897474 -0.0338164 -0.0324993 -0.0402886 -7.86026e-06 -4.39535e-05 -7.5523e-06 
26.982 1 40 37.2364 2.32204 2.24905 1.05977 2.36833 -1.25768 -0.015918 -0.567995 0.0350393 0.0489977 -0.0605552 -0.127408 0.0236663 -0.0243591 -0.0597785 1.04875e-05 -3.59703e-05 -1.86776e-05 
26.982 1 79 39.3661 4.37966 2.17824 1.80506 -4.94431 5.34963 -0.193397 -0.204115 0.259182 -0.0217133 -0.0326486 -0.119338 -0.0080863 -0.0152027 -0.0596991 -4.19515e-06 -6.42786e-06 -4.97008e-06 
26.982 1 238 39.465 2.21257 4.10143 0.169516 0.847555 -2.25572 -0.940635 -0.1184 0.163661 0.00345458 -0.0799473 -0.054302 -0.000462223 -0.0321522 -0.0237053 -4.54813e-06 -3.60059e-05 -1.14771e-05 
26.982 1 38 39.3789 2.1547 0.197568 -1.23142 -1.36694 -2.15415 -0.286197 0.120882 0.00569396 0.00347109 -0.0341296 -0.0415142 0.0014293 -0.0221068 -0.0280571 -3.65902e-06 -4.0876e-05 -4.72013e-05 
26.982 1 83 1.17075 8.1347 2.32297 1.26614 0.87219 -4.88856 0.448782 0.376109 -0.337385 -0.0770338 -0.0146653 -0.0896612 -0.0364299 -0.00995586 -0.0491731 -1.11954e-05 -8.45999e-06 -1.44276e-05 
26.982 1 242 1.09238 6.21615 4.26399 0.688573 -0.219571 2.67862 0.431577 -0.208849 0.0961608 -0.0767433 0.0228269 -0.0453169 -0.0359615 0.00389457 -0.0213458 -2.17757e-05 -1.72277e-05 -1.36841e-05 
26.982 1 281 -0.850843 8.19364 4.23558 -1.36891 -2.64093 -0.690292 -0.220604 0.572379 0.227545 -0.0175254 -0.021279 -0.0258513 -0.0199076 -0.0188534 -0.0219935 -3.78112e-05 -2.19682e-05 -2.55771e-05 
26.982 1 285 3.14047 8.31251 4.33766 0.145936 -1.18366 1.01379 0.491109 -0.0550472 -0.455203 -0.01126 0.000308766 -0.0114781 -0.00434629 -0.000103773 -0.00531007 4.50368e-06 -4.05636e-07 -9.32749e-06 
26.982 1 42 1.2326 6.16146 0.201521 0.29541 0.472182 -0.0225594 0.339969 -0.0280985 0.438186 -0.0529562 -0.0268939 -0.0895229 -0.0349538 -0.00976683 -0.0452966 -4.14395e-06 -9.91146e-07 -4.48155e-05 
26.982 1 81 -0.73887 8.15387 0.317961 2.94976 4.50916 -8.01143 -0.202872 0.679214 -0.197149 -0.0545062 -0.027313 -0.0983725 -0.0180507 -0.0116017 -0.0477685 -3.63763e-05 -1.66862e-05 -3.60292e-05 
26.982 1 48 3.42859 6.22365 2.38216 -2.97121 1.40942 1.6184 -0.23919 0.0545537 -0.380176 -0.0301334 -0.00363319 -0.0854037 -0.014648 -3.29203e-06 -0.0407484 -3.89893e-06 -1.71456e-06 -1.40921e-05 
26.982 1 46 5.52411 6.19467 0.296595 1.37706 0.712378 1.66794 0.187058 0.244754 0.191397 -0.0182474 0.00842451 -0.179731 -0.00584365 0.00378329 -0.090151 8.14257e-06 -5.52368e-06 -5.66256e-05 
26.982 1 87 5.61223 8.39827 2.32365 2.50779 -0.154136 1.44137 -0.363451 -0.571118 -0.14236 -0.00246952 0.0161758 -0.0778213 -0.00108815 0.00471981 -0.0353238 -8.03469e-06 -1.28765e-05 -1.02035e-05 
26.982 1 246 5.45251 6.26621 4.25203 -1.79021 0.306771 1.8524 0.297192 -0.265225 -0.435091 -0.000284214 -5.62908e-05 -0.00553594 -0.000191545 -7.15624e-05 -0.00269644 4.47194e-06 -3.37576e-06 -1.15854e-05 
26.982 1 85 3.35726 8.3931 0.417713 -3.81034 -5.16604 -4.25781 0.161791 -0.711232 -0.206533 -0.00399399 0.0279047 -0.0896767 -0.00265613 0.00776995 -0.0452199 2.38814e-06 -9.90509e-06 -5.80507e-05 
26.982 1 52 7.68971 6.15606 2.25524 3.50337 -2.75938 1.83428 -0.395952 0.163025 0.129065 0.0117682 0.0143278 -0.0632013 0.00500153 0.005028 -0.0319347 -9.17811e-06 -1.05732e-05 -1.88938e-05 
26.982 1 289 7.61762 8.30746 4.27282 -3.84787 -0.145098 0.352607 0.116066 -0.19308 0.289576 0.000783907 0.000457945 -0.00994896 0.000319876 0.000165752 -0.0044064 4.22055e-06 -2.72216e-06 6.66096e-06 
26.982 1 56 11.7793 6.25037 2.20889 1.13474 2.36109 -2.73103 0.106611 -0.113637 0.379508 -0.00430208 0.034458 -0.0836519 0.00366952 0.0096269 -0.0455148 2.93405e-06 -3.3848e-06 -3.13093e-07 
26.982 1 91 9.65526 8.23118 2.25644 0.904025 0.313536 -0.669042 0.467585 0.178521 0.192167 0.0168096 0.0121365 -0.112412 0.00560133 0.00471551 -0.0497108 8.33884e-06 3.23539e-06 -4.54096e-06 
26.982 1 250 9.68284 6.19997 4.29712 0.892746 3.53941 -1.02621 0.111658 0.277856 -0.102934 0.000966187 0.00107136 -0.00691858 0.000413972 0.000325906 -0.00351634 2.94588e-06 6.71394e-06 -1.84576e-06 
26.982 1 50 9.69392 6.33404 0.256185 -4.52759 1.88221 -1.97319 0.291995 -0.325137 0.116077 0.0144643 0.02547 -0.120295 0.00683504 0.00541256 -0.0659302 -8.91314e-06 -1.32253e-05 -6.48405e-05 
26.982 1 290 9.93931 10.2236 4.26711 -3.04393 3.52239 1.55505 -0.380652 -0.207951 0.159078 0.000800745 -0.000401096 -0.0120436 0.000396117 1.69996e-05 -0.00551578 -3.21613e-06 -6.70301e-06 3.99084e-06 
26.982 1 89 7.62714 8.27021 0.41003 1.39778 -0.452676 -2.87272 0.00462497 -0.00183436 -0.578395 0.00436815 0.0329711 -0.0902592 0.00152352 0.0106134 -0.0454121 -1.83525e-06 -4.37893e-06 -6.66818e-05 
26.982 1 293 11.9244 8.21667 4.18521 -0.0757077 -2.64312 -1.96442 0.00679556 -0.0910201 0.23104 -0.000949771 0.000776161 -0.0132781 -0.000213581 0.000399329 -0.0060879 4.86845e-07 -2.66503e-06 5.6525e-06 
26.982 1 95 14.05 8.21375 2.11629 4.01901 -3.42804 -1.95545 0.00101217 0.338375 0.543266 -0.0277371 0.0133964 -0.0939976 -0.00904939 0.00172672 -0.0500883 1.43617e-05 2.11036e-05 -2.5814e-05 
26.982 1 254 14.1163 6.28532 4.25103 4.3449 2.17998 5.62607 -0.625428 -0.402858 -0.140688 -0.000474324 0.000106548 -0.0061528 -1.76554e-05 1.37686e-05 -0.00458116 -1.32157e-05 -6.3341e-06 -1.60198e-06 
26.982 1 60 15.9821 6.26816 2.16336 -0.236873 6.52201 0.839256 0.385916 -0.324041 -0.0964308 -0.00362799 0.00565355 -0.0493573 -0.00510591 3.64885e-06 -0.0351144 6.07878e-06 7.64379e-06 -2.55632e-05 
26.982 1 93 11.909 8.3358 0.374404 -4.53204 1.45224 0.819382 -0.432876 -0.148057 -0.595388 0.00440619 0.000470137 -0.0120167 0.00918582 0.000291213 -0.0229374 6.22423e-06 1.47204e-05 -6.70533e-05 
26.982 1 54 13.853 6.28285 0.253213 0.325766 -3.02619 -4.05773 0.542699 -0.54377 0.283214 -0.0307094 0.0253798 -0.138973 -0.0105544 0.00832427 -0.047633 1.2965e-05 4.36286e-06 -6.47669e-05 
26.982 1 297 16.2056 8.13189 4.1343 2.48606 0.495867 0.413481 -0.367013 0.837794 -0.00639843 -8.62738e-05 0.00127082 -0.00699415 -0.000108377 0.000498279 -0.00410806 -7.92476e-06 1.5448e-05 -5.96779e-06 
26.982 1 99 18.151 8.44618 2.16582 1.27936 -3.59174 0.941405 0.0943375 -0.460836 0.0785972 0.0108388 0.0160704 -0.0728948 0.000624935 0.00648216 -0.0361235 -1.36357e-05 7.62062e-06 -3.82222e-05 
26.982 1 258 18.1941 6.24475 4.12687 -1.53138 1.00685 0.732148 0.205985 0.0916583 0.240827 0.0007216 0.00131719 -0.00452542 0.000155874 0.000311893 -0.00312229 3.02211e-06 1.23017e-06 5.89012e-07 
26.982 1 298 18.1537 10.2552 4.28229 1.35087 3.62616 -1.43556 -0.130432 0.173131 -0.343799 0.000542533 0.000604211 -0.0110597 -4.10132e-05 0.000433127 -0.00567109 -4.61313e-06 2.91094e-06 -1.10096e-05 
26.982 1 58 18.2449 6.34059 0.199282 0.252772 -2.01369 -1.36712 -0.28834 -0.382818 0.0409684 0.0181551 0.0169521 -0.150017 0.00457381 -0.00125211 -0.0697165 -1.77558e-05 9.93589e-06 -5.8301e-05 
26.982 1 301 20.2377 8.35758 4.1498 -4.70622 -4.26631 0.485838 -0.0538099 -0.216416 0.14555 0.00101507 0.000914265 -0.0100485 0.000227466 0.000367364 -0.00430724 -2.06333e-06 -4.7676e-06 1.94914e-06 
26.982 1 101 20.2877 8.15557 0.285445 1.18356 1.64995 3.69766 0.266035 0.399233 -0.50078 0.0232041 -0.00866935 -0.101374 0.00898567 -0.000299229 -0.0674867 2.72136e-06 2.64357e-05 -6.63109e-05 
26.982 1 64 20.3597 6.30498 2.23035 0.873669 1.24041 1.60845 -0.0985457 -0.259243 0.421112 0.0135491 0.0103461 -0.0735543 0.00550328 -0.00362579 -0.0395364 -2.00594e-06 -2.63317e-06 -1.94474e-06 
26.982 1 103 22.4314 8.27008 2.36855 -2.28165 -1.05997 -4.33196 -0.369694 -0.445335 -0.676463 0.000505105 0.0155885 -0.10886 0.000243873 0.00585634 -0.0472332 -4.35825e-06 1.18489e-06 -2.71397e-05 
26.982 1 262 22.5932 6.22725 4.19781 -1.12278 -1.40082 0.862153 -0.124844 0.131705 0.0237432 3.89889e-06 0.00134043 -0.00919845 -2.50985e-05 -0.000107484 -0.00489572 -5.09709e-07 2.38772e-06 -1.99076e-07 
26.982 1 105 24.3473 8.19782 0.359276 -0.749454 2.82807 0.848457 -0.0182429 0.131634 -0.585346 -0.00745322 -0.016732 -0.100236 -0.00186903 -0.0041865 -0.0671084 1.90036e-06 2.4021e-06 -6.79565e-05 
26.982 1 305 24.4474 8.3292 4.23151 5.15495 -0.0608839 3.57808 0.42406 -0.20993 0.100057 -0.000693211 0.000606992 -0.011014 0.000136227 0.000379676 -0.00465486 1.05578e-05 -6.08067e-06 -3.58578e-07 
26.982 1 62 22.3311 6.12411 0.216378 3.26328 2.25692 -3.06349 0.357301 0.25125 -0.133236 0.000270948 0.0325103 -0.0901624 0.000211438 0.00210183 -0.0453544 1.09254e-05 5.8694e-06 -6.15506e-05 
26.982 1 68 24.6319 6.19562 2.23905 -4.25145 -1.2146 3.85005 -0.00187132 0.00822786 0.0912525 0.00049784 0.00986601 -0.0869041 0.000412269 -0.00375077 -0.0452362 1.52744e-05 4.17281e-07 -2.0333e-05 
26.982 1 107 26.5536 8.37406 2.20348 -8.00383 3.00904 -1.30837 0.024726 -0.632448 0.564293 0.0171048 -0.0144421 -0.0999888 0.0122896 -0.00429496 -0.0502061 1.07387e-06 -2.11e-05 -1.21007e-05 
26.982 1 266 26.8481 6.15601 4.09419 -0.610962 3.6619 -2.70947 -0.41888 0.247048 0.102041 0.000521304 0.00133432 -0.00998571 0.000347904 0.000490157 -0.00556501 -6.05804e-06 5.11827e-06 -6.24035e-06 
26.982 1 309 28.6526 8.24436 4.31773 -2.3505 6.95687 -1.24277 0.303957 0.0501596 -0.52128 -0.000575691 -6.13527e-05 -0.0127924 -0.000400779 1.55639e-05 -0.00717398 5.93229e-06 -1.21212e-06 -1.10208e-05 
26.982 1 106 26.5646 10.1713 0.327796 10.1303 -0.630575 -4.51708 -0.118279 0.472823 -0.655102 -0.0236368 -0.0152433 -0.167915 -0.0071248 -0.00494091 -0.0675948 -1.90644e-05 1.53368e-05 -6.71691e-05 
26.982 1 109 28.6054 8.3077 0.19931 -1.40224 -1.08041 -1.50944 0.22372 -0.143373 -0.229609 -0.000309085 0.000210202 -0.000208283 -0.000129169 2.97636e-06 -0.000329373 1.21877e-06 -2.74054e-05 -6.27458e-05 
26.982 1 72 28.8328 6.27957 2.01293 -0.238137 -0.670031 0.184466 -0.150165 -0.267028 0.278287 -0.0160328 0.0294021 -0.0902582 -0.00456031 0.00997682 -0.0539683 -2.09921e-06 -1.84404e-05 -4.23286e-05 
26.982 1 111 30.742 8.21378 2.13375 -2.82666 -1.14649 -4.93076 0.108136 0.00594809 0.223731 -0.017409 -0.00255773 -0.0825606 -0.00875092 -0.0049501 -0.0454224 1.62351e-05 -1.5978e-05 -2.93282e-05 
26.982 1 270 30.9613 6.23988 4.17688 -5.75255 0.781762 -2.48448 -0.495785 0.165937 -0.0748765 -0.00010998 0.0013645 -0.00622423 -0.000302696 0.000508265 -0.00465374 -7.15422e-06 3.60731e-06 -8.98099e-06 
26.982 1 313 32.9175 8.27018 4.12808 1.52162 2.8322 -0.703733 0.139393 -0.211943 0.349831 0.000612198 0.000346172 -0.00815711 0.000258098 0.000231265 -0.00478061 2.21387e-06 -3.63637e-06 2.32453e-07 
26.982 1 116 32.9149 10.1569 2.14458 0.228065 -5.87039 -2.98188 -0.0391778 0.108287 -0.238646 0.00902891 0.00391601 -0.0748816 0.00835795 0.00507777 -0.0459749 1.19521e-05 -4.20526e-06 -5.45988e-05 
26.982 1 110 30.6237 10.2094 0.240488 4.34956 4.34521 1.65578 0.432346 -0.0406629 -0.28545 0.00200495 -0.028265 -0.17914 0.00129539 -0.00825341 -0.0898244 3.14067e-05 8.22568e-07 -6.28025e-05 
26.982 1 76 33.2177 6.2161 2.11637 1.82662 2.44051 -1.29312 -0.654696 0.281954 0.327887 0.0164143 0.0158253 -0.06807 0.00464937 0.00485647 -0.0413728 -1.24671e-05 2.33666e-06 -6.01821e-05 
26.982 1 115 35.0754 8.19107 2.08516 -0.490655 -3.50245 -2.88824 0.0106162 0.427842 0.442619 -0.0153033 -0.00916104 -0.0719745 -0.00797184 2.70789e-05 -0.0414552 -1.47923e-05 3.75678e-06 -4.28152e-05 
26.982 1 274 35.0686 6.31849 4.37121 -2.0271 3.97101 3.22662 -0.108071 0.203115 -0.453637 0.00189242 -0.000972559 -0.00946147 0.00059229 -0.000352331 -0.00508058 -3.98013e-06 7.60137e-06 -9.00938e-06 
26.982 1 120 37.0996 10.2044 2.30081 4.50584 0.444774 0.394367 -0.0566764 0.410397 0.0239236 0.0233391 0.0254067 -0.0904423 0.00613788 0.0138549 -0.0494915 -1.14704e-05 6.96617e-06 -1.72932e-05 
26.982 1 44 41.3334 6.33395 2.24007 1.2102 -2.82412 1.83311 0.0320917 -0.59134 0.148732 0.0132786 -0.0851358 -0.0871077 0.00152402 -0.0346067 -0.0509666 1.43373e-05 -3.82456e-05 -1.99828e-05 
26.982 1 117 37.3065 8.32451 0.388005 3.90843 -3.54927 -0.467507 -0.454184 -0.325239 -0.460045 0.0158209 0.00458781 -0.179127 0.00140722 0.00693615 -0.089892 -2.89252e-05 -4.36459e-06 -6.75844e-05 
26.982 1 80 37.1588 6.31798 2.39587 -2.19439 0.843414 -1.113 0.120921 -0.345669 -0.423912 -0.00197637 -0.0397642 -0.093514 -0.00244369 -0.0194133 -0.0459878 -1.12525e-05 -7.87636e-06 -2.76075e-05 
26.982 1 119 39.3464 8.23161 2.27625 -4.14676 -0.240442 -4.02239 -0.00223698 0.331645 -0.121981 0.0175796 0.0157286 -0.085703 0.0104474 0.00842225 -0.0431875 1.79988e-06 5.76108e-06 -1.30301e-05 
26.982 1 278 39.2423 6.45965 4.35975 -2.83599 -0.878366 5.69583 0.248812 -0.875417 -0.400093 0.0373453 -0.0380912 -0.011936 0.0152085 -0.0156203 -0.00573033 4.45938e-06 -1.42304e-05 -5.56711e-06 
26.982 1 317 37.2559 8.29179 4.25411 -1.62154 -2.04858 0.711198 -0.67446 0.340188 0.193677 0.000224074 -0.00100598 -0.00654116 1.08017e-06 -0.0002342 -0.00341275 -1.48573e-05 7.54621e-06 3.56568e-06 
26.982 1 78 39.2244 6.31932 0.182053 4.35797 0.597151 -3.25531 -0.0342267 -0.341557 0.0900513 -0.00329835 -0.0431143 -0.117498 0.000957916 -0.0189285 -0.0646344 7.0561e-06 -1.29761e-05 -6.35309e-05 
26.982 1 123 1.23655 12.2893 2.2033 4.04565 4.1711 -3.96285 0.239034 -0.0910207 -0.107285 -0.0724395 -0.0436623 -0.10261 -0.0340748 -0.0161718 -0.0456763 -2.27728e-05 8.56362e-06 -2.45992e-05 
26.982 1 128 3.3399 14.2506 2.19292 1.12678 -2.60782 -1.9453 -0.102847 -0.414542 0.24978 -0.00976471 -0.000187805 -0.0758557 -0.00331829 1.15329e-05 -0.0333201 -5.13209e-06 -6.01192e-06 -2.87991e-05 
26.982 1 282 1.03467 10.327 4.14354 2.26928 0.490862 6.48687 0.727503 -0.322523 0.420304 -0.0788738 -0.0113017 -0.0356111 -0.031339 -0.00154808 -0.0134257 -1.53071e-05 1.37322e-05 5.00119e-06 
26.982 1 322 1.19764 14.1329 4.27752 -1.42437 1.55328 -2.78401 -0.100518 0.0318293 -0.160144 -0.0505144 -0.0200059 -0.0295537 -0.0214025 -0.00962603 -0.010578 -2.19934e-05 -1.30335e-05 -7.53501e-06 
26.982 1 84 -0.864566 10.3311 2.12837 1.71586 2.08921 -1.95761 -0.213935 -0.361129 0.105256 -0.0542837 -0.0357661 -0.135447 -0.0466137 -0.0103282 -0.0588366 -5.84791e-05 1.9681e-05 -1.07367e-05 
26.982 1 124 -0.723582 14.2488 2.01318 5.18833 -7.29067 -0.30354 -0.606838 0.123608 0.57293 -0.0625903 -0.0389973 -0.0963633 -0.0514118 -0.0222849 -0.0411607 -4.71534e-05 -1.37123e-05 -3.44576e-05 
26.982 1 82 1.2998 10.3004 0.20625 0.72873 1.23147 0.0103497 -0.0822923 -0.0870826 0.102375 -0.0715091 0.032959 -0.0330228 -0.0388123 0.0129065 -0.0326043 -1.5419e-05 1.26057e-05 -5.71547e-05 
26.982 1 86 5.63575 10.3461 0.252557 0.420266 -1.88112 0.669255 -0.272576 -0.0698531 -0.205482 -0.0130946 -0.0175224 -0.101068 -0.00162717 -0.00705194 -0.0674653 -6.21117e-06 -1.55713e-06 -6.55404e-05 
26.982 1 286 5.48857 10.2373 4.31555 0.586571 -2.77445 -1.40833 0.192946 0.0210559 0.218672 -0.000513554 0.000196064 -0.00877562 -8.91618e-05 6.99646e-06 -0.00354097 4.47674e-06 -1.58997e-06 3.5337e-06 
26.982 1 88 3.46978 10.265 2.32672 -1.08282 0.864852 -1.94225 -0.488343 0.0480154 -0.0215479 -0.0288952 -0.00679608 -0.106748 -0.0132738 -0.00469215 -0.0456311 -1.12224e-05 1.97348e-07 -9.72312e-06 
26.982 1 125 3.48235 12.3239 0.253429 -0.6918 -1.6933 -0.0461387 -0.252469 -0.223668 -0.152384 -0.017265 -0.0405208 -0.120176 -0.00864682 -0.0147119 -0.0658695 -3.35969e-06 1.806e-05 -6.17285e-05 
26.982 1 325 3.33351 12.2203 4.28622 -5.21433 3.43652 -2.86987 -0.278579 -0.0483106 -0.142892 -0.00793963 -0.00200858 -0.0101519 -0.00342781 -0.000610724 -0.00419045 -9.27439e-06 -2.29953e-06 -5.12547e-06 
26.982 1 127 5.48568 12.1605 2.32839 -1.87088 -1.16778 -2.93635 0.173007 0.350195 -0.0122033 -0.0103162 -0.00491306 -0.0691968 -0.000450165 7.16679e-05 -0.0321862 2.0873e-06 1.82265e-05 -1.94302e-05 
26.982 1 326 5.26951 14.2016 4.29321 -1.7916 -0.742945 -0.625268 0.527418 -0.465539 0.0552645 -5.28914e-05 0.000334659 -0.0070754 0.000220317 0.000103884 -0.00334459 9.18424e-06 -6.47724e-06 -4.3675e-06 
26.982 1 132 7.57935 14.2226 2.41526 3.08015 0.115056 0.0609803 -0.0319406 -0.020227 -0.0963896 0.00665765 0.0162455 -0.0761577 0.00482126 0.00476236 -0.0408432 -1.05649e-05 3.36757e-06 -1.97812e-05 
26.982 1 130 9.72238 14.1447 0.282578 -3.77779 3.22223 -0.824512 0.433631 0.015678 0.21797 0.00450983 -0.00927298 -0.0896738 0.00136648 -0.0100671 -0.0452312 1.94941e-05 -4.51226e-06 -5.77236e-05 
26.982 1 92 7.72842 10.2834 2.25938 3.85973 -2.46604 -2.38818 -0.130311 0.00843565 0.418871 0.0079252 -0.0161666 -0.0854421 0.00518875 -0.00424872 -0.0407166 -1.05403e-06 3.64664e-07 -3.40774e-07 
26.982 1 329 7.62145 12.2015 4.35048 2.1248 2.62416 3.46758 -0.238093 -0.0221709 -0.187358 0.000110453 -0.000180495 -0.00643868 0.00020908 0.00018835 -0.00380979 -4.59739e-06 -5.59915e-07 -2.26926e-06 
26.982 1 131 9.65487 12.2851 2.44438 -1.37715 -1.67253 -0.105896 0.478973 0.00613466 -0.344872 0.00678061 -0.00501532 -0.0788505 0.00445281 9.84133e-05 -0.0445821 1.86091e-05 1.9957e-06 -1.84865e-05 
26.982 1 330 9.78761 14.3342 4.17874 5.27923 -2.32151 1.75268 -0.112464 0.120636 0.377868 6.44176e-05 0.000736225 -0.00901942 -3.29635e-06 0.000238084 -0.00499913 -8.54447e-07 4.31681e-06 2.76185e-06 
26.982 1 90 9.74897 10.4944 0.333116 -0.272857 0.364663 -3.08528 0.361637 -0.801443 -0.179321 0.000361897 -0.0195337 -0.0710527 0.00107199 -0.00110395 -0.0469828 2.22941e-05 2.24357e-06 -6.36645e-05 
26.982 1 129 7.66715 12.2305 0.363945 -4.45495 1.45399 -4.39013 -0.205878 0.185125 -0.219532 0.0117541 -0.00864507 -0.168135 0.00824962 0.000491141 -0.067711 -1.43009e-05 1.89323e-05 -6.33463e-05 
26.982 1 96 11.9884 10.2628 2.14237 2.58605 2.85511 1.52333 -0.282635 0.212232 0.295273 -0.0030612 -0.0261758 -0.110258 0.000720215 -0.00501269 -0.0543672 7.53598e-06 1.58947e-05 -3.18882e-05 