ITEM: TIMESTEP
1500
ITEM: NUMBER OF ATOMS
4000
ITEM: BOX BOUNDS pp pp pp
-0.379059 40.8791
0.0340995 40.4659
0.033703 40.4663
ITEM: ATOMS mass type id x y z vx vy vz fx fy fz xrad yrad zrad vxrad vyrad vzrad fxrad fyrad fzrad 
26.982 1 811 9.82147 -0.0131053 18.2359 5.15494 0.363 3.53952 0.48769 0.269218 -0.188488 -0.00108803 0.00291929 -0.0151913 -0.00298082 -0.0051746 -0.0167539 -1.22389e-05 -5.75453e-05 -1.55892e-05 
26.982 1 3 1.85531 -0.160534 2.01042 -3.15465 -1.40994 -0.692124 -0.102609 0.414208 -0.155301 -0.00646513 -0.0179845 -0.0030685 -0.0101481 -0.0223312 -0.004174 -2.68846e-05 -3.37453e-05 -7.4771e-06 
26.982 1 8 3.78377 1.91211 1.97229 3.56355 -2.71893 0.690947 0.461866 0.360634 0.380845 0.00357214 -0.013596 -0.00845859 0.00453286 -0.0179888 -0.0114031 1.3185e-05 -2.40478e-05 -1.49683e-05 
26.982 1 807 5.82389 0.064171 18.4491 -1.11251 3.52794 1.03036 -0.404089 0.0990135 -0.619006 -0.000687383 0.00257629 -0.0145415 -0.000749524 -0.0056853 -0.0144321 -3.80691e-06 -6.01784e-05 6.04878e-07 
26.982 1 43 1.69799 3.83473 2.19097 -0.360898 1.69754 -0.181874 0.192146 0.45507 -0.519454 -0.00332927 -0.00662456 -0.00930704 -0.00741174 -0.00865568 -0.0156965 -2.80407e-05 -1.01471e-05 -5.3098e-05 
26.982 1 202 1.88347 1.86042 4.11521 5.00702 -1.2906 2.46901 -0.414037 -0.00569579 -0.183598 -0.00676802 -0.0130521 -0.00711083 -0.00911256 -0.0172909 -0.00982464 -1.81299e-05 -3.13376e-05 -1.93608e-05 
26.982 1 241 -0.302883 4.00087 4.03214 3.59766 0.0985456 -0.116287 -0.260277 -0.0434671 0.358242 -0.0122266 -0.0125921 -0.0118725 -0.0162227 -0.0167727 -0.0163529 -3.55394e-05 -3.05111e-05 -2.88412e-05 
26.982 1 245 3.75142 4.02636 4.08545 -2.09869 0.130026 1.54391 0.381685 -0.12225 0.0916368 -0.000224706 -0.00207145 -0.00178656 -0.000473151 -0.00272389 -0.00223603 6.50119e-06 -6.13025e-06 -2.51148e-06 
26.982 1 2825 24.3582 20.2497 16.197 -4.35103 -5.93227 2.72569 0.234245 0.244431 0.0238634 -0.00667526 -0.0104422 -0.0173576 -0.00854674 -0.00516466 -0.0212773 -1.12387e-05 3.97288e-05 -2.77241e-05 
26.982 1 2819 18.3829 20.3636 18.2117 -1.45625 2.23998 1.7891 -0.363871 -0.185815 -0.386308 -0.0067278 -0.0160749 -0.0116879 -0.0108267 -0.0123554 -0.0152943 -3.21681e-05 2.37565e-05 -3.10464e-05 
26.982 1 12 7.97839 2.00079 2.07801 3.75813 1.99268 0.828939 0.175195 0.350462 -0.214973 -0.00132196 -0.0141416 -0.00440133 -0.00286078 -0.0201478 -0.00885457 -9.83745e-06 -4.27707e-05 -3.75806e-05 
26.982 1 47 5.9331 4.00056 1.83475 2.22816 4.40818 3.11959 -0.436604 0.177259 0.626859 -0.00497516 -0.00274347 -0.00829637 -0.00492546 -0.00485314 -0.0114023 -7.24468e-06 -1.55468e-05 -1.50553e-05 
26.982 1 49 7.87111 4.24196 0.0195436 -3.35453 -3.31836 -0.898374 0.163529 -0.421379 -0.362475 -0.000907054 -0.000914412 -0.0249705 -0.000798156 -0.00096767 -0.0332507 8.11117e-06 -2.55634e-06 -6.38906e-05 
26.982 1 206 6.05513 2.14904 3.99465 4.27561 -4.35351 1.76566 -0.755371 -0.123695 0.217068 -0.00523415 -0.0131671 -0.00668917 -0.00672968 -0.017602 -0.00914577 -2.18168e-05 -2.78829e-05 -1.66249e-05 
26.982 1 209 7.88692 0.0276148 4.0422 -6.45364 -1.23047 -0.940021 0.55422 0.169565 0.0472837 -0.00126435 -0.0183816 -0.0174976 -0.00123426 -0.0245396 -0.0236444 8.90483e-07 -4.62209e-05 -4.52358e-05 
26.982 1 249 7.94239 4.16159 4.12934 1.01626 -3.00097 -2.88613 -0.107704 0.0120014 -0.0285078 -0.000170789 -0.000762576 -0.000437648 -0.000186495 -0.00103813 -0.00096135 -2.7884e-06 -7.78886e-07 -4.1184e-06 
26.982 1 10 9.87981 2.05123 -0.0436898 -2.90157 2.50996 6.42985 0.525148 0.19142 0.0577497 0.00533561 -0.0129403 -0.0193293 0.00364189 -0.0168111 -0.0255378 -1.05177e-05 -2.66875e-05 -4.5143e-05 
26.982 1 16 11.9235 2.10191 2.04887 0.265166 -2.39681 -0.152297 0.132636 -0.231056 -0.576929 0.00594471 -0.0187031 -0.0122851 0.00751078 -0.0248057 -0.0132245 1.04926e-05 -5.0313e-05 -1.90789e-05 
26.982 1 51 9.85078 4.13113 2.17114 -1.28046 -4.96995 -1.91976 0.209232 0.162058 -0.53939 0.00050829 -0.00121539 -0.00422375 0.000413406 -0.000178371 -0.00735525 2.29809e-06 1.03468e-05 -2.97122e-05 
26.982 1 53 11.9573 4.095 0.0734203 -3.12493 -2.08931 -3.88591 0.160972 0.101718 -0.0641884 0.00466765 -0.00556247 -0.0249442 0.00449807 -0.00538526 -0.0332602 -2.76752e-06 4.69664e-06 -6.00551e-05 
26.982 1 210 10.021 2.1243 4.03236 1.28715 0.596728 -4.7421 -0.340516 -0.224539 0.222029 0.000894268 -0.00846856 -0.00640568 0.00256858 -0.0128758 -0.00859627 4.82431e-06 -3.27397e-05 -8.344e-06 
26.982 1 1197 36.6877 16.0929 20.2526 1.96288 -1.75381 3.65487 0.18568 0.495293 0.0460227 -0.00595397 -0.00151642 0.00569002 -0.00972665 -0.00349629 0.00762375 -3.03358e-05 -3.74765e-06 1.86592e-05 
26.982 1 253 12.0312 4.10887 3.86915 -2.38855 8.07636 -2.21914 -0.263769 0.398136 0.31423 0.0001965 -0.00119152 -0.000706751 0.000203782 -0.00179214 -0.00106389 -5.10379e-06 4.35417e-06 3.06415e-07 
26.982 1 20 16.1518 2.02588 2.06742 -0.583155 1.7136 0.940794 0.127293 0.227054 0.139474 -0.00996657 -0.0187764 -0.00776153 -0.0116623 -0.0250478 -0.00871951 -1.42582e-05 -4.05563e-05 -8.63577e-06 
26.982 1 55 14.0508 4.13275 1.9141 -2.10603 -2.04202 0.965946 0.145844 0.107616 0.175742 -4.85379e-05 -0.00758575 -0.0085023 -0.000322245 -0.00995136 -0.0112781 3.46413e-06 -1.9899e-05 -2.65363e-05 
26.982 1 57 16.2252 4.11767 -0.0396441 -3.06239 -1.66612 -1.24769 0.0733441 -0.220809 0.17807 -0.00534206 -0.00678969 -0.0249582 -0.00708935 -0.00877236 -0.0332799 -1.54937e-05 -1.97328e-05 -6.06393e-05 
26.982 1 214 13.9443 2.0439 3.91892 5.29376 -2.08245 0.42867 0.438962 0.0965051 -0.0135878 0.00422752 -0.0139444 -0.00798616 0.00431597 -0.0200494 -0.0104295 1.16574e-05 -4.96885e-05 -1.9401e-05 
26.982 1 257 16.0738 4.21336 3.93489 1.02193 -0.251817 4.95466 0.507258 -0.651654 -0.0894204 -0.000260506 -0.00220169 -0.000572672 -0.000363914 -0.0030056 -0.000752523 8.30156e-06 -1.53007e-05 -3.40879e-06 
26.982 1 218 18.06 1.94317 4.0968 4.73785 -3.10518 9.29786 -0.0216555 0.393046 -0.0715841 -0.000853766 -0.0130413 -0.00163647 -0.00272311 -0.0176819 -0.00360798 -1.51474e-05 -2.43419e-05 -1.69182e-05 
26.982 1 18 18.2478 1.99399 0.148038 1.49157 -2.32086 0.941858 -0.518257 0.237423 -0.527533 -0.0055212 -0.00879838 -0.0233366 -0.00422102 -0.0131768 -0.0296573 3.15041e-06 -3.19197e-05 -5.22577e-05 
26.982 1 819 18.2674 0.142284 18.1035 -2.48232 -0.977921 -0.0123619 -0.288032 0.0621232 0.500958 0.00283485 0.00287733 -0.0113054 -0.000846956 -0.00529728 -0.0117402 -2.61152e-05 -5.76224e-05 -9.5056e-07 
26.982 1 2813 11.6555 20.2653 16.2762 -0.468021 2.81556 0.59112 1.30062 -0.338273 -0.401315 -0.00228126 -0.00589246 -0.00658224 -0.00444401 -0.00227948 -0.00914587 -1.35765e-06 2.69877e-05 -2.22844e-05 
26.982 1 22 22.1737 2.07274 -0.163836 -0.959577 -6.93589 -0.579579 0.444661 -0.0498754 0.202134 -0.000463987 -0.00741905 -0.0196966 -0.00184954 -0.00957504 -0.0280042 -4.6527e-06 -1.91092e-05 -5.55777e-05 
26.982 1 24 20.0673 2.04998 1.97984 2.16027 -3.84356 -3.98403 0.66481 0.203534 0.562412 0.00350988 -0.0133195 0.00113997 0.00177611 -0.0178107 -0.0017892 -2.88948e-06 -2.89216e-05 -1.49995e-05 
26.982 1 59 18.3231 4.13434 2.00207 1.47104 3.41072 -2.89678 -0.0627342 0.0124378 0.138803 -0.000210296 -0.00118889 -0.00330907 -0.000255801 -0.0019005 -0.00445947 9.23601e-07 -3.98965e-06 -3.96203e-06 
26.982 1 61 20.4456 4.23305 0.0300906 -2.00109 -2.4744 2.1672 -0.842256 -0.505464 0.197601 0.000564655 0.00116236 -0.0249788 0.00234656 0.00223522 -0.0333674 8.15109e-06 1.03386e-05 -5.8229e-05 
26.982 1 63 22.3079 4.03693 2.12363 1.00291 5.36275 3.61451 -0.0399 0.143015 -0.292572 -3.55858e-05 -0.000555179 -0.00390102 4.04643e-05 0.00113239 -0.00685878 6.73691e-07 8.96205e-06 -2.13658e-05 
26.982 1 222 22.1775 2.17642 4.14455 -4.43632 0.852219 4.3953 0.431797 -0.268484 -0.240341 -0.00465172 -0.0117616 -0.00518113 -0.00489563 -0.0126739 -0.00544727 8.07549e-06 -7.92073e-06 -7.37776e-06 
26.982 1 261 20.2168 4.05103 4.17497 1.15442 2.1093 3.32149 -0.237429 0.283509 -0.511169 8.46685e-05 -0.00166073 -0.000340659 5.95317e-05 -0.00173399 -0.000424057 -4.97447e-06 4.21866e-06 -1.15387e-05 
26.982 1 25 24.3509 -0.0977731 0.0645537 3.61719 6.54188 -0.36556 -0.395402 0.529084 -0.242198 -0.00287285 -0.0180496 -0.013738 -0.0012175 -0.0225299 -0.0199556 5.39709e-06 -3.23547e-05 -4.33343e-05 
26.982 1 635 34.7735 -0.166477 14.3075 -1.8502 -0.695423 -8.55647 0.249249 0.336098 -0.294305 0.00135955 0.00306962 -0.0168041 0.00515658 -0.00522129 -0.0176975 2.56136e-05 -6.2794e-05 -5.6325e-06 
26.982 1 27 26.3774 -0.0493291 2.0041 4.12187 -3.74293 3.83693 0.170806 0.0125095 -0.0515447 0.0103405 -0.0237357 -0.00359934 0.0139281 -0.0300016 -0.00645826 2.32474e-05 -4.97425e-05 -2.19499e-05 
26.982 1 28 24.3206 2.01838 1.92997 -4.55857 -9.77116 -1.25907 -0.137503 0.218417 0.102064 -0.0039064 -0.0077977 -0.00346265 -0.002054 -0.00878366 -0.00647182 1.11064e-05 -2.65908e-06 -2.09633e-05 
26.982 1 65 24.3021 4.13643 -0.0556356 4.23347 -3.12742 -2.34419 -0.0817651 -0.428318 0.0770458 0.000506979 0.00149189 -0.0249824 0.00225635 0.00321798 -0.0334721 1.08142e-05 9.98791e-06 -5.9221e-05 
26.982 1 67 26.3403 4.0219 2.02428 3.3048 3.10704 -1.86188 0.119677 0.0568117 0.226778 0.000249063 -0.000242234 -0.00461335 0.000368147 -0.000365654 -0.00945925 2.23557e-06 5.00997e-07 -2.90846e-05 
26.982 1 225 24.2903 0.10793 3.9229 3.50053 -0.400924 1.87418 -0.0886838 -0.229098 0.424757 -0.00444284 -0.0185907 -0.0113076 -0.0040343 -0.0247723 -0.0137253 -1.37205e-06 -4.67809e-05 -8.76921e-06 
26.982 1 226 26.5492 1.88346 4.0059 -1.77125 -0.366571 -2.34451 -0.939743 0.461203 -0.116838 0.00534282 -0.00815153 -0.00120841 0.00716618 -0.0107191 -0.00193344 -1.96638e-06 -1.13084e-05 -5.55545e-06 
26.982 1 265 24.3939 4.13314 4.05081 -2.16496 -0.0385716 2.29245 -0.148981 -0.483785 -0.129199 -0.000169655 -0.000566801 -0.000481932 -8.9644e-05 -0.000521174 -0.000724694 3.77523e-07 -1.11548e-05 -4.49026e-06 
26.982 1 30 30.4298 2.04736 0.065828 -5.15625 -2.32722 -3.40729 -0.168166 -0.409423 -0.338947 0.00117942 -0.0174127 -0.019554 0.00055646 -0.0217471 -0.0277452 -4.58128e-06 -3.51867e-05 -6.11486e-05 
26.982 1 32 28.3856 1.89786 2.07181 1.86256 -5.62721 -0.130819 0.329501 0.116166 -0.492089 0.00469806 -0.0182912 -0.00365493 0.00301554 -0.0229922 -0.00662214 -7.42752e-06 -2.81332e-05 -2.71786e-05 
26.982 1 69 28.3484 4.03516 0.0940027 0.645856 -2.0642 3.25462 0.472634 -0.0966945 -0.225051 -0.000625745 -0.000387877 -0.0249372 -0.00409905 -0.000507014 -0.0333357 -2.14978e-05 1.51027e-06 -6.06432e-05 
26.982 1 71 30.5683 3.89229 2.0272 5.93795 1.14789 -1.42602 -0.0698126 0.560232 0.131348 0.000667973 -0.00186578 -0.00370868 0.000444574 -0.00211386 -0.00492443 -3.0038e-06 8.24629e-06 -8.29512e-06 
26.982 1 230 30.4954 1.93594 4.11688 0.964768 -1.1364 -0.03264 0.300107 0.434383 -0.341876 -0.000437284 -0.0171669 -0.00594256 -0.00217689 -0.0198254 -0.00635277 -1.07134e-05 -1.54777e-05 -8.21302e-06 
26.982 1 269 28.5621 3.99197 3.96384 4.53713 -1.51791 4.43777 -0.399399 0.329322 0.0369781 0.000272464 -0.00184343 -0.000416087 0.000124708 -0.00230025 -0.000600929 -8.29413e-06 6.77916e-06 -2.2465e-06 
26.982 1 35 34.6572 0.0390753 2.05738 0.934887 -0.00503307 -4.37445 0.0182695 -0.162796 -0.190316 -0.0034908 -0.0191773 -0.0131634 -0.00117564 -0.0271804 -0.016105 1.55241e-05 -6.06656e-05 -2.05537e-05 
26.982 1 36 32.6589 2.02839 2.00286 -2.64087 1.7978 3.53851 -0.199685 -0.217995 0.563502 0.000128351 -0.0174607 -0.00868207 0.000221015 -0.0203981 -0.0114859 -3.11061e-06 -2.8088e-05 -1.62055e-05 
26.982 1 73 32.6419 3.83771 0.0589303 1.67618 -0.853927 2.02064 -0.0271197 0.730489 -0.394457 0.010145 -0.000603754 -0.0248258 0.0106266 -0.00114574 -0.0333336 1.45208e-06 7.3638e-06 -6.45422e-05 
26.982 1 75 34.6902 4.01494 2.09169 -1.50667 -0.88957 1.3058 0.322674 0.0915816 -0.12473 0.00537533 -0.00103541 -0.0178914 0.0074721 -0.00133882 -0.020796 1.90651e-05 -1.56298e-07 -2.07215e-05 
26.982 1 234 34.6893 2.00413 4.1253 -4.70051 4.49001 -0.279048 -0.180826 -0.0804435 -0.39731 -0.00378308 -0.00778244 -0.00309956 -0.00200527 -0.0102934 -0.00361682 1.0597e-05 -2.08378e-05 -1.18911e-05 
26.982 1 273 32.6405 4.07439 4.05791 3.50495 -1.58035 -0.926416 -0.0693977 -0.190829 -0.160241 0.000256531 -0.00166675 -0.00100774 0.000382857 -0.00177784 -0.00111744 -1.05628e-06 -1.91244e-06 -4.56888e-06 
26.982 1 4 40.8429 2.05353 1.98317 -0.701384 -1.19184 2.1821 0.374157 -0.728662 0.534898 -0.00977684 -0.0167381 -0.00973211 -0.0117978 -0.0175719 -0.0159983 -1.01842e-05 -1.45755e-05 -4.03445e-05 
26.982 1 40 36.7494 1.96332 2.12921 -3.3111 3.31003 4.6878 0.204259 0.00781367 -0.0163912 0.00559438 -0.00873882 -0.0229858 0.00909001 -0.0130053 -0.0276748 2.70795e-05 -3.2986e-05 -3.31264e-05 
26.982 1 79 38.8791 3.86636 2.13635 2.85019 -6.2198 -4.46095 -0.244206 0.414463 -0.0319312 -0.00502523 -0.00692294 -0.0149297 -0.00483109 -0.00758408 -0.0231077 -4.48882e-06 2.31425e-06 -5.74993e-05 
26.982 1 961 -0.669302 16.2003 16.2446 -2.22474 2.04619 -3.1594 0.377818 -0.149715 0.0801752 -0.000888136 -0.00123481 -0.00171286 -0.00518231 -0.00305093 -0.00421684 -2.65578e-05 -1.67864e-05 -1.72249e-05 
26.982 1 238 38.8724 1.93577 4.23451 1.76161 -5.07898 1.94991 -0.102108 -0.050252 -0.348966 0.00383645 -0.0127871 -0.00806007 0.00224403 -0.0170141 -0.0108743 -1.15843e-05 -3.18245e-05 -2.24085e-05 
26.982 1 277 36.8228 3.98561 4.12272 1.62065 -3.70012 -0.812874 -0.29395 0.124556 -0.19128 4.83791e-05 -0.000638339 -0.00261966 0.000278407 -0.00129494 -0.00346456 -2.87772e-06 -1.79832e-06 -9.6724e-06 
26.982 1 631 30.6428 0.0632286 14.3055 -1.62632 -3.58168 -1.06262 -0.423115 0.249455 -0.0180001 0.00406625 0.0031466 -0.0127041 0.00226355 -0.00515695 -0.0152026 -1.59951e-05 -6.09686e-05 -1.81457e-05 
26.982 1 48 3.78679 5.9624 2.03769 2.50782 -7.4838 -3.06963 -0.00602338 -0.179561 -0.0180877 -0.00245557 -0.00374177 -0.00899008 -0.00488431 -0.00219069 -0.0138486 -1.94271e-05 7.09858e-06 -3.46146e-05 
26.982 1 627 26.4826 0.165152 14.2307 -4.62342 1.98761 -1.32754 -0.196524 -0.451293 0.106455 -0.00477747 0.0031675 -0.0132531 -0.00512729 -0.00510371 -0.017455 -2.63413e-06 -6.20745e-05 -3.06297e-05 
26.982 1 83 1.65735 8.06684 2.02051 6.88439 -3.12058 0.660137 -0.372571 -0.223291 0.148324 -0.0124684 -0.000506239 -0.0052118 -0.0166512 -0.0022256 -0.0117511 -3.08788e-05 -1.88906e-05 -4.83017e-05 
26.982 1 403 1.70476 0.143277 10.0139 -1.46932 1.55842 0.874352 0.102742 -0.777933 0.627358 -0.0165692 -0.0016953 -0.00573259 -0.0207468 -0.00782808 -0.00453669 -3.47502e-05 -5.32113e-05 1.35509e-05 
26.982 1 242 1.73116 6.0309 4.09776 0.94304 0.256264 0.738086 -0.179475 -0.104292 0.015046 -0.0125174 0.00472446 -0.00641609 -0.0167628 0.00623202 -0.00917143 -3.21026e-05 9.56933e-06 -1.86969e-05 
26.982 1 285 3.73445 7.87207 4.02541 2.43832 1.094 -2.51407 0.0142027 0.306624 0.1968 -0.00195153 9.01017e-05 -0.000948078 -0.00255832 0.000126611 -0.00185788 -4.47861e-06 1.56625e-06 -2.73421e-06 
26.982 1 46 5.69293 6.24533 -0.152757 2.19521 -2.1959 2.05529 0.647995 -0.200973 0.321536 -0.00468255 -0.00227308 -0.0251939 -0.00472575 0.000644537 -0.0335778 -9.66052e-07 2.00706e-05 -5.93032e-05 
26.982 1 52 7.84448 6.11647 2.00787 -2.88567 4.15972 1.13133 -0.0504777 0.216598 0.160846 0.000605288 0.00121675 -0.0047568 0.00213834 0.00290996 -0.00923395 1.05068e-05 1.61676e-05 -3.04472e-05 
26.982 1 87 5.7825 8.0182 1.99038 2.23525 4.4029 -2.94261 0.145453 0.137269 0.0102031 -0.000313539 0.00463805 -0.00932282 -0.000417095 0.00478527 -0.0139263 1.27174e-06 2.76099e-06 -3.14448e-05 
26.982 1 603 1.80512 0.03494 14.0572 5.45484 -0.196935 4.15361 -0.136466 -0.0124712 0.680677 -0.0168544 -0.0017244 -0.00630753 -0.018883 -0.00808794 -0.00673859 -1.3652e-05 -4.87737e-05 2.95419e-06 
26.982 1 246 5.86022 6.08074 4.14437 -1.45677 1.18128 0.447408 0.0391006 -0.169521 -0.207143 -8.93765e-05 -9.57036e-05 -0.000486132 -3.58529e-05 -9.27388e-05 -0.000883906 5.62318e-07 -3.68093e-06 -5.76232e-06 
26.982 1 289 7.89763 8.12211 4.17401 1.96916 -3.31582 -2.96207 -0.212368 0.188254 -0.130905 5.15892e-05 0.000210595 -0.00101708 0.000160684 6.51361e-05 -0.00174917 -4.04191e-06 3.86315e-06 -5.83842e-06 
26.982 1 92 7.85981 10.0737 2.02435 0.738547 -0.320703 -3.72707 -0.381174 0.303294 0.324425 0.000413672 -0.000624689 -0.013142 0.000380943 -0.0023238 -0.0162805 -6.44442e-06 -8.73493e-06 -1.79737e-05 
26.982 1 286 5.60672 10.0159 3.93866 -1.89499 -1.63464 1.80158 0.729542 0.051391 0.395532 -0.000129359 0.000126371 -0.00155546 -0.000180816 6.53049e-05 -0.00187351 1.40448e-05 9.13708e-07 3.30403e-06 
26.982 1 1021 20.3432 0.128084 20.271 -1.32845 -2.54061 -4.02825 -0.528649 -0.156932 -0.249074 0.0001437 -0.00249888 -0.00122135 0.00122524 -0.0106604 0.000213568 5.66678e-06 -6.26209e-05 6.8857e-06 
26.982 1 56 11.899 6.32191 2.07517 -3.08015 1.2145 -1.86717 0.11356 -0.412917 -0.213682 -0.000558465 0.00572901 -0.00946325 -0.00239514 0.00745764 -0.0139775 -1.36724e-05 6.30699e-06 -3.85262e-05 
26.982 1 91 9.83892 8.22582 2.06577 0.418978 0.832957 0.0470063 0.425324 -0.105628 0.0712135 0.00455113 0.00459223 -0.0145919 0.00464057 0.00284407 -0.0207612 3.53185e-06 -1.30347e-05 -4.17449e-05 
26.982 1 250 9.92742 6.30024 4.10401 -2.01699 -0.713139 0.119243 0.121782 -0.32111 -0.104824 0.000283324 9.38061e-05 -0.000442312 0.000217434 0.000214235 -0.00104151 2.01593e-06 -1.56718e-06 -6.6669e-06 
26.982 1 293 12.0882 8.28905 4.00846 5.59648 -3.38489 4.0165 -0.178211 -0.0934897 0.0999939 -0.000110857 0.000235428 -0.0018681 -0.000194389 9.16711e-05 -0.00247359 -1.37408e-06 -1.37149e-06 -2.88446e-06 
26.982 1 54 14.0458 6.20596 0.10377 -6.64385 6.51445 0.493981 -0.267733 -0.373364 -0.265128 -0.00520033 0.0051245 -0.0253859 -0.00738334 0.00645868 -0.0338707 -1.96082e-05 2.20552e-06 -6.25342e-05 
26.982 1 60 16.4372 6.11047 1.82947 0.537911 -2.33191 0.0876849 -0.900496 0.114837 0.54941 -0.000100868 0.000603618 -0.00391835 -0.000191281 0.000607476 -0.00506341 -1.16138e-05 1.60068e-06 -1.97226e-06 
26.982 1 95 14.1014 8.12048 2.01667 4.95989 2.95349 4.45276 -0.111341 0.485728 -0.0535627 -0.00498632 0.00551369 -0.013534 -0.00687011 0.00548906 -0.0163237 -1.34726e-05 8.02207e-06 -1.85506e-05 
26.982 1 97 15.9854 8.12885 -0.112674 2.16806 -2.91148 -0.227245 0.330538 0.564319 0.341118 -0.00031017 0.0105191 -0.0250814 -0.000506904 0.0104883 -0.0334824 6.91951e-07 5.35429e-06 -6.33335e-05 
26.982 1 254 14.1543 6.06068 3.83279 -2.91347 -3.99435 -5.13426 -0.344653 0.588316 0.20334 -1.75399e-05 -1.92769e-05 -0.000463685 -0.000252018 -5.37312e-05 -0.00071977 -5.6115e-06 1.04023e-05 1.74046e-06 
26.982 1 297 16.1063 8.26201 3.97359 -2.83609 -2.98251 0.845418 0.296489 -0.156532 -0.113143 2.31376e-05 0.000457423 -0.000936847 -4.96208e-05 0.000360021 -0.000986624 4.66011e-06 -1.97968e-06 -3.56655e-06 
26.982 1 58 18.2171 6.11106 -0.142437 1.4143 3.73621 -2.27127 0.267536 0.0403423 0.066585 0.00466481 0.00572317 -0.0252567 0.00511184 0.00605438 -0.0336996 8.91331e-06 -1.00733e-06 -6.54089e-05 
26.982 1 2639 38.812 20.3388 14.1001 -2.66662 2.77383 -0.340209 0.0287164 -0.0518982 0.356554 0.00879694 -0.0114473 -0.0121326 0.010154 -0.00927863 -0.0165913 1.72971e-05 1.71707e-05 -2.98391e-05 
26.982 1 64 20.3558 6.30378 2.00251 -4.31977 -4.32472 -2.15839 -0.333498 -0.489564 -0.0891342 0.00082172 0.00534604 -0.00862578 0.00256447 0.00541177 -0.0115499 7.82442e-06 -8.11697e-06 -2.11483e-05 
26.982 1 99 18.1731 8.19576 1.87411 0.032451 -0.865641 -4.44061 0.0640101 0.192043 0.25649 0.00460062 0.00564406 -0.0127916 0.00471348 0.00562309 -0.0140977 4.93512e-07 3.81084e-06 -3.71789e-06 
26.982 1 103 22.2914 8.27615 1.88934 -0.367447 0.0556668 -2.41307 0.251416 -0.076298 0.269933 -0.000149186 0.00560637 -0.0186509 -5.37438e-05 0.00571263 -0.0234432 5.94979e-06 2.27884e-06 -3.07912e-05 
26.982 1 258 18.2051 6.20046 4.05241 2.10598 2.83148 1.71797 0.0669445 -0.100547 -0.221067 0.000201485 0.00036846 -0.000337135 0.000226181 0.000405182 -0.000346602 2.25063e-06 -6.2126e-07 -3.39185e-06 
26.982 1 262 22.2324 6.17594 3.99713 -1.35065 -1.63121 0.105241 0.0131112 -0.042116 -0.087145 -9.40861e-05 0.000558497 -0.000862228 -8.63068e-05 0.000548135 -0.0013651 -1.36268e-06 1.56292e-08 -8.58054e-06 
26.982 1 301 20.2215 8.19661 4.00131 -2.30642 2.4029 -2.9277 -0.0376068 0.147709 0.0297317 0.000191 0.000284459 -0.00199276 0.000258305 0.000299705 -0.00229051 -7.96809e-08 2.82116e-06 -1.15732e-06 
26.982 1 298 18.2073 10.236 4.01808 -5.66562 2.92248 -1.2625 -0.0567076 -0.301446 -0.116657 0.000253997 0.000114854 -0.00233639 0.000182152 0.000226669 -0.00244145 -1.00974e-06 -6.75281e-06 -2.08003e-06 
26.982 1 2637 36.6837 20.4028 12.2234 3.28668 1.33007 -3.65087 0.255781 -0.383651 -0.247534 -0.00545723 -0.0153767 -0.0137447 -0.00757327 -0.0116526 -0.0198141 -1.68475e-05 2.171e-05 -4.91517e-05 
26.982 1 68 24.3805 6.15612 1.92435 -2.13247 3.346 5.84399 -0.455019 -0.14875 0.181525 -0.000194119 0.00528941 -0.0093173 -6.3574e-05 0.00541336 -0.0138722 -5.93285e-06 -3.66571e-06 -3.33255e-05 
26.982 1 107 26.3178 8.09501 1.9106 -4.484 2.287 -0.754924 0.695884 0.125427 0.399292 0.000129427 5.85347e-05 -0.0140041 0.00152578 -0.00159404 -0.0187625 2.45963e-05 -9.35533e-06 -2.78037e-05 
26.982 1 266 26.2743 6.19974 4.00554 1.61114 4.88744 -1.67723 0.627495 -0.213868 -0.124761 1.61348e-05 0.000391421 -0.000767796 8.94594e-05 0.000485389 -0.00142941 1.37489e-05 -3.62309e-06 -7.78264e-06 
26.982 1 305 24.2804 8.1148 4.10213 0.266221 0.448105 -1.35846 -0.276536 0.435686 -0.552776 -0.000287146 0.000223749 -0.00200316 -0.000253563 0.000252047 -0.00246306 -7.60797e-06 7.98025e-06 -1.24793e-05 
26.982 1 106 26.4381 10.1879 -0.124514 -2.28397 -4.57841 2.17211 -0.013509 0.0217512 0.390251 -0.00602912 -0.00346475 -0.0251287 -0.00653214 -0.00409847 -0.0335652 1.21927e-06 -7.02285e-07 -5.82274e-05 
26.982 1 108 24.612 10.2055 2.0667 5.77206 -7.10419 -2.99618 -0.671459 0.238895 -0.0450909 -0.00547613 0.000900867 -0.0189475 -0.00710501 0.0022432 -0.023638 -1.84428e-05 1.29842e-05 -2.61503e-05 
26.982 1 306 26.4182 10.1735 4.16066 -1.38417 3.68459 -0.150146 0.323793 0.133668 -0.591844 -5.71306e-05 -5.53198e-05 -0.00116988 -0.000124989 -5.86448e-05 -0.00143742 6.87992e-06 1.40319e-06 -1.13678e-05 
26.982 1 70 30.5821 5.99818 -0.0269946 3.08332 -1.85181 3.25355 -0.0889953 -0.0258549 0.501673 0.000741567 0.00978955 -0.0251829 -0.00140569 0.0114285 -0.0336165 -1.26824e-05 1.12584e-05 -5.72921e-05 
26.982 1 72 28.4848 6.10401 2.03214 -2.43972 1.9318 0.951151 0.0248571 -0.0683065 0.0460318 -0.000448435 0.00551172 -0.00904511 -0.00223243 0.00720959 -0.0135885 -1.05632e-05 1.32354e-05 -3.15382e-05 
26.982 1 111 30.7781 7.98085 2.08334 -3.06499 1.37277 6.93235 -0.493503 0.30636 -0.0239794 -0.000249757 -6.08149e-05 -0.0131083 -0.00198562 -3.35468e-05 -0.0159478 -1.87948e-05 5.35579e-06 -1.76932e-05 
26.982 1 270 30.5612 6.0669 4.06747 -2.75562 0.0794244 -1.2835 -0.212126 -0.0209047 -0.365427 0.000271377 0.000199132 -0.000875879 0.000137032 0.000328537 -0.00103961 -4.8195e-06 1.82391e-06 -7.83687e-06 
26.982 1 309 28.5406 8.13942 4.03042 -0.604266 -3.46532 0.625215 -0.235556 -0.0256505 -0.198396 4.75527e-05 0.000183399 -0.00156147 -1.57768e-05 4.7465e-05 -0.00220402 -3.54622e-06 -1.24985e-06 -1.13988e-05 
26.982 1 112 28.5331 10.1343 1.98066 1.84112 1.92358 -1.55898 -0.29604 0.0273025 0.129686 -0.000460322 -0.00506715 -0.00889912 -0.000419195 -0.00669844 -0.0120149 -5.77118e-06 -1.735e-05 -2.19973e-05 
26.982 1 76 32.7826 6.022 2.03292 0.794859 5.34773 0.985848 -0.354119 -0.119029 -0.0845711 0.00466142 0.00435364 -0.012884 0.00481922 0.00455785 -0.014042 -6.91294e-06 -2.99891e-06 -1.21495e-05 
26.982 1 115 34.8499 8.01548 2.18536 -4.09423 -3.76594 1.0435 -0.0803486 0.229257 -0.212786 -0.00404471 -0.00455585 -0.0126393 -0.00397109 -0.00461528 -0.0139916 8.54387e-07 4.06098e-06 -9.51397e-06 
26.982 1 274 34.7873 6.09123 4.10614 0.629304 -1.81115 -4.45168 -0.0705592 -0.398049 0.341656 0.00031861 -0.000179909 -0.00198127 0.000322684 -0.000246756 -0.0022405 7.63298e-07 -7.03976e-06 6.60256e-06 
26.982 1 313 32.8223 8.06251 4.07107 0.937095 0.392617 -3.02728 -0.816799 0.238452 -0.0206666 0.000214609 -4.56733e-05 -0.0016634 0.000197682 1.51181e-06 -0.00185985 -1.42654e-05 5.65161e-06 -4.0821e-08 
26.982 1 114 34.5597 9.94988 0.0777457 -0.737452 -1.79712 -0.142408 0.503896 0.305648 -0.0908317 0.000638436 0.000855634 -0.0251288 -0.000587017 0.00287035 -0.0335317 3.22838e-06 1.68879e-05 -6.22733e-05 
26.982 1 116 32.6057 10.1635 1.95273 -2.52199 1.64359 1.74495 -0.0525627 0.0387637 0.717102 0.000493617 -0.00406395 -0.00897033 0.000378295 -0.0021304 -0.0119035 -3.07058e-06 1.81574e-05 -1.02372e-05 
26.982 1 44 40.8488 6.0404 2.11229 -3.6465 0.8011 6.00748 0.185327 0.0109862 0.00183664 0.00575453 -0.0160659 -0.0053897 0.00747883 -0.019811 -0.0118464 1.16825e-05 -2.33702e-05 -4.51216e-05 
26.982 1 281 40.9228 8.09832 4.22513 3.33757 -0.0445521 1.08794 -0.347879 -0.30394 -0.465649 0.000352155 -0.00157096 -0.00123603 0.000527498 -0.00219607 -0.00233208 -6.29539e-06 -9.00166e-06 -1.61634e-05 
26.982 1 2631 30.3727 20.3064 14.1909 2.52444 -7.92858 4.03784 0.740483 -0.510286 -0.144364 -0.00592185 -0.007263 -0.0129794 -0.00590017 -0.00518783 -0.0186461 1.29639e-05 8.62391e-06 -4.48545e-05 
26.982 1 80 36.8082 5.99579 2.07174 1.50492 -2.73019 0.951977 -0.116554 -0.320422 0.371552 -0.00353531 -0.00578274 -0.0139568 -0.00145696 -0.00761794 -0.0186355 1.7875e-05 -2.06461e-05 -3.06412e-05 
26.982 1 117 36.8062 7.86113 0.141586 -5.25155 2.41144 -0.036449 -0.139581 0.664975 -0.221063 0.000386661 -0.000216785 -0.0250326 0.00421356 -0.000657241 -0.0334499 3.3012e-05 7.90335e-06 -6.41856e-05 
26.982 1 119 38.6769 8.13404 2.21989 3.06669 -5.42253 1.08632 0.466094 -0.0839434 -0.153685 0.000880611 0.00418239 -0.0101774 0.00303353 0.00378442 -0.0167723 2.48465e-05 -3.21756e-07 -4.71943e-05 
26.982 1 278 38.8134 6.10904 4.14795 -1.21214 -1.53053 -1.14139 0.397015 -0.198454 -0.108226 0.0055406 -0.00579943 -0.00131651 0.00746702 -0.00771906 -0.00240546 1.96932e-05 -1.38775e-05 -1.07401e-05 
26.982 1 317 36.9254 8.04229 4.33536 1.77318 2.41847 -1.66995 -0.593741 0.154983 -0.457931 -9.78928e-05 -0.000292665 -0.000997966 -4.61683e-06 -0.00025721 -0.00136435 -8.0786e-06 1.36038e-06 -6.3757e-06 
26.982 1 120 36.7001 10.0977 2.19456 -2.50197 -5.85954 1.86527 0.25183 -0.0622102 -0.351823 0.00519626 0.00450482 -0.0137475 0.00688608 0.00444977 -0.0166949 1.72446e-05 1.91078e-06 -2.77973e-05 
26.982 1 318 38.7519 10.1292 4.13625 -3.69867 -1.76015 2.68562 0.483394 0.021641 0.153754 0.000628784 -0.000239498 -0.00251349 0.000867702 -0.000322572 -0.00329837 1.03028e-05 1.14278e-06 -3.82947e-06 
26.982 1 88 3.65034 10.0349 2.06049 -2.77979 -2.67084 2.02566 0.0913847 0.276585 0.0923682 -0.00275944 0.000178185 -0.0140805 -0.00486159 0.000113204 -0.0206645 -1.3955e-05 7.68199e-07 -5.25319e-05 
26.982 1 2611 9.9096 20.1838 14.0892 1.03394 1.74606 1.45585 -0.0506159 0.00362689 0.375468 -0.00681614 -0.015648 -0.00292884 -0.00860706 -0.0117395 -0.005118 -1.08025e-05 3.14179e-05 -1.21487e-05 
26.982 1 123 1.69469 12.1357 2.07327 2.28122 9.33688 -0.960604 -0.112217 0.174168 0.0440848 -0.015665 -0.00979486 -0.010235 -0.0161438 -0.0099217 -0.0184751 -5.18115e-06 2.17507e-06 -6.13775e-05 
26.982 1 2609 7.9275 20.346 12.2404 -1.91464 1.90047 0.662959 -0.417289 -0.363497 -0.216427 -0.00556709 -0.0111601 -0.00840638 -0.00788113 -0.00921488 -0.012742 -2.08478e-05 7.21844e-06 -3.42863e-05 
26.982 1 128 3.79504 14.1822 2.11433 -0.00248997 -2.8638 -0.701878 -0.0873401 -0.166291 -0.055434 -0.00245736 -0.000398439 -0.00601112 -0.00254836 -0.000286795 -0.0142554 -2.23509e-06 -6.49105e-06 -6.12128e-05 
26.982 1 282 1.70555 9.9755 4.11373 -0.621723 2.91334 0.301939 -0.20985 0.267251 -0.0977419 -0.0167441 -0.000709661 -0.00713333 -0.0192238 -0.00243255 -0.00822488 -2.54851e-05 -1.10827e-05 -8.48409e-06 
26.982 1 322 1.74311 14.0899 4.18716 -1.32418 -1.6568 1.0509 -0.540144 -0.00166697 -0.548643 -0.0118189 -0.00488934 -0.00621419 -0.0124131 -0.00498736 -0.00719497 -1.58082e-05 1.63454e-06 -1.4005e-05 
26.982 1 325 3.62903 12.0215 4.13365 -4.19203 0.735882 3.92656 0.299117 0.237511 -0.355945 -0.00179137 -0.00062358 -0.00115975 -0.00200401 -0.000442943 -0.00197593 5.4794e-06 4.65785e-06 -1.22177e-05 
26.982 1 207 5.94846 -0.0104704 6.09999 1.80918 10.5766 -2.44161 -0.187729 0.17976 -0.244993 0.00457552 0.00291782 -0.0106839 0.00467844 -0.00518467 -0.0114082 1.61835e-06 -6.12094e-05 -6.01266e-06 
26.982 1 127 5.72848 12.135 2.18007 1.87002 -2.08812 -4.1311 0.408758 0.0832579 -0.15928 -0.000651429 -0.00441037 -0.00915469 -0.00242844 -0.00248813 -0.0140394 -5.40193e-06 1.46843e-05 -3.60298e-05 
26.982 1 129 7.74422 12.0625 -0.0653797 -2.39662 -1.14109 4.27536 0.0119547 0.0826891 0.562774 8.33289e-05 -0.00817941 -0.025167 -0.000301763 -0.0047004 -0.0334959 -2.37465e-06 2.94576e-05 -5.44226e-05 
26.982 1 132 7.89047 14.2837 2.11272 -0.851483 2.46104 -1.50868 -0.463527 -0.785342 0.212229 7.53658e-05 0.000116437 -0.00501311 -1.77319e-05 0.00203863 -0.0113663 -8.78484e-06 3.98665e-06 -5.00571e-05 
26.982 1 326 5.91732 14.1798 4.14389 1.7423 2.00749 2.683 -0.182686 -0.202453 -0.0734437 -2.34766e-05 -9.99854e-05 -0.000318714 -8.70737e-05 -5.30191e-06 -0.00111546 -1.11861e-06 -4.75862e-06 -8.61286e-06 
26.982 1 329 7.84464 12.0387 4.19063 -0.518729 5.2731 -1.26233 -0.367998 -0.0517872 -0.14657 8.08047e-05 -0.000322987 -0.000802455 -3.97605e-06 -7.56537e-05 -0.00105932 -1.00537e-05 -4.06757e-06 -6.5076e-06 
26.982 1 96 12.0163 10.3272 1.85985 1.35043 -2.20354 0.687341 0.195247 -0.223978 0.653559 0.000461277 -0.00502219 -0.0178853 0.000138967 -0.00690039 -0.0208374 1.9763e-06 -1.86819e-05 -1.19009e-05 
26.982 1 407 5.80347 0.0317534 10.2256 -4.45051 -0.637899 0.332156 0.134133 0.0290364 -0.306481 0.00528035 0.00319012 -0.0100918 0.00745464 -0.00505777 -0.00868184 1.52691e-05 -6.00433e-05 8.57069e-06 
26.982 1 131 9.74797 12.2255 2.25916 4.93377 1.73702 -2.87962 0.255824 -0.181176 -0.656907 0.000261534 -0.00456723 -0.00893382 0.000271612 -0.00277372 -0.0120366 -2.72555e-07 9.23225e-06 -3.03811e-05 