ITEM: TIMESTEP
14500
ITEM: NUMBER OF ATOMS
4000
ITEM: BOX BOUNDS pp pp pp
-3.0212 43.5212
0.741726 39.7583
0.850017 39.65
ITEM: ATOMS mass type id x y z vx vy vz fx fy fz xrad yrad zrad vxrad vyrad vzrad fxrad fyrad fzrad 
26.982 1 43 -0.815018 4.72229 2.83274 -3.56873 3.84381 -3.74524 0.348725 0.170599 0.268328 -0.792619 -0.407926 -1.19148 -0.10909 -0.0404942 -0.178013 6.09244e-06 1.48046e-05 -3.76923e-05 
26.982 1 202 -0.706041 2.61563 4.68056 -2.11069 3.28764 -3.42452 0.366733 -0.0278529 -0.300053 -0.743822 -0.682328 -0.676208 -0.10112 -0.0970161 -0.0979885 -7.16093e-06 -2.26449e-05 -8.06507e-06 
26.982 1 245 1.79231 4.57965 4.72304 -3.90038 1.36049 2.3857 -0.470122 0.173742 0.409389 -0.0572504 -0.123625 -0.17169 -0.00850882 -0.0169536 -0.0260165 -9.10089e-06 1.65943e-06 -3.31477e-06 
26.982 1 8 1.52747 2.82941 2.64068 1.97509 -2.82112 -1.30052 -0.0767023 -0.103025 0.00146836 0.219589 -1.16556 -1.21308 0.0194593 -0.15839 -0.174583 6.93552e-06 -1.82854e-05 -3.97715e-05 
26.982 1 47 3.89259 4.79628 2.8497 0.195607 2.78997 -1.66726 0.244906 -0.180866 -0.435381 -0.0702732 -0.287598 -1.17626 -0.0022478 -0.0389291 -0.183703 5.69612e-06 2.10717e-06 -4.78892e-05 
26.982 1 206 3.8664 2.63926 4.74009 0.193939 3.7392 -0.461674 0.257291 -0.0276332 -0.396764 -0.0460721 -1.06995 -0.643732 -0.000258497 -0.139942 -0.0850014 1.2633e-05 -2.84236e-05 -2.78469e-05 
26.982 1 2801 -2.786 20.1477 16.4634 -0.794898 0.759156 0.40895 -0.165475 0.646925 0.14604 -1.15346 -0.0392772 -1.38065 -0.139968 -0.0196573 -0.207638 -2.81113e-05 1.15123e-05 -4.80157e-05 
26.982 1 249 6.22553 4.52437 4.61058 2.69264 -1.28687 2.85921 -0.184002 -0.300514 0.29321 -0.00868485 -0.114738 -0.138693 -0.000687009 -0.0176724 -0.0235456 -6.8998e-06 -1.11972e-05 -4.8318e-06 
26.982 1 12 6.27902 2.50376 2.8338 -0.456693 -7.40769 -0.318531 -0.468341 -0.00248793 -0.425964 -0.215784 -1.35819 -1.04816 -0.0196358 -0.184186 -0.167803 -1.42811e-05 -3.55606e-05 -3.55119e-05 
26.982 1 51 8.49096 4.21621 2.7089 4.91686 3.86989 2.95541 0.233397 0.241537 -0.0869994 0.00969082 -0.105627 -0.968288 0.000589931 -0.0145379 -0.16433 3.13562e-06 -9.73524e-06 -4.80276e-05 
26.982 1 210 8.42824 2.58097 4.86378 -0.595197 -2.3585 -0.616414 0.0104319 0.208237 0.26751 0.0682209 -1.00763 -0.537156 0.0108293 -0.148164 -0.0811475 -7.68954e-06 -2.58531e-05 -6.22162e-07 
26.982 1 2839 41.2795 20.1558 18.2383 -4.05946 4.93725 0.617857 0.0027804 0.337621 0.240434 0.0368331 -0.304472 -1.14346 -0.00913842 -0.0428116 -0.158943 -9.57992e-06 3.17675e-05 -1.1669e-05 
26.982 1 253 10.7972 4.36592 4.59873 0.562174 0.158069 0.336479 0.0357668 0.411868 -0.158019 0.00789942 -0.134823 -0.142194 0.000311588 -0.0206463 -0.0233243 4.28651e-06 -3.35797e-06 -9.13252e-06 
26.982 1 16 10.7793 2.38701 2.75407 0.688923 -5.00109 2.80226 0.434354 0.652363 -0.195007 0.1955 -1.37169 -1.02776 0.00665243 -0.190431 -0.146397 1.66124e-05 -2.81037e-05 -3.18091e-05 
26.982 1 55 13.1227 4.74301 2.53299 -0.381525 2.69767 -2.34754 0.114752 -0.74183 0.145558 0.0292681 -0.271086 -1.2237 0.00170607 -0.0260242 -0.170271 1.42459e-06 4.77865e-06 -4.37291e-05 
26.982 1 214 13.3374 2.73315 4.66528 1.7724 2.74414 1.65663 -0.480454 -0.0662005 -0.23991 0.0598808 -1.12054 -0.573627 0.00020968 -0.153517 -0.077056 -1.9938e-05 -2.64411e-05 -1.96042e-05 
26.982 1 20 15.4159 2.85139 2.78219 -6.96207 0.875098 -2.30867 0.0742997 -1.42442e-05 -0.0768689 -0.27135 -1.36637 -1.02003 -0.0101396 -0.184945 -0.149177 1.04038e-05 -5.94447e-06 -3.76556e-05 
26.982 1 257 15.5824 4.58406 4.92381 1.42456 1.11408 1.8137 -0.134779 0.361492 -0.245401 -0.00521895 -0.1442 -0.152161 0.000602366 -0.019652 -0.0236789 -5.49823e-06 7.9383e-06 -9.71012e-06 
26.982 1 218 17.7996 2.59316 4.61327 -0.218708 3.68345 0.694751 0.262496 0.282617 0.184745 -0.0683579 -1.07179 -0.467108 -0.00428318 -0.152977 -0.0781254 8.55519e-06 -1.84273e-05 -2.50539e-05 
26.982 1 59 17.7247 4.64802 2.8261 3.91791 4.07312 0.699162 0.588704 -0.206275 -0.050423 0.0489469 -0.0408377 -1.06871 0.0115062 -0.01166 -0.178008 1.08659e-05 -4.80065e-06 -5.55114e-05 
26.982 1 2837 39.1078 20.1808 16.6088 -0.774336 1.11084 -1.34479 -0.561139 0.204077 -0.322208 -0.290636 -0.594741 -0.978543 -0.0529263 -0.0724738 -0.134033 -3.5019e-05 2.43219e-05 -2.47709e-05 
26.982 1 24 20.1725 2.72319 2.73833 2.17072 1.38899 1.97384 -0.259576 0.127572 -0.147072 0.10833 -1.12933 -0.931102 0.00377363 -0.16085 -0.161881 -2.64123e-05 -1.35578e-05 -5.07803e-05 
26.982 1 261 20.1928 4.6746 4.7599 2.0162 1.10904 -6.21249 -0.403735 0.255317 -0.349143 0.00950735 -0.119864 -0.165182 0.00114582 -0.018216 -0.0283694 -9.56395e-06 3.62872e-06 -1.2519e-05 
26.982 1 221 20.2383 0.779691 4.72861 -3.21658 -0.676636 -0.672426 -0.0614674 0.138578 -0.0582888 -0.124686 -0.866169 -0.764714 -0.0109382 -0.115754 -0.10494 -1.10364e-05 -4.07664e-05 -3.129e-05 
26.982 1 2835 36.4489 20.2612 18.452 0.383262 4.46994 -0.40549 0.153577 0.155254 0.232057 -0.491724 -0.284564 -0.865211 -0.0740049 -0.0292167 -0.129775 -8.30595e-06 3.79311e-05 -6.26693e-06 
26.982 1 63 22.5372 4.6431 2.82559 2.73204 3.52312 -1.27737 -0.0582962 0.297761 -0.268906 0.0483685 -0.0439062 -1.31557 0.0045545 -0.010726 -0.206234 -1.11225e-05 2.07524e-05 -3.78926e-05 
26.982 1 222 22.2785 2.7385 4.70818 1.77725 2.45797 1.3722 0.558053 -0.130969 0.0104518 -0.0283401 -0.994806 -0.521629 -0.00131339 -0.139064 -0.0748896 2.24203e-05 -1.73616e-05 -1.18832e-06 
26.982 1 28 24.7429 2.78082 2.70167 -1.11906 4.38381 0.692431 0.379138 -0.644844 0.309986 -0.0843596 -0.939881 -1.1417 -0.000245947 -0.141635 -0.175447 8.63634e-06 -3.71748e-05 -7.8444e-06 
26.982 1 265 24.7865 4.63228 4.69158 -7.69487 -0.573773 1.20753 0.202011 -0.123053 -0.0954112 -0.00128033 -0.107672 -0.190704 -6.69043e-05 -0.0171644 -0.030728 2.07047e-06 -9.04799e-06 -5.97665e-06 
26.982 1 999 41.0198 16.574 18.4164 -0.0166174 1.84162 -2.12826 -0.0191541 -0.860123 0.230895 0.341821 -0.0557987 -0.275492 0.0416289 -0.00897814 -0.0313872 -8.99765e-06 -1.48206e-05 1.22726e-05 
26.982 1 65 24.9058 4.7645 0.889474 3.78907 -1.38119 -1.77974 -0.0172603 0.291649 0.0987361 0.153462 0.00129555 -1.02689 0.0157401 -0.00168067 -0.117899 -9.62982e-06 1.15314e-05 -5.48137e-05 
26.982 1 22 22.538 2.71767 1.00938 1.33744 -1.02249 1.96529 -0.00666425 0.0101247 -0.685657 0.10563 -0.785063 -1.45099 0.00781955 -0.109807 -0.192055 -1.3452e-05 -1.08217e-05 -6.77366e-05 
26.982 1 67 27.4187 4.41886 3.13275 2.44769 -1.50785 -5.64574 -0.570156 0.688174 -0.857406 0.0670691 -0.000946579 -1.54405 0.00990061 -0.00394383 -0.233282 -6.1868e-06 6.53244e-06 -2.80759e-05 
26.982 1 226 26.9774 2.42758 4.69624 1.59224 0.0182131 1.31823 0.192022 0.140707 0.400273 0.0125165 -0.829347 -0.387135 -0.00210085 -0.13389 -0.0729254 -1.18551e-05 -2.38723e-05 -8.58045e-07 
26.982 1 32 29.6563 3.03825 2.59724 1.88313 0.925406 -1.55952 0.2184 -0.855694 0.282611 0.0191552 -0.82551 -1.24301 0.00125 -0.122805 -0.193513 1.31536e-05 -1.28996e-05 -5.03123e-05 
26.982 1 269 29.56 4.60604 4.84114 6.69655 -0.140953 -4.35527 0.31987 0.148644 0.130036 -0.00651375 -0.098457 -0.209938 -0.000533058 -0.0161023 -0.0343596 6.61115e-06 -2.91987e-07 -2.90648e-06 
26.982 1 229 29.3995 0.965213 4.613 4.93248 -0.690526 -1.05194 0.111169 0.372279 0.0692903 0.0343051 -0.902619 -0.630145 0.00359724 -0.127641 -0.0979221 -2.54823e-06 -3.72969e-05 -2.28205e-05 
26.982 1 2827 27.0437 20.0938 18.319 -2.40311 -4.76659 -1.93776 0.109655 0.582812 -0.0311209 -0.827027 -0.625481 -0.996365 -0.107458 -0.114506 -0.131214 -3.12971e-06 4.28556e-05 -3.76484e-05 
26.982 1 26 27.2645 2.90363 0.841403 2.78148 -2.17551 -0.719172 -0.0067737 0.196996 -0.0502154 -0.113499 -0.540111 -1.33142 -0.0105229 -0.084214 -0.173551 9.60475e-06 -1.17557e-05 -5.76083e-05 
26.982 1 2819 18.2438 20.1815 18.2778 -1.76919 -0.204366 -6.93075 -0.447961 -0.396125 0.290811 -0.611162 -0.170105 -1.03018 -0.082688 -0.0088997 -0.140022 -2.01828e-05 2.1573e-05 9.42784e-06 
26.982 1 233 34.0047 0.780717 4.53131 -0.611334 -2.49352 2.95589 0.367484 0.0752473 0.197778 -0.00963161 -1.13931 -0.700276 0.000276699 -0.146151 -0.102994 1.25577e-05 -4.09312e-05 -2.58315e-05 
26.982 1 71 31.935 4.85542 2.80948 0.412103 0.544989 1.4899 -0.111286 -0.0827656 0.0958309 -0.143823 -0.0365886 -1.36634 -0.0182839 -0.0154642 -0.219881 -1.15638e-05 -5.38623e-06 -4.29029e-05 
26.982 1 230 31.7985 2.71304 4.77715 1.08707 -5.69857 1.73016 0.123614 0.636639 -0.227148 -0.0672536 -0.86147 -0.448784 -0.0057707 -0.126617 -0.073004 5.2433e-06 3.38503e-06 -1.08475e-05 
26.982 1 273 34.3027 4.74769 4.6752 -1.91934 -0.0696841 0.0639361 -0.276441 -0.26998 -0.101855 -0.001125 -0.0815333 -0.161007 -0.000524791 -0.0142639 -0.0275505 -3.27861e-06 -7.45734e-06 -6.00326e-06 
26.982 1 36 34.1876 2.74619 2.64002 -2.47992 -0.811122 4.11739 0.187761 0.537596 0.684418 -0.0983139 -0.93991 -1.17172 -0.0171888 -0.140971 -0.183314 -8.34988e-06 -2.10032e-05 -2.85932e-05 
26.982 1 31 31.6805 0.888068 2.77116 3.08693 -2.28745 -3.80366 -0.0306773 -0.244484 -0.0784642 -0.124513 -1.15725 -1.08439 -0.00252973 -0.142095 -0.165013 -1.59617e-07 -4.16771e-05 -4.6172e-05 
26.982 1 73 34.0884 4.9065 0.925554 4.22399 2.10838 2.38392 -0.0129493 -0.287368 -0.228538 0.133564 -0.107572 -1.40355 0.00806211 -0.0149234 -0.15995 -8.98882e-06 8.20959e-06 -6.1109e-05 
26.982 1 35 36.7455 0.739661 2.7279 -1.36281 -0.472387 -1.71339 -0.778326 0.212432 -0.616554 0.0576909 -1.68783 -1.16522 0.00375937 -0.203161 -0.179005 5.39361e-06 -5.36766e-05 -2.22772e-05 
26.982 1 75 36.6649 5.01955 2.66945 3.83623 3.22251 3.23959 -0.422922 -0.727952 0.162368 0.124354 -0.0344771 -1.3526 -0.000574858 -0.00360183 -0.194665 5.52895e-06 1.0218e-08 -4.05354e-05 
26.982 1 234 36.6705 2.63153 4.5831 -5.70433 -1.71454 4.01197 -0.539308 0.559678 0.269652 0.0110902 -0.690542 -0.344888 -0.00387543 -0.109734 -0.0606717 2.58384e-06 -1.32417e-05 -4.71638e-06 
26.982 1 40 38.9172 2.58264 2.69164 4.49889 4.24902 -2.59257 -0.25488 0.520056 -0.215764 0.295758 -0.949871 -1.39893 0.0251067 -0.151447 -0.190132 1.66053e-05 -2.58832e-05 -4.12998e-05 
26.982 1 277 38.7987 4.6454 4.70044 4.63586 3.56436 4.597 -0.0128616 -0.203179 -0.00298631 0.0110958 -0.0864878 -0.195453 0.00107048 -0.0127147 -0.0264019 -9.66191e-07 -7.98006e-06 -7.10977e-06 
26.982 1 998 41.1676 18.2105 16.3703 1.36303 0.512921 3.54843 -0.236285 0.11384 -0.16969 0.187236 0.202528 -0.359282 0.019657 0.0380446 -0.0529192 -5.82795e-06 1.91589e-05 -1.72931e-05 
26.982 1 2807 3.95253 20.2144 18.3762 -1.09406 -0.765956 1.89795 0.318033 -0.25021 -0.472696 -0.665726 -0.171715 -0.834283 -0.0765476 -0.0376713 -0.126849 -9.31449e-06 7.84989e-06 -3.82365e-05 
26.982 1 4 -2.98268 2.73489 2.9118 -1.06213 -2.91196 -1.38884 -0.444576 -0.803793 -0.737534 -0.877859 -0.884626 -1.02168 -0.127706 -0.116826 -0.141754 -5.22692e-05 -3.21418e-05 -3.09602e-05 
26.982 1 241 -3.06856 4.45283 4.69102 -4.50697 1.97281 0.239017 -0.307223 0.891093 0.478475 -0.618776 -0.611926 -0.698339 -0.0727769 -0.069873 -0.0857568 -2.85786e-05 -3.44808e-06 -1.06908e-05 
26.982 1 79 41.0084 4.79648 2.72653 -1.87799 -0.540219 -0.284592 0.0868135 -0.616557 0.0787804 -0.0662682 -0.162627 -1.46933 0.00303646 -0.0112586 -0.206618 -7.86568e-06 -9.84101e-06 -4.65306e-05 
26.982 1 238 40.8765 2.68216 4.59656 1.8282 0.735249 -0.409064 0.649581 0.289453 0.145506 0.0115913 -0.920951 -0.577593 0.00532903 -0.128739 -0.0799641 1.11629e-05 -3.67842e-05 -2.32156e-05 
26.982 1 995 36.462 16.3511 18.2842 -4.3353 1.73499 -1.20307 -0.0831075 -0.150656 -0.0738633 -0.136993 0.0040115 0.127631 -0.0269065 8.59169e-05 0.0241866 -1.18595e-05 -4.65566e-06 1.0309e-05 
26.982 1 83 -0.849104 8.50823 2.99267 -5.69937 0.0108803 2.23819 0.298687 -0.365682 0.0924406 -0.901572 -0.326492 -1.19987 -0.116495 -0.0527381 -0.186265 -5.17389e-06 -2.02683e-05 -3.39752e-05 
26.982 1 242 -0.596336 6.60481 4.77913 3.26526 2.62831 5.14238 0.080843 0.070445 0.400409 -0.922693 -0.0303653 -0.513296 -0.124835 -0.00999816 -0.0708337 -1.04273e-06 2.68601e-06 9.42896e-09 
26.982 1 44 -2.97541 6.50917 2.9284 0.330163 -0.829912 2.48803 -0.346134 0.205183 -0.221711 -0.250594 -0.816599 -1.21269 -0.0533461 -0.0974493 -0.174249 -4.23044e-05 3.28769e-06 -4.93806e-05 
26.982 1 281 -3.08428 8.48711 4.81251 -2.08665 0.949015 1.82146 0.10806 0.138831 0.364457 -0.629468 -0.597723 -0.703033 -0.0889741 -0.0826337 -0.100188 -2.50241e-05 -9.95274e-06 -1.08933e-05 
26.982 1 48 1.61572 6.5896 2.84098 1.24026 1.23036 -0.140606 -0.0663327 0.291504 0.0193721 -0.206147 -0.0774371 -1.13687 -0.0287648 -0.00595724 -0.176724 -4.76174e-06 -8.01086e-06 -4.27104e-05 
26.982 1 285 1.85411 8.52508 4.89153 -1.51026 4.15079 -2.17179 -0.258905 -0.11694 0.0320202 -0.0833186 -0.00800242 -0.129763 -0.00965973 -0.00109425 -0.0215453 -7.99888e-06 -1.13516e-06 -5.11899e-06 
26.982 1 87 4.0738 8.35063 2.80903 -3.75279 -1.11642 1.67078 -0.360839 0.339869 0.315545 -0.00929456 -0.0149655 -1.01675 -0.00342945 0.00168564 -0.162909 -9.19296e-06 -1.21675e-05 -2.79939e-05 
26.982 1 246 3.95796 6.52438 4.92358 1.75619 0.794246 2.12364 0.08208 0.27803 0.0435921 -0.00238818 -0.00654084 -0.115307 -0.000353958 -0.000922216 -0.0194435 1.42956e-06 3.33478e-06 -2.18242e-06 
26.982 1 88 1.63868 10.3646 3.03738 1.51269 -0.623079 -1.94932 0.1372 0.12984 -0.489955 -0.220049 -0.0517705 -1.06089 -0.0189051 -0.00477677 -0.165251 1.95997e-06 -2.3297e-06 -1.57435e-05 
26.982 1 601 43.5718 0.70672 12.4835 3.61236 -3.37463 0.167544 0.203313 -0.257387 0.383058 -0.245498 -0.686772 -0.60277 -0.0355481 -0.0987856 -0.092164 -7.65524e-06 -4.15301e-05 -2.54434e-05 
26.982 1 289 6.17766 8.48036 4.7817 1.1035 2.87598 1.79715 0.17912 0.0565094 -0.116268 0.00641613 0.00111758 -0.117545 0.000760065 0.00023911 -0.018853 7.92242e-06 2.05135e-06 -4.60166e-06 
26.982 1 52 6.36881 6.53835 2.81283 1.19818 -1.26526 -0.985992 -0.282403 -0.195113 -0.410476 0.0126698 -0.00122725 -1.01921 0.00363072 -0.00686243 -0.165031 -1.13897e-05 -1.37264e-05 -3.96325e-05 
26.982 1 91 8.77782 8.35553 2.85856 1.60927 5.81384 6.8738 -0.444316 0.516976 -0.103906 0.116701 0.0808643 -1.23605 0.0100892 0.00128376 -0.180274 -1.13363e-05 2.1661e-05 -1.98403e-05 
26.982 1 250 8.44188 6.29362 4.55085 -1.75908 3.23119 -0.683113 0.619581 0.0332171 0.362799 0.00688709 0.00238881 -0.114358 0.00070895 -0.000299115 -0.0204958 1.42725e-05 2.58756e-06 1.0991e-06 
26.982 1 92 6.17787 10.4981 2.89709 -0.720736 -1.53405 2.47866 0.403352 0.21645 0.0214795 0.104697 -0.0191278 -1.06534 0.00613185 -2.82243e-05 -0.161859 1.78105e-05 8.00637e-07 -1.67387e-05 
26.982 1 290 8.66092 10.7087 4.79451 -7.33353 -2.96942 -1.78621 -0.271635 -0.745884 -0.0419669 0.0103667 0.00304296 -0.146023 0.000594657 -0.000283217 -0.0211232 -4.06649e-06 -1.15823e-05 -7.34709e-06 
26.982 1 50 8.71786 6.24478 0.863105 -2.48797 -0.677039 -0.310542 -0.249557 0.441747 0.306667 0.0702332 0.0113853 -1.58828 0.00134217 -0.00214143 -0.186631 -6.20356e-06 -1.5507e-05 -5.97406e-05 
26.982 1 293 10.7828 8.66829 4.96673 -2.4077 -0.517848 0.436222 0.329699 -0.457274 -0.218727 0.00219808 0.0112456 -0.154648 0.000140612 0.00087318 -0.0219463 4.69853e-06 -5.44645e-06 -4.91879e-06 
26.982 1 56 10.8797 6.50038 2.75042 1.00004 3.05306 -6.39321 -0.0910722 -0.130297 0.0467406 0.0432307 0.129508 -1.1826 -0.00163343 0.00651268 -0.176817 7.80596e-06 -1.22642e-05 -2.77985e-05 
26.982 1 95 13.2102 8.43001 3.14512 2.31007 3.67337 -4.93023 0.282409 0.449927 -0.512946 -0.03101 0.0967663 -1.37346 0.00392535 0.0123156 -0.193752 5.85699e-06 -5.47745e-06 -2.55179e-05 
26.982 1 254 12.8761 6.36495 4.66175 -4.384 -1.28896 -2.42261 0.584225 -0.178954 0.712702 0.00231896 0.000415832 -0.136907 0.00035971 -0.000111287 -0.0208759 1.58762e-05 2.35676e-06 5.27915e-06 
26.982 1 93 10.7998 8.37104 0.772395 2.88037 0.900108 -3.55415 0.28678 0.360249 -0.000550176 0.168649 0.041644 -1.05348 0.0140985 0.000429226 -0.173594 7.36243e-06 5.38422e-07 -6.08895e-05 
26.982 1 2609 6.33654 20.3158 12.3646 2.86963 3.71358 0.97839 -0.0459677 -0.38579 0.0160846 -0.445655 -0.281263 -0.986388 -0.0497433 -0.0361927 -0.145342 -1.92324e-05 2.26571e-05 -2.02438e-05 
26.982 1 60 15.6055 6.41847 2.90061 0.736519 2.74384 7.71955 -0.434326 0.325067 -0.0659021 -0.0154724 0.0664402 -1.20635 0.0038357 0.00984018 -0.184695 -9.00943e-06 -4.71294e-06 -3.81066e-05 
26.982 1 297 15.7189 8.61224 4.92262 2.30632 -4.02883 4.53157 -0.601791 -0.278538 -0.570513 0.00174946 0.0110211 -0.160072 0.000845374 0.00128426 -0.0251076 -1.51535e-05 -1.01623e-05 -1.31495e-05 
26.982 1 99 17.7919 8.52045 2.72317 0.585152 -2.12963 3.30674 0.116738 -0.267709 -0.0946965 -0.0722193 0.112693 -1.26478 -0.0125762 0.011173 -0.19404 1.12411e-05 -8.02967e-06 -5.20097e-05 
26.982 1 100 15.7405 10.47 2.83557 -2.89756 -4.41642 -3.16376 -0.217507 0.258696 -0.0609574 0.01125 0.0485149 -1.45545 0.00401634 -0.00398478 -0.206842 4.78133e-06 1.28379e-05 -3.49638e-05 
26.982 1 97 15.5053 8.48377 1.03743 0.970729 0.642819 3.06006 0.0489592 -0.0781555 -0.264825 -0.0819186 0.224666 -1.23065 -0.005979 0.0216104 -0.156328 5.64763e-06 -1.42755e-05 -6.09771e-05 
26.982 1 239 41.0361 0.848667 6.56475 -1.07894 2.28865 -7.72535 0.196862 -0.114178 -0.183443 0.361087 -1.61016 -0.648695 0.0412051 -0.213871 -0.0947811 3.69716e-06 -6.12553e-05 -7.15602e-06 
26.982 1 258 17.739 6.66701 4.84219 1.07843 4.33531 8.40154 0.300282 0.156142 -0.15502 0.00248021 0.00342116 -0.134613 0.000272981 -1.70239e-05 -0.0225137 7.6812e-06 -9.73275e-07 -8.93355e-06 
26.982 1 64 20.0397 6.62207 2.65913 5.76702 5.44693 -1.95306 0.192988 -0.324156 0.282736 0.0788358 -0.0824989 -1.23085 0.00704794 -0.020938 -0.192193 3.25099e-07 -8.93028e-06 -6.06236e-05 
26.982 1 301 20.1876 8.4747 4.53853 -5.6079 2.04782 2.72922 -0.302166 -0.0191802 0.661002 0.00131595 0.00559027 -0.142697 -0.000609255 0.000297077 -0.021478 -6.3087e-06 -3.09794e-06 7.92425e-07 
26.982 1 103 22.3275 8.63371 2.86887 -0.326224 -1.89929 4.61815 0.230495 -0.999462 -0.821844 0.0540089 0.0417749 -1.33745 0.00669199 -0.00760136 -0.184551 6.12009e-06 -8.03487e-06 -6.74888e-05 
26.982 1 262 22.341 6.49103 4.683 -5.29694 2.37622 2.051 0.223986 0.167303 0.104813 0.00373449 -0.00762473 -0.160754 0.000162544 -0.00230714 -0.0254898 4.23774e-06 1.87384e-06 -7.97067e-06 
26.982 1 305 24.8044 8.84448 4.77868 -0.311549 5.33078 3.85268 0.163233 -0.632631 -0.0310129 0.00331278 -0.000356096 -0.161923 0.00118026 -0.000546147 -0.0241304 7.33585e-07 -7.98204e-06 -6.35945e-06 
26.982 1 68 24.8255 6.84622 2.90201 0.181201 3.52031 5.44551 -0.415086 -0.403525 -0.0262524 0.0657413 -0.0791842 -1.45276 0.00915008 -0.0184847 -0.216933 -1.65771e-05 4.99689e-06 -3.57839e-05 
26.982 1 302 22.529 10.3599 4.66169 0.702051 -3.36236 -1.88233 -0.224231 1.20647 0.529981 -0.00192054 0.00159612 -0.169717 -0.000613204 0.000363816 -0.0218249 -7.13246e-06 1.91519e-05 -2.17652e-06 
26.982 1 231 32.1035 0.77472 6.54856 0.994709 -1.30925 2.13979 -0.45453 -0.510241 0.085182 0.0114224 -0.293849 -0.776604 -0.0027802 -0.0467725 -0.119227 -6.46231e-07 -6.24649e-05 1.36844e-05 
26.982 1 107 27.0528 8.62419 2.77219 -7.05247 0.237447 -3.10876 -0.0859784 0.335117 0.25902 0.158643 -0.135356 -1.50085 0.0193025 -0.0124504 -0.223185 -1.05793e-05 1.74168e-05 -3.1651e-05 
26.982 1 266 27.114 6.61126 4.60617 1.02105 0.0749747 2.3754 -0.104931 0.14841 0.262761 0.00371721 0.000128829 -0.193735 0.000257212 -0.000718853 -0.0296806 -1.8207e-06 2.65519e-06 -2.49293e-07 
26.982 1 72 29.45 6.64054 3.10216 3.79237 -3.37841 0.797392 0.180231 0.0567852 -0.598269 -0.0682149 0.0232264 -1.6823 -0.00816072 -0.00721676 -0.248729 1.08543e-05 -8.3286e-06 -3.54461e-05 
26.982 1 309 29.4547 8.73516 4.92697 3.98428 0.705504 -0.731627 0.179964 -0.467374 -0.165008 -0.0050216 -0.00594997 -0.198148 -0.00059996 -0.000589641 -0.0295297 2.81297e-06 -7.85391e-06 -3.49256e-06 
26.982 1 111 31.7119 8.58161 2.8163 0.315416 0.578229 -0.302522 -0.0873781 0.0960801 0.197042 -0.126894 -0.175354 -1.37411 -0.0153516 -0.018799 -0.203441 1.16235e-05 1.51629e-06 -5.24224e-05 
26.982 1 270 31.8811 6.67522 4.79343 2.76658 1.63168 2.56696 0.0194738 0.0606652 0.1279 -0.00737447 0.00289428 -0.178117 -0.00107523 -0.000327261 -0.0277963 1.67373e-06 -1.88546e-06 -2.97157e-06 
26.982 1 76 34.0265 6.85714 2.76389 -4.99164 -1.62007 -3.19311 0.299434 -0.0245025 0.412934 -0.00540683 0.0395859 -1.34212 -0.0012625 -0.00406881 -0.206119 1.88293e-06 1.45445e-05 -3.79986e-05 
26.982 1 313 34.0546 8.83663 4.83455 2.19499 7.60826 0.211285 0.164298 -1.1256 -0.971459 -0.0035516 -0.00253367 -0.149911 -0.000249464 -0.000314546 -0.0231851 4.6213e-06 -1.71436e-05 -1.96804e-05 
26.982 1 310 31.9595 10.5513 4.63328 -0.0367598 6.75099 -0.670301 -0.405782 0.317338 0.160588 -0.00389548 -0.00192952 -0.13054 -0.00102346 -0.000193341 -0.0219171 -9.19247e-06 5.33056e-06 -1.16009e-05 
26.982 1 223 22.6442 0.852239 6.72973 -2.52958 -2.36207 -5.11088 -0.239892 0.122744 -0.310188 -0.227292 -1.15182 -0.764863 -0.0247944 -0.15824 -0.102449 2.5147e-05 -5.55597e-05 -5.27854e-06 
26.982 1 116 34.2912 10.7499 2.82851 -1.4098 2.23324 4.34955 -0.467122 -0.321527 0.238107 0.0880546 0.0480241 -1.24551 0.00468885 -0.00121223 -0.177664 -1.67375e-05 -2.33683e-05 -3.50446e-05 
26.982 1 215 13.2122 0.824738 6.68939 0.872127 -2.17253 -0.651121 0.116855 0.220265 -0.595037 0.223563 -0.576052 -0.515318 0.023343 -0.0400346 -0.0912558 -2.65999e-05 -5.5159e-05 -7.63824e-06 
26.982 1 114 36.6562 10.4086 0.945797 3.2796 -2.78989 0.784409 -0.0369839 0.0594033 0.174858 -0.050764 0.0823785 -1.42009 -0.0021835 0.000703546 -0.201684 -1.74143e-05 -1.06342e-05 -5.46753e-05 
26.982 1 115 36.3757 8.41626 2.93234 2.06099 1.43019 5.40525 0.212019 0.472749 -0.00409785 -0.1884 -0.0584124 -1.15665 -0.0172703 -0.0126605 -0.176922 -5.91981e-06 -4.32107e-06 -3.64847e-05 
26.982 1 274 36.5093 6.47718 4.77787 -4.67145 -2.71433 -7.26371 0.14364 0.30898 0.590689 0.00219073 -0.00920601 -0.151044 -2.06318e-05 -0.000878901 -0.0241088 -1.07392e-06 2.37923e-06 -6.62654e-07 
26.982 1 80 38.9656 6.7048 2.86166 1.29037 -2.01568 -1.59434 -0.145981 -0.322462 -0.0489018 0.0259311 -0.304664 -1.23453 0.00609213 -0.0214308 -0.183172 4.00544e-07 -1.45903e-05 -4.14545e-05 
26.982 1 317 38.7938 8.61092 4.6709 1.23295 1.94658 -2.908 -0.136453 0.181682 0.131778 0.00496282 -0.00615625 -0.107044 0.000381267 -0.000688906 -0.0184394 -4.02313e-06 6.9672e-07 -1.32263e-06 
26.982 1 120 39.0422 10.6112 2.91131 1.27197 5.04747 -1.13529 -0.277896 0.117932 -0.0330611 0.121716 0.225075 -1.19275 0.00861163 0.0199353 -0.173291 -8.39451e-06 3.60116e-06 -8.83243e-06 
26.982 1 314 36.4851 10.6587 4.70744 -1.57881 -1.57886 2.78843 -0.0474642 -0.33639 -0.316471 -0.00266429 0.00584999 -0.140902 -0.00028683 0.000319156 -0.0209666 2.35086e-06 -7.26982e-06 -8.07443e-06 
26.982 1 117 38.8995 8.6189 1.03162 1.2785 0.682617 -0.278805 -0.419429 0.313501 -0.00926003 0.0911369 0.0241549 -2.16024 0.00599395 -0.00265867 -0.258573 -6.85403e-06 -2.48861e-05 -6.13077e-05 
26.982 1 81 43.4187 8.68614 1.05436 2.57836 -4.19987 -3.84779 0.0307911 -0.19189 -0.235796 -0.401714 -0.34517 -1.04152 -0.0410755 -0.0474058 -0.136394 4.26517e-06 -2.13485e-05 -6.25206e-05 
26.982 1 119 41.2681 8.65569 2.92751 -5.07816 -0.623855 -0.374722 -0.0562947 -0.213203 0.307524 0.244826 0.0119704 -1.26655 0.0277101 -0.0145366 -0.189927 5.18936e-07 -1.8243e-05 -1.85548e-05 
26.982 1 278 41.2739 6.56468 4.7511 -1.75611 -3.57691 -1.6751 -0.0274973 -0.0553684 0.00121194 0.312756 -0.30637 -0.189487 0.0386296 -0.0367076 -0.0296758 1.06782e-05 -1.44084e-05 -5.272e-06 
26.982 1 318 41.0899 10.6109 4.94792 0.771826 -1.36833 -4.53678 0.209576 0.0676854 -0.133239 0.329021 -0.283121 -0.197788 0.0457905 -0.0407192 -0.02707 1.25748e-05 -2.75374e-06 -1.44181e-06 
26.982 1 118 41.0273 10.3894 0.932978 -2.33579 -3.69473 0.0271044 0.511811 0.794334 -0.335362 0.258131 -0.0222792 -0.976945 0.0347776 -0.00659353 -0.179884 8.74296e-06 9.22873e-06 -6.13979e-05 
26.982 1 203 -0.736082 0.891913 6.79876 3.53471 4.90382 -0.364207 0.191796 -0.151565 0.0657323 -0.867968 -0.959283 -0.614696 -0.107091 -0.13246 -0.0896278 -2.38053e-05 -5.05485e-05 6.51483e-06 
26.982 1 282 -0.773152 10.602 4.68564 0.820614 2.5011 -1.50275 0.224224 -0.222131 0.71211 -0.79887 0.00139802 -0.371098 -0.103412 -0.00262073 -0.0532308 -1.52568e-05 -5.60174e-06 -4.83666e-07 
26.982 1 123 -0.775978 12.549 2.9136 0.92843 -0.656999 -2.48812 0.327605 0.568166 -0.284634 -0.902678 -0.239924 -1.2035 -0.109488 -0.0247728 -0.181455 -2.07893e-05 -1.83764e-06 -2.75273e-05 
26.982 1 322 -0.736374 14.5965 4.79469 -1.07595 -2.06022 -1.95894 0.276449 0.00281264 0.0788047 -0.560965 -0.207026 -0.30323 -0.0753387 -0.02206 -0.0467241 -7.76273e-06 1.16899e-05 -2.23712e-06 
26.982 1 84 43.5167 10.5717 3.05102 -0.471685 2.31284 4.31338 -0.256121 0.0358441 -0.063897 -1.05953 -0.335186 -1.4243 -0.139559 -0.0552172 -0.198029 4.04004e-06 -3.23365e-05 4.06454e-06 
26.982 1 321 -2.87811 12.6415 4.87295 -3.31968 3.97645 1.49801 -0.279554 -0.729803 -0.457014 -0.558618 -0.437459 -0.552785 -0.0873754 -0.0687492 -0.0862895 -2.88632e-05 -3.56398e-05 -3.22831e-05 
26.982 1 124 -3.00122 14.5832 2.82989 0.146525 1.73576 0.53645 0.104012 -0.368882 0.448053 -1.32963 -0.483709 -1.21144 -0.164937 -0.0717946 -0.174862 -4.7376e-05 7.25235e-06 -2.77572e-05 
26.982 1 286 4.11882 10.548 4.73213 -2.31103 1.84472 2.14523 -0.492789 -0.187482 -0.008029 -0.00257992 0.00283459 -0.10187 -0.00053883 0.000253201 -0.0187585 -8.32629e-06 -2.59203e-06 -3.46012e-06 
26.982 1 325 1.7226 12.4107 4.83513 -2.90008 1.70478 0.581699 -0.18051 0.11331 -0.046828 -0.0769399 -0.00780968 -0.116035 -0.00860538 -0.00100317 -0.0199229 -5.55521e-06 1.20395e-06 3.07716e-08 
26.982 1 128 1.67166 14.3887 3.04835 1.77561 4.72386 -0.284269 -0.261687 0.262337 -0.204927 -0.159314 0.118079 -1.08291 -0.0228247 0.0117568 -0.169858 -6.13274e-06 3.84279e-06 -1.05487e-05 
26.982 1 127 3.89116 12.5777 2.95499 -1.89468 0.731462 1.01068 0.330309 -0.222405 -0.218506 0.0181022 -0.00855886 -0.920568 0.000838767 -0.0066894 -0.15228 8.53444e-06 -3.43032e-06 -1.39379e-05 
26.982 1 326 4.09369 14.6947 4.61016 -3.51863 -0.389806 5.17658 0.0641784 -0.935026 0.0330668 -0.00253696 1.12066e-05 -0.0986134 -0.000388932 -0.000408996 -0.0167422 -2.12823e-06 -1.40392e-05 -7.52638e-07 
26.982 1 829 29.5717 0.8506 16.5748 3.44397 -6.32654 -1.55793 -0.00754843 0.210123 -0.344239 0.0511444 -1.03585 -0.74818 0.00547773 -0.162524 -0.121591 1.69987e-06 -3.44072e-05 -4.33019e-05 
26.982 1 329 6.40043 12.615 4.84208 1.05889 -3.31018 -6.6559 -0.243551 -0.329539 -0.865089 0.00268764 -0.00107681 -0.111307 -0.000317021 -0.000279322 -0.0185242 -8.3908e-07 -3.21641e-06 -1.524e-05 
26.982 1 132 6.32818 14.5826 2.65194 -0.977337 0.904525 -3.72611 0.0842376 -0.187507 0.446728 0.0942628 -0.00959162 -1.01293 0.0130995 -0.0050021 -0.154312 2.6275e-06 -5.52026e-06 -5.43517e-06 
26.982 1 131 8.45557 12.4019 2.66793 -1.49402 -0.362371 4.28106 0.333754 0.161554 0.191878 0.104688 -0.01413 -1.21841 0.00704577 0.00281906 -0.179247 1.0456e-05 -1.42445e-05 -2.06361e-05 
26.982 1 330 8.80551 14.4693 4.55436 3.88073 -2.13133 -4.25753 -0.176131 -0.475712 0.262306 0.006819 0.000791711 -0.134504 0.000694764 0.000191956 -0.0210834 -8.59999e-07 -6.80982e-06 -1.84914e-06 
26.982 1 129 6.40471 12.513 0.925153 0.779344 1.25013 -3.93023 -0.546403 0.120302 -0.286964 0.106307 0.0557995 -1.69198 0.0100055 0.00638225 -0.223837 3.80823e-06 -1.26605e-05 -6.16658e-05 
26.982 1 133 10.8225 12.1171 0.946986 1.25412 3.65961 -1.49158 0.136294 0.647299 -0.169542 0.065076 -0.054001 -1.23273 0.00427754 -0.00190023 -0.191835 -5.1461e-06 6.17367e-07 -5.53677e-05 
26.982 1 294 13.3799 10.5774 4.8733 -4.73554 1.31762 8.16821 -0.403713 -0.0501012 -0.233606 0.00121979 0.00788048 -0.169353 0.000293214 0.00015466 -0.0241777 -1.25143e-05 -1.66043e-06 -1.11733e-05 
26.982 1 96 10.983 10.2527 2.76068 1.30602 -0.204308 -3.50913 0.0603553 0.202794 0.49736 0.0465319 -0.0376632 -1.39356 0.00618562 -0.00468499 -0.188167 -4.23659e-06 8.73704e-06 -9.84436e-06 
26.982 1 333 10.8296 12.3959 4.92963 1.77427 3.4873 3.94282 0.313128 -0.0466437 -0.336053 0.00404408 -0.00502549 -0.152711 0.000324777 -0.000616305 -0.0214099 8.16813e-06 -1.05789e-06 -1.52387e-05 
26.982 1 136 11.1488 14.3147 2.78084 3.97843 2.53873 1.22848 -0.178819 -0.362749 0.0380042 -0.0385355 -0.00205173 -1.26251 -0.00826155 0.00352548 -0.17889 -2.6544e-06 -1.07631e-05 -1.05793e-05 
26.982 1 135 13.5583 12.4324 2.69525 -2.03355 -1.07822 4.58731 -0.669035 0.10584 0.125349 0.0509158 -0.120878 -1.34519 0.00520431 -0.0161779 -0.184895 -1.31976e-06 -1.25778e-06 -2.27321e-05 
26.982 1 334 13.3459 14.5627 4.6808 -8.08099 -0.690371 -0.0816756 -0.0531401 -0.563728 -0.041706 0.00125461 -0.00404999 -0.140039 0.000299449 -6.51995e-05 -0.0207841 -6.44866e-06 -1.14053e-05 -4.07442e-06 
26.982 1 140 15.6845 14.6731 2.81879 -2.46922 -2.59832 1.19091 -0.0890082 -0.547294 0.31692 0.124031 -0.138922 -1.29273 0.0105038 -0.00614398 -0.181061 1.45702e-05 -6.8832e-06 -4.45734e-05 
26.982 1 337 15.4398 12.4666 4.68276 -2.19508 -0.923065 0.364272 0.409737 0.537788 -0.115354 0.00294847 -0.00197711 -0.173974 0.000612771 -0.000701506 -0.0238298 7.98876e-06 9.15302e-06 -8.35184e-06 
26.982 1 139 17.8197 12.6098 2.84988 -2.32347 4.34668 -4.33483 -0.184064 -0.405456 0.00931692 -0.0215385 -0.00513286 -1.50845 0.000267543 -0.0112209 -0.203673 -1.28003e-05 4.01031e-07 -4.65438e-05 
26.982 1 338 17.9266 14.6333 4.7271 -0.631561 -3.0947 1.7844 -0.21947 0.311734 0.220052 -0.00509208 -0.012079 -0.163923 -0.000357566 -0.00133222 -0.0221483 -5.28057e-06 8.16791e-06 -2.89732e-06 
26.982 1 2437 38.8103 20.1767 8.67825 -4.28584 3.11825 -1.64013 0.0349148 0.364957 -0.03701 -0.28612 0.0073805 -0.959935 -0.049823 -0.00163166 -0.134919 -1.30957e-05 2.94844e-05 -1.95492e-05 
26.982 1 298 18.0809 10.3697 4.60993 2.16083 -0.446473 0.297145 -0.403253 0.473617 0.229326 -0.00326796 0.0020742 -0.174031 -0.000919409 -0.000525448 -0.0259373 -5.92131e-06 7.45073e-06 -5.82883e-06 
26.982 1 104 19.9829 10.5203 2.68199 -2.72568 -0.141124 1.53358 0.46502 0.192033 -0.397315 0.0144912 0.12309 -1.39192 -0.00834092 0.013601 -0.190793 7.7174e-06 -7.66545e-06 -5.04883e-05 