ITEM: TIMESTEP
15500
ITEM: NUMBER OF ATOMS
4000
ITEM: BOX BOUNDS pp pp pp
-3.22445 43.7244
0.852758 39.6472
0.869169 39.6308
ITEM: ATOMS mass type id x y z vx vy vz fx fy fz xrad yrad zrad vxrad vyrad vzrad fxrad fyrad fzrad 
26.982 1 43 -1.8723 5.28849 2.91152 0.95127 4.89065 -4.32 0.150583 0.204878 -0.333112 -0.904459 -0.44897 -1.37605 -0.115418 -0.0409933 -0.190249 -3.42439e-05 1.65683e-05 -3.56095e-05 
26.982 1 202 -1.58076 3.24857 4.63379 2.72326 0.89127 -5.0017 -0.255185 -0.0486102 -0.00872867 -0.849289 -0.782964 -0.777166 -0.11068 -0.103937 -0.105141 -2.08093e-05 -1.86408e-05 -2.79433e-05 
26.982 1 964 42.5921 18.0979 18.3018 0.873127 2.99389 -4.55316 0.367885 0.329273 -0.487792 -1.05077 -0.0485673 -0.286432 -0.110125 -0.0162411 -0.0494104 4.56128e-05 -2.36475e-06 -6.12369e-06 
26.982 1 961 42.5564 16.1688 15.9606 -0.551201 -1.40696 -2.87917 0.249941 0.203578 0.196929 -0.820389 -0.51266 -0.590248 -0.0953332 -0.064346 -0.0733963 1.4121e-05 -4.10954e-06 -2.85472e-06 
26.982 1 5 0.120157 1.15883 1.42595 1.4331 -3.44992 2.40627 0.253893 -0.33341 -0.102846 0.0789718 -0.684822 -1.083 0.0122118 -0.0927827 -0.144616 2.35341e-06 -4.09486e-05 -2.57671e-05 
26.982 1 245 1.07067 4.41449 5.06199 -3.55535 4.38018 1.47717 -0.101678 -0.613414 -0.287798 -0.0657584 -0.140879 -0.198905 -0.0085531 -0.0168404 -0.0283627 -5.39965e-07 -4.28809e-06 -9.6488e-06 
26.982 1 8 0.753941 3.70881 2.35311 -5.24296 8.72179 0.634229 0.31731 -0.151049 0.616191 0.240237 -1.32842 -1.39562 0.0211979 -0.164498 -0.190128 3.07898e-06 1.1069e-05 -3.18252e-05 
26.982 1 47 3.44565 5.45079 2.91427 -2.11173 3.64916 -3.6415 -0.238062 -0.519872 0.0524537 -0.0724844 -0.327943 -1.36727 -0.00252319 -0.0413828 -0.196921 -8.03075e-06 -3.91152e-06 -2.64164e-05 
26.982 1 206 3.15519 2.70147 3.90505 -4.8945 1.84296 1.1642 0.0874814 0.0658196 -0.194387 -0.0451197 -1.21521 -0.731455 0.00214415 -0.149721 -0.0898672 1.83422e-05 -3.46802e-05 -1.35393e-05 
26.982 1 118 40.5434 10.7798 0.893815 -2.09301 4.94556 0.25097 0.199506 -0.185255 0.147319 0.293514 -0.0292311 -1.16588 0.0367811 -0.00670666 -0.195557 8.29907e-06 1.3158e-06 -5.71868e-05 
26.982 1 205 0.521024 1.36516 4.40586 -7.29019 5.80357 -1.38953 -0.0504042 0.357457 -0.477553 0.0641247 -1.08404 -0.912375 0.00534699 -0.152742 -0.12675 3.72266e-07 -3.1314e-05 -3.30184e-05 
26.982 1 249 5.85616 5.49799 4.67903 3.58119 0.368455 4.44147 0.154282 -0.642115 -0.129508 -0.00939543 -0.133301 -0.163419 -0.000217259 -0.0197233 -0.0254308 6.13269e-06 -1.92583e-05 -6.80131e-06 
26.982 1 12 5.81039 3.32158 2.62849 0.656364 0.389389 -0.514732 -0.56809 0.581539 0.0452368 -0.235468 -1.54998 -1.22189 -0.0184022 -0.197083 -0.178459 9.63289e-06 -3.24716e-05 -2.33158e-05 
26.982 1 51 8.46714 4.25829 1.72946 -4.15583 5.59047 -2.69535 -0.248204 -0.228397 -0.571899 0.0106124 -0.12171 -1.14068 0.00088623 -0.0190539 -0.179741 -5.18792e-06 -2.54906e-05 -4.10338e-05 
26.982 1 210 9.38228 2.83358 4.16946 0.31075 -3.11894 -0.383941 -0.0534152 0.177405 -0.174104 0.0788392 -1.16177 -0.621049 0.00917989 -0.158406 -0.0862559 -1.81486e-05 -1.52017e-05 -2.53307e-05 
26.982 1 3029 29.643 20.1174 20.0916 1.4476 2.78496 1.6997 0.0028097 0.153674 0.269048 -0.832562 -0.216778 -1.29671 -0.102084 -0.0194756 -0.181156 -2.69129e-05 2.45507e-05 -2.25563e-05 
26.982 1 253 11.601 4.40221 4.03962 0.424373 1.71088 5.22439 0.100608 -0.243443 -0.319824 0.00785843 -0.156295 -0.166968 -0.00118653 -0.022189 -0.0259874 -6.29445e-06 -3.86564e-06 -1.57095e-05 
26.982 1 16 11.5268 2.52555 1.98005 2.11821 -1.03839 2.51444 -0.356383 0.496444 0.630486 0.201894 -1.56888 -1.18116 0.00536629 -0.203461 -0.159994 -1.1757e-05 -3.70751e-05 -3.86809e-05 
26.982 1 55 14.0339 5.39436 2.79192 -0.0757205 -0.579499 -2.92642 0.339701 -0.48529 0.247112 0.0306891 -0.297839 -1.40161 0.000935889 -0.0275034 -0.183254 1.41715e-05 2.02364e-06 -3.04897e-05 
26.982 1 214 13.9615 2.78781 4.37986 -2.57088 1.12955 -0.858982 -0.107916 -0.0601982 -0.42056 0.0593513 -1.27976 -0.653791 -0.000274322 -0.164736 -0.0829061 -4.34641e-07 -3.1468e-05 -2.14021e-05 
26.982 1 21 20.8342 0.918171 0.968081 0.24469 -0.434025 -0.134097 0.0452302 0.109732 0.12354 0.140041 -0.830602 -0.942132 0.0110717 -0.0887752 -0.125625 1.25805e-05 -3.18035e-05 -4.64975e-05 
26.982 1 811 9.11345 1.16595 18.1148 -0.038755 0.956606 -0.731136 0.171654 0.159451 0.311129 -0.206885 -0.565844 -0.814018 -0.0103079 -0.124546 -0.0784857 9.52026e-06 -5.37216e-05 5.50588e-07 
26.982 1 20 16.2494 2.96426 2.77826 6.08928 0.150183 0.916389 0.35177 -0.0341262 0.407579 -0.280896 -1.55589 -1.17641 -0.0106408 -0.193918 -0.159756 -7.34298e-06 -9.38755e-06 -9.93477e-06 
26.982 1 257 16.1387 4.90157 4.815 -8.18906 -0.360863 2.92898 0.317839 0.444619 -0.404301 -0.00474688 -0.164392 -0.177146 7.55875e-06 -0.0207606 -0.025628 4.25562e-06 6.18169e-06 -9.8372e-06 
26.982 1 218 18.3468 3.02071 4.69296 3.63756 -1.9988 -2.43546 0.290898 -0.392874 -0.259147 -0.0728746 -1.2293 -0.548491 -0.00520756 -0.160792 -0.082694 -5.29848e-06 -1.72735e-05 -4.22592e-06 
26.982 1 19 18.4005 0.934066 2.80833 0.0180929 6.68189 1.14135 0.312389 0.758431 0.849919 0.0382879 -1.20701 -1.0085 0.00377069 -0.132731 -0.157145 -8.89385e-06 -5.86951e-05 5.48222e-06 
26.982 1 2835 36.3076 20.1239 18.4995 -5.27418 -3.44562 2.62635 -0.519161 -0.40712 0.399374 -0.56931 -0.313445 -0.999133 -0.0802534 -0.0261985 -0.136501 -2.23518e-05 2.6251e-05 1.03065e-05 
26.982 1 17 16.4515 0.904126 0.958888 -1.57602 3.04887 2.0707 -0.298434 0.362392 0.0161794 -0.113634 -0.593306 -1.14545 -0.0101545 -0.0868343 -0.156352 -1.87263e-05 -4.15845e-05 -3.63198e-05 
26.982 1 59 18.3862 4.9618 2.78032 2.22627 4.42612 1.32998 0.22664 0.0605992 0.0130464 0.0605513 -0.0538689 -1.25555 0.0114953 -0.0132958 -0.192274 -6.49683e-07 1.9049e-05 -4.49786e-05 
26.982 1 24 20.6995 2.85219 2.83043 -2.01427 -2.57704 -1.16547 -0.0195823 -0.115163 -0.692973 0.110677 -1.29391 -1.10094 0.0026171 -0.167461 -0.17445 9.88193e-06 3.69259e-06 -3.59602e-05 
26.982 1 261 20.7996 4.62771 4.64416 -4.55497 1.95036 -2.56405 -0.231938 0.509134 0.855353 0.0105894 -0.13847 -0.194747 0.00091851 -0.018854 -0.0303826 -5.56308e-06 5.20728e-06 5.2538e-06 
26.982 1 154 36.3955 14.2344 0.929038 -3.0204 -0.517999 -3.89269 0.0925464 0.25157 -0.0428262 -0.0923139 -0.0761384 -1.21653 -0.00881631 -0.005874 -0.149085 -1.11339e-05 -8.66876e-06 -6.39679e-05 
26.982 1 63 22.7134 4.70629 2.7577 -5.11696 -2.19281 -0.0116818 0.770333 -0.136337 0.0771304 0.0521157 -0.0552415 -1.52926 0.00371235 -0.0118441 -0.219442 2.22026e-06 -5.37572e-06 -5.72969e-05 
26.982 1 222 23.2361 2.71824 4.79093 0.842465 1.16846 4.77675 -0.797009 0.0583126 -0.181815 -0.0291009 -1.13747 -0.598156 -0.000499184 -0.145938 -0.0781962 -1.79355e-07 -2.24879e-05 -9.10749e-06 
26.982 1 28 25.2051 2.84034 2.80799 2.0934 -2.06766 -5.05828 0.110625 -0.151814 0.120773 -0.0852733 -1.08692 -1.32196 -0.00112791 -0.151324 -0.18471 -1.11779e-05 -3.76596e-05 -2.55827e-05 
26.982 1 265 25.2661 4.71959 4.72109 0.357405 -2.43819 -1.25321 -0.472159 -0.181853 0.143546 -0.00110157 -0.125529 -0.222141 0.00036729 -0.0182992 -0.0320876 -6.95533e-06 -5.71668e-06 -1.45467e-06 
26.982 1 813 11.3036 1.32433 15.9055 7.15723 1.90146 -3.05919 -0.135268 -0.216225 0.0364708 0.00704077 -0.769299 -0.718265 0.000813605 -0.0911859 -0.0797272 3.8066e-06 -4.03288e-05 -4.39362e-06 
26.982 1 26 27.4834 2.64839 0.904324 7.07139 2.89442 -8.84654 0.0463027 0.345811 0.250349 -0.122777 -0.627371 -1.51522 -0.00877196 -0.0903602 -0.191579 1.04926e-05 -1.73321e-05 -6.12657e-05 
26.982 1 998 40.4277 18.0132 16.5692 -0.355861 -3.68333 3.53005 -0.0240558 0.91483 -0.276025 0.206146 0.243948 -0.414674 0.0190247 0.0435799 -0.0567447 4.45769e-06 1.20875e-05 -2.94421e-06 
26.982 1 2621 20.837 20.1498 12.5588 11.1892 -0.555967 -0.638751 -0.0909691 0.112433 -0.301676 -0.312739 -0.485372 -1.24399 -0.05927 -0.0525814 -0.15529 -1.95624e-05 2.86724e-05 -2.11189e-05 
26.982 1 67 27.455 4.66908 2.86474 1.88282 -0.892143 -0.842835 -0.0393918 -0.146125 -0.667949 0.0777358 -0.0052028 -1.78267 0.0108311 -0.00404398 -0.243849 1.16536e-05 7.9622e-06 -4.09519e-05 
26.982 1 226 27.5125 2.82744 4.81654 5.95867 4.11168 1.43282 0.0513638 0.256965 0.202051 0.0102619 -0.967862 -0.46158 -0.00181368 -0.142697 -0.0762275 5.39472e-06 -1.97074e-05 -3.19212e-06 
26.982 1 32 29.6412 2.80865 2.8628 1.62848 -2.73036 0.780305 0.115978 0.115852 0.142201 0.0215413 -0.953008 -1.4437 0.00367766 -0.133004 -0.205278 1.28848e-05 -3.42636e-05 -2.56483e-05 
26.982 1 269 29.7543 4.62625 4.97112 6.01552 -1.08416 -0.256444 0.00267974 0.141243 -0.03112 -0.00735959 -0.115244 -0.24546 -0.00078813 -0.0174874 -0.0362701 -4.74324e-07 -1.47328e-06 -1.49582e-06 
26.982 1 2007 4.24552 20.1172 3.30987 -0.124811 3.99979 8.86166 -0.292576 0.0236693 -0.0182009 -0.440213 0.120511 -2.13983 -0.0583462 0.00322315 -0.274648 -1.5627e-05 1.10807e-05 -2.15201e-05 
26.982 1 2839 40.4205 20.2354 18.4434 1.63772 -0.0536261 -3.02832 0.119078 -0.227666 -0.278856 0.0247501 -0.344393 -1.3066 -0.014625 -0.0360952 -0.164903 -1.02766e-05 4.04386e-05 -1.34257e-05 
26.982 1 809 7.06883 0.864948 16.3673 6.62334 -6.82712 -0.809081 -0.156364 0.124924 -0.327602 0.0397854 -1.31611 -1.04537 0.00316597 -0.176383 -0.128142 -1.10049e-05 -3.92508e-05 -3.20159e-05 
26.982 1 807 5.18753 0.94323 18.4376 -0.107876 -1.0782 4.44941 -0.00826435 -0.37479 0.296996 0.0901769 -1.01238 -0.682591 0.00629928 -0.163281 -0.0785701 -2.81001e-05 -5.72075e-05 3.17356e-06 
26.982 1 71 31.8674 4.54291 3.00565 0.274728 0.284798 0.821222 0.130374 0.706267 0.0586444 -0.163006 -0.0539828 -1.59439 -0.0192224 -0.0191378 -0.233854 -8.57525e-06 7.24474e-07 -1.5454e-05 
26.982 1 230 31.9946 2.68627 4.83465 3.24888 3.73964 -0.435694 -0.048457 0.059065 0.332842 -0.0735065 -0.991972 -0.523771 -0.00585749 -0.135851 -0.0775196 -3.22294e-06 -4.30587e-05 -1.70754e-05 
26.982 1 273 34.1355 4.54387 4.93268 -0.394853 2.59476 -1.72493 0.090495 0.257859 -0.374776 -0.00163534 -0.0964668 -0.1897 -0.000611317 -0.0159987 -0.0294212 3.20969e-06 -6.14562e-06 -1.04977e-05 
26.982 1 36 34.1742 2.7224 2.77664 -3.86554 -3.08543 4.7206 0.346815 -0.160663 0.610937 -0.115223 -1.08607 -1.36259 -0.0167127 -0.153513 -0.195438 1.79325e-05 -6.22399e-05 -1.60684e-05 
26.982 1 203 -1.4715 1.14721 6.4608 -2.89943 -1.30556 2.64762 0.134257 0.242203 0.00674275 -0.977795 -1.09531 -0.707477 -0.112752 -0.140822 -0.0948473 -3.48648e-05 -4.93145e-05 -3.77108e-06 
26.982 1 999 40.5912 16.1568 18.3495 -4.31991 -3.46581 1.07347 -0.11531 -0.566086 0.342688 0.382215 -0.0650848 -0.305486 0.0392388 -0.00979784 -0.0284449 -9.64583e-06 -1.27983e-05 1.73602e-05 
26.982 1 75 36.4144 4.60994 2.73696 1.09781 0.908706 2.67277 -0.30168 0.0341585 0.578519 0.124323 -0.0383912 -1.55554 -2.68905e-06 -0.00531769 -0.208612 1.3955e-05 -2.49848e-05 -3.26884e-05 
26.982 1 234 36.3091 2.86405 4.91309 -3.26538 -3.39678 -1.46099 -0.103369 -0.313054 -0.342441 0.00778364 -0.804879 -0.408373 -0.00403609 -0.120393 -0.0666759 -1.03292e-06 -4.2353e-05 -2.46861e-05 
26.982 1 40 38.5737 2.51752 2.80212 -2.5572 -3.24111 3.49382 -0.338635 0.439653 0.484135 0.321287 -1.10801 -1.59631 0.0250137 -0.16569 -0.202566 -2.0281e-05 -4.80842e-05 -2.75164e-05 
26.982 1 277 38.4402 4.46286 4.76554 0.150391 -1.10999 -0.593545 -0.222725 0.809304 -0.0723154 0.0119841 -0.10022 -0.223165 0.000882233 -0.0146305 -0.0286061 -4.85483e-06 4.6061e-06 -8.85031e-06 
26.982 1 23 23.0691 0.864959 2.85455 0.782325 -0.556549 -2.01214 -0.355712 0.0446281 -0.465525 0.0135325 -0.994838 -1.31081 -0.00188391 -0.152792 -0.179052 2.11776e-05 -4.70264e-05 -2.52359e-05 
26.982 1 41 42.7938 4.84501 0.914192 -1.60156 4.28105 -1.90296 -0.0989935 0.220004 0.373857 -0.522443 -0.538502 -1.14458 -0.0706962 -0.0602402 -0.158066 6.0075e-06 -3.10072e-06 -5.52927e-05 
26.982 1 4 42.9315 2.88403 3.1096 -5.54356 -2.02814 -1.68079 -0.175287 0.192993 -0.0895575 -1.00925 -1.00786 -1.16754 -0.131922 -0.131199 -0.149213 9.81157e-07 -3.73128e-05 -2.54016e-05 
26.982 1 241 42.6352 5.1723 4.84036 -0.471037 -0.524746 -1.61829 0.336744 -0.354157 -0.240791 -0.694425 -0.68548 -0.7875 -0.0757772 -0.0752878 -0.0904905 1.63971e-05 -1.67084e-05 -6.85197e-06 
26.982 1 79 40.5409 4.72502 2.95781 -1.12445 1.17007 3.76901 0.173207 -0.0970627 -0.35645 -0.0642103 -0.174658 -1.68242 0.00167411 -0.0121689 -0.217821 -4.13174e-06 -8.242e-06 -2.47641e-05 
26.982 1 238 40.5348 2.65641 4.93454 -2.81695 0.101315 1.84908 0.508239 -0.260079 0.0949523 0.0173621 -1.05638 -0.660902 0.00635267 -0.142049 -0.0866516 1.77496e-06 -3.65682e-05 -1.47464e-05 
26.982 1 213 11.4619 1.16438 4.60307 -2.94369 4.97175 -2.3988 0.2852 -0.226503 -0.203542 -0.000116171 -0.976252 -0.958837 -0.000330667 -0.113721 -0.110172 5.74642e-06 -3.06304e-05 -3.699e-05 
26.982 1 83 -1.5954 8.40868 3.16398 -2.1258 -2.8314 2.33291 0.0298832 0.146053 0.185841 -1.02053 -0.381025 -1.39374 -0.122105 -0.0569398 -0.199825 -1.37047e-05 -1.2366e-05 -3.52879e-05 
26.982 1 242 -1.65022 6.02679 5.50282 -4.32234 6.94086 -4.52149 0.0885519 -0.0854319 0.0143051 -1.0513 -0.0407645 -0.586546 -0.133968 -0.0101101 -0.0753656 -4.65275e-05 6.99899e-06 -2.11557e-06 
26.982 1 281 43.0339 7.96674 5.42189 -3.00013 7.06623 4.21659 0.295649 0.198598 -0.24617 -0.722 -0.683807 -0.8071 -0.0934271 -0.0873945 -0.106378 2.28559e-05 1.45692e-05 -1.62776e-05 
26.982 1 282 -1.72915 10.537 5.09373 -6.04449 -0.00337915 1.74128 0.132752 -0.352971 0.0719103 -0.905291 -0.00155181 -0.426709 -0.110168 -0.00321147 -0.0580174 -1.30414e-05 -1.44e-06 -1.61979e-05 
26.982 1 2817 16.4977 19.7694 16.635 5.21388 -5.27024 -1.16478 0.0468551 0.278633 -0.882078 -0.369753 0.507542 -1.02757 -0.0527453 0.0584692 -0.143316 -1.34921e-05 1.01449e-05 -3.15348e-05 
26.982 1 48 0.770627 6.75466 3.55444 -5.5146 -3.10568 9.38527 0.00755998 -0.0765389 -0.381142 -0.23528 -0.0835801 -1.32107 -0.0295125 -0.00636121 -0.190971 -5.70061e-06 9.44735e-07 -3.70417e-05 
26.982 1 285 1.14251 8.89063 5.23297 -3.86781 1.91495 -4.2522 -0.23163 0.463023 0.374418 -0.0930704 -0.00925849 -0.152408 -0.009981 -0.00156631 -0.0239283 -1.38878e-05 6.35827e-06 -2.75459e-06 
26.982 1 87 3.41101 8.1514 2.16898 7.22653 2.25671 -1.20837 0.274696 -0.193124 -0.13514 -0.0137008 -0.0140242 -1.18652 -0.00646979 0.000286314 -0.177475 -4.5917e-06 -4.88164e-06 -4.76489e-05 
26.982 1 246 3.37187 6.91888 5.24392 -2.46122 2.92714 -3.71879 -0.514845 0.0962384 -0.00517156 -0.00281478 -0.00763359 -0.135615 -0.000559509 -0.00137096 -0.0212139 -6.76509e-06 -9.73114e-07 -5.37301e-06 
26.982 1 88 1.22519 9.73498 2.48883 -6.07124 1.70226 -6.90291 -0.305004 -0.0196542 -0.298296 -0.239887 -0.0573451 -1.23374 -0.0202009 -0.00692492 -0.181144 -1.2454e-05 -8.15768e-06 -4.93751e-05 
26.982 1 286 3.76875 9.75344 4.40749 -5.13464 1.7719 -0.0685803 0.0606575 0.119075 0.00369138 -0.00305039 0.0030267 -0.121581 -0.000833728 0.000167931 -0.0211473 1.18742e-06 4.07028e-06 -9.33194e-06 
26.982 1 289 6.04836 8.08382 4.0092 4.54708 1.88191 1.61637 0.27919 0.237523 -0.590612 0.0069896 0.00129635 -0.137171 0.000359884 9.64588e-05 -0.020362 3.89288e-06 3.14892e-06 -2.12625e-05 
26.982 1 52 5.87966 6.31226 1.69252 -1.2956 1.15839 -0.650303 0.232991 -0.0839806 0.667251 0.0158646 -0.00916319 -1.19158 0.00204553 -0.00954293 -0.179809 1.26733e-06 -8.42886e-06 -4.61048e-05 
26.982 1 91 9.27318 8.77388 3.18435 4.70823 -3.74879 -4.10467 0.477509 0.0233979 -0.0274917 0.126983 0.0823195 -1.42253 0.010868 0.00175317 -0.190234 1.03302e-05 -1.58345e-06 -1.42343e-05 
26.982 1 250 8.78724 6.07451 3.79878 0.793423 -0.998787 3.45133 0.0851407 -0.478922 -0.0768878 0.00769857 0.0017294 -0.135898 0.000826129 -0.00151116 -0.0223737 -6.26509e-06 -1.43527e-05 -9.50219e-06 
26.982 1 290 9.14159 10.7847 5.1355 6.47493 -2.33516 -1.96344 0.630331 -0.0789516 0.485984 0.0110484 0.002969 -0.167803 0.000416809 2.63362e-05 -0.0224082 7.43024e-06 -2.42493e-06 4.22918e-06 
26.982 1 50 9.69521 6.79411 1.23889 2.00653 0.592496 0.661296 0.0276588 0.206101 -0.104548 0.071699 0.00820788 -1.78286 0.00203445 -0.003498 -0.203458 1.03405e-06 3.57453e-06 -5.60949e-05 
26.982 1 89 7.39061 8.68804 1.22016 -3.22693 -5.17274 7.29998 0.144449 0.355535 0.188056 0.0744341 0.05561 -1.80195 0.010157 -0.00233604 -0.238267 -1.09233e-05 -3.95444e-06 -5.23204e-05 
26.982 1 293 11.4798 8.98317 5.06214 -1.09004 2.72228 0.286581 -0.112857 -0.152688 -0.287349 0.00246117 0.012127 -0.177332 -5.1244e-05 0.00076702 -0.0234518 -6.2006e-06 -3.00057e-06 -1.00137e-05 
26.982 1 56 11.812 6.94453 3.03682 0.738068 1.7152 -3.68663 -0.247988 0.578124 0.0838984 0.0415781 0.135056 -1.36701 -0.00180816 0.00589198 -0.190108 -2.62904e-06 1.73632e-05 -2.15107e-05 
26.982 1 95 13.8811 8.9845 2.52822 5.50363 -0.796943 0.356477 -0.0895279 0.0100865 -0.165556 -0.0276105 0.109918 -1.57424 0.00251491 0.014089 -0.208737 4.0847e-07 -4.52076e-06 -6.00984e-05 
26.982 1 254 13.9869 7.44019 4.93395 1.74928 -0.631992 -1.2202 -0.626781 -0.33343 -0.767361 0.00268303 0.000380666 -0.1588 0.000219639 1.25824e-05 -0.0226521 -8.78764e-06 -4.62665e-06 -1.12478e-05 
26.982 1 635 36.4357 1.41876 15.0947 -1.07599 1.01293 6.71961 -0.0840852 -0.416467 -0.0170009 0.290241 -0.786239 -0.996116 0.0294048 -0.094476 -0.125603 -6.54366e-06 -5.5596e-05 1.03111e-05 
26.982 1 294 13.7791 10.8475 4.58437 -2.09573 0.54827 0.0248005 -0.102697 -0.156225 -0.108532 0.0015465 0.00805933 -0.194511 0.000127941 0.00018762 -0.0261029 5.36291e-07 -1.64699e-06 -1.04851e-05 
26.982 1 633 34.1312 1.21806 12.8132 0.348812 5.92242 -1.83853 0.165132 -0.445758 0.296358 0.0384031 -1.13701 -0.908271 0.00368626 -0.137901 -0.115202 1.99107e-05 -3.49017e-05 -1.75992e-05 
26.982 1 60 16.3012 6.93211 2.94727 1.47912 3.71164 -4.86872 0.193818 0.339372 0.00117776 -0.0117724 0.0749639 -1.39828 0.00333862 0.00863768 -0.197586 6.6427e-06 7.38125e-06 -5.22747e-05 
26.982 1 297 16.0354 9.3142 4.29301 3.40903 2.07164 -5.92927 0.204612 -0.057128 -0.170758 0.00246785 0.012456 -0.186109 0.000775401 0.00148965 -0.0270279 5.51114e-06 -2.94868e-06 -1.65519e-05 
26.982 1 99 18.7464 8.80266 3.11006 1.02617 0.114879 1.65773 -0.849131 -0.382161 -0.511699 -0.0844156 0.124164 -1.4658 -0.0125196 0.0118444 -0.20599 -1.79309e-05 -1.38811e-05 -4.32674e-05 
26.982 1 100 15.891 11.3885 2.05412 3.96863 -0.691378 -3.62334 -0.201395 -0.150259 -0.0642806 0.0154474 0.0464592 -1.6705 0.00338706 -0.000996388 -0.223403 -1.1838e-05 -1.25908e-05 -5.13294e-05 
26.982 1 258 18.717 6.75291 4.91101 5.25044 -2.00605 -1.81386 -0.444515 -0.381941 0.210452 0.00298424 0.003385 -0.158009 0.000411071 0.000209818 -0.0238714 -1.09466e-05 -3.73466e-06 -2.39463e-06 
26.982 1 64 20.7222 6.75813 2.78107 3.25428 5.6472 1.07699 -0.164309 0.0659019 0.254639 0.0856243 -0.104258 -1.43123 0.00670477 -0.0219643 -0.205881 -4.31529e-06 1.36657e-06 -5.97834e-05 
26.982 1 301 20.7332 8.74662 4.9136 -4.85341 -3.66035 0.562387 0.119802 -0.840735 -0.0594398 0.000666521 0.00592965 -0.165151 -0.00107405 0.000583445 -0.0228237 -3.42909e-06 -7.74032e-06 -1.139e-06 
26.982 1 104 20.7971 10.4696 2.9197 1.27105 4.20724 -1.37885 -0.0345943 0.269822 -0.887422 0.00592783 0.135724 -1.58925 -0.0090271 0.0124018 -0.201409 2.67326e-06 -5.30189e-06 -4.68859e-05 
26.982 1 103 22.9551 8.6016 2.77188 -0.289582 -2.58402 -0.477482 -0.232497 0.159642 -0.191836 0.0606762 0.0340889 -1.52929 0.00719003 -0.00796121 -0.197869 -1.79059e-05 2.56944e-08 -5.19641e-05 
26.982 1 262 23.0057 6.6205 4.63541 -1.22791 1.55643 3.51711 -0.361101 -0.134674 0.312184 0.00397578 -0.010103 -0.187083 0.000187574 -0.00257244 -0.0270474 -8.38377e-06 -3.08533e-06 -1.96781e-06 
26.982 1 305 25.1955 8.67404 4.65601 4.33328 2.35073 3.86005 -0.207553 0.0347542 -0.0448567 0.00460852 -0.00106479 -0.187081 0.00158925 -0.000802028 -0.0261542 -2.13016e-06 2.00722e-06 -1.78196e-06 
26.982 1 68 24.9222 6.62003 2.74559 -5.16389 -3.44175 -2.79366 0.495789 -0.293511 -0.148357 0.0743884 -0.0976095 -1.67617 0.00869841 -0.0181354 -0.229536 -5.16195e-07 -7.16355e-06 -3.61879e-05 
26.982 1 302 22.8487 10.6032 4.69591 -0.785877 1.85647 3.41628 0.15111 0.0646986 0.0591504 -0.00273932 0.00199707 -0.192389 -0.00106678 0.000714154 -0.0231821 1.5146e-06 2.93884e-06 -2.75714e-06 
26.982 1 2433 34.0387 20.207 8.62184 2.74155 -0.48955 -2.31816 -0.506848 -0.328108 0.261072 -0.518155 0.0414299 -1.05932 -0.0676249 -0.00396246 -0.144764 -2.0938e-05 2.05471e-05 -1.4955e-05 
26.982 1 107 27.3507 8.32965 2.82351 -7.71551 0.492114 3.00488 -0.00494893 0.32763 -0.466544 0.17743 -0.145767 -1.73104 0.0182352 -0.00958014 -0.236794 1.47393e-07 -1.27099e-05 -3.62251e-05 
26.982 1 266 27.1754 6.51463 4.62577 4.39533 5.64429 -2.55526 0.531561 0.361161 0.933224 0.00394848 -0.000789562 -0.224083 0.000264232 -0.000953356 -0.0309622 1.03781e-05 8.88435e-08 7.17863e-06 
26.982 1 72 29.5609 6.51392 2.7147 -0.546708 -3.88832 7.12554 0.179762 0.0727752 0.431468 -0.0762114 0.0141019 -1.93733 -0.00806605 -0.00974673 -0.260708 -7.24659e-06 -1.76847e-05 -3.54011e-05 
26.982 1 309 29.4966 8.39923 4.67233 -0.739345 2.63493 0.0300431 0.326076 0.394697 -0.183286 -0.0058311 -0.00656637 -0.228357 -0.000824757 -0.000605284 -0.0307562 5.18759e-06 5.61029e-08 -4.86081e-06 
26.982 1 112 29.4293 10.6513 2.86143 0.76807 4.70168 7.76983 0.765944 -0.191163 -0.348298 -0.110503 -0.188158 -1.51193 -0.0140898 -0.0144944 -0.217819 1.29198e-05 1.69718e-05 -3.09935e-05 
26.982 1 27 27.4676 0.922373 3.03606 -0.264742 2.35993 -5.55255 -0.0280329 -0.683583 -0.511383 -0.0322845 -1.60899 -1.13405 -0.0125344 -0.16541 -0.162028 1.80702e-07 -6.5758e-05 -1.45891e-05 
26.982 1 2435 36.1936 20.2139 10.5889 -5.45042 3.21794 4.66747 -0.608428 -0.238039 -0.122848 -0.390364 0.0617605 -1.27048 -0.0545694 -0.0124442 -0.166148 -1.05364e-05 2.50084e-05 -3.55602e-05 
26.982 1 157 38.4394 12.4528 1.09259 1.25867 -1.31274 2.0783 0.0546464 0.279376 -0.446099 0.0338397 0.0671775 -1.26592 0.0014498 0.0102284 -0.16977 -3.79314e-07 -1.59035e-06 -6.44621e-05 
26.982 1 111 31.5643 8.61241 2.84053 -3.66112 -1.95331 2.85276 0.631023 -0.262336 -0.220782 -0.141981 -0.193618 -1.58355 -0.0151593 -0.0173735 -0.215165 1.12265e-05 -3.59081e-06 -1.66105e-05 
26.982 1 270 31.8902 6.5708 4.83772 -0.769342 2.94605 6.47733 -0.290999 -0.0160348 -0.153482 -0.00846132 0.00257769 -0.206702 -0.000958241 -0.000252714 -0.0290775 -7.29316e-06 -1.42207e-06 -6.26949e-06 
26.982 1 76 34.1016 6.54056 3.01891 -6.11603 -3.78984 2.92429 -0.379011 -0.367528 -0.442668 -0.00565961 0.0351432 -1.55517 -0.000253874 -0.00482965 -0.21801 -8.31798e-06 -4.72823e-06 -1.49377e-05 
26.982 1 313 33.9205 8.46268 4.73069 -7.5443 -1.82613 -3.02265 -0.143253 0.595611 0.164531 -0.00385084 -0.00299075 -0.173996 -0.000317918 -0.000556814 -0.0245686 -5.3568e-06 8.10047e-06 -2.46733e-06 
26.982 1 116 33.9836 10.6566 2.94495 2.16495 0.934161 0.655141 0.0914867 -0.762961 -0.238007 0.0924159 0.0464375 -1.4288 0.00434605 -0.00119032 -0.189094 9.39975e-06 -3.14848e-07 -3.94541e-05 
26.982 1 115 36.1258 8.64068 2.97622 -0.296791 -1.48155 -5.61585 0.239979 0.285154 -0.30302 -0.206147 -0.0726035 -1.33989 -0.0178639 -0.0139949 -0.188557 1.48396e-05 1.86192e-05 -3.52008e-05 
26.982 1 274 36.2024 6.67553 4.75945 -3.74629 -4.47158 -5.1279 0.398605 -0.673136 0.110924 0.00225455 -0.0102334 -0.176235 -8.0256e-05 -0.00114693 -0.0258936 1.06905e-05 -1.12541e-05 -1.94777e-06 
26.982 1 80 38.3095 6.7123 2.67437 -7.25564 2.98922 6.15936 0.163417 -0.0795069 0.818623 0.0315193 -0.327684 -1.42462 0.00580154 -0.0235758 -0.195431 2.62579e-06 -1.91658e-07 -2.72489e-05 
26.982 1 317 38.3356 8.7502 4.90245 -2.40715 1.23856 -3.85848 0.173373 -0.505461 -0.443459 0.00528281 -0.00697712 -0.126002 0.000308882 -0.000762166 -0.0194143 4.23572e-06 -7.91528e-06 -9.38478e-06 
26.982 1 120 38.2459 10.5775 2.90362 -0.0311028 -3.42027 4.73926 0.462741 -0.538652 0.0651062 0.130304 0.246277 -1.37129 0.00833939 0.0221218 -0.183967 -1.19241e-06 -1.57115e-05 -3.47857e-05 
26.982 1 2819 18.4836 20.1555 18.4942 -1.73026 0.182144 2.41912 0.602931 0.0392129 -0.330614 -0.695613 -0.178737 -1.17314 -0.0858765 -0.00842909 -0.146443 -1.48528e-05 3.85796e-05 -2.06063e-05 
26.982 1 14 14.3028 2.98243 1.0453 5.7723 3.58839 0.816778 -0.101076 0.348505 -0.521137 0.073078 -0.949446 -1.27881 0.00227057 -0.121147 -0.199158 -7.4927e-06 -1.06263e-05 -4.68719e-05 
26.982 1 44 42.8683 6.94824 2.76463 -3.93823 -1.40264 3.01422 -0.374197 -0.0089373 0.665895 -0.304228 -0.917998 -1.39369 -0.0511978 -0.102703 -0.187509 1.7392e-05 -1.12552e-06 -1.66951e-05 
26.982 1 119 40.473 8.73319 2.80707 -0.0383782 -2.17113 0.25809 -0.267461 0.189785 0.239233 0.272945 -0.00375447 -1.46176 0.0291253 -0.0162165 -0.200717 -1.1963e-05 6.47724e-06 -1.33223e-05 
26.982 1 278 40.5679 6.84006 4.7032 -0.814273 -0.915731 0.0970134 -0.624177 -0.160896 -0.302673 0.352949 -0.344582 -0.220039 0.0406456 -0.0384341 -0.0311607 -6.62342e-06 2.81085e-06 -4.03409e-06 
26.982 1 84 42.8293 10.1784 3.34919 0.924553 2.04891 -0.196916 0.406808 0.199125 -0.155847 -1.20174 -0.393574 -1.62682 -0.141487 -0.0610206 -0.208106 2.60131e-05 -6.79982e-07 -2.03723e-05 
26.982 1 2633 33.8885 20.2378 12.4627 -5.39646 0.510429 -2.84272 0.0393893 -0.618481 0.0116644 -0.665376 -0.126295 -1.24494 -0.076958 -0.0302482 -0.152557 -2.90067e-06 1.13018e-05 -1.96948e-05 
26.982 1 123 -1.22482 11.3274 2.45327 4.57354 -3.43548 2.75534 0.137337 0.246228 0.18033 -1.01507 -0.267127 -1.39206 -0.115725 -0.0295523 -0.195248 -1.46166e-05 -1.27616e-05 -3.87177e-05 
26.982 1 322 -0.671987 13.4719 4.37549 0.972496 -5.01843 2.07093 -0.234466 -0.438664 -0.362687 -0.640382 -0.228149 -0.351891 -0.0837527 -0.0212485 -0.0505955 -1.30436e-05 -1.38447e-05 -9.80319e-06 
26.982 1 124 -3.19698 13.2976 2.16812 1.9659 -1.68395 1.26409 -0.105584 0.273931 -0.134261 -1.49805 -0.55714 -1.39097 -0.169791 -0.0741352 -0.185122 -2.74364e-05 -1.69428e-05 -2.66351e-05 
26.982 1 122 -0.403209 14.1509 1.54234 1.06921 -2.11588 1.12194 -0.15575 -0.0984873 -0.196709 -1.06163 -0.00741811 -1.45964 -0.127061 0.00685062 -0.181384 -1.00087e-05 -2.28269e-06 -5.19544e-05 
26.982 1 325 1.60125 11.7372 4.12932 5.07099 3.25892 3.24626 -0.00217555 0.0738624 0.72702 -0.0855981 -0.00881497 -0.136888 -0.0086798 -0.000952513 -0.0218888 -8.22178e-06 -3.55409e-06 9.27543e-07 
26.982 1 128 2.35717 14.3971 3.75284 2.4526 -3.1121 -0.0808766 -0.00772399 0.211828 0.175151 -0.182421 0.129712 -1.25768 -0.0233781 0.0113446 -0.177211 -3.48971e-06 4.02278e-06 -6.5127e-07 
26.982 1 127 4.68402 12.5025 3.43909 2.8498 4.514 0.698868 0.102677 -0.116026 0.240556 0.0180665 -0.0152694 -1.07671 -0.000930346 -0.00667918 -0.158904 -5.91782e-07 -7.57077e-06 -5.31281e-06 
26.982 1 326 4.71255 14.6359 5.24283 4.99698 3.00755 -0.463692 0.378829 0.274195 0.351562 -0.0029809 -0.00040168 -0.115675 -0.00107833 -0.000487677 -0.0172582 2.00554e-06 3.54182e-06 6.23728e-06 
26.982 1 125 2.58955 12.5581 1.65501 4.65268 -1.30705 -4.25513 -0.0906083 -0.282461 -0.382363 -0.22859 -0.137761 -2.04969 -0.023497 -0.0122993 -0.243727 -1.82809e-05 -1.51585e-05 -5.60126e-05 
26.982 1 86 5.04981 10.6321 1.49996 0.846449 3.36321 4.60777 0.280916 -0.201915 0.0580641 -0.0270702 -0.0555518 -1.90378 -0.00847188 -0.00577832 -0.219999 -1.29961e-05 -1.22661e-05 -4.84677e-05 
26.982 1 92 7.28158 10.7437 3.32807 1.85225 0.597867 -0.860395 -0.604783 -0.344946 -0.844832 0.111279 -0.0199459 -1.23127 0.00621882 -0.00107082 -0.168233 -1.37047e-05 -8.17995e-06 -1.71215e-05 
26.982 1 329 6.93698 12.6931 5.10817 8.67554 3.79205 -2.22933 0.224121 0.415423 0.655492 0.00225536 -0.00127543 -0.130113 -0.000632738 4.39555e-06 -0.0191647 -1.49894e-06 6.99142e-06 1.00032e-05 
26.982 1 132 6.91485 14.5082 3.04863 -1.77261 -2.95244 2.51253 0.13809 0.176188 0.089465 0.107435 -0.0147707 -1.17037 0.013128 -0.00543401 -0.159914 2.99511e-06 9.83281e-07 -5.23413e-06 
26.982 1 131 9.31921 12.7607 3.07838 0.765952 1.31629 -0.83199 -0.161795 -0.00922707 -0.391171 0.111944 -0.0119577 -1.40202 0.00801033 0.00228117 -0.187663 7.01081e-06 1.91633e-06 -2.13005e-05 
26.982 1 330 9.40427 14.6632 5.00793 0.459584 -3.37408 1.96174 -0.483922 0.233251 -0.0948399 0.00723928 0.000773188 -0.15601 6.82137e-05 -0.000359587 -0.0218643 -9.12662e-06 2.32246e-06 -1.80741e-06 
26.982 1 129 7.29818 12.5536 1.10261 -1.5021 -0.612386 -4.22351 -0.468806 0.2948 -0.0481271 0.116819 0.0614837 -1.92737 0.0108382 0.00570853 -0.245474 -8.53954e-06 -9.57595e-07 -5.76224e-05 
26.982 1 2803 -2.17272 20.0441 18.1463 -0.947399 1.04301 -2.31453 -0.225277 0.213773 -0.266326 -1.20192 -0.748514 -0.948714 -0.156077 -0.0907012 -0.135699 -4.19333e-05 2.11985e-05 -2.71954e-05 
26.982 1 613 11.3633 1.16799 12.5297 0.900855 3.19447 0.152443 -0.192788 -0.418077 -0.486641 -0.107936 -1.29698 -1.05424 -0.00888914 -0.162111 -0.127279 -1.23364e-05 -3.32786e-05 -2.90238e-05 
26.982 1 96 11.582 10.7342 2.67931 -0.252566 1.79635 -2.31978 0.321452 -0.0113825 0.312922 0.0531481 -0.0433678 -1.58783 0.00730114 -0.00627511 -0.201423 1.07151e-05 -6.97489e-06 -3.9264e-05 
26.982 1 333 11.5621 12.6246 4.62744 2.3602 3.52813 -0.920912 -0.0580987 0.312263 0.335137 0.00422596 -0.00600977 -0.174672 -8.46502e-05 -0.0011284 -0.0226743 -1.40027e-06 2.3068e-06 -1.94664e-06 
26.982 1 136 11.2504 14.8853 2.8284 -0.0719027 4.64811 -1.30045 -0.115566 0.248995 -0.179077 -0.0460205 0.00236418 -1.44739 -0.00664804 0.00471811 -0.19205 1.12345e-05 -4.128e-06 -3.97697e-05 
26.982 1 135 13.5448 12.9822 2.61442 0.544964 -1.62845 -1.748 -0.0234282 -0.122279 -0.305257 0.0576342 -0.137387 -1.53778 0.00695097 -0.0168991 -0.201258 -6.08516e-06 -1.11407e-06 -5.50929e-05 
26.982 1 334 13.5656 15.1321 4.35015 2.36385 2.83044 1.29544 0.271079 -0.545123 0.392487 0.00188104 -0.00416231 -0.16201 0.000716474 -2.34686e-05 -0.0232291 5.95866e-06 -9.08641e-06 -2.94241e-06 
26.982 1 140 15.6071 14.9723 2.25838 0.991443 3.68673 2.85183 0.238468 0.0696861 0.380072 0.135256 -0.145159 -1.48387 0.011193 -0.00603804 -0.200279 -5.18196e-06 1.24591e-05 -5.37272e-05 
26.982 1 337 15.8529 12.9639 4.38422 3.52034 -0.0854748 3.91658 -0.182946 -0.0187141 0.0738049 0.00348817 -0.00272662 -0.199078 0.000549773 -0.000622224 -0.0260639 -2.69421e-06 3.27075e-06 -3.88527e-06 