ITEM: TIMESTEP
7000
ITEM: NUMBER OF ATOMS
4000
ITEM: BOX BOUNDS pp pp pp
-1.49689 41.9969
0.394211 40.1058
0.404524 40.0955
ITEM: ATOMS mass type id x y z vx vy vz fx fy fz xrad yrad zrad vxrad vyrad vzrad fxrad fyrad fzrad 
26.982 1 43 0.716778 4.33862 2.23807 -2.62727 0.931286 -5.54206 -0.152946 -0.259243 0.479232 -0.181264 -0.130767 -0.278656 -0.05512 -0.0361782 -0.0790362 -1.85178e-05 7.87367e-06 -3.34995e-05 
26.982 1 202 0.531806 2.36224 4.45066 -2.90286 -6.68944 3.15807 0.0567472 0.206505 -0.498699 -0.170327 -0.184167 -0.15393 -0.0509837 -0.0394914 -0.0445695 -3.74632e-06 -1.53411e-05 -2.80809e-05 
26.982 1 201 -1.66561 0.42987 4.45585 2.46918 4.36167 -1.49566 0.338613 -0.410562 -0.4535 -0.0897007 -0.189877 -0.213646 -0.0331149 -0.0545689 -0.0756315 -1.68355e-05 -3.32125e-05 -5.5395e-05 
26.982 1 241 -1.53899 4.42673 4.32302 1.32843 4.30752 2.20495 0.255552 -0.760538 0.555772 -0.185996 -0.193799 -0.206134 -0.0455244 -0.04443 -0.0503346 -2.35185e-05 -2.33847e-05 -1.52911e-05 
26.982 1 4 -1.42066 2.35672 2.35782 0.838442 5.10185 -2.27885 -0.32818 0.00119001 0.00328461 -0.174254 -0.234263 -0.254353 -0.0486992 -0.0608739 -0.0752841 -4.03691e-05 -1.84891e-05 -3.67744e-05 
26.982 1 2 0.597561 2.23843 0.292376 -2.26631 -2.41966 0.0162715 -0.0190682 0.186468 0.057717 -0.129487 -0.162366 -0.318018 -0.0344478 -0.0532884 -0.0921797 -1.16733e-05 -2.64353e-05 -4.38802e-05 
26.982 1 45 2.83074 4.22459 0.378656 -3.85529 3.11484 -1.61352 0.0774241 0.154325 0.13327 -0.0220582 -0.0649262 -0.267576 -0.0010781 -0.0162818 -0.0814683 1.09771e-05 5.75365e-06 -6.0193e-05 
26.982 1 8 2.73501 2.23707 2.37541 0.862271 2.30826 6.21723 0.256994 0.660188 -0.235917 0.0731169 -0.283774 -0.252512 0.018909 -0.0768443 -0.0854179 1.07061e-05 -3.98555e-05 -3.92897e-05 
26.982 1 245 2.7282 4.23097 4.29659 0.129451 0.597104 -4.75062 -0.238423 0.298622 -0.0250842 -0.0125464 -0.0352615 -0.0378755 -0.00372257 -0.00797165 -0.0114659 -5.85293e-06 1.73023e-06 -6.51706e-06 
26.982 1 205 2.85823 0.409088 4.27496 -0.271075 1.04752 2.26196 0.0627214 -0.273718 0.4346 0.0174083 -0.131332 -0.117438 0.00931646 -0.0644664 -0.0535123 3.02414e-06 -4.8061e-05 -4.33256e-05 
26.982 1 47 4.97154 4.40259 2.2924 1.05326 -0.391213 3.90109 -0.141426 -0.646216 -0.0644794 -0.0326002 -0.0878281 -0.22891 -0.00836353 -0.0196673 -0.0750035 -3.74709e-06 -1.26297e-05 -4.24992e-05 
26.982 1 206 4.85956 2.48319 4.40156 1.36197 -1.56146 -2.99138 0.403474 -0.6967 -0.386525 -0.0284973 -0.293267 -0.159193 -0.00111734 -0.0748617 -0.0451899 1.07727e-05 -3.36107e-05 -2.33847e-05 
26.982 1 12 7.22747 2.3209 2.21243 -1.18672 4.91803 -1.70032 -0.467333 -0.0843851 0.0674145 -0.0536216 -0.362194 -0.202373 -0.020033 -0.0928391 -0.0616327 -3.82178e-05 -2.16141e-05 -1.87056e-05 
26.982 1 9 7.19854 0.286418 0.224786 -0.268484 -3.00924 6.13208 0.210459 0.332717 -0.176431 -0.0257301 -0.153995 -0.241985 -0.0174225 -0.0462504 -0.083856 -2.45245e-05 -3.39108e-05 -3.06248e-05 
26.982 1 249 7.08087 4.21484 4.21031 1.2045 5.26684 3.90754 0.289232 0.112713 -0.0832938 -0.00233029 -0.0298691 -0.0252389 -0.000861788 -0.00771732 -0.00786406 4.05438e-06 1.35079e-06 -5.87337e-06 
26.982 1 209 7.13911 0.449625 4.29833 1.46168 7.32955 -0.492935 -0.159627 0.0892511 0.244431 -0.0141236 -0.241121 -0.234382 -0.00665636 -0.0687941 -0.0588912 -1.72249e-05 -4.09231e-05 -2.77567e-05 
26.982 1 49 7.18258 4.33074 0.253843 -0.875779 2.21625 0.50625 -0.0524957 -0.216771 0.17545 -0.0166573 -0.0523487 -0.406863 -0.0108936 -0.0120048 -0.117614 -1.28064e-05 1.0383e-05 -6.14566e-05 
26.982 1 51 9.33599 4.06046 2.36521 -0.847634 -4.75559 -6.71228 -0.0404755 0.844529 -0.432325 0.000974085 -0.031676 -0.181788 0.00421099 -0.00985787 -0.0584958 -2.19442e-06 2.47126e-05 -2.36406e-05 
26.982 1 210 9.28511 2.29446 4.23875 -4.25076 -1.88642 -0.883336 0.171218 -0.204352 0.706815 -0.000614439 -0.242171 -0.132093 0.00281309 -0.0642687 -0.0311234 1.15589e-05 -1.82026e-05 9.01075e-06 
26.982 1 11 9.37944 0.400759 2.24103 0.680468 3.57072 2.65677 -0.314617 -0.454942 0.193366 0.0180863 -0.0961175 -0.215795 0.0138454 -0.0601298 -0.0589932 1.45758e-05 -6.83394e-05 -9.33401e-06 
26.982 1 16 11.3794 2.13816 2.3813 7.32916 -0.674455 1.92834 0.565847 0.525174 -0.0231358 0.0692407 -0.328194 -0.231698 0.0216594 -0.0873676 -0.0731871 1.4109e-05 -3.11506e-05 -1.03013e-05 
26.982 1 253 11.5392 4.27002 4.34004 4.20514 -2.00425 3.57659 -0.0196416 -0.132099 0.223113 0.00255339 -0.0295685 -0.0272419 0.00101298 -0.00892612 -0.00926374 1.66778e-07 -3.87588e-06 1.46082e-06 
26.982 1 10 9.21568 2.35276 0.225934 2.75719 -1.68946 4.11873 0.178801 -0.3372 -0.0663897 -0.00689847 -0.229271 -0.389427 0.00344036 -0.056804 -0.112534 1.30685e-05 -1.39622e-05 -6.52949e-05 
26.982 1 53 11.3956 4.25676 0.381149 -0.610123 0.218732 -2.44243 0.203908 -0.265436 0.0204576 0.0498598 -0.0306731 -0.423416 0.00856713 -0.00518598 -0.101556 -2.98577e-06 1.0029e-05 -6.29107e-05 
26.982 1 55 13.6286 4.26968 2.38066 -0.35111 4.72912 -1.01886 -0.0545047 -0.0131435 -0.155113 -0.00103113 -0.09131 -0.266282 0.000890332 -0.02369 -0.085762 1.15378e-05 -5.35575e-07 -2.49607e-05 
26.982 1 214 13.6503 2.41115 4.3347 -0.183642 1.3654 0.0389316 0.0851803 -0.578376 -0.0422278 0.0426055 -0.279654 -0.141843 0.00640031 -0.0767671 -0.0394822 -7.56751e-06 -2.78104e-05 -5.61645e-06 
26.982 1 20 15.8458 2.41756 2.31318 -2.65675 3.17564 2.75684 -0.324705 -0.594917 0.107549 -0.121428 -0.354446 -0.190586 -0.0244896 -0.0952046 -0.0697079 2.23093e-05 -2.62292e-05 -4.77665e-05 
26.982 1 15 13.6577 0.335182 2.32705 2.87268 -2.13726 -3.42338 0.622128 0.311984 0.242208 -0.00499004 -0.0997834 -0.340088 -0.0061995 -0.0387961 -0.0946256 -1.99162e-06 -5.84288e-05 -1.24957e-05 
26.982 1 14 13.5839 2.23298 0.413645 -2.95055 -2.92463 -1.84562 0.103024 0.101491 0.00799457 0.0117801 -0.213118 -0.181079 0.00727119 -0.0532687 -0.054915 1.31253e-05 -1.44606e-05 -6.00609e-05 
26.982 1 257 15.9326 4.14013 4.35429 1.39098 -2.77023 2.49537 -0.156287 0.524035 0.280598 -0.00360383 -0.0386251 -0.0261754 -0.000526929 -0.00998701 -0.00998162 1.76686e-06 5.26464e-06 -3.11326e-06 
26.982 1 218 18.0653 2.50729 4.45121 -0.491846 3.29209 1.37203 0.0803127 -0.709043 0.126434 -0.0312518 -0.262528 -0.0851774 -0.00737342 -0.071681 -0.0292815 -2.17678e-07 -2.69809e-05 -1.52834e-05 
26.982 1 59 17.9829 4.30158 2.37254 3.48779 -4.23728 1.64265 0.371049 0.614343 0.396911 0.014245 -0.00586904 -0.17602 0.00299858 -0.000555984 -0.0703047 3.91038e-06 6.28422e-06 -5.91335e-05 
26.982 1 217 15.9573 0.244098 4.42941 1.3586 1.20153 -1.11741 -0.293207 0.110646 -0.270922 0.00181639 -0.0791958 -0.0688884 0.000749192 -0.0348895 -0.0303625 7.99015e-06 -3.92978e-05 -4.29193e-05 
26.982 1 21 20.2332 0.417007 0.422677 1.39938 -0.715823 3.4741 -0.339851 -0.170125 -0.137057 0.0378034 -0.215048 -0.217253 0.00809639 -0.056807 -0.0577259 1.85727e-06 -1.95821e-05 -2.4182e-05 
26.982 1 221 20.1281 0.369167 4.35656 -1.37337 -2.71719 2.37635 0.449521 0.211187 0.468084 -0.045425 -0.18244 -0.160879 -0.0114485 -0.058835 -0.0534549 5.24051e-06 -4.28572e-05 -3.88874e-05 
26.982 1 261 20.2726 4.15481 4.4672 -1.69501 2.94064 3.38563 -0.148639 0.636254 0.0474027 0.00189568 -0.0272353 -0.0270767 0.000509253 -0.0074743 -0.0101773 -4.04836e-06 9.79576e-06 -6.49089e-06 
26.982 1 24 20.0436 2.30361 2.37172 -0.257036 -4.81306 -1.21079 0.414616 0.257734 -0.0199531 0.0327023 -0.264939 -0.146647 0.00772679 -0.0702993 -0.0569814 1.56745e-06 -1.35772e-05 -4.46775e-05 
26.982 1 63 22.3093 4.27326 2.3673 1.90147 -4.27267 -2.39337 0.451202 0.100802 -0.154904 0.0063354 0.00214506 -0.242779 0.0040535 -0.00395599 -0.0850233 7.13279e-06 -4.94154e-06 -6.15532e-05 
26.982 1 222 22.3928 2.41274 4.3319 -0.14645 0.757027 2.09507 0.229894 -0.308217 -0.0864833 -0.0308459 -0.217455 -0.10518 -0.00199579 -0.0643398 -0.0330874 1.68803e-05 -3.45911e-05 -2.49621e-05 
26.982 1 28 24.6263 2.41898 2.3416 0.958861 1.84146 -2.06267 -0.320646 -0.318218 0.185935 -0.0372526 -0.179766 -0.214833 -0.00979777 -0.0584952 -0.0781488 -1.35977e-05 -2.99274e-05 -4.5311e-05 
26.982 1 265 24.6687 4.39744 4.37278 -3.66735 -1.62024 1.61283 -0.0259999 -0.196758 0.292396 -0.000371382 -0.0179459 -0.0320705 -7.74062e-05 -0.00648638 -0.0120131 -1.04039e-06 -7.81803e-06 -1.23907e-06 
26.982 1 67 26.6685 4.55054 2.39974 -3.95444 0.155186 2.31522 0.439687 -0.503662 -0.304593 0.0116808 0.0101238 -0.291116 0.00384421 0.000141443 -0.100623 6.79798e-06 -2.39722e-05 -4.73274e-05 
26.982 1 226 26.789 2.40281 4.25944 3.59432 -0.212324 0.170671 -0.045198 0.324904 0.515778 0.030387 -0.158723 -0.0516065 -0.000193269 -0.0471159 -0.0194382 -1.35617e-05 -1.13603e-05 -2.08329e-06 
26.982 1 269 28.9708 4.58246 4.4855 4.33951 0.170689 -0.701144 -0.0591852 -0.42547 -0.354016 -0.00231354 -0.0212023 -0.03358 -0.000503278 -0.00530594 -0.0128648 -1.40157e-06 -6.71406e-06 -1.21418e-05 
26.982 1 27 26.7974 0.422244 2.4764 -0.464143 3.30474 3.35056 -0.165959 -0.257342 -0.595392 0.052206 -0.44455 -0.17339 -0.00598343 -0.113202 -0.0592483 -2.31033e-05 -4.42591e-05 -3.15307e-05 
26.982 1 29 28.9979 0.492056 0.314264 -1.59928 -2.20647 2.68608 -0.306105 0.270666 0.156094 -0.022481 -0.251514 -0.297035 0.00382204 -0.0686395 -0.0881994 9.48311e-06 -1.25951e-05 -2.65721e-05 
26.982 1 32 28.9709 2.48996 2.5715 0.284018 3.56902 -0.888759 -0.0802246 -0.149857 -0.228592 -7.85043e-05 -0.209497 -0.220562 0.00235274 -0.0487792 -0.0804718 1.19275e-05 -8.55659e-06 -4.60996e-05 
26.982 1 71 31.1281 4.3823 2.34814 3.03988 -1.75911 -2.43832 0.0413067 -0.0605087 0.542927 -0.0231508 0.00526148 -0.218003 -0.0102422 0.000648642 -0.0848224 -1.14739e-05 -9.44755e-06 -4.15444e-05 
26.982 1 230 31.0561 2.37758 4.54887 -6.12561 0.981748 -4.01273 0.0762186 0.0901267 -0.310657 -0.0337548 -0.191871 -0.0756994 -0.00685214 -0.052218 -0.0279454 1.57442e-05 -2.9886e-05 -2.89767e-05 
26.982 1 273 33.3556 4.34512 4.32461 1.1001 4.32885 -1.41054 -0.263703 -0.123831 0.158409 0.00173996 -0.0126228 -0.0263453 4.03626e-05 -0.00355301 -0.00950978 -4.61067e-06 -8.9212e-06 -4.04236e-06 
26.982 1 229 28.8063 0.201831 4.40468 5.90532 2.94813 -0.667965 0.581568 0.454556 -0.122517 -0.0032968 -0.174291 -0.104969 0.00305349 -0.0652089 -0.0404306 2.06945e-05 -3.81321e-05 -3.34331e-05 
26.982 1 36 33.3723 2.39679 2.25183 1.49351 3.27199 2.7033 0.0634122 0.271451 0.750272 -0.0109179 -0.182562 -0.214827 -0.00869123 -0.0532285 -0.0740837 -1.31258e-05 -4.46266e-05 -2.52457e-05 
26.982 1 73 33.2564 4.34032 0.395812 0.798475 4.58803 -1.43374 0.177735 0.595117 0.0765265 0.0692367 -0.0179861 -0.387824 0.00857933 -0.00854663 -0.0959828 1.48831e-06 -8.40272e-07 -6.06537e-05 
26.982 1 75 35.6966 4.33833 2.3032 -0.262172 -2.65339 -1.0042 -0.718071 0.0292097 0.19365 0.0667725 0.0057435 -0.302928 0.0116662 -0.000110264 -0.0882174 -1.77173e-06 1.05271e-06 -5.10359e-05 
26.982 1 234 35.39 2.35246 4.45201 -2.30761 3.50216 1.1225 0.136263 -0.0252238 -0.221892 0.0111304 -0.124953 -0.0495372 0.00517078 -0.0378725 -0.0170653 -1.42746e-05 -1.85599e-05 -1.12344e-05 
26.982 1 40 37.7063 2.4539 2.35626 -4.46043 0.921481 1.32399 -0.0516734 -0.326769 0.306643 0.133736 -0.190672 -0.35015 0.0262963 -0.0559862 -0.0921364 -1.08783e-05 -1.24637e-05 -4.23996e-05 
26.982 1 277 37.4873 4.23863 4.454 -4.16875 -5.49331 2.06601 0.28248 0.318877 -0.1011 0.00419931 -0.0183349 -0.0473668 0.000833969 -0.00545413 -0.0131295 2.96734e-06 3.24846e-06 -7.11741e-06 
26.982 1 35 35.5523 0.354581 2.32072 1.46864 2.251 0.245162 -0.00269993 0.319928 0.298864 0.0337755 -0.474479 -0.217992 0.00667038 -0.127875 -0.0679924 -1.59133e-05 -3.88545e-05 -3.53023e-05 
26.982 1 79 39.8223 4.54237 2.35159 -0.944013 -0.76012 -1.99016 0.0731664 -0.761015 0.173271 -0.0462146 -0.082693 -0.340214 -0.00814238 -0.0131421 -0.0964839 -4.409e-07 3.90404e-06 -5.23809e-05 
26.982 1 238 39.829 2.45386 4.35381 -3.53623 0.223696 -5.6225 -0.240037 -0.168216 -0.410641 0.0026529 -0.225262 -0.152097 -0.00338375 -0.0588091 -0.0384043 -5.05994e-06 -6.5915e-06 -1.42721e-05 
26.982 1 39 39.8198 0.359803 2.50101 -0.414161 6.69625 0.88545 -0.123151 0.375383 0.036428 -0.0512931 -0.0547371 -0.328192 -0.0121428 -0.0375739 -0.0818773 8.29698e-07 -5.32136e-05 -3.55247e-05 
26.982 1 38 39.6658 2.38832 0.370021 -2.93256 2.30276 -0.406568 0.698336 0.0327358 0.222278 0.00882582 -0.134027 -0.180845 0.00196725 -0.0335094 -0.070388 2.07616e-06 -3.45342e-06 -5.53232e-05 
26.982 1 237 37.5012 0.264615 4.33319 -4.8916 -2.8639 5.45365 0.386671 0.309603 -0.276834 0.062639 -0.269508 -0.196431 0.0133208 -0.0725377 -0.050313 8.08165e-07 -3.53618e-05 -2.84628e-05 
26.982 1 83 0.851392 8.36803 2.42241 -1.46401 -2.75063 -2.43833 -0.61504 -0.389659 -0.452228 -0.222119 -0.0576724 -0.261884 -0.0618413 -0.0207529 -0.0737331 -3.74982e-05 -2.49231e-05 -3.8495e-05 
26.982 1 242 0.699843 6.35225 4.49033 -1.0863 5.65013 1.89732 -0.178858 -0.0932847 -0.533857 -0.229944 0.0234603 -0.127582 -0.0629361 -0.000627844 -0.0350501 -1.94619e-05 -3.31551e-06 -2.59948e-05 
26.982 1 281 -1.38465 8.29481 4.39894 -3.27438 2.05261 -2.91944 -0.0613314 0.315169 -0.577001 -0.109291 -0.110771 -0.12728 -0.0421515 -0.041054 -0.0480879 -2.466e-05 -2.00902e-05 -4.45453e-05 
26.982 1 88 2.9655 10.196 2.53179 -0.944689 6.911 -3.79404 0.0529817 0.438425 -0.534426 -0.0727307 -0.0227723 -0.267264 -0.0161138 -0.00764113 -0.0647623 -2.32281e-06 7.14332e-06 -1.6018e-05 
26.982 1 285 2.85119 8.26235 4.4068 3.64027 3.662 -2.39926 0.159694 0.0445128 0.320304 -0.0265701 -0.000738662 -0.030647 -0.00568338 -0.000652571 -0.00829538 4.28616e-06 1.27377e-06 2.79187e-06 
26.982 1 48 2.72203 6.35094 2.46719 7.1869 1.90972 4.63847 0.248814 -0.353621 -0.315263 -0.0696006 -0.012788 -0.246504 -0.0113075 -0.00536829 -0.0735447 -3.94037e-06 -6.44231e-06 -3.54925e-05 
26.982 1 87 4.87766 8.14808 2.26876 -1.14597 2.46748 2.16539 0.169551 0.224203 0.337658 -0.00548901 0.021149 -0.218517 -0.000872574 -0.00335325 -0.0649361 2.92968e-06 -9.3507e-06 -1.80646e-05 
26.982 1 246 4.9314 6.04577 4.37103 -0.244194 1.78178 0.172096 -0.0159345 1.12179 -0.319296 -0.000707045 -0.000891248 -0.0187818 -0.000174722 -0.000271765 -0.00721728 4.92999e-07 1.66146e-05 -5.84956e-06 
26.982 1 289 7.0426 8.15136 4.2496 2.23368 0.820684 -0.611105 0.155414 0.023393 -0.0569473 0.00196852 0.00101231 -0.0262568 0.000381324 0.000178738 -0.00736257 1.47031e-06 -2.19337e-06 -2.548e-06 
26.982 1 286 5.17103 10.4058 4.45671 4.0502 6.31631 -6.07024 -0.486023 -0.598251 -0.225404 -0.000457857 0.000905499 -0.0217805 0.000162401 0.000272875 -0.00584196 -7.05482e-06 -1.07044e-05 -3.97641e-06 
26.982 1 85 2.87429 8.18951 0.24557 -1.59693 -0.0987341 -0.651635 0.168285 0.686199 0.578918 -0.00770179 0.0416666 -0.313881 -0.00102526 -0.00206702 -0.099433 -4.33918e-06 -1.73987e-05 -6.05682e-05 
26.982 1 52 6.98846 6.3035 2.05283 1.65639 6.73236 1.04704 0.486147 -0.0761398 0.725226 0.0168657 0.0210927 -0.198574 -0.00192628 0.00368714 -0.0612567 8.06692e-06 -3.10303e-06 -2.53554e-05 
26.982 1 92 7.16861 10.3124 2.4392 1.54703 -4.52148 2.76392 0.128583 0.161916 0.289153 0.0307628 -0.0201638 -0.247434 0.00963367 0.000460713 -0.0709127 4.32562e-06 -6.73991e-07 -2.5263e-06 
26.982 1 91 9.29354 8.21658 2.33029 -2.46133 0.685621 5.2648 0.00791236 -0.232027 -0.0966568 0.0330067 0.0369291 -0.293557 0.00606125 0.0098309 -0.0771628 1.47294e-05 -1.85948e-05 -3.47549e-05 
26.982 1 250 9.30721 6.12523 4.20157 -1.52667 -0.838869 -1.70498 -0.154739 0.229264 0.0197333 0.00185577 0.00165546 -0.0202 0.00017969 0.000268441 -0.00618104 -3.92849e-06 5.44563e-06 -7.60403e-06 
26.982 1 290 9.3774 10.1769 4.20561 -3.83338 -2.89678 2.06843 -0.534473 0.323189 0.763782 0.00232355 0.000881631 -0.0343875 0.000567905 0.000637301 -0.00978087 -7.63681e-06 3.44719e-06 8.97418e-06 
26.982 1 293 11.5133 8.1746 4.31657 -3.24931 -3.38892 1.17465 -0.0991803 -0.0587148 0.0713851 -0.000882884 0.00304258 -0.0353434 0.000153975 0.00101916 -0.00941995 -6.93199e-07 -1.69498e-06 -5.78691e-06 
26.982 1 89 7.16331 8.49781 0.506085 -3.0481 1.43432 1.78894 -0.294519 -0.371978 -0.726769 0.00960305 0.0622731 -0.316158 0.00233626 0.00560703 -0.100199 1.94487e-06 -2.35711e-05 -6.80067e-05 
26.982 1 56 11.4205 6.11585 2.31121 -0.679341 2.79312 -1.57562 0.178577 0.576753 0.114307 0.0142439 0.0541251 -0.255752 0.00610878 0.00552456 -0.0739952 -6.31561e-06 2.45826e-05 -3.25979e-05 
26.982 1 95 13.6375 8.31368 2.59695 3.22298 -1.73259 1.32966 -0.101814 -0.2607 -0.246996 -0.0354647 0.0243631 -0.301029 0.00164191 0.0049035 -0.0888374 7.11018e-07 7.7579e-06 -4.98208e-05 
26.982 1 254 13.7552 6.18832 4.45043 -1.96286 -2.10526 -4.23026 -0.21334 0.10372 -0.119778 0.000173685 -3.14768e-05 -0.0261518 0.000388207 -3.14946e-05 -0.00888545 -2.77797e-06 3.23309e-06 -4.63652e-06 
26.982 1 54 13.7054 6.25419 0.498539 1.14531 7.51441 -0.594586 -0.56818 -0.0851369 0.238837 -0.0516024 0.0609195 -0.349959 -0.00370978 0.0150032 -0.0956565 1.36902e-05 1.81781e-05 -5.98758e-05 
26.982 1 297 15.9108 8.35205 4.50523 -2.66081 2.54165 -0.810675 0.0236242 -0.106066 -0.00868041 7.96292e-05 0.00338606 -0.029363 0.000225745 0.00064803 -0.0109005 1.53464e-06 -2.66396e-06 -4.81191e-06 
26.982 1 60 15.8054 6.26479 2.60162 1.74552 -4.29487 0.171688 0.204926 0.555776 0.0468671 -0.0157046 0.0192163 -0.218016 0.000323696 0.00705841 -0.0816744 1.36884e-05 3.59068e-06 -4.77986e-05 
26.982 1 99 17.8631 8.36711 2.39743 3.71421 -4.65475 0.471338 0.335191 -0.104088 -0.0338667 -0.00512606 0.04637 -0.25185 -0.00978711 0.00784561 -0.0850569 -8.70207e-07 -1.9566e-05 -3.42593e-05 
26.982 1 258 18.1255 6.41399 4.48073 3.03866 3.54554 1.98004 0.0820573 -0.371694 -0.142002 0.000816278 0.00235347 -0.0209284 1.71742e-05 0.000295031 -0.00895924 2.36863e-06 -6.02379e-06 -8.96412e-06 
26.982 1 298 18.0209 10.4342 4.46206 0.927153 -1.18652 -0.675845 0.202347 -0.254252 -0.456871 -0.000326483 0.00195366 -0.0382759 -0.000360091 0.000294646 -0.0118745 5.59841e-06 -5.56014e-06 -9.36391e-06 
26.982 1 100 15.8314 10.3452 2.33112 5.17726 -1.60293 2.11769 -0.125448 -0.317751 0.334959 0.00775351 0.0489358 -0.330566 0.00417617 0.00446472 -0.101218 -1.51317e-05 -2.40778e-05 -2.91611e-05 
26.982 1 98 17.9899 10.3448 0.428324 0.287318 1.20902 5.72615 0.091475 -0.801078 -0.697706 -0.0296409 0.00146054 -0.227836 -0.00679619 -0.000649416 -0.0591192 8.45355e-06 -1.41543e-05 -6.62652e-05 
26.982 1 301 20.252 8.38275 4.37922 -2.03552 0.644226 0.412177 -0.284539 -0.232979 -0.172603 0.00137692 0.00275492 -0.0281965 -0.000103888 0.000609541 -0.00838956 -5.61214e-06 -5.11459e-06 -9.26546e-06 
26.982 1 64 20.3021 6.1206 2.57423 -3.56732 -3.71052 1.3693 -0.204685 0.498605 -0.264946 0.026968 -0.00507918 -0.236992 0.00260065 -0.00789716 -0.0770399 -5.92316e-06 -2.42015e-07 -4.23636e-05 
26.982 1 103 22.5226 8.14876 2.49368 3.61481 2.00558 -6.65767 -0.39725 0.219477 -0.155163 0.00892332 0.0367768 -0.299448 0.00704404 0.00567058 -0.0852593 -8.41247e-07 2.65853e-06 -4.94256e-05 
26.982 1 262 22.5957 6.13449 4.48223 1.87024 -2.95317 1.2558 -0.396481 0.458916 -0.2663 0.000857715 0.000855293 -0.0294296 0.000591657 -0.000494378 -0.00971906 -6.03785e-06 6.73493e-06 -8.96879e-06 
26.982 1 305 24.7393 8.42752 4.47077 2.75283 -3.45208 5.55925 -0.161646 -0.520538 0.223055 -0.000321625 0.00122744 -0.0315992 0.00027501 -4.22496e-05 -0.0101869 -1.76346e-06 -8.81731e-06 -1.20105e-07 
26.982 1 101 20.2227 8.09333 0.465747 3.39633 -2.99952 -1.93583 -0.104519 0.689711 0.13653 0.0416727 0.00243063 -0.393821 0.00676464 0.000801643 -0.122391 8.21565e-06 -9.51021e-06 -5.18901e-05 
26.982 1 68 24.6396 6.45188 2.347 -1.72053 -2.82921 -4.02273 -0.38035 -0.143682 0.200287 0.0142738 -0.00231355 -0.287465 0.00482213 -0.00440063 -0.0943384 -2.10238e-05 -4.89753e-06 -4.14437e-05 
26.982 1 107 26.7497 8.37775 2.37119 -2.48252 1.18489 -0.841244 0.154826 0.159698 0.0798533 0.0540659 -0.0462915 -0.311226 0.0100881 -0.0108874 -0.0952007 -8.42065e-06 1.50333e-05 -3.21856e-05 
26.982 1 266 26.7909 6.33927 4.35365 1.69852 0.0260269 -2.8285 -0.00593321 0.453247 0.563116 0.00163595 0.00200293 -0.0367049 0.000209366 6.39249e-05 -0.0121437 -1.36641e-06 5.57362e-06 8.00669e-06 
26.982 1 309 28.9431 8.49456 4.20206 -2.10204 -3.34524 -3.68531 0.0253171 -0.999134 0.765647 -0.00146093 -0.00116743 -0.0416865 -0.000406303 -0.000483612 -0.012349 -1.43769e-06 -1.62963e-05 5.73994e-06 
26.982 1 66 26.5243 6.49374 0.404965 3.05476 -0.78784 -3.22835 0.751223 -0.415763 -0.323402 0.0167743 0.0502903 -0.231133 0.00238735 0.00416542 -0.0597172 -7.24378e-06 -9.89335e-06 -6.67259e-05 
26.982 1 109 28.8502 8.45185 0.426228 3.2231 6.0666 -4.18067 0.20783 -0.0157473 0.367456 0.000967431 -0.0209986 -0.0550739 -0.00014876 -0.00815501 -0.0337028 1.0251e-06 8.18737e-08 -6.10365e-05 
26.982 1 72 28.9941 6.3383 2.27591 -1.33375 -1.99736 2.6849 -0.317036 0.231627 0.364869 -0.0307558 0.0463351 -0.337131 -0.0048075 0.00219926 -0.108619 1.14401e-05 -1.341e-05 -3.73254e-05 
26.982 1 111 31.3053 8.34776 2.53923 -0.117877 -3.81311 1.69379 -0.29017 0.230094 -0.155891 -0.0361208 -0.0353726 -0.282974 -0.00818517 -0.0143857 -0.0859176 -6.57909e-06 -1.16507e-05 -2.74087e-05 
26.982 1 270 31.1745 6.41699 4.44264 -1.46737 4.37283 -2.19531 -0.113745 -0.244263 -0.499985 -0.000763362 0.0026001 -0.0304588 -0.000634568 0.000466121 -0.0109624 -2.96559e-06 -5.21256e-06 -1.29856e-05 
26.982 1 313 33.4239 8.47173 4.44804 1.35717 -2.14309 2.06289 -0.12413 -0.22026 0.0171488 0.00074448 0.000322699 -0.0309437 -0.000257322 -0.000242091 -0.00927801 -1.41952e-06 -2.63711e-06 -2.68395e-06 
26.982 1 76 33.2701 6.30676 2.41688 0.201285 -2.70508 5.01082 0.417392 0.163498 -0.16995 0.0223461 0.0294878 -0.271996 -6.04069e-05 0.00390716 -0.0862277 5.42048e-06 -8.32693e-07 -3.29615e-05 
26.982 1 113 33.3582 8.46849 0.465525 6.11998 1.60142 -7.96551 -0.186771 -0.458007 0.26812 0.00576966 0.030293 -0.241494 -0.00113732 0.00374222 -0.0732029 -3.40208e-06 -2.55189e-05 -6.4795e-05 
26.982 1 310 30.9403 10.4499 4.51981 0.354112 -0.218728 -3.57269 0.792954 -0.527251 -0.189476 -0.000264045 -0.000568719 -0.0213887 -0.000178047 -0.000117522 -0.00737082 1.2235e-05 -7.68899e-06 -2.40737e-06 
26.982 1 116 33.4421 10.3047 2.50906 5.37028 -2.37456 -1.9935 -0.274563 0.497712 -0.145359 0.0404124 0.0191761 -0.27798 0.00886338 0.00501368 -0.0807793 -5.6043e-06 8.19308e-06 -1.00669e-05 
26.982 1 110 31.14 10.3926 0.568878 -1.93158 -2.88646 0.56202 -0.015263 -0.159458 -0.365111 0.0266448 -0.0550481 -0.539453 0.00656068 -0.00815287 -0.145364 -1.14745e-05 4.63674e-06 -6.31176e-05 
26.982 1 115 35.4108 8.39624 2.40253 -1.57303 -0.666987 -1.3402 0.147506 -0.426044 0.0176348 -0.0569791 -0.0108015 -0.251517 -0.0159265 -0.00364397 -0.072009 2.51712e-06 -2.41045e-05 -2.32311e-05 
26.982 1 274 35.4109 6.26164 4.47898 -3.01727 -0.120987 -1.84155 0.106677 0.499114 -0.523468 0.0022621 -0.00221797 -0.0314829 -1.76433e-05 -0.000730153 -0.00928376 8.64602e-07 4.36152e-06 -1.20365e-05 
26.982 1 317 37.5255 8.34095 4.20189 2.64668 1.77019 1.43288 0.326307 -0.0794586 0.667205 0.000206469 -0.0014716 -0.0204607 0.000597716 -0.000198467 -0.00605708 5.54109e-06 -4.84285e-06 6.08668e-06 
26.982 1 114 35.4876 10.4504 0.462624 -2.03517 0.0297674 -2.3905 0.0804443 -0.165107 0.128264 -0.0231964 0.0360011 -0.33084 -0.00657571 0.00856649 -0.0955399 3.37407e-06 -3.9959e-06 -6.25643e-05 
26.982 1 117 37.6774 8.37652 0.582545 4.8108 -1.03635 0.133661 -0.112737 -0.10331 -0.46299 0.018609 0.0248054 -0.551387 0.0103836 0.00388179 -0.158555 1.25952e-05 -1.68686e-05 -6.66858e-05 
26.982 1 80 37.6789 6.33912 2.50578 -1.95125 0.426605 0.88641 -0.00256055 -0.0700824 -0.0328193 -0.0101476 -0.102592 -0.272225 0.00109491 -0.0263013 -0.0787125 1.15558e-06 -1.3454e-05 -4.32717e-05 
26.982 1 314 35.5668 10.3938 4.51189 0.206345 0.412538 1.4093 -0.0044627 0.0689978 -0.0579462 -0.000761338 0.00166143 -0.0315377 -0.000158317 0.000487496 -0.00873562 8.82347e-07 3.79192e-06 2.2413e-06 
26.982 1 120 37.5987 10.3501 2.46046 0.989942 0.283537 -0.126212 0.285581 0.151779 -0.0243346 0.0434113 0.0705954 -0.27834 0.0131981 0.0170283 -0.0768053 1.48422e-05 1.56806e-06 -1.85116e-05 
26.982 1 84 41.8631 10.4061 2.22943 1.30918 -0.125704 0.899051 0.835957 -0.398178 0.311106 -0.246131 -0.060154 -0.359447 -0.072537 -0.0159658 -0.0969073 1.45526e-05 -2.97668e-05 -4.26348e-05 
26.982 1 44 42.1004 6.22232 2.52427 -5.21074 -1.69918 -4.69224 0.0180648 0.877886 -0.84291 0.000999785 -0.223506 -0.274258 -0.00821066 -0.0588588 -0.0796294 1.45761e-05 -2.66376e-05 -4.63424e-05 
26.982 1 119 39.8258 8.43975 2.42047 -0.891332 0.771829 3.78448 0.101316 -0.638867 -0.138157 0.0597687 0.040995 -0.263802 0.0205815 0.00793799 -0.0844978 1.70497e-05 -1.59115e-05 -4.77878e-05 
26.982 1 278 39.9219 6.22023 4.44974 0.212679 1.6456 3.24005 -0.43767 0.65035 -0.339641 0.0886199 -0.089786 -0.0360382 0.0223357 -0.0217213 -0.0115631 1.03472e-05 -6.69942e-06 -1.43259e-05 
26.982 1 318 40.0552 10.2193 4.32152 -2.80346 -2.21665 -1.32842 -0.369924 0.388442 0.455325 0.0619065 -0.0506891 -0.0478777 0.0221153 -0.0188108 -0.0141868 1.18423e-05 -1.12335e-05 -9.05098e-07 
26.982 1 123 0.59969 12.4189 2.2666 -1.51801 3.51908 0.268578 0.333199 -0.217361 0.100415 -0.221453 -0.0841954 -0.285938 -0.0659965 -0.0173074 -0.0748208 -3.30795e-05 -1.7871e-05 -6.8744e-06 
26.982 1 282 0.714644 10.2915 4.19866 -0.387602 -0.718709 2.09115 -0.169494 0.420861 0.516838 -0.207032 -0.0129804 -0.0893415 -0.0545813 6.52484e-05 -0.0243242 -3.40055e-05 1.9361e-05 -5.31798e-06 
26.982 1 322 0.567896 14.3943 4.28103 0.796918 0.342063 -0.989361 0.576593 -0.484609 0.083833 -0.136199 -0.0572894 -0.0721784 -0.0360664 -0.0137738 -0.0170146 -6.30141e-06 -2.1769e-05 -4.08757e-06 
26.982 1 124 -1.4784 14.3102 2.35187 -1.0501 -2.21401 -1.12357 0.0375991 -0.258003 -0.271799 -0.2906 -0.121832 -0.278289 -0.103556 -0.0326617 -0.0757947 -5.44086e-05 -1.57612e-05 -2.89779e-05 
26.982 1 325 2.78949 12.3552 4.35917 -9.44489 1.711 -0.578409 -0.198072 0.00426298 0.00702821 -0.0212604 -0.00350854 -0.0257717 -0.00545522 -0.000404255 -0.00631206 -1.20834e-05 -3.03164e-08 -2.35791e-07 
26.982 1 122 0.761497 14.4111 0.385074 2.47029 0.0438422 -3.38224 -0.0132666 -0.0447981 0.138933 -0.245504 -0.0391071 -0.311507 -0.0621978 -0.00405303 -0.0923983 -1.62807e-05 1.69307e-05 -5.96422e-05 
26.982 1 128 2.97079 14.3329 2.25231 3.82589 -2.63655 -1.48637 -0.749724 -0.0114605 0.329163 -0.029139 0.0127141 -0.228439 -0.00900916 0.0115476 -0.066091 -1.78559e-05 1.30161e-05 -2.09438e-05 
26.982 1 82 0.796316 10.3229 0.45366 2.28186 -1.26976 3.93596 -0.100922 -0.132765 0.182201 -0.231769 0.0827525 -0.210302 -0.0713117 0.0150131 -0.0794732 -3.69222e-05 -3.71518e-06 -4.90506e-05 
26.982 1 125 2.96238 12.3542 0.510076 -0.787023 -1.65073 -2.35157 -0.100442 -0.427729 -0.243923 -0.0531352 -0.0629159 -0.419765 -0.014814 -0.0073502 -0.133952 -7.71763e-06 -5.22137e-06 -6.0064e-05 
26.982 1 127 5.09737 12.2381 2.52662 -0.879476 -6.34769 3.68453 -0.454646 0.0409306 -0.558062 -0.00281438 0.00413262 -0.203432 0.00602206 0.00156293 -0.0561984 -8.29125e-06 -1.53524e-06 -1.47485e-05 
26.982 1 326 4.82495 14.3182 4.19776 1.91374 3.08891 0.195556 0.522635 -0.13429 0.908501 0.000451868 0.000228969 -0.0219623 4.41419e-05 -2.63242e-05 -0.00611731 4.55689e-06 -2.7854e-07 1.41389e-05 
26.982 1 126 5.09566 14.2523 0.461132 -3.62787 2.64602 6.0509 -0.247981 0.0777101 -0.450528 0.0370365 0.00253934 -0.369913 0.00713577 0.00345297 -0.114612 -1.20063e-05 1.32583e-05 -7.10605e-05 
26.982 1 132 7.09338 14.3074 2.27061 0.615385 1.33401 -2.90834 0.514507 -0.388266 0.783926 0.0159472 0.0213774 -0.238381 0.00699214 -0.0020121 -0.0686021 2.14138e-05 -3.65523e-06 -1.0496e-05 
26.982 1 329 7.06531 12.4247 4.33925 -1.81843 -3.40261 1.44369 0.580767 -0.195147 -0.0587413 0.000992895 -6.77008e-05 -0.0228558 0.000428921 -0.000140577 -0.00746696 1.22568e-05 -2.21138e-06 -4.74147e-07 
26.982 1 129 7.1882 12.3144 0.490639 0.435902 0.82534 4.48865 0.215687 0.0411118 -0.229279 0.0299006 0.00304209 -0.426592 0.00810792 0.00663919 -0.102 1.59028e-05 9.36946e-06 -6.39183e-05 
26.982 1 86 5.06254 10.372 0.479624 -0.175392 0.150934 -4.07908 -0.25 -0.263217 -0.235427 -0.0104155 -0.0320967 -0.393298 0.00294587 -0.00450201 -0.122273 -7.04777e-06 -5.35047e-06 -6.24024e-05 
26.982 1 131 9.4777 12.5256 2.5041 -2.10931 -5.07338 1.92517 -0.478025 -0.797945 -0.199296 0.0312234 -0.0109698 -0.268841 0.00897501 -0.00138565 -0.0849628 -6.91694e-06 5.08604e-06 -2.79899e-05 
26.982 1 330 9.46077 14.2678 4.42894 -0.296407 -3.11538 2.80914 -0.37057 0.339612 -0.131102 0.000725598 0.000855392 -0.0288935 0.000455482 -0.000200637 -0.00895115 -7.0059e-06 4.64103e-06 -6.75404e-06 
26.982 1 333 11.5221 12.3094 4.55473 1.50913 2.70867 -6.43027 0.269438 -0.438876 -0.563167 0.00142315 -0.000728787 -0.0338875 0.000166349 -0.00015282 -0.01091 6.00959e-06 -8.76331e-06 -7.54795e-06 
26.982 1 90 9.21978 10.3725 0.459454 5.65289 0.0412137 3.46193 0.225095 0.15184 0.297258 0.0175316 -0.0141485 -0.266805 0.00938086 -7.54362e-05 -0.0810145 1.88541e-05 -8.5118e-06 -6.02776e-05 
26.982 1 294 13.7957 10.2133 4.51983 2.42133 4.37688 -2.39879 -0.262648 0.411393 -0.276285 0.000534838 0.0040037 -0.0366442 0.000287596 0.000878227 -0.0109153 -5.85448e-06 4.23086e-06 -9.86253e-06 
26.982 1 96 11.3375 10.28 2.51819 1.4233 -5.59954 1.05766 0.675007 0.0438351 -0.333729 0.00183243 -0.0205828 -0.33148 0.00109522 0.00374984 -0.0931739 2.27217e-05 -1.17125e-05 -3.5699e-05 
26.982 1 136 11.7085 14.2609 2.5354 4.33178 -5.69159 -0.117079 -0.331401 -0.0532152 -0.513358 -0.00504618 -0.00180836 -0.285063 -0.00493983 -0.00505592 -0.0850152 -1.40436e-05 -8.16174e-07 -2.64169e-05 
26.982 1 135 13.6722 12.1899 2.39173 0.166739 3.74939 -0.872647 -0.136219 -0.203171 0.260006 0.0279767 -0.0211287 -0.315657 0.00238429 -0.00865066 -0.0898875 -7.06836e-06 -2.38632e-05 -2.07308e-05 
26.982 1 334 13.8033 14.2313 4.2671 -3.05191 1.48125 -3.7521 -0.0775514 0.0637587 0.459926 3.70213e-05 -0.0019262 -0.0306277 -0.000268396 -0.000788586 -0.00853945 -9.41617e-07 1.85469e-07 7.722e-06 
26.982 1 134 13.7133 14.1934 0.565526 1.062 7.69856 -3.96458 0.0712041 0.0821134 -0.11091 -0.0564266 -0.0233818 -0.355501 -0.0163258 -0.0100257 -0.116129 -4.02154e-06 -1.29431e-06 -6.49524e-05 