ITEM: TIMESTEP
500
ITEM: NUMBER OF ATOMS
4000
ITEM: BOX BOUNDS pp pp pp
-0.175817 40.6758
-0.038884 40.5389
-0.0400827 40.5401
ITEM: ATOMS mass type id x y z vx vy vz fx fy fz xrad yrad zrad vxrad vyrad vzrad fxrad fyrad fzrad 
26.982 1 2 1.86662 1.898 -0.185672 -1.4311 4.77719 -3.90424 -0.199841 0.676363 0.257478 -0.000188387 -0.000914053 -0.00203937 -0.000801297 -0.00357879 -0.00817337 -8.76173e-06 -1.45501e-05 -4.38882e-05 
26.982 1 3 1.917 0.0483266 1.96788 0.443864 -2.1607 -3.59116 0.305845 -0.34931 0.0460691 -0.000638781 -0.00206065 -0.000332803 -0.00257429 -0.00829858 -0.00134212 -1.21821e-05 -4.72102e-05 -6.4522e-06 
26.982 1 8 3.86999 2.21351 1.86079 -5.02713 4.12561 -2.32547 0.0525943 -1.22495 0.176457 0.000408667 -0.00153518 -0.000932734 0.00161071 -0.00611043 -0.00372091 6.98955e-06 -4.14303e-05 -2.3517e-05 
26.982 1 41 -0.339086 4.11423 -0.0260572 0.91937 0.604649 -0.270189 0.281818 -0.626312 -0.0866995 -0.00120772 -0.00140479 -0.00149892 -0.00479521 -0.00570032 -0.00607816 -2.10712e-05 -3.98732e-05 -3.22007e-05 
26.982 1 43 1.91741 4.06051 1.98356 0.479225 -0.0867118 4.74985 -0.42261 0.0807283 -0.419539 -0.000255741 -0.000697571 -0.000890037 -0.000933443 -0.00289577 -0.00357622 -1.21403e-05 -1.63019e-05 -2.65432e-05 
26.982 1 202 1.90242 2.08433 3.89343 -0.501002 -1.91246 0.276631 -0.00770421 -0.231865 0.330381 -0.000762864 -0.00145435 -0.000776061 -0.00300213 -0.0058271 -0.00307618 -1.55019e-05 -3.67382e-05 -8.55566e-06 
26.982 1 241 -0.259698 4.05663 3.9339 -0.910963 3.24079 3.31005 0.350109 -0.429843 0.0890307 -0.00135889 -0.00138334 -0.00131595 -0.00549691 -0.00555021 -0.00516023 -2.29115e-05 -3.68551e-05 -2.38106e-05 
26.982 1 245 4.01741 3.97124 3.91595 2.99139 6.17697 -3.06398 1.97229e-07 0.204936 0.312369 -2.18683e-05 -0.000225643 -0.000200339 -4.45883e-05 -0.000855228 -0.000839853 3.80683e-07 -2.76006e-06 2.27542e-06 
26.982 1 6 5.91566 1.89973 -0.16947 1.69399 2.37793 6.78006 0.268484 -0.0357801 -0.0462388 -0.00114066 -0.000886962 -0.002096 -0.00447802 -0.0035356 -0.00835243 -2.14082e-05 -2.35618e-05 -4.67483e-05 
26.982 1 9 8.10148 -0.0489415 -0.00430223 1.67084 -2.99445 -0.961957 0.0307343 0.342301 -0.140305 -1.09433e-05 -0.0020314 -0.000912808 -8.72347e-05 -0.00821837 -0.00365707 1.93926e-06 -4.32013e-05 -1.80998e-05 
26.982 1 12 8.02446 2.15829 1.81773 -5.32252 -1.78511 0.510997 0.00518024 -0.289619 0.301259 -0.000115508 -0.00150024 -0.000353796 -0.00043329 -0.00604246 -0.00143014 -6.3858e-07 -3.81667e-05 -2.03014e-06 
26.982 1 47 5.8482 3.93114 1.77991 1.9412 1.91084 -1.65643 0.575339 0.575484 0.299028 -0.000642257 -0.000264419 -0.000907042 -0.00248972 -0.00099992 -0.00363867 -7.07635e-06 1.45378e-06 -1.93004e-05 
26.982 1 49 7.95372 4.06136 -0.137107 1.79633 -2.29274 -1.15538 0.184057 -0.0187015 -0.0720607 -0.000149173 -0.000155641 -0.00276249 -0.000472123 -0.000575459 -0.011088 -2.21674e-06 8.89427e-07 -6.37362e-05 
26.982 1 206 6.07548 2.03983 3.97206 -2.32459 3.6102 4.13581 -0.148459 -0.049394 -0.143551 -0.000580172 -0.00147422 -0.000721209 -0.00237932 -0.00584 -0.00290088 -1.51848e-05 -3.43788e-05 -1.88985e-05 
26.982 1 209 7.88232 -0.137958 4.0534 0.0308871 3.1586 -2.49719 0.531315 0.118557 -0.22792 -0.000203694 -0.00203347 -0.00192487 -0.000676299 -0.00813872 -0.00779863 -4.01157e-06 -4.03557e-05 -5.51015e-05 
26.982 1 249 8.04437 4.10286 3.86976 4.52135 -3.17231 1.4463 0.00975237 -0.464612 0.427386 -2.08487e-05 -0.000112843 -2.79585e-05 -4.04239e-05 -0.000419023 -0.000113986 -1.56234e-06 -8.61425e-06 2.94322e-06 
26.982 1 10 10.1754 2.0964 0.0315236 -3.1434 -2.77869 -1.41876 -0.283422 0.0350411 -0.0794369 0.000752656 -0.00146076 -0.00216288 0.00296185 -0.00586998 -0.00865076 1.25048e-05 -3.63139e-05 -4.91157e-05 
26.982 1 16 12.1855 2.09603 2.02683 0.0370657 0.806929 -2.01947 0.00591315 -0.46521 -0.100767 0.000689852 -0.00208679 -0.00148528 0.00267123 -0.00839495 -0.00605509 1.64975e-05 -4.97222e-05 -3.28972e-05 
26.982 1 51 10.1845 4.1179 1.96829 -8.86508 -0.157646 -2.26337 -0.278721 -0.14026 -0.0964856 6.938e-05 -0.00022387 -0.000417605 0.000146261 -0.000795884 -0.0016226 -2.84481e-06 -7.05571e-06 -8.9941e-06 
26.982 1 53 12.238 4.04254 -0.0932624 -1.01487 -4.8643 2.25234 -0.192886 0.138802 0.057374 0.000560223 -0.000741796 -0.00276996 0.00229201 -0.00290133 -0.0110374 1.68532e-05 -2.11245e-05 -6.30473e-05 
26.982 1 210 10.1005 2.06063 3.94456 -2.75204 -0.536244 -3.22854 -0.163039 0.0202605 -0.201785 4.69411e-05 -0.000851165 -0.000723142 0.000113499 -0.00352459 -0.00293629 -4.77319e-06 -2.01273e-05 -2.13529e-05 
26.982 1 213 12.0299 0.037646 3.99264 -0.64743 0.963129 0.813651 0.475799 -0.078312 -0.194846 0.000205582 -0.00198147 -0.00214099 0.00073976 -0.00803957 -0.0084871 1.05682e-05 -4.92226e-05 -4.86314e-05 
26.982 1 253 12.1363 4.07322 3.99187 -1.49994 5.64234 1.66601 0.130038 -0.0698105 0.234026 2.80548e-05 -0.000141282 -7.69676e-05 0.000147242 -0.000366651 -0.000249257 5.08286e-06 -4.26457e-06 4.60709e-06 
26.982 1 20 16.037 1.83488 2.10846 -0.926799 3.99606 -0.212121 0.564062 0.731569 -0.405962 -0.00120099 -0.00207706 -0.000947632 -0.00476425 -0.00830784 -0.003747 -1.92435e-05 -4.55655e-05 -2.40308e-05 
26.982 1 55 14.131 4.0781 2.01427 -4.85896 0.966093 0.934499 0.154131 -0.00662596 0.0826923 4.67473e-05 -0.000880229 -0.000929496 -2.26724e-05 -0.00341114 -0.00370287 4.87186e-06 -1.70122e-05 -1.76262e-05 
26.982 1 57 16.0421 4.06941 -0.036783 5.28572 2.1577 -2.75841 0.37338 0.153005 0.251203 -0.000600956 -0.000786455 -0.00275933 -0.00227455 -0.00313749 -0.0111114 -1.29581e-05 -1.75743e-05 -5.74757e-05 
26.982 1 214 14.1457 1.9933 4.21176 0.362956 3.59309 -4.77331 -0.0416216 -0.170944 -0.161308 0.000495187 -0.00149289 -0.000908491 0.00220459 -0.00588733 -0.00362326 9.88033e-06 -3.14657e-05 -1.65102e-05 
26.982 1 257 16.1744 4.05728 3.89347 5.34698 -0.299432 1.50648 -0.0492147 -0.0359049 0.330569 -3.15926e-05 -0.000262588 -5.87096e-05 -4.20233e-05 -0.00100275 -0.000200028 -4.30755e-06 -4.96145e-06 3.68176e-07 
26.982 1 218 18.2746 1.99059 4.04681 7.07563 0.875114 -4.8119 -0.168547 0.138997 -0.786144 -2.83719e-05 -0.0014117 -0.000109846 -4.55744e-05 -0.00566543 -0.000509747 -1.94445e-06 -3.20207e-05 -1.97321e-05 
26.982 1 18 18.1553 2.31014 -0.0878729 -4.1943 2.79272 2.29629 0.211961 -0.681542 0.234058 -0.000764616 -0.000934612 -0.00267031 -0.00306317 -0.00363901 -0.0105656 -1.57674e-05 -2.29999e-05 -5.53986e-05 
26.982 1 19 18.2131 -0.0552688 1.83632 4.22216 0.526041 -4.86377 -0.169973 0.124217 0.315628 -0.000642795 -0.00270771 0.000187195 -0.002414 -0.0107325 0.000755685 -1.61248e-05 -5.48488e-05 3.84752e-06 
26.982 1 21 20.075 0.107199 -0.217713 -4.81994 -1.64534 2.00691 0.368829 -0.183502 0.180941 0.000355175 -0.00211202 -0.00133598 0.00146003 -0.00835716 -0.00524857 7.81973e-06 -4.36367e-05 -3.74904e-05 
26.982 1 22 22.2328 2.04123 0.0634493 1.55077 -0.380017 0.135376 0.355565 -0.439543 -0.34912 9.62604e-06 -0.000827231 -0.00209619 -9.57796e-06 -0.00329931 -0.00844403 7.06127e-06 -2.28317e-05 -4.79072e-05 
26.982 1 24 20.2652 1.9021 1.92712 -2.27195 -0.996035 -1.2229 -0.378272 0.458099 0.0768178 0.000517094 -0.00146909 0.00028222 0.0019822 -0.00594973 0.00110034 5.1398e-06 -2.855e-05 7.55602e-06 
26.982 1 59 18.1564 4.02535 1.98743 4.60874 0.432642 0.311313 0.119979 -0.203567 -0.00620218 -2.17437e-05 -0.000117639 -0.000369702 -9.25899e-06 -0.000516231 -0.00146472 4.14374e-07 -8.84151e-06 -9.29427e-06 
26.982 1 61 20.4241 4.00666 -0.158727 4.19865 -0.039689 -4.81934 -0.54699 0.154277 0.163165 -1.92215e-05 9.66281e-05 -0.00277339 5.79445e-06 0.000378246 -0.0110573 -4.78646e-06 3.48061e-06 -6.03447e-05 
26.982 1 63 22.3678 4.06411 2.07258 -0.650428 -0.462273 4.14701 -0.0802156 -0.346447 -0.340593 7.16338e-06 -0.000150242 -0.000361319 -7.62316e-06 -0.000528607 -0.00137991 2.95303e-07 -7.29228e-06 -1.12851e-05 
26.982 1 222 22.1449 1.84655 3.99706 -4.78517 -3.89164 -2.1925 0.377022 0.679438 0.06051 -0.000550562 -0.00142999 -0.000638807 -0.00230993 -0.00562768 -0.00255317 -1.06856e-05 -2.31314e-05 -1.28355e-05 
26.982 1 261 20.2179 4.11734 3.91921 4.36413 -0.248856 -0.114851 0.493192 -0.429668 0.125511 2.71718e-05 -0.000215111 -3.20421e-05 0.000121206 -0.000835795 -0.000168719 9.01462e-06 -9.2494e-06 -1.63781e-06 
26.982 1 25 24.2319 -0.10704 -0.0625106 -1.73978 -0.0406227 -4.90612 0.365856 -0.0431657 0.543659 -0.000412678 -0.00206874 -0.00145387 -0.00178455 -0.00826612 -0.00584788 -8.96959e-06 -4.49218e-05 -3.16448e-05 
26.982 1 26 26.2481 1.86489 0.170808 1.05768 2.01377 -1.20831 0.630371 0.225213 -0.140265 0.000572126 -0.000890243 -0.00269479 0.0022895 -0.00347608 -0.0107779 2.03585e-05 -1.73326e-05 -5.60349e-05 
26.982 1 27 26.427 -0.0732453 2.08521 -1.10401 -0.640803 2.73146 -0.245297 0.24709 -0.156638 0.00112387 -0.00271756 -0.000346356 0.00452828 -0.0108297 -0.00128313 2.69003e-05 -5.80937e-05 -4.69466e-06 
26.982 1 28 24.2164 1.84744 2.06041 -2.91953 -4.02283 2.2339 0.243265 0.42626 -0.0282434 -0.000597987 -0.000953762 -0.000307783 -0.00231058 -0.00375783 -0.00120966 -7.56567e-06 -1.58748e-05 -6.54287e-06 
26.982 1 65 24.4339 3.95339 -0.0829622 0.0554581 0.433864 0.846092 -0.430962 0.182961 0.310524 -1.69048e-05 9.75065e-05 -0.00276367 1.16429e-06 0.000415798 -0.011055 -3.45099e-06 4.56068e-07 -6.10362e-05 
26.982 1 67 26.2839 4.03914 2.14906 4.22787 0.480816 1.12982 0.0165122 -0.615231 -0.0725795 6.14568e-06 -9.56361e-06 -0.000360879 0.000148725 -7.04342e-05 -0.00143801 9.85854e-07 -1.36202e-05 -8.77707e-06 
26.982 1 225 24.1654 -0.109677 3.90804 2.31405 -1.58005 0.237172 0.70071 -0.111606 0.61432 -0.000585484 -0.00206978 -0.00131831 -0.00232438 -0.00819868 -0.00527728 -3.84371e-06 -4.89925e-05 -2.1155e-05 
26.982 1 226 26.3855 1.97018 4.19806 1.45957 6.85978 0.506707 -0.172707 -0.145787 -0.624403 0.000586586 -0.000927012 -0.000131844 0.00239996 -0.00360999 -0.00048465 1.15535e-05 -2.42257e-05 -1.42178e-05 
26.982 1 265 24.2999 3.99143 4.07709 -1.25913 3.72282 -0.756113 -0.201184 -0.312636 -0.208501 -2.4935e-05 -8.77809e-05 -5.92362e-05 -0.000158329 -0.000243762 -0.000258348 -4.37979e-06 -9.56265e-06 -4.75294e-06 
26.982 1 30 30.5673 2.16841 -0.149523 3.43359 -3.51669 1.75369 -0.00668065 -0.754884 0.385941 0.000183553 -0.00197522 -0.0021336 0.00066241 -0.00795698 -0.00850099 1.4733e-06 -4.78611e-05 -4.75024e-05 
26.982 1 32 28.4586 2.07075 2.13116 0.00437791 -0.691857 -0.772558 -0.0117392 -0.25938 -0.308969 0.000681785 -0.00207853 -0.000328984 0.00261335 -0.00828521 -0.00131139 1.47313e-05 -5.04524e-05 -8.11735e-06 
26.982 1 69 28.4422 3.86291 0.00784926 3.02027 -4.35594 -1.04985 -0.355449 0.355245 0.112814 0.000110907 -6.70609e-05 -0.00277528 0.00031108 -0.000216187 -0.011055 -6.99803e-06 1.31514e-06 -5.97642e-05 
26.982 1 71 30.4897 4.05259 1.9071 -0.200606 3.56125 1.61632 -0.220825 0.0862138 0.195482 0.000123305 -0.000214127 -0.000419007 0.000383305 -0.000819334 -0.00163484 -3.23779e-06 -3.98137e-06 -7.59717e-06 
26.982 1 230 30.6413 2.10871 4.18724 -1.90268 3.06201 -2.69507 -0.657798 -0.352736 -0.738882 -1.99527e-06 -0.00205062 -0.000732984 5.8044e-05 -0.0081257 -0.00293291 -9.44635e-06 -4.40822e-05 -2.31569e-05 
26.982 1 269 28.4455 4.0298 4.01468 -6.42032 -1.63484 -1.35217 -0.259722 -0.266825 0.397597 5.71854e-05 -0.000221194 -5.05359e-05 7.20904e-05 -0.000893316 -0.000198405 -1.58753e-06 -1.17179e-05 5.30482e-06 
26.982 1 35 34.642 0.0207101 1.77779 -2.90012 -2.22753 2.40617 -0.476974 -0.26365 0.407933 -0.00053964 -0.00206388 -0.00153475 -0.00216157 -0.00825027 -0.00609155 -1.60515e-05 -4.54434e-05 -3.16181e-05 
26.982 1 36 32.4918 2.10359 1.95049 -0.36445 -4.77264 3.0496 -0.148993 -0.566857 0.0428281 3.05255e-05 -0.00204063 -0.000972505 0.000105695 -0.00829897 -0.00381996 -4.86312e-07 -5.31212e-05 -2.04091e-05 
26.982 1 73 32.5714 4.11925 -0.132728 -1.71265 -0.0396125 1.71097 -0.382121 -0.0661393 0.343463 0.00126342 -5.12383e-05 -0.00273186 0.00504064 -0.000159286 -0.011033 2.7306e-05 3.87998e-06 -6.32489e-05 
26.982 1 75 34.3779 4.08634 2.02607 2.75672 -3.24916 4.92175 0.612812 0.00245181 -0.173741 0.00057796 -0.000128752 -0.00211086 0.00241017 -0.000501649 -0.00835732 2.26635e-05 -8.74104e-07 -4.36515e-05 
26.982 1 234 34.5631 1.98838 3.92771 -0.14423 1.05324 0.892344 0.125172 0.202372 -0.0613181 -0.000537211 -0.000867617 -0.000378475 -0.00222674 -0.00346337 -0.00148546 -1.66791e-05 -2.40673e-05 -8.16371e-06 
26.982 1 273 32.3911 4.1333 3.9137 1.01758 3.43726 0.10037 0.160309 0.119688 0.569749 3.96793e-05 -0.000200576 -0.000121626 0.000131988 -0.00073854 -0.000447079 2.82544e-06 -1.60782e-06 7.64561e-06 
26.982 1 4 40.6965 1.98246 1.77457 1.09157 2.35607 -0.171322 -0.196473 0.332276 0.147803 -0.00114722 -0.00202456 -0.000972742 -0.00456728 -0.00818036 -0.00388043 -2.78221e-05 -4.11463e-05 -1.74085e-05 
26.982 1 40 36.5145 1.96484 1.69125 1.75684 0.830674 0.750655 0.0665693 0.136908 0.464593 0.000570055 -0.000926943 -0.00267757 0.0022402 -0.00366442 -0.0106836 1.08688e-05 -1.32406e-05 -5.57018e-05 
26.982 1 79 38.3864 4.08996 1.94422 4.27571 0.167178 1.6532 0.29134 -0.101929 -0.112183 -0.000644655 -0.000854955 -0.00150386 -0.00251775 -0.00334143 -0.00610537 -1.04355e-05 -1.68646e-05 -3.60452e-05 
26.982 1 237 36.6906 -0.138296 3.87265 -0.233676 -0.291546 0.216118 -0.58726 0.443641 -0.091714 0.000583232 -0.00200245 -0.00152894 0.00232124 -0.00802074 -0.00617233 7.70626e-06 -4.36333e-05 -3.467e-05 
26.982 1 238 38.5013 2.0612 3.74825 -2.60001 0.885187 -0.808418 0.322579 -0.301972 0.123924 0.000545703 -0.00143711 -0.000863042 0.00214437 -0.00570242 -0.00351496 1.65655e-05 -3.23954e-05 -1.81614e-05 
26.982 1 277 36.4889 4.00427 4.07728 -3.84766 1.46401 -1.30233 -0.0691809 0.167825 -0.383851 -9.99352e-06 -1.2738e-05 -0.000285534 -7.28499e-05 -0.00015767 -0.00117439 -2.08639e-06 8.8849e-08 -1.11548e-05 
26.982 1 42 1.80166 5.94992 -0.134538 2.54553 -1.6947 -5.70324 0.180227 -0.0425159 0.124121 -0.000260803 -0.00049872 -0.00213301 -0.00109221 -0.00197972 -0.00850934 -5.34587e-06 -1.18198e-05 -4.99411e-05 
26.982 1 48 3.90427 6.08178 1.81683 -6.92374 2.82182 0.437475 -0.0267105 -0.421379 0.539301 -0.000218343 -0.0005489 -0.000908015 -0.000915353 -0.00213117 -0.00371016 -4.10864e-06 -1.42748e-05 -1.15748e-05 
26.982 1 81 -0.152127 7.99102 -0.0573849 -4.33471 -4.19189 0.0158014 -0.397871 0.250151 -0.0253202 -0.00140972 0.00011596 -0.00141213 -0.00557309 0.000408549 -0.00574935 -3.10159e-05 5.18789e-06 -3.21558e-05 
26.982 1 83 1.81516 7.85696 1.98765 11.3568 2.93088 -0.678358 -0.00293259 0.617171 0.0600686 -0.00137669 2.20241e-05 -0.000350258 -0.0054887 -3.31593e-05 -0.0014032 -3.26684e-05 7.36203e-06 -3.82635e-06 
26.982 1 85 3.7923 7.97128 -0.118268 -0.259678 2.76041 0.816389 -0.269568 0.292002 0.0147125 -4.59743e-05 0.00102812 -0.00274783 -0.000226507 0.00405891 -0.0109948 -2.59785e-06 3.08038e-05 -6.1745e-05 
26.982 1 242 1.96124 5.89563 4.06693 0.261869 4.79087 -3.88137 -0.153136 0.158812 0.0592396 -0.00137994 0.000536358 -0.000691389 -0.00544122 0.00211903 -0.0027593 -2.84923e-05 1.12257e-05 -9.18968e-06 
26.982 1 285 3.93491 7.9379 4.10057 -3.26562 -0.850901 -0.739064 -0.344827 -0.00921701 -0.22549 -0.000247043 6.25857e-06 -6.49327e-05 -0.000957235 2.76304e-06 -0.00031985 -1.18288e-05 -2.02795e-07 -3.25045e-06 
26.982 1 46 5.90265 6.16563 0.00692599 -2.20023 0.0563001 -0.853776 0.22375 -0.587279 -0.437689 -0.000581863 -0.000411742 -0.00279325 -0.00235019 -0.00164864 -0.0111343 -4.97365e-06 -1.32883e-05 -6.56156e-05 
26.982 1 52 8.08366 5.92876 2.00786 -0.0294932 5.57322 3.6546 -0.461669 0.169352 -0.619573 2.00853e-05 0.000111219 -0.000432019 5.79652e-05 0.000460419 -0.00159175 -5.6988e-06 1.53987e-06 -2.06912e-05 
26.982 1 87 6.00087 7.9753 2.02598 0.962583 -1.63186 1.06575 -0.0234779 -0.239152 0.0640463 -2.96816e-05 0.000566438 -0.000995671 -0.000104388 0.00223711 -0.00389982 -1.54264e-06 1.13793e-05 -2.30259e-05 
26.982 1 89 7.89577 8.05867 0.00844616 5.43525 -1.65428 -1.00953 0.491179 -0.0551082 -0.402689 0.000116959 0.0011406 -0.00279453 0.000555203 0.00455851 -0.0111988 1.04691e-05 2.21488e-05 -6.49263e-05 
26.982 1 246 6.01361 6.04832 3.98353 1.76912 -4.43676 1.09565 -0.145757 -0.371393 -0.10174 -1.07118e-05 -1.2933e-06 -3.86743e-05 -3.0132e-05 -6.87974e-05 -0.000208902 -4.12754e-06 -7.48995e-06 -3.0446e-06 
26.982 1 289 8.01534 7.99178 4.0461 -0.539018 -6.02015 -7.82403 -0.131105 0.401326 0.00162287 -2.6334e-05 2.53777e-05 -0.000100177 -1.76501e-05 1.20196e-05 -0.000537272 -4.22887e-07 9.40339e-06 -1.28979e-06 
26.982 1 92 8.00008 10.051 1.95014 2.85427 1.09373 0.508316 -0.0712154 -0.114215 0.247544 5.35344e-05 -1.11342e-05 -0.00152681 0.000124115 -1.83017e-05 -0.00603865 3.81438e-06 -1.62159e-06 -3.17389e-05 
26.982 1 286 5.96016 9.89325 3.89967 4.52408 4.04722 -0.0368446 0.251306 0.417501 0.722785 -2.63042e-05 3.50892e-05 -0.000181634 -2.2437e-05 0.000176942 -0.000759975 4.19227e-06 6.92789e-06 8.07522e-06 
26.982 1 50 10.2483 5.86747 -0.254043 1.18285 1.05416 -1.62881 -0.553808 0.535537 0.0893289 0.000584578 0.000742363 -0.00278216 0.00229802 0.00296092 -0.0111379 -1.01237e-06 2.40889e-05 -6.45109e-05 
26.982 1 56 12.0366 6.08898 1.88673 3.89494 -5.383 -0.472842 0.331985 0.070518 0.102587 7.08179e-06 0.000642574 -0.00101166 6.87685e-05 0.00248014 -0.00404753 5.30393e-06 1.54539e-05 -1.92193e-05 
26.982 1 91 9.95181 7.83203 1.95746 1.2573 -1.23855 -2.88902 0.231866 0.910772 -0.360753 0.000540203 0.00063692 -0.00159787 0.00214181 0.0025108 -0.00633026 1.39853e-05 2.95105e-05 -3.65988e-05 
26.982 1 250 10.0132 6.17317 4.06638 2.45098 -0.419792 2.67528 0.265771 -0.491647 0.1403 5.29103e-05 -1.4654e-05 -3.4548e-05 0.000183134 -1.62574e-05 -0.000129271 5.53539e-06 -5.96764e-06 4.15067e-06 
26.982 1 293 12.0178 8.016 3.98682 1.60537 -4.24923 3.15912 0.0319923 0.531859 0.253706 8.32265e-06 3.44154e-05 -0.000175856 4.983e-05 8.65388e-05 -0.000752434 -2.2544e-07 9.08503e-06 5.16961e-07 
26.982 1 54 14.1241 6.14112 0.0351777 0.626162 6.96573 -0.381608 -0.223652 0.035497 -0.0659782 -0.000543589 0.000587835 -0.00284487 -0.00214265 0.0023782 -0.0112811 -1.07655e-05 1.34683e-05 -6.03644e-05 
26.982 1 60 16.2434 6.19118 2.03397 1.11096 -1.53838 -0.0260659 -0.487081 -0.4115 -0.220572 -2.82278e-05 5.78588e-05 -0.000445588 -1.88551e-05 0.000310191 -0.00174919 -7.57231e-06 -9.48065e-07 -1.24333e-05 
26.982 1 95 13.9535 8.24548 1.97272 -2.77455 3.87082 7.0686 0.598173 -0.37897 0.0253012 -0.000538677 0.00070969 -0.0016027 -0.00216951 0.00285571 -0.00629381 -3.23052e-06 9.36417e-06 -3.49472e-05 
26.982 1 97 16.0099 8.10178 -0.0234732 -0.870782 4.41082 -1.21747 0.669348 0.212751 0.633179 -9.02953e-05 0.00131793 -0.00279448 -0.000135391 0.00530731 -0.0111551 7.30094e-06 2.98673e-05 -6.07992e-05 
26.982 1 254 13.9985 6.11731 4.00352 2.21434 -2.96529 3.77702 0.515954 -0.250742 -0.124941 3.22279e-05 -1.0816e-05 -4.19588e-05 4.68949e-05 -6.37299e-05 -0.000141929 7.55291e-06 -4.2806e-06 -2.65446e-06 
26.982 1 297 16.1 7.9047 4.04251 0.632453 4.22537 1.85641 0.279923 0.595245 -0.0998928 -9.04247e-06 9.02577e-05 -0.000100983 3.22689e-05 0.000347764 -0.000454353 3.56445e-06 7.38222e-06 -6.44399e-06 
26.982 1 58 18.2129 6.00624 0.0825461 1.37086 -1.19165 0.151378 -0.117335 -0.128392 -0.529803 0.000555698 0.000637256 -0.00282921 0.00224074 0.00271879 -0.0112049 9.17138e-06 1.8691e-05 -6.66576e-05 
26.982 1 62 22.3286 6.07953 -0.165068 -3.12297 0.394525 -0.179462 0.135789 -0.281786 -0.0432967 3.1541e-05 0.00131977 -0.00280206 -2.79644e-05 0.00524451 -0.0111634 4.10791e-06 2.40558e-05 -6.41975e-05 
26.982 1 64 20.335 5.93783 1.82353 0.950998 1.94541 1.69562 -0.102953 0.291922 0.443908 2.97265e-05 0.000649771 -0.000929329 0.000124086 0.0026853 -0.00377809 -1.74584e-06 2.09084e-05 -1.70209e-05 
26.982 1 99 18.2681 8.03046 2.04839 4.36669 -1.79768 -2.36722 -0.165213 0.145035 -0.0269477 0.000591486 0.000730659 -0.00151945 0.00229422 0.00282453 -0.00611286 1.09723e-05 1.66927e-05 -3.54468e-05 
26.982 1 103 22.2726 8.07563 1.71202 -1.56836 -1.39518 0.234332 0.0823858 0.0133162 0.981922 -9.12328e-06 0.000689313 -0.00214032 -9.87533e-05 0.00271018 -0.00851176 -2.58314e-06 2.18928e-05 -4.03285e-05 
26.982 1 258 18.2634 5.93988 4.06508 -2.62496 1.14487 0.21503 -0.152898 0.491271 -0.137739 3.30661e-05 4.82492e-05 -2.92197e-05 7.52808e-05 0.0002006 -0.000181504 -2.05343e-06 8.73191e-06 -3.6922e-06 
26.982 1 262 22.3684 6.07495 3.93387 1.77569 -0.704478 -3.48642 -0.232891 0.135535 -0.0787362 -7.82529e-06 8.09989e-05 -9.59604e-05 -1.75882e-05 0.000247659 -0.000414891 -4.98532e-06 3.91441e-06 -5.01643e-06 
26.982 1 301 20.3052 7.94221 4.05646 0.263989 1.57591 -0.069092 0.306216 0.337466 -0.668716 4.36258e-05 1.97795e-05 -0.000209178 0.000109727 0.00014986 -0.000938458 4.96788e-06 5.32772e-06 -1.82101e-05 
26.982 1 298 18.1173 10.109 3.87146 -8.29086 -3.61491 -3.49515 0.391596 -0.29209 0.0840144 3.29426e-05 -3.7513e-06 -0.000281932 -1.36307e-05 -6.65523e-05 -0.0012164 6.45883e-06 -5.81627e-06 -7.8081e-06 
26.982 1 66 26.3994 5.91611 0.188065 -6.48336 3.75491 -2.06988 0.0623357 0.114335 -1.05992 -4.32276e-05 0.00120091 -0.00278693 -0.000214181 0.00478383 -0.0111794 4.24121e-06 2.52287e-05 -7.29998e-05 
26.982 1 68 24.3348 6.05602 1.90532 -0.578978 0.444954 0.502457 -0.216302 -0.0295313 0.466398 -3.88584e-05 0.000656239 -0.000956157 -0.000124071 0.0026377 -0.00383131 -4.66435e-06 1.77264e-05 -1.86413e-05 
26.982 1 107 26.284 8.15664 1.90122 -1.71079 -2.12599 -0.0290718 0.164445 -0.289889 0.784809 -3.23014e-05 9.92681e-05 -0.00156102 -0.000237988 0.000294613 -0.00618212 -6.9388e-07 -4.37223e-06 -3.11976e-05 
26.982 1 266 26.1797 6.04154 4.15139 2.26308 -1.51846 -3.4112 0.230086 0.163676 -0.309159 -1.62045e-05 6.4342e-05 -6.93644e-05 1.64839e-05 0.00021811 -0.00034772 2.28418e-06 3.22005e-06 -5.89045e-06 
26.982 1 305 24.3139 8.22746 4.03748 2.86284 -2.19765 1.11098 0.0978831 -0.575174 -0.463799 -4.52134e-05 3.27411e-06 -0.00024613 -9.75904e-05 5.18718e-05 -0.000922082 -1.41124e-06 -7.96664e-06 -1.43496e-05 
26.982 1 106 26.463 10.0825 0.0791951 -6.88297 1.43659 6.18901 -0.353202 0.160093 -0.806199 -0.00074012 -0.000390552 -0.00275328 -0.0030556 -0.00163509 -0.0110212 -2.10972e-05 -9.22694e-06 -7.24293e-05 
26.982 1 108 24.2995 10.108 2.1592 1.56567 -0.568721 -1.50464 -0.0619948 0.0866076 -0.856941 -0.00058204 3.59843e-05 -0.00219412 -0.00231851 0.000189404 -0.00870922 -1.58243e-05 1.5708e-06 -5.63116e-05 
26.982 1 306 26.3145 10.1518 3.92534 5.00172 0.755169 -1.92712 0.250138 -0.078503 0.158155 2.23618e-05 -1.76671e-05 -0.000149414 6.52008e-05 -3.19286e-05 -0.000568417 3.58414e-06 -1.53013e-06 -1.42491e-06 
26.982 1 70 30.3262 6.17172 0.113729 -3.43557 -4.66226 4.75415 0.0161271 -0.421154 -0.460644 0.000233555 0.00116496 -0.0027936 0.000773975 0.00460559 -0.0111623 -3.99406e-06 2.0128e-05 -6.56415e-05 
26.982 1 72 28.1341 6.07118 2.15563 -0.131106 5.71864 2.66885 0.622704 0.0365626 -0.209862 1.80599e-05 0.000638249 -0.000916417 3.09417e-05 0.002534 -0.00365667 1.04891e-05 1.15657e-05 -2.47377e-05 
26.982 1 111 30.3723 8.12038 1.98892 4.15227 0.740539 0.583396 -0.303347 0.010493 0.0905064 3.79181e-05 4.24241e-06 -0.00151038 0.000135282 -1.94526e-05 -0.00612859 -5.82677e-06 -5.6634e-07 -3.23364e-05 
26.982 1 270 30.1674 6.10548 3.93091 3.42341 0.823595 3.8182 0.727968 0.00949912 0.128351 4.95558e-05 1.54281e-05 -0.000123711 0.000229357 9.17337e-05 -0.000380475 1.24989e-05 4.2508e-07 1.32636e-07 
26.982 1 309 28.227 8.08399 4.11579 -2.39935 -2.2644 0.949552 0.146809 -0.0331371 -0.517263 2.62949e-05 6.25579e-05 -0.00016023 -1.61434e-07 0.000104732 -0.000641885 3.16559e-06 1.40108e-07 -1.13194e-05 
26.982 1 112 28.4032 10.1802 1.91624 -0.733977 -0.34663 0.357262 0.296492 -0.351871 0.241638 -5.23535e-05 -0.000576509 -0.000976576 -0.000242072 -0.00222297 -0.00384898 5.5631e-06 -2.01711e-05 -1.99253e-05 
26.982 1 76 32.402 6.16662 1.90823 -1.74869 -3.17209 -4.84876 0.0292249 -0.356761 0.380142 0.000536096 0.000522717 -0.00156916 0.00223266 0.00210335 -0.00622131 1.3592e-05 1.11214e-05 -3.13913e-05 
26.982 1 115 34.4379 8.00408 2.05609 3.47689 -1.41442 4.53458 0.0811765 -0.0983331 0.0795573 -0.000513934 -0.000568728 -0.00149396 -0.0020233 -0.0022939 -0.00601236 -9.25035e-06 -1.35918e-05 -3.17392e-05 
26.982 1 274 34.3611 6.06357 4.12654 -5.30889 -4.16396 2.38311 0.3929 0.0451984 -0.199363 8.61784e-05 -1.71318e-05 -0.000242163 0.000120593 -0.000137017 -0.000888492 6.09654e-06 -1.70411e-06 -5.95528e-06 
26.982 1 313 32.4013 8.05574 4.13346 5.26492 -2.9728 6.77021 -0.10514 0.0075409 -0.25282 4.59443e-05 1.56164e-06 -0.000201858 0.000215735 -7.38134e-05 -0.000707963 -3.09501e-06 -2.73155e-07 -6.81885e-06 
26.982 1 114 34.4915 10.0017 0.218771 3.44847 2.12787 -3.89646 -0.0329274 0.651424 -0.626537 0.000121624 2.41617e-05 -0.00279113 0.000573395 0.000121385 -0.0112038 -1.48592e-06 6.93585e-06 -6.89094e-05 
26.982 1 116 32.3685 9.99349 1.97152 -1.00745 -1.99448 1.34763 0.113745 0.373637 0.273213 8.25527e-05 -0.000592014 -0.00101257 0.000238902 -0.00234779 -0.00395279 1.85026e-06 -8.47016e-06 -2.22331e-05 
26.982 1 44 40.6406 5.979 2.05809 -1.92797 3.07821 5.33832 -0.0812695 0.0595393 -0.31441 0.000689554 -0.00184278 -0.000386119 0.00260585 -0.00736481 -0.00154281 1.27037e-05 -4.4659e-05 -1.11669e-05 
26.982 1 281 40.5664 7.85517 4.15396 -2.91422 0.0575729 0.190616 0.143827 0.67632 -0.539764 3.47389e-05 -0.000180211 -0.000103912 9.33294e-05 -0.000701709 -0.000419839 3.04628e-06 5.17577e-06 -1.03082e-05 
26.982 1 78 38.5036 5.9605 -0.105222 0.357112 0.42152 4.1831 -0.0821217 0.509948 0.127336 -7.59041e-05 -0.00121853 -0.00273114 -0.000338371 -0.00483378 -0.0108679 -2.82456e-06 -2.17293e-05 -5.85588e-05 
26.982 1 80 36.42 6.1369 2.20531 6.84227 7.49053 4.4801 0.262868 -0.309229 -0.202297 -0.000552385 -0.000676527 -0.00152566 -0.00205637 -0.00252785 -0.00617799 -5.34843e-06 -1.42974e-05 -3.18378e-05 
26.982 1 117 36.4296 8.05086 0.121531 -4.68829 1.84402 -1.17522 0.467976 -0.0875947 -0.467164 -8.82615e-05 -2.6837e-07 -0.00278808 -0.000477993 4.93553e-05 -0.0111425 2.62072e-06 -4.71723e-06 -6.53713e-05 
26.982 1 119 38.6219 7.9195 1.97029 1.7589 -1.38773 2.78052 -0.327805 -0.0169509 0.195787 2.97861e-05 0.000562747 -0.000977556 0.000125629 0.00216504 -0.00389868 -3.35365e-06 9.82293e-06 -1.99254e-05 
26.982 1 278 38.5888 5.92096 4.1045 3.72254 -2.83697 -1.59246 -0.256935 0.567382 -0.154146 0.000616801 -0.000647507 -8.49674e-05 0.00245341 -0.00257491 -0.000471942 1.17233e-05 -7.87882e-06 -4.29363e-06 
26.982 1 317 36.5826 8.29011 4.0775 -0.353873 5.85389 -5.55886 0.104818 -0.800045 -0.392197 -3.29962e-05 -6.02076e-05 -9.76065e-05 -5.51168e-05 -6.57206e-05 -0.0004478 4.60472e-06 -1.19257e-05 -1.07621e-05 
26.982 1 120 36.5927 10.1774 1.95082 3.46124 2.17349 1.66817 -0.0850966 -0.2773 0.408936 0.0005817 0.000556161 -0.00159094 0.00241018 0.00228809 -0.00628638 1.76026e-05 1.00472e-05 -3.74873e-05 
26.982 1 318 38.5971 10.1607 4.03244 -2.50768 -0.410978 0.913043 0.0892158 -0.224808 0.177067 5.6891e-05 -4.10836e-05 -0.000273903 0.000191613 -0.000146146 -0.00109634 7.1863e-06 -2.62085e-06 -5.24915e-06 
26.982 1 88 4.02826 9.91535 2.0638 -0.611951 4.39261 2.77966 -1.27522 0.0640102 -0.0315911 -0.000255954 1.22328e-05 -0.00147917 -0.00104744 0.000192679 -0.00593675 -1.29436e-05 2.23933e-06 -4.05618e-05 
26.982 1 122 1.87943 14.0925 0.0185914 1.6265 1.3122 1.14944 -0.177677 0.240025 -0.0575346 -0.00200621 -5.35467e-05 -0.00208538 -0.00797508 -0.000215355 -0.00838476 -4.51641e-05 -3.32813e-06 -4.0128e-05 
26.982 1 123 1.93276 11.8727 2.08899 2.07465 -0.618642 1.53352 -0.186624 0.50627 -0.497416 -0.00195745 -0.00121308 -0.000946575 -0.00773824 -0.00481354 -0.00375069 -4.33097e-05 -1.39552e-05 -2.86373e-05 
26.982 1 125 3.93683 12.1212 -0.116451 -0.700717 6.18676 2.66017 -0.377725 -0.18055 0.566981 -0.000212696 -0.0011739 -0.00275034 -0.000809202 -0.00468994 -0.0109388 -6.31106e-06 -2.7026e-05 -5.73543e-05 
26.982 1 128 3.92264 14.1108 1.96188 -4.78806 1.7534 -3.94681 -0.253363 0.0923872 0.201807 -0.000306688 -4.72563e-05 -0.000427588 -0.00135664 -0.000195298 -0.00169623 -1.23126e-05 8.44726e-07 -4.99107e-06 
26.982 1 282 1.79926 9.96489 3.945 6.22921 2.13644 -3.59916 -0.179743 -0.251168 0.195169 -0.00200352 -2.62709e-05 -0.000842648 -0.00798273 9.30866e-06 -0.00344475 -4.63416e-05 -3.64239e-06 -1.61346e-05 
26.982 1 322 1.81493 13.9672 4.08432 7.79219 1.66444 0.781592 0.394052 0.353933 -0.142891 -0.00146455 -0.000566088 -0.000729091 -0.00586719 -0.00242488 -0.00303724 -2.56844e-05 -8.22061e-06 -1.98345e-05 
26.982 1 325 4.01662 11.9639 3.98843 -2.52983 -1.19047 -3.43914 -0.27744 0.406488 0.252995 -0.000194615 -0.000126515 -0.000111998 -0.000923459 -0.000434193 -0.000527588 -8.33593e-06 8.57141e-06 2.51068e-06 
26.982 1 126 5.96666 14.2064 -0.0780216 2.76665 0.233789 3.35759 -0.644382 -0.0278085 0.341141 1.43263e-05 -0.000133055 -0.00280963 -5.17759e-05 -0.000548916 -0.0112242 -1.05985e-05 -5.0529e-06 -6.24687e-05 
26.982 1 127 5.88618 12.0955 1.97666 -2.08509 -5.51196 4.4079 0.248902 0.1468 -0.014682 8.77553e-06 -0.000638599 -0.000948404 -6.63278e-05 -0.00267355 -0.00376387 2.28784e-06 -1.0227e-05 -2.13317e-05 
26.982 1 129 7.90038 12.1131 -0.0650925 1.76338 -3.31471 2.45553 -0.1636 -0.178346 0.249546 1.61879e-05 -0.00118721 -0.00279639 9.21379e-05 -0.00472082 -0.0112176 -3.76293e-07 -2.72039e-05 -6.19338e-05 
26.982 1 132 7.91819 14.1746 1.99245 -4.55597 -3.06982 -1.35828 -0.07848 -0.278185 0.379506 5.4068e-06 -6.47289e-05 -0.000342869 -2.03891e-05 -0.000301701 -0.00145187 -2.26676e-06 -4.55862e-06 -3.19336e-07 
26.982 1 326 5.99572 14.2638 4.06785 2.11018 4.32377 1.69824 -0.348026 -0.428622 -0.232955 2.06364e-05 -2.30789e-05 -1.24049e-05 1.5525e-05 3.0338e-05 1.46299e-05 -6.97106e-06 -5.16551e-06 -4.33761e-06 
26.982 1 329 7.84962 12.0341 4.06974 -2.0689 -4.59093 -4.30977 0.220378 -0.0139623 -0.347676 1.35577e-05 -4.9476e-05 -0.000113209 -7.42035e-06 -0.000270631 -0.000465357 -5.31161e-07 -1.79561e-06 -5.77029e-06 
26.982 1 96 12.0478 10.0838 2.10888 1.02906 -2.26824 -0.503809 -0.347166 0.254187 -0.261003 0.000109703 -0.000512116 -0.00214157 0.00043041 -0.00214665 -0.00854739 -6.39881e-06 -8.95595e-06 -4.75889e-05 