ITEM: TIMESTEP
7500
ITEM: NUMBER OF ATOMS
4000
ITEM: BOX BOUNDS pp pp pp
-1.59851 42.0985
0.422564 40.0774
0.429572 40.0704
ITEM: ATOMS mass type id x y z vx vy vz fx fy fz xrad yrad zrad vxrad vyrad vzrad fxrad fyrad fzrad 
26.982 1 43 0.623333 4.13333 2.53541 6.35061 -2.6143 4.18968 -0.545216 0.496026 -0.352068 -0.209536 -0.148504 -0.319705 -0.057463 -0.0352458 -0.0841421 -1.42398e-05 1.98632e-06 -1.74353e-05 
26.982 1 202 0.729466 2.46215 4.67195 0.801149 4.42299 0.69277 -0.210959 -0.235041 -0.0027738 -0.196042 -0.204819 -0.177138 -0.0527077 -0.0431246 -0.0481695 -3.45823e-05 -2.31845e-05 -2.01101e-05 
26.982 1 4 -1.71903 2.38091 2.38776 -0.528642 1.18685 -5.44972 0.419722 -0.14411 0.200433 -0.200447 -0.265515 -0.293588 -0.056054 -0.0642309 -0.079762 -3.55045e-05 -1.95828e-05 2.01729e-05 
26.982 1 2 0.662201 2.27382 0.490259 0.621302 0.492933 -4.09388 -0.389712 0.276504 0.0112036 -0.147234 -0.190281 -0.366178 -0.0357419 -0.0577309 -0.100487 -5.4911e-07 -4.875e-06 -4.17599e-05 
26.982 1 8 2.79164 2.37914 2.5791 -0.907916 3.23743 2.55217 0.135449 0.0644088 0.341414 0.0830297 -0.324063 -0.296893 0.0204448 -0.0829109 -0.0920513 7.67577e-06 -5.20709e-06 -3.07611e-05 
26.982 1 205 2.8719 0.397523 4.52463 0.350545 -7.25081 2.50179 -0.0637366 -0.0854412 -0.0372526 0.0220948 -0.165569 -0.146218 0.00894951 -0.0724969 -0.0609667 -1.6488e-05 -4.51426e-05 -3.35091e-05 
26.982 1 1 -1.64955 0.209344 0.358346 4.58919 4.28187 -1.07334 0.0627554 0.58901 0.159728 -0.125987 -0.154128 -0.401789 -0.0292701 -0.0399261 -0.0996525 -1.26065e-05 -2.43699e-05 -1.25961e-05 
26.982 1 41 -1.67124 4.34003 0.434977 3.79543 3.25839 5.25199 0.206646 0.440061 0.38276 -0.107213 -0.151665 -0.282573 -0.0267704 -0.0353763 -0.0710949 -3.05181e-05 2.14505e-06 -4.082e-05 
26.982 1 245 2.70227 4.55111 4.37712 1.99916 -2.48026 1.0055 0.408251 -0.126324 0.461077 -0.014406 -0.0393035 -0.0437507 -0.00374641 -0.00826463 -0.0121627 5.93357e-06 -2.46524e-06 9.06277e-07 
26.982 1 47 5.00675 4.54624 2.53004 -4.47855 -1.58968 -0.877856 -0.166239 -0.266271 -0.0781901 -0.0368105 -0.0978757 -0.268211 -0.00858411 -0.0210294 -0.0823354 -2.62378e-06 -2.691e-05 -4.15928e-05 
26.982 1 206 5.11311 2.43319 4.51562 -0.792142 -2.1382 -3.53677 0.0028969 0.117252 -0.479388 -0.0290878 -0.331644 -0.182664 -0.00129568 -0.0781059 -0.0484197 6.37437e-07 -3.11188e-06 -1.5135e-05 
26.982 1 12 7.23076 2.29669 2.55281 0.746921 -0.960706 -1.53039 -0.0175983 0.641484 -0.14217 -0.0646292 -0.409468 -0.234249 -0.0228527 -0.0956912 -0.0668284 1.03546e-05 3.29632e-06 -4.35275e-05 
26.982 1 249 7.076 4.55256 4.46335 -2.34845 1.61499 1.41306 0.162665 -0.36601 0.0809071 -0.00280357 -0.0337957 -0.0293801 -0.00104028 -0.00793316 -0.00871666 4.16737e-06 -9.40701e-06 -3.53359e-06 
26.982 1 209 7.3364 0.331177 4.36736 -0.914113 -3.20845 2.13647 0.0587875 0.492146 0.0928348 -0.0178852 -0.277563 -0.265222 -0.00760427 -0.0768995 -0.0646496 9.56649e-06 -4.10322e-05 -3.19091e-05 
26.982 1 7 5.11284 0.322318 2.55123 -1.9719 5.10313 3.733 -0.356937 0.156397 0.159578 -0.0205411 -0.00866341 -0.327283 -0.013169 -0.0082951 -0.0930183 -9.97978e-06 -4.16394e-05 -1.95551e-05 
26.982 1 5 2.71036 0.506871 0.601821 0.4036 2.06235 0.883863 0.117401 -0.0855472 -0.365989 0.015498 -0.162439 -0.285891 0.00265416 -0.037673 -0.0578609 6.67577e-06 -3.40646e-05 -3.16132e-05 
26.982 1 9 6.96948 0.456839 0.519303 -0.0263167 -1.12344 -4.03024 0.589899 0.0428431 -0.445575 -0.0354359 -0.178589 -0.285446 -0.0201238 -0.0514638 -0.090142 1.35232e-05 -1.69737e-05 -4.05118e-05 
26.982 1 51 9.14412 4.44316 2.42206 -1.08945 -0.881875 -2.04723 0.546268 -0.133108 0.131362 0.003104 -0.0361127 -0.212163 0.0044117 -0.0090602 -0.06394 1.04312e-05 -1.96724e-05 -4.36113e-05 
26.982 1 210 9.46495 2.38596 4.42129 1.79561 -3.23019 0.192286 -0.0708861 -0.0383501 -0.320272 0.00132479 -0.275142 -0.147869 0.00458546 -0.0678064 -0.0327319 -2.03732e-06 -1.74354e-05 -2.76236e-05 
26.982 1 16 11.6056 2.50431 2.40838 -2.95225 -0.0551139 6.12874 -0.350381 0.317523 0.0946658 0.0800431 -0.373476 -0.268821 0.0217379 -0.093016 -0.0765025 -2.77338e-06 -1.04845e-05 -4.65961e-05 
26.982 1 213 11.7317 0.51374 4.34398 -1.96668 1.72789 -4.07958 -0.449335 -0.418388 -0.0396451 -0.00989502 -0.268033 -0.259929 -0.00038399 -0.0600643 -0.0605622 3.11651e-06 -4.92672e-05 -4.33212e-05 
26.982 1 13 11.6003 0.490036 0.489533 -1.74875 -2.05988 -4.50072 -0.297364 -0.182974 -0.557609 0.0187778 -0.202691 -0.148795 0.00554458 -0.0524802 -0.0430682 1.60294e-06 -1.83921e-05 -2.308e-05 
26.982 1 253 11.4761 4.52181 4.40164 1.85498 -1.41345 5.16318 0.0927695 0.0175011 -0.334715 0.00300502 -0.0341798 -0.0320305 0.000985298 -0.00952505 -0.0100152 2.32484e-06 2.50957e-07 -1.5974e-05 
26.982 1 55 13.5437 4.52279 2.43779 1.59455 -0.584929 -1.65756 0.194671 -0.198821 0.252978 -1.89151e-05 -0.103244 -0.31034 0.00267151 -0.0241958 -0.0917263 7.89429e-06 -5.84757e-06 -5.55318e-05 
26.982 1 214 13.7599 2.48427 4.4363 2.95748 -4.2822 -2.65022 -0.00660329 0.0499478 -0.221137 0.0454193 -0.318932 -0.161867 0.00558422 -0.0806707 -0.0413523 1.3094e-05 -2.75625e-05 -2.6723e-05 
26.982 1 20 15.9892 2.38413 2.44654 -2.02171 -3.40666 2.76261 -0.0647906 0.320946 0.134684 -0.132724 -0.402954 -0.227637 -0.0225633 -0.0993396 -0.0780324 -2.80858e-05 -2.68123e-05 -3.18062e-05 
26.982 1 257 15.8395 4.39159 4.45837 -0.0279874 7.59457 -4.8754 0.220955 0.299313 -0.419301 -0.00381878 -0.0437025 -0.0315031 -0.000462264 -0.0103284 -0.0113615 3.15373e-06 -2.05271e-08 -1.60295e-05 
26.982 1 218 18.239 2.38325 4.30209 -0.0447201 -1.65675 -3.20725 -0.367395 -0.17797 0.066902 -0.0349804 -0.299375 -0.10083 -0.00801653 -0.0756345 -0.0327919 -1.57239e-05 -1.6669e-05 -4.39582e-06 
26.982 1 59 18.0917 4.51922 2.44846 -1.83858 1.42076 -5.08439 0.0187647 -0.249117 0.0426866 0.015672 -0.00634828 -0.213782 0.00236589 -0.00120974 -0.0794462 -1.11547e-05 -5.78976e-06 -1.84438e-05 
26.982 1 24 20.4228 2.37108 2.4203 -0.0121945 -0.58113 2.52494 -0.207474 0.12237 0.222136 0.036595 -0.300796 -0.177138 0.00782455 -0.0733237 -0.0643363 -7.23115e-06 -2.03627e-05 -2.11685e-05 
26.982 1 19 18.0653 0.190312 2.43006 -0.484453 -0.644101 6.505 0.177352 0.538313 0.199965 0.015855 -0.348658 -0.162325 -0.000577066 -0.0774392 -0.0591305 -1.51595e-05 -5.05414e-05 -1.97566e-05 
26.982 1 18 18.1725 2.38859 0.609389 6.05709 -6.97929 1.6038 -0.0793979 0.0706005 -0.227596 -0.0224302 -0.20864 -0.517325 -0.00849409 -0.0498281 -0.115917 -1.41862e-05 -1.75235e-05 -5.74435e-05 
26.982 1 221 20.244 0.0726696 4.38993 1.24458 3.08125 -2.6576 -0.118689 0.590192 0.021386 -0.0510509 -0.213817 -0.189482 -0.0112073 -0.0666484 -0.0603802 -8.74422e-08 -3.68438e-05 -2.42935e-05 
26.982 1 261 20.3367 4.27365 4.5261 2.04939 0.215936 5.17086 -0.348554 0.347976 -0.529794 0.00216292 -0.0311013 -0.0325551 0.00057964 -0.00783094 -0.0113964 -8.75645e-06 3.16479e-06 -8.68005e-06 
26.982 1 63 22.4329 4.42818 2.54104 0.0113624 0.554662 -6.09944 -0.151883 -0.414333 -0.65049 0.00832554 2.75002e-06 -0.287944 0.00404469 -0.00404971 -0.0943959 -3.54843e-06 8.05463e-06 -3.38526e-05 
26.982 1 222 22.4202 2.14703 4.46597 -0.465651 -0.479198 2.42692 -0.0549107 0.197555 -0.11278 -0.0313186 -0.251057 -0.122743 0.000100583 -0.0695262 -0.0364857 1.30873e-05 -1.94089e-05 -6.17919e-06 
26.982 1 28 24.5934 2.36159 2.44801 -3.7015 0.592685 -1.491 0.158686 -0.0523132 0.0292489 -0.0426171 -0.210561 -0.255886 -0.0109321 -0.065087 -0.0849075 1.20572e-05 -4.46643e-05 -7.11387e-06 
26.982 1 265 24.484 4.43541 4.3177 -4.25482 -1.8874 -2.49805 0.587121 -0.328759 0.190011 -0.000422217 -0.0214147 -0.0384038 -0.000190957 -0.00738985 -0.0131815 1.15531e-05 -9.64291e-06 -2.62098e-07 
26.982 1 23 22.4165 0.262707 2.32177 3.35614 0.093286 -4.92472 -0.0113392 0.093615 0.193182 -0.0112586 -0.224845 -0.250875 0.0065134 -0.053946 -0.0764139 1.32522e-05 -5.94515e-05 -1.73817e-05 
26.982 1 61 20.3028 4.36297 0.337595 -2.13532 2.03492 -3.49839 -0.0810408 -0.204481 0.686756 0.0250519 0.0114833 -0.382726 0.00136951 0.00121842 -0.0842773 1.01021e-05 1.20985e-05 -5.51586e-05 
26.982 1 22 22.5709 2.31013 0.568687 -2.07244 -0.800491 1.9633 -0.357616 0.423922 -0.462597 0.0160189 -0.196573 -0.428384 0.014902 -0.0593453 -0.100588 -1.87043e-06 -2.06777e-05 -6.17361e-05 
26.982 1 67 26.7584 4.33911 2.31651 2.9846 -3.05248 0.104225 -0.0559318 -0.0712814 0.0789484 0.0135801 0.00951316 -0.343451 0.00370882 -0.0022635 -0.107461 -3.30086e-06 -7.10552e-06 -9.56235e-06 
26.982 1 226 26.784 2.34135 4.32443 -8.61693 3.37997 4.15524 0.0241813 0.18497 -0.130246 0.029728 -0.183135 -0.0617521 -0.0024942 -0.0509163 -0.0214206 -1.03332e-05 -2.64217e-05 -1.79267e-05 
26.982 1 269 28.8909 4.32343 4.31454 -1.9563 -1.48652 -5.69993 0.20144 -0.304179 0.408129 -0.00254487 -0.0239319 -0.040312 -0.000423606 -0.00566287 -0.0139368 3.40299e-06 -9.8874e-06 6.63402e-06 
26.982 1 229 28.8786 0.276351 4.32949 -1.04865 1.4705 -2.4322 0.568635 0.0633291 -0.421374 -0.0012207 -0.208914 -0.126643 0.00485307 -0.0731957 -0.0467155 1.43884e-06 -4.0536e-05 -5.32206e-05 
26.982 1 65 24.6055 4.33883 0.338067 4.63806 -3.36407 0.790909 -0.0863027 0.393092 0.433049 0.0552307 0.0139212 -0.363629 0.0130672 -0.00185571 -0.0709606 -1.49568e-05 1.04797e-05 -5.89807e-05 
26.982 1 69 29.1173 4.48491 0.463823 -1.05444 1.97349 -6.9452 -0.329072 -0.111177 -0.523742 -0.0566036 -0.00546134 -0.303154 -0.0102152 -0.00211715 -0.0512452 -5.12537e-06 -6.00669e-06 -6.78531e-05 
26.982 1 26 26.7506 2.38199 0.415915 -1.1689 -4.0231 -1.89896 -0.0450073 -0.0988473 0.0271727 -0.0216286 -0.127638 -0.412238 -0.0158565 -0.038109 -0.098031 2.69821e-06 -4.25206e-05 -4.69152e-05 
26.982 1 32 28.9844 2.41542 2.26274 5.7252 1.22608 1.07556 0.0213819 -0.360408 0.240302 0.00160306 -0.234255 -0.262871 0.00402577 -0.0515589 -0.0879152 3.08981e-07 -4.92699e-05 -1.70709e-05 
26.982 1 71 31.1192 4.39894 2.31552 1.07 1.60558 0.297752 0.150605 -0.379463 0.362315 -0.0287273 0.00527905 -0.262547 -0.0116323 -0.000588498 -0.0919944 4.4113e-06 -1.42127e-05 -3.23769e-06 
26.982 1 230 31.1912 2.21477 4.32562 1.81389 -0.0638857 -0.00762388 -0.34263 0.55427 0.203479 -0.0365783 -0.219458 -0.0906392 -0.00452256 -0.0581126 -0.0317424 8.43833e-06 -2.77421e-05 -1.94541e-05 
26.982 1 36 33.3735 2.34627 2.47037 -2.58168 1.18823 -2.26436 0.0271786 0.0602513 -0.136065 -0.0157601 -0.211311 -0.253368 -0.00979087 -0.0621398 -0.079631 1.35569e-05 -5.76434e-05 -2.29227e-05 
26.982 1 73 33.2638 4.40803 0.442717 -4.25805 -0.0987801 1.37269 0.129637 -0.232212 0.108033 0.07361 -0.022528 -0.438617 0.00977104 -0.0095245 -0.107182 2.62557e-05 -9.24399e-06 -6.42972e-05 
26.982 1 30 31.1892 2.4009 0.375276 0.872737 -0.0969747 -1.52637 -0.194852 -0.0197927 0.217364 -0.0395497 -0.185181 -0.489615 -0.00948774 -0.0377994 -0.106925 4.50534e-06 -4.49608e-05 -4.55851e-05 
26.982 1 273 33.2565 4.20901 4.46134 2.51525 3.08286 4.13358 0.156918 0.344712 0.0298659 0.00173128 -0.014657 -0.0312968 7.97425e-05 -0.00452295 -0.0102073 4.8299e-06 -2.64693e-06 -3.26091e-07 
26.982 1 75 35.4826 4.33907 2.21809 0.936833 -3.48308 -7.35305 0.103041 -0.0177437 0.797213 0.0731008 0.00557552 -0.349307 0.0137791 -0.000656969 -0.0973663 2.11756e-05 -5.67445e-06 -4.37819e-05 
26.982 1 234 35.6478 2.52652 4.34503 -2.03181 5.39252 2.25019 -0.232441 -0.227172 0.285958 0.0132285 -0.144841 -0.0584929 0.00368153 -0.0424673 -0.0192661 -1.19317e-06 -4.45925e-05 -1.53795e-05 
26.982 1 40 37.8127 2.42768 2.47281 0.49653 -4.02317 0.593445 -0.0769495 -0.139855 -0.207924 0.146427 -0.219128 -0.398472 0.0242921 -0.0585435 -0.101101 -1.38268e-05 -3.51517e-05 -4.35331e-05 
26.982 1 277 37.855 4.34481 4.38235 2.12709 1.01166 6.53307 -0.307108 0.0229701 -0.00151806 0.00464396 -0.0210439 -0.0542532 0.000905962 -0.00561631 -0.0144001 -7.48923e-06 -5.5221e-06 -8.97897e-06 
26.982 1 241 42.2432 4.31225 4.56423 -0.555618 -3.70859 0.871056 -0.247773 0.114801 -0.562878 -0.209905 -0.216623 -0.232193 -0.049245 -0.0465705 -0.0532382 -4.27539e-06 -6.1524e-06 -1.3448e-05 
26.982 1 79 39.9082 4.28626 2.40313 -4.0085 4.73489 -0.948638 0.0525788 0.245195 0.31782 -0.0503274 -0.0887115 -0.390615 -0.00878225 -0.0112841 -0.105106 -1.01917e-05 3.91314e-06 -4.65002e-05 
26.982 1 238 40.0473 2.40372 4.56572 2.21028 0.98911 1.28771 -0.132871 -0.355659 -0.138023 0.000985659 -0.255081 -0.171576 -0.00339956 -0.0612727 -0.0395685 -1.90258e-06 -3.60542e-05 -8.19957e-06 
26.982 1 39 39.9029 0.370265 2.32676 -2.58067 0.0130591 0.205553 -0.0169637 -0.0846262 0.397124 -0.0574081 -0.0760969 -0.370537 -0.0127666 -0.0474196 -0.0868589 -1.51824e-05 -4.01076e-05 -7.47384e-06 
26.982 1 83 0.558797 8.38282 2.44194 1.41708 -2.66569 -7.62748 0.25396 0.174811 0.00436284 -0.254336 -0.069185 -0.300248 -0.0670111 -0.0244395 -0.0789483 -2.3583e-05 2.45641e-06 -6.83429e-06 
26.982 1 242 0.507006 6.37091 4.28939 -1.65655 -4.31077 -0.119166 0.0329686 0.245042 0.377442 -0.262176 0.0231074 -0.14585 -0.0663719 -0.000841846 -0.0375041 -2.82802e-05 1.72483e-06 5.14082e-06 
26.982 1 285 2.87635 8.33573 4.37122 5.42906 -5.42926 -3.85086 -0.221343 0.152868 -0.617751 -0.0294951 -0.00113261 -0.0348633 -0.00587082 -0.000923173 -0.0086231 -7.94564e-06 3.43905e-06 -9.99382e-06 
26.982 1 48 2.67594 6.41608 2.50248 -2.73058 -0.375532 2.21392 0.209931 0.136411 -0.362611 -0.075439 -0.0155821 -0.284711 -0.0119083 -0.00631178 -0.0789098 7.87463e-07 -1.50938e-05 -2.9523e-05 
26.982 1 84 -1.62877 10.2307 2.22293 -0.044672 -1.26707 -2.54107 0.122062 0.363235 0.346386 -0.282541 -0.0693734 -0.409428 -0.075034 -0.0198813 -0.102177 -5.23835e-05 1.79349e-06 -6.2394e-06 
26.982 1 44 -1.63918 6.427 2.47755 -3.03902 1.28971 0.174635 0.00597895 -0.594707 0.0964205 -0.00270061 -0.25425 -0.315981 -0.00906558 -0.0625173 -0.0855102 -5.30971e-05 4.9163e-06 2.00429e-06 
26.982 1 42 0.487021 6.4495 0.541121 -0.319563 1.67473 -5.61775 0.183086 -0.60158 -0.0858633 -0.217217 -0.0747091 -0.357553 -0.0637621 -0.0159316 -0.0996594 -6.57914e-06 -8.06806e-06 -5.71107e-05 
26.982 1 87 5.01583 8.17736 2.2694 3.3978 2.38332 -0.683403 -0.334222 0.160339 -0.054982 -0.00593967 0.0188727 -0.252035 -0.000881495 -0.00524783 -0.0686265 -7.05413e-06 1.74833e-06 -1.68614e-05 
26.982 1 246 5.02037 6.43539 4.47525 -3.89476 1.06622 -3.462 -0.378519 -0.21803 -0.0421847 -0.000832838 -0.00107364 -0.0225942 -0.000376182 -0.000395729 -0.00800089 -6.81184e-06 -7.33899e-06 -2.10393e-06 
26.982 1 289 7.02441 8.30958 4.22337 2.8338 -2.18561 -0.699983 0.584535 0.128505 0.349228 0.00213592 0.00104787 -0.0300479 0.000370919 2.56684e-05 -0.00776692 1.05297e-05 7.40915e-07 2.86414e-06 
26.982 1 85 2.81234 8.28448 0.364763 -3.26582 1.88963 -1.39388 -0.353796 0.255311 0.520148 -0.00834472 0.0396928 -0.366415 -0.00145841 -0.00504641 -0.110779 -4.67901e-06 7.72723e-07 -5.94801e-05 
26.982 1 89 7.21593 8.37329 0.450907 1.09068 -1.34176 -6.24153 -0.444853 0.203023 -0.0375653 0.0109067 0.0641512 -0.369119 0.00271262 0.00243375 -0.111567 -1.33218e-05 -4.24131e-06 -6.53465e-05 
26.982 1 46 4.83389 6.1802 0.342127 2.81761 -1.69865 1.8984 0.317341 0.559967 0.600547 -0.0265875 0.00983862 -0.557856 -0.00192749 -0.00121515 -0.114541 1.32183e-06 -2.57851e-05 -6.14569e-05 
26.982 1 52 7.15439 6.41119 2.35244 6.12746 -0.115597 3.20511 0.0565128 -0.281385 -0.071789 0.0158961 0.0227849 -0.230636 -0.00185416 0.00271903 -0.0667186 2.49841e-06 -1.99179e-05 -2.52707e-05 
26.982 1 91 9.4227 8.5328 2.31665 -2.79238 2.31999 -3.82223 -0.399323 -1.01419 0.676439 0.0365493 0.0412671 -0.33368 0.00764468 0.00786623 -0.0824415 -3.13131e-06 -1.77783e-05 -1.01568e-06 
26.982 1 250 9.3144 6.41791 4.44374 0.0174602 5.87736 3.31219 -0.026193 0.202953 -0.343477 0.00199305 0.0017919 -0.0235238 0.000327557 0.0003882 -0.00706082 1.00058e-06 -5.09886e-07 -8.86799e-06 
26.982 1 56 11.637 6.69604 2.44026 -1.11869 -1.15413 -5.51336 -0.342505 -0.793169 0.447326 0.0169014 0.0574464 -0.294368 0.00524253 0.00675543 -0.0805458 5.78475e-06 -2.90693e-05 -2.71741e-05 
26.982 1 50 9.25981 6.50097 0.505675 -1.63368 1.83961 4.74526 0.250024 -0.204026 -0.191632 0.0353045 0.0273905 -0.476503 0.00688767 -0.00202067 -0.123618 1.10985e-05 -3.25364e-05 -6.1724e-05 
26.982 1 93 11.6021 8.40719 0.487233 3.40463 -3.00785 3.05506 -0.274289 0.347377 -0.441156 0.0494044 0.019703 -0.216264 0.0134175 0.00750653 -0.0797589 2.56635e-05 -3.89846e-06 -7.12805e-05 
26.982 1 293 11.3901 8.35086 4.6054 3.30376 -4.54558 -0.749783 0.557314 -0.153751 -0.232887 -0.000755842 0.00358156 -0.0403049 0.000317426 0.000978921 -0.0103364 1.16285e-05 -3.49762e-06 -4.79775e-06 
26.982 1 95 13.6907 8.58897 2.46295 -2.12662 -5.91291 -1.04976 0.0605511 -0.32303 -0.014423 -0.0346221 0.0273613 -0.347539 0.00154324 0.00650532 -0.0970373 1.3525e-06 -2.56522e-07 -3.38757e-05 
26.982 1 254 13.8065 6.57398 4.45013 2.01216 1.12415 1.81844 -0.278005 -0.305535 -0.137435 0.000383898 -4.77898e-06 -0.0307375 0.000439332 3.19741e-05 -0.00955325 -4.03195e-06 -6.44516e-06 -9.0079e-06 
26.982 1 297 15.9146 8.33598 4.36007 1.00441 3.53856 -1.38726 0.130429 -0.00388904 -0.151718 0.00020457 0.00367948 -0.0350794 0.000268502 0.000606325 -0.0118337 2.57713e-06 -3.79077e-06 -7.21418e-06 
26.982 1 60 15.8387 6.41877 2.24663 -0.0409574 5.63209 5.38004 0.100016 0.330414 0.847076 -0.0151173 0.0226958 -0.261114 0.00121142 0.00633644 -0.0901332 -1.39954e-05 -2.06031e-05 -3.06778e-05 
26.982 1 99 17.9943 8.5092 2.42055 -3.69431 -4.26276 3.0205 -0.0521341 -0.501557 -0.0219751 -0.0104967 0.0496743 -0.296037 -0.0108514 0.00587386 -0.0911045 8.16595e-06 -7.18142e-06 -2.10594e-05 
26.982 1 258 18.1525 6.40153 4.47891 2.12672 -2.16948 -1.76177 -0.234105 0.143898 -0.108871 0.000798848 0.00243468 -0.0257116 -3.51447e-05 0.000138017 -0.0100574 -4.74547e-06 2.62806e-07 -4.60071e-06 
26.982 1 298 18.0103 10.4535 4.24498 0.622952 -1.12894 -8.73531 -0.00629433 0.00933547 0.513919 -0.000519937 0.00210723 -0.044306 -0.000407235 0.000331881 -0.0123774 1.99182e-06 -1.5876e-07 2.63853e-06 
26.982 1 100 15.8183 10.6098 2.57382 -1.65141 3.63056 -2.29137 0.0903602 -0.264387 -0.510586 0.00926281 0.0505956 -0.382822 0.0019871 0.00322814 -0.107824 -8.33409e-06 1.04429e-05 -4.28637e-05 
26.982 1 98 18.0879 10.3271 0.409808 -0.129084 -1.37663 -0.337415 -0.174095 0.653567 0.109872 -0.0330347 0.00101848 -0.260245 -0.00641781 -0.000405919 -0.0704354 1.21082e-05 2.12466e-05 -5.68715e-05 
26.982 1 97 15.7565 8.55123 0.522513 2.43266 -4.64334 5.1501 0.269558 -0.0817688 -0.106459 -0.0246307 0.0917163 -0.395422 -0.00651106 0.0150071 -0.0742379 -1.8682e-05 2.5606e-06 -6.16875e-05 
26.982 1 58 18.1344 6.4906 0.542921 0.143163 -0.717768 4.1936 -0.263143 0.0793635 -0.115753 0.02213 0.0268758 -0.455552 0.000621569 0.00341788 -0.0934922 1.4846e-06 1.05555e-06 -6.38415e-05 
26.982 1 301 20.0173 8.65177 4.55556 -3.59588 -2.44538 -6.06157 0.339141 -0.517236 0.219279 0.00140129 0.00303302 -0.0325586 7.83684e-05 0.000473378 -0.00923375 4.7255e-06 -7.79613e-06 2.54255e-06 
26.982 1 64 20.2176 6.46791 2.51035 -3.42593 -2.7866 1.59419 -0.390477 -0.289346 0.287622 0.0283598 -0.00962096 -0.277643 0.0033492 -0.00933396 -0.0851961 9.33233e-06 7.31405e-06 -3.31149e-05 
26.982 1 103 22.2582 8.2199 2.6505 0.312337 1.0839 -1.71835 0.406072 0.562483 -0.355555 0.0129429 0.0395766 -0.344378 0.00874135 0.00556922 -0.0947767 6.62059e-06 2.89825e-06 -5.78256e-05 
26.982 1 262 22.3586 6.23793 4.46815 -2.25439 -2.71963 -1.95514 0.141983 0.805134 -0.0887051 0.00114578 0.000633085 -0.0346309 0.000594481 -0.000416178 -0.0109954 -9.28467e-07 1.44556e-05 -7.63236e-06 
26.982 1 305 24.5557 8.27818 4.40565 -5.66207 1.72342 -1.03406 -0.0399576 0.179705 -0.184131 -0.000264706 0.00123372 -0.0370361 -0.000125684 5.25567e-05 -0.0114885 -1.30231e-06 2.69883e-06 -8.68211e-06 
26.982 1 68 24.6678 6.35863 2.32111 1.39209 1.34883 4.12221 -0.306793 0.0188527 -0.116361 0.0161591 -0.00447537 -0.3369 0.00254916 -0.00363611 -0.102844 -1.89991e-05 1.86913e-05 -3.69772e-05 
26.982 1 107 26.6684 8.32104 2.51005 -1.02868 -0.312287 -3.21937 0.18244 -0.145596 -0.508537 0.0585429 -0.0511271 -0.360498 0.00772241 -0.00837219 -0.101946 -8.90832e-06 1.30151e-05 -4.31338e-05 
26.982 1 266 26.8154 6.26055 4.30369 1.87541 4.70534 2.58365 -0.245379 -0.0283816 0.364166 0.00167812 0.0020203 -0.0429134 1.22167e-05 7.39855e-05 -0.0126271 -4.92902e-06 -1.26325e-06 5.74481e-06 
26.982 1 66 26.8034 6.32969 0.332905 2.53794 -2.87266 0.876086 0.0506464 0.20415 0.305836 0.0174108 0.0519256 -0.263794 9.12547e-05 0.0031542 -0.0710531 -1.18361e-05 1.74944e-05 -5.91773e-05 
26.982 1 72 28.9307 6.2597 2.44137 5.0978 0.776717 -4.55237 -0.0547655 0.562418 -0.40393 -0.0327082 0.0468145 -0.39307 -0.00332169 0.000261497 -0.114238 -3.14994e-06 1.05964e-05 -1.6412e-05 
26.982 1 306 26.6586 10.4107 4.18537 0.164325 1.37368 -0.2642 0.130132 -0.0386763 0.65656 -0.000376236 -0.00207981 -0.0313074 5.05635e-05 -0.000265811 -0.0104514 1.98665e-06 -8.09791e-07 1.96117e-06 
26.982 1 309 28.9255 8.23532 4.36699 9.23913 -2.07003 1.21941 -0.0976036 0.260243 0.180729 -0.00165216 -0.00135877 -0.0479655 -0.000231987 -0.000326789 -0.0127144 -2.81273e-06 6.2069e-06 2.3439e-06 
26.982 1 109 28.9404 8.3958 0.2375 -0.340313 4.55877 -0.619797 -0.0467032 0.0770364 0.27495 0.000745931 -0.0250701 -0.0746707 -0.00106817 -0.00764116 -0.0447685 -1.66642e-05 1.4406e-05 -5.50428e-05 
26.982 1 111 30.9435 8.33741 2.40854 -6.86657 -3.23611 -0.487414 0.422 0.17664 0.25185 -0.0402694 -0.0431688 -0.327067 -0.00844471 -0.0162927 -0.0899159 8.41605e-06 5.91688e-06 -6.29614e-06 
26.982 1 270 31.1523 6.25421 4.29516 0.643945 0.663259 -0.286711 0.043758 0.245309 0.263831 -0.00108417 0.00279088 -0.0361509 -0.000626341 0.000396941 -0.0116646 4.13453e-06 1.75412e-06 2.67264e-06 
26.982 1 113 33.3992 8.30361 0.491758 -0.342284 2.71662 8.73095 0.0125538 0.0616383 -0.0657861 0.0052178 0.0311794 -0.280909 -0.000486555 0.000386973 -0.0845243 1.51213e-05 -7.44814e-06 -6.1407e-05 
26.982 1 116 33.2726 10.2302 2.37591 -3.68757 -0.738534 3.14746 0.0879932 0.298992 0.306899 0.0448042 0.0217635 -0.318869 0.00870351 0.00586827 -0.0834285 2.13889e-06 1.68533e-05 -1.69784e-05 
26.982 1 110 31.2321 10.3076 0.44175 4.05741 1.7661 2.47701 -0.438142 -0.0197082 0.21959 0.0293429 -0.0587487 -0.615006 0.00468256 -0.00605259 -0.156874 -5.84002e-06 2.88113e-05 -5.8505e-05 
26.982 1 70 31.2812 6.54246 0.488145 2.55818 -0.76938 -2.49256 -0.4581 -0.509114 -0.0824623 -0.0814743 0.0958232 -0.426635 -0.0201111 0.0149487 -0.0854746 -2.2268e-06 -1.50176e-06 -6.29662e-05 
26.982 1 313 33.2693 8.33527 4.60651 -1.91664 -3.64335 -6.61129 0.0207288 -0.470343 -0.845808 0.000604453 0.000193741 -0.0356779 -0.000306643 -0.000345226 -0.00975415 6.45352e-07 -6.85852e-06 -1.68434e-05 
26.982 1 76 33.3184 6.17775 2.47495 3.30899 1.71709 -3.44932 0.0616189 0.584985 0.130608 0.0223517 0.0313767 -0.316578 0.000631227 0.00370145 -0.0917117 1.36809e-05 9.506e-06 -1.30903e-05 
26.982 1 115 35.3706 8.31496 2.39531 1.16963 -3.79867 -0.536637 0.319487 0.0555039 -0.0380789 -0.0648317 -0.0132906 -0.288654 -0.0151539 -0.00643848 -0.0769465 1.73817e-05 -1.21235e-05 -3.26605e-05 
26.982 1 274 35.4375 6.38907 4.33486 -1.58735 4.03726 1.79857 -0.0834168 -0.494944 0.0980004 0.002318 -0.00259635 -0.0363512 0.000195799 -0.000779947 -0.010304 -2.40546e-06 -1.03222e-05 -6.73702e-06 
26.982 1 317 37.6272 8.3112 4.33767 -0.487088 -2.95783 -3.79122 0.16533 -0.0358656 -0.241589 0.00052031 -0.00163038 -0.023651 0.000706568 -0.000484669 -0.00691222 3.64727e-06 -2.87923e-06 -1.33112e-05 
26.982 1 114 35.5678 10.3767 0.381476 -3.41147 1.57096 1.25488 -0.354879 -0.30356 0.133129 -0.0263409 0.0402338 -0.381425 -0.00615216 0.00831423 -0.106855 -2.26821e-06 -5.2826e-07 -6.17133e-05 
26.982 1 314 35.6003 10.2304 4.37528 -0.896264 -0.731004 2.94491 -0.447654 0.128317 -0.203677 -0.000834653 0.00190314 -0.0359703 -0.000144043 0.000505884 -0.0090482 -9.02503e-06 1.43807e-06 -8.38692e-06 
26.982 1 281 42.1145 8.50628 4.31164 0.770885 -3.80091 2.77846 0.0989505 -0.381927 0.374823 -0.131525 -0.132464 -0.152724 -0.0458368 -0.0448621 -0.0526817 1.56703e-06 -7.87796e-06 1.16381e-06 
26.982 1 80 37.6981 6.39014 2.43886 -7.43651 -0.915476 0.00828972 -0.288246 -0.216421 0.0922033 -0.00948319 -0.116416 -0.313702 0.00139596 -0.0285641 -0.0877544 2.54525e-06 -4.47036e-06 -5.93762e-05 
26.982 1 119 39.872 8.40699 2.42098 -6.07751 -7.41116 5.97584 -0.21143 -0.0742459 -0.0863153 0.0706345 0.044795 -0.308299 0.0223939 0.00665625 -0.0934428 -6.35367e-06 -2.21631e-05 -4.69438e-05 
26.982 1 278 39.9928 6.25714 4.41339 1.48567 -4.65215 -2.65161 -0.178615 0.456081 -0.374125 0.100399 -0.10122 -0.042215 0.0243581 -0.0236175 -0.0131687 -1.51675e-06 5.67966e-06 -1.53766e-05 
26.982 1 318 39.8807 10.1678 4.38449 0.693152 2.28501 1.06894 -0.164508 0.483555 0.0333139 0.073595 -0.0605895 -0.0552327 0.0240922 -0.020357 -0.0151686 -2.66677e-06 1.86602e-06 -3.54079e-06 
26.982 1 118 39.9142 10.3158 0.28496 1.11809 -0.659864 2.01565 0.00116712 -0.0695208 0.128985 0.0846116 -0.00932495 -0.169004 0.0209429 -0.00222804 -0.0448296 1.06971e-05 -1.66404e-05 -6.19252e-05 
26.982 1 123 0.494077 12.3826 2.47506 -1.30005 8.09747 1.20069 0.362243 -0.425518 -0.520165 -0.256181 -0.0933476 -0.323923 -0.0721168 -0.0180755 -0.0780611 -1.60104e-05 1.80215e-06 -3.73502e-05 
26.982 1 282 0.714097 10.3891 4.35827 -0.164648 -0.33969 3.59458 -0.283295 -0.299901 0.037398 -0.235646 -0.0125463 -0.102097 -0.0598643 0.00139871 -0.0262776 -3.24544e-05 -3.31665e-06 -1.17553e-06 
26.982 1 322 0.725654 14.3052 4.30972 4.98148 -4.27627 1.17112 -0.172422 -0.261724 0.11834 -0.155083 -0.064625 -0.0809439 -0.0403167 -0.0152255 -0.0184941 -4.33121e-05 -1.06682e-08 -1.3263e-05 
26.982 1 325 2.89435 12.3487 4.25312 1.58838 1.82764 2.92097 0.0295451 -0.42254 0.428762 -0.0240583 -0.00372356 -0.0290002 -0.00583084 -0.000326596 -0.00672944 2.4929e-07 -7.89851e-06 1.95921e-06 
26.982 1 128 2.76865 14.2686 2.38346 -2.32814 1.14655 2.00678 0.184442 0.410393 -0.264537 -0.0337909 0.0191417 -0.262662 -0.0096565 0.0136823 -0.0721282 1.08694e-06 6.83603e-06 -6.15863e-05 
26.982 1 82 0.553565 10.2985 0.408723 0.0299489 -1.40905 2.13902 0.270102 -0.15607 0.000764879 -0.269246 0.0901254 -0.252294 -0.0777743 0.015028 -0.0889788 -1.23011e-05 1.62366e-05 -5.83098e-05 
26.982 1 88 2.74283 10.3594 2.40153 2.93828 -2.13985 4.47769 -0.0204539 -0.25382 -0.168538 -0.0809658 -0.0266407 -0.300101 -0.0166808 -0.0072066 -0.0671703 -4.28053e-06 1.0587e-05 -2.60265e-05 
26.982 1 286 5.12116 10.2192 4.12485 -0.113273 1.12374 -1.61772 -0.514805 0.480091 0.486796 -0.000442041 0.00102262 -0.0247255 4.62212e-05 0.000248275 -0.00599294 -1.01862e-05 9.13038e-06 8.00116e-06 
26.982 1 92 7.25477 10.4441 2.38374 -1.94257 -0.274218 -2.18078 -0.291123 -0.316784 -0.0631841 0.0356006 -0.0199507 -0.283421 0.0096426 0.000363236 -0.0729397 -6.27288e-06 -2.26672e-06 -1.04133e-05 
26.982 1 127 4.95333 12.3011 2.35188 1.90355 -3.86483 -2.04468 -0.0469968 0.303575 0.0683539 0.000173883 0.0050335 -0.232066 0.00553606 0.00234007 -0.0591367 -1.47056e-05 1.81577e-05 -3.15418e-05 
26.982 1 326 5.12126 14.3103 4.28652 -1.43107 -0.880121 2.66283 -0.473187 0.0462889 0.0288197 0.000425303 0.000255775 -0.0251036 -0.000163522 0.00011607 -0.00653948 -7.67349e-06 7.46092e-07 -6.04701e-06 
26.982 1 329 7.20214 12.4053 4.25497 -4.60462 0.277309 -6.37568 -0.0132285 0.0030124 0.254569 0.00121518 -8.97573e-05 -0.026655 0.000309037 -6.57591e-05 -0.00773715 -4.4821e-07 2.00826e-06 4.72363e-06 
26.982 1 86 4.86655 10.3633 0.526191 2.87598 3.99186 -3.41645 0.268403 -0.151057 -0.376081 -0.00897276 -0.0344482 -0.457271 0.00246136 -0.00437556 -0.133676 -8.39774e-06 1.09857e-05 -6.46533e-05 
26.982 1 290 9.32959 10.1262 4.43377 -2.47836 -4.09859 -0.602352 -0.228262 0.55741 -0.101335 0.00269834 0.00122136 -0.0393728 0.000764836 0.000576083 -0.0101283 -3.96708e-06 7.23222e-06 -2.66421e-06 
26.982 1 132 6.99219 14.4357 2.30644 1.25942 2.99272 -3.23858 0.439867 0.0693064 -0.0315847 0.0198587 0.0204495 -0.273623 0.00782422 -0.00166217 -0.0724119 -8.0962e-06 2.38721e-06 -2.27392e-05 
26.982 1 129 7.04202 12.4492 0.485274 -0.430904 -1.62956 0.670841 0.0114116 -0.0700718 -0.366333 0.0344221 0.00687141 -0.480437 0.00903226 0.00854502 -0.113421 -1.34613e-05 7.84398e-06 -6.79148e-05 
26.982 1 131 9.30153 12.3343 2.29589 1.51647 1.26299 0.980966 -0.2309 0.0198283 0.163305 0.0357905 -0.011096 -0.312403 0.00924355 0.000384758 -0.0887805 -2.02484e-06 3.43602e-06 -7.98016e-06 
26.982 1 330 9.45751 14.2918 4.21278 0.0368647 -0.371907 0.394551 -0.865887 0.0847177 0.284005 0.000942589 0.000803844 -0.0335739 0.000463182 -6.7194e-05 -0.00963097 -1.37755e-05 1.73276e-06 3.29064e-06 
26.982 1 90 9.19581 10.247 0.430179 -4.97311 2.53093 -1.24623 0.199516 0.631468 -0.633319 0.0227819 -0.0146669 -0.310164 0.0111474 -0.00167072 -0.0923852 4.05214e-06 8.63233e-06 -7.40874e-05 
26.982 1 96 11.3577 10.3544 2.39938 -2.50586 -0.849709 -0.878442 0.548957 0.0995183 0.377084 0.0029407 -0.019245 -0.379657 0.00333736 0.00193206 -0.0990328 2.5858e-05 4.92513e-06 -1.15241e-05 
26.982 1 130 9.22271 14.4229 0.417284 0.64271 6.01674 2.09687 -0.0626122 -0.0664745 -0.0805185 0.0306389 -0.0600825 -0.353461 0.0100977 -0.015708 -0.089063 1.32443e-05 8.42604e-06 -6.30902e-05 
26.982 1 333 11.2381 12.2487 4.43279 1.19521 -3.64436 4.03432 0.79584 0.0320754 -0.13787 0.00149697 -0.000858 -0.0394108 0.000244945 -0.00033636 -0.0112426 1.51899e-05 1.48638e-06 -2.70355e-06 
26.982 1 294 13.7982 10.3211 4.48609 -0.742482 0.599348 -2.02828 -0.393673 0.232741 0.177994 0.000597779 0.00437892 -0.0423567 6.02415e-05 0.000736176 -0.0119689 -9.92324e-06 5.84208e-06 -4.84138e-06 
26.982 1 136 11.3886 14.2846 2.24512 -0.619834 -3.10903 -3.20954 0.263436 0.220443 0.327883 -0.00802178 -0.00433085 -0.328547 -0.00590515 -0.00457223 -0.0894605 2.65545e-05 2.07869e-05 -3.16694e-05 
26.982 1 135 13.5821 12.3476 2.44653 -3.5581 -5.71983 3.75004 -0.106932 -0.0215023 0.0735122 0.0291664 -0.0261722 -0.361786 0.00282746 -0.0109949 -0.0954777 9.34745e-06 1.12152e-06 -4.48792e-05 
26.982 1 334 13.6852 14.2716 4.34533 -0.293507 0.97002 -4.40941 -0.235927 0.000904861 -0.229537 -9.9141e-05 -0.00232208 -0.0349298 -0.000256709 -0.000715928 -0.00896616 -5.30489e-06 -1.17022e-08 -1.30016e-05 