ITEM: TIMESTEP
2500
ITEM: NUMBER OF ATOMS
4000
ITEM: BOX BOUNDS pp pp pp
-0.582301 41.0823
0.115654 40.3843
0.0956657 40.4043
ITEM: ATOMS mass type id x y z vx vy vz fx fy fz xrad yrad zrad vxrad vyrad vzrad fxrad fyrad fzrad 
26.982 1 3 1.46909 -0.130949 2.28459 -1.29636 0.485017 1.17579 0.0574052 0.323673 -0.27182 -0.0206649 -0.0460981 -0.00965665 -0.0161336 -0.0338457 -0.0110913 3.04703e-06 -3.23305e-05 -3.32337e-05 
26.982 1 8 3.42443 2.16482 2.2273 1.27508 2.10054 4.62445 0.626164 -0.173826 0.0701758 0.00920402 -0.0375613 -0.0240195 0.00580946 -0.0300211 -0.0210244 2.2777e-06 -3.66231e-05 -3.76179e-05 
26.982 1 43 1.68382 4.27643 2.03183 -4.67854 1.55842 0.0681884 -1.06119 -0.77189 0.33684 -0.0157727 -0.0179432 -0.0340551 -0.0163292 -0.013918 -0.0348267 -2.74631e-05 -2.11828e-05 -5.7715e-05 
26.982 1 202 1.3969 2.10155 4.07794 3.39464 -1.19014 -0.0733884 0.299976 0.334003 0.344386 -0.0185667 -0.0355831 -0.0207541 -0.0132997 -0.0267579 -0.0176054 -4.10512e-06 -1.1126e-05 -2.22058e-05 
26.982 1 241 -0.719492 4.22803 4.14955 7.61072 1.9957 -0.351755 0.739467 -0.244042 0.0562757 -0.0338048 -0.0349426 -0.0343241 -0.0267843 -0.0275834 -0.0284855 -1.8828e-05 -3.58459e-05 -3.60089e-05 
26.982 1 201 -0.600239 0.24952 4.20597 1.10401 -3.56897 -4.64957 -0.0577086 -0.499316 -0.225721 -0.00575793 -0.0172199 -0.0147201 -0.00902997 -0.0198976 -0.020377 -2.9859e-05 -2.16726e-05 -5.24292e-05 
26.982 1 245 3.59762 4.19634 4.15182 -0.166372 1.71986 0.893096 -0.10036 -0.279652 0.0856585 -0.000890876 -0.00570717 -0.00482566 -0.000904769 -0.00448519 -0.00408452 -1.28934e-06 -1.01694e-05 -2.3594e-06 
26.982 1 47 5.73511 4.236 2.05425 0.184202 -1.54055 -3.35423 -0.128264 -0.373452 0.212759 -0.0100205 -0.010262 -0.0242428 -0.00520792 -0.0091739 -0.0214603 9.74524e-08 -1.47877e-05 -3.45491e-05 
26.982 1 206 5.60156 2.22084 4.13725 0.0676248 -0.895602 1.9532 0.247092 -0.179604 0.0335887 -0.0137932 -0.0369583 -0.0192607 -0.0091649 -0.0311865 -0.0158746 4.21676e-06 -4.21628e-05 -1.65307e-05 
26.982 1 6 5.54071 2.10358 0.169525 -3.71172 -0.643531 3.11416 0.592443 0.0505025 0.232413 -0.0183572 -0.0156001 -0.0359043 -0.00971626 -0.0110579 -0.0247214 -7.35591e-07 -2.15422e-05 -4.17709e-05 
26.982 1 12 7.69045 2.13625 2.32934 0.274421 0.739106 0.63835 0.174163 0.110421 -0.880752 -0.00603065 -0.0424736 -0.0189017 -0.00562536 -0.0365497 -0.0191693 4.66381e-06 -4.90006e-05 -2.92938e-05 
26.982 1 249 7.79648 4.24805 4.05458 -3.36368 1.17052 3.63458 -0.319495 -0.319818 0.167515 -0.000352226 -0.00229927 -0.0018912 -0.000274686 -0.00233321 -0.0021551 -6.42648e-06 -1.14065e-05 -1.75113e-06 
26.982 1 10 9.90393 2.33548 -0.0142139 4.20622 1.28869 -0.602375 -0.536288 -0.301888 0.418225 0.00632433 -0.0348122 -0.0533248 -0.00287551 -0.0259866 -0.0423699 -3.41647e-05 -2.11451e-05 -4.02121e-05 
26.982 1 16 12.0326 2.23251 2.21271 3.20012 -1.32822 -8.77188 -0.119368 -0.153354 -0.330583 0.0148271 -0.0508427 -0.0268381 0.00805023 -0.0372616 -0.0162621 -1.55439e-05 -2.36489e-05 -1.38937e-05 
26.982 1 51 9.98582 4.16235 2.17068 1.89699 -4.17611 -6.93624 -0.304359 -0.260157 -0.188522 0.000536839 -0.000184614 -0.0155726 -0.00146146 0.00104129 -0.0153582 -1.49266e-05 -1.13023e-05 -2.0519e-05 
26.982 1 53 11.9505 4.0983 0.00924785 0.405712 -0.512571 -1.68518 -0.0811792 0.288065 0.39936 0.00942117 -0.0101994 -0.069284 0.00577754 -0.00282131 -0.0554859 1.30791e-05 1.67519e-05 -6.04684e-05 
26.982 1 210 9.91775 2.1079 4.17666 4.98776 -0.13437 4.52748 -0.209692 0.04768 -0.13309 0.00479497 -0.0271958 -0.0179157 0.00295924 -0.0246598 -0.0144948 -1.7822e-05 -3.31512e-05 -2.06254e-05 
26.982 1 13 11.814 0.20901 0.00443655 -6.03674 -2.22003 0.378157 0.649141 0.17381 0.676202 0.00298784 -0.0138277 -0.00797909 0.00157978 -0.0197276 -0.0119344 -1.22389e-05 -4.1321e-05 -2.74408e-05 
26.982 1 253 11.8437 4.35896 4.23431 -0.350272 5.15401 -1.46433 0.350309 -0.44876 -0.377726 0.000434165 -0.00382871 -0.00213162 0.000195637 -0.00287773 -0.00173783 2.89956e-06 -6.96773e-06 -3.89228e-06 
26.982 1 20 16.0638 2.18462 2.07509 -7.36612 -0.487144 -1.6486 0.158427 0.104721 -0.406462 -0.0234457 -0.0513266 -0.01831 -0.0141362 -0.0377454 -0.0137302 4.78214e-06 -1.5521e-05 -2.76866e-05 
26.982 1 55 13.9075 4.32806 2.06791 0.91631 -1.16891 4.06123 0.421606 -0.289544 -0.158046 -0.000416504 -0.0197348 -0.0237286 -0.000250588 -0.0115666 -0.0192699 8.35364e-06 1.27308e-05 -3.09536e-05 
26.982 1 57 16.1599 4.19837 0.0245926 3.01647 -1.85661 2.37979 -0.406232 0.187011 0.173999 -0.0142722 -0.0168221 -0.0693236 -0.00940408 -0.00792616 -0.0555148 -2.37861e-06 2.93792e-05 -5.64013e-05 
26.982 1 214 14.0771 2.3808 4.03273 0.0970055 5.38944 2.94709 -0.308545 -0.49726 0.242062 0.00847719 -0.0408562 -0.0211588 0.00425075 -0.0303882 -0.0145685 -5.38422e-06 -1.25021e-05 1.27481e-06 
26.982 1 257 16.0774 4.19744 3.98848 -1.07722 0.549202 -2.27897 0.247307 0.183376 0.457692 -0.000725067 -0.00601231 -0.0017262 -0.000459623 -0.00412147 -0.00157258 5.88247e-06 3.2564e-06 3.38486e-06 
26.982 1 213 12.1357 0.160405 4.14016 -5.84777 -2.55901 -0.480919 -0.259388 -0.0225616 -0.106106 0.00251293 -0.0337927 -0.0349428 -0.00100624 -0.0232906 -0.021669 -1.21407e-05 -4.69999e-05 -3.07288e-05 
26.982 1 15 14.0516 0.0898506 2.00327 2.94659 1.09722 1.68242 -0.160735 0.318639 0.0642891 0.000447209 0.00207376 -0.0518517 0.00151408 -0.00466223 -0.0330682 5.20458e-06 -5.81855e-05 -2.28905e-05 
26.982 1 217 15.9453 0.300204 4.04885 -1.56084 -0.118132 0.243715 0.163502 -0.509496 0.25599 -0.000344904 -0.0013111 -0.0051792 0.0004082 -0.00683208 -0.00568597 2.3618e-06 -5.25908e-05 -1.52048e-05 
26.982 1 14 14.0543 2.17353 0.04077 -0.621203 -0.420262 1.20507 -0.104276 -0.287463 0.345807 0.000512581 -0.0388468 -0.018686 0.00210464 -0.0246424 -0.0206933 1.07582e-05 -1.52044e-05 -5.7335e-05 
26.982 1 218 18.1157 2.22319 4.09477 1.24733 0.5561 5.04847 0.294481 -0.164528 -0.356917 -0.0050654 -0.0360785 -0.00775756 -0.00323524 -0.027323 -0.00748847 1.91258e-05 -1.90186e-05 -1.12026e-05 
26.982 1 18 18.0962 2.24163 0.00212429 1.76872 0.760422 4.89739 0.162847 -0.0635793 0.438967 -0.00803243 -0.0271201 -0.0618498 -0.000245675 -0.0220426 -0.0485472 1.71746e-05 -1.84607e-05 -5.40892e-05 
26.982 1 59 18.2007 4.29542 2.05612 -3.51245 2.77624 -0.0147769 -0.0868896 -0.335217 0.138637 -7.46838e-05 -0.00354307 -0.0101023 0.00173674 -0.00115197 -0.0115455 1.34121e-05 5.9037e-06 -3.37821e-05 
26.982 1 19 18.1321 0.155387 2.08828 1.33485 -2.31586 0.335491 -0.00699763 0.172099 -0.0709006 -0.00492184 -0.0454136 -0.00516519 0.00232528 -0.0311204 -0.0094974 1.8688e-05 -5.3863e-05 -2.0471e-05 
26.982 1 22 22.1954 2.10242 0.0639885 0.222761 1.58463 4.86099 0.34502 -0.035373 -0.276477 -0.00380926 -0.0196091 -0.0582012 -0.00387857 -0.014964 -0.0478052 5.09812e-06 -1.94655e-05 -5.31725e-05 
26.982 1 24 20.3839 2.26516 1.98414 -1.44526 1.07146 2.66876 -0.777043 -0.50476 0.544451 0.00375573 -0.0369066 -0.00428451 0.00103004 -0.029465 -0.0093627 -5.63062e-06 -3.53674e-05 -1.95894e-05 
26.982 1 63 22.3408 4.17746 1.96765 2.08655 2.79217 -2.53844 -0.288045 0.490008 0.470776 0.000200487 0.00255064 -0.0156162 0.00032422 0.00472629 -0.0186043 -1.10582e-06 1.98974e-05 -4.49064e-05 
26.982 1 222 22.3737 2.17273 4.0618 1.16527 -2.19968 2.62702 -0.478935 -0.381817 0.503471 -0.00961973 -0.0268335 -0.0117129 -0.00499725 -0.020782 -0.008833 -3.34606e-06 -4.57065e-05 -7.62586e-06 
26.982 1 261 20.323 4.09249 4.05285 2.52316 3.25171 0.0785782 -0.174277 0.290685 0.0608067 0.000175979 -0.00377697 -0.00128542 0.000197833 -0.00267688 -0.00170361 -1.92711e-06 9.31822e-07 -5.60132e-06 
26.982 1 28 24.1777 2.17837 2.17197 -3.09542 -0.0722069 2.56951 0.736099 -0.696286 -0.356081 -0.00434242 -0.01844 -0.0136962 -0.00125923 -0.01477 -0.0142344 2.15202e-06 -3.9642e-05 -2.76862e-05 
26.982 1 27 26.4537 0.168806 2.16329 -2.88999 -2.78845 -3.49492 -0.668792 -0.00869867 0.00884863 0.0270354 -0.0624919 -0.0133575 0.0148572 -0.0486185 -0.0119772 -3.6633e-05 -5.50127e-05 -4.4465e-06 
26.982 1 67 26.3108 4.05839 2.15355 0.347836 1.22252 2.91056 0.796554 -0.187222 0.150972 0.000586391 -0.000337757 -0.020576 0.000247728 0.00129727 -0.0235743 7.80638e-06 7.16207e-06 -4.36884e-05 
26.982 1 226 26.4236 2.15214 4.3806 -2.28923 1.5868 -2.78308 0.362546 0.0574462 -0.530177 0.0139297 -0.022089 -0.00417373 0.00754697 -0.0172491 -0.00390896 -9.1385e-06 -1.53795e-05 -1.34195e-05 
26.982 1 265 24.4591 4.0896 4.16328 -2.79832 -2.52196 1.62737 -0.122925 0.316028 0.395238 -9.88391e-05 -0.00124865 -0.00182748 2.34526e-05 -0.0012742 -0.0022161 -1.54148e-06 2.55088e-06 1.61938e-06 
26.982 1 26 26.3851 2.03294 0.0622535 -2.04447 1.15987 0.336836 -0.0981051 0.12759 0.27426 0.00885693 -0.0211747 -0.0509803 0.00236326 -0.0132883 -0.0368916 -1.9175e-05 1.44995e-05 -5.52451e-05 
26.982 1 30 30.555 2.14246 0.148749 -2.9266 -4.17164 -5.34683 0.105744 -0.47041 -0.54954 0.000829718 -0.0434779 -0.0581143 -0.00215302 -0.027252 -0.0495429 -1.76792e-05 -6.35283e-07 -6.92371e-05 
26.982 1 32 28.4985 2.00788 2.17263 3.18634 -3.00067 2.7634 -0.216315 0.301877 -0.0904138 0.0056731 -0.0458657 -0.013949 -0.000168891 -0.0288701 -0.014102 -9.05186e-06 9.60877e-06 -2.0997e-05 
26.982 1 71 30.6024 3.92177 2.08482 -4.50853 1.55314 3.78902 -0.141523 0.682434 0.125771 0.000265325 -0.00424265 -0.0106602 -0.00222827 -0.00231591 -0.00989927 -1.58273e-05 1.06643e-05 -2.16688e-05 
26.982 1 230 30.5159 2.15682 4.18201 -0.949942 3.55394 -0.748432 0.357611 -0.64337 0.11611 -0.004507 -0.0399897 -0.0127787 -0.00483212 -0.0246322 -0.00723242 4.13858e-06 -1.61262e-05 2.92448e-06 
26.982 1 269 28.6745 4.02717 4.11762 -3.0492 -0.20612 -0.688307 -1.00719 0.177445 0.22143 9.5619e-05 -0.00460291 -0.00162169 -0.000402603 -0.00294986 -0.00197131 -1.7792e-05 8.33774e-07 -2.21613e-06 
26.982 1 36 32.5146 2.03474 2.17134 -5.5714 -1.66371 1.85962 0.677005 -0.0372699 -0.00308864 0.000451681 -0.0413386 -0.0236723 0.000291811 -0.0260612 -0.0173087 1.25127e-05 -9.46708e-06 -6.27702e-06 
26.982 1 73 32.6368 3.98648 0.0411563 2.58888 -6.95813 6.72541 0.107305 0.285448 0.204094 0.0210958 -0.00223868 -0.0693926 0.0112343 -0.00203642 -0.0557946 4.7086e-06 3.52353e-06 -6.51261e-05 
26.982 1 273 32.5617 4.11046 4.08122 1.57221 2.56812 0.534467 0.150386 -0.2617 0.109427 0.000632307 -0.00359034 -0.00223698 0.000422468 -0.00202055 -0.00131464 2.77822e-06 -4.82682e-06 4.48086e-06 
26.982 1 229 28.4384 0.074819 4.11529 -0.264916 0.219555 1.32551 0.230176 -0.177607 0.325282 0.00015443 -0.00224856 -0.00558787 -0.000423065 -0.00744442 -0.0064234 -3.5585e-07 -4.50191e-05 -1.22874e-05 
26.982 1 31 30.5435 0.0227194 1.96941 -0.569739 1.44641 -1.00848 0.0525866 0.152616 0.691246 -0.0129479 -0.0253253 -0.024066 -0.00919289 -0.0327779 -0.0174256 -5.37314e-06 -6.19112e-05 -3.54476e-06 
26.982 1 29 28.3092 0.133832 0.0785241 -1.0216 1.12621 1.20589 0.537385 -0.00950897 -0.468995 -0.00503842 -0.0326606 -0.0255006 -0.00553453 -0.0311825 -0.0255639 2.384e-06 -4.29825e-05 -4.82201e-05 
26.982 1 33 32.6656 0.0774722 0.223526 1.41819 -1.46733 -1.28025 0.0171626 -0.0631604 -0.184822 0.0136535 -0.0151514 -0.0522754 0.00400598 -0.0196873 -0.0358706 3.52637e-06 -4.59557e-05 -4.89293e-05 
26.982 1 35 34.9371 -0.0133733 2.03496 -0.0653098 4.17114 1.76488 -0.124274 0.060542 0.307076 -0.00208203 -0.0570193 -0.0324792 0.0028135 -0.0485676 -0.0214207 -1.35941e-07 -5.8823e-05 -6.77897e-06 
26.982 1 75 34.678 4.15335 2.17967 -1.98926 2.85415 3.56298 0.310983 -0.823 -0.0664899 0.0153644 -0.0028188 -0.0425082 0.0123717 -0.00195843 -0.0283387 1.64698e-05 -1.53387e-05 -1.72776e-05 
26.982 1 234 34.7241 1.92071 4.08891 -0.55298 1.47965 4.04188 -0.0847825 0.665537 -0.586566 -0.00362647 -0.0211527 -0.0074509 0.00106064 -0.0152317 -0.00480202 -2.27405e-06 3.61381e-06 -1.37843e-05 
26.982 1 34 34.7484 2.07396 0.274881 -2.8669 3.76939 -5.80804 0.111929 -0.0139713 -0.0921684 0.00713735 -0.01058 -0.0249524 0.00866413 -0.00813761 -0.0330044 1.52196e-05 5.00624e-06 -5.90254e-05 
26.982 1 233 32.6425 0.00989335 4.04068 2.31977 -0.754583 0.462455 0.0185916 -0.135514 0.137735 0.000631952 -0.0189266 -0.00999001 0.000414319 -0.0248787 -0.0115477 -1.15253e-06 -4.93909e-05 -1.62854e-05 
26.982 1 237 36.8099 0.156795 4.21388 1.55829 -4.00802 -0.588281 0.413165 -0.444954 -0.592326 0.00978858 -0.0337624 -0.0278291 0.00670807 -0.0231125 -0.0191585 1.93683e-05 -5.13043e-05 -3.3581e-05 
26.982 1 4 41.1602 2.30677 2.19439 -2.90988 -1.36263 2.11701 -0.0761795 -0.347985 -0.37931 -0.0235617 -0.0361912 -0.0338118 -0.0144402 -0.0237161 -0.0310338 7.91417e-06 -3.47079e-05 -3.95614e-05 
26.982 1 40 37.02 2.06635 2.05619 -4.41462 -1.73035 -1.29249 -0.579585 -0.0386478 0.202687 0.0189327 -0.0267509 -0.0563798 0.016479 -0.0209334 -0.0380075 3.62353e-06 -8.31755e-06 -1.94785e-05 
26.982 1 79 38.9634 4.00021 2.13709 5.47938 -1.05501 -3.44426 -0.0625197 0.757032 -0.27079 -0.00999986 -0.0152951 -0.0476006 -0.00614243 -0.00918739 -0.0388675 -1.08754e-05 9.70497e-06 -2.34844e-05 
26.982 1 238 39.0349 2.18495 4.14677 -2.62097 -3.16127 -4.90384 -0.165109 -0.228062 0.178396 0.00412154 -0.0349708 -0.0225363 -0.000493188 -0.0263692 -0.0177809 -1.86893e-06 -2.37067e-05 -1.41003e-05 
26.982 1 277 36.9025 4.00108 4.00565 -3.41433 3.9423 1.27127 -0.129161 0.547496 0.0725338 0.00051739 -0.00265812 -0.00707456 0.000550034 -0.00232361 -0.00530012 -1.74888e-06 8.66429e-06 -4.64939e-06 
26.982 1 37 37.0395 0.0512368 0.168701 -0.0125052 1.55812 7.11019 -0.295359 -0.297142 -0.0257735 0.000599126 -0.0372431 -0.023561 0.00769278 -0.0309725 -0.0221395 1.5004e-05 -4.20145e-05 -3.54663e-05 
26.982 1 38 38.9982 2.15198 0.0941523 -5.18256 -4.10649 -4.30295 -1.53972e-05 -0.327064 -0.140464 0.00116384 -0.00935561 -0.00779908 0.00106202 -0.011273 -0.0134361 2.98963e-06 -2.41994e-05 -5.0187e-05 
26.982 1 41 40.9553 4.0143 -0.0152163 1.52018 1.87828 -5.09522 0.474485 0.408198 0.314289 -0.0189809 -0.0229083 -0.0263894 -0.00604971 -0.0122401 -0.0217724 2.9839e-05 -9.17009e-07 -5.97445e-05 
26.982 1 83 1.32283 8.14005 2.14141 6.04464 -2.97369 -0.632915 0.331741 -0.0922023 -0.0227266 -0.033965 -0.00454604 -0.0260536 -0.0238514 -0.0050234 -0.0310324 -1.24134e-06 -3.46564e-06 -5.96351e-05 
26.982 1 242 1.46127 6.06482 4.11129 -1.53771 -1.63667 -3.98058 -0.0187332 0.267696 -0.159647 -0.0340452 0.0126196 -0.01885 -0.0239616 0.00843313 -0.0147074 -7.07668e-06 1.53822e-06 -1.16526e-05 
26.982 1 44 -0.577999 6.07202 1.95849 -1.20059 2.03681 -2.66311 -0.203719 -0.131227 0.22661 0.0140453 -0.0403118 -0.0258972 0.00402389 -0.0267587 -0.0292599 -4.16962e-05 -6.84413e-06 -4.68584e-05 
26.982 1 281 -0.629629 8.14586 4.09231 -0.158206 -0.00791343 5.61131 0.312945 -0.337221 0.118569 4.75585e-05 -0.00474834 -0.00528142 -0.00374173 -0.0051474 -0.00670966 -2.2578e-05 -2.23996e-05 -1.90137e-05 
26.982 1 48 3.60338 5.99365 2.03128 0.491062 0.761685 0.111672 0.0899311 0.870429 0.240786 -0.0103835 -0.00400128 -0.0296715 -0.0106696 0.000587354 -0.0287268 -1.92748e-05 9.40365e-06 -4.99683e-05 
26.982 1 285 3.54299 8.20612 4.05799 0.706926 -4.69547 1.80947 -0.131658 -0.305971 0.0505782 -0.00525069 0.000229149 -0.00392043 -0.00368584 3.99097e-05 -0.00407137 -3.24461e-06 -3.46637e-06 -5.65361e-06 
26.982 1 46 5.5849 6.25761 0.045673 -0.75394 -2.58998 1.32663 0.286648 -0.294476 -0.118815 -0.00961695 0.00148177 -0.070042 -0.0052825 0.00504272 -0.0561135 -6.2285e-07 -1.50128e-06 -6.72801e-05 
26.982 1 52 7.78506 6.08804 1.99933 -0.754568 1.82951 -0.151772 -0.194255 0.167282 0.158231 0.00460128 0.00598224 -0.0203099 0.00471616 0.00566275 -0.022069 -3.03653e-06 6.38815e-06 -3.81001e-05 
26.982 1 87 5.51062 8.02242 2.09075 -5.33562 -2.85859 3.07753 0.31867 0.507632 -0.0595638 -0.000969079 0.00933545 -0.0293888 -0.000901514 0.00456403 -0.0261427 3.63825e-06 8.48065e-06 -3.42462e-05 
26.982 1 86 5.46578 10.1135 0.18746 -4.15198 1.36091 0.439217 0.110498 -0.187251 -0.188518 -0.00621215 -0.00376454 -0.0252649 -0.0062189 -0.00696599 -0.0335992 -3.39e-06 -2.45655e-05 -6.50078e-05 
26.982 1 246 5.43096 6.20545 4.06219 0.911915 1.88895 1.34456 0.567522 -0.345601 0.291706 -0.000121097 -0.000101357 -0.00184124 -7.72724e-05 8.85972e-05 -0.00184949 6.83752e-06 -6.22056e-06 1.3998e-06 
26.982 1 289 7.59121 8.13343 4.10981 -6.81543 -0.48637 4.55172 0.557795 0.226859 -0.596683 0.000285744 0.000268278 -0.00359018 0.000211834 8.26803e-05 -0.00337742 9.03907e-06 4.14539e-06 -1.39395e-05 
26.982 1 286 5.68518 10.1822 4.012 2.8511 -0.780079 -2.10508 -0.173009 0.0578608 0.116525 -0.000305872 0.000242949 -0.00390724 -0.00014841 -3.38061e-05 -0.00278427 -2.72986e-06 1.99169e-06 -9.33848e-07 
26.982 1 56 11.9856 6.24403 2.0755 0.792702 3.69633 -2.9975 -0.340455 0.195405 -0.0108794 -0.0044388 0.0155195 -0.0296487 -0.00329321 0.0123369 -0.0264116 5.14136e-06 1.78511e-05 -3.69042e-05 
26.982 1 91 9.77207 8.27195 2.05178 -0.385819 -2.5916 -4.27733 0.177562 -0.435501 0.0372727 0.00918766 0.00595077 -0.0436863 0.00469927 0.00204845 -0.0376036 -1.31609e-06 3.42138e-06 -4.6825e-05 
26.982 1 250 9.73605 6.23839 3.98512 1.3715 2.17381 -2.46211 0.320899 0.326714 0.157779 0.00054161 0.00044126 -0.00229062 0.000281244 0.000494114 -0.00250323 4.47504e-06 9.01473e-06 -2.09404e-06 
26.982 1 293 12.0995 8.34287 4.12328 -0.389299 2.60221 2.27138 -0.417515 -0.127908 -0.339461 -0.000463193 0.000330174 -0.00518552 -0.00035035 0.000199018 -0.00425822 -7.04274e-06 -4.19398e-07 -1.19768e-05 
26.982 1 50 9.86729 6.01043 0.124802 0.777394 -2.46974 2.55165 -0.237675 0.196936 -0.172008 0.00903802 0.0124087 -0.0468842 0.00319551 0.00844786 -0.0320677 -1.0756e-05 1.94943e-05 -6.31557e-05 
26.982 1 95 13.9751 8.25018 2.10186 0.218321 0.182322 -1.02094 0.0785016 -0.0876494 0.0430531 -0.0137607 0.0105128 -0.0345403 -0.00948507 0.00357639 -0.0280493 1.0329e-05 -1.11933e-05 -4.9822e-05 
26.982 1 254 13.9715 6.17333 4.1363 -4.82245 -0.176359 2.8062 0.349373 0.28607 -0.149142 -0.000264076 -5.43624e-05 -0.00144331 -0.000353358 5.8666e-05 -0.00160682 8.31093e-06 4.68445e-06 -7.67712e-06 
26.982 1 94 13.8638 10.1338 -0.0788137 0.530446 1.57246 -1.40907 0.258707 0.462374 0.54837 -0.00516517 -0.00423651 -0.0252526 -0.00548806 -0.00509619 -0.0334981 1.78553e-06 -5.84686e-07 -5.4164e-05 
26.982 1 96 11.8816 10.0081 1.9763 1.35969 -0.146813 2.52822 0.169112 0.834296 0.0839646 2.48913e-06 -0.0138642 -0.0435433 -0.00192173 -0.00974671 -0.0328668 -5.95203e-06 1.1808e-05 -4.78198e-05 
26.982 1 100 16.0619 10.4692 2.19057 3.8898 -0.30338 3.27757 -0.0392183 -0.579123 -0.596711 0.000372194 0.010461 -0.0390493 -2.13014e-05 0.00501612 -0.0262169 -4.50125e-06 -9.2421e-06 -4.67978e-05 
26.982 1 294 14.1378 10.3779 4.10276 3.26198 -4.28235 0.173101 -0.606003 0.0252274 -0.0341192 -0.000164588 0.000620267 -0.00457555 -0.000158847 0.000293136 -0.00301658 -1.00569e-05 4.30781e-06 -6.39424e-06 
26.982 1 98 18.1405 10.3077 0.0256785 6.26921 -1.17616 2.1128 -0.0102645 -0.691991 0.736145 0.000470822 0.00111608 -0.0249878 -0.00258268 0.000582777 -0.0333839 -2.34108e-05 -1.03266e-05 -6.02085e-05 
26.982 1 60 16.1844 6.24842 2.2614 -0.437114 -2.7581 0.283954 -0.408452 0.0571888 -0.474133 -0.000498422 0.00157008 -0.0117113 -0.000505996 0.00250991 -0.0139131 -5.72278e-06 1.27336e-05 -4.96139e-05 
26.982 1 297 15.9715 8.40029 4.05239 0.241639 0.00732753 0.74477 0.394367 -0.733212 -0.0244518 1.56541e-05 0.000765208 -0.0021846 -2.31084e-05 0.000303753 -0.00198036 6.32497e-06 -1.16608e-05 -7.31233e-06 
26.982 1 99 18.1591 8.22076 2.10943 -1.88275 3.82066 4.39852 -0.0575184 0.470628 -0.0722863 0.0091061 0.0108577 -0.0291526 0.00299481 0.0036522 -0.0210442 -1.42214e-05 -3.98609e-06 -3.70964e-05 
26.982 1 258 18.1572 6.31571 4.21654 5.18391 2.77907 2.58235 -0.128853 -0.255451 -0.120501 0.000408497 0.000799841 -0.000929468 0.000312847 0.000521701 -0.00124589 -1.79576e-06 -3.20453e-06 -4.53994e-06 
26.982 1 301 20.2538 8.17448 4.21795 0.986697 -2.60817 -1.89665 -0.167141 0.236014 -0.200007 0.000580898 0.000573309 -0.00461171 0.000360232 0.000204048 -0.00300473 -1.71089e-06 3.11211e-06 -3.29751e-06 
26.982 1 298 18.2396 10.2408 4.18882 3.57191 -1.86444 2.80561 0.0656771 -0.265454 0.00317386 0.000513771 0.000328145 -0.00492164 0.000239554 0.000134907 -0.00289315 3.14187e-06 -8.40738e-06 -1.23661e-06 
26.982 1 101 20.3265 8.04787 0.0133411 -3.14268 -3.19965 -2.2693 -0.472111 0.604492 0.497104 0.00955897 -0.000837602 -0.0254546 0.00951818 -0.00420275 -0.033752 -5.45558e-06 -1.83336e-05 -6.26636e-05 
26.982 1 64 20.1263 6.28483 2.14885 -0.93876 2.41174 -1.08253 0.349344 -0.290812 -0.0310622 0.00544226 0.0105034 -0.0247011 0.00537462 0.00365294 -0.0228658 4.88328e-06 -1.79348e-05 -3.92154e-05 
26.982 1 103 22.205 8.14491 2.0625 3.21587 2.2681 -4.94873 0.416637 0.0159385 0.251988 2.97297e-05 0.0109002 -0.0478754 0.000447174 0.00367668 -0.0341485 7.63172e-06 -1.4451e-05 -2.00327e-05 
26.982 1 262 22.3895 6.1018 4.14067 1.15758 3.38065 -6.65105 -0.290268 -0.0807678 0.01316 -4.43968e-05 0.00114977 -0.0030135 0.000147574 0.000513514 -0.00306857 -3.83259e-06 -2.94e-06 -3.29683e-06 
26.982 1 105 24.4469 8.11914 -0.0127008 -1.51463 2.76154 -3.11858 0.00815696 0.219836 0.345046 -0.00354098 -0.00419221 -0.0248581 -0.00338398 -0.00734468 -0.0332965 8.86718e-07 -2.05742e-05 -6.02314e-05 
26.982 1 302 22.3558 10.2853 4.00947 -5.36596 -5.14594 3.10392 -0.182335 -0.287958 0.162682 -0.000412249 8.68814e-05 -0.00701206 -0.000123994 2.40266e-05 -0.00458148 -2.12276e-06 -3.79959e-06 2.2449e-07 
26.982 1 102 22.4974 10.2263 0.243967 0.215496 1.14821 -2.07505 -0.277763 -0.203349 -0.559295 0.000408503 0.000345118 -0.00201341 0.00209094 0.00126344 -0.00938472 1.00006e-05 7.47013e-06 -6.4766e-05 
26.982 1 68 24.4245 6.10928 2.03188 4.42625 2.45315 0.423216 -0.345441 0.314805 0.348142 -9.32854e-05 0.0102632 -0.0298427 0.00023185 0.00341683 -0.0281679 -9.62658e-07 -9.28809e-06 -4.32418e-05 
26.982 1 107 26.3677 8.20333 2.01958 4.78223 9.29471 -0.584834 0.511954 -0.310617 0.362403 0.00363828 -0.00395272 -0.0389395 0.00558302 -0.00645811 -0.0311716 1.59625e-05 -1.92406e-05 -2.82038e-05 
26.982 1 266 26.5678 6.23586 4.101 2.86903 2.07732 -0.329242 -0.268807 -0.469355 -0.105199 0.000137645 0.00076675 -0.00308681 0.000193902 0.000363587 -0.00334208 -4.82815e-06 -7.60837e-06 -9.78272e-06 
26.982 1 305 24.2776 8.07846 4.152 0.168505 0.590991 1.96477 0.376316 0.223396 -0.268101 -0.000575257 0.000392931 -0.00496285 -0.00026889 7.74213e-05 -0.0034401 3.5241e-06 2.68266e-06 -7.30602e-06 
26.982 1 106 26.6712 10.2086 0.132681 -0.900597 -0.111486 5.40074 -0.41893 0.00446607 -0.310817 -0.0129017 -0.00802243 -0.0699621 -0.00714687 -0.00489961 -0.0560324 -5.09194e-06 -3.6294e-06 -6.24539e-05 
26.982 1 306 26.6424 10.1768 4.15142 -0.748673 -1.53132 -4.9733 -0.381568 -0.134255 0.0212434 -0.000206822 -0.000238435 -0.00290939 -0.00019747 -0.000226474 -0.00221773 -7.23022e-06 -1.46539e-06 -1.51207e-06 
26.982 1 72 28.45 6.07061 2.16548 3.81537 -0.430568 -2.55856 -0.132255 0.0700482 -0.497234 -0.00504027 0.0145575 -0.0291516 -0.00690634 0.00970893 -0.0278193 -1.99475e-05 -1.33273e-06 -5.2985e-05 
26.982 1 70 30.4417 5.96074 0.185883 -6.80835 -3.22239 3.38015 0.438353 0.223522 -0.446378 -0.00399935 0.0231078 -0.0699805 -0.00922223 0.0141207 -0.055959 -2.68385e-05 1.86149e-07 -6.59326e-05 
26.982 1 111 30.6725 7.99329 1.96965 0.523942 0.530135 2.7826 -0.319636 0.361558 0.153943 -0.00458166 -5.64241e-05 -0.0329657 -0.00673178 -2.39287e-05 -0.0237905 -1.6206e-05 9.33061e-06 -2.06978e-05 
26.982 1 270 30.3987 6.05105 3.93573 1.09366 1.30273 0.36044 0.940943 0.0168297 0.587637 0.000276932 0.00061592 -0.00211777 -9.4796e-05 0.000503445 -0.00150767 1.06111e-05 9.14838e-07 7.21057e-06 
26.982 1 309 28.6968 8.12507 4.10335 -2.04706 -3.87379 5.91461 -0.476562 0.0345918 0.0691196 -7.66569e-05 0.000174016 -0.00459028 -0.000209019 -0.000149447 -0.00386779 -6.41252e-06 1.80038e-06 -5.64415e-06 
26.982 1 112 28.5823 10.05 2.23585 2.47231 -0.426363 -2.21577 0.362158 0.231078 -0.660767 -0.000855263 -0.0141511 -0.0249241 -0.000414702 -0.0113318 -0.0201455 6.75405e-06 -7.53554e-06 -2.79363e-05 
26.982 1 76 32.6859 6.03706 2.06514 1.44304 -4.74377 3.36446 -0.333972 0.00233564 0.0467802 0.00943133 0.00884023 -0.0285662 0.00474395 0.0044536 -0.0173112 -6.37805e-06 4.18159e-07 -1.01153e-05 
26.982 1 113 32.7567 7.91272 0.0429493 1.85509 -3.90752 -0.191408 -0.248378 0.30162 -0.302689 -0.000598904 0.0018725 -0.0251394 0.000514713 0.00370188 -0.0335195 6.92784e-06 1.7484e-05 -6.60297e-05 
26.982 1 74 34.788 6.03277 0.261117 -1.51508 -1.00389 0.526921 -0.136686 0.0109587 -0.944162 0.00682015 -0.00492108 -0.0251947 0.00835983 -0.00608402 -0.0336026 1.26016e-05 -1.11204e-05 -6.83262e-05 
26.982 1 115 34.7119 8.1952 2.23113 1.88449 1.72594 -0.273652 -0.066841 0.0328204 -0.294036 -0.00779474 -0.00865323 -0.0287186 -0.00359303 -0.00239615 -0.019333 -2.06019e-06 1.97403e-05 -2.77178e-05 
26.982 1 274 34.7959 6.1433 3.95357 3.97569 7.84665 3.40258 0.21091 -0.118845 0.316383 0.000817007 -0.00046102 -0.00428942 0.000708127 -0.000166915 -0.00238299 5.99946e-06 -4.13529e-06 4.38135e-06 
26.982 1 313 32.6695 7.98125 4.14957 2.3535 -1.12319 -0.0626978 -0.126524 0.521284 -0.325883 0.000363453 9.32359e-06 -0.00355378 0.000143622 0.000102796 -0.00207379 -3.82276e-06 6.83904e-06 -3.7461e-06 
26.982 1 117 36.69 8.17733 0.118903 -2.83242 -2.79064 -5.52045 0.861207 -0.356245 0.00497291 0.00849705 -0.00101641 -0.0697431 0.00830576 0.00033638 -0.0559464 -8.18567e-06 1.84382e-05 -6.50466e-05 
26.982 1 120 36.7986 10.2113 2.12875 1.02854 1.07123 -2.50339 0.161573 -0.242105 0.161644 0.0137743 0.00961341 -0.0347162 0.00802714 0.00685851 -0.0263436 -1.03033e-05 1.16999e-05 -3.39372e-05 
26.982 1 80 36.8377 6.22785 1.97501 -4.10166 1.56356 -1.27903 0.330406 -0.809459 0.422885 -0.00265648 -0.015792 -0.0384225 0.0018314 -0.0123837 -0.029075 8.52065e-06 -2.48203e-05 -1.42486e-05 
26.982 1 119 38.9385 8.0102 2.10406 -0.599634 4.30523 0.755308 -0.0360105 0.329359 -0.0685398 0.00606101 0.00781121 -0.0343976 0.00610315 0.00368911 -0.0282612 1.90151e-06 3.95525e-06 -1.26461e-05 
26.982 1 278 39.0609 6.06311 4.23848 -2.7851 -3.19126 1.84321 -0.465858 0.273011 -0.596098 0.0155269 -0.0159406 -0.00476076 0.0123996 -0.0126231 -0.00395287 1.26517e-05 -1.73722e-05 -1.30038e-05 
26.982 1 317 36.8567 8.06967 3.96011 4.42022 -7.07761 1.67209 0.19588 0.236532 0.399778 6.05246e-05 -0.000628015 -0.00267178 0.000272693 -0.000416655 -0.00194168 4.14432e-06 2.8154e-06 2.03079e-06 
26.982 1 81 40.8623 8.19838 0.161085 -8.4147 -2.19742 -1.53382 0.321312 -0.492013 0.315919 -0.0316855 -0.0104922 -0.0347993 -0.017552 -0.0114661 -0.0315517 2.72818e-05 7.1513e-06 -6.31845e-05 
26.982 1 78 38.8492 6.04399 0.0453567 0.655521 1.86063 -0.184832 0.177167 0.21255 0.0941823 -0.00107662 -0.0199715 -0.0457385 -0.00158729 -0.0118842 -0.031214 -7.48105e-06 -1.12284e-05 -6.0452e-05 
26.982 1 88 3.35166 10.0981 2.16651 -2.1185 1.7672 2.98941 0.404673 0.235565 -0.184873 -0.0102671 -0.00022988 -0.0431339 -0.0101263 -0.00223017 -0.0360925 -8.96358e-06 -1.13085e-05 -3.77929e-05 
26.982 1 123 1.49366 12.397 2.12101 -2.76534 2.55452 -2.53533 0.0456836 -0.446145 0.195799 -0.0330095 -0.0207087 -0.0387969 -0.0197334 -0.0127859 -0.0364299 -2.14536e-05 -1.79341e-05 -2.97577e-05 
26.982 1 128 3.72556 14.2825 1.99894 7.30747 1.74719 2.13473 -0.302367 -0.0961139 -0.0678714 -0.00508439 -0.000480592 -0.0295232 -0.00274437 0.000149336 -0.0283787 -5.27806e-06 1.32932e-06 -1.35023e-05 
26.982 1 282 1.41555 10.3384 4.06377 6.64271 3.0653 -0.148558 0.0890646 -0.248964 0.336151 -0.0387742 -0.00513309 -0.0168014 -0.0235867 -0.00523621 -0.0110164 -3.82959e-06 -2.47276e-06 -4.54802e-06 
26.982 1 322 1.69746 14.1441 4.31703 3.74568 -1.76674 -3.4682 -0.374134 -0.0548046 -0.444911 -0.024993 -0.00996676 -0.0146184 -0.014007 -0.00511566 -0.00929682 -3.85126e-06 -1.40837e-06 -6.96712e-06 
26.982 1 84 -0.664966 10.2126 2.29194 -3.94416 0.563143 5.73733 -0.0281822 0.0821098 -0.521753 -0.00685955 -0.0174698 -0.0572272 -0.0180996 -0.0128511 -0.0423438 -4.61865e-05 2.80446e-06 -5.20523e-05 
26.982 1 124 -0.505153 14.1114 2.37826 -0.0882248 2.51929 3.47439 -0.532012 -0.0809922 -0.752084 -0.00843058 -0.0162471 -0.0393397 -0.0206924 -0.0113286 -0.0316528 -6.03713e-05 -3.99165e-06 -4.50911e-05 
26.982 1 321 -0.671038 12.2049 4.32088 -2.16233 0.150998 3.27878 0.184202 -0.0242659 -0.436506 -0.0116179 -0.00856773 -0.0125167 -0.0160498 -0.00973143 -0.0128673 -2.49059e-05 -1.16221e-05 -2.58021e-05 
26.982 1 122 1.51033 14.1529 -0.0826847 1.56511 -3.01078 -4.53473 -0.382239 0.636858 0.745846 -0.0386465 -0.00633127 -0.036606 -0.0263941 -0.006088 -0.0272158 -3.17191e-05 2.25549e-06 -5.82354e-05 
26.982 1 125 3.46157 12.126 0.288613 -3.356 4.03657 2.48463 0.388552 -0.148609 -0.382561 -0.00530446 -0.0192624 -0.0466212 -0.00560869 -0.0117259 -0.0321505 -1.15168e-05 -1.43008e-05 -6.5672e-05 
26.982 1 325 3.71472 12.2359 3.99437 -4.72111 -3.72456 0.736717 -0.214347 -0.299418 0.174669 -0.00388356 -0.001086 -0.00424065 -0.00233353 -0.000611569 -0.00363158 -2.8346e-06 -6.43844e-06 2.24397e-06 
26.982 1 127 5.71804 12.1806 1.94896 -1.44315 1.25724 -6.37399 0.00302583 0.166863 0.470908 -0.0051116 -0.00493908 -0.0287613 -0.00522224 0.000169076 -0.02306 3.29105e-06 2.22045e-06 -6.63681e-06 
26.982 1 326 5.71093 14.1496 4.06909 4.16393 0.656849 2.03926 0.100457 -0.105819 -0.173158 -0.000163243 6.81735e-06 -0.00250791 -3.24431e-06 0.000241959 -0.00273784 2.56317e-06 -4.43879e-06 -4.70056e-06 
26.982 1 126 5.80623 14.2953 0.0889361 -1.75862 -2.02886 -1.64859 0.00880173 -0.105265 -0.0151133 0.000396475 -0.00180858 -0.0469149 0.00233838 0.00132956 -0.0320199 1.63141e-05 1.52787e-05 -6.19505e-05 
26.982 1 92 7.65604 10.1286 1.94299 4.22958 1.24844 3.18421 0.168168 0.0276848 0.396984 0.00118507 -0.0052904 -0.0339383 0.00245778 -0.00704144 -0.0263635 1.48577e-05 -1.66821e-05 -3.07318e-05 
26.982 1 129 7.71982 12.0762 0.0449739 1.27697 1.59928 1.6967 0.177987 0.414668 -0.0114237 0.00035035 -0.00923131 -0.0699964 0.00355636 0.000442528 -0.0561313 2.85788e-05 3.90531e-06 -6.27424e-05 