ITEM: TIMESTEP
18500
ITEM: NUMBER OF ATOMS
4000
ITEM: BOX BOUNDS pp pp pp
-3.83417 44.3342
1.15065 39.3493
1.41607 39.0839
ITEM: ATOMS mass type id x y z vx vy vz fx fy fz xrad yrad zrad vxrad vyrad vzrad fxrad fyrad fzrad 
26.982 1 202 -0.820968 3.8298 5.11073 -0.219141 -0.529344 1.9811 0.0178658 0.556162 -0.0802042 -1.18412 -1.09154 -1.10677 -0.10651 -0.100662 -0.111534 5.16387e-06 1.25946e-05 -1.83449e-05 
26.982 1 2 -1.67345 3.24012 1.99599 -3.2578 -4.05804 4.3804 0.63108 0.52842 0.370886 -0.819172 -1.23871 -2.27143 -0.0866874 -0.115336 -0.229021 -1.08414e-05 -5.05123e-06 -4.38576e-05 
26.982 1 4 -3.41099 3.09543 4.45212 -3.56062 4.29165 -6.03839 -0.151267 0.360892 0.104298 -1.38083 -1.41353 -1.61987 -0.121853 -0.137426 -0.154945 -3.73976e-05 -9.87891e-06 -3.80213e-05 
26.982 1 241 -3.06034 5.86788 5.42976 -4.85468 0.570722 1.96231 0.389116 -0.168772 0.0440991 -0.912682 -0.909192 -1.06716 -0.0796711 -0.0700451 -0.0986379 -2.42361e-05 7.52788e-06 -1.27812e-05 
26.982 1 41 -3.41289 5.58211 2.67878 -4.39849 -4.52223 0.849697 0.13144 -0.149313 -0.510644 -0.710453 -0.700951 -1.6771 -0.0605201 -0.049779 -0.189876 -3.28524e-05 2.82356e-06 -4.3466e-05 
26.982 1 5 0.62418 1.60139 2.2603 -3.52691 -1.68837 -0.933857 -0.0491313 -0.12065 0.220518 0.124687 -0.993104 -1.55449 0.0174731 -0.112191 -0.166139 1.70947e-05 -2.8957e-05 -3.18434e-05 
26.982 1 205 1.29758 2.14491 5.54814 -5.94275 6.27438 1.6593 0.198983 0.222165 -0.61551 0.0864537 -1.5709 -1.30949 0.010608 -0.170498 -0.135337 1.91501e-05 -2.63135e-05 -3.23996e-05 
26.982 1 245 2.70599 4.81975 6.01228 -0.714918 5.49066 -1.83279 0.256015 -0.365061 0.458301 -0.0962555 -0.187248 -0.292253 -0.0108403 -0.0142849 -0.032318 2.0675e-06 -1.1946e-05 -3.89396e-07 
26.982 1 8 2.20795 3.74148 3.63271 -5.48617 6.3836 4.58668 -0.148523 -0.0811741 -0.454105 0.298879 -1.79707 -2.01222 0.0165978 -0.149055 -0.215385 -6.10727e-06 -2.04464e-05 -3.74827e-05 
26.982 1 47 4.61443 5.43051 4.26157 5.74185 -5.77369 1.13202 0.705796 -0.700123 -0.401532 -0.0814705 -0.441663 -1.97882 -0.00275064 -0.0344771 -0.206098 1.93446e-05 -1.35673e-05 -2.76628e-05 
26.982 1 206 5.00832 2.38273 5.18194 2.67398 2.02269 9.29317 0.377272 0.897948 -0.0945813 -0.0262127 -1.70779 -1.02262 0.00792585 -0.176372 -0.0998145 -3.24457e-06 -3.52178e-05 -2.46231e-05 
26.982 1 6 4.59812 3.29731 2.43747 2.04006 2.80828 3.03804 0.623441 -0.229317 -0.237554 -0.222294 -1.29995 -1.8461 -0.0129166 -0.126352 -0.189968 6.56806e-06 -1.89912e-05 -5.23174e-05 
26.982 1 249 7.42243 4.48571 5.3931 2.1692 -1.99484 -3.37023 -0.637579 0.510029 -0.0105181 -0.00796098 -0.195391 -0.239853 0.000395917 -0.0217682 -0.0253612 -1.66681e-05 4.98366e-06 -7.83156e-06 
26.982 1 12 7.40111 2.66994 3.42221 0.113529 -4.17099 -6.50585 -0.539989 -0.511023 -0.157616 -0.278767 -2.15939 -1.77981 -0.0100938 -0.20767 -0.189221 -2.91512e-06 -4.02522e-05 -4.57624e-05 
26.982 1 51 9.35775 4.7835 3.07266 2.8019 5.46579 8.32996 -0.132881 -0.0376377 0.294951 0.00132404 -0.207586 -1.73135 -0.00648204 -0.0349451 -0.21141 -4.13314e-06 -7.46382e-06 -5.40508e-05 
26.982 1 52 6.9891 6.35087 3.21907 6.5032 0.340455 1.51056 0.0758388 0.440821 0.291594 0.00860998 -0.0497051 -1.78257 -0.0057036 -0.0168061 -0.211318 -3.40822e-06 -6.42705e-06 -5.54213e-05 
26.982 1 210 9.34249 2.51026 5.39789 5.46464 -0.820053 5.00386 0.392201 0.165695 -0.46047 0.0982445 -1.65487 -0.895444 0.00540116 -0.171217 -0.0956075 5.61644e-06 -3.79443e-05 -3.22222e-05 
26.982 1 253 11.3441 4.70332 5.16879 -3.65319 -0.257912 -3.27091 -0.517494 0.568341 -0.379636 0.00111412 -0.227642 -0.251998 -0.0021055 -0.0249477 -0.0297125 -8.99708e-06 7.02171e-06 -1.49916e-05 
26.982 1 16 11.3529 2.87857 3.11527 0.420949 -3.83969 -2.4645 -0.0496969 -0.297227 0.133076 0.202976 -2.21659 -1.69873 -0.00200959 -0.22672 -0.182003 -3.01821e-07 -4.53702e-05 -5.0704e-05 
26.982 1 214 13.3533 2.90225 5.03983 -0.648425 -1.36227 1.6479 0.347206 -0.614917 -0.162774 0.0578782 -1.80583 -0.918072 -0.00070899 -0.185408 -0.0926521 3.92584e-06 -5.08725e-05 -2.43404e-05 
26.982 1 55 13.3801 5.064 3.10885 7.29764 -2.93736 -5.55317 -0.563823 -0.342617 -0.206398 0.0317969 -0.36857 -1.96571 0.000873633 -0.0218198 -0.196805 -7.68535e-06 -3.76394e-06 -6.33639e-05 
26.982 1 20 15.5314 2.81961 3.11656 6.19702 -5.08963 -2.91647 0.0275279 -0.442822 -0.48152 -0.314154 -2.15549 -1.66484 -0.0110141 -0.207532 -0.169216 -1.71675e-06 -4.61933e-05 -5.58835e-05 
26.982 1 257 15.3434 4.77637 4.82671 -1.04107 1.95633 0.293816 0.611898 0.711636 0.5635 -0.00947842 -0.226566 -0.254187 -0.00265864 -0.0207353 -0.0272136 6.43814e-06 6.71644e-06 -5.83843e-06 
26.982 1 218 17.5503 2.9431 4.93061 4.14752 8.57326 -2.2954 0.270871 -0.217457 -0.407302 -0.0916421 -1.716 -0.797503 -0.00588612 -0.167817 -0.0861182 6.1393e-06 -4.18496e-05 -3.09894e-05 
26.982 1 59 17.6756 5.08368 2.94462 -1.88504 3.00038 0.125755 -0.0229213 -0.329301 0.439948 0.0994926 -0.0945006 -1.85671 0.0130555 -0.0147095 -0.21008 -1.19995e-07 -1.22571e-05 -5.84067e-05 
26.982 1 24 19.8594 2.99005 3.22532 2.02372 3.09045 5.74466 -0.201457 0.470611 -0.360322 0.12712 -1.80559 -1.6618 0.00633624 -0.176693 -0.196895 -1.31346e-05 -3.12875e-05 -4.03032e-05 
26.982 1 261 19.5436 5.23038 5.20744 -2.51416 -0.61576 2.50684 0.319551 -0.246782 -0.525525 0.0122088 -0.195811 -0.289909 0.00125649 -0.0196817 -0.032454 9.87164e-06 -8.10834e-06 -1.21431e-05 
26.982 1 63 22.1809 4.53228 2.68827 0.076795 -2.93014 2.33602 -0.204394 0.138535 0.140014 0.0615441 -0.0949885 -2.23601 0.00264196 -0.0154436 -0.250775 -7.65249e-06 -2.72918e-06 -6.38753e-05 
26.982 1 222 22.1805 3.92486 5.35509 -4.02108 -0.465762 7.46933 -0.362804 -0.634438 0.596023 -0.0251088 -1.59314 -0.846679 0.000998034 -0.155177 -0.0844547 -1.0215e-05 -1.26979e-05 3.02255e-06 
26.982 1 23 22.2839 1.71584 3.783 -1.47045 -3.76851 3.26157 -0.368593 -0.657426 0.0275822 0.00952569 -1.45557 -1.89131 -0.0022234 -0.152078 -0.204993 -1.61569e-05 -5.32884e-05 -3.27976e-05 
26.982 1 28 24.5806 2.71421 2.92369 -0.338597 1.35716 2.10883 0.410366 -0.257097 -0.209894 -0.0980768 -1.56949 -1.90894 -0.00596831 -0.168061 -0.208613 1.17305e-05 -3.36841e-05 -6.10632e-05 
26.982 1 265 24.6931 4.61406 4.70477 0.0628392 -1.58988 0.65329 -0.0464528 0.533483 0.412687 -0.00050685 -0.185755 -0.324757 -0.000583701 -0.0212202 -0.0364377 -4.07728e-06 6.69858e-06 -3.65805e-06 
26.982 1 67 26.5958 4.95869 2.67622 2.85057 3.09377 0.519756 -0.44999 -0.0788467 -0.238693 0.10252 -0.0231149 -2.54553 0.00501628 -0.00814422 -0.266901 -7.97698e-06 -4.5294e-06 -6.24258e-05 
26.982 1 225 24.5164 1.57715 5.62515 0.206397 -3.12179 0.910255 -0.0907014 0.246721 -0.144066 -0.0374884 -1.45889 -1.13261 0.00294774 -0.12851 -0.109412 1.50763e-05 -3.19208e-05 -2.84976e-05 
26.982 1 226 26.8833 2.97367 4.62018 1.92621 2.33078 -1.03691 0.346594 -0.258896 0.29939 0.00457241 -1.42172 -0.702774 -0.000969728 -0.159374 -0.0850178 1.37463e-05 -4.92903e-05 -1.75322e-05 
26.982 1 32 30.6634 5.33631 2.41316 -3.29984 12.1305 -0.413567 0.0654183 -0.034018 0.196095 0.0315994 -1.37935 -2.08986 0.000952265 -0.139723 -0.229589 -3.57798e-06 6.03923e-06 -6.42762e-05 
26.982 1 269 28.8448 5.04978 4.47586 -3.1366 -0.188821 2.0843 -0.337285 -0.00589628 0.324341 -0.009228 -0.174645 -0.357276 -0.000505687 -0.0218587 -0.0384421 -7.01902e-06 -5.59597e-06 -1.72787e-06 
26.982 1 27 28.825 3.24564 2.41039 4.11075 8.23548 1.01705 -0.279455 -0.603331 0.0111141 -0.069086 -2.13161 -1.65122 -0.0134477 -0.183391 -0.183669 -1.17037e-05 -3.73595e-05 -5.05758e-05 
26.982 1 230 31.0952 3.15029 4.19879 -2.51575 2.31805 -1.65644 -0.15333 0.166254 0.287652 -0.0908415 -1.4357 -0.770189 -0.0073463 -0.156211 -0.0842968 -1.43791e-05 -2.10985e-05 -2.98498e-06 
26.982 1 273 32.9177 5.45587 4.02812 -2.12192 2.75312 2.19645 -0.356269 0.158018 0.409272 -0.00142905 -0.148199 -0.275771 6.90064e-05 -0.0175694 -0.0282171 -9.66573e-06 2.64757e-06 -6.77304e-06 
26.982 1 36 35.0727 3.48263 4.10339 5.68529 1.63027 2.49303 0.284559 -0.00352599 0.00421514 -0.174403 -1.57552 -1.94714 -0.0222765 -0.162525 -0.187167 3.29373e-06 -7.9424e-06 -7.64363e-06 
26.982 1 30 33.0746 3.55226 2.19209 -5.55476 -0.958724 3.51762 -0.399085 -0.622986 -0.130054 -0.061615 -1.08972 -2.15908 -0.009194 -0.118417 -0.204084 -5.75131e-06 -1.79347e-05 -6.47664e-05 
26.982 1 73 35.0009 5.63056 2.03619 -9.25629 0.470951 -5.1267 -0.690715 -0.281676 0.122274 0.162177 -0.173602 -2.15136 0.00412879 -0.0151867 -0.212519 -1.02176e-05 -3.96562e-06 -6.50038e-05 
26.982 1 33 35.3134 1.37414 2.37052 -0.315892 4.73216 0.646386 -0.187971 0.324828 -0.441065 -0.0318238 -1.03543 -1.92188 -0.00904958 -0.100826 -0.198165 -1.18175e-06 -4.63543e-05 -4.8167e-05 
26.982 1 236 33.1375 3.34266 6.02002 3.6467 3.25333 -4.09507 -0.022133 -0.224138 0.407651 -0.203358 -2.17357 0.10037 -0.0117918 -0.225074 0.00674797 -1.60285e-05 -2.71408e-05 9.34787e-06 
26.982 1 2837 38.6766 20.0686 15.7617 -4.21557 4.80493 -4.66347 0.628519 0.380254 -0.0533018 -0.519631 -0.840839 -1.55668 -0.0544825 -0.0473798 -0.147388 1.73654e-05 2.38807e-05 -2.84348e-05 
26.982 1 34 37.0784 3.60722 2.1237 -3.2488 8.97723 0.312751 -0.172951 0.201059 -0.0873546 0.0516444 -0.987344 -2.36787 -0.0082557 -0.109547 -0.245864 -3.4202e-06 -8.38193e-06 -5.96837e-05 
26.982 1 35 37.4707 1.71451 4.16277 -1.60659 -3.56402 1.27696 0.297306 -0.208292 -0.186685 0.0709311 -2.56109 -1.92492 0.00183912 -0.231134 -0.189099 1.28289e-05 -4.86663e-05 -2.08261e-05 
26.982 1 77 38.8355 5.8764 1.8497 -5.13963 2.22057 2.79938 0.328408 0.283645 0.116103 0.0611824 -0.0535968 -1.56715 0.00937801 -0.00350942 -0.208653 6.38054e-06 4.57172e-06 -6.46853e-05 
26.982 1 75 37.0109 5.8353 4.0072 -6.1834 3.18594 -3.49643 -0.17621 -0.340831 0.214455 0.126862 -0.0557199 -2.17653 0.000844176 -0.00452305 -0.199137 -1.2885e-06 -3.02703e-06 -4.02843e-06 
26.982 1 234 37.3952 3.64062 6.04934 9.03078 3.6687 -2.9531 -0.311608 0.0575327 0.176708 -0.009022 -1.17909 -0.601003 -0.00641805 -0.12141 -0.0588107 -5.97832e-06 -7.56695e-06 6.34889e-07 
26.982 1 40 39.2196 4.10854 3.95114 0.428616 7.60714 2.27884 0.148442 -0.362445 0.0463814 0.389832 -1.59674 -2.19421 0.0217643 -0.154952 -0.191576 6.21305e-06 -1.1687e-05 -1.07437e-05 
26.982 1 237 39.7555 2.15011 5.95147 -0.0898345 3.97982 -1.10985 -0.285691 -0.824102 0.0654414 0.205738 -1.83187 -1.38036 0.0169502 -0.192495 -0.127302 6.11388e-06 -6.74564e-05 -7.3917e-06 
26.982 1 37 39.3729 1.91735 1.87352 -1.32596 5.54693 4.46653 -0.0169123 0.143749 0.534999 0.0294769 -1.27701 -1.82624 0.00282478 -0.131546 -0.194505 4.68908e-06 -4.40558e-05 -4.00117e-05 
26.982 1 1 43.8565 2.67647 1.8763 -0.480544 4.11945 -3.23504 -0.61512 0.133994 -0.179823 -0.57381 -1.03164 -2.30336 -0.0361315 -0.115989 -0.232894 -5.13614e-06 -2.9823e-05 -5.03267e-05 
26.982 1 79 42.4812 4.77561 4.33368 0.737737 -2.3349 -2.7835 0.124591 0.335552 -0.00319723 -0.0588187 -0.213433 -2.32163 0.00271336 -0.0132344 -0.204249 2.48705e-06 7.88502e-07 -1.04411e-05 
26.982 1 39 41.7934 2.29103 3.8175 -1.11816 -0.318948 -2.56874 -0.526015 -0.562972 -0.109539 -0.261955 -1.19632 -1.95087 -0.0121483 -0.154665 -0.179406 -1.91711e-06 -5.2711e-05 -2.69598e-05 
26.982 1 38 41.1503 4.08294 1.90528 -4.73716 -3.71703 2.63711 -0.0892764 0.287816 -0.333737 0.00256785 -0.924782 -1.89386 0.00136831 -0.0901147 -0.219491 6.71801e-06 -3.5511e-06 -6.26261e-05 
26.982 1 43 -0.811977 6.39631 3.88207 -2.69997 -0.59095 2.07301 -0.160481 -0.0136484 -0.399553 -1.2628 -0.553983 -1.9747 -0.113773 -0.0303477 -0.204483 -5.56398e-06 -1.63075e-06 -3.77288e-05 
26.982 1 83 0.197821 8.99139 4.56356 4.37262 0.564509 1.75368 -0.375408 -0.696411 -0.650255 -1.37702 -0.562003 -2.02798 -0.109995 -0.0617295 -0.215696 -9.19315e-06 -1.62688e-05 -2.49874e-05 
26.982 1 44 -3.07887 8.43013 3.54052 2.70953 -1.93076 7.32436 -0.372889 0.168619 -0.0873077 -0.455246 -1.20511 -1.98386 -0.0594105 -0.0939521 -0.203254 -2.99216e-05 -1.11458e-05 -4.41957e-05 
26.982 1 242 0.384105 6.65792 6.22198 -2.151 3.11738 3.58424 0.0505845 -0.10701 0.0346078 -1.45277 -0.0699864 -0.813288 -0.125793 -0.00832458 -0.074148 -4.5146e-06 -7.609e-06 -6.45239e-06 
26.982 1 281 -1.90662 8.38108 6.03984 1.61675 5.17023 -3.11653 -0.19477 -0.630046 0.668659 -1.00514 -0.940574 -1.13359 -0.104569 -0.0814557 -0.10507 -3.12209e-05 -9.14576e-06 5.70308e-06 
26.982 1 48 2.18017 6.48569 4.04801 -4.54923 0.58835 -3.61274 -0.338703 1.2218 -0.514391 -0.323933 -0.0952649 -1.92803 -0.0291043 -0.000971032 -0.207953 -7.0631e-06 1.3581e-05 -2.52543e-05 
26.982 1 285 2.15195 9.04663 6.32552 -1.50533 0.293927 -0.342932 0.270062 -0.285007 0.415361 -0.118018 -0.00784626 -0.228872 -0.00686074 0.00270413 -0.0253633 3.48758e-06 -7.56818e-06 5.52706e-06 
26.982 1 87 4.82072 8.17598 3.46388 -3.20255 -1.0804 6.24763 0.210273 -0.64187 -0.24903 -0.0450729 -0.0251223 -1.7651 -0.0133911 -0.00781358 -0.203703 1.15102e-05 -1.81536e-05 -3.13383e-05 
26.982 1 246 4.39748 7.28535 6.09517 1.10427 0.289466 -2.16516 -0.135602 0.016572 0.553916 -0.00891654 -0.00736504 -0.204595 -0.00444796 0.00137295 -0.0228546 3.29245e-06 -2.19965e-06 6.28155e-06 
26.982 1 88 2.70515 9.69896 3.63324 1.73402 -5.5541 -3.6653 -0.307168 0.122301 -0.252893 -0.31061 -0.0918998 -1.8167 -0.0265028 -0.0159177 -0.200045 -2.08434e-06 -7.41683e-06 -1.33055e-05 
26.982 1 286 4.58114 10.2185 5.5055 2.05684 1.31791 5.02563 0.706279 -0.477404 0.252986 -0.0154093 0.00416929 -0.183329 -0.00722885 0.000369019 -0.0191938 1.23154e-05 -4.59865e-06 3.76147e-06 
26.982 1 3037 39.2768 20.0684 19.6893 -3.40895 3.63867 -1.94206 -0.110262 0.36105 0.636612 -0.818843 -0.686696 -2.36802 -0.0731048 -0.0641023 -0.21554 -1.9887e-05 1.93817e-05 5.9482e-06 
26.982 1 289 6.8866 8.32878 5.40188 -1.44513 -3.83626 -5.25571 0.0763664 0.420017 0.157785 0.00219162 -0.000217328 -0.200932 -0.00280884 -0.000840222 -0.022007 7.46738e-07 1.31535e-06 3.45652e-06 
26.982 1 250 9.04948 6.64151 5.23998 6.42468 6.34904 0.564015 0.261691 -0.0486083 -0.146128 0.00606219 -0.00894147 -0.208111 -0.00112633 -0.00430507 -0.0254555 1.56653e-06 -2.36386e-06 -8.11392e-06 
26.982 1 91 8.7883 8.689 3.29644 0.980193 -1.71159 9.84506 0.0362861 -0.119767 -0.209586 0.164816 0.0908496 -1.99633 0.0131708 0.00379754 -0.196752 -1.99843e-06 -9.3969e-07 -5.8198e-05 
26.982 1 293 10.8539 8.79756 5.07875 -0.601326 1.03566 0.0261479 0.413007 0.0614913 0.163825 0.00372545 0.0139114 -0.249968 0.000686949 0.000629122 -0.0250918 5.96364e-06 -1.88235e-07 -6.13765e-06 
26.982 1 56 11.0587 6.98416 2.62999 2.42067 -0.175171 -5.56435 0.185602 -0.0756678 0.881911 0.046388 0.160748 -1.9558 0.00340268 0.00974815 -0.20536 -5.47391e-07 -3.44598e-06 -5.43495e-05 
26.982 1 95 12.9352 9.11323 3.02815 3.96104 0.0147582 -2.30301 -0.28808 -0.165475 -0.0236204 -0.0259575 0.142196 -2.24467 -0.000578372 0.00755506 -0.236184 -1.57531e-05 -1.10168e-06 -4.56143e-05 
26.982 1 254 13.1076 7.20395 4.93442 -3.54027 -0.837796 -1.89882 0.104173 -0.339431 0.125472 0.00425179 0.00373281 -0.232627 0.000901098 0.00174066 -0.0267788 1.14881e-06 -3.68046e-06 -8.59395e-06 
26.982 1 60 15.5392 6.94128 3.1358 4.88659 0.354813 -4.65338 -0.501029 0.0269621 -0.148682 -0.0107657 0.106669 -2.00524 -0.00116269 0.0119926 -0.209838 -5.68227e-06 -8.04361e-06 -4.81546e-05 
26.982 1 297 15.2764 9.20824 4.70815 0.339596 -5.51523 -3.45438 0.141023 -0.0635172 0.197842 0.00666018 0.0136604 -0.270907 0.0025749 0.000319968 -0.0300289 3.51943e-06 2.31478e-06 2.78431e-07 
26.982 1 99 17.7286 8.78396 3.02441 1.61905 1.0474 1.47967 -0.638142 0.310867 0.160968 -0.114837 0.162222 -2.10273 -0.00881448 0.0144488 -0.218994 -6.79239e-06 8.85002e-06 -5.51464e-05 
26.982 1 258 17.4256 7.16397 5.12399 -2.81758 5.54207 -1.30903 0.174012 -0.492444 0.176154 -0.00164687 0.00996641 -0.229922 -0.0028037 0.00400202 -0.0246436 -9.513e-07 -5.55438e-06 3.11611e-08 
26.982 1 64 19.7935 6.88059 3.00383 3.62536 -2.87675 -3.70554 -0.213901 -0.902711 -0.864468 0.106502 -0.164356 -2.0931 0.00739459 -0.0184762 -0.233597 -2.03076e-07 -1.8956e-05 -6.70711e-05 
26.982 1 301 19.9959 8.47968 4.88543 -2.6827 0.381518 2.18568 0.167596 0.679945 0.665146 -0.00909911 0.0134167 -0.239145 -0.00440803 0.00280203 -0.027115 2.77933e-06 6.57224e-06 8.57163e-07 
26.982 1 103 21.8154 8.62668 2.74576 4.56992 0.938177 1.4823 0.532648 0.368285 0.157168 0.0739322 0.0140054 -2.17195 0.0027571 -0.0059781 -0.229917 1.0933e-05 8.43414e-06 -6.35135e-05 
26.982 1 262 22.1627 6.49715 4.63776 4.58946 -0.250191 2.26263 0.0300926 0.167275 0.115613 0.00374807 -0.0172628 -0.27504 -0.000208226 -0.00225848 -0.0312678 4.99525e-06 1.92289e-07 -4.49316e-06 
26.982 1 302 22.029 10.4628 4.94222 3.26781 2.63828 4.88569 0.367713 -0.0798516 0.037826 -0.0133873 0.00920815 -0.267052 -0.00582944 0.00384836 -0.0259549 2.02411e-06 1.95967e-06 -3.24263e-06 
26.982 1 305 24.1968 8.76596 4.76507 2.63254 1.2079 -0.575415 -0.14116 -0.41047 -0.469964 0.00784024 -0.0033549 -0.270504 0.000507193 -0.00111995 -0.0295376 -3.62641e-06 -1.10677e-05 -1.57539e-05 
26.982 1 68 24.1025 6.67407 2.58745 2.00465 -5.03739 1.51013 -0.0859878 0.314199 0.633454 0.0922613 -0.151812 -2.40513 0.00387307 -0.0179011 -0.257435 2.96681e-06 4.20816e-06 -5.7479e-05 
26.982 1 108 24.0448 10.8555 2.90396 3.75907 3.14742 -5.66932 -0.0620761 0.178569 0.0683316 -0.0725083 0.14157 -2.29791 0.00197926 0.00767228 -0.240112 -8.78688e-06 1.34493e-06 -6.24356e-05 
26.982 1 107 26.1586 9.10905 2.73594 -3.96403 -3.797 2.13355 0.158614 -0.0608142 -0.000537013 0.228446 -0.17293 -2.47439 0.0143387 -0.0090465 -0.261471 -2.89329e-06 -6.52229e-07 -6.20311e-05 
26.982 1 266 26.2697 6.976 4.66921 -7.05377 -0.738767 -6.86739 0.297912 -0.222795 0.136249 0.00447592 -0.00594203 -0.321322 -2.04228e-05 -0.00234658 -0.0341678 1.8311e-06 -4.96614e-06 -2.61577e-06 
26.982 1 72 28.1504 7.23121 2.75348 -5.55391 -3.11576 -2.53766 0.402446 0.0544891 -0.466178 -0.10375 -0.0101014 -2.74601 -0.0102258 -0.006639 -0.28137 4.99701e-06 1.58836e-07 -6.46636e-05 
26.982 1 309 28.3985 9.18251 4.68183 1.26819 -6.12062 -2.77049 -0.170507 0.264414 0.177175 -0.00846888 -0.00935294 -0.324037 -0.00115005 -0.0014945 -0.033447 -7.82072e-07 4.4893e-06 -8.07208e-07 
26.982 1 112 28.2829 11.2927 2.63492 4.0989 -1.79746 2.99359 -0.537826 -0.383427 -0.226171 -0.154048 -0.229087 -2.20042 -0.0141656 -0.0128724 -0.244651 -8.67062e-06 -6.2351e-06 -6.28654e-05 
26.982 1 111 30.1803 9.55472 2.58263 -2.64075 -4.11313 -1.63173 0.788822 -1.00439 -0.00684635 -0.183981 -0.240317 -2.25671 -0.0127698 -0.0130009 -0.239075 6.35011e-06 -1.15022e-05 -5.91535e-05 
26.982 1 270 30.337 7.31495 4.46028 0.659224 -7.12196 -3.39089 0.868905 0.210931 -0.239644 -0.00965266 0.00276202 -0.294829 -0.000113136 0.000560463 -0.0307038 1.28526e-05 5.04212e-06 -1.1542e-05 
26.982 1 71 32.4539 7.647 2.33943 -1.82862 -1.60083 -8.31921 0.0600965 -0.383639 -0.20311 -0.221367 -0.111941 -2.31802 -0.0198 -0.0164144 -0.253513 -8.56296e-06 -2.73543e-06 -6.44584e-05 
26.982 1 76 34.7466 7.56238 4.0401 -1.14286 2.05219 -1.9628 0.216462 0.177741 -0.0717447 -0.00840211 0.0264756 -2.21474 -0.00256015 -0.000526966 -0.217538 3.78895e-06 4.80208e-06 -1.25421e-05 
26.982 1 313 32.8843 7.41531 6.13181 -4.99744 -0.833057 12.1709 -0.213547 -0.354056 0.093286 -0.000587158 -0.00530442 -0.241928 0.00028487 -0.00225181 -0.0211285 -5.99146e-06 -8.16171e-06 1.50859e-06 
26.982 1 116 34.5522 9.73087 1.8616 8.23909 -2.11882 -9.37315 -0.318711 -0.479421 0.867263 0.103684 0.0408838 -2.00677 0.00243396 -0.00443439 -0.198724 1.07301e-05 6.32598e-06 -5.74819e-05 
26.982 1 310 32.7325 9.38191 4.26867 3.79071 -0.689733 -5.28188 -0.538473 0.855823 -0.126773 -0.00553874 -0.00745858 -0.228649 0.000535871 -0.00359668 -0.0269557 -1.1308e-05 1.01487e-05 -1.32719e-05 
26.982 1 115 38.1968 8.40441 4.50493 1.06865 3.98048 -1.78184 -0.0720809 0.119707 -0.281059 -0.253916 -0.110179 -1.8979 -0.0141816 -0.0106537 -0.178711 1.65402e-06 8.27944e-06 -1.53819e-05 
26.982 1 117 39.6697 8.7066 2.24558 3.23876 -4.85725 2.35292 0.10488 -0.0640144 0.599893 0.117834 0.0124427 -3.3082 0.00917081 0.00256343 -0.303769 -3.29673e-06 1.44749e-05 -5.65826e-05 
26.982 1 74 36.6866 7.68984 2.01625 -5.12368 4.17896 -3.49843 0.0203662 0.771603 0.073913 0.006111 -0.19584 -1.84879 -0.0109325 -0.00863967 -0.195533 6.51563e-06 2.27005e-05 -5.942e-05 
26.982 1 155 36.0723 9.99235 4.31249 3.79795 -2.93218 4.3128 -0.0792186 0.107404 -0.219355 -0.0241549 0.171095 -2.24859 0.00492329 0.0198476 -0.202599 2.01542e-06 6.30659e-06 -2.10985e-05 
26.982 1 314 36.2988 7.98248 6.38687 0.066076 -6.96683 -1.25065 -0.116892 -0.299103 0.014852 -0.0043168 0.00400073 -0.228206 -0.000156178 -0.00149146 -0.0210395 -1.82027e-06 -3.5057e-06 2.59409e-07 
26.982 1 80 40.2198 6.69951 4.24205 3.11111 -4.68417 -1.20231 0.421336 -0.15456 0.200369 0.0481353 -0.394499 -2.00034 0.0057551 -0.0210405 -0.183016 5.81187e-06 3.69239e-07 -7.54166e-06 
26.982 1 317 40.7556 9.51653 5.18931 4.45536 -2.3908 -3.67194 -0.414187 -0.128079 -0.67123 0.00482251 -0.0100477 -0.183536 8.99951e-05 -0.000950236 -0.019333 -4.0958e-06 1.1092e-06 -1.81004e-05 
26.982 1 78 42.1651 6.63725 2.29775 4.67395 -2.07328 -4.1071 0.0576471 0.270444 -0.504494 0.2211 -0.482755 -1.85535 0.0351627 -0.0313148 -0.190287 9.95916e-06 9.34336e-06 -6.13075e-05 
26.982 1 119 42.2246 9.39038 2.73645 0.670367 3.58095 2.63538 0.226788 0.0698295 0.182136 0.373014 -0.0352872 -2.09275 0.0363698 -0.00612132 -0.22164 9.65579e-06 5.01349e-06 -5.13948e-05 
26.982 1 278 43.0178 7.47391 4.90941 -2.70624 0.367086 -1.0717 -0.648002 0.318442 -0.154425 0.475145 -0.451039 -0.311458 0.0406689 -0.0335905 -0.0316245 -5.4971e-08 8.12745e-06 -9.42701e-06 
26.982 1 284 43.2926 10.4107 5.2133 5.71885 2.84341 0.96587 -0.355419 -0.048651 0.407516 -0.971724 -0.922356 -0.924789 -0.0293894 -0.0895952 -0.090584 3.74897e-06 -8.81146e-06 -5.23646e-06 
26.982 1 282 -2.26204 10.7011 4.78136 15.5247 1.08804 4.81196 0.626888 0.486479 -0.346273 -1.26012 -0.00849679 -0.618288 -0.12925 -0.00167084 -0.0680707 -4.02746e-05 1.04873e-05 -2.58125e-05 
26.982 1 322 -1.88453 13.2574 3.85211 -0.948556 -1.09385 -3.69516 -0.684023 -0.232172 0.301028 -0.911114 -0.290292 -0.515868 -0.100551 -0.0192926 -0.059936 -3.58584e-05 -9.12733e-06 -7.20792e-06 
26.982 1 122 0.193101 13.8126 2.51071 10.5609 3.30638 1.63049 0.663735 -0.222241 -0.583194 -1.43754 0.00924208 -2.05679 -0.122091 0.00557034 -0.211011 -1.13227e-05 -7.93735e-07 -5.60374e-05 
26.982 1 325 0.662545 11.4881 4.00226 1.60331 5.20131 2.29455 -0.736747 0.628765 -0.968208 -0.109202 -0.0189092 -0.217041 -0.00757877 -0.00600603 -0.0339746 -1.55e-05 6.95379e-06 -1.96971e-05 
26.982 1 328 0.400195 13.9578 5.47998 -2.24179 -0.940633 7.35254 -0.433719 -0.682291 0.253766 -0.118525 -0.00906082 -0.0138194 -0.0115995 0.00140684 -0.00657428 -1.43745e-05 -3.05401e-06 3.01801e-07 
26.982 1 123 -1.55349 10.9956 1.88001 7.62056 -0.148087 1.0522 -0.112827 -0.200453 0.645119 -1.36772 -0.372597 -2.02822 -0.118857 -0.0380096 -0.226404 -3.39625e-05 8.99596e-08 -4.59488e-05 
26.982 1 128 2.48155 13.9651 3.59595 -0.200014 1.90778 -4.31271 -0.279302 -0.11547 0.576095 -0.25904 0.164921 -1.77778 -0.0275584 0.0131357 -0.166849 -3.57608e-06 1.13341e-06 -4.57753e-06 
26.982 1 127 4.4176 12.0387 3.57182 5.14575 -5.88451 -4.46783 0.126776 0.313528 -0.394925 0.00897585 -0.0385936 -1.53927 -0.00237757 -0.00874814 -0.14995 1.70751e-05 4.81471e-06 -2.52127e-05 
26.982 1 326 4.22042 14.4183 5.50406 1.61619 5.06346 -2.26137 0.237432 -0.179484 0.213553 -0.0139485 -0.00111879 -0.16472 -0.00447311 -0.000343671 -0.0154007 5.76895e-06 -5.29086e-06 1.34452e-06 
26.982 1 125 2.32886 11.9469 1.61757 4.73406 -0.199742 -9.03032 0.0219299 -0.225364 0.506764 -0.317364 -0.18533 -2.83361 -0.0343108 -0.0192209 -0.275264 -8.58065e-06 -8.87006e-07 -6.32958e-05 
26.982 1 327 2.4646 11.9517 5.7393 1.0286 -1.87781 3.30258 0.42226 0.454232 0.330526 -0.00587656 -0.000952365 -0.0120041 -0.00157197 -0.0058031 -0.00311309 1.36531e-06 8.17646e-06 7.67931e-06 
26.982 1 126 4.01363 14.1642 1.57642 -0.0240342 0.392201 1.70514 -0.0774089 0.0687976 -0.551279 0.00260385 0.0463844 -2.75478 -0.00462577 0.00535591 -0.278786 2.48571e-05 1.04409e-05 -7.20876e-05 
26.982 1 290 8.84283 10.8519 5.33794 -4.82294 -5.31519 2.18555 -0.634674 -0.144186 0.185909 0.0109737 0.00211325 -0.233298 -0.000352317 -0.000607221 -0.0219645 -1.45139e-05 9.82745e-07 -2.39052e-06 
26.982 1 92 6.60985 10.2741 3.34224 0.234174 -1.18965 -1.80182 -0.230258 0.626734 0.553921 0.128465 -0.0227589 -1.72928 0.00721148 -0.000686498 -0.167204 1.53216e-05 8.83184e-06 -4.12951e-05 
26.982 1 329 6.46566 12.4741 5.47142 -0.519108 -4.49575 -0.0339016 0.51702 0.229811 -0.25511 -0.00498642 -0.00569188 -0.181763 -0.00305568 -0.00251697 -0.0161838 1.25425e-05 3.21033e-06 -4.78404e-06 
26.982 1 132 6.12434 14.522 3.32633 -0.155083 -0.988933 -0.783605 -0.101085 -0.138948 0.495174 0.149664 -0.0268877 -1.65404 0.0169341 -0.00227203 -0.166582 1.32037e-05 3.73727e-06 -4.0134e-05 
26.982 1 131 8.22203 12.7255 3.16783 -2.75018 1.85552 1.0274 0.149001 0.0451397 0.505465 0.146311 -0.00230195 -1.98335 0.0133226 0.00395355 -0.203221 4.36748e-06 -2.20502e-06 -5.00361e-05 
26.982 1 330 8.19215 14.8914 5.58158 -1.45794 -3.56368 -0.469597 0.530464 -0.338328 -0.737449 0.0078256 0.00266741 -0.221697 0.000169593 0.000961352 -0.022436 7.24852e-06 -1.12033e-05 -1.57615e-05 
26.982 1 294 13.0581 10.9236 5.25312 -7.78597 -0.112159 -3.59167 -0.591104 -0.152382 -0.41468 0.00365971 0.00743672 -0.277572 0.00146223 -0.000126251 -0.0288293 -6.38707e-06 -2.9411e-06 -9.23771e-06 
26.982 1 96 10.6431 10.8619 3.34549 -5.50867 -1.55792 0.366085 0.22192 0.22765 -0.743425 0.0826811 -0.058691 -2.23107 0.0100502 -0.00372375 -0.226983 -1.54254e-08 2.83184e-06 -6.26145e-05 
26.982 1 333 10.8363 12.8119 5.16182 3.95715 -3.09324 0.315015 -0.808692 0.334222 -0.118746 0.0036105 -0.00981492 -0.245769 -0.000135703 -0.00156592 -0.0248306 -1.65779e-05 7.88837e-06 -8.99415e-06 
26.982 1 135 12.1936 13.2448 2.82244 -7.66484 -2.51339 0.57194 0.423628 -0.309376 0.250819 0.074494 -0.186451 -2.1998 0.00304711 -0.0162839 -0.23632 3.13395e-06 -7.86658e-06 -6.37924e-05 
26.982 1 136 9.98105 14.9554 3.11654 2.56847 -2.29616 -3.75508 0.241001 -0.246743 0.217544 -0.0565949 0.0150376 -2.06708 -0.00322041 0.00345859 -0.221831 -2.81185e-06 -7.33587e-06 -5.06214e-05 
26.982 1 334 12.2889 15.0738 4.90419 -0.400858 -0.749118 2.13447 0.167738 0.935948 -0.308906 0.00709949 -0.00316929 -0.237716 0.00212399 6.52136e-05 -0.0264108 2.05769e-06 1.31429e-05 -9.29969e-06 
26.982 1 100 14.7253 11.1908 2.81628 -4.40348 8.47939 -3.49823 -0.100775 0.155788 -0.498198 0.0126407 0.0481184 -2.38727 -0.00236515 -0.000442708 -0.250641 -2.69299e-06 7.07479e-06 -5.13424e-05 
26.982 1 337 14.5027 13.08 4.66415 -1.02945 -1.99004 -4.39572 -0.280394 0.521604 0.266046 0.0102906 -0.000750611 -0.280417 0.00382825 0.00110163 -0.0268336 -2.39074e-06 6.01203e-06 -3.58771e-06 
26.982 1 139 16.0281 13.638 2.4275 5.65433 3.81449 7.63266 0.45466 -0.162734 -0.241032 -0.0291331 -0.0365554 -2.43999 -0.000174666 -0.0075048 -0.253964 5.00628e-06 -4.45402e-06 -7.01779e-05 
26.982 1 298 17.1474 11.6707 4.10456 1.73067 -5.04044 -5.13417 0.0147792 -0.366098 0.0546959 0.00128726 -0.00272726 -0.301459 0.0038247 -0.00306177 -0.0395883 4.60475e-06 -1.02983e-05 -2.45544e-05 
26.982 1 338 16.853 14.2923 4.99794 -1.2901 0.386432 2.46206 0.616231 -0.0462031 0.413611 -0.0139986 -0.0161151 -0.264074 -0.00398487 -0.00112652 -0.0254466 5.71374e-06 -2.69393e-07 1.71753e-06 
26.982 1 140 14.0254 15.6512 2.63712 7.87737 -3.13807 -0.54314 -0.098467 -0.72401 0.445646 0.165252 -0.158487 -2.142 0.00921859 -0.00457937 -0.234259 -6.05934e-06 -9.95832e-06 -5.02813e-05 
26.982 1 104 19.6005 10.6082 3.02636 -1.90372 5.53949 1.50684 0.447176 0.26091 -0.603798 -0.020869 0.172483 -2.23442 -0.00956918 0.0121259 -0.228072 7.95687e-07 1.21042e-05 -6.58009e-05 
26.982 1 341 19.1358 13.888 3.44056 1.33384 -3.85683 -0.725804 0.408695 -0.279989 0.475133 -0.00808206 -0.0138256 -0.297901 -0.00099185 -0.00349275 -0.0480279 1.24405e-05 -4.27618e-06 -4.48104e-05 
26.982 1 304 19.7599 11.5819 5.38665 3.25448 5.28883 5.83837 -0.301781 0.461106 0.4068 -0.00403389 0.00277422 -0.0169106 -0.00110679 0.000516755 -0.00654581 -1.35604e-06 1.17646e-05 2.01585e-06 
26.982 1 143 21.8077 12.5639 3.14131 2.7312 2.41873 -1.57629 -0.130089 0.075092 0.0255809 0.0620669 -0.310064 -2.13584 -0.00191934 -0.0199724 -0.216241 -7.97104e-06 3.72306e-06 -5.57312e-05 
26.982 1 342 21.7445 14.4956 4.96865 2.51903 -6.68806 4.8723 -0.0275977 -0.763142 -0.147065 0.000476277 -0.00500553 -0.221136 -0.00466263 -0.00319073 -0.0256685 9.97443e-07 -7.52316e-06 -1.25415e-05 
26.982 1 306 26.1795 11.0268 4.82337 -2.00452 -5.78537 -3.19139 0.541493 -0.0442904 -0.152121 0.00456383 -0.00681632 -0.27534 0.000779889 -0.000734019 -0.0310405 8.38911e-06 5.59529e-07 -5.99967e-06 
26.982 1 148 23.8088 14.6565 2.86642 -2.66786 2.96303 4.97801 0.236967 0.0867167 0.509424 0.365751 0.0699924 -2.41298 0.0256194 0.00923478 -0.242948 -5.55195e-06 8.58818e-06 -5.1747e-05 
26.982 1 345 24.2437 12.7776 4.982 1.22536 3.8879 -4.33457 -0.753183 0.34393 -0.331754 0.00423977 0.0113274 -0.284597 -0.000453206 0.00162702 -0.0289561 -1.13671e-05 5.46139e-06 -9.0656e-06 
26.982 1 147 26.1492 12.9556 2.73566 1.8572 -2.85683 -2.26855 -0.317649 -0.0330365 -0.205817 -0.121722 0.186784 -2.41797 -0.00434955 0.00638646 -0.254869 -1.1997e-05 -9.3149e-08 -6.80501e-05 
26.982 1 385 26.1005 15.0029 4.44661 -4.27219 -1.19024 -2.21102 -0.378445 -0.0521414 0.901725 0.00504759 0.00469598 -0.306168 -0.00322183 0.00281374 -0.0291841 -1.79119e-05 5.98295e-06 2.76154e-06 
26.982 1 346 28.2472 13.1831 4.39548 4.56895 -1.41089 -5.73611 0.00941689 0.287602 1.12202 0.00171218 -0.00198755 -0.317965 -0.000530937 -2.62809e-05 -0.0321588 -5.22708e-08 -3.70755e-07 7.30144e-06 
26.982 1 152 30.3494 13.424 2.50002 5.7892 -3.4939 4.2456 0.0496726 -0.106745 -0.354299 -0.163349 0.1528 -2.4688 -0.0111368 0.00318441 -0.251132 6.76469e-07 -7.86681e-07 -6.46491e-05 
26.982 1 349 30.5267 11.4899 4.43174 4.56219 -5.40269 -5.29034 0.00924669 -0.228281 0.123271 -0.0124608 0.00981576 -0.270216 -0.00150854 -0.000307562 -0.0310654 2.30347e-06 -6.72907e-06 -4.15623e-06 