ITEM: TIMESTEP
0
ITEM: NUMBER OF ATOMS
4000
ITEM: BOX BOUNDS pp pp pp
-0.0741961 40.5742
-0.0741961 40.5742
-0.0741961 40.5742
ITEM: ATOMS mass type id x y z vx vy vz fx fy fz xrad yrad zrad vxrad vyrad vzrad fxrad fyrad fzrad 
26.982 1 2 1.84279 1.96013 0.159566 -4.40886 -0.206818 -0.10658 0.168987 -0.487847 -0.0965376 0 0 0 0 0 0 -5.9369e-06 -2.21729e-05 -4.74973e-05 
26.982 1 3 1.90381 -0.0710752 2.04086 -0.0691833 -1.2563 0.00319794 0.0916005 0.14849 -0.243939 0 0 0 0 0 0 -1.2775e-05 -4.75617e-05 -6.2041e-06 
26.982 1 8 4.10222 1.9018 2.05726 -5.05544 2.3936 2.67156 -0.445749 0.0804966 0.0675409 0 0 0 0 0 0 7.48962e-07 -3.68532e-05 -1.72908e-05 
26.982 1 41 0.0102806 4.14768 0.0301089 -3.7193 1.60988 1.59203 -0.647501 -0.653433 0.128937 0 0 0 0 0 0 -3.05658e-05 -3.7292e-05 -3.9053e-05 
26.982 1 43 1.97574 3.92847 2.08793 2.37999 -2.71938 -3.24979 0.0913035 0.25276 -0.263818 0 0 0 0 0 0 -3.02715e-06 -1.33841e-05 -2.26687e-05 
26.982 1 202 1.86518 1.98838 3.98681 -3.58102 2.2695 -3.40085 0.0996936 -0.209673 0.414685 0 0 0 0 0 0 -1.67651e-05 -3.51234e-05 -7.86257e-06 
26.982 1 241 -0.0601434 4.16922 3.9824 0.346566 0.606118 1.60057 -0.675819 -0.673272 0.200727 0 0 0 0 0 0 -3.67311e-05 -3.90799e-05 -2.18246e-05 
26.982 1 245 3.94115 3.96309 4.06306 -2.20953 -0.759472 -0.638866 0.12886 0.00712196 0.167489 0 0 0 0 0 0 1.41737e-06 -5.33382e-06 5.09655e-07 
26.982 1 6 6.01071 1.78979 0.0834621 -0.685484 1.06193 2.2978 0.237111 0.444087 -0.472348 0 0 0 0 0 0 -2.5168e-05 -1.61794e-05 -5.05275e-05 
26.982 1 9 8.11103 0.0103845 -0.0335538 2.77792 -2.11972 -1.37678 0.0515996 -0.369402 0.172573 0 0 0 0 0 0 2.42477e-06 -4.9219e-05 -2.55556e-05 
26.982 1 12 8.02682 1.84917 2.02225 5.14237 -2.32989 -2.53927 0.0749105 0.332826 -0.0766684 0 0 0 0 0 0 -9.71332e-07 -2.80635e-05 -1.01099e-05 
26.982 1 47 6.02059 3.89637 2.04378 0.801321 0.484882 -6.57004 -0.125908 0.19486 -0.0287845 0 0 0 0 0 0 -1.52839e-05 -3.13405e-06 -2.12317e-05 
26.982 1 49 8.12749 4.01082 0.202628 2.91376 2.30372 3.06506 -0.150904 -0.139568 -0.380263 0 0 0 0 0 0 -4.04804e-06 -4.8094e-06 -6.2973e-05 
26.982 1 206 6.10545 1.95933 4.1405 0.260483 5.31447 -2.48121 -0.516289 -0.182394 -0.251831 0 0 0 0 0 0 -2.08661e-05 -3.03438e-05 -1.55079e-05 
26.982 1 209 8.00547 -0.0708663 3.971 6.6893 -3.07184 1.18193 0.37372 -0.260114 0.199858 0 0 0 0 0 0 2.18427e-06 -5.02069e-05 -3.67146e-05 
26.982 1 249 7.93792 4.04851 4.04165 0.0397483 1.80142 -0.63612 0.23924 -0.155895 -0.00626392 0 0 0 0 0 0 2.01055e-06 -3.87655e-06 -1.49931e-06 
26.982 1 10 10.1796 1.92565 0.0678928 -0.035861 1.64922 3.68394 0.00153841 0.382435 -0.2428 0 0 0 0 0 0 1.54277e-05 -2.74933e-05 -4.72781e-05 
26.982 1 16 12.2977 1.90923 2.00166 -4.85792 3.98359 1.26559 -0.142433 -0.00102855 -0.0396799 0 0 0 0 0 0 1.35939e-05 -4.76601e-05 -3.04983e-05 
26.982 1 51 10.165 4.01916 2.12866 3.40008 6.16038 6.60716 -0.313777 -0.00576978 -0.516277 0 0 0 0 0 0 -3.98991e-06 -5.51185e-06 -1.73189e-05 
26.982 1 53 12.3492 3.87042 0.136636 3.2433 5.72722 -3.30084 -0.678517 0.505286 -0.567918 0 0 0 0 0 0 3.55673e-06 -1.30403e-05 -6.56454e-05 
26.982 1 210 10.0713 1.99206 3.79089 -1.34837 -1.37542 -0.286317 0.102147 -0.20714 0.910145 0 0 0 0 0 0 2.96612e-06 -2.45619e-05 -3.3101e-06 
26.982 1 213 12.0705 0.058965 4.04706 -0.236843 -0.421457 1.93659 -0.114144 -0.0378922 -0.0880382 0 0 0 0 0 0 -1.94834e-06 -4.68665e-05 -4.65428e-05 
26.982 1 253 12.1055 4.13983 4.07406 3.37527 1.72418 1.98682 0.265306 -0.922954 0.64958 0 0 0 0 0 0 4.23766e-06 -1.46766e-05 8.46203e-06 
26.982 1 20 16.1789 2.08933 1.90137 0.232513 -2.67679 2.7192 -0.234941 -0.430905 0.325959 0 0 0 0 0 0 -2.66061e-05 -4.48972e-05 -1.50486e-05 
26.982 1 55 14.1497 3.96613 2.1551 -8.56106 0.929045 -2.71039 0.195466 0.0774157 0.0159766 0 0 0 0 0 0 3.04237e-06 -1.48482e-05 -1.50219e-05 
26.982 1 57 15.9947 4.0855 0.0528034 0.0775179 2.08154 -1.07782 0.368339 -0.0825265 -0.245173 0 0 0 0 0 0 -7.35623e-06 -1.79586e-05 -6.56166e-05 
26.982 1 214 14.28 1.8797 4.12115 5.17597 3.63084 1.61106 -0.0347436 0.466285 -0.617023 0 0 0 0 0 0 1.43921e-05 -2.59849e-05 -2.73857e-05 
26.982 1 257 16.2558 4.25579 4.04209 0.830671 1.43448 -2.66193 -0.0600983 -0.997819 0.0376834 0 0 0 0 0 0 1.99731e-07 -1.98641e-05 -6.40876e-07 
26.982 1 218 17.9521 1.9486 4.22096 1.84875 -5.38085 -0.437185 0.588326 0.402678 -0.678102 0 0 0 0 0 0 4.46819e-06 -2.36659e-05 -1.39926e-05 
26.982 1 18 18.2268 1.9223 0.0683529 0.0689733 3.3987 1.59878 -0.0600162 -0.0950955 -0.584195 0 0 0 0 0 0 -1.97792e-05 -1.93352e-05 -6.72673e-05 
26.982 1 19 18.1256 0.0201022 1.99142 -2.89732 -2.21774 4.83985 0.347352 -0.495204 0.0997547 0 0 0 0 0 0 -1.41185e-05 -6.18172e-05 9.40644e-06 
26.982 1 21 20.1792 -0.0710199 -0.0334818 4.72363 -0.221462 4.18941 0.0420491 0.0144757 0.0732476 0 0 0 0 0 0 1.139e-05 -4.77392e-05 -3.05781e-05 
26.982 1 22 22.1996 2.04933 -0.0530067 -1.73983 -4.28913 1.47936 0.0793315 -0.321707 0.190515 0 0 0 0 0 0 -9.63146e-07 -2.29123e-05 -5.32195e-05 
26.982 1 24 20.3682 1.85448 2.07235 -0.788486 -6.77603 -1.21236 -0.507594 0.190731 -0.0689389 0 0 0 0 0 0 6.54315e-06 -3.86285e-05 1.12425e-05 
26.982 1 59 18.4271 3.76149 1.94837 -4.38744 -1.3457 1.57883 -0.888939 0.497184 0.929545 0 0 0 0 0 0 -1.3587e-05 -7.22865e-07 5.16254e-06 
26.982 1 61 20.155 3.95443 0.0468585 0.658882 -4.07334 4.29125 0.510867 0.053634 -0.776312 0 0 0 0 0 0 5.6257e-06 5.00041e-06 -7.09529e-05 
26.982 1 63 22.2385 4.0472 1.9419 -2.1414 1.52368 2.75038 -0.210581 -0.232712 0.409174 0 0 0 0 0 0 -3.41005e-06 -6.27582e-06 -2.27344e-06 
26.982 1 222 22.0924 1.98138 4.07004 -8.09486 -3.20614 0.130067 0.89686 0.284106 -0.126976 0 0 0 0 0 0 -1.46373e-06 -2.8521e-05 -1.36351e-05 
26.982 1 261 20.2796 4.22846 4.11387 -2.87309 0.633149 -0.188487 -0.131596 -0.992566 -0.479899 0 0 0 0 0 0 -2.94191e-06 -2.16205e-05 -7.18337e-06 
26.982 1 25 24.3251 0.148251 0.0811522 -0.714858 2.32856 -5.48332 0.177179 0.182307 -0.495637 0 0 0 0 0 0 -9.40363e-06 -4.84741e-05 -3.79544e-05 
26.982 1 26 26.429 2.24908 -0.043041 -1.20871 0.164411 1.26105 -0.289297 -0.492436 0.0287465 0 0 0 0 0 0 9.83211e-06 -2.5253e-05 -5.95067e-05 
26.982 1 27 26.3267 0.0925264 1.93987 3.86676 0.660012 2.79788 0.311223 0.445667 0.357505 0 0 0 0 0 0 3.05919e-05 -5.68048e-05 -7.77553e-06 
26.982 1 28 24.2094 2.10774 1.98366 3.89313 -1.68851 -0.0353843 0.0712039 -0.226905 0.233364 0 0 0 0 0 0 -8.06672e-06 -2.22219e-05 -4.22129e-06 
26.982 1 65 24.2276 3.9969 -0.0174481 -1.41701 3.67109 0.505021 0.402791 0.148117 -0.0288766 0 0 0 0 0 0 3.00391e-06 2.87517e-06 -6.3661e-05 
26.982 1 67 26.4352 3.94388 2.12804 2.57016 -1.91261 -2.77839 -0.28368 -0.0593458 -0.217211 0 0 0 0 0 0 -3.95297e-06 -4.34656e-06 -8.16211e-06 
26.982 1 225 24.3597 0.0835513 3.96893 3.87394 -1.2516 -0.435426 -0.385967 -0.403805 0.0193096 0 0 0 0 0 0 -1.68313e-05 -5.2871e-05 -2.85238e-05 
26.982 1 226 26.1453 2.03354 4.10892 5.08513 1.92981 2.41828 0.706465 0.254256 -0.408689 0 0 0 0 0 0 2.25487e-05 -1.31818e-05 -1.08247e-05 
26.982 1 265 24.1604 4.06729 3.99018 -0.182125 1.94553 0.24266 0.185357 -0.0430233 0.37796 0 0 0 0 0 0 2.77769e-06 -5.98492e-07 7.33913e-06 
26.982 1 30 30.3392 2.14047 0.0241989 -1.45208 3.39187 -2.21474 0.29279 -0.621641 -0.0950549 0 0 0 0 0 0 7.34701e-06 -4.87305e-05 -5.26288e-05 
26.982 1 32 28.5436 2.02209 1.97598 -2.19982 0.476964 -2.08713 -0.496277 -0.216272 0.481715 0 0 0 0 0 0 4.85473e-06 -5.13565e-05 1.04061e-06 
26.982 1 69 28.4782 4.12557 0.0120201 -5.85134 2.37999 -3.52782 -0.216045 -0.247749 -0.14161 0 0 0 0 0 0 -2.56016e-07 -1.58445e-06 -6.36077e-05 
26.982 1 71 30.4536 4.12918 2.06634 -4.35373 -2.52721 0.0182513 -0.102624 -0.180261 -0.118793 0 0 0 0 0 0 8.98211e-07 -5.94407e-06 -8.25204e-06 
26.982 1 230 30.4874 1.98973 4.12457 -1.0621 3.86067 4.37593 -0.524127 -0.248692 -0.145524 0 0 0 0 0 0 -5.61191e-06 -4.75153e-05 -1.64935e-05 
26.982 1 269 28.3906 3.97537 4.12926 -1.19937 -0.61454 0.181423 0.137557 -0.316796 -0.202152 0 0 0 0 0 0 3.30654e-06 -1.28915e-05 -2.6261e-06 
26.982 1 35 34.4374 -0.0353128 2.05899 2.55846 2.49888 0.974594 0.174906 -0.0404147 -0.325191 0 0 0 0 0 0 -1.42685e-05 -4.90364e-05 -3.95385e-05 
26.982 1 36 32.4182 1.99673 1.95676 -3.22957 -4.82087 0.950143 -0.0456675 0.140159 0.276924 0 0 0 0 0 0 -1.9694e-07 -4.50933e-05 -2.03917e-05 
26.982 1 73 32.4541 3.97698 -0.0642122 2.11376 2.69203 -2.94631 0.144083 0.570333 0.138762 0 0 0 0 0 0 2.93258e-05 -1.99214e-07 -6.186e-05 
26.982 1 75 34.4423 4.03421 1.96097 0.136572 -1.27461 -3.26954 -0.258831 0.0763409 -0.124986 0 0 0 0 0 0 5.07967e-06 -1.60356e-06 -4.50664e-05 
26.982 1 234 34.4225 1.96088 3.99824 -1.66338 -1.55602 -0.371888 -0.314354 0.33421 0.274132 0 0 0 0 0 0 -1.83164e-05 -1.27871e-05 -1.65475e-06 
26.982 1 273 32.2701 4.02807 4.10894 -0.422922 0.424859 -1.1735 0.707386 -0.00807363 -0.177947 0 0 0 0 0 0 1.21832e-05 -5.13217e-06 -4.29443e-06 
26.982 1 4 40.4324 2.02725 2.0065 2.92717 -4.94033 2.10804 0.29113 -0.350788 -0.0334087 0 0 0 0 0 0 -2.03097e-05 -5.16309e-05 -2.25251e-05 
26.982 1 40 36.421 2.05906 2.02166 3.55783 2.39443 -3.72409 0.197244 -0.455809 -0.620075 0 0 0 0 0 0 1.41694e-05 -2.84571e-05 -6.47097e-05 
26.982 1 79 38.5635 3.88996 1.93285 4.092 5.87411 1.98298 -0.267782 0.546005 0.15615 0 0 0 0 0 0 -1.64535e-05 -1.49154e-05 -3.51802e-05 
26.982 1 237 36.3011 0.0126973 4.02366 0.318718 4.05213 -1.89098 0.626063 -0.267172 0.147809 0 0 0 0 0 0 2.10746e-05 -4.64445e-05 -2.8826e-05 
26.982 1 238 38.5516 2.0335 4.03704 -0.367727 2.56344 -1.41732 -0.187235 -0.156688 -0.263836 0 0 0 0 0 0 9.0642e-06 -3.38973e-05 -2.0676e-05 
26.982 1 277 36.4314 3.90348 3.87784 -0.810362 -6.34411 -3.64977 0.127311 0.488707 0.724 0 0 0 0 0 0 1.43724e-06 5.93566e-06 4.81389e-06 
26.982 1 42 2.03876 5.83378 -0.0598913 -0.659116 0.752605 -4.58658 0.348317 0.944838 0.451145 0 0 0 0 0 0 5.63056e-06 -4.1045e-06 -4.82736e-05 
26.982 1 48 3.99238 5.97222 2.04181 0.421469 5.51413 -1.78719 -0.235425 0.0233281 -0.0919271 0 0 0 0 0 0 -8.26673e-06 -7.32335e-06 -1.93979e-05 
26.982 1 81 0.0418889 7.90899 -0.0699944 1.22464 -1.70984 1.39688 -0.0795927 0.0436115 -0.174043 0 0 0 0 0 0 -3.31157e-05 3.99578e-06 -3.41347e-05 
26.982 1 83 1.87218 7.96263 1.91275 -3.3023 -3.8676 -3.20965 0.417514 0.180679 0.337021 0 0 0 0 0 0 -2.38324e-05 2.25871e-06 -3.02238e-06 
26.982 1 85 4.10479 8.02699 -0.0368649 -0.722093 -1.31988 -0.371233 -0.041433 -0.139759 0.0929227 0 0 0 0 0 0 -3.59435e-06 2.05743e-05 -5.80388e-05 
26.982 1 242 1.80494 5.92588 4.10531 -3.0908 -4.11908 2.48682 0.991643 0.751993 -0.220528 0 0 0 0 0 0 -1.43243e-05 2.48671e-05 -1.86011e-05 
26.982 1 285 3.86708 8.03579 4.0023 4.93762 -1.68147 -2.6477 -0.147209 0.108883 0.0294029 0 0 0 0 0 0 -1.04126e-05 2.36556e-06 -3.27676e-06 
26.982 1 46 6.03889 5.99526 0.159907 1.09198 -0.666886 1.12313 -0.0537952 0.0484499 -0.57677 0 0 0 0 0 0 -1.03838e-05 -9.941e-06 -6.50148e-05 
26.982 1 52 7.96329 6.07241 2.15704 -4.03336 -5.09173 4.41381 0.493119 -0.163204 -0.192353 0 0 0 0 0 0 8.84608e-06 5.43955e-07 -1.27029e-05 
26.982 1 87 6.04801 8.12906 2.10121 0.153894 1.28871 3.37498 -0.355217 0.151957 -0.486853 0 0 0 0 0 0 -8.9002e-06 1.63171e-05 -2.53004e-05 
26.982 1 89 8.10873 8.04116 0.0352069 -0.989009 -2.67139 -1.5835 0.0810601 -0.177322 -0.579599 0 0 0 0 0 0 3.88963e-06 1.60995e-05 -6.60285e-05 
26.982 1 246 5.92794 6.10121 4.03499 -0.823893 -2.85236 -0.629795 0.0704166 -0.271645 0.198762 0 0 0 0 0 0 -1.86186e-06 -3.74982e-06 3.24615e-06 
26.982 1 289 8.06236 8.10676 3.95079 3.73039 1.10981 0.441284 0.366412 -0.159086 0.425137 0 0 0 0 0 0 7.92706e-06 4.63515e-07 3.96646e-06 
26.982 1 92 8.23902 9.92441 1.82663 -3.47402 2.37535 0.584631 -0.195039 0.633137 0.492088 0 0 0 0 0 0 -2.99996e-06 1.13176e-05 -2.62358e-05 
26.982 1 286 6.06587 10.0195 4.12332 0.931189 0.0573339 -0.464992 -0.36468 0.470903 -0.597401 0 0 0 0 0 0 -5.08235e-06 1.05194e-05 -1.27869e-05 
26.982 1 50 10.0983 5.98555 0.105549 -2.0175 -2.82146 -3.6927 0.277759 0.161469 -0.192247 0 0 0 0 0 0 1.48866e-05 1.49607e-05 -6.11684e-05 
26.982 1 56 12.0726 5.94597 2.233 -4.75092 -4.76023 -2.02278 0.125747 0.586944 -0.836192 0 0 0 0 0 0 1.82738e-07 1.62791e-05 -2.82958e-05 
26.982 1 91 10.2679 8.05867 2.17272 -0.585353 -2.17962 1.54483 -0.224207 0.0172841 -0.396003 0 0 0 0 0 0 8.64017e-06 8.96643e-06 -3.35859e-05 
26.982 1 250 10.0699 5.89749 4.19947 -4.65804 3.31625 0.593271 -0.0216406 0.682929 -0.204163 0 0 0 0 0 0 -8.42567e-08 1.18072e-05 -9.16481e-07 
26.982 1 293 12.2587 8.08417 4.07578 -0.601668 1.0985 -6.5304 -0.262905 -0.0735719 0.0373662 0 0 0 0 0 0 -4.10249e-06 -9.54574e-07 -3.48057e-06 
26.982 1 54 13.9703 6.10849 0.0531747 -0.186484 -3.81802 6.81383 0.475672 -0.41651 -0.122674 0 0 0 0 0 0 -1.1116e-05 1.33453e-05 -6.33551e-05 
26.982 1 60 16.2153 5.99795 1.9964 0.510374 2.02697 1.94083 -0.19015 0.245176 -0.246948 0 0 0 0 0 0 -3.33367e-06 3.69605e-06 -1.48606e-05 
26.982 1 95 13.957 8.11807 1.79083 -1.06877 -7.48049 -3.54697 0.599715 0.0876587 0.682346 0 0 0 0 0 0 -6.56577e-06 1.56238e-05 -3.36867e-05 
26.982 1 97 16.2059 8.07515 0.0066312 5.7536 3.58018 0.942887 -0.158995 -0.0858812 -0.335874 0 0 0 0 0 0 -3.5572e-06 2.45516e-05 -6.74657e-05 
26.982 1 254 14.2178 6.15626 3.92973 -7.1811 1.48022 -1.00332 -0.113477 -0.105115 0.380346 0 0 0 0 0 0 -2.60468e-06 1.49681e-06 4.1841e-06 
26.982 1 297 16.1967 8.09481 3.92659 2.79863 -6.40724 0.44192 -0.142023 0.0623839 0.00444866 0 0 0 0 0 0 -4.05339e-06 4.19888e-06 -3.51357e-06 
26.982 1 58 18.1571 5.93916 0.0318735 -3.14661 6.55005 -1.37446 0.0601101 -0.0672546 -0.159355 0 0 0 0 0 0 1.09771e-05 1.47481e-05 -6.64107e-05 
26.982 1 62 22.3301 6.00686 0.0966464 -5.91397 -2.54139 -1.19189 -0.411265 0.345651 -0.497949 0 0 0 0 0 0 -4.99693e-06 3.39792e-05 -6.92678e-05 
26.982 1 64 20.1406 5.94645 2.00198 -0.454859 1.80148 -3.8137 0.188396 0.398867 -0.455973 0 0 0 0 0 0 1.81005e-06 1.93363e-05 -2.93864e-05 
26.982 1 99 18.1419 8.11143 1.8687 -1.94841 -4.96438 -5.49844 0.397068 -0.094829 0.152483 0 0 0 0 0 0 1.8283e-05 1.46431e-05 -3.4123e-05 
26.982 1 103 22.0787 8.05073 2.03319 -3.44051 -2.26646 -0.0217901 0.413114 0.359578 -0.62986 0 0 0 0 0 0 4.5411e-06 1.95828e-05 -5.19051e-05 
26.982 1 258 18.2431 6.05971 3.89116 1.15881 -2.71003 -0.890798 -0.254193 0.252719 0.17457 0 0 0 0 0 0 -6.42259e-06 4.1149e-06 -1.34826e-06 
26.982 1 262 22.1607 6.12699 3.93255 -0.661582 -2.98146 0.0363689 0.405215 -0.18819 0.135669 0 0 0 0 0 0 9.03608e-06 -2.59055e-06 -4.8245e-07 
26.982 1 301 20.1507 8.08127 3.91679 -1.22559 3.4912 -4.8447 0.0415862 0.327401 0.0611567 0 0 0 0 0 0 -7.53e-08 1.10263e-05 -5.59638e-06 
26.982 1 298 18.2752 10.0813 4.03142 -4.43933 6.12548 -4.2854 -0.149211 0.253089 -0.0261752 0 0 0 0 0 0 -1.04137e-06 6.74731e-06 -3.30027e-06 
26.982 1 66 26.2981 5.81354 0.0144195 -0.544661 -3.73382 -5.06995 -0.0736091 0.663336 -0.161974 0 0 0 0 0 0 -4.96864e-06 3.12133e-05 -6.25497e-05 
26.982 1 68 24.2484 6.03686 2.0366 2.33149 -1.41106 -0.43853 0.472569 0.279622 -0.0584072 0 0 0 0 0 0 1.07866e-05 1.91522e-05 -1.94567e-05 
26.982 1 107 26.4402 8.08895 2.01637 -2.70622 -2.83884 1.88679 -0.550013 -0.691748 -0.294008 0 0 0 0 0 0 -1.06701e-05 -9.93344e-06 -3.48314e-05 
26.982 1 266 26.565 5.97707 3.89205 0.0186019 -3.2266 0.936807 -0.889498 0.403449 0.591166 0 0 0 0 0 0 -1.47621e-05 6.78867e-06 6.61679e-06 
26.982 1 305 24.2151 8.10034 3.99209 2.53187 3.50182 0.737047 0.401962 -0.236058 -0.376279 0 0 0 0 0 0 7.48596e-06 -4.41369e-06 -1.32522e-05 
26.982 1 106 26.3907 9.90632 0.0422564 -3.85877 -0.48188 -4.78353 -0.680955 0.576073 -0.417944 0 0 0 0 0 0 -2.12157e-05 -1.12349e-05 -6.75627e-05 
26.982 1 108 24.2083 10.0239 1.95556 -6.3077 4.62369 -2.7065 0.103027 0.0276006 -0.249138 0 0 0 0 0 0 -1.27443e-05 -1.3189e-06 -5.27009e-05 
26.982 1 306 26.3503 9.94634 3.87537 -8.65526 0.946598 1.63796 -0.0217198 0.486273 0.359593 0 0 0 0 0 0 -1.1893e-06 5.0479e-06 8.94008e-07 
26.982 1 70 30.4548 6.05586 -0.0351112 -8.59156 3.24601 2.39321 -0.194376 -0.0342713 -0.173863 0 0 0 0 0 0 7.91075e-06 2.60322e-05 -6.60139e-05 
26.982 1 72 28.3163 6.06316 1.89638 -2.45752 -4.8956 -2.79623 0.381429 -0.0412174 0.146062 0 0 0 0 0 0 4.53065e-06 1.25375e-05 -1.96321e-05 
26.982 1 111 30.2392 7.9881 1.92092 -0.80085 -0.11742 4.7882 0.69961 0.154355 0.195787 0 0 0 0 0 0 8.94795e-06 1.69152e-06 -3.28642e-05 
26.982 1 270 30.3446 5.98277 4.12479 -3.79826 1.77869 3.39331 0.0183465 0.497116 -0.144185 0 0 0 0 0 0 1.23322e-06 9.75474e-06 -2.08486e-06 
26.982 1 309 28.5128 8.08177 4.04288 -3.80201 -6.15807 -2.21807 -0.208638 -0.417655 0.0113098 0 0 0 0 0 0 7.05281e-07 -6.15404e-06 1.83935e-06 
26.982 1 112 28.3699 10.0648 2.02277 1.38559 -0.40998 -4.25161 -0.0423949 -0.0666036 -0.0926365 0 0 0 0 0 0 -1.63252e-06 -1.26484e-05 -2.16574e-05 
26.982 1 76 32.4494 6.08451 1.98925 3.92908 2.07004 6.54179 -0.0321302 -0.22157 -0.13582 0 0 0 0 0 0 1.15633e-05 9.39744e-06 -3.516e-05 
26.982 1 115 34.4932 7.93925 2.10034 -0.101594 -5.13977 -5.69171 0.139136 0.164584 -0.39281 0 0 0 0 0 0 -3.7462e-06 -1.02506e-05 -3.46265e-05 
26.982 1 274 34.3613 5.96351 4.10366 -6.85209 0.894614 1.21534 0.394551 0.128834 -0.231729 0 0 0 0 0 0 6.61712e-06 1.59424e-06 -5.9805e-06 
26.982 1 313 32.3848 8.06032 3.90329 -1.77863 -0.219575 0.987894 -0.173772 0.159156 0.462206 0 0 0 0 0 0 -5.34238e-06 2.45383e-06 2.74596e-06 
26.982 1 114 34.4849 10.0856 0.0997894 -1.166 -0.0631272 3.08808 0.172001 -0.36819 -0.63794 0 0 0 0 0 0 3.52903e-06 -7.44548e-06 -7.34557e-05 
26.982 1 116 32.5195 10.0607 1.90383 -5.92993 -6.39963 -0.944529 -0.393663 -0.287517 0.226269 0 0 0 0 0 0 -6.22214e-06 -2.13298e-05 -1.91525e-05 
26.982 1 44 40.4959 6.04848 2.00606 -3.88205 0.814442 -3.10059 0.0831234 -0.0392572 0.00437564 0 0 0 0 0 0 1.4481e-05 -4.29923e-05 -6.52507e-06 
26.982 1 281 40.567 8.00512 4.0332 -0.446009 2.70916 1.43986 -0.120391 0.511051 -0.434813 0 0 0 0 0 0 -2.50039e-08 1.41154e-06 -8.30835e-06 
26.982 1 78 38.5089 5.97822 0.0183285 0.544466 -3.00956 -0.733423 0.372609 0.227889 -0.134544 0 0 0 0 0 0 -1.26654e-06 -2.68646e-05 -6.42097e-05 
26.982 1 80 36.4857 5.9097 1.92232 3.96237 5.24039 -1.22981 -0.12265 0.450043 0.148318 0 0 0 0 0 0 -1.24804e-05 -5.28635e-06 -3.33898e-05 
26.982 1 117 36.532 8.04982 -0.0423762 1.16262 2.19884 3.21417 -0.0537789 -0.0430063 0.169543 0 0 0 0 0 0 -7.16308e-06 -2.7181e-06 -6.44094e-05 
26.982 1 119 38.6169 8.14643 1.8016 0.731595 -3.87582 -0.936507 -0.259783 -0.519384 0.653294 0 0 0 0 0 0 -4.17056e-06 7.18387e-06 -1.74866e-05 
26.982 1 278 38.3346 6.03906 3.94358 -5.46554 2.15329 0.24783 0.443754 0.177239 -0.00153331 0 0 0 0 0 0 1.68556e-05 -8.02622e-06 -2.11197e-06 
26.982 1 317 36.5303 8.08851 4.1226 5.70264 3.02331 -1.82297 -0.148748 0.0757133 -0.73566 0 0 0 0 0 0 -1.09405e-06 -2.89844e-06 -1.56667e-05 
26.982 1 120 36.5533 10.0216 1.86773 3.92484 1.86377 -2.36678 0.0488985 -0.00254955 0.458878 0 0 0 0 0 0 1.38761e-05 1.05672e-05 -2.88257e-05 
26.982 1 318 38.5816 10.0323 3.94069 6.42207 3.905 -1.48202 -0.371362 -0.0101609 -0.012952 0 0 0 0 0 0 -4.06382e-06 -2.54907e-06 -7.05015e-06 
26.982 1 88 3.95227 10.1842 1.92859 -1.8919 -0.425993 2.94619 0.271204 -0.652634 0.607653 0 0 0 0 0 0 -2.89292e-06 -1.39238e-05 -2.30232e-05 
26.982 1 122 1.85311 13.9775 0.146518 -1.71254 -2.95362 0.328494 0.0510437 0.426733 -0.367724 0 0 0 0 0 0 -4.93357e-05 -4.95619e-07 -5.32407e-05 
26.982 1 123 1.89534 12.0311 2.11093 0.203437 -3.88972 2.17591 -0.0543176 0.258312 -0.691617 0 0 0 0 0 0 -4.28824e-05 -2.45545e-05 -2.62906e-05 
26.982 1 125 3.89074 11.9982 -0.0222529 -3.63593 3.38308 -0.717165 0.315868 0.438021 -0.0655059 0 0 0 0 0 0 -7.37103e-06 -2.14554e-05 -6.748e-05 
26.982 1 128 3.78788 14.2228 2.02476 0.377409 -1.94053 3.5639 0.654151 -0.533467 0.229604 0 0 0 0 0 0 -3.68661e-07 -6.57365e-06 -5.36226e-06 
26.982 1 282 1.8574 10.2087 3.94266 5.35104 -0.285665 1.32493 0.386095 -0.842077 0.387396 0 0 0 0 0 0 -3.98634e-05 -1.37336e-05 -1.31342e-05 
26.982 1 322 1.91441 13.9974 4.12649 -1.61732 -9.50146 1.21167 -0.247863 0.629883 -0.396102 0 0 0 0 0 0 -3.50513e-05 -2.3131e-06 -2.17109e-05 
26.982 1 325 3.93561 12.2186 4.1072 -0.653714 9.43943 -1.08746 0.113173 -0.670191 -0.571864 0 0 0 0 0 0 2.62592e-06 -1.44847e-05 -1.02323e-05 
26.982 1 126 5.89291 14.0792 0.0771341 -4.75956 -1.53706 -2.04265 0.335648 0.00411503 -0.680682 0 0 0 0 0 0 2.56417e-06 -2.65649e-06 -6.93149e-05 
26.982 1 127 5.8352 12.2094 1.90135 1.01029 -0.269165 -2.30544 0.240164 -0.631652 0.680647 0 0 0 0 0 0 6.5671e-06 -2.68563e-05 -9.97819e-06 
26.982 1 129 7.99335 12.0083 -0.0545715 4.24118 0.701209 2.73216 0.686349 0.850469 0.0993256 0 0 0 0 0 0 3.21979e-06 -1.97502e-05 -6.16649e-05 
26.982 1 132 7.87292 14.1037 1.95486 3.20833 -2.29623 -7.41469 0.65005 0.138128 0.0838481 0 0 0 0 0 0 1.296e-05 1.67651e-07 -6.85307e-06 
26.982 1 326 5.98525 14.1369 4.02413 -1.50545 0.112733 1.30519 0.120358 0.116986 0.241937 0 0 0 0 0 0 5.66857e-06 8.87015e-07 6.73798e-06 
26.982 1 329 8.01441 12.105 3.80586 -1.10264 2.88666 2.66411 -0.22355 -0.26849 0.768861 0 0 0 0 0 0 -4.71122e-06 -5.17876e-06 8.98925e-06 
26.982 1 96 12.1857 10.2225 1.85328 -4.01502 0.0874847 2.27665 -0.0913609 -0.213584 0.31707 0 0 0 0 0 0 -6.3224e-06 -1.39541e-05 -4.44028e-05 
26.982 1 130 10.0815 14.2709 0.0770317 -3.64896 2.53235 -2.29297 -0.0530466 -0.381888 -0.234361 0 0 0 0 0 0 5.78552e-06 -7.43622e-06 -5.98299e-05 
26.982 1 131 10.0119 12.0715 2.03524 3.88584 -0.365191 0.399392 0.352019 0.265824 -0.432346 0 0 0 0 0 0 5.62694e-06 -6.85075e-06 -2.95592e-05 
26.982 1 133 12.3116 12.1403 -0.0642336 -4.87955 1.89768 4.3348 -0.23728 0.447566 -0.014225 0 0 0 0 0 0 9.60566e-06 -7.46045e-06 -6.33595e-05 
26.982 1 136 12.1633 14.114 2.0006 -5.72931 -1.93664 -1.87222 -0.0437999 0.0938021 -0.011613 0 0 0 0 0 0 9.76293e-06 2.59955e-07 -2.21275e-05 
26.982 1 290 10.2451 10.185 4.15085 -4.23658 -5.50658 2.34952 -0.392141 -0.504236 -0.554158 0 0 0 0 0 0 -7.37662e-06 -6.08354e-06 -1.0838e-05 
26.982 1 330 10.1541 14.0855 4.11806 1.02122 1.68508 -0.326171 -0.28357 -0.0188474 -0.167153 0 0 0 0 0 0 -5.80701e-06 -1.60775e-06 -3.98584e-06 
26.982 1 333 12.0864 12.1446 4.00943 -1.16563 -0.8443 4.27204 0.288243 0.107825 -0.0361871 0 0 0 0 0 0 3.09029e-06 2.99906e-06 -4.34756e-06 
26.982 1 100 16.211 10.0883 1.93825 -4.79685 -3.58399 4.58512 -0.166864 0.173821 -0.104507 0 0 0 0 0 0 -1.66941e-06 1.50151e-05 -4.5805e-05 
26.982 1 135 14.2646 12.1778 2.02776 3.38005 3.30368 1.02486 -0.0980026 -0.110496 -0.535185 0 0 0 0 0 0 1.00476e-05 9.27468e-07 -5.09803e-05 
26.982 1 140 16.3154 14.231 1.86995 0.523977 -4.16461 3.26845 0.0211484 -0.43041 0.332235 0 0 0 0 0 0 1.14805e-06 -1.89402e-05 -4.62561e-05 
26.982 1 294 14.0955 10.1567 3.88389 0.930489 -5.30112 -2.87876 0.320856 -0.261752 0.253401 0 0 0 0 0 0 6.04854e-06 -4.9663e-06 -1.97572e-06 
26.982 1 334 14.4059 14.1236 3.93491 -2.16896 -1.61069 4.0819 -0.596124 0.287571 0.287164 0 0 0 0 0 0 -1.01743e-05 5.71494e-06 -1.72547e-06 
26.982 1 337 16.2015 12.0839 3.96347 0.344729 -3.19607 -6.16114 0.217696 -0.430423 0.141958 0 0 0 0 0 0 4.63492e-06 -9.18218e-06 -2.42736e-06 
26.982 1 104 20.1456 10.1037 1.81365 1.30206 -0.17683 1.30873 0.469935 0.07935 0.141744 0 0 0 0 0 0 7.02949e-06 6.0887e-06 -5.93395e-05 
26.982 1 139 18.1873 12.1443 1.92027 1.04787 -2.37389 -0.473344 0.230412 -0.0990143 -0.100394 0 0 0 0 0 0 3.53705e-06 -1.19837e-06 -6.1412e-05 
26.982 1 143 22.3975 12.1843 1.79969 0.991311 -1.29718 -3.20856 -0.42584 -0.455484 0.386797 0 0 0 0 0 0 -7.25761e-06 -8.81742e-06 -5.83335e-05 
26.982 1 144 20.3459 14.1427 1.91655 0.213122 -2.06601 2.37502 -0.236826 0.13906 0.0994833 0 0 0 0 0 0 -5.74178e-06 1.65288e-07 -5.71799e-05 
26.982 1 302 22.288 10.1292 4.06168 4.9941 3.51342 1.41821 0.0946912 -0.0218008 -0.598098 0 0 0 0 0 0 -2.26497e-06 2.56621e-06 -1.49737e-05 
26.982 1 338 18.2607 13.9197 4.02704 2.33768 0.229113 -0.029509 0.294894 0.319376 -0.283105 0 0 0 0 0 0 7.29649e-06 1.06801e-06 -1.1536e-05 
26.982 1 341 20.3394 12.0965 3.8928 -0.316636 5.50754 2.54596 0.0937572 0.095063 0.163366 0 0 0 0 0 0 2.06752e-06 1.11221e-06 -4.87245e-06 
26.982 1 342 22.4453 14.2095 3.901 5.33842 -1.46897 -0.446219 -0.36683 -0.0180021 0.134998 0 0 0 0 0 0 -7.23526e-06 2.64164e-07 -5.21442e-06 
26.982 1 147 26.3475 12.1788 1.85283 3.01149 3.37346 5.43286 -0.491067 -0.389338 -0.041251 0 0 0 0 0 0 -2.39026e-05 6.95339e-06 -3.84123e-05 
26.982 1 148 24.234 14.1433 1.89614 -4.74872 -0.75608 0.781806 0.63723 -0.00488272 -0.32075 0 0 0 0 0 0 6.78175e-06 -4.23372e-07 -6.14659e-05 
26.982 1 345 24.4945 12.0179 3.90356 2.74547 -5.5028 -0.0616453 -0.323245 0.26199 -0.110528 0 0 0 0 0 0 -5.68139e-06 2.61153e-06 -8.3864e-06 
26.982 1 346 26.3329 14.1606 3.86333 -4.70416 0.451257 -1.03516 0.0965053 -0.270251 0.0148058 0 0 0 0 0 0 9.26012e-07 -5.03517e-06 -4.55563e-06 
26.982 1 110 30.4614 10.1665 0.0503233 -3.33128 -3.47506 0.34314 -0.13808 -0.48615 -0.21318 0 0 0 0 0 0 3.16895e-06 -2.99358e-05 -6.78097e-05 
26.982 1 149 28.3215 11.8543 0.0224095 -3.27901 2.0926 -0.808591 -0.111968 0.926017 -0.423218 0 0 0 0 0 0 -1.00197e-05 1.7574e-05 -7.29753e-05 
26.982 1 150 30.3149 14.2949 -0.0603823 0.354458 2.83936 -5.23137 0.165727 -0.613043 0.0516146 0 0 0 0 0 0 -1.05082e-05 6.59004e-06 -6.36572e-05 
26.982 1 151 30.3517 12.1015 1.95515 0.956202 -2.18631 1.46054 0.302242 0.644664 0.027364 0 0 0 0 0 0 5.91484e-06 1.50431e-05 -8.24659e-06 
26.982 1 152 28.2463 14.0901 1.73962 -2.38356 -0.543112 1.14136 0.613259 0.364881 0.401312 0 0 0 0 0 0 -5.67643e-06 1.99521e-05 -3.29785e-05 
26.982 1 310 30.3714 10.1472 3.81697 5.10006 -0.534597 -0.638219 0.450341 -0.292407 0.59134 0 0 0 0 0 0 9.44759e-06 -5.00625e-06 1.08662e-05 
26.982 1 349 28.3118 12.1525 3.84039 -5.34987 1.69081 -2.18781 0.101378 0.063519 0.451711 0 0 0 0 0 0 2.73858e-06 4.58488e-06 8.69083e-06 
26.982 1 350 30.5654 14.2225 3.98853 -3.02032 -1.76486 -1.84172 -0.310215 -0.292417 -0.196354 0 0 0 0 0 0 -4.98739e-06 -4.09606e-06 -3.89693e-06 
26.982 1 153 32.4439 12.1303 0.0555197 -0.148443 -0.369641 -1.91687 -0.265161 0.359484 0.229502 0 0 0 0 0 0 1.17821e-05 1.7174e-05 -6.65278e-05 
26.982 1 155 34.5298 12.0323 1.85836 0.625416 1.44566 3.37678 0.12845 0.543309 0.355465 0 0 0 0 0 0 1.50935e-05 2.21512e-05 -3.31305e-05 
26.982 1 156 32.5196 14.2603 1.97946 -2.402 -2.19577 -0.335186 -0.239412 -0.39754 -0.0956017 0 0 0 0 0 0 7.33548e-06 -4.46974e-06 -2.3037e-05 
26.982 1 314 34.523 10.1406 3.9117 0.841214 -3.7426 3.72335 0.102863 -0.314319 -0.0070748 0 0 0 0 0 0 7.95721e-07 -5.24012e-06 -3.67636e-06 
26.982 1 353 32.5612 12.0399 3.8317 1.72139 -0.664115 -3.5717 -0.259217 0.385912 0.457591 0 0 0 0 0 0 -4.67485e-06 6.9011e-06 7.58893e-06 
26.982 1 354 34.6482 14.1164 3.88496 -2.00828 4.58845 -0.959005 -0.58512 0.0150264 0.416176 0 0 0 0 0 0 -1.05654e-05 -6.90972e-07 2.48659e-06 
26.982 1 84 40.4989 10.1185 1.88068 0.694869 -0.431342 2.84985 0.521052 -0.123996 -0.0868837 0 0 0 0 0 0 2.01113e-05 -1.82546e-05 -6.16763e-05 
26.982 1 124 40.4711 13.939 2.14905 -0.902532 3.45365 1.9672 0.333483 0.510188 -0.314325 0 0 0 0 0 0 2.08047e-05 -8.87327e-06 -3.41096e-05 
26.982 1 321 40.438 11.9561 4.04216 0.900073 1.48675 3.34201 0.257218 0.743554 -0.00104797 0 0 0 0 0 0 2.15393e-06 8.28547e-06 -1.56947e-06 
26.982 1 158 38.5616 14.1727 0.0741333 4.29135 1.6142 -0.856978 0.18302 0.291178 -0.0835272 0 0 0 0 0 0 -9.03109e-07 2.90902e-06 -6.652e-05 
26.982 1 159 38.517 12.0604 1.95797 1.8581 1.07613 0.52226 -0.0683991 0.00243637 0.00183214 0 0 0 0 0 0 -2.38065e-06 -1.01288e-05 -5.07693e-05 
26.982 1 160 36.488 14.1059 1.94057 1.86894 -5.0434 3.33176 0.28665 0.263009 -0.455327 0 0 0 0 0 0 -4.45222e-06 4.79329e-06 -5.48387e-05 
26.982 1 357 36.5526 12.1812 3.87643 -10.885 -5.08507 0.53877 0.162107 -0.542448 0.296507 0 0 0 0 0 0 3.14137e-06 -8.50045e-06 -1.76656e-06 
26.982 1 358 38.4822 14.195 4.0578 2.60032 -2.60696 -6.47057 0.281454 -0.292108 -0.157038 0 0 0 0 0 0 5.37387e-06 -4.58582e-06 -6.30326e-06 
26.982 1 163 1.94826 16.0643 1.9886 4.58644 0.544752 5.17819 -0.335066 0.483366 -0.0648538 0 0 0 0 0 0 -3.60131e-05 6.16039e-06 -3.22105e-05 
26.982 1 164 0.0715882 18.1764 1.84935 -1.9349 4.87741 0.0632319 -0.280713 -0.0340899 0.147665 0 0 0 0 0 0 -4.66713e-05 -4.92994e-06 -4.58958e-05 
26.982 1 165 4.02248 16.053 -0.0141634 0.453755 1.64264 3.13751 -0.569589 0.378494 -0.120538 0 0 0 0 0 0 -2.11293e-05 1.89565e-05 -6.39036e-05 
26.982 1 168 3.93553 18.4297 1.79392 -2.55105 -0.874514 3.42138 0.34205 -0.456439 0.392328 0 0 0 0 0 0 -1.12931e-05 1.12775e-05 -3.8113e-05 
26.982 1 361 -0.00116127 16.0888 4.1137 3.62613 0.826149 -4.40717 0.204675 0.24468 -0.492966 0 0 0 0 0 0 -2.67958e-05 -2.39782e-05 -4.00484e-05 
26.982 1 362 2.05652 18.1174 3.90363 0.733086 -0.460989 -3.39594 -0.3268 0.38518 0.11165 0 0 0 0 0 0 -1.19241e-05 1.68838e-05 -1.76421e-05 
26.982 1 365 4.01159 16.2937 3.95622 4.37771 0.90726 -3.97878 0.0123214 -0.344271 0.129862 0 0 0 0 0 0 -5.60993e-08 -3.171e-06 -4.50725e-07 
26.982 1 2201 0.144448 20.1496 3.89597 6.2968 2.12723 2.37183 -0.472462 0.296768 0.164221 0 0 0 0 0 0 -3.38993e-05 1.57563e-05 -4.55932e-05 
26.982 1 166 6.03898 18.0387 0.00909083 -1.75449 -4.41781 3.25298 0.219014 0.66149 0.0503121 0 0 0 0 0 0 -5.35024e-06 3.46121e-05 -6.06528e-05 
26.982 1 167 5.99614 16.1135 2.07895 1.97398 -1.50397 -1.07039 0.00470789 0.323692 -0.068242 0 0 0 0 0 0 -9.70424e-08 7.22734e-06 -6.4325e-06 
26.982 1 169 7.96888 16.1602 -0.00380127 1.09703 5.14341 0.818924 0.399708 -0.0266978 -0.0887166 0 0 0 0 0 0 7.28477e-06 2.13655e-06 -6.11979e-05 
26.982 1 172 8.00271 18.2619 2.06174 1.9296 3.02005 -0.648324 0.220051 -0.319375 -0.556126 0 0 0 0 0 0 -1.08795e-05 2.44308e-05 -2.92337e-05 
26.982 1 366 6.03373 18.3387 3.80294 1.0659 0.109056 2.55079 -0.34143 -0.398266 0.297022 0 0 0 0 0 0 -1.89818e-05 2.32894e-05 -1.19546e-05 
26.982 1 369 8.15481 16.1575 4.14271 6.6535 1.02123 -2.76602 -0.607093 -0.363146 -0.0216202 0 0 0 0 0 0 -9.82163e-06 -7.58316e-06 -4.49014e-07 
26.982 1 170 10.0512 18.2817 0.0235757 0.065339 0.854188 4.51759 -0.158229 -0.667939 0.156749 0 0 0 0 0 0 -1.56202e-05 4.17152e-06 -5.82515e-05 