ITEM: TIMESTEP
13000
ITEM: NUMBER OF ATOMS
4000
ITEM: BOX BOUNDS pp pp pp
-2.71634 43.2163
0.746968 39.753
0.722332 39.7777
ITEM: ATOMS mass type id x y z vx vy vz fx fy fz xrad yrad zrad vxrad vyrad vzrad fxrad fyrad fzrad 
26.982 1 43 -0.428415 4.75563 2.62383 -3.10968 -0.908912 4.33644 -0.263354 -0.725337 0.969371 -0.636067 -0.35096 -0.94811 -0.0988777 -0.0366664 -0.150406 -2.07851e-05 -6.62789e-06 -4.16101e-05 
26.982 1 202 -0.434735 2.66986 4.80161 -1.04786 5.23176 -0.0215166 0.105621 0.0346776 -0.834072 -0.599898 -0.548153 -0.542058 -0.0889474 -0.0835007 -0.0829293 -1.31678e-05 -1.71419e-05 -2.60954e-05 
26.982 1 3 -0.261883 0.672221 2.51445 -6.9767 -3.66259 0.423853 -0.415146 0.354461 0.715264 -0.454688 -1.11356 -0.729359 -0.0608455 -0.161423 -0.122462 -1.07718e-05 -3.3094e-05 -2.79016e-05 
26.982 1 4 -2.77291 2.64616 2.49488 1.99062 -0.436755 -2.99891 0.286074 -0.158818 0.290684 -0.689594 -0.72265 -0.826464 -0.123661 -0.0991159 -0.121207 -2.81481e-05 -1.87304e-05 -2.86106e-05 
26.982 1 241 -2.6423 4.61369 4.55473 -0.566259 0.891284 3.61857 0.0502853 -0.0339107 -0.0343423 -0.516499 -0.513433 -0.578501 -0.0645608 -0.0619596 -0.0748573 -2.32415e-05 -1.62809e-05 -2.20516e-05 
26.982 1 245 2.07568 4.53529 4.71742 0.00588677 -0.290903 -3.40436 -0.148984 0.316752 0.155125 -0.0454304 -0.0996091 -0.136533 -0.00733586 -0.0152976 -0.0215834 -2.13272e-06 2.1166e-06 -1.20452e-06 
26.982 1 8 1.87523 2.8052 2.64024 -2.64519 2.73747 -4.39669 0.0401765 -0.585997 0.427561 0.18709 -0.93566 -0.969984 0.021526 -0.14687 -0.151002 5.04368e-06 -3.73164e-05 -3.73849e-05 
26.982 1 47 4.12821 4.73234 2.64342 1.43876 -6.10267 0.130783 0.244959 -0.403649 0.449597 -0.0679229 -0.231717 -0.924503 -0.002142 -0.0357516 -0.15331 1.77277e-05 -1.91285e-05 -2.50123e-05 
26.982 1 206 4.20536 2.53921 4.65431 -0.944133 3.99215 -3.5861 0.0726297 0.695698 -0.0918269 -0.0430589 -0.870259 -0.521497 -0.00427296 -0.126318 -0.0778938 1.02322e-05 -2.22137e-05 -2.75163e-05 
26.982 1 205 1.97348 0.847229 4.65927 0.89324 3.73563 2.89868 -0.555356 -0.0754225 0.0301116 0.0493922 -0.740035 -0.625092 0.00622989 -0.12317 -0.103754 -9.54359e-07 -3.87322e-05 -3.22067e-05 
26.982 1 45 1.87002 4.66028 0.80377 -0.0769773 -4.54161 -0.836965 0.304278 0.408445 -0.394607 -0.03702 -0.159385 -1.02968 -0.00835033 -0.0183208 -0.177723 -9.77757e-06 -8.47648e-06 -6.93938e-05 
26.982 1 249 6.48376 4.6559 4.51127 0.848318 -1.28286 -3.14343 -0.0625642 0.724515 0.52814 -0.00776357 -0.0907766 -0.106292 -0.00056579 -0.0143005 -0.019905 -3.3679e-07 5.74101e-06 -3.31103e-06 
26.982 1 12 6.3518 2.76542 2.77989 -2.53582 -3.8645 4.62088 0.13685 -0.616762 -0.541453 -0.183061 -1.09939 -0.814177 -0.0225401 -0.160469 -0.14573 -3.02964e-06 -3.58672e-05 -5.03816e-05 
26.982 1 51 8.83086 4.80336 2.80551 2.99125 -3.65319 -1.27472 0.0247342 -0.0957814 -0.243769 0.00929912 -0.0892678 -0.742437 -0.000191345 -0.00977543 -0.138203 -1.79733e-06 -1.00609e-05 -5.74454e-05 
26.982 1 210 8.71214 2.78845 4.60304 0.749256 1.72358 -5.1758 0.408082 -0.434783 -0.0188638 0.0513232 -0.802113 -0.426149 0.0119919 -0.125942 -0.0679425 8.01243e-06 -3.24291e-05 -1.19214e-05 
26.982 1 11 8.72469 0.77895 2.43288 -1.86434 -2.05835 -0.375161 0.0917849 -0.0402022 0.723577 0.114391 -0.581117 -0.73091 0.0159381 -0.100998 -0.115495 1.37355e-06 -2.94005e-05 -2.12996e-05 
26.982 1 253 11.1822 4.51666 4.58215 6.72128 -5.92537 2.69968 -0.207047 0.334298 0.0897391 0.00759287 -0.106441 -0.110357 0.00033165 -0.0174594 -0.0192401 -7.95157e-06 -2.8705e-06 -8.22678e-06 
26.982 1 16 11.5041 2.74674 2.62738 -6.11593 -1.40738 -2.67475 -0.596844 0.141521 0.174178 0.183923 -1.10203 -0.823991 0.0101488 -0.169424 -0.126852 -3.61801e-05 -2.42056e-05 -3.12988e-05 
26.982 1 55 13.4714 4.7232 2.53788 -2.51608 5.8544 3.71907 0.158276 -0.0406742 0.465111 0.0263295 -0.23484 -0.986975 0.00186696 -0.0248933 -0.14686 -1.04845e-05 -7.70285e-07 -1.06831e-05 
26.982 1 214 13.4531 2.70601 4.70927 2.96429 6.59224 -0.137509 -0.056027 -0.215301 -0.165597 0.0575067 -0.904211 -0.467569 0.00216007 -0.136074 -0.0668809 -4.14538e-07 -2.93495e-05 -4.15942e-06 
26.982 1 14 13.5191 2.75351 0.495438 -5.17151 -2.07915 1.47347 -0.310127 0.0408291 0.047563 0.0607719 -0.673597 -0.815874 0.00568122 -0.102419 -0.165192 -1.48887e-05 -2.29457e-05 -5.81402e-05 
26.982 1 15 13.4038 0.812134 2.60744 1.68036 -2.69337 -2.98634 0.0845994 -0.370743 0.0961793 -0.05777 -0.520413 -1.05937 -0.00433354 -0.113351 -0.142869 2.27094e-06 -6.19026e-05 -8.7832e-06 
26.982 1 57 15.5833 4.6581 0.499255 -0.883852 1.80233 -2.97854 0.152687 0.467265 0.267784 -0.109189 -0.140211 -1.21238 0.00291966 -0.0195388 -0.182341 1.74898e-05 -8.39163e-06 -5.61362e-05 
26.982 1 20 15.5669 2.72298 2.52609 2.88323 -1.93826 0.679368 0.208588 -0.00263059 0.116304 -0.256427 -1.10074 -0.812054 -0.0133233 -0.168566 -0.129034 2.83194e-05 -4.60303e-05 -1.57936e-05 
26.982 1 257 15.7007 4.49013 4.66819 -1.95448 -3.96833 -0.834589 0.00670788 0.464562 -0.138957 -0.00586777 -0.116104 -0.119538 0.000128599 -0.017658 -0.0197492 1.38481e-06 -5.26298e-07 -2.32055e-06 
26.982 1 218 17.912 2.54727 4.64036 -2.05333 -5.20174 1.68836 0.273055 0.0872094 -0.550448 -0.0604302 -0.855397 -0.359029 -0.00634735 -0.133356 -0.0649305 3.12136e-06 -3.95182e-05 -3.64989e-05 
26.982 1 59 17.8843 4.58116 2.53708 -2.62333 -3.46057 -2.219 -0.131422 -0.307049 0.236731 0.0326502 -0.0251824 -0.823087 0.010067 -0.00943989 -0.148809 8.58903e-06 -2.94351e-05 -2.86621e-05 
26.982 1 24 20.3066 2.71621 2.72687 2.77952 -1.58821 -0.508795 -0.521959 0.0571408 -0.411815 0.0997547 -0.902292 -0.706879 0.00971716 -0.141607 -0.138378 -3.25582e-05 -3.46384e-05 -3.36025e-05 
26.982 1 261 20.2384 4.70703 4.65586 -2.64374 -6.38097 -3.49119 -0.284377 -0.271419 0.034746 0.00776932 -0.094246 -0.125931 0.00122564 -0.0155819 -0.0239893 -8.7548e-06 -7.87975e-06 -4.46718e-06 
26.982 1 63 22.4197 4.56254 2.51363 1.26687 0.208694 0.0754751 0.24917 0.268484 -0.00200361 0.0413999 -0.030531 -1.0254 0.00458979 -0.00846258 -0.180493 5.82583e-06 -2.45438e-06 -2.89797e-05 
26.982 1 222 22.4845 2.86235 4.53004 0.850793 4.54427 0.245046 0.100558 -0.313803 0.368663 -0.0264647 -0.796849 -0.415185 0.000581147 -0.125657 -0.0682222 -7.7552e-06 -2.05619e-05 -2.10684e-06 
26.982 1 28 24.881 2.55844 2.60483 4.39057 -2.49246 7.08564 -0.302697 0.330059 -0.0546898 -0.0809137 -0.742135 -0.896943 -0.00480356 -0.124893 -0.15019 1.50238e-06 -4.27135e-06 -5.18299e-05 
26.982 1 265 24.8087 4.56624 4.60774 -1.72398 -2.39881 0.990321 0.0545219 -0.351246 -0.106226 -0.00119684 -0.0838476 -0.147604 -0.000142337 -0.0150464 -0.0265751 3.01194e-06 -3.0304e-06 -7.78131e-06 
26.982 1 225 24.7475 0.908186 4.75535 2.43332 4.44691 -0.717319 -0.295793 -0.656665 -0.336259 -0.0471014 -0.782709 -0.5735 -0.000883012 -0.106975 -0.0853324 -7.6609e-06 -4.76971e-05 -2.79219e-05 
26.982 1 23 22.451 0.943343 2.54772 3.66189 -1.50037 1.651 0.0912056 -0.584868 -0.120593 0.0180616 -0.661041 -0.892139 0.00043793 -0.110802 -0.154004 -9.29409e-06 -6.19846e-05 -1.70144e-05 
26.982 1 22 22.5482 2.72341 0.483953 2.15046 0.195599 -2.32276 -0.304741 -0.468696 0.30165 0.0923202 -0.631512 -1.17708 0.00934604 -0.0980599 -0.170747 5.79883e-07 -8.11311e-06 -5.78623e-05 
26.982 1 67 27.0723 4.48992 2.68796 6.23159 -0.211369 -0.0905786 0.0471262 0.113051 0.255646 0.0512832 0.000731561 -1.21297 0.0112608 0.0001982 -0.207058 4.29066e-06 3.92753e-06 -5.90504e-05 
26.982 1 226 26.9898 2.47916 4.56799 3.41546 -3.08586 2.88959 0.44212 0.475812 -0.0117573 0.0145399 -0.642626 -0.287499 -0.00231695 -0.115039 -0.0604469 1.23638e-05 -2.80677e-06 -6.77221e-06 
26.982 1 32 29.342 2.71114 2.61709 -3.11893 1.45687 2.69196 0.195432 -0.189703 0.65673 0.0156274 -0.654107 -0.969871 0.00265535 -0.103835 -0.170938 4.59604e-06 -9.12029e-06 -5.63342e-05 
26.982 1 269 29.2632 4.63618 4.6022 2.39321 5.08517 -3.58455 -0.260478 -0.313564 0.253611 -0.00559022 -0.0760819 -0.161221 -0.000586649 -0.013297 -0.0305634 -3.51442e-06 -7.48753e-06 -2.64164e-06 
26.982 1 229 29.4769 0.649123 4.48832 -6.5306 4.75779 -3.76058 -0.0529247 0.473073 -0.017906 0.0279029 -0.722881 -0.49482 0.00421306 -0.115711 -0.0865121 1.05209e-06 -3.91524e-05 -2.42598e-05 
26.982 1 27 26.9695 0.765197 2.43692 1.71761 3.16688 0.160356 0.206396 -0.0632259 0.459076 0.000789481 -1.22695 -0.759658 -0.00973609 -0.144179 -0.130486 6.64251e-06 -4.4839e-05 -4.19491e-05 
26.982 1 71 31.7322 4.71078 2.47411 1.38508 -3.32647 0.872023 -0.0782096 -0.358363 0.11819 -0.11586 -0.0195182 -1.05408 -0.0191931 -0.00742754 -0.195491 -1.27792e-06 -5.07321e-06 -6.2287e-05 
26.982 1 230 31.5382 2.91422 4.60828 -2.9672 -3.41157 -1.83686 0.160225 -0.566121 -0.0905116 -0.0592184 -0.681576 -0.346512 -0.00371301 -0.112096 -0.0630487 1.30444e-05 -2.64853e-05 -9.77415e-06 
26.982 1 273 33.8513 4.71485 4.62334 -2.52203 -3.96731 1.26651 0.274707 -0.193346 -0.215493 -0.000279224 -0.0613435 -0.12258 -0.000927236 -0.0125551 -0.0234416 5.00079e-06 -8.60814e-06 -1.04178e-05 
26.982 1 36 34.0363 2.68993 2.5439 -0.63394 2.86153 -0.438511 -0.102649 -0.539549 0.501905 -0.0753941 -0.738583 -0.914832 -0.0141485 -0.127433 -0.157102 -3.03007e-06 -2.95439e-05 -2.83493e-05 
26.982 1 31 31.7653 0.742776 2.58457 -0.811529 0.701953 1.0801 0.062029 0.110235 0.389784 -0.122496 -0.953653 -0.851786 -0.00228134 -0.129583 -0.143886 1.2005e-05 -3.5109e-05 -2.799e-05 
26.982 1 75 36.2947 4.71651 2.70801 0.633596 -2.3496 -4.32704 0.0728597 -0.174723 -0.273877 0.122799 -0.0263283 -1.07997 0.00272803 -0.00627686 -0.168065 -9.43613e-06 -1.02833e-05 -2.26918e-05 
26.982 1 234 36.1542 2.87762 4.66309 -5.49101 6.10349 -1.93677 0.39353 -0.134309 -0.15768 0.0153642 -0.53341 -0.25901 -0.002319 -0.0994007 -0.0534554 4.42782e-06 -3.77324e-05 -1.94632e-05 
26.982 1 40 38.5967 2.73355 2.71658 2.03422 -1.77315 -0.411021 -0.117361 0.441357 -0.128394 0.259868 -0.736174 -1.13073 0.0243095 -0.134255 -0.16727 9.08116e-06 -4.99636e-05 -1.59296e-05 
26.982 1 277 38.5504 4.82954 4.78142 0.424421 -1.81873 5.12755 0.0565727 -0.578097 -0.409566 0.00961592 -0.0679988 -0.157924 0.00117839 -0.011855 -0.0232771 1.67053e-06 -1.30507e-05 -8.46837e-06 
26.982 1 34 36.3647 2.77034 0.690298 -0.134492 -6.92668 3.31467 0.112086 -0.352844 0.292692 0.0820617 -0.397503 -1.1752 -0.00177363 -0.0908942 -0.180961 -8.14915e-06 -2.9927e-05 -4.11929e-05 
26.982 1 77 38.6206 4.81199 0.626988 -1.97061 1.76699 1.34918 0.243649 -0.54232 0.546791 0.00337137 -0.037573 -0.594372 0.0105046 -0.004436 -0.1399 2.31505e-05 -6.78343e-06 -5.45473e-05 
26.982 1 79 40.9443 4.60711 2.65272 -2.40446 5.92465 -5.7905 -0.242129 0.352012 0.0247643 -0.0689883 -0.1445 -1.17648 0.00260105 -0.0145353 -0.184253 -5.14597e-06 -2.05019e-06 -3.80976e-05 
26.982 1 238 40.9967 2.79793 4.63028 -4.66435 0.703789 -4.5191 -0.195932 -0.346936 -0.212398 0.00603078 -0.738316 -0.465281 0.00284029 -0.115198 -0.0706712 -3.76288e-06 -4.05496e-05 -2.5774e-05 
26.982 1 41 43.2526 4.73357 0.796896 5.02316 0.37565 0.957965 0.0651717 -0.148151 0.183047 -0.353375 -0.394705 -0.794611 -0.0630261 -0.0541289 -0.120517 -4.02378e-07 2.94524e-06 -6.15841e-05 
26.982 1 83 -0.423287 8.58783 2.76287 -1.20761 -2.66494 8.7352 -0.00821488 0.126938 0.0462027 -0.731335 -0.250587 -0.943061 -0.107733 -0.0472903 -0.158669 -2.50948e-05 -7.24804e-06 -4.97735e-05 
26.982 1 242 -0.130849 6.69342 4.73813 -0.223315 1.90217 3.31978 -0.444927 -0.379516 -0.300159 -0.742709 -0.0158464 -0.413245 -0.112975 -0.0101863 -0.0628723 -2.90751e-05 2.8142e-07 -1.79813e-05 
26.982 1 282 -0.577812 10.5563 4.73751 0.734675 0.0335573 0.603812 0.237771 -0.20438 -0.470218 -0.65029 0.00447043 -0.296653 -0.0907589 -0.00104368 -0.0451881 -2.20671e-05 -1.30589e-05 -2.19257e-05 
26.982 1 48 1.79883 6.48526 2.73132 -3.54319 0.465964 -6.18807 0.428187 0.293707 0.266461 -0.1651 -0.0693856 -0.896014 -0.0262806 -0.00646139 -0.146753 -4.37238e-06 2.30981e-05 -3.22153e-05 
26.982 1 285 1.88181 8.55649 4.54923 2.05305 -4.0288 0.989501 0.26368 0.325483 0.0558165 -0.0693879 -0.006484 -0.10103 -0.00878977 -0.000871027 -0.0172113 2.19981e-06 7.3404e-06 -1.18619e-05 
26.982 1 87 4.3763 8.55987 2.84848 0.325099 -6.36681 1.68412 -0.468173 -0.165712 -0.148728 -0.00450111 -0.0168888 -0.795648 -0.00247205 0.00259678 -0.134498 -1.36771e-05 1.15968e-05 -4.37395e-05 
26.982 1 246 4.20418 6.58591 4.96727 -0.707468 -5.4949 0.0608522 0.0567792 -0.242068 -0.608046 -0.00198025 -0.0052581 -0.0891322 -0.000188341 -0.000896224 -0.0155653 1.98559e-06 -4.26035e-06 -1.30533e-05 
26.982 1 46 4.20072 6.63722 0.878105 -5.30946 -0.290982 2.54713 -0.00962112 0.474605 -0.116517 -0.0397358 -0.0096088 -1.36273 -0.00212897 -0.00292506 -0.199724 7.82682e-06 1.40218e-05 -6.35609e-05 
26.982 1 289 6.47301 8.61162 4.86237 2.40585 -2.36942 -2.06521 0.189633 -0.522833 -0.121123 0.00528291 0.000917627 -0.0921144 0.000838076 0.000212953 -0.0154421 2.2662e-06 -1.00005e-05 -1.01156e-05 
26.982 1 52 6.51786 6.82081 2.64438 1.36123 1.44444 2.5964 0.0443742 -0.374338 0.43447 0.00605498 0.00962736 -0.792839 0.00499725 -0.00698351 -0.138419 1.22353e-05 -6.33061e-06 -4.49406e-05 
26.982 1 91 8.98932 8.46842 2.62635 4.54556 4.29724 -3.0405 -0.138389 0.0366831 -0.178485 0.0982876 0.0786893 -0.981524 0.0126852 0.000920377 -0.156529 -1.80336e-05 8.3985e-07 -4.85344e-05 
26.982 1 250 8.78048 6.78242 4.7104 5.06909 1.47665 -2.39767 0.207722 -0.356776 0.046712 0.00558267 0.00278396 -0.086062 0.00100414 -4.61047e-05 -0.0172031 1.40422e-06 -8.38132e-06 -4.99724e-06 
26.982 1 293 11.3785 8.47715 4.52552 -6.32391 -3.05747 -6.6293 -0.669557 0.450609 -0.239589 0.00183101 0.00996825 -0.123469 0.000190274 0.000883179 -0.0192901 -1.32735e-05 5.17825e-06 -4.28339e-06 
26.982 1 56 11.0519 6.58103 2.63334 3.09863 -2.09575 0.836408 0.267026 -0.20333 -0.0360518 0.0461566 0.1159 -0.933966 -0.00165924 0.00995176 -0.153168 -7.58707e-06 -1.97009e-05 -3.23534e-05 
26.982 1 95 13.4929 8.47952 2.61542 -4.84223 0.861075 1.42983 -0.0884556 -0.0605621 -0.110389 -0.033586 0.0795115 -1.10151 0.000433337 0.0115683 -0.168331 -4.23705e-06 -2.47669e-06 -1.46558e-05 
26.982 1 254 13.5161 6.61776 4.63451 -1.61275 3.85761 2.14573 0.0169689 -0.212125 -0.382146 0.0020261 0.000447169 -0.10825 3.20942e-05 0.00010442 -0.0172774 1.25822e-06 -6.25034e-06 -7.05166e-06 
26.982 1 54 13.2354 6.45816 0.52296 0.221791 -0.146359 3.12266 0.360422 0.935065 0.147738 -0.0909395 0.195902 -1.1464 -0.0127062 0.0284778 -0.18568 -1.29227e-05 -3.09812e-06 -5.79683e-05 
26.982 1 294 13.4648 10.5541 4.5638 1.18908 1.71455 -0.494421 -0.128722 -0.0652272 0.115988 0.000971093 0.00745427 -0.135859 -1.71522e-05 0.000408475 -0.0207514 -4.46791e-07 -6.05364e-07 2.96193e-06 
26.982 1 93 11.134 8.54439 0.660722 4.89083 1.52368 -1.00048 -0.120016 0.170653 0.0955159 0.149382 0.0402762 -0.817677 0.0138232 0.000965744 -0.146792 -2.31809e-05 -3.09801e-06 -6.02691e-05 
26.982 1 60 15.7483 6.59043 2.7716 -1.32587 4.85558 1.72756 -0.349949 -0.556483 -0.362488 -0.0200919 0.052449 -0.949915 0.0022148 0.00889936 -0.15617 -6.53619e-06 -1.29704e-05 -1.41481e-05 
26.982 1 297 15.7569 8.63519 4.55156 -4.6584 -0.474419 -1.01218 -0.678824 -0.207532 0.272636 0.000822333 0.00912719 -0.125518 0.000365778 0.00127971 -0.0209824 -1.04997e-05 -1.37686e-06 6.08314e-06 
26.982 1 99 17.7839 8.4809 2.59602 5.87733 -3.51551 1.05817 0.460305 0.194475 -0.0302271 -0.055404 0.0964703 -0.995506 -0.00944147 0.0126026 -0.166194 1.1186e-05 1.15714e-06 -9.86981e-06 
26.982 1 258 17.894 6.68148 4.54235 0.883325 -0.613583 4.0428 0.283274 -0.541971 0.381025 0.00189278 0.00353381 -0.103495 0.000542261 0.000123157 -0.0186014 7.44507e-06 -9.55996e-06 6.5883e-06 
26.982 1 298 17.6339 10.4684 4.60011 -1.87365 -3.08982 -1.02214 0.631618 0.0972382 0.185184 -0.00238306 0.00248889 -0.137942 -0.000275751 -0.000164551 -0.0225534 1.26827e-05 -8.24094e-07 5.40672e-06 
26.982 1 97 15.6179 8.45356 0.766485 -3.35584 1.63 -3.70782 -0.143047 0.443973 -0.278041 -0.0730637 0.194324 -1.00542 -0.0058455 0.0200179 -0.146532 -7.63825e-06 2.80509e-06 -6.35588e-05 
26.982 1 58 17.8497 6.59978 0.576624 0.528372 1.87953 -1.03557 0.00917216 -0.0114534 -0.14671 0.0355723 0.0510712 -1.20412 0.00546371 0.00301702 -0.171956 1.09107e-05 -1.46008e-05 -6.2462e-05 
26.982 1 64 20.0681 6.29981 2.49547 -3.07268 -5.08702 1.80931 0.140155 0.530452 0.0308172 0.0667188 -0.0538473 -0.961673 0.00914722 -0.0165375 -0.165536 -2.43887e-07 -9.26796e-06 -2.59356e-05 
26.982 1 301 20.2389 8.39418 4.56191 2.67399 1.33134 4.57473 -0.344766 -0.225625 -0.0936498 0.0017545 0.00520755 -0.112363 -0.000260914 0.000283455 -0.0188504 -8.03837e-06 3.94017e-07 -3.49894e-06 
26.982 1 101 20.1998 8.42681 0.695915 -2.51565 -2.55667 1.45929 0.0251009 -0.365675 0.144592 0.100262 -0.0167111 -1.30915 0.0080216 -0.00629413 -0.201796 3.52871e-06 2.26721e-06 -5.73095e-05 
26.982 1 103 22.4574 7.95363 2.68585 1.61249 1.86858 1.09642 -0.251286 1.13209 0.0228639 0.0438932 0.0504724 -1.07343 0.00592983 -0.00321524 -0.16653 -4.12393e-06 1.9523e-05 -9.93466e-06 
26.982 1 262 22.4242 6.35368 4.73055 1.92847 0.00673404 4.09165 0.315601 -0.391704 0.0918773 0.0033384 -0.00456303 -0.124947 0.000285846 -0.00175869 -0.0220286 3.11288e-06 -4.40342e-06 -3.27103e-06 
26.982 1 305 24.7659 8.31721 4.5206 7.16973 5.12909 -2.32239 -0.218592 0.525085 0.152409 0.0016561 0.000520386 -0.12761 0.00108906 -0.00040647 -0.0212233 -3.39957e-06 1.08891e-05 -8.6424e-08 
26.982 1 68 24.8246 6.37298 2.68468 8.23571 2.70476 0.0985531 0.0340621 0.00219839 -0.049758 0.0519335 -0.0540023 -1.14497 0.00926924 -0.0155315 -0.190746 1.40519e-05 -1.87578e-05 -3.83107e-05 
26.982 1 62 22.5304 6.44993 0.613243 0.213624 -1.51812 -0.702035 -0.360262 0.0788389 -0.150743 0.0333024 0.0876692 -0.907896 0.00550793 0.00609568 -0.129693 7.75697e-07 -1.87688e-05 -6.95629e-05 
26.982 1 105 24.6584 8.35165 0.866415 -0.0888306 -2.97487 0.422546 0.240082 0.380307 -0.368124 0.0187404 -0.0469862 -1.11246 0.0140756 -0.00518428 -0.176293 2.47267e-05 -3.28319e-07 -6.43888e-05 
26.982 1 107 26.909 8.43881 2.7333 -3.87232 3.85637 0.0754576 0.382239 0.067867 -0.320526 0.130675 -0.115293 -1.18417 0.0196668 -0.0141639 -0.197748 2.41417e-05 6.6576e-06 -5.27197e-05 
26.982 1 266 27.1586 6.51697 4.59511 -2.44149 -4.48429 3.25137 -0.396028 -0.49095 0.218879 0.00314965 0.000996773 -0.151395 0.000519693 -0.000533256 -0.0265388 -2.11899e-06 -9.88203e-06 -3.95566e-06 
26.982 1 72 29.4639 6.61089 2.61743 1.36656 3.1577 2.56269 -0.103556 0.0161601 0.0687222 -0.0577473 0.0338707 -1.32606 -0.00528603 -0.00523017 -0.22647 -1.4316e-06 4.05507e-06 -6.20682e-05 
26.982 1 309 29.1125 8.36986 4.70487 1.62702 2.12917 0.9195 0.556576 0.189561 -0.480213 -0.00410176 -0.00496484 -0.155911 -0.000394683 -0.000758739 -0.0268932 1.38998e-05 9.43939e-06 -1.83003e-05 
26.982 1 111 31.7101 8.57699 2.87861 -5.88908 -0.24821 3.5489 -0.257062 -0.225591 0.0410176 -0.10409 -0.145809 -1.08286 -0.0158773 -0.0206746 -0.185584 -8.30345e-06 -1.36137e-06 -5.09869e-05 
26.982 1 270 31.4913 6.20321 4.73324 -2.81999 -4.59558 -3.54749 0.134255 0.723097 -0.236969 -0.00585791 0.00340031 -0.13817 -0.00112936 -0.000307586 -0.0254163 2.87942e-06 1.4888e-05 -9.14515e-06 
26.982 1 76 33.9086 6.65267 2.64197 3.18754 -3.499 3.39692 0.120155 -0.155256 0.268957 0.000513324 0.044349 -1.05269 -0.00644681 -0.00101982 -0.179788 -1.00578e-05 4.96758e-06 -5.21306e-05 
26.982 1 313 34.0198 8.56691 4.7555 2.17532 -3.94954 4.66692 -0.313854 -0.254432 -0.325341 -0.00292743 -0.00188435 -0.117372 -0.000622508 -0.000536953 -0.0200811 -8.67633e-06 -7.47829e-06 -1.19744e-05 
26.982 1 116 33.9996 10.4236 2.69383 6.50779 0.950423 -4.3048 -0.197212 0.217959 -0.186114 0.0809745 0.0495293 -0.994052 0.00396465 -0.00164425 -0.156665 -7.74078e-06 -1.6383e-05 -5.37315e-05 
26.982 1 115 36.4627 8.6672 2.80649 1.87111 -0.921589 2.03001 -0.118154 0.297288 -0.701922 -0.16181 -0.0444334 -0.909638 -0.0190052 -0.00788447 -0.150889 -1.18288e-06 1.59607e-05 -5.16998e-05 
26.982 1 274 36.1268 6.70156 4.43898 1.8043 0.82402 1.0602 0.194869 -0.556705 0.798613 0.00217697 -0.00781157 -0.117936 -0.000160336 -0.000892567 -0.0200341 3.28207e-06 -9.45423e-06 4.1014e-06 
26.982 1 80 38.6057 6.62158 2.70306 -3.22338 0.285861 1.59897 0.226878 0.113592 -0.0331421 0.0163531 -0.269589 -0.978768 0.00608246 -0.0250385 -0.155766 1.78614e-05 1.17083e-05 -3.03183e-05 
26.982 1 317 38.663 8.62265 4.65164 2.92448 2.15091 -1.56048 0.117255 -0.304729 -0.437203 0.00426483 -0.00513626 -0.0816592 0.000655847 -0.000647992 -0.0151673 1.06049e-06 -1.24007e-06 -1.0508e-05 
26.982 1 74 36.489 6.67954 0.767159 1.82346 -3.94752 -7.89384 -0.350062 0.0280391 0.245536 0.0438757 -0.125458 -0.942632 -0.00632001 -0.0134388 -0.143896 -1.69645e-05 1.87285e-05 -5.90798e-05 
26.982 1 84 43.0427 10.3476 2.67888 -1.92569 1.66053 1.67659 0.43644 0.387718 0.385029 -0.858006 -0.256073 -1.14553 -0.13529 -0.0484817 -0.173017 2.11269e-05 -1.62855e-05 -4.05253e-05 
26.982 1 281 43.3873 8.50629 4.71118 -0.0229355 1.43158 -3.09367 -0.394788 0.0885734 -0.101642 -0.503148 -0.478496 -0.559637 -0.0827692 -0.0775083 -0.0922309 -7.86893e-06 -4.38898e-06 -9.12942e-06 
26.982 1 44 43.1554 6.75807 2.72181 0.197329 4.16659 1.55088 0.225245 -0.284892 0.114507 -0.180539 -0.676161 -0.966321 -0.0414948 -0.0920581 -0.157752 1.39814e-05 -2.02578e-05 -3.24211e-05 
26.982 1 119 40.9236 8.6183 2.76565 -1.04243 -0.0316782 -0.116284 -0.220082 -0.191073 -0.22849 0.202444 0.0285817 -0.99827 0.0281745 -0.00750006 -0.165024 -2.73456e-06 -7.24827e-06 -5.47406e-05 
26.982 1 278 40.9405 6.63921 4.68618 0.792311 -1.77273 -0.150595 -0.0857856 -0.281779 -0.274026 0.258326 -0.254419 -0.147869 0.0342081 -0.032898 -0.0255728 9.6825e-06 -1.27165e-05 -1.26002e-05 
26.982 1 123 -0.298795 12.4751 2.72237 4.07223 5.49075 2.27883 -0.325509 -0.427429 0.0825606 -0.741834 -0.205556 -0.953281 -0.101183 -0.0209398 -0.155183 -7.05772e-06 -1.172e-05 -4.95517e-05 
26.982 1 322 -0.389842 14.4967 4.4518 -0.558559 -0.687483 -1.2573 -0.0451341 -0.452232 0.550878 -0.455704 -0.172342 -0.238587 -0.0650754 -0.0219319 -0.0394439 -5.3743e-06 -1.01584e-05 -2.82938e-06 
26.982 1 321 -2.93999 12.581 4.48863 -6.04807 -0.462932 3.28945 0.382478 -0.301481 0.34927 -0.437538 -0.341099 -0.43249 -0.0768206 -0.0600428 -0.0747278 -1.97859e-05 -3.55832e-05 -2.23912e-05 
26.982 1 124 -2.67697 14.3913 2.59308 -0.904825 -7.47744 -2.98272 -0.0142075 -0.199547 -0.202742 -1.08867 -0.384702 -0.963734 -0.158625 -0.0597827 -0.155108 -3.36425e-05 9.76664e-06 -4.46038e-05 
26.982 1 121 -2.67138 12.2085 0.702502 -4.57795 0.953048 0.051344 0.196781 0.467918 0.225439 -0.22292 -0.155207 -0.416428 -0.0416789 -0.0301463 -0.0915851 -3.31131e-06 -2.30301e-05 -2.95247e-05 
26.982 1 88 1.85077 10.6409 2.66501 1.46448 -0.437409 0.997216 0.185055 -0.472864 0.148436 -0.192053 -0.0440788 -0.836442 -0.018094 -0.00411341 -0.137462 4.28261e-06 -8.17931e-06 -5.79836e-05 
26.982 1 325 2.03848 12.3935 4.66467 -0.250232 -1.4859 -1.16006 -0.273165 0.0122631 -0.287987 -0.0644808 -0.00639732 -0.0894356 -0.00786624 -0.000814222 -0.0161497 -7.84581e-06 -6.22275e-06 -1.31572e-05 
26.982 1 128 1.97358 14.438 2.79255 1.79942 3.62894 4.34972 -0.0392766 -0.22599 -0.363471 -0.126757 0.0979849 -0.847902 -0.0201239 0.0132815 -0.144698 -2.11364e-06 -1.82785e-05 -5.08082e-05 
26.982 1 286 4.45535 10.5233 4.64044 -0.437899 2.65862 -0.145559 -0.372431 0.144822 -0.204513 -0.00181699 0.00246836 -0.0768557 -0.000474546 0.000331288 -0.0151408 -8.23045e-06 3.91183e-06 -1.51374e-05 
26.982 1 127 4.35536 12.504 2.80165 -2.25218 2.79248 3.371 -0.0732549 0.0998392 -0.131997 0.0142388 -0.000531737 -0.711163 0.00303749 -0.00467469 -0.129122 2.55844e-06 -3.09621e-06 -5.92006e-05 
26.982 1 326 3.96913 14.5526 4.73209 2.86753 -3.67091 -6.3525 0.535901 -0.772805 -0.847561 -0.00214333 0.00047176 -0.0756545 -0.000223187 -0.000278013 -0.014068 1.47615e-05 -1.07843e-05 -1.44895e-05 
26.982 1 92 6.64859 10.3672 2.79867 -4.02216 -2.2755 1.15075 -0.182352 0.380358 -0.160823 0.0937348 -0.0225452 -0.840639 0.0063446 0.00309249 -0.138254 -2.47671e-06 6.52439e-06 -6.48316e-05 
26.982 1 290 8.86686 10.3834 4.55276 -6.24584 0.351892 -1.50453 0.328429 -0.0333909 0.324874 0.00911309 0.00324299 -0.116183 0.000879834 -4.31579e-05 -0.0181894 5.08522e-06 -2.98293e-06 -1.24853e-06 
26.982 1 329 6.99599 12.4409 4.62027 -4.29541 5.27708 0.057247 -0.734296 -0.513512 -0.388904 0.00304013 -0.00086632 -0.0854423 -0.000262968 -2.46404e-05 -0.0159715 -1.55587e-05 -1.81365e-06 -1.47906e-05 
26.982 1 132 6.40115 14.4484 2.91449 -4.81352 0.407759 -3.75168 0.171615 -0.402395 -0.45806 0.0759249 -0.00230214 -0.7963 0.0118124 -0.00480726 -0.134457 4.96171e-06 -5.02333e-06 -6.01694e-05 
26.982 1 131 8.99987 12.3479 2.62079 -0.892401 -1.57427 -1.24405 -0.168161 0.405564 0.321471 0.0930802 -0.0162715 -0.965705 0.00767463 0.00276766 -0.156287 -2.40205e-05 9.00241e-06 -5.08735e-05 
26.982 1 330 8.99462 14.3641 4.62582 -1.14998 5.33857 6.53277 -0.0896758 0.253229 -0.0788506 0.00579191 0.000546078 -0.105234 0.000732454 0.000236617 -0.0181622 -4.41672e-06 9.17218e-06 -8.2213e-06 
26.982 1 96 11.0967 10.5492 2.68706 -2.34985 -4.56196 -4.76412 0.0828756 -0.457083 0.0195411 0.0386689 -0.0309225 -1.12446 0.00591639 -0.0042213 -0.167537 -9.71406e-06 -8.37131e-06 -1.69658e-05 
26.982 1 333 11.2225 12.4708 4.59914 -7.31747 0.757403 -2.42722 -0.261301 -0.0759138 0.0986789 0.00358941 -0.00403794 -0.122039 0.0001815 -0.00055686 -0.0190125 -6.18243e-06 -1.98843e-06 -1.07458e-06 
26.982 1 136 11.1137 14.4749 2.61273 -6.36842 -0.695383 -1.33926 0.13452 -0.350174 0.038217 -0.0283618 -0.00492905 -1.00923 -0.00571811 0.00211053 -0.159156 2.59617e-07 1.49021e-05 -4.82121e-05 
26.982 1 135 13.3417 12.4897 2.68005 -1.91306 -0.568879 7.75951 0.197847 0.530275 -0.277136 0.0460132 -0.099805 -1.08448 0.00280524 -0.0118461 -0.16341 3.05348e-06 2.27189e-05 -2.84398e-05 
26.982 1 334 13.2665 14.3791 4.71075 0.982229 2.79059 6.23089 0.113831 0.157175 -0.453052 0.000646886 -0.00402882 -0.110933 0.000353376 6.95706e-05 -0.0182098 4.20119e-06 4.3779e-06 -1.42357e-05 
26.982 1 94 13.2223 10.5533 0.805378 -3.1556 1.47634 -0.837125 0.355225 -0.116544 -0.442502 -0.0321201 -0.0364245 -0.854068 0.000595085 -0.000193075 -0.139647 5.24284e-06 1.48563e-06 -6.36366e-05 
26.982 1 133 11.0514 12.4035 0.707098 1.77106 -2.59396 -0.0323308 0.0946592 0.287058 -0.135579 0.0574147 -0.0498588 -0.969879 0.0072922 -0.00351047 -0.164618 -1.32023e-05 1.79578e-05 -6.57999e-05 
26.982 1 100 15.5613 10.6696 2.58268 -3.16017 -0.842705 0.417832 -0.0734081 -0.380134 0.0319535 0.00597238 0.0538909 -1.16784 0.00369017 -0.00223289 -0.178712 -2.26436e-06 -2.11506e-06 -1.28576e-05 
26.982 1 137 15.7143 12.4546 0.582872 -0.0129177 0.608152 0.846809 -0.325069 -0.439295 0.108695 0.0337956 0.0113343 -0.779825 0.000480662 -0.00157939 -0.156695 -1.4508e-05 1.30374e-05 -6.36346e-05 
26.982 1 140 15.6593 14.4264 2.61221 0.346721 0.308014 -2.59002 -0.250089 -0.115272 0.213732 0.107513 -0.131945 -1.03682 0.0114009 -0.00324261 -0.162128 -1.34088e-05 1.37837e-05 -2.96341e-05 
26.982 1 337 15.5838 12.5158 4.69042 -7.2467 3.77955 -4.40122 -0.0744972 -0.0257726 0.0392032 0.00209728 -0.00130964 -0.140906 0.000419101 -6.57672e-05 -0.0207028 6.29784e-08 3.15873e-06 1.91714e-06 
26.982 1 139 17.9102 12.2991 2.63953 1.47105 1.58813 3.31084 -0.294815 0.498397 0.0874234 -0.0253715 0.00619328 -1.21877 0.00412224 -0.00528544 -0.184977 1.0058e-05 1.23433e-05 -1.95873e-05 
26.982 1 338 17.7121 14.2998 4.71381 -1.97439 2.30209 1.03957 0.281079 0.336524 -0.141433 -0.00438298 -0.0102281 -0.132065 -0.000603922 -0.00106156 -0.0204425 4.98194e-06 7.01235e-06 -2.02116e-06 
26.982 1 138 17.7688 14.3991 0.912821 1.98248 -5.53975 -0.978254 0.605972 0.33726 -0.250784 -0.0397822 0.00379364 -0.746494 -0.00162935 0.00112602 -0.138343 8.15587e-06 1.21568e-05 -6.15066e-05 
26.982 1 98 17.8347 10.3946 0.706898 2.58131 1.49184 1.21825 -0.0367513 0.074988 -0.646309 -0.0598784 -0.0171834 -0.822417 -0.00252147 -0.00224144 -0.120657 1.19318e-05 9.91773e-06 -6.79884e-05 
26.982 1 104 19.9129 10.3621 2.62645 0.968678 -4.22654 -1.07959 0.474475 -0.332056 -0.0049131 0.0229719 0.100423 -1.11874 -0.00431506 0.0164492 -0.174142 1.65701e-05 9.62604e-06 -2.30719e-05 
26.982 1 341 20.0316 12.3172 4.44481 4.04255 1.16305 -1.75785 0.418697 0.083443 0.443499 -0.00204592 -0.00538938 -0.136756 -0.000227949 -0.000657613 -0.0219129 1.13229e-05 3.29964e-06 1.73527e-07 
26.982 1 144 20.1795 14.4005 2.69187 -0.677609 -1.67614 1.03006 0.106321 0.330115 0.13053 -0.152568 -0.0267097 -1.05492 -0.0224237 -0.0116117 -0.157444 1.22354e-05 -1.12226e-05 -3.15936e-05 
26.982 1 145 24.9581 12.3818 0.605404 0.723761 -4.93794 2.61133 -0.422795 0.122381 0.696467 0.100354 -0.0268069 -0.614368 0.0142803 -0.00190137 -0.11448 1.22669e-05 1.63091e-05 -5.19066e-05 
26.982 1 302 22.3356 10.307 4.3858 -1.56512 -1.58986 0.296632 0.230428 0.0500835 -0.0235828 -0.00130136 0.00111777 -0.13806 -0.000196806 0.000362325 -0.0204364 5.17349e-06 3.27991e-06 -7.52879e-06 
26.982 1 102 22.4541 10.3733 0.744176 5.81808 5.46585 -1.70755 -0.0369087 -0.318835 0.275096 0.0371941 -0.0201316 -0.68218 0.00441768 -0.00495363 -0.139192 -9.02655e-06 1.071e-05 -5.32262e-05 
26.982 1 143 22.4284 12.3652 2.59688 3.66301 3.21901 -0.547239 0.281941 0.231928 0.267906 0.0516129 -0.189151 -1.09611 0.00291889 -0.0257205 -0.160863 -7.84633e-06 2.05409e-05 -3.3505e-05 
26.982 1 342 22.4931 14.3234 4.82944 5.75424 -0.0134322 0.931037 -0.302539 -0.209056 -0.598883 0.00577026 0.000242929 -0.106626 0.000772013 -0.000380335 -0.0156925 -6.89181e-06 -4.68958e-06 -1.34628e-05 
26.982 1 148 24.7123 14.4702 2.78254 3.09633 -2.25046 3.58707 -0.168029 -0.514833 -0.0576079 0.204815 0.0233955 -1.22939 0.0298952 0.00387527 -0.18082 -5.12933e-06 2.09882e-06 -4.88392e-05 
26.982 1 108 24.8346 10.4594 2.49604 1.08464 -1.08401 -4.65195 -0.239587 0.00268905 0.585785 -0.0938704 0.096981 -1.14054 7.48647e-05 0.011569 -0.176955 1.07445e-05 3.62844e-06 -1.62058e-05 
26.982 1 345 24.6272 12.3022 4.59143 0.685203 -0.509668 -0.45608 0.0305224 0.261517 -0.230007 0.00120881 0.00679778 -0.142333 0.000816931 0.000600864 -0.0219518 -4.97589e-07 1.11173e-06 -1.01366e-05 