ITEM: TIMESTEP
11000
ITEM: NUMBER OF ATOMS
4000
ITEM: BOX BOUNDS pp pp pp
-2.30986 42.8099
0.630728 39.8693
0.638781 39.8612
ITEM: ATOMS mass type id x y z vx vy vz fx fy fz xrad yrad zrad vxrad vyrad vzrad fxrad fyrad fzrad 
26.982 1 43 0.312584 4.55528 2.66268 -2.46779 -3.08714 -0.898795 -0.552146 0.123818 -0.361676 -0.454489 -0.276665 -0.677293 -0.0812305 -0.0386667 -0.123447 -3.45324e-05 8.21938e-06 -2.57934e-05 
26.982 1 202 0.119286 2.59514 4.55457 0.349051 -1.15547 5.67545 -0.237227 -0.302336 -0.111144 -0.433515 -0.397356 -0.388361 -0.0772117 -0.0673588 -0.0697233 -1.80909e-05 -3.39604e-05 -2.18615e-05 
26.982 1 4 -2.36981 2.6445 2.67298 -2.19029 2.33167 1.04718 0.123178 -0.506996 -0.204031 -0.46739 -0.537586 -0.604412 -0.100929 -0.0888171 -0.10244 -3.00438e-05 -1.30791e-05 -8.13881e-06 
26.982 1 245 2.31952 4.63368 4.68722 -1.63537 1.04749 3.22066 -0.00862098 0.14414 -0.197287 -0.0317828 -0.0722961 -0.096752 -0.00601796 -0.0116631 -0.017919 -3.65507e-06 -1.71612e-06 -4.04036e-06 
26.982 1 2 -0.0793242 2.66442 0.627914 1.79867 -5.96315 3.59984 -0.0157579 -0.256742 0.0477673 -0.294232 -0.43242 -0.797119 -0.0490254 -0.0853856 -0.143225 -1.78553e-05 -2.54566e-05 -3.835e-05 
26.982 1 8 2.28558 2.51676 2.61413 0.771924 -0.239215 3.54839 -0.0649396 0.0982781 -0.477334 0.148262 -0.671341 -0.690291 0.0180663 -0.119454 -0.131962 -2.60345e-06 -4.42779e-05 -1.94694e-05 
26.982 1 7 4.38699 0.540465 2.56591 -3.67817 -3.28462 -1.23627 0.306002 0.173477 -0.271754 -0.0712497 -0.0982336 -0.716762 -0.0171842 -0.0419532 -0.130817 -7.87195e-06 -4.28023e-05 -3.15842e-05 
26.982 1 47 4.45568 4.70866 2.50992 1.24036 -1.05578 0.411608 0.0435977 -0.439851 0.436819 -0.058378 -0.171469 -0.6421 -0.00517543 -0.0245873 -0.128693 9.61825e-06 -2.12692e-05 -2.87366e-05 
26.982 1 206 4.5598 2.69775 4.38963 1.02051 -2.53281 1.22478 -0.154708 -0.444496 0.181519 -0.033574 -0.642297 -0.381021 -0.00289048 -0.103756 -0.0654127 -1.20188e-05 -2.24164e-05 -5.39837e-06 
26.982 1 209 6.64355 0.656146 4.54742 -3.96267 -4.99115 -0.545921 -0.107515 -0.198053 -0.364589 -0.0340784 -0.639418 -0.566238 -0.000435891 -0.124812 -0.103963 8.0593e-06 -4.06893e-05 -3.87706e-05 
26.982 1 45 2.27022 4.41536 0.560673 0.380724 -1.2407 0.90267 -0.236151 0.479577 0.251488 -0.0267442 -0.124928 -0.713014 -0.00388269 -0.0170616 -0.143893 8.76719e-07 -2.20481e-06 -5.91946e-05 
26.982 1 12 6.62982 2.70936 2.52949 0.304602 0.659329 -2.21466 0.344717 -0.140315 -0.100346 -0.141832 -0.802905 -0.555258 -0.0202301 -0.135695 -0.115147 3.87476e-06 -1.92243e-05 -4.78492e-05 
26.982 1 249 6.78072 4.65008 4.61126 -0.847598 2.59292 -1.43614 0.30553 -0.277468 -0.144956 -0.00623507 -0.065642 -0.0718377 -0.000954457 -0.0110386 -0.015245 8.08102e-06 -4.36953e-06 -9.43016e-06 
26.982 1 51 8.98003 4.59634 2.44283 -3.61677 -1.44711 -2.8811 -0.141554 -0.367692 0.676833 0.00955025 -0.0702449 -0.505611 0.000900549 -0.0112746 -0.103898 -1.27157e-05 5.31478e-06 -2.41725e-05 
26.982 1 210 8.90158 2.47384 4.58836 0.486244 2.96764 -5.57394 0.313385 0.433924 -0.178309 0.0277963 -0.568909 -0.300415 0.0106766 -0.10477 -0.0566176 1.91159e-05 -2.33234e-05 -2.26256e-05 
26.982 1 253 11.3005 4.50688 4.67118 -2.5685 -6.48051 -9.13895 -0.177664 -0.101588 -0.0224144 0.0063892 -0.0745882 -0.0767226 0.000846801 -0.0144005 -0.0154279 -7.19358e-06 -8.56093e-06 -7.81385e-07 
26.982 1 10 8.88021 2.66537 0.516683 0.41084 -3.44313 -0.119579 -0.00949637 -0.44428 0.197681 0.00270129 -0.520435 -0.970353 0.00106202 -0.0925525 -0.175367 -2.47356e-05 -2.09798e-05 -4.31713e-05 
26.982 1 16 11.1989 2.66318 2.57989 -0.239484 0.732379 -0.934839 -0.157908 -0.0190943 0.205703 0.155471 -0.784363 -0.597236 0.016958 -0.144215 -0.10656 -1.4866e-05 -2.9655e-05 8.86773e-06 
26.982 1 55 13.3628 4.58342 2.70828 -5.55904 0.926299 1.06916 0.181032 0.037065 -0.410636 0.0157959 -0.187976 -0.708949 0.00628533 -0.021818 -0.133145 3.40072e-06 3.9853e-07 -1.68443e-05 
26.982 1 214 13.6037 2.58229 4.56895 -0.918214 -6.7888 -5.49222 -0.398334 -0.052825 0.229333 0.0559272 -0.653626 -0.340054 -0.000142216 -0.113045 -0.0597499 -9.29371e-06 -2.64977e-05 1.54694e-07 
26.982 1 14 13.4601 2.52189 0.651207 -1.15483 3.98109 0.945031 0.0810688 0.438886 0.061266 0.0438247 -0.486882 -0.528647 0.0082226 -0.0828127 -0.123478 1.20788e-05 -1.26937e-05 -5.71142e-05 
26.982 1 20 15.615 2.50433 2.66839 2.73304 -1.17165 4.42025 0.26861 0.173318 0.186509 -0.215388 -0.803195 -0.570309 -0.0246915 -0.12988 -0.11364 8.92986e-06 -3.25018e-05 -1.24519e-05 
26.982 1 15 13.4178 0.682116 2.70638 1.00583 0.860694 -3.56013 0.0528607 -0.405889 -0.183039 -0.0437811 -0.332222 -0.788879 -0.0108705 -0.0783729 -0.127256 4.92243e-06 -6.3597e-05 5.0009e-07 
26.982 1 53 11.12 4.49919 0.514 -2.14298 -5.5931 6.53967 0.306074 0.165177 0.27051 0.0829275 -0.0432145 -0.958374 0.00628842 -0.00220345 -0.166522 -4.32836e-06 1.58176e-05 -5.98196e-05 
26.982 1 13 11.1839 0.669788 0.728959 0.791667 3.30001 3.0862 -0.0174405 -0.120531 -0.303438 0.0438949 -0.409269 -0.417486 0.00556888 -0.0688999 -0.101132 -1.39633e-05 -4.47041e-05 -2.83336e-05 
26.982 1 257 15.6795 4.54428 4.55897 -0.20613 5.46178 -0.373327 0.252965 0.347166 -0.13533 -0.00544502 -0.085174 -0.0822861 -0.000446696 -0.0132875 -0.0175513 6.77635e-06 1.73685e-06 -4.14835e-06 
26.982 1 218 18.2728 2.45415 4.48435 -1.10712 -0.65801 -2.78578 -0.806635 0.595747 0.107481 -0.0505818 -0.618876 -0.246695 -0.00281484 -0.105613 -0.0493544 -2.77876e-05 -6.93319e-06 -5.32126e-06 
26.982 1 59 17.8821 4.43325 2.56318 -3.58584 -0.161743 2.73459 -0.172143 0.345006 0.227885 0.0206778 -0.0179148 -0.556624 0.0017305 -0.000669412 -0.118309 5.46876e-06 1.45466e-05 -2.63079e-05 
26.982 1 18 17.9604 2.48019 0.656886 1.76304 4.66059 1.48821 0.285604 0.282549 0.148925 -0.0487631 -0.434601 -1.01431 -0.0040196 -0.0757523 -0.176399 1.02164e-05 -1.70791e-05 -5.92322e-05 
26.982 1 24 20.2501 2.86002 2.5304 -3.21835 -4.99233 -0.674504 0.0268051 -0.379585 -0.144484 0.0703648 -0.642842 -0.464794 0.0161375 -0.119528 -0.103508 1.60343e-06 -6.70711e-06 -4.84467e-05 
26.982 1 19 17.9045 0.597797 2.70039 -4.36191 2.95333 -4.6244 0.344163 -0.0216786 -0.216348 0.0217154 -0.670114 -0.432439 0.00338633 -0.113027 -0.0930299 -1.26036e-05 -6.05687e-05 -2.22174e-05 
26.982 1 57 15.7622 4.47664 0.595583 3.63953 0.55215 -5.18346 -0.462799 -0.12591 0.144674 -0.103205 -0.107992 -0.894605 -0.0085401 -0.0144853 -0.135811 7.02266e-06 4.42179e-06 -5.82031e-05 
26.982 1 261 20.3274 4.47473 4.69305 -0.700014 3.48162 -6.01095 -0.0883765 0.242826 -0.480861 0.00510275 -0.0668568 -0.0836122 0.00127648 -0.0122656 -0.0182729 -3.91293e-06 6.74993e-06 -1.2355e-05 
26.982 1 63 22.6207 4.43504 2.63786 -2.24886 -4.55893 3.80618 -0.178204 0.142644 -0.0888988 0.0316206 -0.0159279 -0.70066 0.00609647 -0.00757042 -0.14304 -1.22408e-05 2.31091e-05 -3.2984e-05 
26.982 1 222 22.4541 2.42523 4.51068 -2.87346 -2.28394 1.13865 0.244998 0.535001 0.615886 -0.0314185 -0.560906 -0.287 0.0015175 -0.108238 -0.0587491 1.7682e-05 -9.86289e-06 4.86787e-06 
26.982 1 23 22.5694 0.670533 2.58322 1.00865 1.20641 -1.25742 0.0588512 -0.308178 -0.340935 0.00873296 -0.471395 -0.608494 0.00724559 -0.0831674 -0.128804 -2.47386e-06 -6.3821e-05 -1.41119e-05 
26.982 1 221 20.3315 0.719986 4.3603 0.587384 -0.752739 -3.14664 -0.0380951 -0.59612 0.139748 -0.0888335 -0.490354 -0.434422 -0.00820499 -0.0949063 -0.082824 -1.84483e-07 -5.42705e-05 -2.15749e-05 
26.982 1 22 22.5207 2.51664 0.562304 1.11585 2.67754 4.00472 0.248446 0.513596 0.169624 0.0713612 -0.448831 -0.865938 0.0145003 -0.0837129 -0.142095 -2.25793e-05 3.34493e-07 -6.09839e-05 
26.982 1 28 24.6444 2.57389 2.72675 0.333344 4.49672 5.78172 0.483621 -0.0630565 0.0680519 -0.0681527 -0.504362 -0.628007 -0.00639581 -0.107988 -0.124444 1.93562e-05 -2.78704e-05 8.76982e-06 
26.982 1 265 24.9252 4.46396 4.80638 2.79094 0.563389 -3.80604 -0.27026 0.0764049 -0.398091 -0.000904181 -0.0556721 -0.0999083 -4.14902e-05 -0.0125772 -0.0213833 -5.96737e-06 -2.74019e-06 -6.5597e-06 
26.982 1 67 27.0362 4.5928 2.74434 7.56744 -2.87026 3.8555 -0.015547 -0.172123 -0.143274 0.0304368 -0.000334454 -0.836281 0.00923182 -0.00119505 -0.172394 5.89348e-06 8.73873e-06 -3.39955e-05 
26.982 1 226 27.1018 2.55196 4.63532 -5.10009 1.7209 2.66685 -0.273409 0.138476 0.0838012 0.0220851 -0.431195 -0.17887 -0.0037825 -0.092422 -0.0468322 -1.40541e-05 -3.2544e-05 -1.79679e-05 
26.982 1 32 29.1697 2.68486 2.68336 -4.70638 -1.35658 -1.69961 0.299032 -0.23908 -0.373113 0.0104151 -0.467042 -0.660285 0.0011033 -0.0800475 -0.141288 1.51676e-05 -3.06537e-05 -5.19656e-05 
26.982 1 65 24.9057 4.4644 0.767713 0.457193 -0.94204 1.93844 -0.460829 0.163756 -0.411549 0.0998852 0.0058511 -0.642202 0.0151553 -0.00222565 -0.100615 -2.43991e-06 2.32562e-05 -6.20931e-05 
26.982 1 229 29.3835 0.590564 4.58921 0.822521 -3.14686 -0.132506 0.0681511 -0.0340598 -0.0193552 0.0198956 -0.507647 -0.332901 0.00389872 -0.101091 -0.0744115 -3.00697e-06 -4.48204e-05 -4.87923e-05 
26.982 1 25 24.7939 0.676618 0.730752 -1.96007 -10.4993 -0.588239 0.142509 -0.00513064 0.132555 0.0354899 -0.37315 -0.415104 0.0103332 -0.0586307 -0.0688258 1.50636e-05 -4.55556e-05 -3.14743e-05 
26.982 1 26 26.9428 2.62446 0.886093 1.87909 -0.79921 0.954986 0.212927 -0.204376 -0.324754 -0.0768488 -0.293743 -0.797126 -0.0138212 -0.0578469 -0.127075 2.88281e-05 -2.34113e-05 -4.69465e-05 
26.982 1 269 29.4815 4.63151 4.45891 1.56045 -4.02647 5.11305 -0.155955 -0.463462 0.822107 -0.00425871 -0.0523019 -0.106436 -0.000653602 -0.0102037 -0.0242872 5.36085e-08 -6.45948e-06 2.82844e-06 
26.982 1 71 31.6095 4.5838 2.62097 0.350152 -0.698436 4.81851 0.222399 0.0182691 -0.227917 -0.0779499 -0.00565766 -0.70041 -0.0185688 -0.00678814 -0.158476 2.76105e-06 -6.42476e-06 -6.33243e-05 
26.982 1 230 31.49 2.53037 4.45014 2.27436 -0.273663 -3.03651 0.0256581 0.108364 0.0732611 -0.0487384 -0.481219 -0.232431 -0.0052916 -0.086963 -0.0491127 1.53446e-06 -1.80337e-05 -2.37338e-05 
26.982 1 273 33.7197 4.5409 4.76859 -3.22155 -3.22584 -9.25264 0.185138 -0.248288 -0.344455 0.00103975 -0.0402612 -0.0812491 -0.000427111 -0.00889777 -0.017964 2.33116e-07 -5.38665e-06 -1.0472e-05 
26.982 1 36 33.9017 2.59101 2.62635 -7.54121 3.22176 3.33139 -0.407089 0.532583 -0.01419 -0.0477323 -0.506923 -0.623804 -0.0124071 -0.103376 -0.132718 -1.26056e-05 -2.55816e-05 -4.62726e-05 
26.982 1 233 33.6631 0.781864 4.55965 -1.98187 3.56643 0.605459 0.314275 -0.367828 0.0795209 -0.0106489 -0.678783 -0.382502 0.000104161 -0.120867 -0.0796041 6.92118e-06 -4.4436e-05 -4.1788e-05 
26.982 1 75 36.0425 4.50613 2.63439 2.82846 1.95852 2.57585 0.0213252 0.150901 -0.0995481 0.112737 -0.0154366 -0.773249 0.00800826 -0.00553013 -0.139416 -1.13235e-05 -3.67632e-06 -1.98702e-05 
26.982 1 234 36.0166 2.79501 4.69959 -0.747596 5.30086 0.448234 -0.366928 -0.842284 -0.166855 0.0156826 -0.358713 -0.16468 0.00115515 -0.0761173 -0.0405468 1.61451e-06 -4.07872e-05 -1.70408e-05 
26.982 1 34 35.8412 2.68022 0.480325 0.555137 5.76787 -2.67809 0.588128 0.17234 0.625925 0.0805404 -0.237522 -0.841051 0.00384221 -0.069255 -0.152195 -1.01397e-05 -2.83494e-05 -4.3616e-05 
26.982 1 241 42.8221 4.45411 4.5579 5.99173 4.21543 -1.43433 -0.0457357 0.399597 -0.094564 -0.396859 -0.396366 -0.439049 -0.0586112 -0.0567955 -0.0662485 3.35147e-06 7.36443e-07 -1.4365e-05 
26.982 1 77 38.1842 4.53532 0.653632 0.836472 -6.26758 -2.10921 0.139635 0.0750222 -0.162346 -0.00947414 -0.0290142 -0.345517 0.00331144 -0.0038252 -0.10653 1.61527e-05 -1.69967e-05 -5.96079e-05 
26.982 1 277 38.3273 4.42544 4.62466 1.70126 -3.8753 5.89688 0.122311 0.815003 -0.625801 0.00754582 -0.0472106 -0.115139 0.00112594 -0.00934434 -0.019603 3.88727e-06 6.45906e-06 -1.20042e-05 
26.982 1 40 38.1966 2.68648 2.63579 -3.38335 4.20738 -0.0286551 -0.000805324 -0.641577 -0.118266 0.215099 -0.498289 -0.823123 0.0219362 -0.105343 -0.140573 -1.03851e-06 -5.37609e-05 -2.55515e-05 
26.982 1 79 40.5392 4.54422 2.67539 1.02224 -1.11354 -0.999113 -0.0206228 0.128014 -0.567186 -0.0723926 -0.119355 -0.839237 -0.00107858 -0.0100596 -0.152755 1.07143e-05 -1.30794e-05 -4.08841e-05 
26.982 1 238 40.4257 2.5469 4.50745 -2.99156 -5.94045 1.35965 0.25114 -0.0720195 0.306707 -2.31416e-05 -0.5305 -0.339203 0.00291969 -0.0962961 -0.0581042 5.99766e-06 -2.80363e-05 -4.05007e-06 
26.982 1 39 40.4405 0.628508 2.57873 -0.513154 0.199719 -0.0259869 -0.0656663 0.0475828 0.0583266 -0.111399 -0.307466 -0.718798 -0.0176308 -0.0801392 -0.119938 9.14166e-07 -4.20915e-05 -2.62718e-05 
26.982 1 83 -0.0520083 8.51239 2.84757 -0.0799848 -0.0529383 -1.17553 -0.0830123 -0.191769 -0.872369 -0.535619 -0.170174 -0.659396 -0.0900248 -0.0335686 -0.125062 -1.00138e-05 -8.07422e-06 -6.08332e-05 
26.982 1 242 0.0719819 6.50255 4.52968 -1.81449 -2.10191 0.201559 -0.33313 -0.111115 0.49476 -0.540313 0.0055009 -0.301343 -0.091002 -0.00805688 -0.050049 -2.27774e-05 -9.30043e-06 -2.22591e-06 
26.982 1 84 -2.135 10.5079 2.80138 -4.35251 5.31798 -4.73297 -0.219185 -0.270291 -0.423695 -0.605156 -0.175257 -0.829755 -0.110232 -0.0363851 -0.142223 -4.55286e-05 -6.6534e-06 -5.18291e-05 
26.982 1 281 -2.2992 8.43853 4.68437 -5.16147 -2.24348 3.17938 0.162191 0.0540407 -0.121152 -0.342596 -0.331738 -0.38653 -0.0730523 -0.0661702 -0.0780548 -2.43521e-05 -1.7787e-05 -2.09612e-05 
26.982 1 44 -2.45309 6.52053 2.37615 2.54 -4.32114 -1.29088 0.142378 -0.418118 0.876093 -0.0875365 -0.504979 -0.684452 -0.0461008 -0.0795087 -0.122572 -2.69015e-05 -1.23838e-05 -2.71092e-05 
26.982 1 285 2.327 8.43401 4.58887 1.45313 1.08921 -1.67866 -0.247118 0.324537 0.414515 -0.0531534 -0.00442923 -0.0714746 -0.00761199 -0.000984953 -0.0127652 -5.53087e-06 5.35991e-06 1.88747e-06 
26.982 1 88 2.08776 10.4057 2.64837 1.32831 -2.04214 -0.602967 0.225008 0.0346489 -0.0729009 -0.152963 -0.0362774 -0.598899 -0.0214148 -0.00235354 -0.104434 2.73268e-06 -1.47122e-05 -4.61879e-05 
26.982 1 48 2.25523 6.66112 2.54732 -3.35117 -6.20524 -1.56526 -0.405994 -0.959687 0.336693 -0.122533 -0.0497316 -0.630506 -0.0163341 -0.0106109 -0.119022 -2.11759e-05 7.40981e-06 -3.80309e-05 
26.982 1 87 4.41179 8.34611 2.7014 -2.77339 -7.24887 -2.46174 0.444192 0.916792 -0.399132 -0.00248512 -0.0111012 -0.55627 0.00101132 -0.00821745 -0.107226 -3.77306e-07 2.61519e-05 -3.59113e-05 
26.982 1 246 4.53372 6.58984 4.58658 3.54528 5.82883 3.07549 -0.0176461 -0.53285 0.241304 -0.00141864 -0.00347043 -0.0605398 -6.37878e-05 -0.000737292 -0.0131958 -1.44734e-06 -6.80997e-06 -4.84676e-07 
26.982 1 289 6.80002 8.54798 4.56252 -2.21452 -2.93573 0.53486 0.0651424 -0.726694 -0.466436 0.00391089 0.000738858 -0.0651403 0.000481547 -0.000177576 -0.0122096 7.18958e-07 -8.44376e-06 -1.02725e-05 
26.982 1 52 6.81346 6.44837 2.59769 4.09911 0.445677 -2.26119 -0.0679138 0.597389 0.0203243 0.00398261 0.0194902 -0.546491 -0.00291552 -0.00236891 -0.111228 1.09207e-05 -4.12383e-06 -3.81479e-05 
26.982 1 92 6.6661 10.4741 2.68215 -2.21254 -2.24922 -2.98618 -0.037613 0.30371 -0.104051 0.0778199 -0.022633 -0.600645 0.00986321 -0.00345526 -0.106087 -1.03874e-05 2.71764e-06 -2.22768e-05 
26.982 1 46 4.33663 6.52807 0.694714 2.09271 0.192116 3.08374 0.372789 0.226351 -0.830843 -0.0333055 -0.00115339 -1.01082 -0.00168887 -0.00326492 -0.152308 5.43169e-06 7.09281e-06 -6.99404e-05 
26.982 1 91 9.13643 8.39601 2.73273 1.44316 -3.26472 0.547654 -0.515189 -0.133165 -0.241902 0.0722422 0.0729557 -0.702048 0.0113538 0.0054164 -0.124789 -2.60933e-06 -1.32531e-05 -4.06406e-05 
26.982 1 250 9.16185 6.40439 4.64439 4.20979 0.215221 -2.08394 -0.355264 -0.0957382 -0.141006 0.00379208 0.0027297 -0.0571063 0.000751871 7.13666e-05 -0.0122537 -8.13632e-06 -3.60342e-06 -3.9886e-06 
26.982 1 290 9.10253 10.383 4.54425 0.411391 3.4846 2.4473 -0.326953 0.221682 -0.0144982 0.00658941 0.0028652 -0.0840242 0.00125739 0.000301258 -0.0143798 -4.63411e-06 3.65917e-06 -1.06072e-06 
26.982 1 293 11.4676 8.3823 4.43148 -0.507294 -5.37981 -4.77713 -0.148535 0.159222 0.341792 0.000714617 0.00791453 -0.0879229 0.000625972 0.00110484 -0.0162442 -2.68317e-06 4.17288e-07 -1.66247e-06 
26.982 1 96 11.1935 10.4948 2.75238 -2.91223 1.84179 0.195973 0.458081 0.223323 0.077953 0.0239702 -0.0228529 -0.814553 0.00834819 -0.00251776 -0.143484 8.65173e-06 -8.32032e-06 -2.30361e-05 
26.982 1 89 6.61254 8.62803 0.687517 2.23605 5.91323 2.27019 0.317574 -0.623489 0.378403 0.028065 0.0632926 -0.862126 0.00740941 -0.00308778 -0.170322 1.01904e-06 -3.38229e-06 -5.76407e-05 
26.982 1 56 11.1606 6.46491 2.61553 0.484942 -2.09766 0.534307 0.384466 -0.302483 -0.253885 0.040187 0.0912579 -0.657169 0.00712931 0.0110234 -0.125754 -4.3752e-06 8.97843e-06 -3.70485e-05 
26.982 1 95 13.5744 8.48177 2.58093 -0.505959 -1.00194 1.15361 -0.174395 -0.100311 0.0783511 -0.0338418 0.0601508 -0.785228 -0.000294344 0.00834561 -0.147799 -1.57043e-05 -2.3869e-06 -1.9656e-05 
26.982 1 254 13.6006 6.53214 4.69853 4.38768 0.639414 -0.0530999 -0.156136 -0.503952 -0.489777 0.00166349 0.000215137 -0.0752174 0.000486299 9.38208e-05 -0.015692 -2.92611e-06 -9.36392e-06 -8.86964e-06 
26.982 1 294 13.6658 10.4774 4.44653 0.477429 -0.0159386 -2.30964 -0.204576 0.304568 0.37043 0.00072968 0.00651458 -0.0968925 0.000118713 0.000631221 -0.0181966 -4.11403e-06 1.17892e-05 5.62118e-06 
26.982 1 297 15.7256 8.4222 4.45962 5.79575 -4.22413 -1.32133 0.193548 0.15568 0.190521 0.000283001 0.00663449 -0.0864427 0.000192382 0.000948904 -0.017667 6.48686e-06 3.52988e-06 -1.36034e-06 
26.982 1 97 15.7694 8.54426 0.588799 0.511333 2.49416 -1.56932 0.0731145 -0.120116 -0.0237108 -0.0613522 0.154681 -0.736294 -0.0081626 0.019643 -0.125201 2.26813e-05 -2.21793e-06 -6.674e-05 
26.982 1 94 13.4889 10.3467 0.613158 -2.03954 2.2004 -0.759882 -0.00722535 0.210901 -0.523397 -0.0312985 -0.0348356 -0.606248 -0.00271486 -0.000168063 -0.105875 -1.43729e-05 -6.0433e-06 -6.41964e-05 
26.982 1 54 13.4654 6.547 0.699988 -2.1919 1.00492 -0.693029 0.00467777 -0.186461 -0.115816 -0.0716829 0.141008 -0.822672 -0.00852486 0.0238221 -0.138357 -1.38933e-05 3.5853e-06 -6.15417e-05 
26.982 1 100 15.7761 10.4517 2.4859 2.71872 -4.52382 2.52913 0.20985 -0.0209066 0.1209 0.000344235 0.0546483 -0.835057 -1.93306e-05 0.000827462 -0.151463 1.61015e-05 2.69276e-06 -1.67881e-05 
26.982 1 60 15.7285 6.55188 2.44406 -0.689218 -1.90641 4.71577 0.00210553 -0.42698 0.25895 -0.0210641 0.039834 -0.656272 -0.0020154 0.00292903 -0.136439 1.25204e-05 -1.11018e-05 -1.76593e-05 
26.982 1 99 17.8877 8.36916 2.62206 -1.44457 -1.77153 2.81759 0.189315 0.355549 -0.150766 -0.040089 0.0730963 -0.687079 -0.00545881 0.0093445 -0.138965 8.50801e-06 6.06313e-06 -3.64381e-05 
26.982 1 258 17.904 6.50167 4.7013 -3.31708 3.58698 2.45759 -0.0250961 -0.308911 -0.148644 0.00114313 0.00302975 -0.0689709 0.000193093 0.00042999 -0.0155423 1.33476e-08 -5.93563e-06 -3.18457e-06 
26.982 1 64 19.8867 6.37284 2.80034 2.80644 3.29959 -3.61919 0.571951 -0.00490398 -0.516537 0.0497056 -0.0326765 -0.658596 0.0067384 -0.00488894 -0.135848 1.3998e-05 -7.61566e-06 -5.0205e-05 
26.982 1 301 20.2208 8.43057 4.55729 -4.46588 -1.25154 4.37884 -0.149808 0.0790478 0.393657 0.00195525 0.00458023 -0.0766321 -5.28175e-05 0.000316568 -0.0164908 -2.68265e-06 2.69575e-06 1.09e-06 
26.982 1 104 20.3038 10.4258 2.81557 0.775671 -0.799987 -4.79063 -0.113546 -0.205725 -0.753597 0.0274626 0.0762174 -0.793673 0.000488789 0.00916067 -0.149886 -1.24713e-06 8.15442e-06 -4.91999e-05 
26.982 1 103 22.5018 8.57607 2.80368 0.668337 -1.32058 -0.506945 -0.0170449 0.035589 -0.325633 0.0353344 0.0512479 -0.759682 0.00329989 0.0029871 -0.144246 -4.93903e-07 -4.72169e-06 -4.95659e-05 
26.982 1 262 22.4449 6.42878 4.50149 -2.3294 -1.54582 3.9432 0.285331 0.258195 -0.0297655 0.00291193 -0.00178809 -0.0846044 0.000241871 -0.00101251 -0.0175422 7.47447e-06 4.48266e-06 -1.21024e-05 
26.982 1 302 22.6761 10.5406 4.67097 -1.88795 -0.777772 -1.95864 -0.326801 0.0616583 -0.113182 -0.000849732 0.00064845 -0.0991811 -0.000363494 0.000212302 -0.0180287 -5.72154e-06 -2.78786e-06 -7.28658e-06 
26.982 1 101 20.1244 8.51464 0.772389 0.593761 -1.2005 6.8636 0.470259 -0.161846 0.421441 0.0811861 -0.00734022 -0.95334 0.0107072 -0.00324165 -0.154264 5.95442e-06 -1.91334e-06 -5.70948e-05 
26.982 1 305 24.7349 8.73014 4.47848 3.73192 -0.947286 2.26317 0.243662 -0.620948 0.390315 0.000374056 0.00100728 -0.0885515 0.000560694 -0.000198781 -0.0178023 3.512e-06 -1.10705e-05 1.66475e-07 
26.982 1 68 24.7022 6.54261 2.59934 -2.76493 -0.191403 -2.30151 0.0963038 0.0105002 0.508428 0.0354149 -0.0302614 -0.797249 0.00878106 -0.0090478 -0.157542 -2.91046e-06 1.9259e-06 -2.67155e-05 
26.982 1 107 27.0919 8.48882 2.63124 -1.76695 -5.29472 -1.63504 0.0113631 0.279926 -0.121653 0.0943458 -0.0878751 -0.821337 0.0156215 -0.0132732 -0.164001 1.09309e-05 -1.03224e-07 -4.88956e-05 
26.982 1 266 27.0498 6.5467 4.48826 5.93944 1.78976 3.8426 -0.114618 0.290969 0.409871 0.00219874 0.00170511 -0.103074 0.000570257 -0.000166668 -0.0216429 -4.10816e-06 6.79995e-06 -3.80971e-08 
26.982 1 306 27.0965 10.4737 4.53409 7.42587 0.706539 1.26766 -0.154706 -0.190909 0.0846443 4.66055e-06 -0.00343977 -0.0809697 0.000363126 -0.000359218 -0.0182411 -2.87002e-06 -6.52014e-06 -2.24089e-06 
26.982 1 105 25.0201 8.57786 0.684371 -3.79893 1.05262 -2.33613 -0.680031 0.231747 0.115383 0.000439817 -0.0392764 -0.792064 0.00656656 -0.00256727 -0.141607 -3.11965e-06 4.33838e-06 -5.69326e-05 
26.982 1 72 29.2839 6.44515 2.63022 2.29973 -0.668085 -0.287148 0.016104 0.629542 -0.387779 -0.0467932 0.0403341 -0.911969 -0.00563788 -0.00212875 -0.186388 4.24374e-06 8.31002e-06 -6.40159e-05 
26.982 1 309 29.4019 8.4832 4.55236 2.83494 -2.05004 -1.58502 -0.219798 -0.157774 0.340088 -0.00315764 -0.00329757 -0.106981 -0.000444908 -0.000867589 -0.0217518 -2.93723e-06 -2.97636e-06 -6.38748e-07 
26.982 1 111 31.6219 8.41379 2.70474 5.79064 -0.695365 -1.60559 -0.0229998 0.0338902 0.0816533 -0.0723602 -0.106269 -0.746852 -0.0133341 -0.0190964 -0.150767 -1.29804e-05 1.21025e-06 -4.45414e-05 
26.982 1 270 31.6978 6.43718 4.66157 -3.69574 7.56894 -3.5356 -0.198701 0.0899177 0.161719 -0.00365371 0.00352949 -0.0923099 -0.00111975 0.000298565 -0.0204832 -3.20608e-06 2.30351e-06 -3.61031e-06 
26.982 1 116 33.8928 10.4668 2.51657 1.84707 -0.79796 1.92302 -0.4299 -0.237023 0.544873 0.0723955 0.0446301 -0.70763 0.00567301 0.00410962 -0.132385 -4.74834e-06 -5.04504e-06 -2.58644e-05 
26.982 1 310 31.5367 10.6135 4.53951 2.01921 4.82496 1.27574 0.228544 -0.224696 -0.0173547 -0.00104665 -0.000888397 -0.0652503 -0.000307735 -0.000137742 -0.0151038 7.18045e-06 -5.13273e-06 -5.8195e-06 
26.982 1 313 33.9972 8.4332 4.5034 -1.31197 1.70888 2.54959 -0.293277 0.343632 -0.0341077 -0.0012512 -0.000879977 -0.0816412 -0.000936431 -0.000359367 -0.0162027 -7.66086e-06 7.40643e-06 -7.29722e-06 
26.982 1 76 33.8886 6.46673 2.61818 1.82483 1.2256 -2.4124 -0.18564 0.122311 0.0689021 0.0121225 0.0439519 -0.731653 -0.00510319 0.00387607 -0.143405 -1.26911e-05 -1.41659e-05 -3.74649e-05 
26.982 1 115 36.2206 8.65047 2.46344 3.5813 0.612259 -1.22275 -0.043689 -0.105711 0.518426 -0.124837 -0.0294902 -0.639242 -0.0188762 -0.00573858 -0.122121 -5.43998e-06 1.4629e-05 -2.02402e-05 
26.982 1 274 36.0196 6.5164 4.49812 -2.66569 -2.33679 -5.56951 0.366026 -0.0112267 -0.371785 0.00251197 -0.00583038 -0.0821722 -0.000227284 -0.000970453 -0.0159681 8.64963e-06 2.61451e-06 -1.02965e-05 
26.982 1 314 36.1419 10.5261 4.67635 -5.47899 -3.72852 -3.74431 -0.0541096 -0.571326 -0.436755 -0.00201081 0.00399358 -0.0787828 -0.000316433 0.000661974 -0.0148411 1.08303e-06 -1.05398e-05 -1.31202e-05 
26.982 1 113 33.6643 8.47045 0.696743 1.80361 -0.592475 0.497263 0.159128 -0.188019 -0.214472 0.00158022 0.0357701 -0.636511 -0.00352569 0.00238027 -0.124067 -1.11237e-05 7.49919e-07 -6.24431e-05 
26.982 1 74 36.227 6.53048 0.789995 -0.238789 -3.21876 -1.33643 -0.354519 0.0315521 -0.190886 0.0528475 -0.0950302 -0.678279 -0.0028289 -0.014575 -0.122922 -1.82389e-05 1.65307e-08 -6.14755e-05 
26.982 1 80 38.4772 6.61968 2.56039 -1.94851 -0.317888 -5.88114 -0.183986 -0.268499 0.328051 0.00531987 -0.216818 -0.696417 0.00580817 -0.0271711 -0.128616 -1.68616e-06 -5.36565e-06 -2.79288e-06 
26.982 1 317 38.5451 8.56456 4.43337 -3.78955 2.96708 1.82019 -0.498874 -0.168754 0.228732 0.00296005 -0.00374179 -0.0558943 0.000554225 -0.000629858 -0.0112766 -1.07704e-05 -4.77176e-06 1.14447e-06 
26.982 1 119 40.8443 8.57065 2.61488 3.75993 2.38326 -3.29981 -0.468577 -0.107639 0.0709843 0.150012 0.0431942 -0.704034 0.0235664 -0.0071786 -0.131535 1.17542e-05 -1.91647e-06 -2.38594e-05 
26.982 1 278 40.6622 6.41833 4.64116 -1.40872 -1.33055 -2.19619 -0.207115 0.276453 -0.125577 0.195079 -0.193323 -0.101879 0.0305301 -0.0296342 -0.0208192 -3.60704e-07 1.70661e-06 -6.41197e-06 
26.982 1 117 38.4219 8.68818 0.660891 -1.38255 3.91096 -1.0696 -0.34273 -0.629485 -0.0486257 0.0655674 0.0271475 -1.30972 0.00984521 -0.000304712 -0.223305 -1.63343e-05 7.12589e-06 -6.20035e-05 
26.982 1 78 40.3723 6.62106 0.504497 1.59051 1.26449 0.363064 0.326422 -0.460985 0.699966 0.0360564 -0.21417 -0.744989 0.0138189 -0.0293247 -0.109509 2.58564e-05 -9.90588e-06 -5.91015e-05 
26.982 1 122 -0.065546 14.2858 0.679209 0.910534 -3.0774 -0.780267 0.170514 0.0274168 0.0239998 -0.556646 -0.0385395 -0.759337 -0.094102 0.00508089 -0.135316 -2.3846e-05 1.41825e-05 -4.73145e-05 
26.982 1 282 0.0250089 10.4476 4.62248 0.698616 -3.92643 -3.56601 -0.0325302 0.438577 0.563585 -0.482625 -1.89324e-05 -0.215157 -0.0803793 0.00371002 -0.0379841 -1.9661e-06 3.83553e-06 5.40813e-06 
26.982 1 123 -0.0342566 12.3488 2.62205 -4.83067 2.16316 2.97131 0.0332211 0.0456473 -0.1678 -0.54462 -0.16301 -0.678105 -0.0941804 -0.0222772 -0.122363 -1.28753e-05 -9.8439e-06 -3.47998e-05 
26.982 1 322 -0.0328801 14.2675 4.61473 0.953822 1.91361 -0.99584 -0.0555005 0.503179 -0.293215 -0.331963 -0.12952 -0.168523 -0.0578196 -0.0211427 -0.0304581 -1.6374e-05 8.20769e-06 -1.85568e-05 
26.982 1 325 2.23003 12.4782 4.62951 -6.45706 0.850543 -1.577 -0.164652 -0.499253 0.0421183 -0.0488782 -0.00518655 -0.0625382 -0.00809176 -0.00059666 -0.0118745 -3.06867e-06 -8.13697e-06 -9.23155e-08 
26.982 1 128 2.28625 14.3782 2.77131 -5.35766 0.780822 2.93736 -0.315293 0.0566637 -0.450111 -0.0882175 0.0653631 -0.591931 -0.0185176 0.0140665 -0.113133 -7.34862e-07 1.45881e-05 -4.42646e-05 
26.982 1 321 -2.30517 12.4607 4.66602 0.31732 -2.42253 -0.346794 0.140791 0.0602664 -0.0318427 -0.303347 -0.2373 -0.300946 -0.057094 -0.0465312 -0.0583985 -2.30631e-05 -1.19032e-05 -1.78203e-05 
26.982 1 125 2.07782 12.3335 0.580537 -2.50905 -1.16383 -1.28517 -0.166007 0.107183 0.461278 -0.132583 -0.0900735 -1.05748 -0.0203309 -0.0100449 -0.19112 8.48235e-06 -8.68456e-06 -5.94727e-05 
26.982 1 286 4.36916 10.611 4.5115 -3.12851 0.65929 2.61786 0.183781 -0.511457 0.137991 -0.000965895 0.0019219 -0.0521485 -0.00041093 0.000189104 -0.010198 2.22753e-06 -7.31645e-06 -5.61415e-06 
26.982 1 127 4.20956 12.3827 2.52547 -1.41128 0.806781 -3.59363 0.424091 0.190704 0.0222535 0.00991608 0.00716411 -0.494447 0.000472749 -0.0021058 -0.0917897 1.04222e-05 -2.9731e-07 -4.21095e-05 
26.982 1 326 4.50032 14.3807 4.60273 0.0918904 2.47535 0.156349 0.00238 -0.0590708 -0.263222 -0.0011352 0.000534543 -0.0528676 -0.000589662 0.000107505 -0.00935557 1.59451e-06 -3.06425e-07 -7.61583e-06 
26.982 1 329 6.6568 12.4925 4.70258 0.197359 7.08658 1.64108 0.389007 -0.0679375 -0.410534 0.00278936 -0.000673642 -0.0593958 0.000313223 -0.000126107 -0.0107627 5.17558e-06 -2.54614e-06 -7.37215e-06 
26.982 1 132 6.70708 14.3361 2.79196 2.59491 5.65966 3.39419 -0.156613 0.23391 -0.293677 0.0525328 0.00671177 -0.569346 0.0116133 -0.00409093 -0.097134 -4.07163e-06 8.51832e-07 -2.8154e-05 
26.982 1 129 6.52247 12.6005 0.727774 1.03767 -2.0453 -2.67261 0.145594 -0.661273 -0.116325 0.0723143 0.0303964 -0.990139 0.0102566 0.00639001 -0.185655 -6.65893e-06 1.23473e-06 -6.01892e-05 
26.982 1 90 9.05529 10.498 0.920972 1.88808 3.10815 0.739753 -0.74128 -0.41925 -0.6487 0.0639276 -0.0219644 -0.695878 0.0133653 -0.00367005 -0.143545 -4.67257e-06 -1.59333e-05 -6.28077e-05 
26.982 1 131 8.8905 12.4437 2.71268 -0.946321 1.5636 5.05447 0.102029 0.396209 0.21198 0.0720153 -0.0192809 -0.688909 0.012574 0.000800027 -0.12425 1.87624e-06 1.79239e-05 -2.19198e-05 
26.982 1 330 8.85995 14.5266 4.65647 2.55089 0.672533 -2.27666 0.621454 -0.647981 -0.0777537 0.00376058 0.000402787 -0.0738279 0.00125503 6.04998e-05 -0.01387 1.52758e-05 -9.58148e-06 -5.94739e-06 
26.982 1 333 11.2152 12.5496 4.63422 2.54233 2.29771 -0.259317 0.0839553 -0.00611667 -0.280592 0.00268792 -0.00287012 -0.087367 0.000601678 -0.000616055 -0.0159633 3.90233e-06 4.07987e-06 -6.8859e-06 
26.982 1 133 11.1089 12.1895 0.570849 -1.09337 1.44828 -2.13374 0.410066 0.486776 0.259558 0.0371586 -0.0390297 -0.672809 0.0120608 -0.00637689 -0.130217 3.20193e-06 2.17811e-05 -6.05985e-05 
26.982 1 136 11.289 14.358 2.38613 -2.62966 -4.42853 2.1586 -0.271643 -0.428084 0.530406 -0.0206782 -0.00778079 -0.719123 -0.00293618 0.000758233 -0.133461 1.91566e-06 1.3664e-05 -4.2525e-05 
26.982 1 135 13.5188 12.2942 2.40176 -0.273675 0.798909 -0.322568 -0.172495 0.287864 0.356484 0.0385154 -0.0748338 -0.780853 0.00308749 -0.0129694 -0.141328 -2.18063e-06 2.42865e-05 -2.01959e-05 
26.982 1 334 13.5 14.3313 4.27219 -0.492221 0.388438 -3.4126 0.314631 0.0645541 0.466523 -0.000161117 -0.0039212 -0.077626 0.000260513 -9.41104e-05 -0.0153247 7.89624e-06 1.86857e-06 7.20053e-07 
26.982 1 140 15.7478 14.6985 2.39547 3.10288 -2.0571 -5.14925 0.174456 -0.238057 0.193915 0.0817628 -0.122103 -0.733374 0.0128024 -0.00459713 -0.140202 -5.30239e-07 7.15414e-06 -4.56632e-05 
26.982 1 337 15.918 12.4635 4.39407 -1.97894 -1.63503 2.40007 -0.625754 -0.00729854 -0.0571784 0.00117088 -0.000953374 -0.101815 0.000322507 -0.000254121 -0.0178937 -1.14841e-05 3.70134e-06 -3.03168e-06 
26.982 1 298 17.9789 10.3948 4.63072 -6.4225 6.2225 0.295379 0.0933395 -0.342206 -0.253369 -0.00180045 0.00247649 -0.0959077 -0.000377249 0.000161235 -0.0186945 9.26029e-07 -4.83198e-06 -5.35731e-06 