ITEM: TIMESTEP
14000
ITEM: NUMBER OF ATOMS
4000
ITEM: BOX BOUNDS pp pp pp
-2.91958 43.4196
0.781597 39.7184
0.769584 39.7304
ITEM: ATOMS mass type id x y z vx vy vz fx fy fz xrad yrad zrad vxrad vyrad vzrad fxrad fyrad fzrad 
26.982 1 43 -0.559935 4.73704 2.65268 -0.0277411 0.734783 -1.99848 0.353 -0.20019 0.587731 -0.738951 -0.388093 -1.10525 -0.106213 -0.039031 -0.166524 -1.08379e-06 -1.02373e-05 -5.87306e-05 
26.982 1 202 -0.368242 2.83872 4.70429 -4.22462 -0.515726 1.64947 0.216655 -0.21358 -0.266289 -0.694208 -0.635049 -0.628742 -0.0982632 -0.092479 -0.092102 1.37196e-06 -1.89716e-05 -2.81139e-05 
26.982 1 961 -2.75621 16.2973 15.9254 -2.90632 4.67559 -3.21647 -0.199965 0.150327 0.250075 -0.677424 -0.418644 -0.482983 -0.0911728 -0.0585178 -0.0669447 -3.27684e-05 -2.2808e-05 -2.14569e-05 
26.982 1 3013 11.1622 20.3251 20.1549 -3.10656 2.38453 -2.5742 -0.220713 -0.146912 0.362703 -0.520406 -0.430761 -0.805162 -0.0792599 -0.063347 -0.129217 -1.35737e-05 1.82614e-05 -2.39506e-05 
26.982 1 2839 41.0839 20.1616 18.1433 -0.789378 -3.54245 -0.93845 0.313851 0.0845072 0.0352553 0.0408611 -0.283349 -1.06561 -0.0069861 -0.043644 -0.151997 -4.35018e-06 3.03218e-05 -3.76398e-05 
26.982 1 245 1.94673 4.90066 4.48255 2.70442 1.36167 -2.38363 -0.0370946 -0.696576 0.451203 -0.0531224 -0.115332 -0.159152 -0.00802745 -0.0163939 -0.0240985 -2.32072e-06 -1.00037e-05 -5.31127e-06 
26.982 1 8 2.0137 2.79723 2.65358 -1.70295 -4.04657 -0.871942 -0.145304 -0.12754 0.282368 0.209432 -1.08738 -1.12818 0.0212642 -0.15552 -0.165146 -1.09799e-05 -5.55468e-07 -3.96141e-05 
26.982 1 47 4.29669 4.67069 2.56364 4.32228 -4.29944 4.15102 -0.387087 -0.46313 0.578867 -0.0695202 -0.268578 -1.08685 -0.00118497 -0.0374367 -0.173217 -2.65824e-06 -2.28474e-06 -5.98561e-05 
26.982 1 206 4.36933 2.73197 4.62911 -3.44877 -3.38524 3.64188 -0.667732 0.10155 -0.217337 -0.0457241 -1.00112 -0.601872 -0.00173135 -0.135739 -0.0824036 -2.24066e-06 -2.04172e-05 -1.29639e-05 
26.982 1 998 41.1267 18.185 16.2196 -1.16285 -0.0921987 1.6285 0.206487 0.127573 0.180149 0.177514 0.183747 -0.333101 0.0192187 0.0373604 -0.0517896 1.428e-06 3.54738e-06 1.34687e-06 
26.982 1 114 36.7017 10.5266 0.742644 -0.766373 -2.67372 -1.15652 -0.220122 -0.105156 0.0743016 -0.0499626 0.0817795 -1.32239 -0.00144956 0.00165161 -0.189176 -5.67252e-06 -1.02185e-05 -5.72272e-05 
26.982 1 7 4.03015 0.631854 2.87396 1.21312 -1.71769 4.54179 -0.0815844 0.446971 -0.48776 -0.118009 -0.274313 -1.16302 -0.0115605 -0.0749005 -0.168801 2.11066e-05 -4.10687e-05 -2.32627e-05 
26.982 1 249 6.48074 4.56203 4.56218 -0.028829 5.91501 2.02174 -0.0055368 0.275196 0.101089 -0.00833965 -0.106199 -0.127165 -0.000613755 -0.0165026 -0.0222676 4.68268e-07 -7.67125e-07 -9.25001e-06 
26.982 1 12 6.62163 2.69277 2.60996 -0.0249424 1.60241 2.02017 -0.141841 -0.593686 0.250622 -0.205588 -1.26818 -0.966147 -0.0211403 -0.17629 -0.159663 6.8855e-06 -3.47211e-05 -5.00334e-05 
26.982 1 51 8.95195 4.64861 2.75568 4.87216 0.745631 0.88281 -0.174547 -0.989773 -0.0563204 0.00973849 -0.0991529 -0.888507 -0.000210919 -0.0119423 -0.153903 -6.69115e-06 -1.29069e-05 -6.63523e-05 
26.982 1 210 8.66019 2.59059 4.65441 1.62554 -3.24811 1.7474 0.43674 -0.308084 -0.414079 0.0628619 -0.935363 -0.49778 0.0105005 -0.140723 -0.0762252 9.50138e-06 -4.65341e-05 -3.08761e-05 
26.982 1 2835 36.3538 20.2326 18.0486 -4.88104 5.68212 -0.316135 0.0032635 -0.405711 -0.599976 -0.455375 -0.270417 -0.80153 -0.0728978 -0.0301488 -0.124421 1.10639e-05 2.94625e-05 -3.39324e-05 
26.982 1 2225 24.9826 20.3732 4.77377 -0.5596 1.50722 0.387323 -0.189204 -0.217378 -0.163273 -0.258607 -0.0814282 -0.965154 -0.0372889 -0.0291804 -0.139329 -1.75167e-05 1.29164e-05 -3.20258e-05 
26.982 1 253 10.9359 4.73612 4.67481 -1.86196 3.05658 1.29539 0.416424 -0.472112 -0.0740345 0.0078024 -0.124853 -0.130948 0.000153915 -0.0192819 -0.0216195 9.25408e-06 -1.38255e-05 -8.65332e-06 
26.982 1 16 11.3825 3.01018 2.5975 -0.397523 2.62044 4.15697 -0.347733 -0.107537 0.519484 0.192213 -1.27825 -0.956611 0.00664082 -0.183884 -0.138711 -2.41854e-06 -2.2203e-05 -2.92475e-05 
26.982 1 55 13.5973 4.90702 2.47631 1.17105 1.29358 -0.145321 -0.391768 -0.464286 0.618506 0.0283079 -0.258734 -1.14098 0.00282744 -0.0240243 -0.160366 -2.05369e-05 -1.55024e-06 -4.21548e-05 
26.982 1 214 13.5313 2.86074 4.5679 -0.155285 0.40281 -2.25756 -0.201053 0.477748 0.414505 0.0595204 -1.0456 -0.536347 0.00167277 -0.146672 -0.0721699 -1.73241e-05 -2.89316e-05 -2.10096e-05 
26.982 1 201 -2.54084 0.953108 4.8776 1.47306 -1.20992 2.18992 -0.565996 -0.122599 -0.296157 -0.429872 -0.762948 -0.953889 -0.0581563 -0.106369 -0.136176 -1.5849e-05 -3.31681e-05 -4.29079e-05 
26.982 1 999 41.2187 16.171 18.0808 0.0155142 5.18971 1.26435 -0.173653 0.390981 -0.0221227 0.321522 -0.0513359 -0.260249 0.0393751 -0.00890853 -0.0294154 5.76353e-06 5.44691e-06 -1.02812e-05 
26.982 1 20 15.6274 2.76565 2.78066 5.20232 6.43117 -4.61246 0.0726866 0.0844812 -0.389029 -0.266673 -1.27536 -0.947512 -0.00906001 -0.179108 -0.141398 5.79935e-07 -3.05912e-05 -3.82063e-05 
26.982 1 257 15.6996 4.85 4.75588 1.25615 2.44283 -0.668507 -0.321431 -0.189868 -0.38776 -0.00551385 -0.134553 -0.140642 0.000562951 -0.0191023 -0.0224922 -6.14866e-06 6.48842e-07 -1.00308e-05 
26.982 1 218 17.6742 2.81638 4.55454 -3.80397 -1.68869 0.80497 0.686218 -0.0629934 0.628584 -0.0664064 -0.996364 -0.428884 -0.00468902 -0.148017 -0.0742645 2.52726e-05 -3.39045e-05 -2.26402e-05 
26.982 1 59 18.0012 4.77784 2.89255 1.87697 0.317474 0.645342 -0.098779 0.274357 -0.664811 0.0431291 -0.0355055 -0.982003 0.010903 -0.0101282 -0.168493 6.11983e-06 -1.77629e-06 -5.80008e-05 
26.982 1 24 20.2253 2.72235 2.69043 2.52328 2.70055 -0.573221 -0.0111277 0.245621 -0.2977 0.106216 -1.05037 -0.852371 0.00500691 -0.15485 -0.152895 -1.21647e-05 -3.3215e-05 -4.46744e-05 
26.982 1 261 20.1587 4.60951 4.66206 -2.52809 0.611581 -0.22312 0.111314 0.297599 0.203072 0.00893245 -0.110816 -0.151354 0.00110771 -0.0176786 -0.026809 3.88789e-06 -3.14686e-06 -5.11283e-06 
26.982 1 63 22.4786 4.6694 2.69914 -0.8399 2.86573 -3.57089 0.107676 -0.377543 0.304114 0.0460282 -0.0384569 -1.21438 0.00481931 -0.00972856 -0.198006 8.02271e-06 -2.514e-05 -4.25287e-05 
26.982 1 222 22.365 2.71921 4.82501 0.393297 4.62519 -2.85784 0.19836 0.498654 -0.457234 -0.0275269 -0.926346 -0.485066 -0.00174052 -0.134409 -0.0717878 2.92124e-06 -1.71994e-05 -1.13785e-05 
26.982 1 28 24.8898 2.58915 2.80741 -5.04756 1.81969 0.820103 -0.184936 0.916796 -0.394806 -0.0840798 -0.870862 -1.05579 -0.00127333 -0.13473 -0.167417 5.89116e-06 -2.5751e-05 -4.16398e-05 
26.982 1 265 24.7946 4.71631 4.75794 -3.71581 0.238536 3.37006 -0.101046 0.153551 -0.778179 -0.00129236 -0.09924 -0.175599 -0.000192986 -0.0163838 -0.0295279 -1.7729e-06 -6.59534e-06 -1.50298e-05 
26.982 1 150 31.8357 14.289 0.607179 1.70174 -6.84694 1.91487 0.378278 0.913667 0.846554 -0.0997965 0.0757525 -1.16537 -0.0118686 0.00677638 -0.166815 -1.30932e-05 -2.30474e-06 -5.48634e-05 
26.982 1 23 22.5647 0.869811 2.89732 3.22691 0.0351948 -5.8113 -0.0939779 0.161192 -0.512436 0.0167914 -0.781985 -1.05105 -0.00193537 -0.13013 -0.164225 -1.22012e-07 -4.4593e-05 -2.80134e-05 
26.982 1 2811 8.63894 20.187 18.6726 1.43611 5.19863 0.0164197 0.0452162 0.143161 -0.239348 -0.270553 -0.222382 -0.808612 -0.0445084 -0.00617011 -0.125909 -1.1434e-05 2.78439e-05 -4.00271e-05 
26.982 1 67 27.0751 4.71649 2.86682 3.30245 1.54151 -0.736573 0.050956 -0.166073 -0.210302 0.0621767 0.000918267 -1.42943 0.00968965 -0.00218761 -0.224705 -3.33551e-07 -1.67637e-05 -4.41619e-05 
26.982 1 226 27.0169 2.55827 4.74209 2.93192 -4.42871 -0.473185 0.543392 0.66594 -0.6205 0.0134342 -0.763626 -0.351675 -0.000897789 -0.128676 -0.0685097 -5.97227e-06 -2.29118e-05 -2.87637e-05 
26.982 1 32 29.1335 2.51701 2.72899 8.1623 -4.47876 6.011 0.580601 0.899612 -0.0723206 0.0185668 -0.765192 -1.14846 0.00123506 -0.118939 -0.184611 6.19395e-06 -4.64151e-06 -4.07465e-05 
26.982 1 269 29.4915 4.74851 4.55653 1.11945 -0.871868 -4.81187 -0.0999019 -0.0604699 -0.118085 -0.00621996 -0.0905121 -0.193072 -0.000558713 -0.0156513 -0.0329971 -4.77242e-06 -5.61105e-06 -9.21044e-06 
26.982 1 2805 2.0128 20.1353 16.4409 -1.13112 3.6316 -6.17749 -0.311892 -0.107182 -0.0713465 -0.208012 -0.45789 -0.733399 -0.0322214 -0.0292354 -0.109404 -2.39786e-05 3.50812e-05 -2.50946e-05 
26.982 1 71 31.8516 4.82657 2.733 0.279918 -4.0832 0.226601 0.0537131 -0.329343 -0.803127 -0.134736 -0.0295563 -1.25841 -0.0180905 -0.0122376 -0.211203 -7.27541e-06 -2.97378e-05 -5.36991e-05 
26.982 1 230 31.9999 3.03996 4.60278 -0.942207 -1.40866 -2.81224 -0.365344 -0.783366 0.236072 -0.0642368 -0.798947 -0.413039 -0.00662532 -0.122322 -0.0693356 -7.77984e-06 -4.10725e-05 -2.33397e-05 
26.982 1 273 34.2271 4.68634 4.69869 0.725259 0.361593 -2.70131 0.220691 -0.102119 0.380593 -0.000871428 -0.074477 -0.14752 -0.000443778 -0.0136841 -0.0263283 7.33485e-06 -6.53439e-06 -5.53366e-06 
26.982 1 36 34.2694 2.83083 2.78364 2.54742 3.26335 -3.6438 -0.199116 -0.280044 -0.30532 -0.0901717 -0.870333 -1.08187 -0.0145192 -0.136292 -0.175942 -2.32744e-05 -3.23114e-05 -4.16893e-05 
26.982 1 35 36.2868 0.531552 2.71027 4.19322 -0.624275 -0.517124 0.184796 0.250395 -0.692824 0.0559927 -1.5886 -1.07743 0.00418685 -0.193151 -0.172792 -1.39478e-05 -5.75692e-05 -1.99724e-05 
26.982 1 75 36.666 4.34216 2.78209 -2.68959 -5.44653 2.03214 -0.261654 0.604801 -0.131862 0.124578 -0.0324876 -1.25753 0.000198457 -0.0049238 -0.185929 -1.4405e-05 1.98115e-05 -3.35291e-05 
26.982 1 234 36.5478 2.27054 4.64939 5.62317 -2.56897 0.669983 -0.0756802 0.625878 0.122933 0.0129387 -0.636305 -0.314984 -0.00267014 -0.106822 -0.0589621 -1.59677e-05 -1.27778e-05 -3.94383e-06 
26.982 1 40 38.7826 2.53854 2.75594 -4.30273 0.785911 -1.36885 0.15736 0.570808 0.489879 0.283543 -0.875428 -1.30608 0.0233993 -0.145803 -0.181935 1.63047e-05 -3.12739e-05 -2.88673e-05 
26.982 1 277 38.8351 4.66111 4.58382 -5.69632 0.010668 -4.07259 0.133327 -0.198477 -0.0149011 0.0106291 -0.0801849 -0.182483 0.00082235 -0.0125596 -0.0254892 5.52512e-07 -2.24789e-06 -4.59184e-06 
26.982 1 133 11.0173 12.4058 0.636787 -4.9363 4.0718 -0.134498 0.0334156 0.288991 0.378109 0.0632201 -0.0527735 -1.13998 0.00339717 -0.00265162 -0.179149 8.81369e-06 1.72259e-06 -5.85226e-05 
26.982 1 237 38.9722 0.596407 4.64323 -4.24812 2.1455 -3.39159 -0.235164 -0.270286 -0.0854486 0.142394 -1.05501 -0.786552 0.0122108 -0.154457 -0.121321 8.96755e-06 -4.98459e-05 -3.8456e-05 
26.982 1 4 -2.95453 2.46047 2.76258 -3.41476 3.59011 4.34748 0.0834846 0.699324 -0.342207 -0.814366 -0.827431 -0.953073 -0.125131 -0.112542 -0.132203 -2.36892e-05 -1.16729e-05 -4.97091e-05 
26.982 1 241 -2.64918 4.4521 4.6923 -6.24043 -3.03226 1.55729 -0.817387 0.122448 -0.406128 -0.582934 -0.577436 -0.656217 -0.0699582 -0.067891 -0.0821687 -3.39508e-05 -5.13923e-06 -2.44672e-05 
26.982 1 79 41.2686 4.74113 2.75594 -0.74922 -0.432929 -0.388887 0.121635 -0.241495 0.234268 -0.0674447 -0.157356 -1.36818 0.00144385 -0.0109233 -0.198279 1.38044e-05 9.2277e-06 -3.2453e-05 
26.982 1 238 41.0625 2.72668 4.61923 -5.40237 -6.14709 1.27177 0.443576 0.0615089 -0.123584 0.00928918 -0.857602 -0.538431 0.00410681 -0.12442 -0.0762221 1.35745e-05 -2.34141e-05 -2.4578e-05 
26.982 1 1000 38.9029 18.2723 18.4294 -0.96926 -0.0215816 9.96916 -0.177875 -0.026404 -0.827408 -0.188992 0.716412 0.10938 -0.0253919 0.0957413 0.013469 -6.1115e-06 1.25013e-05 -2.92282e-05 
26.982 1 997 38.73 16.4868 15.9837 1.74377 -1.02602 2.97188 0.424088 -0.109449 1.12755 0.00569097 0.00244185 -0.00943395 0.000672446 0.000166424 -0.00140325 7.41888e-06 -6.03328e-06 1.51485e-05 
26.982 1 38 41.2098 2.72571 0.826894 -0.263709 5.09585 -5.80256 0.180813 0.128779 -0.0315299 0.00831923 -0.505994 -1.02257 -0.00266794 -0.0827106 -0.163277 1.53779e-05 -2.93831e-05 -4.39151e-05 
26.982 1 83 -0.742543 9.03431 2.41916 -9.88189 -8.36513 -2.53763 0.392997 -0.253182 0.734123 -0.843544 -0.300292 -1.10967 -0.116913 -0.0518568 -0.175005 2.40808e-05 -1.02468e-05 -4.20622e-05 
26.982 1 242 -0.418472 6.77083 4.55956 -3.18387 -4.97925 -1.10973 -0.329427 -0.0372599 -0.477066 -0.860873 -0.0256528 -0.478475 -0.122946 -0.00912839 -0.068347 -8.90846e-06 5.03821e-07 -1.5665e-05 
26.982 1 44 -2.76743 6.59034 2.766 -0.157001 -2.84353 2.75509 -0.211253 -0.0454159 0.0984027 -0.225594 -0.76867 -1.12759 -0.0466791 -0.093994 -0.166304 -3.58915e-05 -1.80948e-05 -2.97809e-05 
26.982 1 637 38.7024 0.498314 12.3492 -0.148695 1.5511 2.7681 -0.195428 0.0426628 0.23256 -0.0210366 -0.735667 -0.621158 -0.00467062 -0.0973182 -0.0871447 -2.437e-06 -3.97871e-05 -4.20462e-05 
26.982 1 48 1.85892 6.60899 2.59458 3.53677 -3.03969 4.19471 0.217842 0.229442 -0.146903 -0.19213 -0.074549 -1.05136 -0.0273609 -0.00584226 -0.164829 -6.10839e-07 9.977e-06 -6.39447e-05 
26.982 1 285 1.71334 8.62381 4.47057 -0.157078 -3.01418 -3.75711 0.141841 -0.175985 0.0351634 -0.0785663 -0.0074308 -0.119417 -0.00942643 -0.00112797 -0.0195863 3.1896e-06 -3.91278e-06 -1.53712e-05 
26.982 1 87 4.41356 8.56408 2.57094 0.798761 0.768132 -1.50667 -0.508694 -0.328732 0.211565 -0.00770116 -0.0154564 -0.937943 -0.00287991 0.000557253 -0.151618 -1.66436e-05 -2.22348e-06 -5.9997e-05 
26.982 1 246 4.27115 6.59123 4.65193 -6.33574 4.68246 0.312358 -0.191404 0.48713 -0.1649 -0.00220368 -0.00611029 -0.105836 -0.000451877 -0.000778057 -0.0182451 -7.51402e-06 8.87823e-06 -7.27352e-06 
26.982 1 88 1.73948 10.7203 2.74012 0.0319081 -2.54776 -2.11202 -0.165489 -0.311408 -0.102232 -0.210645 -0.0493314 -0.9812 -0.0189039 -0.00470597 -0.153194 1.77881e-06 -7.96653e-06 -6.18565e-05 
26.982 1 286 3.94827 10.5181 4.38068 0.977533 0.392004 -3.17802 0.208962 -0.110572 0.539138 -0.00232683 0.00274017 -0.0928466 -0.000465867 0.000224172 -0.0171893 4.10928e-06 -5.52096e-06 -1.71871e-06 
26.982 1 157 38.8027 12.3005 0.909616 0.228046 -1.24721 2.96927 -0.174967 0.654076 -0.334334 0.0325438 0.0526847 -1.02476 0.0015014 0.00940158 -0.146516 -3.01864e-06 8.45748e-06 -6.27991e-05 
26.982 1 289 6.49779 8.58476 4.48486 2.9727 3.5546 0.736337 -0.0597173 -0.0744389 0.885815 0.00609203 0.00105643 -0.108434 0.000800686 0.000149699 -0.0174869 -3.71038e-06 1.00402e-06 5.9926e-06 
26.982 1 52 6.44051 6.60616 2.77309 0.561683 -5.80737 -6.00786 0.169444 0.0321491 -0.24066 0.0108343 0.00247254 -0.938836 0.00364869 -0.00753689 -0.15516 6.18411e-06 -5.91805e-06 -6.52325e-05 
26.982 1 91 8.80353 8.73091 2.74572 -0.0446943 6.86944 -0.574724 0.0981073 -0.409729 0.0822157 0.111202 0.0801586 -1.14743 0.0120405 0.00260451 -0.173663 -9.28364e-06 -2.24246e-05 -2.91375e-05 
26.982 1 250 8.71788 6.50636 4.49124 -1.63317 -2.20636 3.02294 -0.0332421 0.761286 0.47847 0.00651755 0.00255865 -0.10437 0.000748889 -0.000330217 -0.0192039 -1.40576e-07 1.02599e-05 -5.15952e-06 
26.982 1 92 6.62351 10.447 2.72723 1.24094 5.10252 1.63279 -0.223462 0.420257 -0.329033 0.10128 -0.0196708 -0.98624 0.00783243 0.00243306 -0.154407 -1.41907e-05 -6.44868e-06 -3.25311e-05 
26.982 1 290 8.95522 10.6891 4.72762 2.2654 3.2332 2.22658 -0.473493 -0.232775 0.107298 0.0100147 0.0031372 -0.135614 0.000798472 -5.77251e-05 -0.020589 -7.9704e-06 -2.24633e-06 2.77718e-06 
26.982 1 625 24.765 0.85073 12.4329 -4.537 -2.06167 -2.2455 0.152755 0.274684 0.277218 -0.0697217 -0.965134 -0.689915 -0.00180799 -0.145854 -0.109767 4.5392e-06 -3.93528e-05 -1.79266e-05 
26.982 1 293 10.974 8.61909 4.74247 1.25793 -1.26708 2.0128 0.17457 -0.0424141 0.168841 0.00211432 0.0108051 -0.143836 0.000237416 0.000892638 -0.0212554 4.55877e-06 -2.91275e-06 1.25513e-06 
26.982 1 56 11.1056 6.63575 2.70274 -0.042368 6.48557 -1.39121 0.0410268 0.148366 0.139565 0.0441717 0.125552 -1.09613 -0.00202894 0.00947339 -0.168419 5.60949e-06 -9.3217e-06 -4.48793e-05 
26.982 1 95 13.4661 8.77047 2.88902 -0.887153 1.06443 2.21303 -0.0496959 -0.0561929 -0.0887778 -0.0326668 0.0909844 -1.27859 0.00236004 0.0114476 -0.184701 8.03435e-06 -4.67367e-06 -5.17167e-05 
26.982 1 254 13.2866 6.6504 4.67667 -2.26522 3.73476 -1.33107 0.0252111 0.212158 -0.0444348 0.00215656 0.000453791 -0.126767 0.000243894 -9.18723e-06 -0.0196255 -5.2914e-07 5.11816e-06 -7.91121e-06 
26.982 1 60 15.6632 6.72032 2.88939 -3.76125 -1.28717 0.263966 0.186833 0.373877 -0.228502 -0.0173769 0.06133 -1.11596 0.00370816 0.00929952 -0.17634 3.03386e-06 1.81329e-05 -4.46697e-05 
26.982 1 297 15.7137 8.88977 4.84872 2.98214 7.07312 -1.04779 -0.233084 -0.673652 -0.235965 0.00136597 0.0103691 -0.147826 0.000743265 0.00139153 -0.0236681 -5.41246e-06 -8.28734e-06 -8.37062e-06 
26.982 1 99 17.8468 8.62733 2.77102 -4.55505 1.02941 -2.37182 0.491048 -0.205548 -0.0814262 -0.0657756 0.107474 -1.17009 -0.0121109 0.0103217 -0.184346 2.35741e-07 -6.70549e-06 -5.56362e-05 
26.982 1 258 18.0563 6.7387 4.77303 1.64776 -1.74564 -1.81641 -0.0896458 0.0428837 -0.474387 0.00233959 0.00348783 -0.123557 0.000354543 -0.00022245 -0.0214359 -7.84838e-07 1.85917e-06 -1.17905e-05 
26.982 1 298 18.0457 10.4698 4.70307 -3.17572 -2.45476 -1.53069 0.115013 0.467044 0.10495 -0.002854 0.00227821 -0.161396 -0.000730664 -0.000339225 -0.0245943 -1.8046e-07 9.4071e-06 -2.03211e-06 
26.982 1 205 1.59269 0.795835 4.68794 -1.52279 1.18406 1.11421 0.620424 0.162391 -0.0509379 0.0557488 -0.869544 -0.733432 0.00587004 -0.13371 -0.11139 -9.00869e-07 -3.45177e-05 -3.26801e-05 
26.982 1 64 20.2666 6.64313 2.68627 -5.6668 0.0540994 2.04123 -0.170965 0.176654 -0.0975275 0.0754819 -0.0718365 -1.13693 0.00730744 -0.0203743 -0.183815 -1.75662e-05 -1.10208e-05 -4.0059e-05 
26.982 1 301 20.2488 8.50149 4.69503 0.660999 4.12295 0.40373 -0.144312 0.375198 0.00617079 0.00151984 0.00545606 -0.132239 -0.000294038 0.0002841 -0.0205642 -3.83279e-06 4.06845e-06 -2.05252e-06 
26.982 1 104 20.2473 10.6831 2.73221 -7.00763 1.82285 0.711074 -0.163321 -0.69721 -0.296484 0.018176 0.115838 -1.29831 -0.00640977 0.0147429 -0.184398 -1.54562e-05 -1.29047e-05 -2.3002e-05 
26.982 1 103 22.4019 8.78017 2.8184 4.87801 -1.14012 -3.94213 0.295923 -0.133432 -0.360914 0.0503446 0.0451558 -1.24693 0.00763739 -0.00642205 -0.179034 4.03096e-06 -1.05245e-06 -1.52083e-05 
26.982 1 262 22.5662 6.69529 4.47607 -0.442862 0.226831 7.47757 -0.170799 -0.0864582 0.537386 0.00360072 -0.00647174 -0.148332 0.0002532 -0.00218145 -0.0242964 -3.85488e-06 -4.34412e-06 3.82724e-06 
26.982 1 305 24.8692 8.68335 4.88197 -2.22975 -0.341222 -7.23062 -0.27652 -0.0199222 -0.232193 0.00271731 -3.18211e-05 -0.150043 0.00104485 -0.000561507 -0.0236167 -5.5784e-06 1.30574e-06 -2.08528e-06 
26.982 1 68 24.8794 6.87499 3.00634 -2.02991 4.05116 -4.05225 0.00682019 -0.528632 -0.213907 0.0611819 -0.0700725 -1.34612 0.00903888 -0.0168637 -0.210063 3.63984e-07 -2.2285e-05 -2.8534e-05 
26.982 1 102 22.9005 10.4955 0.703052 -3.20506 4.73662 1.18809 -0.27259 0.028129 0.165086 0.0417305 -0.0274589 -0.833247 0.00563093 -0.00887223 -0.16309 -2.36211e-06 -4.91496e-06 -6.12665e-05 
26.982 1 108 25.0018 10.4925 2.84589 7.07587 -2.91945 -0.274375 -0.262517 -0.0553309 -0.303942 -0.0917949 0.106279 -1.3243 0.00397253 0.00734951 -0.190312 -9.15686e-07 -1.12634e-06 -1.26459e-05 
26.982 1 107 27.2739 8.64272 2.701 2.95553 -2.53233 0.70981 0.231681 -0.104967 -0.21012 0.149324 -0.129103 -1.39158 0.0176461 -0.0124357 -0.215206 2.10491e-05 -3.37974e-06 -2.4941e-05 
26.982 1 266 27.1402 6.68963 4.65183 1.37293 0.667257 -3.21322 0.393071 0.0611005 0.398909 0.00359596 0.00046099 -0.179176 0.000353064 -0.000568218 -0.0287378 1.12997e-05 -1.52222e-06 4.74288e-06 
26.982 1 72 29.7275 6.65739 2.71501 2.18414 -3.13517 -4.91667 -0.468552 0.756329 0.30316 -0.0643631 0.0270572 -1.56015 -0.00728175 -0.00763967 -0.239612 -1.51543e-05 4.00571e-06 -4.01278e-05 
26.982 1 309 29.6099 8.67479 4.7846 1.127 -3.64128 -2.41003 -0.321341 -0.275959 -0.307836 -0.00469601 -0.00563754 -0.183647 -0.000583289 -0.00066823 -0.0284729 -9.27522e-06 -5.87476e-06 -9.46461e-06 
26.982 1 306 27.2061 10.4514 4.70775 4.668 -0.895297 -0.419595 0.219583 0.723056 -0.195436 0.00134779 -0.00474952 -0.145972 0.000655179 -0.000402956 -0.0250557 8.24908e-06 1.09085e-05 -4.91398e-06 
26.982 1 112 29.4938 10.74 2.77592 -1.31733 -0.497744 -2.77635 -0.209703 0.0250823 0.0221597 -0.0903229 -0.166013 -1.20058 -0.0123332 -0.0156328 -0.195004 -4.65674e-06 -3.48828e-07 -3.92659e-05 
26.982 1 2229 29.7172 20.3557 4.69061 1.60918 2.70369 2.85254 -0.387722 -0.389044 -0.097287 -0.187338 0.266683 -0.881609 -0.0327649 0.0374296 -0.129963 -1.4408e-05 7.47134e-06 -2.58718e-05 
26.982 1 111 31.789 8.87678 2.87439 1.56904 -2.19557 -0.282788 0.164209 -0.746789 -0.684024 -0.119327 -0.165958 -1.27411 -0.0143779 -0.0188088 -0.197127 -5.33392e-06 -1.12868e-05 -3.30626e-05 
26.982 1 270 31.9193 6.6384 4.64397 -2.50484 1.30847 -1.09075 0.0983298 0.1204 -0.132577 -0.00682678 0.00309704 -0.164422 -0.00100745 -0.000327926 -0.0269893 -5.03841e-07 2.01022e-06 -9.51495e-06 
26.982 1 76 34.1364 6.37036 2.72497 -2.79459 0.904452 0.252515 0.315214 0.759686 -0.509478 -0.00445368 0.0417835 -1.24119 -0.002835 -0.00351198 -0.197714 1.52649e-05 -2.63826e-06 -4.62291e-05 
26.982 1 313 34.1668 8.68867 4.43996 -1.37618 -1.3041 -0.29248 -0.157122 -0.056126 0.172846 -0.00337831 -0.00231623 -0.138559 -0.000342606 -0.000440086 -0.0223594 -1.40994e-06 -9.55339e-07 -4.16399e-06 
26.982 1 310 31.8233 10.6606 4.68834 -0.656397 -1.8354 3.66108 0.201584 0.4977 0.613121 -0.00338088 -0.00178386 -0.119781 -0.00101453 -0.000355922 -0.0210819 3.02437e-06 6.04807e-06 4.79823e-06 
26.982 1 615 13.2194 0.917025 14.4449 -1.33534 -1.37781 2.48631 0.0679173 -0.158993 0.0610344 -0.0182566 -0.0678965 -0.982389 0.00187285 -0.0598424 -0.11874 1.08386e-05 -5.92093e-05 4.62194e-06 
26.982 1 70 31.8426 6.82825 0.729707 3.07871 1.14183 -1.60783 0.00513058 0.0643716 0.691387 -0.227618 0.18746 -1.10644 -0.0206545 0.0101118 -0.141774 -4.63421e-06 -5.42609e-06 -5.69551e-05 
26.982 1 2233 34.2728 20.3194 4.57257 -4.63673 -2.15559 -0.59027 -0.510171 0.14152 0.0108973 -0.267518 -0.325802 -1.00619 -0.0413334 -0.0430815 -0.136046 -1.30176e-05 1.32666e-05 -2.12362e-05 
26.982 1 115 36.4044 8.545 2.83327 4.98203 2.32228 -0.723898 0.411297 0.0677898 -0.157117 -0.179925 -0.0526829 -1.07008 -0.017345 -0.0101744 -0.169401 1.17592e-05 -1.32166e-05 -3.44219e-05 
26.982 1 274 36.5269 6.49654 4.67531 0.0431497 -2.25378 -1.96294 -0.245819 -0.0585213 -0.145643 0.00215549 -0.00874464 -0.139302 4.89078e-05 -0.000990962 -0.0229365 -5.2803e-06 -2.59195e-06 -1.18593e-05 
26.982 1 80 38.7042 6.59165 2.75405 -2.69077 0.856562 7.88257 0.117387 0.182158 -0.344089 0.0227577 -0.293869 -1.14468 0.00634764 -0.0223961 -0.17537 5.37489e-08 1.49227e-05 -4.89396e-05 
26.982 1 317 38.5999 8.44144 4.81879 -2.20852 0.0934468 2.45701 0.620857 0.102095 -0.361893 0.00476426 -0.00580957 -0.0980032 0.000375697 -0.000634653 -0.0176021 1.19812e-05 9.95938e-07 -1.06717e-05 
26.982 1 120 38.8192 10.407 2.76722 -0.30398 -0.101691 1.18894 -0.190916 -0.574472 0.02336 0.117429 0.214855 -1.1072 0.00849824 0.021656 -0.168355 -2.1245e-06 -2.68768e-05 -2.14724e-05 
26.982 1 314 36.4933 10.7844 4.53375 -4.84308 -1.3627 -1.39327 -0.106314 -0.0987349 0.110749 -0.0026125 0.00565837 -0.130579 -0.000156202 0.000353626 -0.0202851 -7.85647e-07 -1.09082e-06 -4.41125e-06 
26.982 1 281 -2.84074 8.69399 4.52527 -4.31645 0.350378 -1.46193 -0.478355 -0.466521 0.0501648 -0.586246 -0.557037 -0.6539 -0.0840773 -0.0799789 -0.0966465 -2.70289e-05 -1.89266e-05 -1.14538e-05 
26.982 1 119 41.0707 8.41972 2.77272 -1.94036 -0.134609 -1.73947 0.101683 0.0302102 -0.375374 0.230873 0.0188711 -1.17297 0.0285479 -0.0124592 -0.183615 -5.60523e-06 -1.47527e-05 -3.53343e-05 
26.982 1 278 41.088 6.57144 4.75794 1.10682 -0.0905547 3.97023 -0.176659 -0.0399896 -0.216417 0.293686 -0.28827 -0.174936 0.0372723 -0.0353634 -0.0283954 7.68967e-06 -4.89512e-06 -1.17908e-05 
26.982 1 318 40.9286 10.4697 4.6564 1.82186 0.292517 -5.59462 0.418134 0.0189996 0.0356654 0.306727 -0.263315 -0.184428 0.0432585 -0.0383131 -0.0263963 1.99971e-05 -9.94775e-06 -2.27157e-06 
26.982 1 118 40.9568 10.4757 0.714098 -1.62023 -6.94099 -6.0141 0.431878 -0.171898 0.0953259 0.241192 -0.0192268 -0.89012 0.0333932 -0.00447629 -0.1676 5.08858e-06 -2.90211e-05 -5.85971e-05 
26.982 1 282 -0.839577 10.4096 4.83636 0.316794 0.469107 -0.985945 0.530913 -0.0882593 -0.360479 -0.747491 0.0027168 -0.344986 -0.102237 -0.00255111 -0.0512771 4.09564e-06 -1.2677e-06 -9.38485e-06 
26.982 1 123 -0.572562 12.2257 2.79433 -4.7864 -2.47398 -4.25747 -0.200674 0.283422 0.014979 -0.848056 -0.227649 -1.11559 -0.10988 -0.0246977 -0.170315 2.28096e-06 8.09229e-06 -5.12451e-05 
26.982 1 322 -0.72532 14.426 4.59852 -1.70776 -1.31228 2.99454 0.134301 0.198369 -0.418686 -0.524171 -0.19559 -0.280461 -0.0713754 -0.02377 -0.0437466 -2.68811e-05 1.53085e-05 -2.66277e-05 
26.982 1 325 1.70975 12.4766 4.72775 -1.85642 0.821765 0.390859 0.0722638 -0.0542998 -0.432035 -0.072701 -0.00729474 -0.106484 -0.00852894 -0.00102711 -0.0181578 2.50288e-06 -1.84961e-06 -1.14032e-05 
26.982 1 128 1.48955 14.5089 2.88493 6.49117 -3.06045 5.05043 0.243723 -0.265437 -0.363649 -0.148113 0.111812 -1.00021 -0.0211766 0.0130061 -0.160336 -5.0832e-06 -5.61967e-06 -5.40529e-05 
26.982 1 127 4.14593 12.4785 2.5652 -4.59504 0.0983241 1.77788 0.224414 0.206649 0.569782 0.0172033 -0.00539209 -0.846641 0.00271226 -0.0052125 -0.143816 -1.49428e-05 -1.47151e-05 -3.34062e-05 
26.982 1 326 3.95611 14.4321 4.45845 1.26011 5.34106 -4.02532 0.158045 0.0535041 0.164495 -0.00241527 0.000206675 -0.0905042 -0.000200808 -0.000268723 -0.0158727 7.58973e-06 4.11222e-06 -4.80374e-06 
26.982 1 813 10.9825 0.724247 16.5637 -1.5865 0.744098 -3.89487 0.294104 0.0322798 -0.725335 0.00642095 -0.639308 -0.603345 0.000361276 -0.0779445 -0.0715898 5.31868e-06 -3.77294e-05 -2.99419e-05 
26.982 1 611 8.73107 0.736129 14.3488 -4.84028 -6.46466 2.42587 0.148167 0.425482 0.351551 0.102481 0.0416964 -0.994522 0.00707107 -0.0133504 -0.141155 -8.35547e-06 -5.85634e-05 -1.46518e-05 
26.982 1 329 6.29171 12.251 4.65506 0.964416 4.96745 5.14623 0.337336 0.301785 -0.0882021 0.00283365 -0.000992153 -0.102254 -0.000158014 -5.73573e-05 -0.0178061 7.24929e-06 5.37587e-06 -2.67928e-06 
26.982 1 132 6.55163 14.3219 2.83836 -0.672255 0.494791 -0.946479 -0.326469 0.196387 -0.08399 0.0878395 -0.00713789 -0.937231 0.0122303 -0.00484812 -0.148921 4.49923e-06 6.43042e-06 -1.68286e-05 
26.982 1 131 8.95635 12.4718 2.67153 -0.0139003 -1.55085 0.824764 -0.150141 -0.317748 0.300154 0.101129 -0.0151004 -1.13032 0.0072991 0.000775497 -0.173096 -5.66914e-06 1.59676e-05 -2.0968e-05 
26.982 1 330 8.7343 14.201 4.75762 1.09583 -3.74183 3.51082 -0.0373774 0.276412 0.340414 0.00652671 0.00067806 -0.124262 0.000666698 9.09925e-05 -0.0199648 -2.0109e-06 5.87359e-06 4.09563e-06 
26.982 1 66 27.25 6.53345 0.668771 2.57372 -2.09016 -4.00943 0.184658 -0.129103 0.6583 0.00570503 0.075346 -0.790196 -0.00605648 0.00126451 -0.102879 1.18128e-05 -1.5726e-05 -5.03474e-05 
26.982 1 62 22.5236 6.73791 0.939856 3.36727 5.09857 4.3459 -0.0133691 0.345721 -0.0340042 0.0394151 0.092849 -1.04284 0.0072089 0.00325959 -0.143768 3.79013e-06 -2.06333e-05 -6.11979e-05 
26.982 1 294 13.2994 10.5135 4.9018 -4.34471 0.395712 -2.65032 0.125999 -0.0965504 0.152939 0.00105466 0.00778536 -0.157658 0.000107475 0.000249252 -0.0227181 3.11336e-06 -3.24544e-06 -2.49771e-06 
26.982 1 96 11.1283 10.4789 2.71209 3.15682 5.60338 0.580605 0.119092 0.293903 -0.00766748 0.0438732 -0.0353072 -1.30082 0.00438744 -0.00448008 -0.182833 1.46751e-05 2.22499e-06 -2.3591e-05 
26.982 1 333 11.2103 12.2819 4.78934 -2.82176 1.15221 -0.521391 -0.242963 0.593397 -0.345754 0.00393695 -0.00465705 -0.142161 0.000179253 -0.000691365 -0.0208953 -4.31018e-06 1.05791e-05 -5.48438e-06 
26.982 1 136 11.0569 14.3553 2.67762 -1.78603 -3.54434 -3.03047 0.186362 -0.0572638 -0.0667701 -0.0344604 -0.00338716 -1.175 -0.00758662 0.00234436 -0.17211 -5.64004e-06 -2.98484e-06 -1.90902e-05 
26.982 1 135 13.4411 12.325 2.72983 -6.60163 -1.11075 -4.31686 -0.0973882 0.0933353 -0.104611 0.0488232 -0.113036 -1.25515 0.00302121 -0.0145545 -0.17595 8.01178e-06 -1.37904e-05 -4.34035e-05 
26.982 1 334 13.3858 14.2989 4.58541 0.0743806 2.58701 -3.0856 -0.282982 0.342665 0.215621 0.00099783 -0.0040377 -0.129973 0.000359518 4.37234e-06 -0.0196745 -3.17575e-06 5.16099e-06 -7.26321e-07 
26.982 1 134 13.3364 14.5272 0.72721 0.296027 2.50286 -1.80441 -0.148363 -0.332583 0.451979 -0.162421 -0.0881353 -1.47675 -0.0153464 -0.0137022 -0.213768 2.17107e-05 -2.83652e-06 -5.45165e-05 
26.982 1 100 15.8999 10.5312 2.76084 1.82818 -3.56098 2.78528 -0.712749 0.717148 0.21191 0.00921111 0.0508578 -1.35471 0.00396346 -0.00465348 -0.195449 -6.11712e-06 7.27397e-06 -6.03536e-05 
26.982 1 140 15.6293 14.1839 2.85449 -0.256534 -1.25957 -1.79872 0.133491 0.432134 -0.463019 0.118546 -0.136274 -1.20439 0.0110574 -0.0051406 -0.172265 5.33272e-06 5.52036e-06 -4.88106e-05 
26.982 1 337 15.5398 12.3431 4.8551 -1.33731 -5.96113 -1.59904 0.209501 -0.445034 0.313882 0.0026272 -0.00166296 -0.162448 0.000610214 -0.000637218 -0.0223141 5.20954e-06 -7.97858e-06 -6.37662e-07 
26.982 1 139 18.1277 12.6587 2.68082 2.26406 6.37852 1.74447 -0.11534 -0.11006 0.313334 -0.0221671 -0.000123692 -1.40872 0.00235994 -0.00845399 -0.195461 -1.8047e-05 -1.51607e-05 -2.4349e-05 
26.982 1 338 17.6663 14.2205 4.89039 -1.35935 1.21505 0.832409 0.531524 0.100672 -0.1085 -0.0049286 -0.0114487 -0.153008 -0.00046286 -0.00124184 -0.0214043 1.38286e-05 9.2893e-07 -8.53845e-06 
26.982 1 138 18.0582 14.3743 0.573552 -0.751236 -1.1778 -0.00448605 -0.0856334 0.649355 0.420926 -0.042313 0.00463294 -0.896745 -0.00284643 0.00107131 -0.162029 -2.51823e-05 3.00277e-06 -5.47793e-05 
26.982 1 341 20.3635 12.3843 4.68639 3.05989 1.7706 -9.19381 -0.799487 0.505585 -0.0976648 -0.00231229 -0.00609234 -0.159264 -0.000272986 -0.000690619 -0.0230765 -1.75193e-05 7.52356e-06 -2.63091e-06 
26.982 1 144 20.4484 14.3055 2.54727 0.645356 -3.68122 -3.22753 -0.140064 0.347163 0.297934 -0.174225 -0.0383006 -1.21673 -0.0206125 -0.0101928 -0.166839 -7.64621e-06 8.02439e-06 -3.83187e-06 