ITEM: TIMESTEP
8500
ITEM: NUMBER OF ATOMS
4000
ITEM: BOX BOUNDS pp pp pp
-1.80175 42.3018
0.490973 40.009
0.495656 40.0043
ITEM: ATOMS mass type id x y z vx vy vz fx fy fz xrad yrad zrad vxrad vyrad vzrad fxrad fyrad fzrad 
26.982 1 43 0.501094 4.57051 2.54688 -0.0596353 -4.05655 -3.03219 -0.13995 0.225224 0.0321761 -0.270814 -0.183924 -0.408556 -0.0662327 -0.0347508 -0.0940058 -2.80042e-05 1.18799e-05 -2.21409e-05 
26.982 1 202 0.492784 2.4405 4.46204 -2.89759 0.43735 1.32445 -0.191857 0.016384 0.125261 -0.254988 -0.251835 -0.229877 -0.0646933 -0.0510529 -0.0570214 -2.62392e-05 -2.26498e-05 -1.80452e-05 
26.982 1 4 -1.77003 2.58262 2.46188 -0.405664 -3.64862 -0.490777 0.0343067 -0.372533 0.0476332 -0.260102 -0.334173 -0.373392 -0.0646907 -0.0727031 -0.0816496 -3.82689e-05 -1.67726e-05 -9.57e-06 
26.982 1 2 0.421306 2.68386 0.529837 -1.71918 0.163019 -2.26389 -0.0296134 -0.497278 0.0514531 -0.184206 -0.249196 -0.473957 -0.0397045 -0.0620674 -0.115375 -1.77224e-05 -2.61629e-05 -4.57324e-05 
26.982 1 8 2.53509 2.57531 2.45938 0.649258 2.6396 2.00913 0.421285 -0.305333 -0.016256 0.103196 -0.409107 -0.395228 0.0199629 -0.0903066 -0.103752 7.03587e-07 -4.59551e-05 -2.49245e-05 
26.982 1 45 2.74354 4.49755 0.278065 -1.70609 -1.72605 -1.11244 -0.03567 0.441765 0.979575 -0.0218219 -0.0882969 -0.402987 0.000354847 -0.0137971 -0.0994523 -1.95164e-07 1.356e-05 -5.55341e-05 
26.982 1 205 2.56243 0.377862 4.54356 -2.80497 -0.483115 -0.818029 0.412246 0.827364 -0.644269 0.0287135 -0.246088 -0.213268 0.00539206 -0.0885961 -0.0741965 4.58782e-07 -2.98817e-05 -5.26776e-05 
26.982 1 245 2.60642 4.44043 4.43033 -0.581324 3.46542 2.16268 0.0182997 0.348073 -0.062786 -0.0186296 -0.0477865 -0.0570464 -0.0047228 -0.00870641 -0.0142085 -4.04666e-06 1.93306e-06 -5.0137e-06 
26.982 1 47 4.83845 4.44853 2.49653 10.4314 -3.05709 -0.799469 -0.0863153 0.516996 -0.0198416 -0.0448534 -0.119647 -0.360088 -0.00644185 -0.0209246 -0.100053 6.87348e-06 1.31352e-05 -3.13731e-05 
26.982 1 206 4.81131 2.50633 4.41938 1.6893 1.28449 -1.71418 0.0727406 -0.331348 -0.253008 -0.0303587 -0.411564 -0.232943 -0.00114232 -0.0829817 -0.0531739 1.5693e-06 -2.74455e-05 -2.01034e-05 
26.982 1 12 7.0529 2.577 2.40821 1.56312 -1.11792 5.29154 0.170223 0.0198276 0.173815 -0.0878697 -0.507141 -0.309678 -0.0238243 -0.101733 -0.0832326 7.03468e-06 -2.59307e-05 -3.70222e-05 
26.982 1 249 7.01868 4.39181 4.48727 -1.68846 1.11036 -2.62961 0.179636 0.255396 -0.0737696 -0.00377884 -0.0419278 -0.0393592 -0.00107029 -0.00831772 -0.0111973 5.40404e-06 3.57851e-07 -4.70379e-06 
26.982 1 6 4.90653 2.55893 0.697831 -0.388746 -2.26528 2.36684 -0.294347 -0.125879 -0.946358 -0.0881712 -0.238126 -0.383825 -0.0142786 -0.065112 -0.0896984 7.9784e-06 -3.43966e-05 -5.20981e-05 
26.982 1 209 6.96136 0.608464 4.27288 -1.94699 3.19695 -1.39282 0.17661 -0.186584 0.552984 -0.0247552 -0.362524 -0.335346 -0.00654926 -0.0929393 -0.0770246 6.29872e-06 -4.68919e-05 -3.16166e-05 
26.982 1 51 9.21534 4.75585 2.69123 -1.51367 0.426576 -0.485298 0.0242307 -0.498951 -0.238203 0.00617221 -0.0452683 -0.282943 0.00105492 -0.00910439 -0.0758105 -7.37254e-06 -1.19829e-05 -2.0003e-05 
26.982 1 210 9.29825 2.51366 4.3593 -0.722529 -3.56082 -2.86997 -0.0768244 0.111297 0.29214 0.00628231 -0.345831 -0.18304 0.00621925 -0.0752022 -0.0379124 1.22266e-05 -3.26484e-05 -9.90571e-06 
26.982 1 53 11.4678 4.4373 0.673336 -5.76464 5.93529 -0.115605 0.283229 0.179522 -0.102598 0.0621075 -0.0358094 -0.59468 0.00887488 -0.00243713 -0.128835 1.2232e-06 2.04539e-07 -5.65334e-05 
26.982 1 10 9.33252 2.61654 0.668856 0.570298 0.381004 3.37163 -0.0736123 -0.31867 0.254809 -0.00159329 -0.319869 -0.576635 0.000988965 -0.0662086 -0.137458 -1.49106e-05 -3.0766e-05 -4.60797e-05 
26.982 1 16 11.4515 2.28452 2.51523 1.12565 -1.15986 -0.342192 0.0774711 0.31647 -0.0662725 0.103728 -0.471897 -0.351972 0.0236055 -0.105992 -0.0868389 -1.56582e-05 -4.2644e-05 -7.39346e-06 
26.982 1 253 11.6812 4.67248 4.34491 -1.38016 -3.9543 1.09306 -0.789784 -0.426668 0.11711 0.0040395 -0.0440007 -0.0430255 0.00100257 -0.010468 -0.0114985 -1.46252e-05 -1.02737e-05 -2.66784e-07 
26.982 1 55 13.653 4.42071 2.50037 -0.286475 1.32228 2.19249 -0.252313 0.221862 -0.445586 0.00375414 -0.128416 -0.410822 0.00423814 -0.0256857 -0.105192 -8.25226e-06 2.78083e-06 -1.78387e-05 
26.982 1 214 13.5033 2.4912 4.48884 -3.01258 2.61363 0.518715 0.321929 -0.279083 -0.0806155 0.0514438 -0.404209 -0.20688 0.00471731 -0.088952 -0.0469918 -1.24013e-05 -2.79285e-05 -2.63876e-06 
26.982 1 257 15.6337 4.4888 4.38858 -1.7178 -1.5178 3.99292 0.59479 0.0459532 0.380007 -0.00432365 -0.0547139 -0.0440573 -0.000483121 -0.0114207 -0.0131289 1.07768e-05 3.95952e-07 7.49889e-06 
26.982 1 15 13.6473 0.381431 2.50899 1.43706 -4.20323 -4.1515 -0.147953 0.468879 0.200124 -0.0154039 -0.168675 -0.493941 -0.00883751 -0.0530389 -0.109101 -2.37176e-05 -5.83803e-05 -3.62946e-06 
26.982 1 17 15.6472 0.508645 0.481809 -0.0703142 -0.258004 1.22985 0.650369 -0.183253 0.109498 -0.057276 -0.170005 -0.310642 -0.00911173 -0.033441 -0.0781424 1.78638e-05 -4.47825e-05 -3.529e-05 
26.982 1 14 13.6683 2.40033 0.51399 -0.479513 -1.05472 -3.48531 -0.293783 0.449932 0.0170129 0.0259024 -0.301876 -0.279164 0.00926981 -0.0653226 -0.0761426 -1.9662e-05 -1.31316e-05 -5.91211e-05 
26.982 1 20 15.7656 2.49057 2.50509 2.15754 -1.25172 8.14441 0.185334 -0.15546 -0.138214 -0.157551 -0.506841 -0.313608 -0.0242487 -0.107776 -0.0909161 1.49367e-05 -2.1491e-05 -9.33429e-06 
26.982 1 218 18.0103 2.50521 4.38973 1.20541 1.24825 -3.52815 -0.13298 -0.00946843 -0.0465892 -0.0435448 -0.377866 -0.135207 -0.00715521 -0.0829677 -0.0370759 1.19325e-05 -3.37817e-05 -1.77617e-05 
26.982 1 59 18.0063 4.45824 2.45211 -3.07556 1.40651 -1.61775 -0.289714 -0.361938 -0.0679609 0.0171096 -0.00931756 -0.299298 0.00144613 -0.00454057 -0.0896954 -4.87487e-06 -1.20314e-05 -9.60282e-06 
26.982 1 24 20.2702 2.4325 2.44571 -3.03734 1.20565 -1.14015 -0.0030026 0.0867475 0.203154 0.043418 -0.378001 -0.247729 0.00633457 -0.0847199 -0.0748245 1.71998e-06 -6.06469e-05 -9.70361e-06 
26.982 1 261 20.2331 4.46992 4.26523 -5.51972 -1.37156 3.30048 -0.198805 -0.126315 0.730089 0.00270821 -0.0391964 -0.044878 0.000556255 -0.00884475 -0.0129125 -9.77117e-07 -6.91909e-06 6.42568e-06 
26.982 1 217 15.9004 0.525582 4.3733 1.6106 -1.47275 0.290713 -0.374593 -0.146352 0.056249 0.00404985 -0.144431 -0.124972 0.00210436 -0.0537334 -0.0450276 7.07786e-06 -4.53805e-05 -2.99957e-05 
26.982 1 57 15.7079 4.45522 0.591368 0.999508 -2.33569 -2.90933 0.134039 0.033223 -0.332494 -0.0774733 -0.070954 -0.585257 -0.0103837 -0.0144742 -0.111091 2.22477e-06 1.22673e-06 -6.42089e-05 
26.982 1 61 20.0382 4.37503 0.468679 2.50962 0.507648 -6.08282 0.324054 -0.13976 0.253456 0.0268748 0.0131907 -0.472867 0.00215317 0.00155986 -0.0977643 9.07994e-06 -7.14242e-07 -6.38512e-05 
26.982 1 18 17.9728 2.47702 0.436782 -1.80794 -0.332198 -2.3045 -0.233915 -0.2868 0.241534 -0.0325862 -0.262193 -0.638784 -0.00949928 -0.0585909 -0.127603 8.6169e-06 -3.43303e-05 -4.35547e-05 
26.982 1 63 22.4094 4.60499 2.70895 3.03759 -7.12955 -2.38196 0.0679533 -0.378834 -0.611237 0.0127622 -0.00219998 -0.388855 0.00591948 -0.00213422 -0.106405 1.2451e-05 -1.16105e-05 -2.63617e-05 
26.982 1 222 22.3925 2.46801 4.62755 0.993916 -0.0703137 -1.12907 -0.183947 -0.548205 -0.498262 -0.0303812 -0.323602 -0.160643 0.0010946 -0.07803 -0.0404939 -6.05439e-06 -5.01135e-05 -2.20073e-05 
26.982 1 22 22.5181 2.60322 0.678037 -0.569343 0.027154 0.708545 -0.118492 0.091438 -0.135317 0.0311193 -0.25862 -0.539688 0.0155121 -0.0651136 -0.120602 7.01319e-06 -1.79427e-05 -4.40429e-05 
26.982 1 28 24.6705 2.2467 2.69166 4.33473 2.75753 6.78377 -0.0795459 0.398537 -0.339244 -0.0512965 -0.28026 -0.346775 -0.0064381 -0.0739039 -0.0963436 8.19243e-06 -2.97724e-05 -1.78284e-05 
26.982 1 265 24.3885 4.28129 4.40642 0.321991 -0.79013 -2.08447 0.842135 0.635877 0.450958 -0.000605469 -0.029264 -0.0526247 -0.000146877 -0.00866984 -0.015684 1.3248e-05 2.42083e-06 -4.05335e-06 
26.982 1 67 26.7573 4.33235 2.62158 -1.33145 0.275659 5.37877 0.237591 0.273433 0.0973185 0.0172862 0.00671138 -0.459036 0.00371186 -0.00347288 -0.126441 3.60643e-06 1.7555e-06 -5.4618e-05 
26.982 1 226 26.8796 2.33495 4.58309 0.719457 -1.90585 -0.513313 -0.0206121 0.301661 -0.0514222 0.0266694 -0.238164 -0.0858541 -0.00312668 -0.0604711 -0.0275013 3.20137e-06 -3.64279e-05 -2.38388e-05 
26.982 1 32 28.8806 2.3694 2.41768 -3.91307 -1.47456 2.57174 0.59038 0.132372 0.340937 0.00642394 -0.290904 -0.358838 0.00430999 -0.0601864 -0.103551 -1.12491e-05 -1.33452e-05 -2.76865e-05 
26.982 1 25 24.5978 0.407678 0.747838 0.295571 3.93072 -1.52216 0.167329 0.203636 -0.204273 0.0146273 -0.245467 -0.256528 0.0063187 -0.0450605 -0.0592984 7.52318e-06 -3.13123e-05 -2.14399e-05 
26.982 1 29 29.0717 0.612272 0.292684 6.80012 -0.00562271 -2.80688 0.00815241 -0.28167 0.354658 -0.0160628 -0.363915 -0.443178 0.00276302 -0.0813276 -0.106215 -9.04209e-06 -1.52657e-05 -3.2132e-05 
26.982 1 269 29.1622 4.31594 4.52349 0.447439 0.240011 -0.316152 -0.37169 -0.211376 0.00180753 -0.0028496 -0.0300713 -0.0553276 -0.000352981 -0.00690133 -0.0165144 -7.82721e-06 -7.07168e-06 -8.61005e-06 
26.982 1 71 31.3517 4.24249 2.3899 0.649542 -4.75269 4.95237 -0.0814103 0.533638 0.263521 -0.040348 0.00367356 -0.362479 -0.0116956 -0.00222556 -0.110643 -9.92541e-06 2.8754e-06 -6.30412e-05 
26.982 1 230 31.167 2.33659 4.3062 1.00399 0.174216 -6.9343 0.0421726 -0.276412 0.369369 -0.0391026 -0.283377 -0.125938 -0.00150512 -0.0693742 -0.0381501 -2.66819e-06 -3.61658e-05 -4.0383e-06 
26.982 1 273 33.3323 4.17994 4.41314 0.899631 1.59874 -4.52063 0.537301 1.23816 -0.0897854 0.0016992 -0.0203397 -0.0426697 -0.000182209 -0.00678334 -0.0128222 1.31949e-05 9.99933e-06 -8.18257e-06 
26.982 1 31 31.1357 0.365916 2.33837 -1.80299 0.314449 -2.01704 0.303555 0.42358 0.577527 -0.085181 -0.454777 -0.333343 -0.0113271 -0.0833025 -0.0882705 1.54347e-05 -3.88783e-05 -1.16989e-05 
26.982 1 36 33.6275 2.55668 2.49001 3.15155 2.62695 -0.359255 -0.334148 -0.628651 -0.814807 -0.0256471 -0.281049 -0.3399 -0.00942675 -0.0758985 -0.0947459 4.19977e-06 -4.26004e-05 -5.42851e-05 
26.982 1 75 35.7854 4.41637 2.35195 0.917768 1.11429 0.849583 -0.302535 0.140201 0.749385 0.0872726 0.00245404 -0.455055 0.0126384 -0.00636151 -0.113195 -2.05346e-05 -1.72413e-05 -2.3111e-05 
26.982 1 234 35.6391 2.26868 4.33619 -6.65071 -1.46937 2.56339 0.0867401 1.1284 0.766674 0.0163631 -0.193594 -0.0805314 0.00148493 -0.0546477 -0.0251912 -1.15155e-05 -1.99721e-05 -1.47804e-05 
26.982 1 40 37.8573 2.5365 2.59446 -0.902041 2.30239 -4.13803 0.0961991 -0.106737 -0.243101 0.169534 -0.282604 -0.505402 0.0204823 -0.0686897 -0.112671 -1.76806e-05 -3.08188e-05 -3.56524e-05 
26.982 1 237 37.8499 0.434904 4.29566 5.01867 4.53086 -1.4589 0.191987 -0.681315 -0.239165 0.0819454 -0.387538 -0.278346 0.0114578 -0.0851487 -0.0600152 -1.23626e-05 -5.14592e-05 -4.00244e-05 
26.982 1 77 37.8112 4.53018 0.546754 0.394239 -0.22733 -6.16661 0.475515 -0.284516 -0.190635 -0.00809051 -0.0179323 -0.149926 -0.00146214 -0.00685808 -0.050397 3.8382e-06 -8.28842e-06 -6.52523e-05 
26.982 1 1 42.1978 0.501888 0.373454 -0.818174 -0.104533 5.47537 0.250213 -0.299564 0.956706 -0.157384 -0.198423 -0.503793 -0.031183 -0.0499105 -0.105748 1.20154e-05 -3.09871e-05 -2.92483e-05 
26.982 1 39 40.2883 0.421086 2.60999 0.114636 -2.70667 -1.0856 -0.520418 0.556331 -0.743871 -0.0709705 -0.1277 -0.459564 -0.0136368 -0.0585806 -0.0910773 3.72151e-06 -5.3908e-05 -9.86456e-06 
26.982 1 277 38 4.61357 4.45354 2.74703 0.95782 0.0192671 -0.274048 -0.26863 0.197462 0.00546805 -0.027503 -0.0699449 0.000825791 -0.00699366 -0.0164773 -6.93902e-06 -5.40098e-06 3.58448e-06 
26.982 1 241 42.2266 4.59422 4.37433 0.673691 -1.58496 -3.07769 0.349755 -0.353904 0.540659 -0.259285 -0.264312 -0.286597 -0.0494262 -0.0486628 -0.0557275 8.87496e-06 -7.24677e-06 7.12695e-07 
26.982 1 79 40.1421 4.54459 2.37821 0.12907 -0.458523 1.74264 -0.32233 0.309466 0.208596 -0.0596046 -0.10029 -0.502948 -0.00804341 -0.0104796 -0.118758 7.80951e-06 1.48767e-05 -3.35121e-05 
26.982 1 238 40.0972 2.57173 4.35836 0.148884 -0.644911 3.55901 0.171646 -0.115596 0.0919942 -0.0021263 -0.322615 -0.213593 -0.00189941 -0.0724929 -0.0437007 1.31416e-05 -1.53829e-05 -2.52591e-06 
26.982 1 38 39.9144 2.54133 0.639085 -5.17485 2.67619 0.351439 0.340357 -0.391107 -0.218284 0.0114178 -0.187075 -0.305324 0.00158518 -0.0366497 -0.0964533 4.99109e-07 -1.36117e-05 -5.93574e-05 
26.982 1 83 0.329399 8.26661 2.47543 -1.10092 3.86688 0.04016 0.210665 0.147393 0.0745826 -0.32508 -0.0942425 -0.385888 -0.0749735 -0.0267853 -0.0946107 -2.4815e-05 -1.22201e-05 -4.84749e-05 
26.982 1 242 0.468749 6.41563 4.77912 -2.15021 -1.35252 0.0689423 -0.525061 -0.338149 -0.882172 -0.332666 0.0209167 -0.184997 -0.0749946 -0.00420523 -0.0418713 -2.98756e-05 -1.60333e-05 -2.96275e-05 
26.982 1 285 2.53084 8.34199 4.50975 -0.906922 -2.81314 -0.370968 0.153018 0.677019 -0.420981 -0.035708 -0.00204295 -0.044062 -0.00635386 -0.000938402 -0.0098488 4.31154e-07 1.1763e-05 -1.0763e-05 
26.982 1 84 -1.97178 10.4328 2.61704 2.22014 2.45013 -2.46179 0.219747 -0.305169 -0.847587 -0.359619 -0.0939086 -0.515394 -0.0806389 -0.029576 -0.111664 -4.12279e-05 -2.15492e-05 -3.72462e-05 
26.982 1 85 2.49696 8.36419 0.34482 -1.72234 -1.79239 -3.15329 0.441496 0.225005 0.295793 -0.0102636 0.034084 -0.488663 -0.00342716 -0.00700948 -0.133754 -1.40739e-05 -4.51123e-06 -5.61519e-05 
26.982 1 281 -1.6677 8.35568 4.3912 0.805421 -4.54526 6.27352 -0.473079 -0.107436 0.253653 -0.180731 -0.179938 -0.208663 -0.0540324 -0.0522784 -0.0610422 -3.55017e-05 -3.37763e-05 -2.83846e-05 
26.982 1 282 0.39618 10.3346 4.45475 0.556531 1.54719 6.06317 0.0124906 -0.102428 -0.483234 -0.300027 -0.0102351 -0.130701 -0.0668398 0.00285404 -0.0305557 -2.68295e-06 -3.31785e-06 -1.46104e-05 
26.982 1 48 2.71261 6.50789 2.36999 0.657899 -4.69401 -5.58766 -0.343234 -0.276439 0.054603 -0.0876303 -0.0240475 -0.370488 -0.0126419 -0.00936431 -0.0925046 -7.96275e-06 -3.96901e-06 -3.01885e-05 
26.982 1 87 4.82594 8.41022 2.36139 -1.53898 4.99799 -3.98817 -0.0604406 0.107844 0.094347 -0.00581137 0.0131712 -0.326938 0.000896022 -0.0073363 -0.0810528 -2.34818e-06 -1.1587e-05 -2.50827e-05 
26.982 1 246 4.66248 6.48586 4.4456 -0.144837 4.56372 -2.40551 0.353321 -0.038714 -0.267635 -0.00110387 -0.00160936 -0.031542 -0.000156036 -0.000476392 -0.0101006 5.63312e-06 -7.13754e-07 -8.99634e-06 
26.982 1 289 7.02571 8.50387 4.52798 1.06392 -5.79876 3.62649 -0.0924755 -0.524143 -0.552648 0.00249718 0.00103774 -0.0386958 0.000415275 -8.53741e-05 -0.00937243 -1.64177e-06 -9.41501e-06 -1.07207e-05 
26.982 1 88 2.59671 10.361 2.49958 -0.207623 0.562001 2.26901 0.0694423 -0.406816 0.0537681 -0.0986056 -0.0316706 -0.373694 -0.0194046 -0.00427624 -0.0791392 -1.11952e-05 -8.89837e-06 -1.86885e-05 
26.982 1 86 4.88839 10.401 0.451924 -6.2681 -1.2851 -4.86771 -0.00959526 -0.230654 0.302231 -0.00736523 -0.0380914 -0.596988 0.00141713 -0.00421626 -0.147736 4.03432e-07 -6.79037e-06 -5.90437e-05 
26.982 1 89 7.03387 8.28763 0.381703 -2.78665 -1.1055 -4.62869 -0.197703 8.68788e-05 0.349921 0.0137428 0.0661306 -0.486632 0.00311884 0.00133458 -0.125323 -9.29906e-07 -3.8564e-07 -5.73449e-05 
26.982 1 52 6.87765 6.44228 2.54783 -2.98795 -0.993671 2.2632 0.244656 0.066505 -0.152576 0.0135794 0.0241577 -0.305651 -0.00363604 -0.000197583 -0.0829742 -4.49891e-06 -1.02582e-05 -3.34334e-05 
26.982 1 91 9.14537 8.44801 2.32986 -1.43519 -1.18462 -1.40125 -0.0492717 -0.410604 0.366071 0.0445948 0.049563 -0.423593 0.00935384 0.0099717 -0.0979412 1.08664e-05 1.14289e-05 -3.8265e-05 
26.982 1 250 9.1599 6.70929 4.53789 -5.86901 1.90367 0.248151 -0.00087779 -0.195491 -0.506568 0.00235817 0.00208862 -0.0315059 0.000282377 0.000395769 -0.00863962 6.87819e-07 -5.76771e-06 -8.13422e-06 
26.982 1 293 11.4444 8.50895 4.54285 -2.48429 -4.0932 4.54276 0.0628532 0.127796 -0.319292 -0.000429423 0.00466748 -0.0517497 0.000224411 0.00108957 -0.0125787 4.86897e-07 2.85154e-06 -1.05546e-05 
26.982 1 290 9.22861 10.2103 4.45198 -1.63806 0.0702016 4.47099 0.063819 0.0359787 0.184776 0.00354291 0.00184894 -0.0504486 0.0009593 0.000533154 -0.0119981 3.05341e-06 -4.58202e-07 -4.40547e-06 
26.982 1 96 11.4157 10.4073 2.43958 -3.4257 -0.21428 -0.886809 0.294437 -0.222143 -0.113416 0.0070429 -0.0177434 -0.486926 0.00428061 -0.000220031 -0.116538 6.68914e-06 -1.73493e-05 -4.26917e-05 
26.982 1 50 9.20345 6.3277 0.345294 -1.2672 4.61979 1.1359 0.11513 0.325417 0.454957 0.0423362 0.0236936 -0.606093 0.00675773 -0.00345689 -0.137423 -3.98677e-06 4.80654e-07 -5.85421e-05 
26.982 1 56 11.2809 6.60323 2.43512 -3.13265 4.35231 4.00667 0.464361 -0.0859587 0.166249 0.0228735 0.0650673 -0.38232 0.0058736 0.0103654 -0.0940244 8.1211e-06 1.85454e-05 -2.76815e-05 
26.982 1 95 13.767 8.56921 2.53104 -7.41743 2.19598 3.05301 -0.381501 -0.254247 -0.337027 -0.0334709 0.0344521 -0.453576 -0.000514944 0.00894368 -0.11394 -1.95247e-05 1.22217e-05 -3.3291e-05 
26.982 1 254 13.573 6.57422 4.39882 -1.03641 -2.72274 -0.597688 0.171725 -0.0282272 0.0582821 0.000799189 -1.71541e-07 -0.0413894 0.00028103 3.62191e-05 -0.0112546 1.39659e-06 1.31964e-06 -6.17651e-07 
26.982 1 60 15.6904 6.49242 2.50856 -3.01223 1.66806 -1.31682 0.115658 -0.0965442 -0.219479 -0.0157637 0.0279306 -0.358456 -0.00148169 0.00524934 -0.101949 -2.70383e-07 -8.78227e-07 -1.12031e-05 
26.982 1 97 15.6674 8.4915 0.411362 -0.984139 -2.894 0.452898 0.766743 -0.62246 0.230205 -0.032894 0.107172 -0.47555 -0.00968638 0.0168908 -0.0878592 -6.52491e-06 1.09717e-05 -6.47846e-05 
26.982 1 54 13.6385 6.66609 0.474895 -2.401 2.42663 -1.3199 -0.604787 -0.56413 0.31267 -0.0555207 0.0863697 -0.506713 -0.00421916 0.0190086 -0.113692 -2.21144e-05 4.5346e-06 -5.78953e-05 
26.982 1 297 16.0162 8.38189 4.42491 -1.28669 0.929019 -2.19472 -0.272458 -0.0652077 -0.0984237 0.000325158 0.0043116 -0.0476945 -3.56231e-05 0.000848476 -0.0132532 -2.43624e-06 -6.12575e-07 -8.50936e-07 
26.982 1 99 18.0172 8.3527 2.3793 -3.01578 -1.44383 -2.58616 0.389915 0.867463 0.174945 -0.0214031 0.0555907 -0.391248 -0.0102185 0.00592013 -0.0991848 1.89823e-05 1.41123e-05 -1.81765e-05 
26.982 1 258 18.0107 6.43338 4.27357 -0.449524 -0.27636 -0.526208 -0.00894755 -0.0505144 0.631769 0.000689079 0.00251746 -0.0362798 8.14987e-07 5.77105e-05 -0.0109477 5.50982e-08 8.43717e-07 1.32902e-05 
26.982 1 58 17.8437 6.50668 0.673973 3.04784 2.51495 -1.19659 0.0845581 -0.562611 -0.900919 0.0221116 0.0291878 -0.560536 0.00072816 0.00265023 -0.116458 1.20563e-05 4.05002e-06 -7.07493e-05 
26.982 1 64 20.1786 6.31789 2.39408 2.32501 0.235191 -1.2662 0.142934 0.309749 -0.0985506 0.0336223 -0.0190358 -0.369063 0.00615785 -0.00864442 -0.0966765 7.29499e-06 2.31937e-05 -2.75975e-05 
26.982 1 104 20.4764 10.4214 2.35021 0.947769 5.23772 3.03005 -0.260986 -0.148219 0.0960045 0.0216366 0.0529234 -0.473492 0.00314291 0.0126241 -0.108094 -4.91756e-06 -1.80152e-05 -1.94704e-05 
26.982 1 102 22.5003 10.351 0.455511 2.47702 -4.19026 5.65922 -0.0960108 0.064941 0.0447536 0.0184813 0.00552083 -0.227284 0.00321836 -0.00317497 -0.0732044 4.69223e-06 -8.07759e-07 -6.1666e-05 
26.982 1 301 20.3626 8.3366 4.22698 -1.70879 0.315645 -10.9365 -0.277499 0.418703 0.317451 0.00163627 0.00353226 -0.0425106 0.000274294 0.00046304 -0.0106904 -5.11649e-06 7.62432e-06 7.96505e-07 
26.982 1 103 22.6944 8.28406 2.38674 -0.630846 0.641637 0.7203 -0.483188 0.451251 0.239378 0.0225519 0.0436777 -0.446919 0.00924944 0.0031359 -0.107569 -1.70223e-05 7.04402e-06 -1.77467e-05 
26.982 1 262 22.4456 6.60477 4.61568 -2.19284 3.47401 0.559235 0.238149 -0.516137 -0.352477 0.00178499 0.000179683 -0.0467042 0.000595678 -0.000515599 -0.0127253 3.18241e-06 -1.59774e-06 -2.37259e-06 
26.982 1 68 24.6718 6.53391 2.57354 0.0875026 -1.57554 -0.542207 0.225379 -0.512943 0.0204582 0.0183994 -0.0075832 -0.448772 0.0037269 -0.00479277 -0.120185 1.69363e-05 -2.34159e-05 -2.99225e-05 
26.982 1 302 22.6284 10.4421 4.32197 -3.92712 -5.60707 -0.728653 -0.128256 -0.067567 0.0466257 -0.000589859 0.000684805 -0.0602527 -1.50346e-05 -0.000289793 -0.0134178 -3.05425e-06 -2.36653e-06 -3.35081e-06 
26.982 1 62 22.4532 6.26007 0.580303 -2.99833 2.56603 0.529652 0.108546 -0.212715 -0.434945 0.0112872 0.0518951 -0.410732 0.00404915 0.00549862 -0.0887851 3.09546e-06 -1.86785e-06 -6.49211e-05 
26.982 1 105 24.7961 8.20983 0.374101 3.57092 -0.680605 6.08269 -0.200433 0.165817 0.476133 -0.0141838 -0.0312615 -0.48672 0.0017752 -0.00312078 -0.0975853 2.22788e-05 -3.40333e-07 -6.26866e-05 
26.982 1 305 24.9197 8.54777 4.50931 -1.29996 -1.98717 2.80953 -0.618993 -0.27137 0.106413 -0.000285321 0.00122577 -0.049686 3.10019e-05 -4.97574e-05 -0.0134072 -9.27788e-06 -1.85658e-06 -8.31167e-07 
26.982 1 107 26.8644 8.42858 2.4677 -1.17975 7.56987 -3.57149 0.375644 -0.356535 -0.0540254 0.0648005 -0.0600489 -0.469442 0.00700157 -0.0097519 -0.117406 2.49866e-05 -7.43739e-06 -4.87854e-05 
26.982 1 266 26.681 6.37678 4.56753 -0.928557 4.2301 -3.43977 0.603495 0.0408601 -0.535505 0.00161752 0.00203386 -0.0566689 1.34274e-05 1.25359e-05 -0.015235 1.4207e-05 -1.94586e-06 -1.63283e-05 
26.982 1 306 27.0589 10.2648 4.55995 2.42243 -7.09932 0.914563 -0.179533 0.505842 -0.147138 -0.000348498 -0.00245361 -0.0425148 0.000110412 -0.000463806 -0.0122801 -2.42643e-06 7.85104e-06 -8.78326e-06 
26.982 1 72 29.1862 6.37611 2.70768 1.533 0.616842 2.07652 -0.507237 -0.0731689 -0.403562 -0.0361856 0.0457387 -0.514115 -0.00357516 -0.00191879 -0.131272 -1.13734e-05 -2.57876e-06 -5.84821e-05 
26.982 1 309 29.2628 8.51821 4.46671 2.2544 -1.53297 0.216671 -0.33473 -0.315628 0.0717636 -0.00203265 -0.00171482 -0.0613351 -0.000342027 -0.00043224 -0.014633 -7.55992e-06 -7.26531e-06 -7.71109e-06 
26.982 1 111 31.215 8.45363 2.38053 -0.965413 3.13401 11.6223 0.24026 -0.400386 0.30429 -0.0484703 -0.0594319 -0.423169 -0.00835917 -0.0162405 -0.105692 -7.41876e-07 -2.17884e-06 -5.95157e-05 
26.982 1 270 31.2783 6.35172 4.45584 2.91309 2.93752 0.715035 0.267659 0.119693 -0.0830828 -0.00172671 0.00302861 -0.0487702 -0.000649931 0.000236284 -0.0139979 2.90587e-06 2.8987e-06 -1.05919e-05 
26.982 1 313 33.5509 8.31179 4.57029 1.13286 -1.35575 -3.26697 -0.403529 0.472384 -0.592145 0.000335096 -5.21159e-05 -0.0460276 -0.000340286 -0.00021308 -0.011459 -1.0499e-05 5.85571e-06 -1.40634e-05 
26.982 1 76 33.387 6.30966 2.51469 -2.39334 1.67561 -3.40052 0.236203 -0.0593227 0.365603 0.0224431 0.0337789 -0.414573 -0.00198711 0.00159947 -0.106337 -9.32337e-06 1.87723e-06 -4.79973e-05 
26.982 1 310 31.3086 10.4679 4.43398 -1.07226 -0.943153 -5.67931 0.0795196 -0.169848 0.0177141 -0.000585708 -0.000567748 -0.0337468 -0.000181919 2.39058e-05 -0.0100824 2.10706e-06 -2.18505e-06 -1.0393e-05 
26.982 1 116 33.3793 10.1911 2.5964 2.2891 5.75615 -2.89918 0.237936 0.605785 -0.4285 0.0534728 0.0297328 -0.409906 0.00851449 0.00910082 -0.101128 2.29665e-06 9.53585e-06 -5.96466e-05 
26.982 1 115 35.669 8.24497 2.50738 0.837122 -1.45426 -1.92097 -0.0531836 0.713608 0.0907967 -0.0786555 -0.018844 -0.372247 -0.0146175 -0.00319667 -0.0903462 -1.67081e-05 2.37937e-05 -3.81421e-05 
26.982 1 274 35.7287 6.43216 4.45345 2.66157 4.11363 1.87377 -0.106351 -0.495366 0.0642526 0.00257611 -0.00349146 -0.0474666 0.000233375 -0.000843906 -0.0117018 -4.00766e-06 -1.35591e-05 -2.70171e-06 
26.982 1 317 37.8258 8.46602 4.43225 -3.08688 0.758386 0.982035 0.5034 -0.222 0.105862 0.00127226 -0.00211002 -0.0314645 0.000635337 -0.000446452 -0.00844174 1.19894e-05 -5.49943e-06 1.60214e-06 
26.982 1 314 35.7034 10.4162 4.2597 3.16907 1.77352 1.0318 -0.328556 0.0142567 0.0858849 -0.00105713 0.0023999 -0.0459492 -0.000290303 0.000594649 -0.0111442 -9.65911e-06 4.08425e-06 -1.09896e-05 
26.982 1 74 35.7378 6.49525 0.556767 0.903453 -2.99573 1.9078 0.170354 -0.228267 -0.337207 0.0532565 -0.0613723 -0.400156 0.00411611 -0.0131732 -0.0988032 -2.87307e-05 2.88582e-06 -6.69351e-05 
26.982 1 44 42.2458 6.38031 2.49653 2.10638 -1.95785 3.54259 0.155476 0.704982 -0.362786 -0.0181867 -0.318852 -0.405815 -0.0164932 -0.0694498 -0.0972291 1.91209e-05 -2.09455e-05 -4.79548e-05 
26.982 1 80 37.8612 6.51054 2.46965 -0.586722 -0.673398 2.3965 0.293516 -0.192652 0.00707908 -0.00755201 -0.145211 -0.409477 0.00309344 -0.0289788 -0.101151 1.39487e-05 -4.4657e-06 -1.5964e-05 
26.982 1 119 40.0088 8.31254 2.30467 -2.64819 2.38432 -0.245316 0.655292 0.375349 0.690588 0.0931524 0.0501809 -0.40848 0.022675 0.00368068 -0.105533 1.65001e-05 -1.09082e-05 -1.6079e-05 
26.982 1 278 40.094 6.53476 4.57166 -2.62572 0.158182 5.19608 -0.0632422 0.147038 -0.305275 0.124978 -0.125066 -0.0564429 0.0248647 -0.0242148 -0.0152608 -4.42009e-07 5.40182e-06 -7.07057e-06 
26.982 1 318 40.0302 10.5055 4.38683 1.62722 -5.06034 -2.12401 0.0363482 -0.797184 0.0170387 0.0993004 -0.0826466 -0.0710985 0.0280346 -0.0242687 -0.0164792 1.05356e-05 -2.31039e-05 -3.92652e-06 
26.982 1 118 40.0811 10.3544 0.27115 -0.435696 1.75425 7.91027 0.284334 0.367361 0.601268 0.106111 -0.0143049 -0.224864 0.0204298 -0.00526428 -0.0668959 -6.8793e-06 1.50369e-05 -5.2387e-05 
26.982 1 81 42.4186 8.4175 0.314728 -2.74022 -0.633352 -0.499526 -0.178449 0.0243886 0.327001 -0.177121 -0.115116 -0.365885 -0.0311085 -0.0243833 -0.0732041 1.14964e-05 -1.27617e-05 -4.95591e-05 
26.982 1 117 38.083 8.4111 0.462574 -1.28594 5.42385 5.04243 -0.776746 0.00797526 -0.202838 0.0368852 0.0280865 -0.80304 0.0122432 0.00228898 -0.177263 -1.25404e-05 1.02331e-07 -6.58953e-05 
26.982 1 121 -1.73151 12.1224 0.296165 0.910802 -7.47017 1.57256 -0.204673 0.0958087 0.0435431 -0.0777484 -0.0572089 -0.0909413 -0.0198026 -0.0164247 -0.0436538 -1.26188e-05 -7.07338e-06 -4.94445e-05 
26.982 1 123 0.398788 12.3424 2.40685 1.56744 -1.564 -1.94941 0.12784 -0.265542 0.0240046 -0.332132 -0.113276 -0.408617 -0.0783646 -0.021531 -0.0916444 4.98178e-07 -6.26111e-06 -4.13403e-05 
26.982 1 322 0.379487 14.2254 4.29185 2.05788 -3.44914 3.13461 0.00916228 0.26484 0.157264 -0.20062 -0.0809321 -0.102288 -0.0479592 -0.0171647 -0.0232042 -3.08321e-06 4.63685e-06 -5.56051e-06 
26.982 1 124 -1.79904 13.9937 2.27759 -1.34821 6.77532 -0.758082 0.141239 0.664831 0.159698 -0.453955 -0.176734 -0.405218 -0.113336 -0.037197 -0.0930607 -4.32175e-05 2.20034e-05 -3.45809e-05 
26.982 1 321 -1.83393 12.3255 4.44952 0.324546 1.41213 3.29101 -0.194966 0.39703 -0.00481225 -0.183593 -0.140095 -0.178968 -0.0408016 -0.0334496 -0.0417021 -3.15989e-05 -6.43945e-06 -1.39582e-05 
26.982 1 126 4.75572 14.1627 0.425219 1.17566 5.68561 -4.32542 0.195315 0.798407 -0.2345 0.0457345 0.00832856 -0.560944 0.00416959 0.00322493 -0.142244 -8.29534e-06 1.66312e-05 -6.66334e-05 
26.982 1 325 2.63472 12.3818 4.36405 -3.11441 -3.10233 -4.08817 0.0630805 -0.0981931 0.0109272 -0.030353 -0.00409849 -0.0368876 -0.00663946 -0.00040552 -0.00869053 2.96458e-06 -2.45268e-06 -9.82652e-07 
26.982 1 128 2.76725 14.4333 2.51013 -2.95902 -3.26272 -1.25855 -0.659502 -0.120028 -0.270609 -0.0445856 0.0317852 -0.341904 -0.0126809 0.0132508 -0.085228 -2.32309e-05 1.09884e-05 -3.56004e-05 
26.982 1 286 4.95252 10.2924 4.38242 2.34779 -3.91137 4.87898 -0.685666 0.485633 -0.207037 -0.000448356 0.00129244 -0.0314724 4.41403e-05 0.000162508 -0.00728396 -1.56378e-05 7.03184e-06 -4.67004e-06 
26.982 1 127 4.73292 12.4989 2.40874 -1.84656 2.40376 5.6664 0.415137 -0.698344 0.664523 0.0048297 0.00688296 -0.297974 0.00447841 0.00102311 -0.070142 4.99986e-06 -9.58901e-06 7.31344e-08 
26.982 1 326 4.91832 14.4851 4.44171 -0.326634 5.62867 -1.91192 -0.451555 -0.555857 -0.0148582 0.000172027 0.000344781 -0.0323473 -0.000328007 0.000132513 -0.00755311 -7.0827e-06 -1.25208e-05 1.63134e-06 
26.982 1 129 7.07532 12.341 0.649222 -0.544301 1.72266 0.618598 -0.426044 0.187972 -0.418794 0.0430146 0.0158372 -0.59978 0.0100707 0.00778356 -0.127123 1.17214e-05 -1.0812e-05 -6.37016e-05 
26.982 1 125 2.65632 12.2128 0.52664 -2.54195 0.190124 -1.88829 -0.263676 0.456465 -0.108416 -0.0766644 -0.0731715 -0.633989 -0.0188074 -0.00640828 -0.152149 -2.97074e-05 5.17953e-06 -6.18824e-05 
26.982 1 92 6.99524 10.4339 2.57175 0.384672 2.03444 0.95934 -0.214781 -0.298662 -0.283097 0.0456549 -0.0196704 -0.363305 0.0115237 0.00010393 -0.0861241 6.90861e-06 -6.50813e-06 -2.75754e-05 
26.982 1 329 7.01751 12.3251 4.54436 1.09398 -4.93733 1.03418 -0.0454709 -0.00391593 -0.18226 0.00159689 -0.000207525 -0.0350715 0.000416004 -0.000290764 -0.00898619 -1.72865e-06 8.54902e-07 -3.60667e-06 
26.982 1 132 7.10223 14.335 2.54081 -5.06744 2.85921 -0.635553 -0.236354 -0.118928 -0.0305231 0.0280343 0.0173253 -0.351194 0.00883989 -0.00407778 -0.0813024 -3.35652e-06 -2.31627e-06 -1.21037e-05 
26.982 1 131 9.21871 12.1454 2.54061 -2.81307 3.44783 0.548804 0.136234 0.728276 0.125269 0.0451907 -0.0111291 -0.408288 0.00953002 -0.0017894 -0.10269 4.67067e-06 -5.87069e-06 -2.71151e-05 
26.982 1 330 9.18882 14.1722 4.52203 4.46049 5.13946 -3.77392 0.396577 0.292206 -0.069553 0.00148583 0.000705808 -0.0440146 0.000709686 -8.76865e-05 -0.0110412 8.69396e-06 5.40108e-06 -2.11201e-06 
26.982 1 133 11.4653 12.3659 0.465718 0.00775389 1.38663 -1.36354 -0.0257015 0.200646 0.319816 0.0150217 -0.0166797 -0.396391 0.00417066 -0.00552134 -0.0860539 -1.52002e-06 -2.02401e-05 -6.13645e-05 
26.982 1 130 9.20472 14.2737 0.638023 -0.384087 4.94765 0.676737 0.228993 0.0570261 -0.255796 0.0419777 -0.075095 -0.448286 0.0128899 -0.0142731 -0.102519 1.35444e-05 4.7752e-06 -6.32082e-05 
26.982 1 137 16.0385 12.3195 0.240406 -0.773328 2.39971 1.52889 -0.439499 0.239243 0.60079 0.0334487 0.0215105 -0.246589 3.72209e-05 -0.00190919 -0.0790567 -2.00996e-05 -1.35628e-06 -5.87206e-05 
26.982 1 333 11.3779 12.2121 4.48824 -1.38289 2.72034 5.36702 0.578184 0.469404 -0.410907 0.00174413 -0.00116336 -0.051642 0.000213607 -0.000404226 -0.0129286 1.4467e-05 8.43711e-06 -9.30146e-06 
26.982 1 294 13.8551 10.3468 4.39328 6.89289 -0.709343 -5.95937 -0.200969 0.739781 0.0582969 0.000729295 0.00510993 -0.0554866 0.000181004 0.000694075 -0.0142675 -3.7162e-06 1.20234e-05 -6.75044e-06 