ITEM: TIMESTEP
3000
ITEM: NUMBER OF ATOMS
4000
ITEM: BOX BOUNDS pp pp pp
-0.683922 41.1839
0.14758 40.3524
0.133494 40.3665
ITEM: ATOMS mass type id x y z vx vy vz fx fy fz xrad yrad zrad vxrad vyrad vzrad fxrad fyrad fzrad 
26.982 1 3 1.33645 0.203295 2.25427 2.52414 2.0556 5.705 0.29905 -0.268914 -0.454496 -0.0287801 -0.0644594 -0.0167544 -0.0164209 -0.0396786 -0.0171513 -1.57735e-05 -6.29704e-05 -2.52177e-05 
26.982 1 8 3.5036 2.1028 2.24527 0.478707 -4.50038 0.104954 0.185528 -0.0500817 -0.463155 0.0119682 -0.0540753 -0.036136 0.00538617 -0.036074 -0.027394 2.35486e-05 -3.33463e-05 -3.83743e-05 
26.982 1 43 1.42472 4.3958 2.15279 3.09014 0.366072 0.859872 0.0236837 -0.418744 0.0657885 -0.0246148 -0.0256889 -0.0541836 -0.0192532 -0.016859 -0.0453355 -3.5469e-05 -1.03952e-05 -1.07292e-05 
26.982 1 202 1.47876 2.13316 4.00734 -0.234014 1.9761 -0.662438 -0.417161 0.351727 0.225652 -0.0253798 -0.0497596 -0.0305223 -0.01408 -0.0299464 -0.021444 -3.4127e-05 -2.59935e-06 -5.6531e-06 
26.982 1 241 41.1516 4.28452 3.94626 1.08635 0.113789 1.36098 0.306493 -0.356747 0.783598 -0.0485145 -0.0500248 -0.0500324 -0.0318311 -0.0325307 -0.0341454 3.31535e-06 -5.91308e-06 5.41391e-06 
26.982 1 201 41.0626 0.263582 4.26483 -0.482624 0.404613 -2.53354 0.370191 -0.373681 -0.923743 -0.0115133 -0.0279265 -0.0271215 -0.0137536 -0.0230684 -0.0290758 9.62559e-07 -4.21355e-05 -3.25535e-05 
26.982 1 245 3.48877 4.20523 4.13041 -0.316357 2.73941 -0.885282 0.283608 -0.26696 0.119054 -0.00140472 -0.00819874 -0.00719049 -0.00119611 -0.00540347 -0.0053122 1.59628e-06 -6.25609e-06 -1.495e-06 
26.982 1 47 5.74304 3.94459 2.23895 0.785811 -8.23784 0.385941 -0.14005 0.270761 -0.331574 -0.0126725 -0.0150923 -0.0364695 -0.00539529 -0.0103813 -0.027392 1.19556e-07 -1.95716e-05 -2.60786e-05 
26.982 1 206 5.55513 2.16912 4.22669 -3.4248 1.30671 0.702236 0.299163 -0.227596 0.0188648 -0.0183268 -0.0545334 -0.028041 -0.00894933 -0.0390653 -0.0192469 2.06153e-05 -3.22116e-05 -1.68737e-05 
26.982 1 815 13.9881 0.237995 18.1516 2.33235 -8.75494 2.31956 -0.200355 -0.502958 0.0846945 0.0168322 -0.0875605 -0.000476928 0.00841402 -0.0414044 -0.0128985 -2.96327e-06 -7.03429e-05 -1.6668e-06 
26.982 1 12 7.82349 2.05828 2.01542 2.4374 0.293924 -1.31957 -0.338656 -0.170868 0.319903 -0.00889881 -0.0627999 -0.0294629 -0.00591408 -0.0449056 -0.0231453 3.10731e-09 -6.21302e-05 -2.7263e-05 
26.982 1 249 7.85093 4.06456 4.10457 -0.46542 -1.87085 4.75335 -0.200481 -0.30868 0.343672 -0.000452308 -0.00372268 -0.00321876 -0.000257659 -0.00336842 -0.00299763 -2.64695e-06 -1.36142e-05 2.1903e-06 
26.982 1 2835 34.8909 20.3089 18.2711 -0.14385 3.61965 3.4112 -0.146855 -0.180563 0.061536 -0.00254586 -0.0101994 -0.037132 -0.00864701 -0.0187821 -0.0221814 -1.62311e-05 2.24203e-05 -1.50923e-05 
26.982 1 16 11.7535 2.18255 1.97442 0.292847 -0.410282 2.89709 0.46777 -0.379597 0.394196 0.0182237 -0.0703419 -0.0353081 0.00565355 -0.0408531 -0.0179513 7.11248e-06 -3.55283e-05 -5.55635e-05 
26.982 1 51 9.87807 4.0773 2.1466 -2.5697 0.208829 -0.127598 -0.219939 0.164786 0.291987 -0.000806178 0.00017904 -0.0241356 -0.0037119 0.000236852 -0.0191503 1.19746e-05 -1.64721e-05 -3.02766e-05 
26.982 1 2833 33.0059 20.161 16.1041 0.148495 0.31582 0.483618 -0.575024 0.458718 0.675927 -0.036299 -0.00356719 -0.0477377 -0.0239736 -0.0134464 -0.0290335 -1.799e-05 3.5588e-05 -3.14627e-05 
26.982 1 210 9.82704 1.9749 4.27775 3.9841 0.631121 0.118816 -0.0830448 0.527209 -0.451065 0.00561466 -0.0409261 -0.0259512 0.000434127 -0.0304638 -0.0175856 -1.5455e-05 -2.61088e-05 -2.68499e-05 
26.982 1 1161 -0.600856 16.3324 20.0686 -4.31978 4.58737 -1.89182 -0.104934 -0.577171 0.450011 -0.0154846 -0.0233305 -0.0215445 -0.0110067 -0.0158558 -0.0156183 -4.28522e-05 -2.80486e-05 6.33867e-06 
26.982 1 253 12.0644 3.92181 4.26432 1.76375 -0.265466 0.0503995 -0.69862 0.428288 -0.349853 0.000482732 -0.00533484 -0.00308382 0.000117353 -0.0031025 -0.00208311 -6.72587e-06 -2.02021e-06 -1.21213e-05 
26.982 1 20 16.0838 2.07224 1.92642 1.23899 0.483015 7.29176 -0.308115 0.333008 1.0335 -0.0303452 -0.0710672 -0.0261988 -0.0136815 -0.0414266 -0.0178374 -2.24026e-05 -3.7619e-05 -2.31311e-05 
26.982 1 55 13.8228 4.23868 1.99936 -1.89689 1.08356 2.74491 0.620914 -0.538778 0.446148 -0.000487466 -0.0248717 -0.0344342 -4.7042e-05 -0.0090945 -0.0237044 8.52245e-06 -1.11083e-05 -6.03551e-05 
26.982 1 2827 26.5995 20.2521 18.248 -1.13987 2.50769 1.70977 0.230728 0.363065 -0.239075 -0.0289542 -0.0110503 -0.0518508 -0.0251659 -0.0191926 -0.0317855 -2.33964e-05 3.43762e-05 -2.90462e-05 
26.982 1 214 14.0505 2.30055 4.08686 5.21344 -4.32225 1.58168 0.219559 -0.846133 -0.0408399 0.0105743 -0.0563861 -0.0285788 0.0043145 -0.0318784 -0.0151588 1.17527e-05 -4.2859e-05 -2.08232e-05 
26.982 1 257 16.1808 4.0083 4.17889 -2.35074 2.7131 -1.53355 0.0529292 0.267515 -0.0985159 -0.000907178 -0.00806468 -0.00261791 -0.000331916 -0.00409331 -0.00208637 7.89221e-07 -4.15641e-06 -9.18595e-06 
26.982 1 213 11.8039 0.163281 4.01724 -4.32788 -0.905836 -0.488293 0.738506 -0.0412424 0.485935 0.00132354 -0.0474658 -0.0471649 -0.00370077 -0.0314896 -0.0271834 9.83826e-06 -4.48217e-05 -4.2609e-05 
26.982 1 1000 36.9117 18.2869 18.2677 -2.62119 2.68433 -3.60397 0.20397 -0.188236 0.150067 -0.00137863 0.0432567 -0.0138158 -0.00966827 0.0266626 -0.00293688 8.82654e-07 6.67286e-07 2.08911e-06 
26.982 1 999 38.9591 16.2271 18.2193 -0.6195 1.35998 0.985714 0.559482 0.1414 0.152529 0.0129439 -0.000708391 -0.0108404 0.0118916 -0.000620096 -0.0104762 1.98871e-05 -1.75622e-06 -8.33626e-06 
26.982 1 2829 28.3785 20.2127 16.0592 2.95441 -0.966661 -0.966486 1.02455 0.373741 0.362632 0.00571916 0.053562 -0.0389709 -0.00209802 0.0194398 -0.0234782 1.37335e-05 2.15013e-05 -9.65632e-06 
26.982 1 218 18.2208 2.10319 4.19163 1.62702 0.159634 -0.487763 -0.0562917 0.0254328 -0.302109 -0.00607688 -0.0505663 -0.0117355 -0.000920084 -0.030825 -0.00844782 -1.70702e-05 -2.97942e-05 -2.25423e-05 
26.982 1 18 18.0435 2.15994 0.198021 -5.83319 1.14033 0.609914 0.709554 -0.0668046 -0.425105 -0.00754244 -0.0388303 -0.0888385 0.00208284 -0.0247559 -0.0593069 -5.2591e-06 -9.09936e-06 -5.04203e-05 
26.982 1 59 18.2589 4.09123 2.12039 -1.6896 -1.48656 4.68808 -0.185228 0.236891 0.280757 0.00136686 -0.00363297 -0.0174059 0.00389296 0.000738597 -0.017605 8.17637e-08 -2.25556e-06 -2.662e-05 
26.982 1 998 38.9734 18.2066 16.3695 -2.77539 9.4588 -0.205186 0.309992 0.250353 -0.584437 0.00996164 0.00513873 -0.0154533 0.00968208 -0.00165833 -0.00753961 3.52048e-06 2.14589e-05 -2.72521e-05 
26.982 1 2821 20.3053 20.2227 16.2087 4.68651 1.96238 0.802418 -0.132272 -0.184627 0.0936479 0.0125065 0.0438685 -0.0352531 0.00199836 0.0192679 -0.0203229 -2.72703e-05 2.27773e-05 -2.47429e-05 
26.982 1 24 20.4221 2.1912 2.26624 -4.56508 -0.903377 2.61311 -0.286212 0.128603 -0.262756 0.00486539 -0.0530994 -0.00999146 0.00329639 -0.0353194 -0.0134629 8.6954e-06 -1.62597e-05 -3.64263e-05 
26.982 1 63 22.3368 4.26406 2.01626 -0.197628 0.608381 3.49053 0.0863208 -0.515121 0.531697 0.000368596 0.00524372 -0.0270118 0.000349366 0.00594306 -0.0268848 4.15664e-06 -2.5847e-05 -4.05592e-05 
26.982 1 222 22.3777 2.30296 4.24936 -4.91076 0.890346 2.73745 0.161692 -0.189998 -0.381126 -0.0121541 -0.039142 -0.0169615 -0.00513449 -0.0283797 -0.0120484 3.14928e-06 -1.72869e-05 -2.27905e-05 
26.982 1 261 20.2886 4.39087 4.16656 0.0854661 -1.90525 0.443861 -0.181262 -0.460326 0.246667 0.000305109 -0.00531593 -0.00239179 0.000323629 -0.00349945 -0.00272976 -4.96574e-06 -6.94873e-06 -1.44273e-06 
26.982 1 28 24.4093 2.13131 2.16698 4.0331 -3.1377 -1.06313 -0.0283073 0.433612 -0.177416 -0.00558367 -0.0272286 -0.0218253 -0.00367776 -0.0202636 -0.0185093 -2.43395e-05 -1.37033e-05 -4.48185e-05 
26.982 1 27 26.4724 0.255412 2.17891 2.56837 -0.49627 0.978882 0.423477 -0.218776 0.320215 0.033173 -0.0894447 -0.0197417 0.00993745 -0.0592424 -0.013744 4.12388e-06 -5.50096e-05 -2.49929e-05 
26.982 1 67 26.3992 4.22738 2.15416 3.92878 -7.84912 1.62065 0.203265 -0.577592 0.0385135 0.00065777 0.000860989 -0.0344962 0.000128231 0.00332165 -0.031848 -1.30818e-07 -1.44e-05 -3.46728e-05 
26.982 1 226 26.5028 2.43737 4.45889 3.87191 6.18446 -4.06553 0.145664 -0.291992 -1.06109 0.0170641 -0.0315208 -0.0063179 0.00513309 -0.0203124 -0.00467429 1.62504e-07 -1.16329e-05 -2.109e-05 
26.982 1 265 24.4376 4.3079 4.23941 -1.15782 0.436074 0.171501 -0.116795 -0.338181 -0.113594 -0.000107255 -0.00204525 -0.00324012 -7.36006e-05 -0.00196051 -0.00334005 -3.49878e-06 -6.71924e-06 -7.8003e-06 
26.982 1 26 26.5697 2.15718 0.248809 -4.75657 0.950952 -1.41416 -0.0252002 0.209622 -0.196818 0.00945169 -0.0273984 -0.072163 5.64724e-05 -0.0117539 -0.0478008 6.11113e-07 -4.577e-06 -6.16737e-05 
26.982 1 30 30.8486 2.16776 0.0910562 -1.35121 2.65813 -2.30064 -0.440217 0.247559 0.587615 -0.000782232 -0.0567735 -0.0856686 -0.00437932 -0.0260349 -0.060579 -1.69855e-05 9.92371e-06 -5.68032e-05 
26.982 1 32 28.7322 2.28068 2.27018 0.968343 1.3874 0.345917 -0.506444 -0.399186 -0.419135 0.0054532 -0.0599664 -0.0220364 -0.000659934 -0.027644 -0.0182 -1.1979e-05 -1.34095e-05 -4.11945e-05 
26.982 1 71 30.7356 4.24867 2.15077 -2.00329 -1.97958 -3.07144 0.297486 0.0296025 -0.256683 -0.00141891 -0.00538382 -0.016598 -0.00450126 -0.00218014 -0.0139536 5.99864e-06 1.50207e-05 -5.44422e-05 
26.982 1 230 30.7118 2.39026 4.18929 -6.62409 -3.93813 0.875803 0.344681 -0.246713 0.0884621 -0.00693752 -0.0525773 -0.0164803 -0.00504739 -0.0257539 -0.00762818 5.03526e-06 -8.4213e-06 -2.62005e-06 
26.982 1 269 28.662 4.23372 4.11029 -4.27923 4.54472 -0.659382 -0.0230583 0.178721 0.529287 -0.000141799 -0.00605263 -0.00282907 -0.000676309 -0.00288098 -0.00285369 -2.6495e-06 2.78564e-06 2.33032e-06 
26.982 1 36 32.7636 2.4014 2.2681 -2.47122 -2.4567 -0.0609439 0.220969 -0.569501 -0.288974 0.000653979 -0.0546564 -0.0327284 0.000361375 -0.0271759 -0.019002 4.3549e-06 -2.42238e-06 -2.88637e-05 
26.982 1 2805 3.5095 20.1906 16.0557 -1.24552 -2.00673 -4.98929 -0.148197 0.379986 0.605851 -0.00421827 -0.0357244 -0.0273234 -0.00220945 -0.0292737 -0.0194371 7.27003e-06 3.67408e-05 -2.03996e-05 
26.982 1 273 32.9226 4.38319 4.19307 -2.06293 3.21025 -1.33953 -0.133005 -0.409474 -0.0404113 0.000844434 -0.00463327 -0.00290964 0.000396738 -0.00205254 -0.00146015 2.69037e-07 -6.23384e-06 -6.56555e-06 
26.982 1 229 28.6588 0.203147 4.29507 -0.576336 -2.37392 4.275 -0.127714 0.275312 -0.642921 -0.000180461 -0.00798391 -0.00957406 -0.000905501 -0.0154565 -0.0094618 -3.74619e-06 -3.93318e-05 -3.1839e-05 
26.982 1 31 30.7036 0.26251 2.3237 2.94244 2.27594 -0.865257 0.255439 -0.00602303 -0.27837 -0.0175539 -0.0444306 -0.033132 -0.00926915 -0.0435198 -0.0189649 -7.1312e-06 -5.86253e-05 -2.54812e-05 
26.982 1 997 37.1356 16.2364 16.083 4.93248 -3.30175 -1.53937 -0.321217 -0.30106 0.537369 0.000134362 -8.00357e-05 -0.000361097 0.000310303 4.38643e-05 -0.000202813 -4.2305e-06 -5.23373e-06 7.27525e-06 
26.982 1 33 32.8241 0.262535 0.146954 -2.54656 -2.14805 -1.23315 0.32084 -0.174857 0.439254 0.0156964 -0.0270202 -0.0722739 0.00399912 -0.0277412 -0.0441834 -2.11173e-07 -4.21096e-05 -3.87402e-05 
26.982 1 35 34.9149 0.209205 2.18968 7.67863 -3.61532 2.7584 -0.0636758 0.0596419 -0.113563 -0.000551181 -0.0839738 -0.0435972 0.00353591 -0.0592882 -0.0230411 9.09091e-06 -5.44212e-05 -2.03887e-05 
26.982 1 75 34.8844 4.26341 2.02437 2.43767 0.344237 6.68872 0.352145 -0.0368557 0.333962 0.0221567 -0.00385197 -0.0576097 0.0147638 -0.00196007 -0.0321727 5.06712e-06 1.30265e-05 -4.7499e-05 
26.982 1 234 34.9878 2.33743 4.07337 -2.59408 0.987789 1.21818 -0.0582734 -0.0811186 0.369995 -0.00303717 -0.029025 -0.0100185 0.00125719 -0.0162549 -0.00537605 2.25952e-06 -6.18862e-06 1.7241e-06 
26.982 1 34 34.9101 2.17862 0.145666 1.01324 -0.754394 0.602723 0.346986 -0.0286101 0.141785 0.0120982 -0.014388 -0.044184 0.0111488 -0.00704674 -0.0439351 1.69245e-05 7.56095e-06 -5.73042e-05 
26.982 1 233 32.8289 0.383235 4.28915 -2.48317 -4.1051 -3.71692 0.0672333 -0.339543 -0.828917 0.000821345 -0.0334155 -0.0165308 0.000355309 -0.0330362 -0.0146363 2.90845e-06 -4.07418e-05 -2.8128e-05 
26.982 1 237 36.9965 0.242788 4.12762 -0.106617 -1.81128 -4.27433 -0.076656 -0.219713 -0.0238194 0.0137213 -0.0473759 -0.0387574 0.00889214 -0.0313223 -0.0246069 -1.35569e-06 -4.25934e-05 -1.99369e-05 
26.982 1 4 -0.661547 2.12851 2.03899 -3.74178 -1.68518 -2.55085 -0.169192 0.460776 0.341893 -0.0306696 -0.0495342 -0.0509337 -0.0144106 -0.0294391 -0.0372798 -5.62171e-05 -2.14851e-06 -9.26163e-06 
26.982 1 40 37.0952 2.34528 2.22228 1.60806 -2.13205 -5.43502 -0.105419 -0.247341 -0.414953 0.02779 -0.0374323 -0.0763716 0.0188663 -0.0219099 -0.0421568 9.7431e-06 -8.32301e-06 -5.12578e-05 
26.982 1 79 39.1761 4.39984 2.08609 -2.65857 2.24985 0.509161 -0.128087 -0.725755 0.169923 -0.01358 -0.0200887 -0.0679712 -0.00816736 -0.00997399 -0.0428206 -2.45486e-06 -2.46406e-05 -4.40777e-05 
26.982 1 238 39.1199 2.27262 4.19388 0.786234 -1.31775 2.823 0.047722 -0.384119 -0.56192 0.00391337 -0.0490071 -0.0321634 -0.000446162 -0.0297501 -0.0206263 6.68042e-07 -9.53705e-06 -1.45508e-05 
26.982 1 277 37.1631 4.31358 4.11764 0.0365597 -2.00575 -3.50411 -0.481559 -0.443047 0.197137 0.00084873 -0.0038763 -0.00993881 0.000663425 -0.00248844 -0.00621607 -8.1053e-06 -8.63906e-06 -3.54078e-06 
26.982 1 2801 41.0966 20.2398 16.2861 3.37268 0.962772 -0.741919 -0.22506 0.0384441 -0.469528 -0.0571529 -0.000889387 -0.0410056 -0.0411255 -0.00501924 -0.0345201 -3.17402e-05 1.00751e-05 -3.1241e-05 
26.982 1 2803 1.26949 20.1593 18.0308 -0.968246 -0.849353 -0.986537 0.690701 0.482064 0.835562 -0.0467637 -0.05932 -0.0263626 -0.0330545 -0.036504 -0.0123212 -2.59192e-05 3.94686e-05 -1.96656e-05 
26.982 1 637 37.1075 0.261957 12.0307 0.290183 2.80293 3.13988 -0.111755 -0.651747 0.23427 0.00285957 -0.0406504 -0.0190419 0.00107437 -0.0161713 -0.0102907 9.50094e-07 -5.22174e-05 -4.01761e-05 
26.982 1 83 1.4688 8.08539 2.31068 -2.37013 -3.04778 -3.5494 0.159757 0.137523 -0.31401 -0.0461858 -0.00706655 -0.0442728 -0.0251435 -0.00527144 -0.0417199 -3.03801e-05 -1.21066e-05 -2.5029e-05 
26.982 1 242 1.62393 6.24221 4.29001 -1.35777 -0.711926 4.02994 -0.466562 -0.24233 -0.323243 -0.0462563 0.016794 -0.0265516 -0.0250527 0.00817184 -0.0161432 -3.31645e-05 -1.28658e-05 -1.62884e-05 
26.982 1 44 41.1197 6.3053 2.18437 4.03145 -0.741363 0.361214 0.304542 0.178593 -0.0363638 0.0141343 -0.0539297 -0.0426842 -0.00321448 -0.0277758 -0.0378477 1.97177e-05 -1.05279e-05 -3.57077e-05 
26.982 1 281 -0.669458 8.31975 4.19544 -2.20423 -0.672387 -0.474746 0.058421 -0.402699 -0.240671 -0.00312478 -0.00795191 -0.00958977 -0.00905273 -0.00781746 -0.0105465 -3.21577e-05 -3.81043e-05 -3.75986e-05 
26.982 1 48 3.73258 6.06928 2.22917 0.478996 6.68199 1.66485 -0.461501 0.0946221 -0.305133 -0.0163191 -0.00379178 -0.0462661 -0.0130438 0.000419128 -0.0374352 -9.86252e-06 -1.44105e-06 -1.6042e-05 
26.982 1 285 3.65007 8.06181 4.14186 2.70239 -2.7327 1.89058 -0.279445 0.572231 0.11653 -0.00713857 0.000277783 -0.00622016 -0.00379899 3.91384e-05 -0.00511341 -4.24997e-06 1.15052e-05 -6.14189e-07 
26.982 1 46 5.62139 6.06722 0.141457 -1.25349 -0.657598 -1.85642 0.452729 0.0102639 0.216497 -0.0123996 0.00400234 -0.100937 -0.0059182 0.00505613 -0.0674781 4.27047e-06 -3.46052e-06 -6.29374e-05 
26.982 1 52 7.71828 6.02079 2.32432 -3.45662 -2.1619 3.83515 0.0249685 0.382844 -0.467923 0.00695862 0.0088555 -0.0329944 0.00465113 0.00579661 -0.0284238 1.3936e-06 3.15999e-06 -1.39007e-05 
26.982 1 87 5.55254 8.08792 2.23521 4.5371 1.99459 -0.278599 0.47796 0.114306 -0.142647 -0.00139415 0.0115847 -0.0440345 -0.000986145 0.00444556 -0.0322021 7.44865e-06 3.74394e-06 -1.01387e-05 
26.982 1 86 5.52003 10.0603 0.289478 -5.56347 3.68898 4.16353 0.15108 0.600084 -0.193123 -0.00929181 -0.0083812 -0.0448926 -0.00624246 -0.0111677 -0.0448844 9.5537e-06 1.62633e-05 -6.75723e-05 
26.982 1 246 5.67669 6.07526 4.16089 2.12544 1.33819 -2.82467 0.19903 -0.0548507 0.114427 -0.000160066 -6.56503e-05 -0.00293847 -6.0759e-05 8.07816e-05 -0.00250861 6.01671e-06 -2.26485e-06 9.00381e-07 
26.982 1 289 7.78888 8.17678 4.12257 0.204288 0.240605 3.56263 -0.100235 -0.367539 -0.16193 0.00045099 0.000298052 -0.00556385 0.000346047 6.56056e-05 -0.00430044 -1.23712e-07 -3.07267e-06 -3.51676e-06 
26.982 1 286 5.61383 10.1071 4.11579 -2.53392 0.200948 2.43525 0.00638525 0.161795 0.287469 -0.000396755 0.000198733 -0.0054052 -0.000161207 -0.000105201 -0.00313526 -1.1029e-07 3.24624e-06 4.72375e-06 
26.982 1 56 11.8585 6.07941 2.27882 0.98524 3.08614 -1.01106 -0.159923 0.100663 0.0347842 -0.00557865 0.0223318 -0.0444449 -0.001179 0.0148918 -0.032773 9.09671e-06 -1.14129e-05 -2.86919e-05 
26.982 1 91 9.87295 8.10604 2.09852 7.50578 0.539458 0.673907 -0.191035 0.202275 0.413434 0.0115782 0.00757802 -0.0646029 0.00502754 0.00434704 -0.0459033 -2.94625e-07 5.73562e-06 -5.46273e-06 
26.982 1 250 9.84049 6.09813 4.29024 -1.43249 0.440933 -1.57249 0.0568535 0.19915 -0.509579 0.000649233 0.000679575 -0.00366963 0.00018989 0.000540161 -0.00300742 6.31233e-07 2.70375e-06 -8.16821e-06 
26.982 1 293 11.878 8.1083 4.29056 -0.619466 -2.66834 0.323558 -0.128345 -0.536201 -0.772761 -0.000663977 0.000431851 -0.00758726 -0.000372245 0.000221979 -0.00531205 -1.62467e-06 -9.25073e-06 -1.37976e-05 
26.982 1 50 9.63609 6.11447 0.227673 1.50275 2.94059 3.7272 0.357209 -0.160049 -0.117116 0.01017 0.0173033 -0.0657361 0.00155196 0.0110654 -0.043284 1.90937e-05 -1.40117e-05 -6.40121e-05 
26.982 1 95 13.7902 8.08631 2.04096 -0.94725 -2.63935 1.21928 0.572784 -0.0149811 0.441514 -0.0184872 0.0117774 -0.0507126 -0.00939087 0.00154051 -0.0364982 1.05744e-05 -1.98942e-06 -3.08862e-05 
26.982 1 254 14.1335 5.93941 4.23295 0.624678 1.5757 6.00178 -0.141666 0.451095 -0.244704 -0.000384734 -5.49433e-06 -0.00250889 -0.000153748 0.000239118 -0.00254112 1.86374e-06 8.26206e-06 -9.76085e-06 
26.982 1 427 26.6615 0.0944132 10.2539 2.65659 -4.54674 5.00685 -0.33248 0.291037 0.226449 0.018729 -0.043063 -0.0160297 0.00443289 -0.0106113 -0.0168964 9.01433e-06 -5.53473e-05 1.64114e-05 
26.982 1 96 11.8336 10.2006 2.33068 -0.270148 -1.45301 -1.27477 -0.194915 -0.119175 -0.788263 -0.00145846 -0.0187555 -0.0622173 -0.00385022 -0.00984283 -0.0417349 8.14283e-06 9.71767e-06 -4.49526e-05 
26.982 1 100 15.9997 10.1584 2.15496 -1.7624 -7.5122 1.21584 -0.0605663 0.533542 -0.0692169 0.000280319 0.0129181 -0.0538178 -0.0002675 0.00473592 -0.0327963 -8.54757e-07 2.22383e-05 -4.60443e-05 
26.982 1 294 13.8664 10.0773 4.04289 8.48268 -0.199024 -0.418666 0.631416 0.413426 0.223654 -0.00025671 0.000795438 -0.00627484 -1.0543e-05 0.000326818 -0.00376788 1.08369e-05 1.02802e-05 -5.34097e-06 
26.982 1 625 24.5346 0.188369 12.3409 -2.86545 1.50284 2.85427 -0.0152284 0.0663455 -0.665916 -0.00855848 -0.0405002 -0.0280542 -0.00347086 -0.0161914 -0.0131237 -7.3587e-06 -4.20208e-05 -3.81843e-05 
26.982 1 60 16.0603 6.08188 2.17298 0.182697 1.82276 3.91973 -0.134031 0.0560627 -0.0986613 -0.00075827 0.00340903 -0.0207466 -0.000558029 0.00471764 -0.0220771 -1.45158e-05 -1.30168e-05 -3.28861e-05 
26.982 1 297 16.0944 8.29163 4.05843 1.17507 -1.23678 2.89918 -0.451012 -0.819672 -0.0270354 2.67404e-09 0.000895066 -0.00344526 -2.06914e-05 0.000248603 -0.00297635 -9.11842e-06 -1.19678e-05 -6.4477e-06 
26.982 1 99 18.099 8.20784 2.13389 -1.01886 4.11348 0.873219 0.151204 -0.129848 0.112869 0.0100468 0.0120657 -0.0412684 0.000848246 0.00149384 -0.0271666 2.94298e-06 1.37093e-05 -2.56833e-05 
26.982 1 258 18.0269 6.22627 4.20906 -2.47834 1.57445 0.371925 0.348534 -0.245147 -0.0292115 0.000524537 0.00100681 -0.0018156 0.000172886 0.000446314 -0.00227003 4.46775e-06 -6.67529e-06 -2.2643e-06 
26.982 1 301 20.0181 8.27603 4.05292 -3.1942 -2.34043 -0.336869 0.589519 -0.280042 0.331783 0.000745796 0.0006455 -0.00621206 0.00025043 6.49953e-05 -0.00341294 8.27284e-06 -4.73731e-06 2.27188e-06 
26.982 1 298 18.1186 10.2763 4.19436 4.27902 -7.74194 -2.35707 -0.00774808 -0.0300252 -0.375824 0.000564077 0.000387565 -0.0064958 7.51187e-05 -0.000102475 -0.00338654 3.02953e-07 1.84894e-06 -1.31887e-05 
26.982 1 101 20.1986 8.12631 0.158531 1.06923 4.9032 -5.7952 0.106721 0.191568 -0.103759 0.0142108 -0.00416486 -0.0451395 0.00913009 -0.00880278 -0.0449938 -6.77623e-08 2.39373e-05 -6.21979e-05 
26.982 1 64 20.3999 6.20316 2.17254 1.749 6.40189 -4.70635 -0.578918 0.170942 -0.166324 0.00812372 0.0116839 -0.0382276 0.00542958 0.00129283 -0.0310396 -1.00693e-05 -9.71193e-06 -2.2204e-05 
26.982 1 103 22.3428 8.26159 2.14624 -2.34895 2.6088 7.00439 -0.0980186 -0.15355 0.0402029 0.000235577 0.0120545 -0.0660146 0.00032184 0.00113023 -0.0383505 -2.57707e-06 1.04867e-05 -2.01142e-05 
26.982 1 262 22.3041 6.27154 4.23079 0.722772 0.52085 -0.118172 -0.0297542 0.0157131 -0.114067 -1.90773e-06 0.00130998 -0.00475987 4.15329e-05 0.000247259 -0.00395225 -2.97193e-06 1.87148e-06 -1.94772e-06 
26.982 1 105 24.5001 8.26909 0.262404 -4.60545 2.60826 2.82964 -0.0514384 -0.410292 -0.186456 -0.00505286 -0.00895902 -0.0443387 -0.00278202 -0.0114776 -0.044598 4.72473e-06 1.49246e-05 -6.40232e-05 
26.982 1 302 22.3789 10.2742 4.1397 2.22303 -5.04852 4.59606 -0.0984403 0.0919011 0.128964 -0.000392705 0.000146747 -0.00938461 9.9835e-05 1.01547e-06 -0.00482627 -5.07346e-07 3.80663e-06 -1.08639e-06 
26.982 1 621 20.2356 0.0682387 12.4461 4.02733 -7.38379 3.16907 0.261741 0.490001 -0.796326 0.0105628 -0.0404185 -0.0320175 0.0042861 -0.0162199 -0.0149262 -1.41949e-06 -3.7529e-05 -5.19586e-05 
26.982 1 68 24.414 6.15243 2.25883 0.560526 0.399631 -1.27566 -0.0788534 0.42087 -0.227948 7.25327e-05 0.0113357 -0.046052 0.000400402 0.000924634 -0.0364201 -2.81724e-06 -3.91448e-06 -2.50804e-05 
26.982 1 107 26.7231 8.2149 2.30947 3.0419 -1.15595 0.379098 -0.786918 -0.465442 -0.673005 0.00695847 -0.00786249 -0.0561144 0.00779347 -0.00902884 -0.0374872 -1.84078e-06 4.73854e-06 -3.7222e-05 
26.982 1 266 26.6521 6.08721 4.15 -3.66306 -0.303686 -3.73461 -0.211067 0.47882 0.382193 0.000214618 0.00094067 -0.00504233 0.000148834 0.000343321 -0.00450357 -2.99148e-06 1.06721e-05 8.0139e-06 
26.982 1 305 24.5089 8.15683 4.19874 -1.05243 1.2557 1.15844 -0.107047 0.312222 -0.055471 -0.000669232 0.000409799 -0.00679558 -0.000148296 3.17424e-05 -0.00379654 5.67494e-07 6.1876e-06 -2.52802e-06 
26.982 1 605 3.35601 0.220046 11.989 1.65511 -4.24834 -3.36626 -0.0624509 -0.0628345 0.492899 -0.00657846 0.000473708 -0.00645526 -0.00354463 4.77447e-06 -0.00440111 -6.41518e-06 -4.74498e-05 -1.18802e-05 
26.982 1 306 26.6126 10.1308 4.06761 -1.7135 3.96294 -1.19323 -0.351818 0.36314 0.319506 -0.000310669 -0.000369304 -0.00407758 -0.00027422 -0.000250461 -0.00251945 -9.44307e-06 4.59319e-06 -5.69243e-07 
26.982 1 72 28.6315 6.00708 2.1089 -5.47535 -1.02727 -1.92815 0.175861 0.71819 0.0725151 -0.00915304 0.0194483 -0.0451739 -0.00936559 0.00975978 -0.0362578 1.47467e-05 6.03612e-06 -5.20758e-05 
26.982 1 407 5.47008 0.221533 10.1667 0.716995 -1.58485 4.09828 0.362188 -0.585642 -0.256497 0.0205726 -0.0170312 -0.0228057 0.0108489 -0.0124563 -0.011816 1.68113e-05 -6.91178e-05 -1.69321e-05 
26.982 1 111 30.7709 8.06452 2.13716 -1.89652 -3.174 1.19001 -0.0199097 0.320895 -0.383576 -0.00853066 -4.16525e-05 -0.0458563 -0.00900833 -6.58547e-05 -0.0278978 1.29e-07 -1.00131e-05 -5.55551e-05 
26.982 1 270 30.8137 6.21347 4.08917 0.615794 2.49564 3.49906 -0.0543719 -0.165631 0.17992 0.000156345 0.000864864 -0.00295975 -0.000328617 0.000526645 -0.00186064 -1.77722e-06 -3.44104e-06 -6.83063e-06 
26.982 1 309 28.7773 8.1918 4.07276 -2.31652 1.30713 -2.54619 -0.291877 -0.188388 0.270246 -0.000203955 0.000101415 -0.00679066 -0.000344207 -0.000169909 -0.00491099 -6.92658e-06 -2.28043e-06 -5.5952e-07 
26.982 1 112 28.543 10.1027 2.01409 -2.67616 -3.56127 1.09735 0.634732 0.193215 0.17841 -0.00109085 -0.0203819 -0.0360425 -0.000581774 -0.0135723 -0.0245487 7.48166e-07 4.41789e-06 -5.1482e-05 
26.982 1 76 33.0188 6.2798 2.25428 0.374049 -2.6058 1.07094 -0.378022 -0.0760962 -0.688624 0.0117944 0.0111312 -0.0376954 0.00471035 0.0045725 -0.0194101 -5.16788e-06 -1.27731e-06 -6.48629e-05 
26.982 1 603 1.28332 0.137277 14.2899 -2.71805 -2.62354 -1.81395 0.0420024 0.128836 -0.171288 -0.0559397 -0.0252569 -0.0207452 -0.0368066 -0.0175324 -0.0146518 -2.75004e-05 -4.40836e-05 7.71601e-06 
26.982 1 2435 34.7317 20.2684 10.1848 -2.12842 2.30412 -3.06778 0.528587 0.199317 0.0096685 -0.0195805 0.00858214 -0.0354142 -0.00742627 -0.00917289 -0.0247623 -8.07568e-06 4.7485e-05 -2.8558e-05 
26.982 1 115 34.9913 8.20653 2.12729 1.83837 3.04507 0.717218 0.212021 -0.00253398 -0.0957332 -0.00955206 -0.00921886 -0.0394428 -0.00346417 8.59137e-05 -0.0236493 -5.53723e-06 1.69229e-06 -4.948e-05 
26.982 1 274 34.9516 6.33134 4.27392 4.10204 0.485184 -0.494594 0.122204 -0.081743 -0.639619 0.00117643 -0.000601906 -0.00555136 0.000872479 -0.000290393 -0.00266299 3.69894e-06 -9.56284e-07 -1.3107e-05 
26.982 1 313 32.8474 8.24854 4.16886 1.06182 3.31198 1.03997 -0.039791 -0.346432 -0.207475 0.000433148 0.000104775 -0.00464445 0.000168657 0.000293081 -0.00228687 -1.02063e-06 -3.27922e-06 -9.28535e-06 
26.982 1 117 37.0388 8.21447 0.0798712 -3.10772 -2.13789 -3.58299 0.0297108 0.132218 0.267043 0.0121029 -0.000224062 -0.100549 0.00600824 0.00268589 -0.0672482 -1.30147e-05 7.67126e-06 -6.06062e-05 
26.982 1 120 37.0646 10.3066 1.94565 -2.38211 -3.64315 0.172573 -0.114971 -0.151912 0.614305 0.0172697 0.0137009 -0.0494047 0.00602705 0.00942041 -0.0324936 -2.77953e-06 1.46433e-05 -4.2524e-05 
26.982 1 80 36.9907 6.22585 2.28055 4.28723 -1.88808 2.70521 0.192878 0.329775 -0.457975 -0.0017022 -0.0226003 -0.0539306 0.00191332 -0.0148862 -0.033011 -7.84231e-06 -5.50605e-06 -3.94939e-05 
26.982 1 119 39.1923 8.37706 2.0172 -4.5231 0.660908 0.630081 -0.201652 -0.259179 0.189368 0.00916027 0.00964562 -0.0489719 0.00631305 0.00377034 -0.0302082 1.08768e-05 8.6217e-06 -3.88625e-05 
26.982 1 278 39.1642 6.25038 4.36044 2.65837 -1.22608 -0.308188 0.508824 -0.0796511 -0.445274 0.022358 -0.0228396 -0.00684085 0.0147258 -0.0149414 -0.00436051 9.37452e-06 -2.65335e-06 -7.83413e-06 
26.982 1 317 37.3308 8.26885 4.13655 0.207315 -4.52148 1.45371 -0.64515 0.199965 -0.133201 0.000168194 -0.000766922 -0.00370947 0.00014308 -0.000349658 -0.00215705 -9.35944e-06 4.83358e-06 -5.35792e-06 
26.982 1 2431 30.7698 20.2306 10.0153 -1.96635 7.00013 -7.87094 -0.287458 0.134445 0.872625 -0.0275677 0.0383265 -0.0307651 -0.020593 0.0112096 -0.0242549 1.49604e-05 4.38635e-05 -2.23094e-05 
26.982 1 78 39.0622 6.15822 0.155979 -1.9123 0.0172887 -0.382543 0.205351 0.620248 -0.400215 -0.00226229 -0.0264999 -0.064091 -0.00304301 -0.0142071 -0.042215 8.21494e-06 -9.76935e-06 -6.4482e-05 
26.982 1 88 3.36061 10.3079 2.11854 2.28609 0.486664 -6.29063 0.508656 -0.663107 0.621868 -0.0159835 -0.0020316 -0.0627877 -0.0125478 -0.00481677 -0.0424046 4.90664e-06 -8.08694e-06 -2.42221e-06 
26.982 1 123 1.49081 12.2821 2.34414 -3.10169 1.65031 3.06761 -0.376987 -0.0877544 -0.0754276 -0.0437464 -0.02779 -0.0585711 -0.0232629 -0.0153728 -0.0424459 -3.32554e-05 -2.8884e-06 -6.54055e-06 
26.982 1 128 3.54363 14.1686 2.2759 0.330875 -2.14796 -1.17856 0.213402 0.330669 0.168056 -0.00657489 -0.000364527 -0.0441701 -0.00309704 0.000311251 -0.0301744 4.18668e-06 3.56028e-06 -6.15642e-06 
26.982 1 282 1.48063 10.0692 4.3097 0.57244 3.31301 1.32203 0.085875 0.513465 -0.577208 -0.0508359 -0.00783239 -0.0226671 -0.0246479 -0.00534811 -0.0123275 -1.18643e-05 1.69864e-05 -1.15594e-05 
26.982 1 322 1.30102 14.0438 4.45219 -2.04946 -3.29011 2.74423 0.828517 0.202056 -0.548873 -0.0322629 -0.0125233 -0.0193643 -0.015142 -0.00529142 -0.00973743 -8.56294e-06 -1.62653e-05 -9.13684e-06 
26.982 1 84 -0.455439 10.2352 2.21767 -4.18252 -5.94762 -3.06911 -0.338621 0.194907 -0.0912259 -0.0178878 -0.0239816 -0.0805738 -0.0261873 -0.0131945 -0.0509496 -6.16093e-05 9.97669e-06 -2.25923e-05 
26.982 1 124 -0.553332 14.2382 2.32476 -2.47221 2.3616 -1.17005 -0.265541 -0.264458 -0.00762605 -0.0213565 -0.0219685 -0.0567868 -0.030954 -0.0117945 -0.0380009 -6.15881e-05 -3.40173e-05 -8.84652e-06 
26.982 1 321 41.1104 12.2531 4.26166 -1.9989 -2.27284 1.61575 0.349757 -0.545091 -0.405646 -0.0209616 -0.0140669 -0.0198642 -0.0212328 -0.0122503 -0.0163574 4.81607e-06 -1.57369e-05 -1.04724e-05 
26.982 1 122 1.4492 14.3651 0.329202 0.21042 0.299951 -3.00896 -0.0502501 -0.437958 -0.395521 -0.0532271 -0.00932454 -0.0529301 -0.0318311 -0.00612072 -0.0381755 -1.49333e-05 -1.71735e-05 -6.53378e-05 
26.982 1 125 3.48368 12.2982 0.389128 1.46791 -3.31686 -4.79526 0.256029 0.0775443 -0.94384 -0.00879583 -0.0258338 -0.0655052 -0.008315 -0.0145355 -0.0434911 2.30824e-06 -5.10065e-08 -6.99483e-05 
26.982 1 325 3.68953 12.0991 4.24507 -3.97771 -0.955294 -0.508143 -0.414003 0.290224 -0.059275 -0.00506289 -0.00137693 -0.0061351 -0.00250052 -0.000625361 -0.00388569 -5.21537e-06 3.60048e-06 -9.33401e-07 
26.982 1 127 5.75009 12.2474 2.1875 1.32025 2.51211 -0.29206 -0.860792 -0.229083 0.095908 -0.00765862 -0.00492207 -0.0407127 -0.00494699 -1.66099e-05 -0.0249252 5.85145e-07 -1.53189e-06 -1.8419e-05 
26.982 1 326 5.53492 14.3617 4.29115 3.96676 0.166411 -1.69038 0.289427 -0.432241 -0.36228 -0.000183557 0.000166107 -0.00392276 2.04884e-05 0.000340883 -0.00296326 5.40518e-06 -6.31824e-06 -5.91317e-06 
26.982 1 126 5.6794 14.2442 0.166386 -1.57869 -0.727132 0.293947 -0.430027 0.105037 -0.12696 0.0022347 -0.000449182 -0.0657717 0.00498413 0.00401361 -0.0433693 4.93206e-06 -1.09388e-05 -6.50936e-05 
26.982 1 92 7.53068 10.2712 2.10832 -2.37612 4.08865 3.57635 0.619498 -0.511285 0.118936 0.00297083 -0.00941847 -0.0487287 0.00471692 -0.00921023 -0.0326696 1.14947e-05 4.49107e-06 -2.17186e-05 
26.982 1 2629 28.7121 20.1715 12.1818 1.27642 2.27908 0.889645 -0.250378 0.248018 0.0994722 -0.0307108 -0.00570314 -0.055798 -0.0207241 -0.0180396 -0.0384688 -2.82132e-05 2.61672e-05 -2.28977e-05 
26.982 1 132 7.52883 14.1235 2.08718 3.16602 2.73792 -3.98782 0.782972 0.696586 0.450666 0.0020101 0.00907068 -0.0393602 0.00451724 0.00973786 -0.0328888 1.04505e-05 -4.05586e-06 -1.89165e-05 