ITEM: TIMESTEP
20000
ITEM: NUMBER OF ATOMS
4000
ITEM: BOX BOUNDS pp pp pp
-4.13904 44.639
1.48628 39.0137
1.4018 39.0982
ITEM: ATOMS mass type id x y z vx vy vz fx fy fz xrad yrad zrad vxrad vyrad vzrad fxrad fyrad fzrad 
26.982 1 202 -0.84067 3.66424 5.39545 -3.60491 0.864412 5.17872 0.0437171 -0.120057 0.545181 -1.33644 -1.23898 -1.2699 -0.0975468 -0.0964629 -0.105657 9.16992e-07 -1.7125e-05 -8.87265e-06 
26.982 1 825 24.7444 1.33969 16.2636 -1.16244 2.2117 -3.129 -0.457766 0.986132 0.747826 0.0808191 -1.59428 -1.30091 0.00321727 -0.118823 -0.0933588 -2.16998e-05 -4.08651e-05 -2.28198e-05 
26.982 1 4 -3.15535 3.29647 3.77252 -4.68456 -1.20244 0.682762 0.322717 -0.49597 -0.173153 -1.56934 -1.61838 -1.85448 -0.129218 -0.136334 -0.157835 -2.41395e-05 -3.45191e-05 -3.30881e-05 
26.982 1 241 -2.92656 5.48089 5.52627 -3.72959 2.03505 -4.05552 0.172542 0.303894 -0.0489341 -1.04031 -1.00704 -1.21264 -0.0891262 -0.0609642 -0.0961659 -3.06752e-05 3.17748e-06 -1.30957e-05 
26.982 1 41 -3.38152 5.20628 1.72698 5.2846 0.320046 -1.51305 0.0769737 0.0838905 -0.448646 -0.805942 -0.774897 -1.96513 -0.0654618 -0.0492012 -0.194792 -1.71796e-05 -4.98133e-06 -4.51006e-05 
26.982 1 43 -1.06761 5.55728 3.51464 3.54608 -0.438552 1.12827 -0.171578 0.213103 -0.153856 -1.42497 -0.596818 -2.27875 -0.101766 -0.0256086 -0.20272 -6.52224e-06 8.02608e-06 -2.02787e-05 
26.982 1 998 41.2643 18.2004 15.2576 -2.53202 0.178822 2.66795 -0.0229266 -0.0507207 0.458287 0.297041 0.449907 -0.665059 0.0218384 0.0514432 -0.0541701 -7.1899e-07 1.41832e-06 5.52719e-06 
26.982 1 29 30.9071 1.75136 2.51449 -0.716178 6.04288 -7.74737 0.741818 0.0998877 0.0949419 0.0287903 -1.65295 -2.64776 -0.0042133 -0.131844 -0.245524 -8.481e-06 -4.6908e-05 -3.21988e-05 
26.982 1 205 1.26894 1.8901 5.47204 -5.71266 -0.609584 4.39965 0.417311 0.101485 -0.161518 0.107343 -1.83226 -1.51078 0.0159584 -0.178947 -0.132772 7.58607e-06 -2.49393e-05 -3.14371e-05 
26.982 1 245 2.88155 4.25756 5.69025 1.09435 -5.95444 -5.07394 -0.189779 0.438058 -0.406646 -0.112201 -0.211001 -0.340705 -0.0101716 -0.017004 -0.0325269 -4.36987e-06 -1.56305e-07 -8.5342e-06 
26.982 1 8 1.09728 3.79713 3.42545 -4.66526 -3.62473 5.58777 0.161438 0.17079 -0.154892 0.3225 -2.01673 -2.33396 0.0156716 -0.141523 -0.214734 8.81243e-06 -2.35969e-05 -3.37992e-05 
26.982 1 47 4.93145 4.53359 3.51908 -3.61495 -3.85768 -0.692335 -0.332638 0.0379916 -0.506749 -0.0841558 -0.492474 -2.2843 -0.00101207 -0.0330195 -0.206671 -4.6128e-06 -2.16296e-05 -5.02371e-05 
26.982 1 6 3.09169 1.89411 3.41869 -0.863973 1.4522 -4.42965 -0.06549 0.601659 -0.225243 -0.240647 -1.49696 -2.13463 -0.00940004 -0.136888 -0.193816 1.0407e-05 -4.21378e-05 -4.6783e-05 
26.982 1 206 4.91894 2.59397 5.34689 2.77388 -0.586622 3.03804 0.725862 -0.857056 0.397242 -0.0171581 -1.98016 -1.17336 0.00567292 -0.186213 -0.101126 1.34152e-05 -4.52112e-05 -1.22368e-05 
26.982 1 249 6.97448 4.52878 5.38147 -0.97468 -3.39443 1.37506 0.449821 0.219383 0.589255 -0.00870314 -0.228292 -0.278954 -0.000605591 -0.0224928 -0.0270775 1.18961e-05 -4.93332e-06 5.82783e-06 
26.982 1 12 7.22047 2.61552 3.37663 -3.36977 2.46851 -2.60615 0.0954577 -0.0606649 -0.37449 -0.291281 -2.47728 -2.06557 -0.00619149 -0.214659 -0.193497 4.84069e-07 -4.45498e-05 -4.32208e-05 
26.982 1 51 9.10985 4.66302 3.45363 6.74316 -0.879243 3.77826 -0.00602929 0.21415 -0.164377 -0.00734746 -0.260602 -2.05587 -0.00563204 -0.0358714 -0.222308 -3.42236e-06 -4.35035e-06 -5.09244e-05 
26.982 1 210 9.53146 2.39952 5.35784 -1.03312 -1.02901 -2.81944 -0.406587 0.697311 -0.256267 0.106265 -1.91888 -1.04071 0.00546192 -0.180642 -0.0984559 -4.2187e-06 -2.83715e-05 -2.70253e-05 
26.982 1 253 11.3621 5.01653 4.98853 -2.74638 -2.3401 6.46523 0.111073 -0.424744 0.45917 -0.00198196 -0.265207 -0.297808 -0.00213336 -0.0253694 -0.0314239 1.79896e-06 -1.29465e-05 -4.88145e-07 
26.982 1 16 11.363 2.97526 3.1122 0.51838 8.47026 1.42492 0.168993 -0.253021 0.170735 0.199996 -2.56175 -1.97729 -0.00161303 -0.232801 -0.189893 2.49794e-06 -4.02778e-05 -4.64762e-05 
26.982 1 214 13.4902 2.87229 5.25392 2.02027 -6.22241 0.574929 -0.0565297 0.393554 -0.286357 0.0568005 -2.09037 -1.05972 -0.000547031 -0.193468 -0.0962451 -1.13997e-06 -2.9755e-05 -2.40552e-05 
26.982 1 55 13.506 4.94299 2.93756 -1.08989 1.23856 -6.58831 -0.646786 0.0500177 0.546855 0.0322153 -0.401872 -2.26973 -7.90222e-05 -0.023026 -0.208881 -8.96227e-06 -7.4859e-06 -5.44614e-05 
26.982 1 20 15.5476 2.95582 3.15809 4.23973 -7.66258 -2.74115 -0.200578 0.28177 -0.131127 -0.3297 -2.47274 -1.9252 -0.0100576 -0.215234 -0.178006 -3.19769e-06 -4.4957e-05 -4.60782e-05 
26.982 1 257 15.5579 5.29636 4.75515 0.0614355 0.874209 -2.51937 -0.279745 -0.170562 0.196842 -0.0136157 -0.257423 -0.29706 -0.00304062 -0.020498 -0.0300341 -6.54691e-06 -3.46849e-06 -9.21471e-06 
26.982 1 218 17.6176 3.12752 4.92101 5.10763 3.21508 5.87277 -0.0662356 0.192319 0.102781 -0.0995551 -1.97525 -0.930781 -0.00479563 -0.177631 -0.0913934 1.82346e-06 -3.74817e-05 -2.59137e-05 
26.982 1 59 17.6807 5.07658 2.90941 -2.9206 0.20775 1.48151 0.0526463 0.414512 0.313251 0.118253 -0.116623 -2.17901 0.0117047 -0.0145292 -0.220529 2.86776e-07 5.36797e-06 -6.00048e-05 
26.982 1 24 19.708 3.18589 3.19149 -0.748639 4.89169 2.52209 0.418894 0.457234 -0.244645 0.133763 -2.07494 -1.96081 0.00252138 -0.182341 -0.202272 1.25812e-05 -4.23751e-05 -4.14481e-05 
26.982 1 261 19.9398 5.45689 5.22231 -0.140511 3.67538 1.45049 -0.386264 -0.0839863 -0.172641 0.0147612 -0.225015 -0.338847 0.00218977 -0.0193976 -0.0328528 -4.71153e-06 -4.77969e-06 -1.16273e-05 
26.982 1 63 21.9015 5.04805 3.1264 1.49218 -5.07246 -1.76232 0.178601 0.536787 0.261318 0.0645159 -0.119145 -2.61868 0.00186744 -0.0166116 -0.259987 3.13242e-06 -9.19983e-06 -5.45451e-05 
26.982 1 222 21.926 3.60668 5.44594 3.71662 0.208918 6.74594 0.100225 -0.182851 -0.0159295 -0.0253746 -1.82286 -0.971885 -0.00113614 -0.151677 -0.0822146 -2.74597e-06 -2.11567e-05 -2.04607e-05 
26.982 1 162 -1.67857 18.5938 1.70789 -1.51628 2.96601 -0.620681 0.196731 -0.0162715 0.429902 -1.42752 1.08094 -2.21797 -0.114948 0.0624124 -0.208058 -2.93121e-05 8.41195e-07 -3.92949e-05 
26.982 1 28 24.4202 3.03846 2.92289 1.79666 0.339108 -3.28449 -0.093423 -0.147185 0.216601 -0.104998 -1.82379 -2.22964 -0.00342307 -0.170757 -0.218827 -9.37582e-06 -3.71224e-05 -5.03726e-05 
26.982 1 265 24.4102 4.88628 4.7986 3.96994 1.67052 -3.92215 0.00102393 0.345627 0.0327559 -0.00207397 -0.217301 -0.380392 -0.00156127 -0.0206798 -0.0378527 -9.92986e-06 6.89364e-07 -1.07829e-05 
26.982 1 67 26.4204 5.37127 2.8183 -3.87268 5.02665 -6.86825 -0.189442 -0.75049 -0.201404 0.107618 -0.037555 -2.95148 0.00184751 -0.0107832 -0.274592 -7.63878e-06 -1.36253e-05 -6.29066e-05 
26.982 1 225 24.3481 1.94801 5.76576 4.61683 1.46739 1.92961 -0.0357052 1.31039 -0.15606 -0.0299558 -1.65953 -1.29874 0.00505473 -0.140466 -0.1113 -1.20354e-05 -5.50181e-05 -1.86265e-05 
26.982 1 226 26.9622 2.94024 4.61225 3.63309 -0.9277 -3.40146 -0.635602 -0.0624085 0.424462 0.0054971 -1.66818 -0.832981 0.00141801 -0.167755 -0.089099 -4.41721e-06 -5.21026e-05 -1.58759e-05 
26.982 1 32 30.4876 5.61666 2.6063 -1.45718 -0.252171 -5.49734 0.0444749 0.278654 -0.310611 0.0312069 -1.58266 -2.4429 -0.0017608 -0.131116 -0.241333 -3.66644e-06 -3.03604e-06 -6.26856e-05 
26.982 1 269 28.6425 5.31014 4.62768 2.42969 3.40701 -2.5121 0.00477433 0.602581 -0.117854 -0.0104776 -0.208148 -0.415182 -0.00119116 -0.0225308 -0.0391478 -1.28697e-06 8.02227e-06 -9.76186e-06 
26.982 1 27 28.588 3.33937 2.64373 -2.32357 1.91694 3.69154 0.311 0.192968 -0.45028 -0.0934707 -2.40936 -1.93401 -0.0192144 -0.186335 -0.193786 -9.58294e-06 -2.94409e-05 -5.54723e-05 
26.982 1 230 30.852 3.70136 4.5224 -4.50942 9.37615 -3.83851 0.22623 -0.424202 -0.250242 -0.105218 -1.6698 -0.89427 -0.0116332 -0.155276 -0.0817297 -5.46615e-06 -2.94054e-05 -1.19703e-05 
26.982 1 964 43.3898 18.3231 17.1991 1.52575 -6.77511 -4.48548 0.393839 -0.194443 0.187642 -1.45743 -0.121431 -0.519567 -0.0719509 -0.0138408 -0.0541562 5.77573e-06 1.71461e-05 -8.27677e-06 
26.982 1 273 32.7805 5.80929 4.27521 1.049 -0.601151 -3.06003 -0.0364913 0.345719 0.310179 -0.00187192 -0.174028 -0.31954 -0.000679927 -0.0167434 -0.0302199 -3.2769e-06 8.7517e-06 -2.89963e-06 
26.982 1 36 34.9678 3.99117 4.07764 4.44037 0.14457 1.84304 1.1931 -0.0934129 0.398596 -0.20694 -1.81361 -2.21882 -0.0210215 -0.154842 -0.175551 1.82505e-05 -9.84755e-06 -5.31856e-06 
26.982 1 30 32.9313 3.71792 2.51795 4.48189 0.00433611 0.289569 -0.619219 0.186846 -0.859993 -0.0765538 -1.2648 -2.47494 -0.0110334 -0.115019 -0.217442 -1.23875e-05 -8.87838e-06 -6.77263e-05 
26.982 1 73 34.7674 5.97947 2.16492 4.86091 6.67821 -1.63026 -0.28648 0.0732736 -0.267273 0.166653 -0.196275 -2.48042 0.00159943 -0.0150269 -0.226465 -7.52544e-06 -4.12194e-06 -6.64262e-05 
26.982 1 33 35.3272 1.9013 2.14035 3.82176 -0.848054 4.98716 -0.131759 0.449297 0.00928977 -0.0450996 -1.19934 -2.22414 -0.00873752 -0.117353 -0.205089 2.54732e-06 -4.29355e-05 -4.75742e-05 
26.982 1 276 35.0501 5.82834 6.19444 1.52045 -4.30794 -1.51062 -0.0491543 -0.00489805 -0.140177 0.00675369 -0.0103775 -0.00300091 0.000988694 -0.00237741 0.000860273 -1.62956e-06 1.18874e-06 -1.91757e-06 
26.982 1 34 37.0729 4.14922 1.98442 0.959938 4.44517 -0.609155 -0.228729 -0.226966 0.447428 0.0388963 -1.14916 -2.74416 -0.009018 -0.105811 -0.256316 -5.94466e-06 -1.0182e-05 -5.83606e-05 
26.982 1 35 37.5672 2.0778 4.13019 1.84701 -4.20858 3.11294 -0.506551 0.337268 -0.336352 0.0748725 -2.91394 -2.20518 0.00316482 -0.239148 -0.184786 -5.55294e-06 -4.29623e-05 -3.51628e-05 
26.982 1 75 37.0962 5.86761 4.11221 -1.06194 -1.81518 1.64754 0.0106936 -0.0327616 -0.098584 0.128353 -0.0621741 -2.46518 0.000865808 -0.00424546 -0.186236 2.16849e-06 -4.27836e-06 -8.52761e-06 
26.982 1 234 37.2954 3.90513 6.19335 -4.65502 -7.37651 -3.31314 0.234408 0.355311 -0.308245 -0.0180208 -1.35799 -0.685583 -0.00571779 -0.117203 -0.0542543 3.7512e-06 -1.77611e-06 -6.87324e-06 
26.982 1 40 39.3387 4.15131 4.06598 -4.84592 1.271 1.43836 0.133882 0.137099 0.0829098 0.421483 -1.82366 -2.47212 0.0203826 -0.14732 -0.17961 4.61734e-06 -3.95177e-06 -6.46547e-06 
26.982 1 237 39.5538 2.13512 5.96307 -2.71071 -4.16148 -1.11521 0.329299 0.439689 0.351536 0.233305 -2.13524 -1.56423 0.0195731 -0.211719 -0.118704 1.32354e-05 -6.48445e-05 -2.47074e-06 
26.982 1 37 39.4255 2.50334 1.85063 -0.139708 -1.42324 -2.31857 -0.36339 -0.940771 0.467182 0.0347067 -1.48551 -2.12332 0.00419262 -0.146177 -0.202003 -3.97283e-06 -5.05375e-05 -4.83433e-05 
26.982 1 1 43.4497 3.03298 1.72114 0.820082 1.09136 2.45385 0.775779 -0.579763 -0.245981 -0.621228 -1.21471 -2.65488 -0.0278122 -0.128105 -0.236058 1.79045e-05 -4.41432e-05 -5.1265e-05 
26.982 1 79 43.5503 5.02334 3.88984 3.96449 -3.21172 -6.64766 -0.190347 -0.222026 -0.0481365 -0.0528918 -0.234752 -2.61765 0.0051761 -0.014981 -0.191334 -2.14291e-06 -5.37016e-06 -1.20796e-05 
26.982 1 39 41.8427 2.34633 3.8813 -2.83429 0.36861 1.30761 -1.11621 0.454791 -0.0243584 -0.276731 -1.43821 -2.21723 -0.00743094 -0.167484 -0.175996 -3.57748e-06 -4.51479e-05 -2.28523e-05 
26.982 1 38 41.2526 4.30019 2.01115 0.303317 -1.48019 -0.496781 -0.122304 0.881554 -0.277272 0.00486038 -1.05833 -2.23198 0.00129606 -0.0878568 -0.231381 -1.99194e-06 -2.16234e-07 -5.35191e-05 
26.982 1 277 41.1046 4.36802 6.35147 -3.42573 -2.13304 4.04394 0.0703689 0.0432631 -1.17439 0.0175856 -0.173318 -0.339818 0.002983 -0.0195358 -0.0236124 3.35522e-07 -9.23176e-06 -1.95963e-05 
26.982 1 238 43.5113 3.10212 5.72114 -1.8022 4.42888 2.43269 0.733135 -0.882901 0.845882 0.0881114 -1.78178 -1.0225 0.0306895 -0.181317 -0.0779313 3.54782e-05 -5.8724e-05 -3.41543e-06 
26.982 1 83 0.190523 8.01889 3.60544 7.52961 -2.66982 -4.11007 0.0334793 0.27566 -0.199437 -1.53582 -0.653233 -2.34175 -0.101288 -0.0596646 -0.204144 -1.04043e-05 1.41622e-05 -3.32505e-05 
26.982 1 44 -2.94896 7.62037 3.31799 -1.07777 2.21165 -1.24056 -0.191862 0.0170811 0.107049 -0.555705 -1.34104 -2.28801 -0.0744307 -0.0856432 -0.202823 -3.84572e-05 1.46847e-05 -3.12436e-05 
26.982 1 2607 1.94181 20.1216 13.3771 -4.92289 1.17006 -2.65914 -0.150806 -0.264526 -0.386537 -0.870855 -0.16101 -1.96896 -0.0521855 0.00715258 -0.16921 6.51031e-06 1.47217e-05 -2.81405e-05 
26.982 1 48 2.5344 6.27404 3.59535 11.482 -2.23486 -0.928602 0.2249 -0.0378026 -0.0272966 -0.36704 -0.0971388 -2.23566 -0.0284127 -0.00119427 -0.206002 3.49251e-06 -7.8436e-06 -1.52899e-05 
26.982 1 87 4.46136 8.49567 3.49626 3.50423 -1.92688 -3.17533 -0.014727 -0.327521 -0.129377 -0.0624556 -0.0369754 -2.06816 -0.0098099 -0.00819377 -0.203524 2.6245e-07 4.81439e-06 -2.70554e-05 
26.982 1 246 4.70658 6.44727 5.43449 4.90275 0.0372863 4.05631 0.037954 0.0448262 0.521201 -0.0144304 -0.00534159 -0.238076 -0.003485 0.00132019 -0.0225695 3.70986e-07 1.91611e-07 7.13879e-06 
26.982 1 88 2.24585 10.2337 3.48505 7.44788 -4.00918 -0.325973 0.112362 -0.283957 0.0360589 -0.347932 -0.116615 -2.1087 -0.0230299 -0.0174232 -0.191249 -1.30738e-06 -5.93025e-06 -2.59928e-05 
26.982 1 286 4.3815 10.5292 5.70632 -1.41415 -5.33335 -3.06189 -0.266016 -0.225931 -0.174746 -0.0263319 0.00450016 -0.210883 -0.00748191 4.24525e-05 -0.0178628 -6.8933e-06 -3.99534e-06 -3.73409e-07 
26.982 1 1190 33.5587 17.465 20.1167 -2.92247 0.383898 4.13979 -0.457121 0.160653 -0.374636 -0.749862 -0.676645 -2.20856 -0.0435105 -0.0646889 -0.177466 -7.31186e-06 8.63424e-07 -4.95602e-06 
26.982 1 52 6.80923 6.5937 3.41445 0.125038 2.30213 -1.79238 -0.0305628 0.111832 -0.240772 0.00193203 -0.0747635 -2.10367 -0.00389322 -0.0168002 -0.218745 1.21444e-05 -1.07524e-05 -3.8183e-05 
26.982 1 289 6.4667 8.54631 5.47321 2.89264 -1.14337 0.132397 0.47511 0.0345735 -0.0489574 -0.00254437 -0.00227356 -0.233318 -0.00308995 -0.00142921 -0.0218454 8.59857e-06 -1.14653e-06 -1.536e-06 
26.982 1 250 8.90246 6.81456 5.39451 -1.12219 -1.65419 -2.35326 -0.0768061 -0.214647 -0.187996 0.00453078 -0.0153649 -0.2469 -0.000984356 -0.0042948 -0.0264822 -1.38854e-06 -4.62132e-06 -7.336e-06 
26.982 1 91 8.51301 8.7606 3.34186 -1.97886 -1.57162 -1.21657 0.0519321 0.12633 -0.0318847 0.184301 0.0957388 -2.30054 0.0125175 0.00266535 -0.208781 1.10445e-05 -7.34611e-07 -4.58606e-05 
26.982 1 290 8.51171 10.8902 5.12675 7.34394 -5.22442 -3.28813 -0.55608 -0.2236 0.714281 0.0108658 0.00160452 -0.267217 0.000158898 -0.000316311 -0.0233398 -9.83652e-06 -7.39831e-06 6.12426e-06 
26.982 1 92 6.20739 10.6255 3.50544 4.72544 -2.50283 -6.21635 0.456814 -0.253078 -0.475095 0.141431 -0.0231138 -1.98717 0.00897984 2.88912e-05 -0.17752 7.94695e-06 -4.8306e-06 -3.91337e-05 
26.982 1 231 31.6022 1.76163 6.52068 -6.60071 -0.74032 0.126864 -0.241135 -0.397683 -0.197379 -0.010112 -0.618229 -1.46577 -0.00888384 -0.0778684 -0.120056 -2.67089e-05 -6.90364e-05 -7.34322e-06 
26.982 1 293 10.6557 9.21568 5.18007 0.493577 3.3821 1.39197 0.0276098 -0.874536 0.0176304 0.00530674 0.0150159 -0.288551 0.00109424 0.000764324 -0.0264339 3.58992e-06 -1.66803e-05 -4.70799e-06 
26.982 1 56 10.8995 7.00891 3.17222 -2.56287 0.997418 1.57632 -0.227625 0.358576 -0.121322 0.050681 0.174023 -2.27296 0.00227504 0.00801189 -0.217831 -3.29921e-06 -1.74286e-06 -5.78717e-05 
26.982 1 95 12.6065 9.277 2.99062 4.75346 -2.59553 -4.21418 -0.33896 -0.376363 -0.181317 -0.0282814 0.150765 -2.60435 -0.00184919 0.00424466 -0.244165 -6.84356e-06 -5.30667e-06 -6.17886e-05 
26.982 1 254 13.1832 7.18822 4.89827 -4.5386 1.30252 -1.41131 -0.247908 -0.0867126 0.0335818 0.00594215 0.00701023 -0.274816 0.00126592 0.0024306 -0.0294488 -5.72295e-06 -8.87785e-07 -8.31401e-06 
26.982 1 60 15.0038 7.30589 2.63548 -1.56341 1.54278 -1.08314 0.350887 0.260507 0.108843 -0.011834 0.123902 -2.32504 -0.000272036 0.0111536 -0.217369 6.36913e-06 -3.09826e-06 -5.8161e-05 
26.982 1 297 14.8063 9.43022 4.61604 0.659001 5.02508 -1.58758 -0.470255 -0.134059 0.435805 0.0113081 0.0142439 -0.316758 0.00357986 0.000329055 -0.0315753 -6.53978e-06 -6.53039e-06 -5.98856e-06 
26.982 1 99 16.8684 9.44373 2.94652 4.7773 -2.27594 -1.43817 0.699202 -0.595537 -0.627625 -0.126352 0.181773 -2.43393 -0.00624088 0.0105164 -0.22289 2.05695e-05 -2.49704e-05 -4.96254e-05 
26.982 1 258 17.541 7.28023 4.83343 -7.48546 2.11156 -1.68744 0.238455 0.13719 -0.332691 -0.00639763 0.016883 -0.266858 -0.0036788 0.0054474 -0.0255679 3.06936e-06 5.11587e-06 -2.33982e-05 
26.982 1 2 -1.04529 3.52547 1.53254 -7.58099 2.13898 -5.89101 -0.565238 0.310575 -0.0581404 -0.946364 -1.41024 -2.6178 -0.0821909 -0.113259 -0.232534 -7.82966e-07 -3.90979e-05 -4.57965e-05 
26.982 1 64 19.8344 7.21949 2.9982 -1.25492 2.95353 -2.62792 -0.260608 -0.0960319 0.00946688 0.116325 -0.19071 -2.45097 0.00579857 -0.0162827 -0.243923 -1.13287e-05 2.00136e-06 -5.76706e-05 
26.982 1 301 19.5256 9.43797 5.05592 1.55468 3.12272 -0.00172176 -0.172889 0.111981 -0.243905 -0.0165038 0.0175156 -0.280533 -0.00520694 0.00320261 -0.0280223 -6.7954e-06 2.42234e-06 -1.43617e-05 
26.982 1 103 21.7571 9.22127 2.93954 4.50994 3.12634 4.58771 -0.430895 -0.372761 -0.116774 0.0760479 0.00499321 -2.52478 0.000270476 -0.00562473 -0.240595 -8.8931e-06 -1.8515e-06 -6.35208e-05 
26.982 1 262 21.8411 7.47563 5.02674 3.85416 3.92782 6.11448 -0.0548966 -0.539996 -0.338789 0.0027532 -0.0210152 -0.322807 -0.000720083 -0.00257041 -0.0324158 3.15538e-06 -1.32036e-05 -1.38288e-05 
26.982 1 305 23.897 9.15479 4.86793 -6.4844 6.98605 -1.80693 0.226691 0.275767 0.0404496 0.00808109 -0.00547751 -0.315675 -0.000412789 -0.00156107 -0.0304412 3.42274e-07 8.72592e-07 -3.55333e-06 
26.982 1 68 23.9856 7.05278 2.92395 5.8863 1.65029 3.25652 -0.217018 0.31992 0.541429 0.0961129 -0.178457 -2.79734 0.00162222 -0.0177007 -0.26565 -9.13667e-06 -4.9962e-06 -5.57328e-05 
26.982 1 107 25.8714 9.20919 2.80206 1.66444 5.42428 -0.542064 0.43827 0.36237 0.209374 0.24698 -0.186169 -2.87334 0.0105038 -0.00860174 -0.270771 -1.73996e-06 2.16563e-06 -6.19601e-05 
26.982 1 266 26.2686 7.12908 4.74117 0.543989 -2.23676 0.536662 0.0182331 0.328998 0.072693 0.00390427 -0.0101333 -0.372748 -0.000846195 -0.0033191 -0.034685 -3.38738e-06 3.59291e-07 -6.60431e-06 
26.982 1 72 28.264 7.45289 2.48263 -1.52488 -2.89912 6.07082 -0.0780264 -0.344767 0.535291 -0.120265 -0.0201859 -3.17323 -0.0118484 -0.00689443 -0.288669 -5.2682e-06 -2.80485e-06 -5.89869e-05 
26.982 1 309 28.081 9.35684 4.55056 7.33135 -2.2473 -1.08107 0.329218 0.134834 -0.337584 -0.0103732 -0.0112031 -0.374749 -0.00134649 -0.00131776 -0.0343947 4.6175e-06 8.50053e-07 -1.40223e-05 
26.982 1 111 30.2237 9.31513 2.60629 2.03031 4.74555 -3.05068 -0.0249086 0.629 -0.412905 -0.20417 -0.258891 -2.62346 -0.0143427 -0.0120422 -0.250292 -4.42272e-06 7.37433e-06 -6.30213e-05 
26.982 1 270 30.5897 7.66591 4.71333 -2.38679 -1.60076 -1.0281 -0.291147 -0.748763 -0.365849 -0.00995647 0.00365143 -0.341779 -0.000468973 0.00047011 -0.0321061 -5.96045e-06 -1.13216e-05 -9.79568e-06 
26.982 1 71 32.3648 7.70808 2.27694 -3.11403 5.93076 1.83146 0.252526 -0.210834 0.290167 -0.251462 -0.135759 -2.70579 -0.0206909 -0.0154435 -0.263788 -2.48124e-06 -5.54013e-06 -6.13664e-05 
26.982 1 76 34.9628 7.74375 4.17536 -0.927461 -0.589281 5.61073 -0.580422 0.0774745 0.203975 -0.012388 0.0258163 -2.52992 -0.00288146 -0.000476954 -0.203066 -1.08783e-05 1.88928e-06 -2.44345e-06 
26.982 1 116 34.3135 9.54361 2.2883 2.25556 -4.835 1.73959 0.335671 0.693602 -0.477636 0.106259 0.0347107 -2.31604 0.000519348 -0.00412099 -0.21407 5.70067e-07 1.16356e-05 -6.16642e-05 
26.982 1 310 32.4605 9.63122 4.43188 -3.5833 -1.71928 1.22921 0.131345 0.352768 -0.400912 -0.00526649 -0.0126992 -0.270628 -0.000138586 -0.0034754 -0.0289475 4.79362e-06 5.84122e-06 -9.50306e-06 
26.982 1 77 39.0621 6.1168 1.91399 0.401924 1.98701 0.978297 -0.170171 0.120782 0.0605492 0.0744515 -0.0585301 -1.89067 0.00795191 -0.00304672 -0.223098 -6.52038e-07 6.23452e-07 -6.28944e-05 
26.982 1 115 38.8102 8.17358 3.74258 1.90787 -2.82462 -3.55019 0.0194191 -0.00410254 0.470828 -0.273921 -0.122693 -2.15939 -0.0121921 -0.00685405 -0.169035 2.46612e-06 2.61967e-06 -9.11045e-08 
26.982 1 74 36.7737 7.88483 2.02382 0.750635 1.64397 -5.19177 -0.302338 0.246256 -0.170215 -0.00853487 -0.206426 -2.15409 -0.00968208 -0.0064519 -0.211772 -1.10974e-06 4.13869e-06 -6.81009e-05 
26.982 1 155 36.5658 10.0196 3.85973 3.84333 0.623061 -2.0144 0.129262 -0.21499 0.0297009 -0.0154195 0.200462 -2.54316 0.00600342 0.0189148 -0.190284 -6.5412e-07 -1.5565e-06 -8.32733e-06 
26.982 1 314 36.9915 7.84106 5.96761 0.135512 3.51365 2.17665 0.255452 0.561371 0.381292 -0.00384124 0.00247868 -0.257986 0.000594967 -0.000678953 -0.0189783 6.3414e-06 1.11175e-05 6.27557e-06 
26.982 1 274 39.1069 6.11892 6.14226 2.57658 -1.17992 -2.61625 -0.479655 -0.556289 -0.646857 0.005264 -0.0147821 -0.280438 0.00120228 -2.80648e-05 -0.0198433 -2.61219e-06 -1.25503e-06 -4.59211e-06 
26.982 1 320 39.0477 10.0284 5.76108 -0.146565 -7.4853 3.16316 -0.729256 -0.365642 0.00364554 0.0959866 -0.0262685 -0.0283769 0.00893611 -0.00190448 -0.00208267 -6.0883e-06 -9.91743e-06 2.11544e-06 
26.982 1 80 41.1169 6.38449 3.92289 2.03114 0.484902 6.26608 -0.0891643 0.213823 0.60195 0.0569443 -0.424792 -2.26593 0.00629028 -0.0195096 -0.171296 -1.85901e-06 6.08857e-08 3.40274e-06 
26.982 1 317 41.2297 9.51031 4.39743 3.51107 -0.936479 -1.45294 0.195308 -0.561358 0.272465 0.00424063 -0.00992068 -0.212729 -0.000987263 0.00154392 -0.0200239 -3.31677e-06 -2.39359e-06 -2.30991e-06 
26.982 1 78 42.8944 6.55496 1.89185 -2.12585 4.95144 -1.18356 0.23479 0.0308885 -0.709923 0.281647 -0.529574 -2.15141 0.0456095 -0.031639 -0.204715 2.87e-05 -3.1387e-06 -6.88532e-05 
26.982 1 119 43.497 8.95617 2.84274 -1.25423 -0.229449 0.920006 0.250085 -0.0804067 -0.393859 0.431484 -0.0439238 -2.43066 0.0422125 -0.00586443 -0.228882 2.08589e-05 -2.16619e-06 -4.62258e-05 
26.982 1 278 43.768 7.5686 5.05377 3.32123 -4.53009 5.40824 -0.22975 0.514821 -1.24102 0.537853 -0.500035 -0.35991 0.0429006 -0.0314306 -0.0328843 4.67431e-06 1.17992e-05 -1.39669e-05 
26.982 1 284 43.6919 10.5308 5.21706 -0.0678408 7.88577 5.43543 0.164929 0.172493 0.314083 -1.00992 -1.05491 -1.05663 -0.0220187 -0.0865058 -0.0843761 1.67381e-05 8.5983e-07 7.64404e-06 
26.982 1 117 40.8632 8.41476 2.01857 -2.00706 -0.913444 0.409238 -0.260691 0.44426 -0.900982 0.128948 0.0200364 -3.76666 0.00674506 0.00653687 -0.308427 -4.73207e-06 1.30937e-05 -6.88609e-05 
26.982 1 282 -1.75516 10.2324 3.92338 -0.540401 1.10638 -3.09288 -0.113234 -0.358094 0.0765712 -1.46212 -0.0115667 -0.722495 -0.138875 -0.00242211 -0.0714352 -1.63895e-05 -1.16381e-05 -1.27809e-05 
26.982 1 322 -2.19019 13.2271 3.82286 1.02289 5.07198 -3.90418 0.293489 -0.110202 0.0343683 -1.06592 -0.320265 -0.604035 -0.10487 -0.0209715 -0.0575639 -9.2548e-06 -3.11986e-06 8.8509e-06 
26.982 1 122 -0.577902 14.0146 1.39757 -3.40324 -2.31825 2.24331 0.123576 -0.398236 0.459085 -1.6138 0.0191472 -2.38081 -0.111667 0.0079669 -0.220507 8.25042e-06 1.27016e-05 -5.0593e-05 
26.982 1 325 0.223219 11.8746 3.22129 2.6909 -0.51477 -0.712793 -0.352269 0.386369 0.186767 -0.12118 -0.0288307 -0.269275 -0.00875242 -0.00741804 -0.036284 -5.94173e-06 -6.53531e-06 -1.42515e-05 
26.982 1 328 -0.237772 14.2898 5.2468 -3.40945 7.39309 -3.52354 -0.163311 -0.124052 -0.171339 -0.136334 -0.00533957 -0.0258415 -0.0120241 0.00313295 -0.00945927 -5.29686e-06 -1.97911e-06 -1.31934e-05 
26.982 1 2219 17.3405 20.4186 7.18328 -3.02597 7.14825 1.84861 -0.128016 -0.630709 0.0901606 -0.843093 0.481015 -1.9726 -0.0638176 0.0102532 -0.165181 1.06794e-05 3.67464e-07 -3.75033e-05 
26.982 1 124 -3.6054 14.1487 1.86922 -5.4396 9.31566 4.24958 -0.0494523 -0.0520318 -0.76262 -2.22559 -0.88603 -2.31131 -0.156136 -0.065861 -0.214484 -2.63993e-05 5.49338e-06 -4.76042e-05 
26.982 1 128 1.98618 13.9491 3.58225 -5.20232 0.751756 0.273306 -0.142094 0.237828 0.0180329 -0.298003 0.187035 -2.02373 -0.0247664 0.016404 -0.162698 -1.26372e-06 8.62299e-06 -2.33773e-05 
26.982 1 127 4.14462 12.2687 3.59116 -1.38328 3.67377 2.39275 -0.391201 0.0286934 -0.530641 0.00944079 -0.0498089 -1.76633 0.00264914 -0.00696664 -0.154298 -6.88336e-06 -3.04243e-06 -3.38351e-05 
26.982 1 326 4.13973 14.2854 5.3587 -2.99374 0.702742 1.16396 -0.815799 0.49839 0.678838 -0.0211484 -0.000880862 -0.188255 -0.00516034 0.000464676 -0.0165935 -1.69415e-05 9.76228e-06 6.73252e-06 
26.982 1 1193 35.7897 15.611 19.9426 5.64431 -3.42135 -1.02551 -0.0489761 0.0499532 0.132841 -0.731793 -0.973588 -1.40144 -0.0657895 -0.0883067 -0.101764 8.47002e-08 -1.42393e-05 1.73686e-05 
26.982 1 327 1.93746 12.0064 5.73938 -4.4647 -6.9487 -1.47497 -0.0434774 0.489903 -0.222416 -0.0091002 -0.0102898 -0.0158411 -0.00346389 -0.00691531 -0.00186969 -1.40046e-05 5.77231e-06 2.34063e-06 
26.982 1 329 6.21913 12.5977 5.55156 -3.83422 -3.99509 1.67298 0.290518 -0.316997 -0.257671 -0.00914232 -0.00929156 -0.206975 -0.00247442 -0.00241999 -0.0174468 6.95413e-06 -5.20664e-06 -3.56277e-06 
26.982 1 132 5.59254 14.6101 3.136 2.43389 4.77248 0.586116 0.640554 -0.108048 0.166424 0.175991 -0.0294855 -1.91295 0.0178328 -0.00181187 -0.177924 8.58426e-06 1.14696e-05 -5.01569e-05 
26.982 1 131 8.11521 12.8107 3.14453 -2.15074 1.45436 0.826925 -0.795731 0.342858 0.375229 0.165469 0.00352477 -2.29694 0.012033 0.00387356 -0.214447 -1.90252e-06 7.50526e-06 -5.32186e-05 
26.982 1 330 7.74457 14.8582 5.06979 -1.24015 3.96296 4.65919 0.181898 0.204747 0.283934 0.00846649 0.00407157 -0.256744 0.000558289 0.00102837 -0.0240463 4.99608e-06 7.47101e-06 -5.43513e-06 
26.982 1 294 12.2801 11.2989 4.87909 1.14883 9.9793 -1.92841 0.540895 0.0968163 0.483161 0.00624778 0.00736965 -0.321291 0.00202417 0.000220078 -0.0296987 7.77434e-06 -3.09925e-06 -6.51942e-07 
26.982 1 96 10.2245 11.1846 3.04027 6.7386 -0.334682 -2.62772 0.360777 -0.626861 0.00437296 0.0965252 -0.0639088 -2.57904 0.00877071 -0.00340959 -0.236827 2.90923e-06 -8.70653e-06 -6.70827e-05 
26.982 1 333 10.0072 13.1622 5.25482 -7.58352 0.997737 -1.67747 0.4337 0.196839 -0.978201 0.00341712 -0.0120389 -0.283926 -8.0436e-05 -0.0014641 -0.0261641 3.03013e-06 5.65385e-06 -1.87767e-05 
26.982 1 135 12.0524 13.2953 3.00125 -6.87621 -4.79926 -0.674387 0.07095 0.476251 -0.120072 0.0773655 -0.209229 -2.56069 0.000817633 -0.0141481 -0.244804 -4.263e-06 6.30125e-06 -6.03511e-05 
26.982 1 136 9.79676 15.191 3.03242 3.1195 -1.6341 4.24924 -0.117197 0.0178882 0.339849 -0.0618733 0.0198589 -2.4075 -0.00334637 0.00276796 -0.23159 -2.00641e-06 2.5053e-06 -5.7331e-05 
26.982 1 334 11.858 15.3937 5.08494 0.3365 0.585012 -1.5666 -0.322561 0.196816 -0.187664 0.0104919 -0.00352409 -0.277953 0.00236128 -0.000744392 -0.0273323 -7.14331e-06 7.04593e-06 -1.07707e-05 
26.982 1 100 14.3395 11.5674 2.96481 1.84681 -1.87605 -1.18939 0.0449258 0.149476 0.260532 0.0077162 0.0465838 -2.76632 -0.00464137 -0.00194568 -0.255323 -9.7215e-06 -6.38061e-07 -5.42632e-05 
26.982 1 337 14.1452 13.5697 5.02487 -4.38394 -6.44698 -3.30973 0.0435536 -0.296509 -0.549635 0.0165145 0.000874453 -0.319774 0.00417185 0.000858083 -0.0259557 2.77088e-06 -5.75992e-06 -1.0064e-05 
26.982 1 139 15.7717 14.1394 2.6933 0.41782 2.81347 5.16807 -0.132858 -0.614803 0.225726 -0.0259997 -0.0447539 -2.82674 0.0031479 -0.00294088 -0.261558 -1.25953e-05 -2.82382e-07 -5.63682e-05 
26.982 1 298 16.7234 11.5624 4.52254 2.90657 -0.866841 -1.00877 -0.241351 0.372153 -0.0474637 0.00830889 -0.00777856 -0.363352 0.00548904 -0.00360062 -0.0416637 3.43586e-06 3.19862e-06 -5.43398e-06 
26.982 1 338 15.9117 15.5625 5.0076 7.76152 -2.92724 3.47439 0.507918 1.02875 -0.13646 -0.0202236 -0.0166486 -0.302978 -0.00346649 0.000461395 -0.0264909 1.17594e-05 1.76098e-05 -3.48427e-06 
26.982 1 302 21.7469 11.2033 4.88973 -1.19135 -1.78384 1.59335 0.0101424 -0.410676 -0.237651 -0.0230197 0.0150254 -0.306612 -0.00736159 0.00403831 -0.0264832 -5.91239e-06 -1.3999e-06 -8.85352e-06 
26.982 1 104 19.5414 11.3474 2.9422 -6.68056 -4.4277 4.15452 -0.52727 -0.63499 0.687723 -0.0346574 0.190288 -2.58132 -0.00738967 0.0111967 -0.233638 1.16052e-05 -5.14046e-06 -5.15646e-05 
26.982 1 341 18.1788 13.7454 3.56176 -2.34106 4.53212 5.14927 0.166468 0.0325092 0.593517 -0.00858723 -0.0187573 -0.382082 0.00103649 -0.00265745 -0.0618753 1.71635e-05 6.66553e-06 -2.37715e-05 
26.982 1 304 18.8977 12.0924 5.9908 2.41915 -5.30372 2.12446 0.467746 -0.137538 -0.233977 -0.00727186 0.00335522 -0.0273279 -0.0019043 -0.000385278 -0.00662425 9.18843e-06 -7.98567e-06 -5.2313e-06 
26.982 1 143 20.829 13.7766 4.11155 -1.35178 -0.251448 4.22365 -0.283605 -0.150196 0.429079 0.0574666 -0.337117 -2.46812 -0.00293893 -0.0160588 -0.223409 4.9814e-06 2.66205e-06 -1.91473e-05 
26.982 1 342 20.0122 16.4398 4.14836 -6.22245 2.18917 1.85207 0.0561343 -0.504057 -0.393297 -0.00553903 -0.0080516 -0.262408 -0.00288391 -0.0015691 -0.0319995 7.66259e-06 -8.23487e-06 -2.5398e-05 
26.982 1 2816 13.5869 20.2739 19.056 2.55706 0.98462 3.00466 0.248797 -0.439029 0.0843268 -0.517697 -1.20763 -0.200412 -0.0492164 -0.118903 -0.0277411 -2.34661e-05 2.3266e-06 -3.86078e-06 
26.982 1 108 23.6775 11.0897 2.94358 4.05305 4.81675 6.18424 0.409975 0.17969 0.0460973 -0.07137 0.152776 -2.66614 -0.000902576 0.00808702 -0.250982 -6.51782e-06 9.28296e-06 -6.47639e-05 
26.982 1 306 25.8631 11.4041 4.75228 1.80217 -2.39696 -7.4559 0.291678 -0.143425 -0.514658 0.00550863 -0.00773333 -0.322823 0.00010617 -0.000535922 -0.032315 1.43906e-06 -1.42363e-06 -1.65983e-05 
26.982 1 148 23.199 16.738 4.52573 -1.74894 -7.38218 -5.80809 0.167197 -0.282602 -0.0439214 0.400346 0.0881722 -2.77875 0.0204148 0.0129988 -0.243133 -4.11834e-06 -1.47219e-05 -1.76422e-05 
26.982 1 345 23.5557 13.4469 4.3682 1.83632 0.609188 -5.70609 -0.767365 -0.147139 0.162373 0.00277081 0.0148252 -0.329158 -0.00211491 0.00379605 -0.0317221 -1.76167e-05 1.09364e-05 -1.99805e-05 
26.982 1 147 25.6224 13.1607 2.6909 -1.74936 -1.27803 -6.53066 0.812147 0.455887 -0.0443006 -0.131317 0.196989 -2.80779 -0.00926835 0.00740405 -0.265171 -2.44515e-06 8.10543e-06 -7.0077e-05 
26.982 1 385 25.5996 15.0145 4.71062 7.17254 -0.242994 -1.19797 0.315702 0.980315 -0.183405 -0.0032475 0.0116283 -0.351152 -0.00789398 0.00577649 -0.0312952 -7.856e-06 1.61258e-05 -1.79911e-05 