LAMMPS (28 Jun 2014)
# Input file for uniaxial tensile loading of single crystal aluminum
# Mark Tschopp, November 2010

# ------------------------ INITIALIZATION ----------------------------
units 		metal
dimension	3
boundary	p	p	p
atom_style	atomic
variable latparam equal 4.05

# ----------------------- ATOM DEFINITION ----------------------------
lattice		fcc ${latparam}
lattice		fcc 4.05
Lattice spacing in x,y,z = 4.05 4.05 4.05
region		whole block 0 10 0 10 0 10
create_box	1 whole
Created orthogonal box = (0 0 0) to (40.5 40.5 40.5)
  1 by 2 by 2 MPI processor grid
lattice 	fcc ${latparam} orient x 1 0 0 orient y 0 1 0 orient z 0 0 1
lattice 	fcc 4.05 orient x 1 0 0 orient y 0 1 0 orient z 0 0 1
Lattice spacing in x,y,z = 4.05 4.05 4.05
create_atoms	1 region whole
Created 4000 atoms

# ------------------------ FORCE FIELDS ------------------------------
pair_style	eam/alloy
pair_coeff	* * Al99.PosFRho.PosRhoR.ZeroPhiR.eam.alloy Al

# ------------------------- SETTINGS ---------------------------------
compute csym all centro/atom fcc
compute peratom all pe/atom

######################################
# EQUILIBRATION
reset_timestep	0
timestep 0.001
velocity all create 300 12345 mom yes rot no
fix 1 all npt temp 300 300 1 iso 0 0 1 drag 1

# Set thermo output
thermo 1000
thermo_style custom step lx ly lz press pxx pyy pzz pe temp

# Run for at least 10 picosecond (assuming 1 fs timestep)
run 20000
Memory usage per processor = 3.04301 Mbytes
Step Lx Ly Lz Press Pxx Pyy Pzz PotEng Temp 
       0         40.5         40.5         40.5    2514.9377    2465.8045    2553.4685      2525.54    -13435.68          300 
    1000    40.557955    40.557955    40.557955    865.55572    853.96284    837.81814    904.88618   -13356.809    165.23525 
    2000    40.571854    40.571854    40.571854    261.93948    197.40177    288.74395    299.67272   -13352.109    178.75375 
    3000    40.580743    40.580743    40.580743    102.22209    16.841494    199.25499    90.569786   -13345.685    189.32548 
    4000    40.588482    40.588482    40.588482    62.886906    18.388656     36.48851    133.78355   -13336.168    193.91009 
    5000    40.593382    40.593382    40.593382    185.58786    268.63844    245.08823    43.036919   -13329.935    204.60077 
    6000    40.600525    40.600525    40.600525    88.188666    106.41827   -19.168927    177.31666    -13323.02    213.46619 
    7000    40.608122    40.608122    40.608122   -20.329799   -23.739002    69.273918   -106.52431   -13317.468    224.22247 
    8000     40.61267     40.61267     40.61267      64.9773    49.800351    109.88632    35.245234    -13313.64    237.29963 
    9000    40.618334    40.618334    40.618334   -5.2772649   -100.32142    99.635015   -15.145389   -13311.581    252.61367 
   10000    40.626388    40.626388    40.626388   -42.732499   -29.071468    42.099464   -141.22549   -13301.829    251.62176 
   11000    40.629746    40.629746    40.629746    -6.325446   -247.37025    107.31875    121.07515   -13298.784    262.04554 
   12000    40.633117    40.633117    40.633117   -77.348901     63.48461   -139.37253   -156.15878   -13297.088     273.3998 
   13000    40.640299    40.640299    40.640299   -207.12934   -289.23775   -382.14198    49.991704   -13293.922    280.15971 
   14000    40.641296    40.641296    40.641296   -76.852226   -361.25494    11.865208    118.83305   -13289.324    282.38528 
   15000      40.6419      40.6419      40.6419    155.24683     374.7899   -40.337145    131.28774   -13286.546    286.41932 
   16000    40.641859    40.641859    40.641859    240.81257    256.85733    75.116097    390.46429   -13285.596    292.32075 
   17000    40.648186    40.648186    40.648186   -101.29202   -114.24374   -72.616031   -117.01628   -13285.044    297.38162 
   18000    40.646686    40.646686    40.646686    244.61592    351.67524    87.742462    294.43006    -13281.28    294.75069 
   19000    40.648842    40.648842    40.648842    87.944752   -42.001548    120.67388    185.16192   -13280.532    296.51092 
   20000    40.650367    40.650367    40.650367    15.124847   -236.03812    136.47695    144.93571   -13279.373     296.1597 
Loop time of 287.307 on 4 procs for 20000 steps with 4000 atoms

Pair  time (%) = 224.608 (78.1771)
Neigh time (%) = 0 (0)
Comm  time (%) = 45.8317 (15.9521)
Outpt time (%) = 0.00234443 (0.000816001)
Other time (%) = 16.8649 (5.86997)

Nlocal:    1000 ave 1000 max 1000 min
Histogram: 4 0 0 0 0 0 0 0 0 0
Nghost:    4235 ave 4235 max 4235 min
Histogram: 4 0 0 0 0 0 0 0 0 0
Neighs:    70000 ave 72653 max 67302 min
Histogram: 1 0 1 0 0 0 0 1 0 1
FullNghs:  0 ave 0 max 0 min
Histogram: 4 0 0 0 0 0 0 0 0 0

Total # of neighbors = 280000
Ave neighs/atom = 70
Neighbor list builds = 0
Dangerous builds = 0
unfix 1

# Store final cell length for strain calculations
variable tmp equal "lx"
variable L0 equal ${tmp}
variable L0 equal 40.6503669541765
print "Initial Length, L0: ${L0}"
Initial Length, L0: 40.6503669541765

######################################
# DEFORMATION
reset_timestep	0

fix		1 all npt temp 300 300 1 y 0 0 1 z 0 0 1 drag 1
variable srate equal 1.0e10
variable srate1 equal "v_srate / 1.0e12"
fix		2 all deform 1 x erate ${srate1} units box remap x
fix		2 all deform 1 x erate 0.01 units box remap x

# Output strain and stress info to file
# for units metal, pressure is in [bars] = 100 [kPa] = 1/10000 [GPa]
# p2, p3, p4 are in GPa
variable strain equal "(lx - v_L0)/v_L0"
variable p1 equal "v_strain"
variable p2 equal "-pxx/10000"
variable p3 equal "-pyy/10000"
variable p4 equal "-pzz/10000"
fix def1 all print 20 "${p1} ${p2} ${p3} ${p4}" file  Al99.PosFRho.PosRhoR.ZeroPhiR.eam.alloy.def1.txt screen no

# Use cfg for AtomEye
#dump 		1 all cfg 250 dump.tensile_*.cfg id type xs ys zs c_csym c_peratom fx fy fz
#dump_modify 1 element Al

# Display thermo
thermo 	1000
thermo_style	custom step v_strain temp v_p2 v_p3 v_p4 ke pe press

run		20000
Memory usage per processor = 3.04301 Mbytes
Step strain Temp p2 p3 p4 KinEng PotEng Press 
       0 1.2235558e-15     296.1597  0.023603812 -0.013647695 -0.014493571     153.0883   -13279.373    15.124847 
    1000         0.01    295.88837   0.64548126 0.0071586634 0.0082529109    152.94805   -13276.651   -2202.9761 
    2000         0.02    301.70802     1.273368 -0.015469604 -0.0036076796    155.95629   -13274.282   -4180.9689 
    3000         0.03    299.57321    1.9110277 -0.0023133761  0.025772649    154.85278   -13265.062   -6448.2898 
    4000         0.04    294.53033    2.5006268 -0.0060589441  -0.04054008    152.24606   -13251.756   -8180.0925 
    5000         0.05     294.5268    3.1056695 -0.0011934121  -0.01675109    152.24424   -13238.448   -10292.417 
    6000         0.06    297.83557    3.6892532 -0.021796902 -0.0003177389    153.95458   -13224.433   -12223.795 
    7000         0.07    301.02846    4.3075398 0.0081612273  0.021822144    155.60502   -13208.009   -14458.411 
    8000         0.08    300.33941    4.8374063   0.01553233  0.030900584    155.24884   -13187.275   -16279.464 
    9000         0.09    301.08336    5.4069336 -0.026117947 -0.008598343    155.63339   -13164.994   -17907.391 
   10000          0.1    301.02464    5.9429925 -0.030534474 -0.015481887    155.60304   -13139.995   -19656.587 
   11000         0.11    302.22151    6.4837137  0.010122775  0.026614936    156.22172   -13113.451   -21734.838 
   12000         0.12    296.91134    6.9488025  0.054362438 0.0098139081    153.47683   -13081.436   -23376.596 
   13000         0.13    297.95281     7.435657 -0.043151532  0.019042623    154.01518   -13050.581    -24705.16 
   14000         0.14    285.83922    7.7055538 -0.055821742 -0.051200454    147.75353    -13011.06   -25328.439 
   15000         0.15    290.74977    7.8943889 -0.013177586  0.013652472    150.29185   -12978.784   -26316.213 
   16000         0.16    374.39598    3.2818891 -0.013064249  0.023564747    193.52952   -13004.438   -10974.632 
   17000         0.17    420.55321    1.8202921 -0.014203724  0.012514095    217.38872   -13038.771   -6062.0083 
   18000         0.18    437.89508    1.2474584 -0.027028197  0.020786298    226.35292   -13069.517   -4137.3884 
   19000         0.19    448.47837   0.67644516  0.081141942 -0.0081974693    231.82355    -13102.78   -2497.9654 
   20000          0.2    434.85549   0.80463316 -0.073988589  0.087722892    224.78173   -13125.678   -2727.8915 
Loop time of 364.662 on 4 procs for 20000 steps with 4000 atoms

Pair  time (%) = 285.484 (78.2873)
Neigh time (%) = 0.561862 (0.154077)
Comm  time (%) = 55.4013 (15.1925)
Outpt time (%) = 0.00336558 (0.00092293)
Other time (%) = 23.2115 (6.36521)

Nlocal:    1000 ave 1006 max 997 min
Histogram: 1 1 1 0 0 0 0 0 0 1
Nghost:    3760.75 ave 3783 max 3745 min
Histogram: 1 1 0 0 0 1 0 0 0 1
Neighs:    69051.8 ave 70196 max 68057 min
Histogram: 1 0 1 0 0 0 1 0 0 1
FullNghs:  0 ave 0 max 0 min
Histogram: 4 0 0 0 0 0 0 0 0 0

Total # of neighbors = 276207
Ave neighs/atom = 69.0517
Neighbor list builds = 93
Dangerous builds = 0

######################################
# SIMULATION DONE
print "All done"
All done
