LAMMPS (28 Jun 2014)
# Input file for uniaxial tensile loading of single crystal aluminum
# Mark Tschopp, November 2010

# ------------------------ INITIALIZATION ----------------------------
units 		metal
dimension	3
boundary	p	p	p
atom_style	atomic
variable latparam equal 4.05

# ----------------------- ATOM DEFINITION ----------------------------
lattice		fcc ${latparam}
lattice		fcc 4.05
Lattice spacing in x,y,z = 4.05 4.05 4.05
region		whole block 0 10 0 10 0 10
create_box	1 whole
Created orthogonal box = (0 0 0) to (40.5 40.5 40.5)
  1 by 2 by 2 MPI processor grid
lattice 	fcc ${latparam} orient x 1 0 0 orient y 0 1 0 orient z 0 0 1
lattice 	fcc 4.05 orient x 1 0 0 orient y 0 1 0 orient z 0 0 1
Lattice spacing in x,y,z = 4.05 4.05 4.05
create_atoms	1 region whole
Created 4000 atoms

# ------------------------ FORCE FIELDS ------------------------------
pair_style	eam/alloy
pair_coeff	* * Al99.PosFRho.ZeroRhoR.ZeroPhiR.eam.alloy Al

# ------------------------- SETTINGS ---------------------------------
compute csym all centro/atom fcc
compute peratom all pe/atom

######################################
# EQUILIBRATION
reset_timestep	0
timestep 0.001
velocity all create 300 12345 mom yes rot no
fix 1 all npt temp 300 300 1 iso 0 0 1 drag 1

# Set thermo output
thermo 1000
thermo_style custom step lx ly lz press pxx pyy pzz pe temp

# Run for at least 10 picosecond (assuming 1 fs timestep)
run 20000
Memory usage per processor = 3.04301 Mbytes
Step Lx Ly Lz Press Pxx Pyy Pzz PotEng Temp 
       0         40.5         40.5         40.5    2496.1213    2446.9882    2534.6521    2506.7236    -13431.36          300 
    1000    40.557688    40.557688    40.557688    864.80851    853.26655     837.0248    904.13418   -13352.485    165.23449 
    2000    40.571585    40.571585    40.571585     261.1937     196.3212    288.45699    298.80291    -13347.79    178.76511 
    3000    40.580476    40.580476    40.580476    101.72482    16.211032    198.59829    90.365126   -13341.353    189.31221 
    4000    40.588224    40.588224    40.588224    63.075476    18.160818    36.785352    134.28026   -13331.834    193.89078 
    5000    40.593138    40.593138    40.593138    183.74777    268.49341    243.44089    39.308999   -13325.605    204.58945 
    6000    40.600279    40.600279    40.600279    87.337845    103.05623    -18.51059     177.4679   -13318.687    213.44964 
    7000    40.607879    40.607879    40.607879   -21.871973   -27.693475    68.850243   -106.77269   -13313.121    224.17683 
    8000    40.612483    40.612483    40.612483    56.928607    42.438581    98.826559    29.520681   -13309.436    237.53243 
    9000    40.618077    40.618077    40.618077   -6.9707133   -98.584556    99.025028   -21.352612   -13307.281    252.65865 
   10000    40.626178    40.626178    40.626178   -48.630554   -32.641625    33.605728   -146.85576   -13297.531    251.66941 
   11000     40.62966     40.62966     40.62966    -13.90355   -265.60922    109.90377     113.9948   -13294.457    262.03732 
   12000     40.63277     40.63277     40.63277   -65.724403    79.438553   -118.26608   -158.34568   -13292.661    273.19862 
   13000    40.639715    40.639715    40.639715   -175.75973   -258.87346   -352.18786    83.782123   -13289.596    280.15265 
   14000    40.640555    40.640555    40.640555   -41.237849   -329.49242    34.292289    171.48658   -13285.022    282.42364 
   15000    40.642492    40.642492    40.642492    91.186906    302.52121   -96.857611    67.897118    -13282.68    287.30232 
   16000    40.642171    40.642171    40.642171    224.28456    168.83595    167.48316    336.53456   -13281.638     293.0326 
   17000    40.648446    40.648446    40.648446   -158.31718    -242.4087   -173.00657   -59.536262   -13281.167    298.24501 
   18000    40.646011    40.646011    40.646011    238.10381    422.88109   -36.351872    327.78221   -13276.984    294.80959 
   19000    40.650492    40.650492    40.650492   -30.743609     68.86628   -186.67111    25.574001   -13275.794    295.68737 
   20000    40.646401    40.646401    40.646401    121.50858    216.90554    -189.7772    337.39741   -13277.161    300.23005 
Loop time of 202.723 on 4 procs for 20000 steps with 4000 atoms

Pair  time (%) = 181.615 (89.5875)
Neigh time (%) = 0 (0)
Comm  time (%) = 15.1833 (7.48969)
Outpt time (%) = 0.00235778 (0.00116305)
Other time (%) = 5.92297 (2.9217)

Nlocal:    1000 ave 1000 max 1000 min
Histogram: 4 0 0 0 0 0 0 0 0 0
Nghost:    4235 ave 4235 max 4235 min
Histogram: 4 0 0 0 0 0 0 0 0 0
Neighs:    70000 ave 72653 max 67302 min
Histogram: 1 0 1 0 0 0 0 1 0 1
FullNghs:  0 ave 0 max 0 min
Histogram: 4 0 0 0 0 0 0 0 0 0

Total # of neighbors = 280000
Ave neighs/atom = 70
Neighbor list builds = 0
Dangerous builds = 0
unfix 1

# Store final cell length for strain calculations
variable tmp equal "lx"
variable L0 equal ${tmp}
variable L0 equal 40.6464009560834
print "Initial Length, L0: ${L0}"
Initial Length, L0: 40.6464009560834

######################################
# DEFORMATION
reset_timestep	0

fix		1 all npt temp 300 300 1 y 0 0 1 z 0 0 1 drag 1
variable srate equal 1.0e10
variable srate1 equal "v_srate / 1.0e12"
fix		2 all deform 1 x erate ${srate1} units box remap x
fix		2 all deform 1 x erate 0.01 units box remap x

# Output strain and stress info to file
# for units metal, pressure is in [bars] = 100 [kPa] = 1/10000 [GPa]
# p2, p3, p4 are in GPa
variable strain equal "(lx - v_L0)/v_L0"
variable p1 equal "v_strain"
variable p2 equal "-pxx/10000"
variable p3 equal "-pyy/10000"
variable p4 equal "-pzz/10000"
fix def1 all print 20 "${p1} ${p2} ${p3} ${p4}" file  Al99.PosFRho.ZeroRhoR.ZeroPhiR.eam.alloy.def1.txt screen no

# Use cfg for AtomEye
#dump 		1 all cfg 250 dump.tensile_*.cfg id type xs ys zs c_csym c_peratom fx fy fz
#dump_modify 1 element Al

# Display thermo
thermo 	1000
thermo_style	custom step v_strain temp v_p2 v_p3 v_p4 ke pe press

run		20000
Memory usage per processor = 3.04301 Mbytes
Step strain Temp p2 p3 p4 KinEng PotEng Press 
       0 1.0488644e-15    300.23005 -0.021690554   0.01897772 -0.033739741    155.19231   -13277.161    121.50858 
    1000         0.01    299.56086   0.64850571 -0.0037897228  0.025908386     154.8464   -13274.368   -2235.4146 
    2000         0.02    298.55845    1.2629354 -0.00088306237 0.0088972529    154.32824   -13268.477   -4236.4985 
    3000         0.03    301.64954    1.9243982  0.023561394  0.020247423    155.92606   -13261.983   -6560.6899 
    4000         0.04    292.87518    2.5000789 -0.032399176 -0.030366048     151.3905   -13246.698   -8124.3791 
    5000         0.05    298.02469    3.1175421  0.017714647  0.007869394    154.05234   -13236.078   -10477.087 
    6000         0.06    297.27431    3.7295532  0.027999226  0.056825183    153.66446    -13219.92   -12714.592 
    7000         0.07    299.61079    4.2877606 0.0063373904 -0.027337596    154.87221   -13203.049   -14222.535 
    8000         0.08    293.09672    4.7708578 -0.075605353 -0.0089332148    151.50501   -13179.368   -15621.064 
    9000         0.09    299.71744    5.3939838  0.036455787  0.013583552    154.92734   -13160.119   -18146.744 
   10000          0.1    295.53553    5.8824558 -0.080353447   -0.0713901    152.76566   -13133.029   -19102.374 
   11000         0.11    300.18154    6.4810274 -0.048005742 -0.0027094462    155.16723   -13108.344   -21434.374 
   12000         0.12    293.32721     6.900221  0.026497294  -0.01949718    151.62415   -13075.608   -23024.071 
   13000         0.13    297.04584    7.3810191  0.043801457  0.070945586    153.54636   -13046.212   -24985.887 
   14000         0.14    294.04248    7.7485219 -0.027161588 -0.0080507001    151.99388   -13011.446   -25711.032 
   15000         0.15    301.36929     7.270809 -0.082488203  -0.11743837     155.7812   -12980.792   -23569.608 
   16000         0.16    369.35167    3.5895857  0.048088474  0.069823098    190.92206   -13004.496   -12358.324 
   17000         0.17    379.42451    2.6810385  0.058762766  0.027191455    196.12882   -13016.262   -9223.3091 
   18000         0.18    379.71546    2.2877411 -0.022782711 -0.038614399    196.27922   -13025.357   -7421.1466 
   19000         0.19    393.56633    2.0133463   0.10649459  0.032118211    203.43889   -13043.259   -7173.1971 
   20000          0.2    382.82681    1.9052671 -0.026422038   0.08085824    197.88751   -13050.127   -6532.3443 
Loop time of 255.937 on 4 procs for 20000 steps with 4000 atoms

Pair  time (%) = 234.008 (91.4318)
Neigh time (%) = 0.484092 (0.189145)
Comm  time (%) = 15.0673 (5.88709)
Outpt time (%) = 0.00290334 (0.0011344)
Other time (%) = 6.37494 (2.49082)

Nlocal:    1000 ave 1014 max 976 min
Histogram: 1 0 0 0 0 0 1 0 1 1
Nghost:    3753.75 ave 3770 max 3741 min
Histogram: 1 0 1 0 1 0 0 0 0 1
Neighs:    68673.5 ave 70368 max 67601 min
Histogram: 2 0 0 0 0 1 0 0 0 1
FullNghs:  0 ave 0 max 0 min
Histogram: 4 0 0 0 0 0 0 0 0 0

Total # of neighbors = 274694
Ave neighs/atom = 68.6735
Neighbor list builds = 86
Dangerous builds = 0

######################################
# SIMULATION DONE
print "All done"
All done
