LAMMPS (28 Jun 2014)
# Input file for uniaxial tensile loading of single crystal aluminum
# Mark Tschopp, November 2010

# ------------------------ INITIALIZATION ----------------------------
units 		metal
dimension	3
boundary	p	p	p
atom_style	atomic
variable latparam equal 4.05

# ----------------------- ATOM DEFINITION ----------------------------
lattice		fcc ${latparam}
lattice		fcc 4.05
Lattice spacing in x,y,z = 4.05 4.05 4.05
region		whole block 0 10 0 10 0 10
create_box	1 whole
Created orthogonal box = (0 0 0) to (40.5 40.5 40.5)
  1 by 2 by 2 MPI processor grid
lattice 	fcc ${latparam} orient x 1 0 0 orient y 0 1 0 orient z 0 0 1
lattice 	fcc 4.05 orient x 1 0 0 orient y 0 1 0 orient z 0 0 1
Lattice spacing in x,y,z = 4.05 4.05 4.05
create_atoms	1 region whole
Created 4000 atoms

# ------------------------ FORCE FIELDS ------------------------------
pair_style	eam/alloy
pair_coeff	* * Al99.NegFRho.PosRhoR.PosPhiR.eam.alloy Al

# ------------------------- SETTINGS ---------------------------------
compute csym all centro/atom fcc
compute peratom all pe/atom

######################################
# EQUILIBRATION
reset_timestep	0
timestep 0.001
velocity all create 300 12345 mom yes rot no
fix 1 all npt temp 300 300 1 iso 0 0 1 drag 1

# Set thermo output
thermo 1000
thermo_style custom step lx ly lz press pxx pyy pzz pe temp

# Run for at least 10 picosecond (assuming 1 fs timestep)
run 20000
Memory usage per processor = 3.04301 Mbytes
Step Lx Ly Lz Press Pxx Pyy Pzz PotEng Temp 
       0         40.5         40.5         40.5    2837.5703    2788.4372    2876.1012    2848.1726   -13434.415          300 
    1000    40.563048    40.563048    40.563048    875.48279    863.90187    847.93748    914.60902   -13355.578    165.19299 
    2000    40.577061    40.577061    40.577061    267.53763    206.01805     292.3219    304.27293    -13350.81    178.58162 
    3000    40.585915    40.585915    40.585915    109.35416    23.822096    207.71406    96.526325   -13344.444    189.27153 
    4000     40.59369     40.59369     40.59369    57.598131     16.82719    27.213163    128.75404   -13335.061    194.11839 
    5000    40.598522    40.598522    40.598522    191.19148    258.53346    250.49039    64.550584   -13328.743    204.64897 
    6000    40.605651    40.605651    40.605651    91.147473    131.68022   -24.692778    166.45497   -13321.839    213.54521 
    7000    40.613082    40.613082    40.613082   -3.6483685    19.531016    67.689919    -98.16604   -13316.339    224.41063 
    8000    40.617237    40.617237    40.617237    138.07032    148.12288    204.35765    61.730447   -13311.201    234.96644 
    9000    40.623697    40.623697    40.623697    12.284239    -112.6332     117.7198    31.766118   -13309.697    251.36274 
   10000    40.631367    40.631367    40.631367   -12.756038   -51.440566    132.79103   -119.61858   -13300.613    251.67664 
   11000    40.634677    40.634677    40.634677   -33.866374    -79.98508   -27.267796    5.6537544   -13298.615    264.14154 
   12000    40.638441    40.638441    40.638441   -61.251385   -6.7833412   -108.67727   -68.293542   -13295.623    273.01139 
   13000    40.645476    40.645476    40.645476    -178.6822   -285.30155   -117.85597   -132.88909   -13291.637    278.19691 
   14000    40.646341    40.646341    40.646341   -53.493781   -37.911849   -82.848749   -39.720745   -13287.329    281.00374 
   15000    40.647031    40.647031    40.647031    95.745358    21.397934    174.08071    91.757433   -13284.409    284.77282 
   16000    40.647312    40.647312    40.647312    303.68678    441.19079    205.48435     264.3852   -13282.758    289.29879 
   17000    40.650216    40.650216    40.650216    189.01161    208.51991    187.34549    171.16945   -13281.107     292.2328 
   18000    40.652278    40.652278    40.652278    152.94191    141.68306    268.89872    48.243948   -13280.831    296.30166 
   19000    40.653846    40.653846    40.653846    45.543747     290.6435    99.036554   -253.04881   -13281.378    300.60243 
   20000    40.653845    40.653845    40.653845    234.82096    422.90066    371.15162   -89.589403   -13278.127    296.22367 
Loop time of 205.055 on 4 procs for 20000 steps with 4000 atoms

Pair  time (%) = 183.733 (89.6021)
Neigh time (%) = 0 (0)
Comm  time (%) = 15.5457 (7.58125)
Outpt time (%) = 0.00245821 (0.00119881)
Other time (%) = 5.77321 (2.81545)

Nlocal:    1000 ave 1000 max 1000 min
Histogram: 4 0 0 0 0 0 0 0 0 0
Nghost:    4235 ave 4235 max 4235 min
Histogram: 4 0 0 0 0 0 0 0 0 0
Neighs:    70000 ave 72653 max 67302 min
Histogram: 1 0 1 0 0 0 0 1 0 1
FullNghs:  0 ave 0 max 0 min
Histogram: 4 0 0 0 0 0 0 0 0 0

Total # of neighbors = 280000
Ave neighs/atom = 70
Neighbor list builds = 0
Dangerous builds = 0
unfix 1

# Store final cell length for strain calculations
variable tmp equal "lx"
variable L0 equal ${tmp}
variable L0 equal 40.6538447774074
print "Initial Length, L0: ${L0}"
Initial Length, L0: 40.6538447774074

######################################
# DEFORMATION
reset_timestep	0

fix		1 all npt temp 300 300 1 y 0 0 1 z 0 0 1 drag 1
variable srate equal 1.0e10
variable srate1 equal "v_srate / 1.0e12"
fix		2 all deform 1 x erate ${srate1} units box remap x
fix		2 all deform 1 x erate 0.01 units box remap x

# Output strain and stress info to file
# for units metal, pressure is in [bars] = 100 [kPa] = 1/10000 [GPa]
# p2, p3, p4 are in GPa
variable strain equal "(lx - v_L0)/v_L0"
variable p1 equal "v_strain"
variable p2 equal "-pxx/10000"
variable p3 equal "-pyy/10000"
variable p4 equal "-pzz/10000"
fix def1 all print 20 "${p1} ${p2} ${p3} ${p4}" file  Al99.NegFRho.PosRhoR.PosPhiR.eam.alloy.def1.txt screen no

# Use cfg for AtomEye
#dump 		1 all cfg 250 dump.tensile_*.cfg id type xs ys zs c_csym c_peratom fx fy fz
#dump_modify 1 element Al

# Display thermo
thermo 	1000
thermo_style	custom step v_strain temp v_p2 v_p3 v_p4 ke pe press

run		20000
Memory usage per processor = 3.04301 Mbytes
Step strain Temp p2 p3 p4 KinEng PotEng Press 
       0 -1.0486724e-15    296.22367 -0.042290066 -0.037115162 0.0089589403    153.12137   -13278.127    234.82096 
    1000         0.01    296.36501   0.63404573 0.00083547147 -0.025426457    153.19443   -13275.701   -2031.5158 
    2000         0.02    303.67701    1.2875357 -0.013630107  0.011016109    156.97409   -13274.112   -4283.0722 
    3000         0.03    300.08622    1.9012067  0.016494151 -0.0086617466    155.11796   -13264.107   -6363.4638 
    4000         0.04    298.43198    2.5299291 -0.029854072 -0.018638896    154.26287   -13252.477   -8271.4539 
    5000         0.05    298.44463    3.1261907 -0.0038658524  0.013803124    154.26941   -13239.152    -10453.76 
    6000         0.06     298.2899    3.7192443  0.015414702   0.03451682    154.18943   -13223.314   -12563.919 
    7000         0.07    300.36173    4.2501621 -0.001613174 -0.021474133    155.26038   -13206.285   -14090.249 
    8000         0.08    295.42673    4.7877679 -0.016753811 -0.058714271    152.70942   -13183.374   -15707.666 
    9000         0.09    297.60055    5.3797942  0.018776533  0.036461648     153.8331   -13161.876   -18116.775 
   10000          0.1    299.93388    5.9143176  0.010271493 -0.032844825    155.03922   -13138.172   -19639.148 
   11000         0.11    294.25404    6.4375497  0.034856168 -0.028092607    152.10324   -13108.112   -21481.044 
   12000         0.12    298.21466    6.8955688 0.00020620391  0.083953375    154.15053   -13080.858   -23265.761 
   13000         0.13    297.13132    7.3961973   0.03788811  0.020342883    153.59054   -13048.953   -24848.094 
   14000         0.14    295.16684    7.7866827 -0.017589925 -0.0091326326    152.57508   -13014.711   -25866.534 
   15000         0.15    321.07422    6.4624897  0.047144741 0.0084675806     165.9669   -12995.285   -21727.007 
   16000         0.16    376.61366    2.7722962  0.015514813  0.017177892    194.67587   -13019.611   -9349.9629 
   17000         0.17    395.13484    2.4213613 -0.0093724196  0.058357818    204.24967   -13037.863   -8234.4889 
   18000         0.18    401.53548     2.118142 -0.0038982334 -0.061013724    207.55824   -13053.671   -6844.1001 
   19000         0.19    396.46189    1.9006118   0.07509612   0.14149187    204.93564   -13064.487   -7057.3327 
   20000          0.2    385.95655    1.8040882  0.011762572  0.034261234    199.50531   -13072.144     -6167.04 
Loop time of 263.613 on 4 procs for 20000 steps with 4000 atoms

Pair  time (%) = 237.086 (89.9374)
Neigh time (%) = 0.478906 (0.18167)
Comm  time (%) = 19.2408 (7.29887)
Outpt time (%) = 0.00375545 (0.00142461)
Other time (%) = 6.80288 (2.58063)

Nlocal:    1000 ave 1030 max 986 min
Histogram: 2 0 1 0 0 0 0 0 0 1
Nghost:    3727.75 ave 3747 max 3712 min
Histogram: 1 0 0 1 1 0 0 0 0 1
Neighs:    68741.2 ave 72850 max 66516 min
Histogram: 2 0 0 1 0 0 0 0 0 1
FullNghs:  0 ave 0 max 0 min
Histogram: 4 0 0 0 0 0 0 0 0 0

Total # of neighbors = 274965
Ave neighs/atom = 68.7412
Neighbor list builds = 84
Dangerous builds = 0

######################################
# SIMULATION DONE
print "All done"
All done
