
# ----------------------- ATOM DEFINITION ----------------------------
lattice		fcc ${latparam}
lattice		fcc 4.05
Lattice spacing in x,y,z = 4.05 4.05 4.05
region		whole block 0 10 0 10 0 10
create_box	1 whole
Created orthogonal box = (0 0 0) to (40.5 40.5 40.5)
  1 by 2 by 2 MPI processor grid
lattice 	fcc ${latparam} orient x 1 0 0 orient y 0 1 0 orient z 0 0 1
lattice 	fcc 4.05 orient x 1 0 0 orient y 0 1 0 orient z 0 0 1
Lattice spacing in x,y,z = 4.05 4.05 4.05
create_atoms	1 region whole
Created 4000 atoms

# ------------------------ FORCE FIELDS ------------------------------

#****************USE THIS TO TEST******************
pair_style	eam/rad
pair_coeff 			* * Al99.PC0.1.eam.alloy.rad.txt Al # pc = 0.1

# ------------------------- SETTINGS ---------------------------------
compute csym all centro/atom fcc
compute peratom all pe/atom

######################################
# EQUILIBRATION
reset_timestep	0
timestep	0.001 # default
# timestep	0.0001 # tiny time step
velocity all create 300 12345 mom yes rot no
fix 1 all npt temp 300 300 1 iso 0 0 1 drag 1

# Set thermo output
thermo 50
# thermo 1 # debug mode

# thermo_style custom step lx ly lz press pxx pyy pzz pe temp
# IMPLEMENTATION HERE

# VERSION add rad variables .v1 .v2
# thermo_style custom step lx ly lz press pxx pyy pzz pxxrad pyyrad pzzrad pe temp

# VERSION ublb separation .v3
thermo_style custom step lx ly lz press pxx pxxub pxxlb pyy pyyub pyylb pzz pzzub pzzlb pe temp

# Run for at least 10 picosecond (assuming 1 fs timestep)
run 	20000 # default
Memory usage per processor = 7.82687 Mbytes
Step Lx Ly Lz Press Pxx Pxxub Pxxlb Pyy Pyyub Pyylb Pzz Pzzub Pzzlb PotEng Temp 
       0         40.5         40.5         40.5    2496.1233    2446.9902     8075.816    6925.5803    2534.6541    7954.3033    6804.0676    2506.7256    8122.6071    6972.3715       -13440          300 
      50      40.5611      40.5611      40.5611    907.43706    837.10986    1415.4997    258.71738    946.43161    1525.0064    367.85394    938.76971    1517.3526    360.18405   -13338.819    103.27149 
     100    40.636867    40.636867    40.636867   -4611.4186   -4606.0751   -4035.4886    -5176.809   -4633.2987   -4062.7762   -5203.9595   -4594.8821   -4024.2777   -5165.6352   -13373.529    171.80729 
     150    40.566371    40.566371    40.566371    544.64066    509.57779    1086.3523   -67.204475    622.24374    1198.9283    45.548898    502.10046      1079.02   -74.833145   -13348.908    124.16109 
     200    40.511722    40.511722    40.511722    3547.2897    3643.2596    4224.4366    3062.1623    3485.9867    4067.2037    2904.8423    3512.6228    4093.8227    2931.5117   -13355.216     137.9072 
     250    40.565785    40.565785    40.565785    166.93066    90.523527    667.30323   -486.23346    218.10474    794.68216   -358.44288    192.16371    768.74652   -384.39942   -13359.502    146.72328 
     300    40.611235    40.611235    40.611235   -2466.5664   -2412.8394   -1840.0994    -2985.629   -2483.9007   -1911.1434   -3056.7076   -2502.9592   -1930.1054   -3075.8487   -13360.111    149.21075 
     350    40.571353    40.571353    40.571353   -408.34084   -482.42607    93.611312   -1058.4493   -346.38838    229.80755   -922.56803   -396.20806    179.80659   -972.21789   -13367.339    163.76556 
     400    40.532306    40.532306    40.532306    2225.5431    2279.8069    2858.9061    1700.7254    2296.6157    2875.8212    1717.4076    2100.2067     2679.591    1520.8251   -13359.854    150.41108 
     450    40.566044    40.566044    40.566044    2.0377845   -40.092854    536.53139   -616.70805   -31.888362    544.76858   -608.52986     78.09457    654.67469    -498.4706    -13363.08    157.36643 
     500    40.595966    40.595966    40.595966   -1611.3461   -1655.3283   -1081.2128    -2229.433   -1479.2164   -905.03422    -2053.389   -1699.4934   -1125.4608   -2273.5172   -13359.404    151.32857 
     550    40.570848    40.570848    40.570848   -161.85418   -150.03728    426.03753   -726.11507   -167.20465    408.96286   -743.36462   -168.32062    407.70635   -744.34988   -13360.736    154.75593 
     600    40.545092    40.545092    40.545092    1385.8336    1414.2998    1992.5908    836.01084    1433.0694    2011.4668    854.67693    1310.1316    1888.2344    732.02222   -13361.915    158.16074 
     650    40.566235    40.566235    40.566235    212.56633    184.02753    760.84937   -392.79288    245.48283    822.31502   -331.36234    208.18862    785.15467   -368.77007   -13358.104    151.74194 
     700    40.589999    40.589999    40.589999   -1217.4105   -1343.5854   -768.68776   -1918.4568   -1126.2179   -551.42291   -1700.9818   -1182.4283   -607.50742   -1757.3143   -13360.206    156.93263 
     750    40.572933    40.572933    40.572933   -250.38158   -286.45411    289.38803   -862.29849   -263.19279    312.79009   -839.17231   -201.49783    374.37122    -777.3635   -13360.538    158.57849 
     800    40.551356    40.551356    40.551356    1208.6566    1078.2928    1656.4277    500.14274    1322.2307    1900.5761    743.87374    1225.4462    1803.5997    647.27384   -13357.161    153.20685 
     850    40.567647    40.567647    40.567647     35.88215    27.354765    603.75984   -549.02494    95.437303    671.83623   -480.94628   -15.145617    561.26211   -591.53686   -13362.171    163.91834 
     900    40.586566    40.586566    40.586566   -905.95525   -936.83022   -361.73966    -1511.908   -840.20578   -265.21387   -1415.1831   -940.82976   -365.82375   -1515.8114   -13360.501    161.82509 
     950    40.575685    40.575685    40.575685   -242.27646    -258.0676    318.18768   -834.31094   -191.53537    384.64006   -767.70053    -277.2264    299.08477   -853.53797   -13355.043     152.3172 
    1000    40.557624    40.557624    40.557624    865.78368    854.28577    1431.4903    277.07025     838.0004    1415.1645    260.83448    905.06486    1482.3816    327.73962   -13361.124    165.23426 
    1050    40.567354    40.567354    40.567354    296.20892     232.8234    809.97404   -344.31404     412.4804    989.75516   -164.78443    243.32297    820.53418   -333.87163   -13352.949    150.47937 
    1100    40.584443    40.584443    40.584443   -762.38408   -853.89575   -278.70948   -1429.0668   -674.30507   -99.179152    -1249.414   -758.95143   -183.94866   -1333.9439   -13360.466    166.16585 
    1150    40.575983    40.575983    40.575983    -142.2806   -201.77341    374.60771   -778.14699   -30.014093    546.13727   -606.16549    -195.0543     380.9576   -771.04838    -13353.75    154.27323 
    1200    40.562401    40.562401    40.562401    595.06575    539.95132    1117.2201   -37.311414    625.63845    1202.5636    48.729784    619.60749    1196.6661    42.561199    -13359.83    167.17798 
    1250    40.569413    40.569413    40.569413    166.79261    92.903564    669.76409   -483.94754    250.18713    827.08854   -326.70903    157.28713     734.1952   -419.61637   -13356.017    160.90148 
    1300    40.581899    40.581899    40.581899   -560.61752   -582.11355   -6.6350175    -1157.588   -449.93781    125.91238   -1025.7878   -649.80119   -74.022261   -1225.5924   -13357.596    165.08945 
    1350    40.575948    40.575948    40.575948    -187.6128   -340.24911    235.78815   -916.29247   -119.43237    456.66602   -695.53304   -103.15693    473.05672   -679.37119   -13356.829    164.72703 
    1400    40.566127    40.566127    40.566127    565.86425    499.12344    1076.3443   -78.085603    641.64272    1218.7853    64.506449    556.82658    1134.0937   -20.429467   -13354.386    161.14085 
    1450    40.572988    40.572988    40.572988    -8.561472    -54.13345    522.23391   -630.49119   -9.1404528    567.30292   -585.57625    37.589487    613.87124   -538.67569   -13356.765    166.86433 
    1500    40.579794    40.579794    40.579794   -267.41446   -332.77441    243.28136   -908.82128   -176.15609    399.81506   -752.11646   -293.31287    282.67272   -869.29201   -13353.672    162.03422 
    1550    40.576834    40.576834    40.576834   -220.87916   -335.60203    240.53392   -911.71651   -207.98546    368.23318   -784.17697   -119.05001     457.0337   -695.10449    -13357.33    170.23169 
    1600     40.56902     40.56902     40.56902    377.81634    358.40758    935.42714   -218.61734    458.79305     1035.851   -118.26845    316.24838    893.22613   -260.73028   -13352.705    162.42694 
    1650    40.573333    40.573333    40.573333    121.60248    65.830518    642.20168   -510.53715    161.88969    738.43413   -414.65134    137.08722    713.59966   -439.42849     -13355.4    168.76756 
    1700    40.580701    40.580701    40.580701   -351.25931   -404.48696    171.73457   -980.69442   -356.71365    219.35422   -932.76664   -292.57732    283.74151   -868.88582   -13352.169    163.67705 
    1750    40.576849    40.576849    40.576849   -32.167301   -50.678233    525.43947   -626.77915   -63.920617    512.04894   -639.87581    18.096946    594.23256   -558.00986   -13355.552    171.33506 
    1800    40.570697    40.570697    40.570697    303.86959    205.87186    783.02603    -371.2746    337.67696    914.67087   -239.29337    368.05996    945.09311    -208.9673   -13351.254    164.18628 
    1850    40.573832    40.573832    40.573832    241.25661    160.65476    737.17828   -415.87452    291.81867    868.49848   -284.87817    271.29639    847.82225   -305.22932   -13351.989    166.73526 
    1900    40.582525    40.582525    40.582525   -408.49907   -517.11515    58.674734    -1092.914    -372.3218    203.35728   -948.01523   -336.06028    239.65528   -911.79014    -13355.88     175.4205 
    1950    40.579035    40.579035    40.579035   -121.18037    -78.31077    498.25205    -654.8493   -80.564036     496.0097   -657.09803    -204.6663    371.80956   -781.11677   -13350.032    165.23107 
    2000     40.57151     40.57151     40.57151    262.28188    197.36064    774.09053    -379.3294    289.69509    866.34449   -286.92598     299.7899     876.3566   -276.74121   -13356.433    178.77171 
    2050     40.57415     40.57415     40.57415    291.00696    438.91963    1015.6947   -137.85802    282.96388    859.83364   -293.91031    151.13737    727.98077    -425.7127   -13349.034    165.59547 
    2100    40.583714    40.583714    40.583714   -349.64824   -571.69905    4.1909868   -1147.6078   -278.61218    297.41728   -854.65986   -198.63349     377.2283   -774.52681    -13352.82     174.0797 
    2150    40.580896    40.580896    40.580896   -115.46102   -185.78203    390.68785   -762.24996   -83.935203    492.50536   -660.36451   -76.665824    499.82493   -653.13912   -13348.342    166.55152 
    2200    40.573232    40.573232    40.573232    266.96923    327.53375    904.35263   -249.24921    145.53519    722.07799   -430.97315    327.83874    904.44502   -248.72717   -13352.358    175.46306 
    2250    40.574827    40.574827    40.574827    151.21048    253.25725    830.15779   -323.63401    168.12758    744.65974   -408.39109    32.246605     609.0009   -544.50281   -13351.993    175.91954 
    2300    40.582519    40.582519    40.582519   -229.92012   -262.55007      313.698   -838.80517   -227.80284    348.32898   -803.93514   -199.40745    376.63321   -775.45393   -13351.098    175.32277 
    2350    40.582472    40.582472    40.582472   -261.47493   -230.22332    345.69573   -806.11422   -223.18601    352.79043   -799.15689   -331.01546    245.09881   -907.11168   -13351.015     176.3209 
    2400    40.575117    40.575117    40.575117    304.99838    318.71288    895.49981   -258.05285    230.82389    807.84385   -346.17823    365.45835    942.35825   -211.40878    -13348.88    173.33846 
    2450    40.576041    40.576041    40.576041    115.98281   -49.519186    527.27006   -626.30277    231.81908    808.66354   -345.02292    165.64854    742.37081   -411.07368   -13349.774    176.22576 
    2500    40.581993    40.581993    40.581993    -86.32248   -223.14465    353.20662   -799.50172   -50.962736    525.35358    -627.2682    15.139951    591.58679   -561.30184   -13348.601    175.08643 
    2550    40.583873    40.583873    40.583873   -280.78867    -329.5054    246.42975   -905.43171   -351.60669    224.17494   -927.37756   -161.25393    414.92747   -737.43444   -13350.803    180.51146 
    2600    40.577203    40.577203    40.577203    317.49535    231.68198     808.7673   -345.40054    393.67729     970.3432   -182.98651    327.12677    903.98035   -249.71673    -13345.69    171.77884 
    2650    40.578933    40.578933    40.578933    13.030925    144.96731    721.74678   -431.78814   -44.713472    531.95544   -621.36805   -61.161069    515.37645   -637.67631   -13350.912    183.01571 
    2700    40.583518    40.583518    40.583518   -174.83865   -293.93299    282.47282   -870.32324   -111.84152    464.49489   -688.16493   -118.74145    457.68141   -695.15135   -13346.798    176.21518 
    2750    40.582481    40.582481    40.582481   -39.748764   -65.184794    511.15377    -641.5206    -87.13603    489.05227   -663.31188    33.074533     609.5062   -543.34517   -13348.669    180.97912 
    2800    40.578705    40.578705    40.578705    108.86451   -19.945463    556.87742   -596.76823    191.66526    768.59988   -385.26436    154.87373    731.75855   -422.01523   -13346.376    177.70923 
    2850    40.579322    40.579322    40.579322    124.53218    81.912131    658.55149    -494.7142    124.60452    701.17333   -451.95751     167.0799    743.71195    -409.5519   -13349.584    185.05983 
    2900    40.584645    40.584645    40.584645   -69.825092    -152.5521    423.89927   -728.97681   -33.708358    542.53167   -609.92493   -23.214815    553.24142   -599.64645   -13345.868     179.0187 
    2950    40.585359    40.585359    40.585359   -182.56258   -154.04171    422.06647    -730.1376   -313.08375    263.03494   -889.18745   -80.562296    495.76531   -656.87429   -13345.484    179.44392 
    3000    40.580393    40.580393    40.580393    103.06038     17.74205    594.36471    -558.8825    199.86076    776.39211   -376.66841    91.578338     668.3957   -485.23962   -13349.988    189.30398 
    3050    40.580507    40.580507    40.580507    62.168107    44.094515    620.97827   -532.78529    20.509683    597.37225   -556.34263    121.90012    698.63172   -454.82119   -13345.218    181.21565 
    3100    40.584708    40.584708    40.584708   -107.42179   -223.08689    353.38655    -799.5297   -59.455111    517.18942   -636.07737   -39.723375    536.68328   -616.11028   -13347.434     186.6605 
    3150    40.585857    40.585857    40.585857   -139.90607   -193.02274    383.30381   -769.33112   -102.84206    473.68149   -679.34394    -123.8534    452.52343   -700.20439   -13344.327    181.78994 
    3200    40.582817    40.582817    40.582817    56.136466   -25.815173    550.58833   -602.22014    83.857537    660.26439   -492.55477    110.36703       686.82   -466.08732   -13346.758    187.66531 
    3250    40.582883    40.582883    40.582883    202.40337    154.08445    730.98797   -422.80891    136.98617     713.5881   -439.60551    316.13948    893.15423   -260.86832   -13343.925    183.32635 
    3300    40.587578    40.587578    40.587578    -209.4339   -371.94849    204.26725   -948.14516   -87.698913    488.30945   -663.68686   -168.65429    407.34912   -744.63673   -13345.062    186.68197 
    3350    40.586577    40.586577    40.586577   -9.0566859   -69.573038    506.87501   -646.00542   -16.305688    560.13043   -592.72589    58.708669    635.12344   -517.68571    -13343.41    184.64018 
    3400    40.584833    40.584833    40.584833    -4.464904   -169.79656    406.62742   -746.22404    46.672382    623.21325   -529.87184    109.72947    686.10168   -466.63605   -13346.346    191.46455 
    3450    40.585451    40.585451    40.585451    9.8032381   -98.559471    477.98198   -675.10527    71.647379    648.29537   -505.00131    56.321806    632.48095   -519.83525   -13344.024    188.12534 
    3500    40.587697    40.587697    40.587697   -73.255431   -198.59139    377.76506    -774.9198   -60.277768    515.80936   -636.33966    39.102863    615.41523   -537.18844   -13344.644    190.47515 
    3550    40.586958    40.586958    40.586958    -56.96485   -70.538578    506.10026   -647.15214    6.9900731    583.38037   -569.37691   -107.34605    469.15284   -683.82442   -13342.497     187.4769 
    3600    40.585183    40.585183    40.585183    109.67337    96.750394     673.5095   -480.00461    58.529928    635.31807   -518.24997    173.73977    750.27595   -402.78964   -13342.391    188.41229 
    3650    40.586887    40.586887    40.586887   -3.9723187   -11.668849    564.98516   -588.30755   -45.333257    531.27442    -621.9214    45.085149     621.4469   -531.26984   -13342.044    188.88701 
    3700    40.588496    40.588496    40.588496   -27.142131   -83.336603    492.83784   -659.50736   -12.131481    564.21241   -588.46685    14.041689    590.21729   -562.11355   -13342.511    190.95338 
    3750    40.588371    40.588371    40.588371   -6.0911329    43.936973    620.07098   -532.17189   -56.088694    520.20033   -632.36431   -6.1216783    569.98791   -582.22282   -13342.317    191.72699 
    3800    40.587518    40.587518    40.587518    21.179747   -96.321442    480.19692   -672.81475    156.68462    733.19397   -419.79718    3.1760619    579.71859   -573.35454    -13342.31    192.86572 
    3850    40.588168    40.588168    40.588168    103.71552    51.378646    627.86594   -525.10018    75.437151    651.94904   -501.07607    184.33078    760.98619   -392.31116   -13339.435    188.43341 
    3900    40.590071    40.590071    40.590071   -61.991803    41.084916    617.44471   -535.28279   -163.63867    412.84207   -740.11336   -63.421652    512.78876   -639.64044   -13340.244    191.15887 
    3950     40.58905     40.58905     40.58905    26.629811   -116.89505     459.5396   -693.31214    111.68117    688.15645   -464.77241    85.103306    661.60124   -491.36734   -13340.459    192.71663 
    4000     40.58814     40.58814     40.58814    64.030856    18.996702    595.63833   -557.60787    37.882754    614.68821   -538.89453    135.21311    711.60317   -441.12621   -13340.476    193.89746 
    4050     40.58928     40.58928     40.58928    51.730888    26.058107    602.44574   -550.31314    48.279046    624.89381   -528.32235    80.855511    657.30039   -495.58334   -13339.217    192.61086 
    4100    40.591447    40.591447    40.591447    -69.41407   -80.629256    495.53699   -656.80721   -72.506139     503.8365   -648.85162   -55.106814    520.98435   -631.20582   -13342.948    200.98044 
    4150    40.591167    40.591167    40.591167     -59.3496   -170.66274    406.01314   -747.33294   -23.297654     553.0871   -599.66062    15.911595    592.25147    -560.4023    -13338.58    193.66416 
    4200    40.589402    40.589402    40.589402    126.45049    102.31182     679.2724   -474.61104    28.361074    605.27502   -548.51675    248.67858    825.29053   -327.90214   -13337.074    191.89142 
    4250    40.590375    40.590375    40.590375   -5.8786185    -95.14102    481.18253   -671.43932    71.464313    647.92101    -504.9749    6.0408519    582.45961   -570.36723   -13339.822    198.35283 
    4300    40.592312    40.592312    40.592312   -99.932489   -134.35608    441.97545   -710.68705   -92.003546    484.45653    -668.4763   -73.437843    502.78718   -649.67692   -13339.728    199.31371 
    4350    40.591432    40.591432    40.591432    30.669897   -17.453823    558.96058    -593.8802    116.38325     692.8605   -460.09916   -6.9197307    569.37839   -583.21128   -13337.239    195.64072 
    4400    40.590868    40.590868    40.590868    6.1809803   -68.690877    507.63802   -644.99954    32.701826    609.00516   -543.57224    54.531992    631.04387   -521.95376   -13340.043     202.2069 
    4450    40.592123    40.592123    40.592123   -2.7294806    31.335042    607.80089   -545.09657   -35.521345    540.88007   -611.89585   -4.0021387    572.41177   -580.39192   -13337.875    199.15199 
    4500    40.593642    40.593642    40.593642   -65.462705    36.313648     612.6016   -539.94903   -97.154892    479.26637   -673.55411   -135.54687     440.7175   -711.79758    -13337.41     199.3838 
    4550    40.592338    40.592338    40.592338   -64.277171   -161.69941    414.68643   -738.08207   -86.840811    489.74025   -663.41484    55.708711    632.13813   -520.71168   -13338.207    202.07086 
    4600    40.590278    40.590278    40.590278     249.1077    320.61637    897.22591   -255.98437    284.38178    861.11582   -292.33832    142.32493    719.20626   -434.54513   -13335.472    197.91016 
    4650    40.594313    40.594313    40.594313   -36.483052   -43.388388    532.82944   -619.58235     7.304162    583.58436   -568.96284   -73.364929    502.81913   -649.53162   -13336.259    200.57068 
    4700    40.596271    40.596271    40.596271   -162.12355   -160.59482    415.39296   -736.56253   -175.19352    401.08888   -751.44448   -150.58232    425.68685   -726.82149   -13336.155    201.50807 
    4750    40.592916    40.592916    40.592916    73.064448    98.496599    675.05633   -478.03394    218.68878    795.20539   -357.80322   -97.992039    478.32961   -674.29082   -13336.665     203.6226 
    4800    40.592243    40.592243    40.592243    93.558524    177.60258    753.95413   -398.74556   -87.323114    489.38922   -664.02063    190.39611    766.69372   -385.88845   -13336.604    204.63746 
    4850    40.595451    40.595451    40.595451    4.2171739   -108.36622    467.85376   -684.57242    56.758562    633.22674    -519.6886    64.259175    640.72603   -512.19487   -13334.982    202.63372 
    4900     40.59738     40.59738     40.59738   -207.49532   -38.513481    537.58743   -614.60036   -236.77389    339.40119   -812.93779   -347.19859    229.12489   -923.49349   -13335.657    205.06988 
    4950    40.592949    40.592949    40.592949    160.16595    79.901741    656.33632   -496.52846    153.84852    730.33611   -422.64268    246.74758    823.53529   -330.03475   -13333.532    202.08895 
    5000    40.593071    40.593071    40.593071    183.41074     268.5787    845.17854   -307.99838     243.1868     819.7404   -333.35453    38.466717    615.35569   -538.42471   -13334.242    204.58527 
    5050    40.598517    40.598517    40.598517   -115.69735   -166.07939    409.80891     -741.947     -169.547    406.93681   -746.00595   -11.465649    564.59585   -587.50186   -13334.019    205.27643 
    5100     40.59878     40.59878     40.59878   -111.70343    -8.370906    567.89606   -584.60641   -166.12906    410.03196    -742.2474   -160.61033    415.31472   -736.49652   -13332.452    203.37832 
    5150    40.594255    40.594255    40.594255    96.931121    101.97383    678.30508   -474.33647    87.628943    664.07895   -488.79248    101.19059     677.6983   -475.28038   -13334.964    209.35602 
    5200    40.594043    40.594043    40.594043    196.29774    273.67141    850.09004   -302.73333    221.69784    797.92916   -354.53292    93.523963    670.09441   -483.05054   -13335.021    210.58986 
    5250     40.59947     40.59947     40.59947   -89.380203   -116.97376    459.17257   -693.11491   -109.49403     467.0177   -686.00046    -41.67282     534.4375   -617.77465   -13330.257    202.50162 
    5300    40.599859    40.599859    40.599859   -145.25531   -136.63669     439.3335   -712.58197   -209.45351    366.67757   -785.54565   -89.675735    486.49221   -665.81092   -13332.957    208.84095 
    5350    40.595213    40.595213    40.595213    222.90062    257.82359    834.14011   -318.47159    316.73027     893.2094   -259.73332    94.147998    670.56068   -482.24856   -13332.065    208.23568 
    5400    40.596174    40.596174    40.596174    152.99394    182.46696    758.81362   -393.88676    168.26953    745.07685    -408.5431    108.24535    684.72736   -468.23884   -13331.528    208.31029 
    5450    40.601169    40.601169    40.601169   -137.60144   -286.80303    289.40905   -863.00403   -30.046473    546.16212   -606.24296   -95.954809    480.36133   -672.26779   -13330.969    208.33875 
    5500    40.601195    40.601195    40.601195   -223.23281   -155.64611    420.23002   -731.48751   -294.77355    280.99246   -870.50862   -219.27877    356.61824   -795.14229   -13333.433    214.21786 
    5550    40.595615    40.595615    40.595615    182.19163    236.97313    813.61109   -339.63645    219.29512    795.97351   -357.34747    90.306631    666.71552   -486.07249   -13332.625    213.77091 
    5600     40.59647     40.59647     40.59647    157.71549    95.081188    671.67488   -481.50377    126.56426    703.12874   -449.99256    251.50101    827.97298   -324.95044    -13331.02    211.77575 
    5650    40.602086    40.602086    40.602086   -122.48126   -162.13077    414.00411   -738.24164   -127.35932    448.82546   -703.52707   -77.953682     498.4109   -654.29839   -13328.959    208.89658 
    5700    40.602031    40.602031    40.602031   -129.57349   -144.97713    430.88289   -720.80442    -92.19506     483.8017   -668.15717   -151.54828    424.70595   -727.77089   -13330.973    213.90323 
    5750    40.597351    40.597351    40.597351    249.95841     130.2933    706.64765   -446.04768    256.42866    833.06275   -320.19019    363.15327    939.51378   -213.19658   -13329.355    211.87752 
    5800    40.599001    40.599001    40.599001    81.368288    70.461749    647.02928   -506.09549    220.52608    796.93805   -355.87094   -46.882963    529.53784   -623.28426    -13329.51    213.28364 
    5850    40.603186    40.603186    40.603186   -204.96413   -200.81552    375.21485   -776.82055   -191.63639    384.38801   -767.63481   -222.44049    353.79986   -798.65128   -13330.974    217.21937 
    5900    40.602446    40.602446    40.602446   -126.97389   -248.41884    327.84597   -824.66101   -16.958909    559.51167   -593.40075   -115.54392    460.79603   -691.87228    -13329.54    215.52932 
    5950    40.598403    40.598403    40.598403     257.9828    272.70332     849.3566   -303.92126    348.64877    925.00639   -227.69808    152.59632    729.19433   -423.97324   -13327.614    212.91421 
    6000     40.60021     40.60021     40.60021    86.846298    101.33594    677.58842   -474.89687   -18.435667    558.21466   -595.04432    177.63862    753.97015   -398.66819   -13327.324    213.44455 
    6050     40.60381     40.60381     40.60381     -147.965   -193.76594    382.34868   -769.86889   -73.546053    502.56957    -649.6535   -176.58301    399.61393    -752.7763   -13330.172    220.05867 
    6100    40.602318    40.602318    40.602318    -26.95951    24.115571     600.2731   -552.03579    -126.5007    449.90068   -702.90014    21.506596    597.91957   -554.89298   -13327.624    216.21915 
    6150    40.600005    40.600005    40.600005    91.858136   -57.062472    519.35155   -633.44488     204.7372     781.1017   -371.59127    127.89968    704.22523    -448.3907   -13329.971    221.84627 
    6200    40.601871    40.601871    40.601871     18.81411    18.213485    594.70586   -558.25293    68.835547    645.28312   -507.58397   -30.606703    546.04847   -607.25641   -13326.581     216.3745 
    6250    40.604737    40.604737    40.604737   -124.00793   -72.865587    503.26957   -648.98973   -231.27249    344.78694   -807.32822   -67.885715    508.36357   -644.12626    -13327.32    218.88695 
    6300    40.603226    40.603226    40.603226    38.479186    -71.27144    504.88506   -647.41678     210.4996    786.73942    -365.7245   -23.790601     552.3771   -599.93107   -13327.339     220.0188 
    6350    40.602348    40.602348    40.602348    53.655171    168.57174     744.6801   -407.51133   -65.580559    510.62801   -641.74668    57.974335    634.19263   -518.20612   -13327.803    222.00053 
    6400    40.604389    40.604389    40.604389   -55.165601   -243.02272    333.31844   -819.32501    81.803234    658.35185   -494.72172   -4.2773159     572.0407   -580.56985    -13327.19    221.89227 
    6450    40.605242    40.605242    40.605242   -103.23012   -18.394609    557.86317   -594.64304   -201.09066    375.14064   -777.31532   -90.205083    486.27665   -666.66072   -13326.925    222.45568 
    6500    40.603815    40.603815    40.603815    39.068389   -146.98714    429.61115   -723.56887     -28.4868    547.82709   -604.77423    292.67911    869.29018   -283.90824   -13326.809    223.30103 
    6550     40.60387     40.60387     40.60387    22.403565    29.280286    605.52037   -546.94074    75.786435    652.07604   -500.47144   -37.856025    538.44231   -614.12878   -13324.708    220.30764 
    6600     40.60543     40.60543     40.60543    36.934272   -27.131059    548.97223   -603.19433    31.251669    607.76022   -545.22615     106.6822    682.92854   -469.54347   -13325.152    222.24729 
    6650    40.606492    40.606492    40.606492    27.935899   -38.026677    538.31227   -614.32437    291.58289    867.95221   -284.75834   -169.74852    406.65983   -746.13912   -13323.272    219.68455 
    6700    40.605902    40.605902    40.605902   -2.8302171   -32.479587     543.4231   -608.37274   -15.290284    560.87913   -591.45372    39.279221    615.16934   -536.58857   -13325.483    225.03079 
    6750    40.605041    40.605041    40.605041    116.28823    11.166754    587.41379   -565.07508    118.66357    695.28579   -457.94576    219.03438    795.64561   -357.55663     -13324.7    224.58162 
    6800    40.606317    40.606317    40.606317   -94.135085   -116.06994    460.23889   -692.35618   -53.083775    523.31573   -629.44335   -113.25154    463.01591   -689.50345   -13324.612    225.46738 
    6850    40.606909    40.606909    40.606909   -131.72414   -177.87527    398.25454   -753.98346   -112.67255    463.59743   -688.90208   -104.62461    471.68413   -680.90759   -13327.361    231.83937 
    6900    40.606457    40.606457    40.606457    38.770044   -42.543621     533.6171    -618.6742    139.77117    716.07984   -436.51031    19.082584    595.45055   -557.24807    -13323.81    226.02987 
    6950    40.607088    40.607088    40.607088    -35.87355   -57.864929    518.07027   -633.75101   -99.363756    476.89963   -675.61463    49.608035    625.65702   -526.41487   -13325.976    231.28561 
    7000    40.607798    40.607798    40.607798   -21.517973   -27.074967    549.45547   -603.59107    68.888779    645.42624    -507.6199   -106.36773    469.96493   -682.68535   -13321.758    224.17335 
    7050    40.608361    40.608361    40.608361   -85.333283   -62.294957    513.78609   -638.35439   -78.471956    497.83982   -654.74751   -115.23294    460.71799   -691.15697   -13324.227    229.99186 
    7100    40.607551    40.607551    40.607551  -0.32340728   -15.680349    560.38661   -591.72359    51.728357    628.03144   -524.55061    -37.01823    539.40551   -613.41221   -13323.223    229.10019 
    7150     40.60782     40.60782     40.60782    20.921777    45.317835    621.44808   -530.78703   -55.509065    520.70131   -631.69153    72.956561    649.40788      -503.47   -13323.207    230.11782 
    7200    40.609482    40.609482    40.609482   -77.821672   -101.91746    474.05772   -677.87411    4.9611119     581.3051   -571.36518   -136.50867    439.81425   -712.80761   -13323.495    231.72021 
    7250    40.609913    40.609913    40.609913    50.433017   0.56460385    576.73314   -575.58278    75.008988    651.13111   -501.11082     75.72546    651.86667   -500.41188   -13321.183    228.29296 
    7300     40.60956     40.60956     40.60956    -69.90714   -13.571925    562.36101   -589.49778   -179.09254    397.15421   -755.31852   -17.056953    559.12375   -593.20108   -13321.826    230.56804 
    7350    40.608273    40.608273    40.608273    147.86894    124.22491    700.59151   -452.10936    181.66507    758.28196   -394.91218    137.71684    714.12556   -438.66576   -13319.822    227.72576 
    7400     40.61072     40.61072     40.61072   -38.902497   -22.541514    553.82052   -598.87562   -63.916036    512.49431   -640.28412   -30.249939    545.94951    -606.4072   -13321.343    231.69891 
    7450      40.6122      40.6122      40.6122   -125.41163   -226.57028     349.0988   -802.20372    -33.61997    542.28671    -609.4953   -116.04465    459.66067   -691.72114   -13322.895    235.72868 
    7500    40.610108    40.610108    40.610108   0.23229987   -85.457416    490.70429   -661.58774    5.8911509    582.02942   -570.23349    80.263165    656.39633   -495.84473   -13321.055    233.20319 
    7550    40.608593    40.608593    40.608593    216.78304    152.03962    728.35146   -424.23988    265.65517    842.05053   -310.68682    232.65434    809.19893    -343.8595   -13319.725    231.64868 
    7600    40.612333    40.612333    40.612333   -46.447022   -71.347699    504.75742    -647.4232    11.081953    587.32575   -565.13683    -79.07532     496.9355   -655.05439    -13319.66    232.54909 
    7650    40.614101    40.614101    40.614101    8.5688691   -63.097679    512.65989    -638.8419    126.74828    702.80813   -449.29093   -37.943999    538.11932   -613.98632   -13317.293     228.9811 
    7700    40.612387    40.612387    40.612387   -98.768505   -57.973541    517.85028   -633.77222   -144.42907     432.1085   -720.94742   -93.902904    482.02589   -669.81541   -13319.588    234.44054 
    7750    40.607968    40.607968    40.607968    199.50031    202.77634    779.46595   -373.88793    254.41477    830.89289   -322.03315    141.30983    717.54344    -434.9116   -13320.441    237.10839 
    7800    40.611213    40.611213    40.611213    10.113906    81.539417    657.48463   -494.37206    -64.43268    511.80467   -640.65024     13.23498    589.40525   -562.91427   -13320.135    237.51591 
    7850    40.615802    40.615802    40.615802    -190.8177   -123.93483     451.8647   -699.71318   -155.49397    420.62654    -731.5831   -293.02431    283.26418    -869.2789   -13316.958    232.37563 
    7900    40.614071    40.614071    40.614071   -62.814506    -179.3342    396.38389   -755.03475   -47.023971    529.27104   -623.27502    37.914647    614.15205   -538.28567   -13319.654    238.59408 
    7950    40.610522    40.610522    40.610522     61.91862    100.38714    676.79739   -475.99338    136.28653     713.0066   -440.41835   -50.917809    525.14715   -626.96644   -13320.447    241.13365 
    8000    40.612416    40.612416    40.612416    54.480615    36.677358    613.12417   -539.72768    96.889371    673.08921   -479.26592    29.875117    606.33494   -546.53926   -13318.108    237.59574 
    8050    40.616739    40.616739    40.616739   -201.42892   -220.49972    355.47671    -796.4317   -266.56184    309.37303   -842.45368   -117.22521    458.66716   -693.07412   -13317.484     237.3978 
    8100    40.613917    40.613917    40.613917   -29.516087   -62.473189    513.68443    -638.6228    8.6103831    584.67603   -567.42694   -34.685456    541.32188    -610.6639   -13318.824    240.98117 
    8150    40.611079    40.611079    40.611079    233.41268     250.2191    826.26568   -325.79676    199.26147    775.76384   -377.20502    250.75748    827.17362   -325.62042   -13316.499    237.46563 
    8200    40.615557    40.615557    40.615557   -73.482497   -143.76325    432.34264   -719.82378    121.83238    697.99416   -454.29995   -198.51662    377.23255   -774.23739   -13318.206    241.75524 
    8250    40.618041    40.618041    40.618041   -99.554299    28.475224    604.49608   -547.53178   -164.46411    411.77113   -740.67007   -162.67401    413.17546   -738.49517    -13314.28    235.13872 
    8300    40.614975    40.614975    40.614975    28.031927   -144.03934    432.10604   -720.16275    205.83186    782.04481   -370.35637    22.303256    598.45093   -553.80818   -13316.211    239.85171 
    8350    40.611951    40.611951    40.611951    171.74974    263.70158    840.13795   -312.70446    140.68604    717.09921   -435.70566    110.86162    687.32839   -465.58367   -13316.616    241.61323 
    8400    40.614453    40.614453    40.614453    143.17086  -0.11537715    576.04059   -576.25061    138.95256    715.37731   -437.45479     290.6754    866.85729   -285.50675   -13313.361    236.28983 
    8450    40.618979    40.618979    40.618979   -283.99859   -222.64095    353.26339   -798.50991   -181.34927    394.59634   -757.25826   -448.00554    128.22891   -1024.2092   -13317.732     245.7156 
    8500    40.615661    40.615661    40.615661   -29.771671   -69.689884    506.37196     -645.713    -99.93417    476.38076   -676.19628    80.309039    656.48567   -495.82669    -13315.56    242.47643 
    8550     40.61192     40.61192     40.61192    275.83701    274.34212    850.84146   -302.12737    321.67168    898.33934   -254.97811    231.49724     807.5398   -344.51413   -13315.123     242.6027 
    8600    40.616597    40.616597    40.616597   -150.21221    -307.5939     268.4955   -883.65445    22.330695    598.75975   -554.04448   -165.37342    410.52989   -741.23675   -13317.089    247.35868 
    8650     40.61938     40.61938     40.61938   -70.949903   -188.44591    387.34184   -764.19753   -23.889919    551.91385   -599.66465  -0.51388247     575.4989   -576.49288   -13313.832    242.01927 
    8700    40.618511    40.618511    40.618511   -118.97868   -41.616921     534.5069   -617.72009   -90.616415     485.3874   -666.59409   -224.70272    351.25742   -800.63232   -13314.804    244.84642 
    8750    40.615356    40.615356    40.615356    184.70792    24.093517    600.41083   -552.18302    267.47839    844.13409   -309.13119    262.55184    838.70274   -313.56633   -13312.664    241.65958 
    8800     40.61578     40.61578     40.61578    49.124551    51.019324    627.19431   -525.12025    85.170428    661.79133   -491.41502    11.183902    587.21618   -564.81716   -13313.827    244.86054 
    8850    40.617841    40.617841    40.617841   -30.004023   -14.969104    561.11331   -591.02012    14.218623    590.45356   -561.97705   -89.261589    486.82066   -665.29875    -13314.23    246.57563 
    8900    40.618905    40.618905    40.618905   -196.67237   -69.287145    506.76684   -645.31931   -267.14581    308.83385    -843.0986   -253.58416    322.25068   -829.37188   -13315.482    249.94202 
    8950    40.616633    40.616633    40.616633    113.56155     17.70615    594.11067   -558.66609    205.62112    781.76368   -370.48071    117.35737    693.72907   -459.00827   -13312.174    244.47327 
    9000    40.617981    40.617981    40.617981   -5.3782871   -96.290796    479.85874   -672.39675    102.10605    678.19307   -473.95055   -21.950111    554.07912   -597.97018   -13315.903    252.62496 
    9050    40.620148    40.620148    40.620148   -48.644761    26.770246    602.60112   -549.02009   -95.187336    481.10741   -671.46194   -77.517195    498.49602   -653.46658   -13311.498    245.02404 
    9100    40.620057    40.620057    40.620057   -49.592958   -174.28861    401.60181   -750.16069   -33.121107     542.8735   -609.05583    58.630846    634.79385   -517.48549   -13312.283    247.47347 
    9150     40.61758     40.61758     40.61758    150.26405    225.47259    801.75179   -350.76717    101.73932    678.02638   -474.51417    123.58025    699.83211   -452.63982   -13310.095    244.16108 
    9200     40.61774     40.61774     40.61774    72.268147    41.329583    617.81652   -535.11331    38.217779    614.08964   -537.62374    137.25708     713.4751   -438.93308   -13311.689    248.16871 
    9250    40.619622    40.619622    40.619622   -84.083887   -149.79255    426.05373   -725.61152    -69.87264    506.18842   -645.91357   -32.586469     543.2567   -608.39582   -13311.349    248.42467 
    9300    40.619538    40.619538    40.619538    119.50181    125.80622    701.48545   -449.85711     23.83651    600.19552   -552.47931    208.86271     784.8232   -367.07627   -13311.853    250.31265 
    9350    40.620623    40.620623    40.620623   -23.026387   -212.93313     363.1894   -789.02128    47.062092    623.53843   -529.37828    96.791877    673.07125   -479.44451   -13310.946    249.45277 
    9400    40.621651    40.621651    40.621651   -110.30374    55.349363    631.43129   -520.69197   -308.53971    267.42184   -884.46483   -77.720873    498.20029   -653.61173    -13310.94    250.34293 
    9450    40.620796    40.620796    40.620796    119.80518    22.147835    598.27409   -553.94883    168.09362    744.27151   -408.04581    169.17409    745.44952    -407.0734   -13308.678    246.86507 
    9500    40.621436    40.621436    40.621436   -77.654363   -94.095478    482.08209   -670.23385   -169.62014    406.40908   -745.61248    30.752526    606.48659    -544.9402   -13312.361    254.89143 
    9550    40.620956    40.620956    40.620956    80.176844   -81.439503    494.50286   -657.33472    171.10941    747.27982   -405.02357    150.86063    727.04503   -425.28174   -13310.642     252.4677 
    9600    40.623082    40.623082    40.623082   -100.37971   -50.707541     525.2479   -626.61432   -83.798674    492.49656   -660.03889   -166.63292    409.43217   -742.65337   -13311.014    254.06807 
    9650     40.62368     40.62368     40.62368   -96.708169   -111.18675    464.59562   -686.93637   -146.71085    429.00131   -722.39063   -32.226906    543.54097   -607.95806   -13309.976    252.94982 
    9700    40.621786    40.621786    40.621786    25.766695   -101.68196    474.23322   -677.56324    193.85198    769.89478   -382.17017   -14.869939    561.31574   -591.02048   -13311.217    256.23031 
    9750    40.621617    40.621617    40.621617    63.783347    45.223363    621.59791   -531.12496    18.202269    594.66308   -558.20656    127.92441    703.89889   -448.01503   -13309.015    252.84887 
    9800    40.623567    40.623567    40.623567    30.108544   -256.64207    319.25462   -832.49984    218.38384    794.22951   -357.40901    128.58387    704.39108   -447.18064   -13308.817     253.3361 
    9850    40.625018    40.625018    40.625018   -209.09391   -204.87145    370.81912   -780.51638   -333.00963    243.18295   -909.15417   -89.400642    486.21318    -664.9704    -13310.94    258.31262 
    9900    40.622237    40.622237    40.622237    148.31384    127.49748    703.78571   -448.74943    211.31408    787.43888   -364.77889    106.12996    682.76267   -470.47144   -13307.278    252.08567 
    9950    40.623383    40.623383    40.623383     1.582774    69.834119    645.68841   -505.99243   -163.62004    412.39434   -739.58808    98.534248    674.36451   -477.24816   -13310.401     258.9926 
   10000     40.62607     40.62607     40.62607   -49.067764   -32.888182    542.99352    -608.7165    31.781308    607.72214   -544.13041   -146.09642    429.54704   -721.70717   -13306.221    251.76572 
   10050    40.625601    40.625601    40.625601   -111.26613   -260.75667    315.10569   -836.58654   -93.751589    482.03666   -669.50767    20.709871     596.5586   -555.12116   -13309.037    258.07207 
   10100     40.62165     40.62165     40.62165    194.77386    28.814092    605.22232   -547.56877    505.48434    1081.7972   -70.789324    50.023147    626.07619   -525.98892   -13308.396    257.68142 
   10150    40.623957    40.623957    40.623957    148.65111    67.804204    643.77774   -508.14068    36.673761    612.74488   -539.35344    341.47535    917.53559   -234.54334   -13305.783    253.47093 
   10200    40.629076    40.629076    40.629076   -266.31898   -507.92354    67.764412   -1083.5594   -161.58297    413.85275   -736.98581   -129.45043     446.0612   -704.91924     -13308.7    259.95316 
   10250    40.626239    40.626239    40.626239    139.51768    308.09578    883.94776   -267.71346    15.774635    591.95387   -560.36494    94.682613    670.78001   -481.38397    -13303.86    251.42496 
   10300    40.624167    40.624167    40.624167     -32.4434   -82.799664    493.36557    -658.9333   -62.479318    513.82458   -638.73873    47.948784     624.0488    -528.0921   -13309.107    262.41275 
   10350    40.623612    40.623612    40.623612     175.4361    204.33298    780.65014   -371.94246      258.726    834.87529   -317.37333     63.24931    639.16531   -512.63304   -13305.282     255.8423 
   10400    40.627102    40.627102    40.627102   -209.12009   -222.42107    353.30833   -798.10573   -245.20351    330.54293   -820.90985   -159.73569    415.70823   -735.12456   -13309.194    264.24465 
   10450    40.626953    40.626953    40.626953   -37.296466   -132.87675    442.97535   -708.68343     82.48944    658.27432   -493.23747   -61.502083    514.61156   -637.58458   -13306.088    259.05202 
   10500    40.625844    40.625844    40.625844     3.606221    -58.26973    517.50661   -634.00746   -86.758565    489.41799   -662.89909    155.84696    732.08877   -420.34005   -13306.912    261.45961 
   10550    40.625595    40.625595    40.625595    111.78184    112.94411    688.92916   -462.99735    309.47861    886.19388   -267.18433   -87.077194    488.92332   -663.03252    -13304.68    257.95671 
   10600    40.628278    40.628278    40.628278   -8.4171661     70.80722    646.60694   -504.93871   -24.293744    551.53681   -600.08777   -71.764974    503.90921    -647.3985    -13304.87    259.13252 
   10650    40.629525    40.629525    40.629525    -76.00165    29.818683    606.04437   -546.38552    -84.45566    490.75075   -659.61462   -173.36797    402.15005   -748.83778   -13304.625    259.46901 
   10700    40.627011    40.627011    40.627011    47.009139   -16.427123    559.52156   -592.33159    162.61651    738.55101   -413.26734   -5.1619706    570.57577   -580.86943   -13306.004    262.94252 
   10750    40.625683    40.625683    40.625683    101.81504    128.92511    704.87293   -446.98075    169.09554    745.05295   -406.82542    7.4244807    583.86911   -568.98684   -13304.619    261.05812 
   10800    40.628883    40.628883    40.628883   -57.759356   -232.59692    343.52605    -808.6766   -42.288746    533.78961    -618.3223     101.6076    677.33053   -474.05891   -13305.472    263.48864 
   10850    40.630171    40.630171    40.630171   -214.60569     -342.753    232.88636   -918.36475   -101.34117    474.44507   -677.08646    -199.7229    375.62469   -775.01448   -13305.818    264.95585 
   10900    40.625775    40.625775    40.625775    151.63751    78.462207    654.56353   -497.59211    158.15176    734.47367   -418.12684    218.29857    794.11185   -357.49335   -13303.888    262.00642 
   10950    40.625825    40.625825    40.625825    156.99311    351.87784    927.96382   -224.16121    28.857647    605.06689   -547.31611    90.243849    666.54134   -486.02197   -13304.334    263.65212 
   11000    40.629465    40.629465    40.629465   -4.6147152   -257.73613    318.07053   -833.50274    122.77483     698.3653   -452.76592    121.11715    697.24735   -454.99059   -13303.002    261.85318 
   11050    40.631044    40.631044    40.631044   -216.10871   -397.60634    178.27964   -973.44342   -158.54736    417.29265   -734.34034   -92.172443    483.40066   -667.69314   -13305.477     267.4096 
   11100    40.628304    40.628304    40.628304   -8.2088922    -27.43093    548.16227   -602.97823   -7.8096948    568.04404    -583.6121    10.613949    586.48543   -565.18898   -13304.539    266.35772 
   11150    40.626833    40.626833    40.626833    47.524497   -24.750529    551.37025   -600.83417    171.35739    747.47304   -404.69875   -4.0333658    572.00775   -580.02319   -13304.416    266.89007 
   11200    40.628827    40.628827    40.628827    66.135866   -26.759252    549.18348    -602.6468    -54.27607    521.74392   -630.25104    279.44292    855.15895   -296.20556   -13302.796     264.5124 
   11250    40.631237    40.631237    40.631237   -205.72997   -313.74178    261.74874   -889.17598   -196.51809    379.19339   -772.19278   -106.93004    468.93954   -682.76627   -13303.694    267.01032 
   11300    40.627988    40.627988    40.627988    145.36804    303.85977    879.98721   -272.24936    46.112924    622.47288   -530.19925    86.131426    661.86141   -489.55792   -13301.625    263.75624 
   11350    40.627598    40.627598    40.627598    123.42655    49.406004    625.47893   -526.61695     151.7312    727.68926    -424.1891    169.14245    745.13012   -406.80307     -13302.5    266.19717 
   11400    40.631013    40.631013    40.631013   -77.358293   -166.48749    409.31681   -742.23817    -50.58186    525.57105   -626.67849   -15.005531      561.018   -590.98007   -13302.024    266.01716 
   11450    40.632363    40.632363    40.632363   -19.472944    -90.11872    485.40782   -665.60109   -33.678407    542.23395   -609.53683    65.378293     640.8514   -510.04817    -13300.91    264.60553 
   11500    40.630696    40.630696    40.630696   -3.0508462   -160.00149    415.64904   -735.60406    48.513397    624.25354   -527.17065    102.33555    678.04672   -473.32412   -13301.475    266.43476 
   11550    40.628804    40.628804    40.628804    126.34517    150.27522     726.0273    -425.4171    126.02328    701.98726   -449.89319    102.73703    678.55772   -473.02427   -13302.117    268.41079 
   11600    40.630261    40.630261    40.630261    73.233627   -189.57979    386.47135   -765.57162    117.34552    693.11563   -458.35655    291.93515    867.84896   -283.94828   -13300.928    266.82904 
   11650    40.634013    40.634013    40.634013   -181.24677   -102.18677    473.37538   -677.70813   -93.849952    481.64033   -669.29675   -347.70358     227.9831   -923.33499   -13302.663    270.90194 
   11700    40.633111    40.633111    40.633111   -58.957529   -187.11382    388.71366   -762.90449   -111.76711    464.19645   -687.68912    122.00834    697.98137   -453.92421   -13300.459     267.3539 
   11750    40.630416    40.630416    40.630416    24.711564   -45.483729    530.04069   -620.97034    126.59345    702.41532   -449.19397   -6.9750275    568.54026     -582.434   -13302.282    271.58763 
   11800     40.63046     40.63046     40.63046    26.762155   -93.700409    482.08594   -669.43663     19.32279    595.61639    -556.9132    154.66408    730.46812   -421.11034   -13302.153    272.05155 
   11850    40.633042    40.633042    40.633042   -87.038853   -104.27361    471.49944   -680.00994    -134.4311    441.29134   -710.09039   -22.411855    553.45225   -598.22517   -13300.574    269.69782 
   11900    40.633192    40.633192    40.633192   -79.570443    23.165684    598.76287   -552.36376   -28.753296    546.64702   -604.12021   -233.12372    342.58533   -808.78563   -13299.843    268.98867 
   11950    40.631173    40.631173    40.631173    118.26227     10.00073    585.87256   -565.81995    122.41582    698.38137   -453.49111    222.37025    798.35412   -353.56347   -13301.134    272.18158 
   12000    40.632786    40.632786    40.632786   -78.056303    59.459661    635.10033   -516.14583   -129.93546    445.96037   -705.77255   -163.69311     411.9483   -739.27838   -13301.306    273.20595 
   12050    40.633253    40.633253    40.633253   -112.85073   -227.21485    348.24616   -802.62123   -134.45662    441.06755   -709.94007    23.119281    598.58707   -552.28717   -13301.911    275.06268 
   12100    40.631762    40.631762    40.631762    74.823908    125.98572    701.89769   -449.87234   -51.757588     524.3117   -627.76701     150.2436    726.08864    -425.5609   -13300.219    272.47072 
   12150    40.632564    40.632564    40.632564    51.699905    67.557455    643.26569   -508.08762    36.367176    612.02272    -539.2413    51.175083    627.04777   -524.64082   -13299.354    271.46837 
   12200    40.635215    40.635215    40.635215   -52.400902   -178.48675     397.7633   -754.70366   -65.642467     509.8114   -641.04169    86.926515    662.64952   -488.74148   -13298.614    270.70756 
   12250    40.635432    40.635432    40.635432   -130.77979   -126.65134    448.64632   -701.89517   -32.035334    543.92602   -607.94495   -233.65269    341.68417   -808.94107   -13301.017    276.02303 
   12300    40.632938    40.632938    40.632938    135.49607    51.613656     627.2203   -523.94892    68.905016    644.75791   -506.89368    285.96953    861.85633   -289.85934   -13298.193     271.2239 
   12350      40.6338      40.6338      40.6338    110.79204   -4.0624609    571.96397    -580.0388    156.24311    731.69384   -419.16174    180.19546    756.42405   -395.98469   -13298.862    273.17917 
   12400    40.636491    40.636491    40.636491   -84.226133   -156.34843    418.89088   -731.54515   -53.223318    522.17826   -628.58352   -43.106656    532.00675   -618.18117   -13298.516    273.16508 
   12450     40.63608     40.63608     40.63608   -105.43112   -113.94969    461.90417   -689.75356    31.671273    607.45252   -544.06036   -234.01495    341.71711   -809.70171   -13299.057    274.85802 
   12500     40.63349     40.63349     40.63349    73.301941   -126.24504    449.29656   -701.72419     99.61075    675.45542   -476.17179    246.54011    821.87461   -328.73441   -13299.132    275.65091 
   12550    40.634765    40.634765    40.634765    108.36807    158.23465    733.97301   -417.44778    4.7940989    580.65231   -570.99765    162.07545     737.9327   -413.74313   -13297.624     273.3763 
   12600    40.638009    40.638009    40.638009   -209.13169   -344.18259    231.45861   -919.77022   -95.649934    480.02397   -671.27692   -187.56254     388.1906   -763.26272   -13298.598     275.8979 
   12650    40.635318    40.635318    40.635318    42.289504    47.830192    623.73784   -528.02191   -45.030418    530.55218   -620.54067    124.06874    699.71818   -451.52297   -13299.196    277.68473 
   12700    40.634776    40.634776    40.634776    50.474438   -38.278257    537.26529   -613.76537    52.429299    628.47773   -523.55513    137.27227    713.20746   -438.60127    -13298.83    277.60061 
   12750    40.637413    40.637413    40.637413   -54.674044    116.52329    692.15297   -459.04662   -89.556189    486.14621   -665.21234   -190.98924    384.38882   -766.29457   -13297.222    275.11887 
   12800    40.637637    40.637637    40.637637    17.392318    -212.4068    363.45797   -788.22906    113.15086    688.59886   -462.23367     151.4329    726.80893   -423.88638   -13296.433    274.21775 
   12850    40.636444    40.636444    40.636444   -3.2089293    27.118558    603.35753   -549.06911   -64.830864     510.8319   -640.43104    28.085518    604.00016   -547.77497   -13296.615    275.18459 
   12900    40.635496    40.635496    40.635496    112.85919   -16.130395    559.34802   -591.55321    171.77843    747.56999   -403.96028    182.92953    758.80138   -392.88927   -13296.632    275.83382 
   12950     40.63761     40.63761     40.63761    70.575063    60.800672    636.30543   -514.65304    54.946595    630.49347    -520.5599    95.977923    671.80882   -479.80699   -13296.897    276.95357 
   13000    40.639634    40.639634    40.639634   -170.17992   -259.99103    315.57266   -835.50418   -351.17303    224.03501   -926.32578    100.62431     676.0293   -474.72886   -13298.108    279.90085 
   13050    40.637291    40.637291    40.637291   -3.4885987   -69.042692    506.52741     -644.557    144.65744    720.73305   -431.35789   -86.080541     489.4344   -661.54796    -13297.37    279.07051 
   13100    40.635236    40.635236    40.635236    285.64911    315.25233    891.40023   -260.83351    260.62272    836.76359   -315.47943    281.07229    857.10143   -294.89897   -13293.252    271.69647 
   13150    40.639057    40.639057    40.639057   -181.74363   -167.99126      407.052   -742.98494   -151.01727    424.39324   -726.37059   -226.22236    349.11327   -801.49371   -13298.159     281.7789 
   13200     40.63981     40.63981     40.63981    56.183701   -181.40784    394.58587   -757.34698    247.79395    823.47592   -327.83053      102.165    677.62348   -473.23996   -13294.232    274.76961 
   13250    40.638489    40.638489    40.638489   -86.426982   -235.51017    340.12468   -811.09948   -189.17544    386.50137   -764.79731    165.40466    740.95655   -410.07857   -13297.241    281.17201 
   13300    40.635856    40.635856    40.635856    92.943918    58.114107    634.04818   -517.74377    243.30267    819.25156   -332.56563    -22.58502    553.27805   -598.40086   -13296.341    280.00382 
   13350    40.637821    40.637821    40.637821   -11.807637   -71.060899    504.82162   -646.89556   -55.137929    520.49606   -630.69922    90.775916    666.12386   -484.51244   -13297.248    282.32932 
   13400    40.640089    40.640089    40.640089   -244.51189   -222.86359    352.59569   -798.26551   -325.95106     249.4507   -901.29039     -184.721    391.29937   -760.69726   -13296.377    281.21349 
   13450    40.637708    40.637708    40.637708    224.67057    299.08332    874.84404   -276.61438    228.42859    804.13352   -347.23113     146.4998     722.3129   -429.24249   -13293.736    276.66879 
   13500    40.638508    40.638508    40.638508   -35.183139   -224.25489    351.58175   -800.02784   -23.668273    551.82374   -599.10925    142.37375     717.9298   -433.10827    -13294.82     279.3269 
   13550    40.638004    40.638004    40.638004   -29.545736   -110.31045    465.33115   -685.88883    48.517033    624.69434   -527.58347   -26.843796     548.2746   -601.91608   -13296.986    284.07303 
   13600    40.637313    40.637313    40.637313    2.9985382    -20.30025    555.54766   -596.10912   -156.28401    419.61699   -732.13279    185.57988    761.02199   -389.80534   -13296.215    283.12797 
   13650    40.638396    40.638396    40.638396   -14.068008   -114.53994    461.18287    -690.1896    18.101605    593.76522   -557.51583    54.234306    630.74238   -522.22754   -13294.578    280.50422 
   13700     40.63977     40.63977     40.63977   -24.028045   -31.566892     543.9922   -607.07274   -88.182613    487.25151   -663.55224     47.66537    622.81711   -527.41562   -13294.035    279.99381 
   13750     40.63924     40.63924     40.63924    52.050265    -17.10691    558.79056   -592.93439   -89.977532     486.1242   -666.00552    263.23524    839.32231   -312.78165   -13293.941    280.34795 
   13800    40.638391    40.638391    40.638391    110.32958    153.57904    729.02528   -421.80989  -0.92167679      575.192   -576.96234    178.33139    754.13506   -397.41752   -13292.726    278.53424 
   13850    40.638572    40.638572    40.638572     76.64713   -45.554201    530.31909   -621.37717    116.22915    691.73674   -459.21277    159.26645    734.62883   -416.03884   -13294.325    282.15374 
   13900    40.640473    40.640473    40.640473     9.791836   -57.548615      518.417   -633.44676    19.475116    595.01281   -556.00878    67.449007    643.30587   -508.32719   -13293.875     281.8037 
   13950    40.642547    40.642547    40.642547   -155.24301   -131.91731    443.04249   -706.80435   -131.80256    443.32724   -706.87983   -202.00915    373.29158   -777.25199   -13295.158    284.80494 
   14000     40.64039     40.64039     40.64039   -35.655012   -332.61646    243.08734   -908.26784     52.87647    629.02878   -523.21048    172.77495    748.85813   -403.25718   -13293.769    282.62806 
   14050    40.638549    40.638549    40.638549    49.507167    87.248983    662.87728   -488.32102    4.9390984     580.5105   -570.55748    56.333419    632.01248   -519.29333   -13295.744    286.96311 
   14100    40.639947    40.639947    40.639947      2.72087    13.003139    589.24681   -563.19391   -31.598315    543.94393   -607.08106    26.757785    602.52314   -548.93367   -13294.216    284.51509 
   14150    40.641101    40.641101    40.641101    30.233658   -3.9348283    571.94142   -579.75721    187.21131    762.79316   -388.32824   -92.575504    482.76464   -667.86472   -13291.686    280.12516 
   14200    40.641083    40.641083    40.641083   -50.158484   -149.02153    426.69186   -724.67477   -41.156181    534.32656   -616.59118    39.702255      615.225   -535.77635   -13294.162    285.40899 
   14250    40.641189    40.641189    40.641189    22.345014    12.646576    588.03958   -562.67075   -142.41608    433.30631   -718.07774    196.80455     772.8105   -379.13144   -13294.206    285.98202 
   14300    40.641404    40.641404    40.641404    104.07924    43.143855    618.74482   -532.38416    68.220708    644.36955   -507.85414    200.87317    776.41492    -374.5939   -13290.024    278.38251 
   14350    40.641892    40.641892    40.641892    -1.845087   -72.708735    502.76126   -648.12382   -198.09654    377.63305    -773.7294    265.27002    840.81886   -310.22182   -13293.086    284.79306 
   14400    40.641417    40.641417    40.641417   -36.180675   -153.97295    421.78195   -729.65265   -44.451724    530.51357   -619.33499    89.882649    665.58999   -485.76072   -13295.188     289.3449 
   14450    40.640686    40.640686    40.640686    108.74009    143.41713    719.96084   -433.06379    101.92335    677.69188   -473.78333    80.879783    656.25061    -494.3955   -13291.498    282.67855 
   14500    40.643262    40.643262    40.643262   -14.583012    32.320591    607.36077    -542.6337   -48.607513     527.5094    -624.6736   -27.462113     547.9493   -602.83465   -13292.327    284.74998 
   14550    40.642986    40.642986    40.642986   -37.790055   -226.65181    348.87512   -802.12805     65.67136    641.00383   -509.60378     47.61028    623.27261   -527.98581   -13292.161    284.89494 
   14600    40.640718    40.640718    40.640718    64.243243    64.196799    640.26823   -511.81664   -6.1570565     569.4402   -581.68705    134.68999    710.48669   -441.02795   -13292.745    286.48662 
   14650    40.641474    40.641474    40.641474    18.583595    65.058129    641.09437   -510.91679   -126.14258    450.31636   -702.52816    116.83524    692.38155    -458.6585   -13292.072    285.64295 
   14700    40.643283    40.643283    40.643283   -80.770125     20.17634    595.89041   -555.47545   -145.49623    429.83532   -720.76127   -116.99048    458.50752   -692.42015   -13293.395    288.65391 
   14750      40.6432      40.6432      40.6432    18.825638    12.131751    588.10976   -563.77777   -5.8742923    569.47525   -581.15849    50.219456    625.64998   -525.15588    -13291.05    284.57408 
   14800    40.641828    40.641828    40.641828    59.688144     13.38137    588.78154   -561.95096   -6.9829497    568.92556   -582.83504    172.66601     748.6991   -403.29559   -13291.847    286.56654 
   14850    40.641895    40.641895    40.641895    66.260735    -31.36407    544.21066   -606.86038    59.560317    635.22754   -516.03558    170.58596    746.63982   -405.42162   -13291.946     287.1986 
   14900    40.644253    40.644253    40.644253    -137.8918   -28.810621    546.69143   -604.26109   -283.00416    292.78667   -858.70516   -101.86061    473.40607   -677.06025   -13293.074    289.82247 
   14950    40.643903    40.643903    40.643903   -25.902299   -149.35746    426.05846   -724.69425   -19.989706    555.21632   -595.11784     91.64027    666.89041    -483.5363   -13291.409    287.03537 
   15000    40.641649    40.641649    40.641649     121.2001    369.62337    945.37742   -206.06551   -105.35529    470.77071   -681.41099    99.332208    674.95328   -476.21086    -13291.13    286.92694 
   15050    40.640804    40.640804    40.640804    124.25808    130.95532    706.73967   -444.77386    266.91166    842.70542   -308.82582   -25.092751    551.10699   -601.22307   -13290.189    285.52842 
   15100    40.643721    40.643721    40.643721    68.421529    56.283599    631.56178   -518.92129    34.445267    609.73589   -540.77923    114.53572    690.28644   -461.14818    -13289.81    285.21211 
   15150    40.646227    40.646227    40.646227   -260.38134   -424.20211    151.21584   -999.54585   -211.45708    364.13527   -786.97957   -145.48484     429.4722   -720.37287   -13291.683    289.25668 
   15200    40.641762    40.641762    40.641762    130.30459    204.55067    780.63668   -371.47729    116.31639    692.16267   -459.47019    70.046715    646.35489    -506.1907   -13290.562    287.49797 
   15250    40.641099    40.641099    40.641099    98.566659     46.09651    621.78435    -529.5253    79.674937    655.40666   -495.98158    169.92853    745.33636   -405.42747   -13292.078    290.84329 
   15300    40.644544    40.644544    40.644544   -118.84699    75.931577    651.56212   -499.64804   -140.47862    435.38164    -716.2681   -291.99393    283.53604   -867.43709   -13292.477    292.02294 
   15350    40.645904    40.645904    40.645904   -177.19528   -169.86276     405.1968   -744.84327   -274.56886    300.86205   -849.92154   -87.154236    489.04068   -663.29197   -13291.589    290.70199 
   15400    40.643297    40.643297    40.643297    83.933268    152.76898    728.29389   -422.66965      41.9908    617.80706   -533.75765    57.040018    632.57131   -518.43255   -13289.785    287.61095 
   15450    40.643212    40.643212    40.643212   -47.128333    -3.393349    572.36762   -579.08882   -127.31612    448.11281   -702.67683   -10.675524    564.85315   -586.13064   -13293.994    296.15045 
   15500    40.644556    40.644556    40.644556   -10.913815    130.34848    706.19986   -445.42856   -50.513648    525.15888   -626.11478   -112.57628    463.22228   -688.30317   -13289.964    288.73837 
   15550    40.645592    40.645592    40.645592   -114.97909   -134.85099    440.52781   -710.16029   -47.571431    528.03821   -623.09255   -162.51484    412.92266   -737.86955   -13290.329    289.82883 
   15600    40.643746    40.643746    40.643746    55.880874    222.32778    797.83544   -353.10432   -81.345277    494.14174   -656.75573    26.660114     602.2923   -548.91125   -13290.832    291.18802 
   15650    40.643304    40.643304    40.643304    147.72957    187.86622    763.77706   -388.00091    99.284361    674.88442   -476.24598    156.03812    731.41789   -419.25872   -13288.079    286.24089 
   15700    40.645435    40.645435    40.645435   -95.613541    108.29415    683.92949   -467.25551   -140.73087    434.89277   -716.26727    -254.4039    321.37115   -830.12516   -13291.127    292.51058 
   15750    40.645221    40.645221    40.645221   -119.59063   -210.43333    364.76223    -785.5449     -83.1876    492.43198   -658.74276   -65.150955     510.4563   -640.66627    -13290.72    292.09127 
   15800     40.64282     40.64282     40.64282    128.44945    151.43527    727.18812   -424.25231   -10.250141    565.40722   -585.84804    244.16322    820.17525   -331.77923   -13290.004    291.06987 
   15850    40.643562    40.643562    40.643562    255.12946    184.87633    760.38837   -390.58731    204.18276    780.07498   -371.65875    376.32928    952.40179    -199.6954    -13286.28     284.2209 
   15900    40.648933    40.648933    40.648933   -203.49251    -85.01199    490.32876   -660.28578   -224.27456    351.05344   -799.50801   -301.19097    273.81942   -876.14123   -13289.703    291.20079 
   15950    40.647235    40.647235    40.647235   -177.93799   -277.47371    298.03431   -852.89791   -130.23204    444.93493   -705.31466   -126.10822    449.30989   -701.44206   -13291.204    294.46058 
   16000    40.641642    40.641642    40.641642    253.28201    245.03511    820.79797   -330.64767    116.57843    692.76367   -459.54259    398.23248    974.09938   -177.54925   -13290.572    293.59034 
   16050     40.64468     40.64468     40.64468    44.585677   -2.5265583    572.89937   -577.88246    193.21688    769.17666   -382.66001   -56.933291    518.58738   -632.37793   -13289.491    291.84188 
   16100    40.648092    40.648092    40.648092   -96.521565   -56.646929    518.84521   -632.06069   -213.35102    362.01766   -788.65771   -19.566745    555.62034    -594.6771   -13287.606    288.53645 
   16150    40.646183    40.646183    40.646183   -124.85479    -223.7641    351.73737   -799.20398    -140.8099    434.26766   -715.80784   -9.9903647    565.87638   -585.78068   -13291.657    296.70436 
   16200    40.643683    40.643683    40.643683    260.25256    311.88632    887.48446   -263.63924    121.74351     697.7939   -454.24562    347.12785    922.91849   -228.60376   -13286.817    287.67145 
   16250    40.647248    40.647248    40.647248   -64.881933    27.348632    602.74414   -547.96682   -187.98853    387.67157   -763.56663   -34.005901    541.06053    -609.0131   -13289.246    292.70305 
   16300    40.647707    40.647707    40.647707   -300.11993   -413.03993    162.02474   -988.03383   -163.64314    411.37779   -738.58653    -323.6767    251.79363   -899.04202   -13292.628    299.56755 
   16350    40.643982    40.643982    40.643982     184.8353    291.46572    867.16061   -284.13643    92.583257    668.23034   -482.97414    170.45693    745.92645   -404.93226   -13288.662    292.21654 
   16400    40.646359    40.646359    40.646359   -120.05301   -36.129501    539.67014    -611.8526   -117.08587    458.66119   -692.75251   -206.94367    368.36659   -782.17289   -13290.463    296.02097 
   16450    40.646194    40.646194    40.646194     131.3871    117.35014    692.47942   -457.72211    123.33839    699.22941   -452.47173    153.47277    728.82794   -421.80925   -13286.527    288.71751 
   16500    40.645997    40.645997    40.645997    19.115891    199.68744    774.90416   -375.45398   -44.688078    530.57073   -619.86579   -97.651693    477.63885   -672.87921   -13287.923    291.72469 
   16550    40.645018    40.645018    40.645018      139.161    245.82592    821.41381   -329.68861    67.598466    644.08577   -508.82142     104.0586    679.87849   -471.69362   -13286.999    290.23117 
   16600    40.646961    40.646961    40.646961   -47.628543   -26.188985    549.41623   -601.70957   -115.06211     460.2203    -690.2654   -1.6345282    573.81901   -577.03404   -13288.658    293.73898 
   16650    40.647639    40.647639    40.647639   -163.65753   -132.37627    442.97233   -707.65783   -199.92358     375.1199   -774.89486   -158.67272      416.987   -734.23792   -13289.088    294.86789 
   16700    40.644928    40.644928    40.644928    90.328838    3.7104478     579.1654    -571.6721    156.31857    731.84423   -419.10928     110.9575    686.98345   -464.99932   -13289.441    295.84883 
   16750    40.645008    40.645008    40.645008    66.487621    308.01568    883.94208   -267.82179   -9.2102034    566.56257   -584.91767   -99.342608    475.91001   -674.50675   -13287.397    292.18604 
   16800    40.646982    40.646982    40.646982   -28.647079    -1.732685    573.71811   -577.08146   -113.97574    461.99713     -689.881    29.767187    605.17032   -545.54225   -13288.147    293.92404 
   16850    40.647575    40.647575    40.647575   -113.98103   -112.42947    462.96327   -687.75867   -158.39772    416.82529   -733.53626   -71.115905    504.20417   -646.36569   -13289.385     296.6021 
   16900     40.64558     40.64558     40.64558    185.06392    171.88758    747.73769   -403.91388    257.47412    833.09253   -318.06765    125.83005     701.5591   -449.83678   -13286.361    291.02729 
   16950    40.646624    40.646624    40.646624   -8.3386466    105.91063    681.00733   -469.11078   -153.59331      422.186   -729.29561    22.666735    597.95042   -552.53831   -13288.359    295.16891 
   17000    40.647892    40.647892    40.647892     -84.9798   -202.79434    372.73322   -778.23321   -84.437064    490.94578    -659.7367    32.292003    607.90257   -543.23088   -13288.971    296.61817 
   17050    40.647433    40.647433    40.647433   -41.121248    62.970544    638.57389   -512.54158    -258.0537    317.53298   -833.56526    71.719408    647.45266    -503.9535   -13287.587    294.20613 
   17100    40.646208    40.646208    40.646208    51.590538   -157.36983    418.21937   -732.90384    181.58593    757.27758   -394.03511    130.55551    706.21901   -445.01886   -13288.503    296.24409 
   17150     40.64691     40.64691     40.64691   -65.900093    88.764333    664.08174   -486.48043   -136.20971    439.40689   -711.72535    -150.2549    424.32938   -724.75622   -13288.567    296.63092 
   17200    40.647071    40.647071    40.647071   -5.7301942    85.350031    661.26342   -490.46491   -56.817588    519.22288   -632.77357   -45.723026    530.04836   -621.42026   -13287.799    295.40475 
   17250    40.647511    40.647511    40.647511    -25.19417   -189.67004    386.02131   -765.27913    87.685232    662.74407   -487.28715    26.402299    601.84162   -548.94108   -13287.151     294.4074 
   17300    40.646197    40.646197    40.646197    51.128973   -28.626207    546.64192   -603.82245   -66.967949    509.12521   -642.98697    248.98108    825.44618   -327.40281   -13286.795    293.97096 
   17350    40.645704    40.645704    40.645704     25.76403    133.32117    708.72842   -442.00303   -41.976564     533.2487   -617.11571    -14.05252    561.50018   -589.52572   -13287.693    295.95127 
   17400    40.646821    40.646821    40.646821    88.993293   -51.853742    523.89007   -627.51796    109.37425    685.10184   -466.28401    209.45937    785.04452    -366.0586   -13287.471    295.76596 
   17450    40.649304    40.649304    40.649304    -91.48287    7.8513218    582.70411   -566.91593   -111.95574    463.99537   -687.81778   -170.34419    405.31552   -745.93272   -13287.294    295.65469 
   17500     40.64965     40.64965     40.64965   -125.92975   -340.24098    234.45008   -914.86026    26.244848    601.27472   -548.68964   -63.793135    511.47823   -638.97006   -13288.019    297.29323 
   17550    40.646417    40.646417    40.646417    4.3014998   -46.704835    529.27428   -622.60323   -108.84987    466.82544   -684.44988     168.4592    743.68029   -406.67343   -13288.223    297.92335 
   17600    40.644359    40.644359    40.644359    139.68143    106.22348    682.11809   -469.57526    162.31823    737.97075   -413.25232    150.50258    726.26296   -425.19505   -13287.957    297.64168 
   17650    40.647422    40.647422    40.647422    14.878034    216.79361    792.58488    -358.9142   -132.52787    443.26728   -708.25022   -39.631644    536.05865   -615.23975   -13285.756    293.60247 
   17700    40.650624    40.650624    40.650624   -138.79927   -55.326369    519.78753   -630.36087   -197.14582    378.30446   -772.49216   -163.92561    411.15791   -738.91688   -13288.721    299.56013 
   17750    40.649172    40.649172    40.649172   -36.150917    61.241998    636.35059   -513.79613    19.197546    594.77215   -556.29142    -188.8923    386.66758   -764.36933    -13286.87    296.19526 
   17800    40.646619    40.646619    40.646619    134.11957     266.8086    842.31698   -308.61516    61.829198    637.65789   -513.92773    73.720902    649.59471   -502.07765   -13285.681    294.11104 
   17850    40.648224    40.648224    40.648224   -10.097739   -112.46807    463.30086    -688.1427   -4.1572798    571.30055   -579.53838    86.332135    662.21012   -489.45206   -13287.112    297.09284 
   17900    40.649757    40.649757    40.649757   -213.19533    -135.9982    439.04274   -710.96407   -465.20502    110.17666   -1040.4845   -38.382757    536.39238   -613.06281   -13288.333    299.66476 
   17950    40.646153    40.646153    40.646153     133.7404    157.47713    733.69028   -418.64842    242.56937    818.34351     -333.123    1.1747135    576.87166   -574.46428   -13286.412    296.14748 
   18000    40.646559    40.646559    40.646559    169.63043    205.26381    780.73686   -370.13526    36.418296    611.77086   -538.87727    267.20919      843.013   -308.50223   -13287.075    297.62351 
   18050    40.652159    40.652159    40.652159   -295.84138   -172.97238    401.68723   -747.54774   -283.00239    292.22302   -858.12481   -431.54937    143.37629   -1006.3855    -13288.39     300.3592 
   18100    40.650501    40.650501    40.650501    -73.75406   -73.999733    501.45548    -649.3711    -130.0967    445.70763   -705.81401   -17.165743    557.96813   -592.20348   -13285.795    295.52623 
   18150    40.646245    40.646245    40.646245    96.166344    155.87866    731.99092   -420.14678   -60.233594    515.44279   -635.82545    192.85397    768.58768   -382.80315   -13287.652    299.30984 
   18200    40.646927    40.646927    40.646927    175.47057    206.98394    782.46566   -368.40298     341.3466    916.96564   -234.18999   -21.918825    553.69235   -597.46631   -13285.156    294.66771 
   18250    40.652093    40.652093    40.652093   -179.84718   -56.152416     518.9352   -631.16139   -468.95038    106.23926   -1044.0407   -14.438737    560.72615   -589.50361   -13286.688    297.81787 
   18300     40.65108     40.65108     40.65108   -146.48119   -204.13115    371.45428    -779.6212   -120.05816    455.41952   -695.44149   -115.25425    460.35543   -690.79828   -13286.354    297.34563 
   18350    40.647339    40.647339    40.647339    152.34576    345.38026    920.79848   -229.97155    116.05076    691.59178   -459.43328   -4.3937254    570.87382   -579.55552   -13287.164    299.08915 
   18400    40.648314    40.648314    40.648314    39.840227    111.98087    687.38118   -463.32179    -97.70683    478.45489   -673.78633    105.24664    680.36647   -469.78619   -13284.387    293.89244 
   18450    40.649518    40.649518    40.649518   -43.171992   -2.8361551    572.36059    -577.9437     129.5971    705.37958   -446.07597   -256.27692    319.22127   -831.68207   -13286.612    298.36329 
   18500    40.648505    40.648505    40.648505    101.24795    218.24174    794.07516   -357.51634    15.561833    590.99593   -559.78311     69.94029    645.20816   -505.22461    -13284.19    293.83806 
   18550    40.648958    40.648958    40.648958   -52.247421   -4.6820598    571.10581   -580.37328   -196.79381    378.22173     -771.702    44.733607    620.24909   -530.71272   -13288.345    302.03487 
   18600    40.649113    40.649113    40.649113   -56.733612   -3.5033343    571.51672   -578.44659   -90.042583    485.37463   -665.37709    -76.65492     498.5906   -651.82131   -13286.397    298.41916 
   18650    40.648364    40.648364    40.648364    68.655145    224.00438    799.66959   -351.56015   -188.23487      387.494   -763.89533    170.19593    745.93813   -405.46112   -13286.073    297.94127 
   18700    40.650336    40.650336    40.650336   -80.376999   -141.46978    434.25546   -717.11578   -13.513316    562.36152   -589.29331     -86.1479    489.19256   -661.37911   -13285.705    297.38366 
   18750    40.650298    40.650298    40.650298   -128.58808   -83.145517    491.44033   -657.65092    -205.1903    369.97349   -780.25444   -97.428425    477.47295   -672.25513   -13287.988     301.9554 
   18800    40.646816    40.646816    40.646816    138.77851    312.50042    889.12344   -264.04145    83.938646     659.3395   -491.36841     19.89647    595.81332   -555.94245   -13284.734    295.80138 
   18850    40.648234    40.648234    40.648234    30.728254   -38.662071    536.85527   -614.08658   -7.3471006    568.67654   -583.30088    138.19393    713.34475   -436.86077   -13286.842    300.01921 
   18900    40.650992    40.650992    40.650992    -42.95928    148.55719     723.7751    -426.5724   -127.39375      447.996   -702.69253   -150.04128    425.00171   -725.01598   -13285.424    297.41421 
   18950    40.650288    40.650288    40.650288   -100.85335    -181.3983    394.00506   -756.70853    62.860203    638.18982   -512.37931   -184.02196    391.43432   -759.39019   -13286.265    299.17496 
   19000    40.647024    40.647024    40.647024    214.95262    284.83887    860.15983   -290.38921    51.056801    626.72197   -524.52315    308.96218     885.0794   -267.05214   -13285.026    296.90714 
   19050    40.649705    40.649705    40.649705   -81.133724   -129.00732    446.67264   -704.59787    75.547217    650.53427   -499.35828   -189.94107    384.85733   -764.65181   -13286.857    300.57186 
[...]
   13800        0.138    291.00261    7.7081202  0.024272743 -0.0045248811 -0.054579094    7.6533325    7.7629021    150.42255   -13024.964    -25759.56 
   13850       0.1385    289.48167    7.6931768 -0.019929264  -0.08086121 -0.054583579    7.6383864    7.7479614    149.63635     -13022.5   -25307.954 
   13900        0.139    291.70069    7.7764968 -0.020065687  0.036329728 -0.054531611    7.7217418    7.8312458    150.78339   -13021.951   -25975.869 
   13950       0.1395    292.40459    7.7633246  0.034195037  0.055360884 -0.054499605    7.7085723    7.8180708    151.14724   -13020.605   -26176.268 
   14000         0.14    290.29233    7.7626058 -0.019044665 0.0027132017 -0.054518023    7.7079069    7.8172988    150.05539   -13017.814   -25820.915 
   14050       0.1405    292.06281    7.7758053 -0.058294545 0.0016094312 -0.054534024    7.7210529    7.8305516    150.97057   -13017.015   -25730.401 
   14100        0.141    291.80496    7.8211659 0.00028761018 -0.017408969 -0.054509734    7.7664176    7.8759081    150.83729    -13015.17   -26013.482 
   14150       0.1415    297.26935     7.847889  0.039829398  0.040463454 -0.054479172    7.7931691    7.9026027    153.66189   -13016.276   -26427.273 
   14200        0.142    294.94924    7.8306521 -0.022628759 -0.015413473   -0.0544685    7.7759691    7.8853288     152.4626   -13013.352   -25975.366 
   14250       0.1425    285.96849    7.7274369 -0.019690775 -0.013715348 -0.054461395    7.6727938    7.7820737    147.82035   -13007.005   -25646.769 
   14300        0.143    294.08148     7.854946  0.040805067  0.032335478 -0.054410882    7.8002948    7.9095909    152.01404   -13009.485   -26426.955 
   14350       0.1435    290.28478    7.8710878 -0.0011355756  0.010547296 -0.054409915    7.8164492    7.9257199    150.05149   -13005.791   -26268.332 
   14400        0.144    292.02666    7.8550118 -0.054338121 -0.010967788 -0.054427486    7.8003655    7.9096516    150.95188   -13004.963   -25965.686 
   14450       0.1445    291.36909    7.8812951 -2.5298705e-05 -0.0035149583 -0.054409826    7.8266236      7.93596    150.61198   -13002.891   -26259.183 
   14500        0.145    293.05698    7.9126564  0.024818975 0.0090266216 -0.054362167     7.858122    7.9671843    151.48447   -13002.023    -26488.34 
   14550       0.1455    291.11591    7.8783456  0.041595587 -0.004925422 -0.054358523    7.8237885     7.932896    150.48111   -12999.279   -26383.386 
   14600        0.146    289.72465    7.8605182 0.0018716117 -0.035585746 -0.054353629    7.8059194    7.9151102    149.76195   -12996.828   -26089.347 
   14650       0.1465    291.52433    7.8626249  0.020558716 -0.030841571 -0.054340143    7.8080605    7.9171825    150.69222   -12996.022   -26174.474 
   14700        0.147    287.28328    7.8480441 -0.0015077067  -0.02289151 -0.054312213    7.7934971    7.9025841    148.49998   -12992.095   -26078.816 
   14750       0.1475     287.2113    7.8283047 0.0036588903   0.01924008 -0.054285658      7.77375    7.8828523    148.46277   -12990.327   -26170.679 
   14800        0.148    290.08169    7.8122967  0.013847228  -0.02782856 -0.054281389    7.7578013     7.866785    149.94651   -12990.084   -25994.385 
   14850       0.1485    292.33905    7.7421444 -0.0042803489 -0.0072748583  -0.05427392    7.6876871    7.7965945    151.11336   -12989.525   -25768.631 
   14900        0.149    294.43287    7.6449516 0.0047456205  0.006668966 -0.054241538    7.5905317    7.6993642    152.19568   -12988.895   -25521.221 
   14950       0.1495    296.24667    7.5168203   0.01744676  0.010321422 -0.054219771    7.4623579     7.571275    153.13325   -12988.155   -25148.628 
   15000         0.15    296.72472    7.4013875 -0.046167886  0.052676284  -0.05422601    7.3469553    7.4558118    153.38037   -12986.745   -24692.986 
   15050       0.1505    304.25068     7.289207  -0.03265575  0.018369654 -0.054206486    7.2348515    7.3435544    157.27062   -12989.017   -24249.736 
   15100        0.151    303.02416    7.0944295 -0.051498951 0.0042977033  -0.05416999    7.0400488    7.1488015    156.63662   -12986.819   -23490.761 
   15150       0.1515     314.8956    6.9117087  0.021293995  0.039251207 -0.054090742    6.8574297    6.9659786     162.7731   -12991.459   -23240.846 
   15200        0.152    315.38381    6.6090598  0.059737802 -0.026761326 -0.054056491    6.5548909    6.6632191    163.02546   -12990.283   -22140.121 
   15250       0.1525    318.88193    6.2813558 -0.013337772 -0.011751581 -0.054035186    6.2272301    6.3354711    164.83368    -12990.77   -20854.222 
   15300        0.153    329.15876    5.9459889 -0.0053411582  0.031617617 -0.053999873    5.8919573    6.0000092    170.14589   -12994.899   -19907.551 
   15350       0.1535    334.15201    5.6073996  -0.02804573 -0.032032207 -0.053991113    5.5533417    5.6614448    172.72695   -12996.433   -18491.072 
   15400        0.154    335.01225    5.1941277   0.05202696 -0.054712672 -0.053953478    5.1401395    5.2481016    173.17162   -12995.982   -17304.806 
   15450       0.1545    339.12061    4.8524245  0.089519224 -0.046115315 -0.053890921    4.7985019    4.9063313    175.29528   -12997.384   -16319.428 
   15500        0.155    343.58505    4.5517803  0.043632239  0.028933698 -0.053888845    4.4979248    4.6056181      177.603   -12999.148   -15414.488 
   15550       0.1555    349.23647    4.2293884 -0.002056156 -0.023993203 -0.053941979    4.1753904    4.2833663    180.52429   -13001.647    -14011.13 
   15600        0.156    345.61369    3.9967499  0.008089561 -0.067938347 -0.053986565    3.9426068    4.0508703    178.65163   -12999.486   -13123.004 
   15650       0.1565    355.10777    3.8298894  0.051691972 0.0024924364 -0.053948442    3.7757863     3.883967    183.55923   -13004.207   -12946.913 
   15700        0.157    351.42257     3.737719 -0.014077183   0.03788408 -0.053974592     3.683451    3.7919581     181.6543   -13002.195    -12538.42 
   15750       0.1575    358.45769    3.6579491 -0.0030485794  0.084621272 -0.054031601    3.6034972    3.7123688    185.29084   -13005.733   -12465.073 
   15800        0.158    355.47998    3.5921901  -0.03839707  -0.01969733 -0.054098898    3.5376508    3.6466937    183.75163   -13004.129   -11780.319 
   15850       0.1585    351.43079    3.5356221 -0.093812591 -0.018556763 -0.054128824    3.4810263    3.5901785    181.65855   -13001.971   -11410.843 
   15900        0.159     364.8669    3.5427921  0.098405366 -0.0077872278 -0.054074633    3.4883062    3.5972346    188.60383   -13008.866   -12111.368 
   15950       0.1595    356.19129    3.3844364  0.085001001  0.026523006 -0.054111723    3.3300332    3.4387921    184.11931   -13004.367   -11653.201 
   16000         0.16    363.57135    3.2883991 -0.0093785823 0.0022126777 -0.054195282    3.2337731    3.3429729    187.93414   -13008.194   -10937.444 
   16050       0.1605    365.11109     3.128248 -0.054426062 -0.026985662 -0.054238469    3.0737302    3.1827088    188.73005   -13008.979   -10156.121 
   16100        0.161    370.08371    3.0150355 -0.0099875136   0.01871793  -0.05425617    2.9604901    3.0695193    191.30046    -13011.61    -10079.22 
   16150       0.1615    370.83635    2.8453768  0.019332986  0.053176832 -0.054271189    2.7908627    2.8998245    191.68951    -13012.12   -9726.2886 
   16200        0.162    378.03957    2.7892592  0.055630419  0.041186128 -0.054320503    2.7345791    2.8438677    195.41293   -13016.033   -9620.2524 
   16250       0.1625     373.1588    2.5389907  0.066212881  -0.11165943  -0.05444095    2.4843318    2.5935729    192.89001   -13013.757   -8311.8137 
   16300        0.163     374.8996    2.3623098  0.074424775  -0.14920376 -0.054489272     2.307537    2.4170008    193.78985   -13015.001   -7625.1029 
   16350       0.1635    382.63058    2.2940821   0.06315873 -0.026724197 -0.054462816     2.239358    2.3487194    197.78608    -13019.47   -7768.3888 
   16400        0.164    380.30727    2.1500847    0.0121782  0.041511768 -0.054487142     2.095352    2.2047254    196.58513   -13018.697   -7345.9156 
   16450       0.1645    378.87379    2.0035787 -0.052340343  0.092383079 -0.054534687    1.9487451     2.058315    195.84415   -13018.358   -6812.0716 
   16500        0.165    383.34234    1.8617953  -0.10359716   0.09925781 -0.054590545    1.8068031    1.9166846      198.154   -13021.126   -6191.5197 
   16550       0.1655    386.85065     1.803676  0.035131414 -0.0061033968 -0.054634065    1.7483924    1.8588511    199.96748   -13023.506   -6109.0134 
   16600        0.166    387.79546    1.7171409 -0.041273482 -0.051024979 -0.054686701    1.6615086    1.7726591    200.45586   -13024.545   -5416.1414 
   16650       0.1665    386.74329    1.7093358  0.076839358 -0.042310129 -0.054676823    1.6539403    1.7646124    199.91199   -13024.593   -5812.8835 
   16700        0.167    388.86679    1.6343085  0.049165309  0.022115554 -0.054698125    1.5790286    1.6894645    201.00965   -13026.333   -5685.2979 
   16750       0.1675    386.10678    1.5964394 -0.039171896 -0.0060042019 -0.054782835    1.5410699    1.6516802    199.58296    -13025.55   -5170.8777 
   16800        0.168    394.07978    1.5770454 -0.012819212 -0.010615069 -0.054804503    1.5215877    1.6323694     203.7043   -13030.307   -5178.7038 
   16850       0.1685    392.40986    1.5734607 -0.0060250071 -0.0081855909 -0.054807864    1.5180034    1.6287794     202.8411   -13030.121   -5197.5003 
   16900        0.169    391.79696     1.579787   0.10645107 -0.044236454 -0.054781391    1.5247626    1.6346682    202.52428   -13030.495   -5473.3387 
   16950       0.1695    387.58396    1.5544042  0.047897714  0.025430158 -0.054820684    1.4992508    1.6094095    200.34653   -13029.029   -5425.7737 
   17000         0.17    391.69935    1.5421989 -0.055575788 -0.019208832 -0.054885243    1.4871969    1.5970478    202.47383   -13031.852   -4891.3811 
   17050       0.1705    386.92695    1.4884058 -0.041700297 -0.024794695 -0.054868378    1.4332561    1.5433968    200.00692    -13030.04   -4739.7027 
   17100        0.171    383.67815    1.4558597 -0.0077109956  0.077863311 -0.054815738    1.4008659    1.5106895    198.32758   -13029.031   -5086.7069 
   17150       0.1715    393.88257    1.4755461  0.045144501  0.063335249 -0.054810737      1.42034    1.5305823    203.60236   -13035.035   -5280.0861 
   17200        0.172    384.79627    1.4208353 -0.050745809 -0.055164584 -0.054906961    1.3656632    1.4758317    198.90555   -13031.048    -4383.083 
   17250       0.1725    390.80312     1.439334  -0.05529157  -0.05350203  -0.05489552    1.3839748    1.4945112    202.01056   -13034.845   -4435.1346 
   17300        0.173    389.74777    1.4413677  0.051808789  0.059416454 -0.054806054     1.386095    1.4964522    201.46504    -13035.02   -5175.3097 
   17350       0.1735    391.54363     1.494419  0.088326024  0.067063251 -0.054775914    1.4392336    1.5494097    202.39333   -13036.663   -5499.3609 
   17400        0.174    394.93153     1.386677 -0.016852696 0.0069006943 -0.054902588     1.331228    1.4419242    204.14458   -13039.169   -4589.0832 
   17450       0.1745    391.52248    1.3847862  -0.11758415 -0.042135774 -0.054974885    1.3295432    1.4398212     202.3824   -13038.116   -4083.5544 
   17500        0.175    395.53172    1.3710729 0.0035905558  0.052627406 -0.054897956     1.315988    1.4259433    204.45482   -13040.939   -4757.6361 
   17550       0.1755     388.7407    1.3046167  0.083098486  0.040742715 -0.054884968    1.2493285    1.3596836    200.94447   -13038.174   -4761.5265 
   17600        0.176    387.61423    1.3451975  0.040277587 0.0093846206 -0.054929844    1.2897432     1.400423    200.36218   -13038.354   -4649.5324 
   17650       0.1765    389.33577    1.1987386 -0.075971553  -0.10111027 -0.055028193     1.143472    1.2537691    201.25206   -13039.979   -3405.5227 
   17700        0.177     390.6426    1.2161529 -0.060889173  0.011740789  -0.05496892    1.1609758    1.2710864    201.92758   -13041.421    -3890.015 
   17750       0.1775    389.95107    1.3590803   0.02600683  0.076207038 -0.054872883    1.3037253    1.4141838    201.57012   -13041.822   -4870.9806 
   17800        0.178    388.20934    1.3330116  0.097678474  0.073942531 -0.054876643    1.2779829    1.3877813     200.6698   -13041.658   -5015.4419 
   17850       0.1785    392.63185    1.2284649   0.10442231 -0.088139339  -0.05496967    1.1733422    1.2833202    202.95585    -13044.74   -4149.1596 
   17900        0.179    388.21643    1.1191871 -0.040326125  -0.13051576 -0.055118491    1.0637526    1.1743456    200.67347   -13043.215   -3161.1508 
   17950       0.1795    389.86731     1.185017 -0.043973976 -0.038446781 -0.055076185    1.1296436    1.2401063    201.52683    -13044.86    -3675.321 
   18000         0.18    388.75928      1.24759  0.032638885 -0.0054759418  -0.05497833    1.1918847    1.3030025    200.95407   -13045.059   -4249.1765 
   18050       0.1805     388.4357    1.3285145  0.073279698  0.078766804 -0.054911874    1.2728296    1.3838981    200.78681   -13045.649   -4935.2034 
   18100        0.181    386.57142    1.2380388  0.062495771   0.10221958 -0.054984956    1.1822292    1.2935385    199.82314   -13045.462   -4675.8471 
   18150       0.1815     397.9622    1.1262931 -0.059847116  0.016965504 -0.055147398    1.0707798    1.1814885    205.71116   -13052.142   -3611.3715 
   18200        0.182    386.70589    1.0471937  -0.13752513  -0.12353221 -0.055277328   0.99135814    1.1027033    199.89265   -13047.077   -2620.4546 
   18250       0.1825     394.8271    1.1209112 -0.032620483   0.01448023 -0.055161194     1.065588    1.1759013     204.0906   -13052.093   -3675.9033 
   18300        0.183    387.78504    1.1964364  0.048006077   0.07188904  -0.05505103    1.1406393    1.2518922    200.45047   -13049.239   -4387.7716 
   18350       0.1835    387.08206    1.2137367 -0.0015931206   0.11469475 -0.055037502    1.1585309    1.2685936     200.0871   -13049.668   -4422.7945 
   18400        0.184    391.30638    1.1735967 -0.013364151 -0.0038303574 -0.055122399    1.1183796     1.228457     202.2707   -13052.678   -3854.6739 
   18450       0.1845    389.32619    1.1271053 -0.035330389  -0.11533933 -0.055196202    1.0714812    1.1823644    201.24712   -13052.403   -3254.7854 
   18500        0.185    382.04815    1.1364021  0.019662652 -0.078028957 -0.055139018    1.0808491    1.1915814    197.48501   -13049.423   -3593.4527 
   18550       0.1855    390.87765    1.2327455  0.072181376  0.086389418 -0.055021712    1.1770516    1.2880567    202.04908   -13054.743    -4637.721 
   18600        0.186    396.17832    1.2647788  0.058698707   0.06252672 -0.055029547    1.2089324    1.3202329    204.78906   -13058.285    -4620.014 
   18650       0.1865     384.4525    1.2280297   -0.1118591 -0.023570913 -0.055148224    1.1724047    1.2832534    198.72785   -13052.988   -3641.9989 
   18700        0.187    388.49368    1.2284784 -0.079066864 -0.040343693 -0.055152781    1.1729764    1.2835706    200.81678   -13055.839   -3696.8928 
   18750       0.1875    389.18303    1.3209374 -0.010680474  0.066132952 -0.055034337    1.2654589    1.3759978    201.17312   -13056.965   -4587.9664 
   18800        0.188     386.1058     1.332081   0.11712684  0.083051891 -0.054995051    1.2767937     1.386942    199.58246   -13056.117   -5107.5325 
   18850       0.1885      384.702    1.2476339 -0.0073354529 0.0034565014 -0.055086812     1.192391    1.3024413    198.85682    -13056.15   -4145.8499 
   18900        0.189    384.66373    1.1687925 -0.092357828 -0.048979653 -0.055178425    1.1128038    1.2243354    198.83704   -13056.857   -3424.8502 
   18950       0.1895    395.51192    1.2350812  0.027767175 -0.020614289 -0.055132252    1.1792276    1.2904797    204.44459   -13063.229   -4140.7803 
   19000         0.19    378.98918    1.1501441  0.012166513 -0.025531479 -0.055127327    1.0945991    1.2052254     195.9038   -13055.442   -3789.2638 
   19050       0.1905    387.61941    1.1367401   0.12777482 0.0064263401 -0.055111554      1.08147    1.1915374    200.36486   -13060.647   -4236.4709 
   19100        0.191    385.70198    1.1159255 -0.037046316  0.023357423 -0.055189749    1.0604798    1.1708887    199.37372   -13060.427   -3674.1221 
   19150       0.1915    386.53321    1.0857961 -0.016195891 -0.019901586 -0.055194311    1.0298358    1.1412638    199.80339   -13061.579   -3498.9954 
   19200        0.192     385.5587     1.090416 -0.0014207943  -0.00961978 -0.055203558    1.0344484     1.145882    199.29966   -13061.828   -3597.9182 
   19250       0.1925      381.164    1.1555136 -0.035659554  0.019390482 -0.055176198    1.1002875    1.2102293    197.02799   -13060.286   -3797.4817 
   19300        0.193    389.03181     1.194345  0.030486506   0.10550442 -0.055143917    1.1386855    1.2494842    201.09495   -13065.093    -4434.453 
   19350       0.1935    377.66378    1.1810355 -0.036496313 -0.023293605 -0.055205217    1.1254251    1.2361165    195.21868    -13059.96   -3737.4853 
   19400        0.194    384.98533    1.1240802  0.031507733 -0.054207063 -0.055217826     1.067858    1.1797634    199.00328   -13064.441   -3671.2697 
   19450       0.1945    381.38593    1.0808835  0.030384572 -0.038904163 -0.055217232    1.0249711    1.1362474    197.14271   -13063.304   -3574.5463 
   19500        0.195    380.89279    1.0675193 0.0024422387  0.034502455 -0.055196086    1.0122361    1.1222451     196.8878   -13063.772   -3681.5467 
   19550       0.1955    380.04329    1.0948515 -0.00095820485 0.0065305545  -0.05519458    1.0400466      1.14909    196.44868   -13064.041   -3668.0793 
   19600        0.196    384.71164    1.1750214  0.016750462  0.064105404 -0.055156916    1.1191172    1.2303486     198.8618   -13067.148   -4186.2577 
   19650       0.1965    369.22355     1.016534 -0.095062777 0.0077902741 -0.055195615   0.96076067    1.0717201    190.85583   -13059.869   -3097.5383 
   19700        0.197    375.65019    1.0280438 -0.014181062 0.0037700741 -0.055206244   0.97286502    1.0826256    194.17784   -13063.927   -3392.1092 
   19750       0.1975    381.40547    1.0404183  0.023180125 -0.016286545 -0.055184582   0.98463465    1.0955942     197.1528   -13067.595   -3491.0397 
   19800        0.198    380.55633    1.0235517  0.060801435 0.0086847831 -0.055159166   0.96769214    1.0787927    196.71388   -13067.864   -3643.4596 
   19850       0.1985     380.7584   0.99162643   0.10413245  0.023323468 -0.055194516   0.93613661     1.046487    196.81833    -13068.69   -3730.2745 
   19900        0.199    377.58425   0.92544335 -0.0082770011 -0.079140986 -0.055304379    0.8696597   0.98058598    195.17757    -13067.76   -2793.4179 
   19950       0.1995    376.80436   0.93285653 -0.055522463 -0.054477259 -0.055328079   0.87623854   0.98882136    194.77444   -13068.075    -2742.856 
   20000          0.2    377.76767    1.0265785 -0.024532225  0.034028566 -0.055237368   0.97019213    1.0823013    195.27238   -13069.274   -3453.5827 
Loop time of 1233.96 on 4 procs for 20000 steps with 4000 atoms

Pair  time (%) = 1062.81 (86.1307)
Neigh time (%) = 0.475527 (0.0385368)
Comm  time (%) = 77.7605 (6.30172)
Outpt time (%) = 0.122916 (0.0099611)
Other time (%) = 92.7815 (7.51904)

Nlocal:    1000 ave 1005 max 995 min
Histogram: 1 0 0 1 0 0 0 1 0 1
Nghost:    3742.5 ave 3761 max 3726 min
Histogram: 1 0 1 0 0 0 1 0 0 1
Neighs:    68798.5 ave 70658 max 66857 min
Histogram: 2 0 0 0 0 0 0 0 0 2
FullNghs:  0 ave 0 max 0 min
Histogram: 4 0 0 0 0 0 0 0 0 0

Total # of neighbors = 275194
Ave neighs/atom = 68.7985
Neighbor list builds = 82
Dangerous builds = 0

######################################
# SIMULATION DONE
print "All done"
All done
