LAMMPS (28 Jun 2014)
# Input file for uniaxial tensile loading of single crystal aluminum
# Mark Tschopp, November 2010

# ------------------------ INITIALIZATION ----------------------------
units 		metal
dimension	3
boundary	p	p	p
atom_style	atomic
variable latparam equal 4.05

# ----------------------- ATOM DEFINITION ----------------------------
lattice		fcc ${latparam}
lattice		fcc 4.05
Lattice spacing in x,y,z = 4.05 4.05 4.05
region		whole block 0 10 0 10 0 10
create_box	1 whole
Created orthogonal box = (0 0 0) to (40.5 40.5 40.5)
  1 by 2 by 2 MPI processor grid
lattice 	fcc ${latparam} orient x 1 0 0 orient y 0 1 0 orient z 0 0 1
lattice 	fcc 4.05 orient x 1 0 0 orient y 0 1 0 orient z 0 0 1
Lattice spacing in x,y,z = 4.05 4.05 4.05
create_atoms	1 region whole
Created 4000 atoms

# ------------------------ FORCE FIELDS ------------------------------
pair_style	eam/alloy
pair_coeff	* * Al99.PosFRho.ZeroRhoR.ZeroPhiR.eam.alloy Al

# ------------------------- SETTINGS ---------------------------------
compute csym all centro/atom fcc
compute peratom all pe/atom

######################################
# EQUILIBRATION
reset_timestep	0
timestep 0.001
velocity all create 300 12345 mom yes rot no
fix 1 all npt temp 300 300 1 iso 0 0 1 drag 1

# Set thermo output
thermo 1000
thermo_style custom step lx ly lz press pxx pyy pzz pe temp

# Run for at least 10 picosecond (assuming 1 fs timestep)
run 20000
Memory usage per processor = 3.04301 Mbytes
Step Lx Ly Lz Press Pxx Pyy Pzz PotEng Temp 
       0         40.5         40.5         40.5    2496.1223    2446.9892    2534.6531    2506.7246    -13435.68          300 
    1000    40.557656    40.557656    40.557656    865.29891    853.77899     837.5154    904.60235   -13356.804    165.23438 
    2000    40.571547    40.571547    40.571547    261.74141    196.84444    289.07975    299.30003   -13352.112    178.76842 
    3000    40.580435    40.580435    40.580435    102.39688    16.980769    199.23412    90.975756   -13345.671     189.3081 
    4000    40.588182    40.588182    40.588182     63.55676    18.582251    37.337489    134.75054   -13336.155     193.8941 
    5000    40.593104    40.593104    40.593104    183.58345    268.54076    243.31848    38.891107   -13329.924    204.58733 
    6000    40.600245    40.600245    40.600245    87.095641    102.19905   -18.469145    177.55702   -13323.005    213.44704 
    7000    40.607839    40.607839    40.607839   -21.699483   -27.388432    68.867244   -106.57726   -13317.439    224.17501 
    8000    40.612449    40.612449    40.612449    55.697257    39.558796    97.849461    29.683513   -13313.772    237.56428 
    9000    40.618029    40.618029    40.618029   -6.1707992   -97.442973    100.56894   -21.638369   -13311.592    252.64197 
   10000    40.626125    40.626125    40.626125   -48.892462   -32.815054    32.666554   -146.52889   -13301.875    251.71698 
   11000    40.629562    40.629562    40.629562   -9.2159665   -261.67743    116.36029    117.66924    -13298.73    261.94542 
   12000    40.632778    40.632778    40.632778   -71.845267    69.596129   -124.09168   -161.04025   -13296.983    273.20156 
   13000    40.639673    40.639673    40.639673   -172.95583    -259.6353   -351.98274    92.750538   -13293.852    280.02783 
   14000     40.64047     40.64047     40.64047   -38.520442   -332.79778    43.818431    173.41802   -13289.397    282.52968 
   15000    40.642036    40.642036    40.642036     109.0273    342.60279   -99.602016    84.081109   -13286.897    287.10056 
   16000    40.641878    40.641878    40.641878    244.71686    209.52054    146.88491    377.74512   -13286.085    293.27229 
   17000    40.648062    40.648062    40.648062   -119.46093   -214.73311   -126.31245   -17.337219   -13285.071    297.43622 
   18000    40.646037    40.646037    40.646037    238.85139    353.17977    14.049725    349.32467   -13281.816    295.80803 
   19000    40.649109    40.649109    40.649109    32.716305    140.89764   -261.78155    219.03283   -13280.674    296.82434 
   20000    40.648145    40.648145    40.648145    117.09488    63.247359   -40.838602    328.87587    -13281.91    301.15075 
Loop time of 257.979 on 4 procs for 20000 steps with 4000 atoms

Pair  time (%) = 211.591 (82.0186)
Neigh time (%) = 0 (0)
Comm  time (%) = 36.0506 (13.9742)
Outpt time (%) = 0.00249964 (0.000968931)
Other time (%) = 10.3352 (4.00621)

Nlocal:    1000 ave 1000 max 1000 min
Histogram: 4 0 0 0 0 0 0 0 0 0
Nghost:    4235 ave 4235 max 4235 min
Histogram: 4 0 0 0 0 0 0 0 0 0
Neighs:    70000 ave 72653 max 67302 min
Histogram: 1 0 1 0 0 0 0 1 0 1
FullNghs:  0 ave 0 max 0 min
Histogram: 4 0 0 0 0 0 0 0 0 0

Total # of neighbors = 280000
Ave neighs/atom = 70
Neighbor list builds = 0
Dangerous builds = 0
unfix 1

# Store final cell length for strain calculations
variable tmp equal "lx"
variable L0 equal ${tmp}
variable L0 equal 40.6481453069531
print "Initial Length, L0: ${L0}"
Initial Length, L0: 40.6481453069531

######################################
# DEFORMATION
reset_timestep	0

fix		1 all npt temp 300 300 1 y 0 0 1 z 0 0 1 drag 1
variable srate equal 1.0e10
variable srate1 equal "v_srate / 1.0e12"
fix		2 all deform 1 x erate ${srate1} units box remap x
fix		2 all deform 1 x erate 0.01 units box remap x

# Output strain and stress info to file
# for units metal, pressure is in [bars] = 100 [kPa] = 1/10000 [GPa]
# p2, p3, p4 are in GPa
variable strain equal "(lx - v_L0)/v_L0"
variable p1 equal "v_strain"
variable p2 equal "-pxx/10000"
variable p3 equal "-pyy/10000"
variable p4 equal "-pzz/10000"
fix def1 all print 20 "${p1} ${p2} ${p3} ${p4}" file  Al99.PosFRho.ZeroRhoR.ZeroPhiR.eam.alloy.def1.txt screen no

# Use cfg for AtomEye
#dump 		1 all cfg 250 dump.tensile_*.cfg id type xs ys zs c_csym c_peratom fx fy fz
#dump_modify 1 element Al

# Display thermo
thermo 	1000
thermo_style	custom step v_strain temp v_p2 v_p3 v_p4 ke pe press

run		20000
Memory usage per processor = 3.04301 Mbytes
Step strain Temp p2 p3 p4 KinEng PotEng Press 
       0            0    301.15075 -0.0063247359 0.0040838602 -0.032887587    155.66823    -13281.91    117.09488 
    1000         0.01    299.79494   0.66346404 -0.00081707561 -0.0060911162     154.9674   -13278.785   -2188.5195 
    2000         0.02    301.81817    1.3076344 -0.00056772891 -0.018104858    156.01323    -13274.48   -4296.5394 
    3000         0.03    300.22063    1.8957901 -0.0028112117  0.020356835    155.18744   -13265.564   -6377.7859 
    4000         0.04     297.1776     2.505893 -0.0047149529 0.0021427828    153.61447   -13253.233   -8344.4026 
    5000         0.05    296.60157    3.1168145 -0.020998104 -0.026839737    153.31671   -13239.586   -10229.922 
    6000         0.06     302.6404     3.725729  0.025322017  0.002076601    156.43825   -13226.955   -12510.425 
    7000         0.07     298.9977    4.2680213  0.011847144  0.014695896     154.5553   -13207.019   -14315.214 
    8000         0.08    297.82048    4.8677212  0.036031122   0.04887299    153.94678   -13186.048   -16508.751 
    9000         0.09     296.4654    5.3913612 -0.058595149 -0.071239203    153.24632   -13162.677   -17538.423 
   10000          0.1    297.16246    5.9250306  0.042451661 -0.0014739866    153.60664   -13138.158   -19886.694 
   11000         0.11    292.84286    6.4853767  0.032752343  0.040181817    151.37379   -13108.855   -21861.036 
   12000         0.12     297.1437    6.9218749 -0.056979337 -0.054198717    153.59694   -13081.799   -22702.323 
   13000         0.13    289.72472    7.4063709 0.0028220833 -0.019061577    149.76199   -13046.587   -24633.771 
   14000         0.14    289.44773    7.6739317 -0.041908854 -0.070290132    149.61881   -13013.157   -25205.776 
   15000         0.15       289.53    7.4948978    0.1290812  0.079500105    149.66133   -12978.755   -25678.264 
   16000         0.16    379.23231    2.2168013  0.052075457 -0.046333731    196.02947   -13013.973   -7408.4767 
   17000         0.17    400.44028    1.6432608   0.10864756 -0.010535747    206.99211   -13036.452   -5804.5753 
   18000         0.18     410.5694    1.4060615  0.059204252 -0.0045817994    212.22797   -13057.936   -4868.9465 
   19000         0.19    416.59813   0.91497318 0.0051467336  0.016447764    215.34429   -13081.293   -3121.8923 
   20000          0.2    408.37677   0.99380677  -0.12602171 -0.059360914    211.09458   -13099.181   -2694.7472 
Loop time of 333.315 on 4 procs for 20000 steps with 4000 atoms

Pair  time (%) = 271.039 (81.316)
Neigh time (%) = 0.495606 (0.14869)
Comm  time (%) = 45.5807 (13.675)
Outpt time (%) = 0.00383979 (0.001152)
Other time (%) = 16.1964 (4.85918)

Nlocal:    1000 ave 1014 max 984 min
Histogram: 1 1 0 0 0 0 0 0 0 2
Nghost:    3730.5 ave 3742 max 3720 min
Histogram: 2 0 0 0 0 0 0 0 1 1
Neighs:    69146 ave 70807 max 67250 min
Histogram: 1 1 0 0 0 0 0 0 0 2
FullNghs:  0 ave 0 max 0 min
Histogram: 4 0 0 0 0 0 0 0 0 0

Total # of neighbors = 276584
Ave neighs/atom = 69.146
Neighbor list builds = 81
Dangerous builds = 0

######################################
# SIMULATION DONE
print "All done"
All done
