LAMMPS (28 Jun 2014)
# Input file for uniaxial tensile loading of single crystal aluminum
# Mark Tschopp, November 2010

# ------------------------ INITIALIZATION ----------------------------
units 		metal
dimension	3
boundary	p	p	p
atom_style	atomic
variable latparam equal 4.05

# ----------------------- ATOM DEFINITION ----------------------------
lattice		fcc ${latparam}
lattice		fcc 4.05
Lattice spacing in x,y,z = 4.05 4.05 4.05
region		whole block 0 10 0 10 0 10
create_box	1 whole
Created orthogonal box = (0 0 0) to (40.5 40.5 40.5)
  1 by 2 by 2 MPI processor grid
lattice 	fcc ${latparam} orient x 1 0 0 orient y 0 1 0 orient z 0 0 1
lattice 	fcc 4.05 orient x 1 0 0 orient y 0 1 0 orient z 0 0 1
Lattice spacing in x,y,z = 4.05 4.05 4.05
create_atoms	1 region whole
Created 4000 atoms

# ------------------------ FORCE FIELDS ------------------------------
pair_style	eam/alloy
pair_coeff	* * Al99.posFRho.eam.alloy Al

# ------------------------- SETTINGS ---------------------------------
compute csym all centro/atom fcc
compute peratom all pe/atom

######################################
# EQUILIBRATION
reset_timestep	0
timestep 0.001
velocity all create 300 12345 mom yes rot no
fix 1 all npt temp 300 300 1 iso 0 0 1 drag 1

# Set thermo output
thermo 50
thermo_style custom step lx ly lz press pxx pyy pzz pe temp

# Run for at least 10 picosecond (assuming 1 fs timestep)
run 20000
Memory usage per processor = 3.04301 Mbytes
Step Lx Ly Lz Press Pxx Pyy Pzz PotEng Temp 
       0         40.5         40.5         40.5    2496.1223    2446.9892    2534.6531    2506.7246    -13435.68          300 
      50    40.561112    40.561112    40.561112    908.56211    838.23349    947.55894    939.89389   -13334.499    103.26996 
     100    40.636918    40.636918    40.636918   -4612.3211   -4606.9813   -4634.1951   -4595.7869   -13369.208    171.80483 
     150    40.566423    40.566423    40.566423    543.21189    508.14933    620.80877    500.67759   -13344.588    124.15895 
     200    40.511732    40.511732    40.511732    3547.7184    3643.6874     3486.418    3513.0499   -13350.897    137.90777 
     250    40.565777    40.565777    40.565777    168.98615     92.59265    220.14468    194.22111   -13355.182    146.72417 
     300     40.61127     40.61127     40.61127   -2466.6296   -2412.9067   -2483.9511   -2503.0309   -13355.792     149.2112 
     350    40.571417    40.571417    40.571417   -410.67602   -484.75511    -348.7301   -398.54285   -13363.019    163.76471 
     400    40.532328    40.532328    40.532328     2225.499    2279.7369    2296.6035    2100.1566   -13355.533    150.40893 
     450    40.566032    40.566032    40.566032    4.2729928   -37.865253   -29.649644    80.333875   -13358.761    157.36778 
     500    40.595993    40.595993    40.595993   -1611.0751   -1655.0693   -1478.9334   -1699.2225   -13355.083    151.32598 
     550    40.570913    40.570913    40.570913   -164.17078   -152.35167   -169.51938   -170.64129   -13356.416    154.75602 
     600    40.545118    40.545118    40.545118    1385.6024    1414.0811    1432.8286    1309.8976   -13357.594    158.15855 
     650    40.566223    40.566223    40.566223    214.79586    186.24403    247.73264    210.41092   -13353.785    151.74444 
     700    40.590024    40.590024    40.590024   -1217.1231    -1343.253   -1125.9718   -1182.1446   -13355.886    156.93176 
     750    40.572998    40.572998    40.572998   -252.60336   -288.68288   -265.39251    -203.7347   -13356.217    158.57453 
     800    40.551385    40.551385    40.551385    1208.3276    1077.9696    1321.8659    1225.1472   -13352.843    153.20998 
     850    40.567637    40.567637    40.567637    38.016701    29.458787    97.591854    -13.00054   -13357.851    163.91821 
     900     40.58659     40.58659     40.58659   -905.57218    -936.4363   -839.80356   -940.47667    -13356.18     161.8218 
     950    40.575747    40.575747    40.575747   -244.24662   -260.04803   -193.51827   -279.17357    -13350.72    152.31205 
    1000    40.557656    40.557656    40.557656    865.29891    853.77899     837.5154    904.60235   -13356.804    165.23438 
    1050    40.567346    40.567346    40.567346    298.32351    234.94382      414.627     245.3997   -13348.629    150.48002 
    1100    40.584465    40.584465    40.584465   -761.96347   -853.49771   -673.92283   -758.46988   -13356.145    166.16343 
    1150    40.576044    40.576044    40.576044   -144.23497   -203.73483   -31.944903   -197.02519    -13349.43    154.27249 
    1200    40.562434    40.562434    40.562434    594.53613    539.44222    625.06795    619.09821    -13355.51    167.17853 
    1250    40.569408    40.569408    40.569408    168.73792    94.803784    252.19219    159.21779   -13351.697    160.90061 
    1300    40.581921    40.581921    40.581921   -560.21053   -581.69862   -449.57193   -649.36103   -13353.277    165.09048 
    1350    40.576007    40.576007    40.576007   -189.35962   -341.98665   -121.18756   -104.90466   -13352.507    164.72112 
    1400    40.566161    40.566161    40.566161    565.43897    498.66964    641.15847    556.48881   -13350.067    161.14135 
    1450    40.572987    40.572987    40.572987   -6.8455562   -52.447653   -7.4094961     39.32048   -13352.444    166.86061 
    1500    40.579816    40.579816    40.579816   -267.02523   -332.44091   -175.70949   -292.92529   -13349.354    162.03714 
    1550    40.576889    40.576889    40.576889   -222.40146   -337.07385   -209.52518   -120.60534   -13353.007    170.22491 
    1600    40.569055    40.569055    40.569055    377.28757    357.87145    458.27855    315.71272   -13348.387    162.43028 
    1650    40.573334    40.573334    40.573334    123.28739    67.491971    163.54943    138.82076   -13351.078    168.76214 
    1700    40.580724    40.580724    40.580724   -350.87449   -404.09395   -356.33532   -292.19421   -13347.852    163.68186 
    1750    40.576903    40.576903    40.576903   -33.573697   -52.128187   -65.208387    16.615482   -13351.229    171.32846 
    1800    40.570733    40.570733    40.570733    303.38601    205.41888    337.14098    367.59816   -13346.934    164.18529 
    1850    40.573835    40.573835    40.573835    242.71696    161.97826    293.31802    272.85461    -13347.67    166.73777 
    1900    40.582547    40.582547    40.582547   -408.08838   -516.69027   -372.00557   -335.56928   -13351.562    175.42353 
    1950    40.579089    40.579089    40.579089    -122.5764   -79.758205   -81.903752   -206.06723   -13345.711    165.22814 
    2000    40.571547    40.571547    40.571547    261.74141    196.84444    289.07975    299.30003   -13352.112    178.76842 
    2050    40.574154    40.574154    40.574154    292.62592    440.52339    284.70116     152.6532   -13344.712    165.59104 
    2100    40.583736    40.583736    40.583736   -349.15287   -571.31132    -278.1332   -198.01408   -13348.501    174.07963 
    2150    40.580951    40.580951    40.580951   -116.97695   -187.26525   -85.366486    -78.29911   -13344.024    166.55478 
    2200    40.573271    40.573271    40.573271     266.2872     326.8784    144.74487    327.23832   -13348.039    175.46501 
    2250    40.574832    40.574832    40.574832    152.71169    254.60395    169.71123    33.819882   -13347.672    175.91737 
    2300    40.582539    40.582539    40.582539   -229.36307   -262.00247    -227.2895   -198.79724   -13346.779    175.32379 
    2350    40.582525    40.582525    40.582525   -262.68837   -231.36551   -224.34304   -332.35655    -13346.69    176.31046 
    2400    40.575158    40.575158    40.575158     304.4408    318.10354    230.20969    365.00919    -13344.56    173.33744 
    2450     40.57605     40.57605     40.57605     117.0973   -48.367133    232.95176    166.70727   -13345.458    176.23198 
    2500    40.582012    40.582012    40.582012   -85.405311   -222.26776   -50.134874    16.186699   -13344.277    175.07677 
    2550    40.583925    40.583925    40.583925   -282.09392   -330.87933    -352.9119   -162.49052   -13346.482     180.5086 
    2600    40.577244    40.577244    40.577244    316.78652     230.9759    392.99348    326.39018   -13341.372    171.78233 
    2650    40.578943    40.578943    40.578943    14.320226    146.19272   -43.530502   -59.701537   -13346.592    183.01533 
    2700     40.58354     40.58354     40.58354   -174.17016   -293.38115    -111.1812   -117.94813   -13342.476    176.21057 
    2750    40.582531    40.582531    40.582531   -40.889569   -66.269598   -88.237447    31.838339   -13344.349    180.97837 
    2800    40.578745    40.578745    40.578745    108.11318   -20.681949    190.96139    154.06012   -13342.059     177.7149 
    2850    40.579334    40.579334    40.579334    125.76718    83.126136    125.81483    168.36057   -13345.263    185.05577 
    2900    40.584666    40.584666    40.584666   -69.085295   -151.77645   -33.148046   -22.331385   -13341.545    179.01182 
    2950     40.58541     40.58541     40.58541   -183.80032   -155.39081   -314.33968   -81.670478   -13341.167    179.44986 
    3000    40.580435    40.580435    40.580435    102.39688    16.980769    199.23412    90.975756   -13345.671     189.3081 
    3050    40.580522    40.580522    40.580522    63.354863    45.327317    21.563857    123.17341   -13340.894    181.20802 
    3100    40.584732    40.584732    40.584732   -106.79306   -222.46914   -58.738119   -39.171928   -13343.112    186.65661 
    3150    40.585906    40.585906    40.585906    -140.8975    -193.9675   -103.76441    -124.9606   -13340.005    181.78354 
    3200    40.582857    40.582857    40.582857    55.816947   -26.187738    83.472454    110.16613   -13342.435    187.65918 
    3250    40.582898    40.582898    40.582898     203.4964    155.16628    138.00066    317.32227   -13339.603    183.32331 
    3300    40.587602    40.587602    40.587602   -209.07535   -371.58168   -87.283526   -168.36086   -13340.744    186.68397 
    3350    40.586624    40.586624    40.586624   -9.9266714    -70.50043    -17.32278    58.043196   -13339.094    184.64703 
    3400    40.584877    40.584877    40.584877   -5.2101539   -170.50347     46.03105    108.84195   -13342.025    191.46221 
    3450    40.585471    40.585471    40.585471    10.703342    -97.63687    72.626684    57.120213   -13339.703    188.12236 
    3500    40.587721    40.587721    40.587721   -72.664839   -198.01814    -59.80613    39.829757   -13340.322    190.47117 
    3550    40.587003    40.587003    40.587003   -57.593447   -71.079214    6.3768848   -108.07801   -13338.175    187.47288 
    3600    40.585225    40.585225    40.585225    109.04113    96.127595    57.943823    173.05198   -13338.073     188.4148 
    3650     40.58691     40.58691     40.58691   -3.2241211   -11.168834   -44.471275    45.967745   -13337.719    188.87614 
    3700    40.588522    40.588522    40.588522   -26.723428   -82.987711   -11.721748    14.539175   -13338.194    190.95833 
    3750    40.588413    40.588413    40.588413   -6.3810019    43.776475    -56.36733   -6.5521508   -13337.993    191.71816 
    3800     40.58756     40.58756     40.58756      20.7769   -96.785545    156.29021    2.8260373   -13337.989    192.86236 
    3850    40.588193    40.588193    40.588193    104.35119    51.984162    76.217066    184.85233   -13335.111    188.42437 
    3900    40.590096    40.590096    40.590096   -61.368566    41.563476   -162.91842   -62.750757   -13335.924    191.15944 
    3950    40.589093    40.589093    40.589093    26.112504   -117.58012    111.48054    84.437089    -13336.14    192.71745 
    4000    40.588182    40.588182    40.588182     63.55676    18.582251    37.337489    134.75054   -13336.155     193.8941 
    4050    40.589304    40.589304    40.589304    52.206707    26.667421    48.510615    81.442087   -13334.902    192.61918 
    4100    40.591475    40.591475    40.591475   -69.155463   -80.376585   -72.021058   -55.068746   -13338.632    200.98639 
    4150     40.59121     40.59121     40.59121   -59.463158   -170.64997   -23.471399    15.731891   -13334.253    193.64978 
    4200    40.589446    40.589446    40.589446    125.83008    101.55988    27.990792    247.93957   -13332.755    191.89312 
    4250    40.590403    40.590403    40.590403   -5.5807421   -95.022372    71.900717    6.3794282   -13335.505    198.35667 
    4300    40.592339    40.592339    40.592339   -99.267831   -133.61733   -91.469476   -72.716686   -13335.405    199.30683 
    4350    40.591475    40.591475    40.591475     30.13834    -18.00203    116.05144   -7.6343939   -13332.919    195.64029 
    4400     40.59091     40.59091     40.59091    5.7458612   -68.854054    32.001746    54.089892   -13335.724    202.20802 
    4450    40.592152    40.592152    40.592152   -2.1805875    31.725963   -34.519232   -3.7484931   -13333.554    199.14775 
    4500    40.593673    40.593673    40.593673   -65.046967    36.674627   -96.485282   -135.33025   -13333.085    199.37432 
    4550    40.592382    40.592382    40.592382   -64.641543   -162.12849   -86.996347    55.200204   -13333.886    202.06755 
    4600    40.590317    40.590317    40.590317     249.0653    320.99468    283.95787    142.24336   -13331.148    197.90183 
    4650    40.594342    40.594342    40.594342   -36.161866   -43.302797    7.8507747   -73.033577    -13331.94    200.57336 
    4700    40.596304    40.596304    40.596304   -162.00579   -160.41982   -175.19767   -150.39989   -13331.838    201.51227 
    4750     40.59296     40.59296     40.59296    72.509804    98.053385    218.14677   -98.670739   -13332.347    203.62634 
    4800    40.592281    40.592281    40.592281     93.58022       177.41   -87.236986    190.56765   -13332.279    204.62821 
    4850     40.59548     40.59548     40.59548     4.818683   -107.69155     57.50142    64.646174   -13330.659    202.62649 
    4900    40.597416    40.597416    40.597416   -206.99684   -37.920113   -235.69747   -347.37294   -13331.329    205.05342 
    4950    40.592996    40.592996    40.592996    159.37426    79.142435    152.58867    246.39168   -13329.213    202.09065 
    5000    40.593104    40.593104    40.593104    183.58345    268.54076    243.31848    38.891107   -13329.924    204.58733 
    5050    40.598544    40.598544    40.598544   -114.90687   -165.41765   -168.61363    -10.68934   -13329.695    205.26849 
    5100    40.598823    40.598823    40.598823   -112.32379   -8.9117308   -166.71439   -161.34525   -13328.142    203.39552 
    5150    40.594303    40.594303    40.594303     96.14443    101.67741    86.885745    99.870135   -13330.645      209.358 
    5200    40.594072    40.594072    40.594072    197.22685    274.63917    222.51656    94.524813   -13330.689    210.56633 
    5250    40.599498    40.599498    40.599498    -88.94783   -116.29291   -109.13909   -41.411499   -13325.938    202.50282 
    5300    40.599899    40.599899    40.599899   -144.88398   -136.29629   -209.40459   -88.951059   -13328.627    208.82141 
    5350    40.595261    40.595261    40.595261    222.14496    256.91784    316.57348    92.943564   -13327.748    208.23953 
    5400    40.596209    40.596209    40.596209    152.64913    182.18046    167.60728    108.15964   -13327.216    208.32485 
    5450    40.601195    40.601195    40.601195   -136.90777   -285.82929   -29.721918   -95.172096   -13326.653    208.34604 
    5500     40.60124     40.60124     40.60124   -224.06831    -156.2955   -295.87539   -220.03405   -13329.118    214.22857 
    5550    40.595663    40.595663    40.595663    181.86068    236.67039    218.95802     89.95363   -13328.299    213.75882 
    5600      40.5965      40.5965      40.5965    158.27488    95.482371    127.34434    251.99793   -13326.692    211.76007 
    5650    40.602115    40.602115    40.602115   -121.92505   -161.93605   -126.60818   -77.230921   -13324.641    208.90136 
    5700    40.602075    40.602075    40.602075   -129.79068    -145.3346   -92.334377   -151.70306   -13326.652    213.89983 
    5750    40.597397    40.597397    40.597397    249.37536    129.67394    255.89599    362.55617    -13325.03    211.86764 
    5800    40.599033    40.599033    40.599033     81.27146    70.396067    220.07748   -46.659166   -13325.198    213.29837 
    5850    40.603216    40.603216    40.603216    -204.4847   -200.04959   -191.11952   -222.28498   -13326.661    217.23148 
    5900    40.602491    40.602491    40.602491   -127.03785   -248.31304   -17.593527     -115.207   -13325.205    215.49979 
    5950    40.598452    40.598452    40.598452    257.34652    271.40724    348.45368    152.17863   -13323.297    212.91833 
    6000    40.600245    40.600245    40.600245    87.095641    102.19905   -18.469145    177.55702   -13323.005    213.44704 
    6050    40.603841    40.603841    40.603841   -147.71095    -193.8958   -73.080328   -176.15671   -13325.858    220.06919 
    6100    40.602361    40.602361    40.602361    -27.27515    23.875435   -126.56102    20.860137    -13323.31    216.23084 
    6150    40.600052    40.600052    40.600052    91.220257   -57.490159    203.79409    127.35684   -13325.651    221.84499 
    6200    40.601906    40.601906    40.601906    19.056655     18.54855    68.627324   -30.005908   -13322.264     216.3795 
    6250    40.604769    40.604769    40.604769   -123.45508   -72.204653   -230.80768   -67.352912   -13322.993    218.87419 
    6300    40.603269    40.603269    40.603269    37.755216   -71.968161    209.24903    -24.01522   -13323.027    220.03387 
    6350     40.60239     40.60239     40.60239    53.567168    168.91063   -65.781196    57.572069   -13323.485    222.00411 
    6400    40.604429    40.604429    40.604429   -54.890497   -242.86731     82.02495   -3.8291353   -13322.868    221.88734 
    6450    40.605283    40.605283    40.605283   -102.98064    -17.80115    -200.6218    -90.51897   -13322.599    222.44457 
    6500    40.603858    40.603858    40.603858    39.117063   -146.97068   -28.880507    293.20238   -13322.481    223.28577 
    6550    40.603907    40.603907    40.603907    22.764615    29.807376    76.686734   -38.200266   -13320.382     220.2962 
    6600    40.605466    40.605466    40.605466    37.665381   -26.385968    31.731377    107.65073   -13320.818    222.21838 
    6650     40.60654     40.60654     40.60654    26.838098    -39.05966    290.22886   -170.65491   -13318.968    219.71489 
    6700    40.605944    40.605944    40.605944   -3.2449042   -32.838386   -14.845954    37.949627   -13321.168    225.04083 
    6750    40.605075    40.605075    40.605075     116.2087    10.989306    118.00157    219.63521   -13320.394    224.60785 
    6800    40.606355    40.606355    40.606355   -94.388652   -115.99391   -53.662969   -113.50908     -13320.3    225.48129 
    6850    40.606956    40.606956    40.606956   -132.12141   -176.91707   -114.03931   -105.40784   -13323.034    231.82391 
    6900    40.606494    40.606494    40.606494    38.962228   -42.028631     140.4024    18.512918   -13319.487     226.0231 
    6950    40.607113    40.607113    40.607113   -34.790751   -56.397126   -98.498224    50.523099    -13321.65    231.27388 
    7000    40.607839    40.607839    40.607839   -21.699483   -27.388432    68.867244   -106.57726   -13317.439    224.17501 
    7050    40.608415    40.608415    40.608415   -86.623052   -62.949016   -80.691963   -116.22818   -13319.909    229.99461 
    7100    40.607586    40.607586    40.607586  -0.46526864   -15.747067    51.088043   -36.736782   -13318.906    229.10586 
    7150    40.607845    40.607845    40.607845      21.3475    46.344113   -54.838007    72.536393   -13318.894      230.132 
    7200    40.609526    40.609526    40.609526   -78.039214   -101.92803     4.611489    -136.8011   -13319.172    231.71469 
    7250    40.609964    40.609964    40.609964    50.108065   0.33315426    75.153027    74.838015   -13316.859    228.28391 
    7300    40.609598    40.609598    40.609598   -70.182223   -13.866221   -179.23383   -17.446614   -13317.506    230.56828 
    7350    40.608298    40.608298    40.608298    149.08737    124.70655    183.67831    138.87726   -13315.499     227.7199 
    7400    40.610766    40.610766    40.610766    -39.51222   -22.499534    -64.16449   -31.872635   -13317.038    231.72626 
    7450    40.612252    40.612252    40.612252   -125.94617   -227.23658   -34.162953   -116.43897   -13318.566    235.70951 
    7500    40.610145    40.610145    40.610145   0.88717808   -85.152007    6.9824542    80.831087   -13316.731    233.19469 
    7550    40.608625    40.608625    40.608625    217.30744    153.07436    265.52546     233.3225   -13315.398    231.63472 
    7600    40.612371    40.612371    40.612371   -46.458845   -70.702986    10.787064   -79.460612   -13315.336    232.54213 
    7650    40.614144    40.614144    40.614144    8.2508182   -64.366113    127.68499   -38.566424   -13312.975    228.98551 
    7700    40.612426    40.612426    40.612426   -98.856838   -57.243006    -144.8494   -94.478104   -13315.273    234.45079 
    7750    40.608011    40.608011    40.608011    198.14494     201.0923     253.3913    139.95123   -13316.138    237.14009 
    7800     40.61124     40.61124     40.61124    10.434917    81.693972     -64.1335    13.744279    -13315.81    237.50634 
    7850    40.615829    40.615829    40.615829   -190.21767   -123.75817   -153.95744   -292.93741   -13312.633    232.36528 
    7900    40.614117    40.614117    40.614117   -63.550823   -179.58316   -47.915622    36.846313   -13315.343    238.61101 
    7950    40.610568    40.610568    40.610568    61.166042    99.742721    135.57011   -51.814704   -13316.132    241.14283 
    8000    40.612449    40.612449    40.612449    55.697257    39.558796    97.849461    29.683513   -13313.772    237.56428 
    8050    40.616777    40.616777    40.616777   -200.66216   -220.73062   -265.05145    -116.2044   -13313.164    237.39633 
    8100    40.613973    40.613973    40.613973   -30.511425   -63.354817    7.9795036   -36.158962   -13314.503     240.9779 
    8150    40.611129    40.611129    40.611129    233.33144    250.57035    198.80967    250.61429   -13312.171    237.44868 
    8200    40.615593    40.615593    40.615593    -73.56448   -143.68668    121.82247   -198.82923   -13313.905    241.79224 
    8250    40.618066    40.618066    40.618066   -98.456574    30.340123   -162.99908   -162.71077   -13309.953    235.12435 
    8300    40.615017    40.615017    40.615017    27.824119    -144.4534    206.70652     21.21924   -13311.893    239.85537 
    8350     40.61201     40.61201     40.61201    171.24663    262.56314    140.12039    111.05635    -13312.28    241.58258 
    8400    40.614494    40.614494    40.614494    143.05698   0.22606074    138.38882    290.55605   -13309.046    236.29936 
    8450    40.619006    40.619006    40.619006   -284.01182   -223.26479   -180.41828   -448.35237   -13313.436    245.76077 
    8500    40.615703    40.615703    40.615703   -29.815861   -69.865974   -99.891458    80.309849   -13311.239    242.47428 
    8550    40.611978    40.611978    40.611978    274.17439    270.94223    321.53106    230.04987   -13310.818    242.63169 
    8600    40.616635    40.616635    40.616635   -148.47734   -305.30558    24.448301   -164.57475   -13312.736    247.29534 
    8650    40.619416    40.619416    40.619416   -70.459873   -189.16143   -22.486578   0.26838817   -13309.507    242.00784 
    8700    40.618547    40.618547    40.618547   -117.32789   -40.442197   -88.672879   -222.86859   -13310.456    244.79143 
    8750    40.615408    40.615408    40.615408     183.9361    22.470219    267.83398    261.50408   -13308.347      241.666 
    8800     40.61583     40.61583     40.61583    47.372687    48.814776    83.610087     9.693197   -13309.537    244.91845 
    8850    40.617875    40.617875    40.617875    -29.19775   -15.070231    16.285086   -88.808105   -13309.906    246.56846 
    8900    40.618955    40.618955    40.618955    -197.7717   -70.965168   -268.93648   -253.41347   -13311.183    249.98231 
    8950    40.616683    40.616683    40.616683    114.12493     17.46327    206.88416    118.02737   -13307.835    244.43761 
    9000    40.618029    40.618029    40.618029   -6.1707992   -97.442973    100.56894   -21.638369   -13311.592    252.64197 
    9050     40.62018     40.62018     40.62018   -46.762246    28.464685   -92.675861    -76.07556   -13307.154    244.97741 
    9100    40.620101    40.620101    40.620101   -48.875611   -173.31887   -31.391962    58.083997   -13307.947    247.44138 
    9150    40.617633    40.617633    40.617633    150.12112     225.0881     100.6109    124.66436   -13305.766    244.14455 
    9200    40.617787    40.617787    40.617787    72.404233    41.676945    38.825734    136.71002   -13307.367    248.16435 
    9250    40.619676    40.619676    40.619676   -84.624319   -149.68132   -70.727031   -33.464608   -13307.034    248.43247 
    9300    40.619582    40.619582    40.619582    118.48908    124.90027    23.785256    206.78173   -13307.557    250.35985 
    9350    40.620651    40.620651    40.620651   -21.966832   -211.14547    48.582537    96.662436   -13306.623    249.44646 
    9400    40.621704    40.621704    40.621704   -110.83816    55.159496   -308.56688   -79.107097   -13306.632    250.36535 
    9450    40.620855    40.620855    40.620855    118.77335    22.063668    165.78851    168.46788   -13304.364    246.87627 
    9500    40.621475    40.621475    40.621475   -77.827295   -95.137383   -168.13744    29.792938   -13308.062    254.93163 
    9550    40.620979    40.620979    40.620979    80.987821   -81.702186    172.08732    152.57833   -13306.327     252.4774 
    9600    40.623133    40.623133    40.623133     -99.8257   -51.258857   -81.461778   -166.75647   -13306.675    254.03069 
    9650    40.623749    40.623749    40.623749   -98.089154   -111.41857    -148.8225   -34.026392   -13305.644    252.92686 
    9700    40.621809    40.621809    40.621809    26.502895    -102.5939    196.68166   -14.579075   -13306.893    256.22281 
    9750    40.621627    40.621627    40.621627    65.750186    49.180901    19.771549    128.29811   -13304.687    252.83421 
    9800    40.623628    40.623628    40.623628    29.834532   -257.82094    217.09336    130.23118    -13304.48    253.30369 
    9850     40.62511     40.62511     40.62511   -212.07201   -208.46346   -334.96031   -92.792265   -13306.633    258.33704 
    9900     40.62227     40.62227     40.62227    148.92749    129.11814     210.6324    107.03192   -13302.953    252.07603 
    9950    40.623391    40.623391    40.623391    3.5976361    71.677605    -160.3577    99.473006   -13306.072    258.97476 
   10000    40.626125    40.626125    40.626125   -48.892462   -32.815054    32.666554   -146.52889   -13301.875    251.71698 
   10050    40.625672    40.625672    40.625672   -112.52199   -263.47493   -94.440877     20.34983   -13304.714    258.06806 
   10100    40.621682    40.621682    40.621682    194.94498    27.644859    507.29014    49.899947   -13304.062    257.65467 
   10150    40.623977    40.623977    40.623977    151.36236    70.008147    38.961222    345.11771   -13301.463    253.47121 
   10200    40.629147    40.629147    40.629147   -267.87134    -510.6354   -161.01748   -131.96113   -13304.384    259.96094 
   10250    40.626318    40.626318    40.626318    137.48573    304.11659    13.105148    95.235451   -13299.545      251.434 
   10300     40.62421     40.62421     40.62421   -32.520125   -81.498635   -62.185909    46.124169    -13304.78    262.39872 
   10350    40.623629    40.623629    40.623629     178.1099    205.82123    263.83495    64.673511   -13300.968     255.8543 
   10400     40.62717     40.62717     40.62717   -212.52372   -224.21543   -249.12396   -164.23176   -13304.883    264.26164 
   10450    40.627007    40.627007    40.627007   -37.140688    -134.8519    84.308848   -60.879013   -13301.743     259.0038 
   10500     40.62586     40.62586     40.62586    3.9518124   -60.460731    -84.28661    156.60278   -13302.613    261.50017 
   10550    40.625616    40.625616    40.625616    113.93341    115.96138    309.88987   -84.051011   -13300.357    257.95066 
   10600    40.628365    40.628365    40.628365   -11.184159    67.545313   -26.887281   -74.210509   -13300.551    259.13434 
   10650    40.629597    40.629597    40.629597   -78.173213    27.205528   -86.769542   -174.95563   -13300.314      259.487 
   10700    40.627027    40.627027    40.627027    49.191086   -17.533896    168.90864   -3.8014879   -13301.679    262.93232 
   10750     40.62572     40.62572     40.62572    103.59427    132.34146    167.53558    10.905775    -13300.29    261.04014 
   10800    40.628963    40.628963    40.628963   -57.061142   -235.69691   -37.736936    102.25042   -13301.101    263.38909 
   10850    40.630241    40.630241    40.630241   -215.50011   -342.29086   -103.14735   -201.06212   -13301.484    264.92781 
   10900    40.625805    40.625805    40.625805    152.73902    79.379246    159.00013    219.83768   -13299.581    262.03196 
   10950    40.625885    40.625885    40.625885    156.98843    350.40799    29.920613    90.636678   -13300.015    263.65536 
   11000    40.629562    40.629562    40.629562   -9.2159665   -261.67743    116.36029    117.66924    -13298.73    261.94542 
   11050    40.631093    40.631093    40.631093   -214.07987   -395.22737   -156.62871   -90.383523    -13301.13     267.3573 
   11100    40.628347    40.628347    40.628347    -7.047393   -25.780929    -8.637512    13.276262   -13300.216    266.35151 
   11150    40.626876    40.626876    40.626876    46.726468   -29.502324    172.32599   -2.6442655   -13300.074    266.84734 
   11200    40.628863    40.628863    40.628863    67.273506   -22.740594   -55.562367    280.12348   -13298.442    264.44712 
   11250    40.631277    40.631277    40.631277   -203.14909   -311.42085   -194.18521   -103.84122   -13299.343    266.95241 
   11300    40.628051    40.628051    40.628051    147.01444    305.56053    47.414507    88.068294   -13297.268    263.68577 
   11350     40.62769     40.62769     40.62769    120.84824    48.604964      147.049    166.89076   -13298.196    266.22957 
   11400    40.631075    40.631075    40.631075   -77.044104   -161.92914    -53.02389    -16.17928   -13297.683    265.97702 
   11450    40.632373    40.632373    40.632373   -17.862946   -83.769058   -34.103916    64.284136   -13296.601    264.62791 
   11500    40.630732    40.630732    40.630732   -3.3115854    -160.0072    45.763919    104.30853   -13297.158     266.4412 
   11550    40.628905    40.628905    40.628905    122.84381    147.28979    124.93317    96.308469   -13297.806     268.4278 
   11600    40.630334    40.630334    40.630334    70.527995   -193.57189    112.45615    292.69972   -13296.649    266.91059 
   11650    40.634024    40.634024    40.634024   -176.06267   -95.591848   -87.883773   -344.71238   -13298.326    270.86884 
   11700    40.633198    40.633198    40.633198   -60.616564   -184.75181   -118.06598     120.9681   -13296.139    267.35367 
   11750    40.630523    40.630523    40.630523    18.422402   -50.117436    117.70583   -12.321188   -13297.987    271.63778 
   11800    40.630425    40.630425    40.630425    35.055672   -86.279328    26.061157    165.38519   -13297.764    271.92038 
   11850    40.633063    40.633063    40.633063   -85.425193   -97.442799   -136.28658   -22.546199   -13296.256    269.70197 
   11900    40.633313    40.633313    40.633313   -84.817537    18.008391   -34.657322   -237.80368   -13295.562    269.06585 
   11950    40.631252    40.631252    40.631252    116.76766    6.4283594    120.26846    223.60617   -13296.795    272.14596 
   12000    40.632778    40.632778    40.632778   -71.845267    69.596129   -124.09168   -161.04025   -13296.983    273.20156 
   12050    40.633315    40.633315    40.633315   -107.79695   -216.11264   -133.39195    26.113735   -13297.459    274.80777 
   12100    40.631927    40.631927    40.631927    65.341304    116.36999   -64.862141    144.51607   -13295.967    272.60305 
   12150    40.632568    40.632568    40.632568    56.181611    70.925501    40.857938    56.761393   -13295.027    271.45632 
   12200    40.635197    40.635197    40.635197   -47.440192   -174.42626   -56.528462    88.634146   -13294.259    270.64085 
   12250    40.635561    40.635561    40.635561   -134.31107   -129.19393   -36.584929   -237.15436   -13296.686    276.00191 
   12300    40.633083    40.633083    40.633083    128.02141    44.949721    65.210387    273.90411   -13293.887    271.25141 
   12350    40.633758    40.633758    40.633758    118.76863     5.044897    159.03171    192.22928    -13294.51    273.11775 
   12400    40.636497    40.636497    40.636497   -81.057099   -148.21802   -50.885527   -44.067753    -13294.21    273.19354 
   12450    40.636223    40.636223    40.636223   -113.22681   -125.66171    21.649455   -235.66817   -13294.739    274.86416 
   12500    40.633554    40.633554    40.633554    71.496653    -118.7433    93.435845    239.79742   -13294.812    275.65255 
   12550    40.634745    40.634745    40.634745    111.30435    152.82345    14.412253    166.67734   -13293.371    273.50751 
   12600    40.638037    40.638037    40.638037   -211.65204   -344.46798    -98.65008   -191.83807   -13294.378    276.09381 
   12650    40.635437    40.635437    40.635437    39.974717    50.081388    -47.51687    117.35963   -13294.835    277.60688 
   12700      40.6349      40.6349      40.6349     48.55532    -35.94283    47.246452    134.36234   -13294.455    277.49499 
   12750    40.637399    40.637399    40.637399   -44.003297    128.35608   -78.133151   -182.23282   -13292.772    274.86903 
   12800    40.637672    40.637672    40.637672    23.759362   -208.10111    120.62509     158.7541    -13292.01    274.01876 
   12850    40.636612    40.636612    40.636612   -13.147311    18.690581   -71.511273    13.378757   -13292.334    275.26285 
   12900    40.635518    40.635518    40.635518    116.34973   -18.700786    183.54885    184.20113   -13292.303    275.81751 
   12950    40.637545    40.637545    40.637545    74.091639    67.526502    63.529045    91.219369   -13292.612    277.02334 
   13000    40.639673    40.639673    40.639673   -172.95583    -259.6353   -351.98274    92.750538   -13293.852    280.02783 
   13050     40.63746     40.63746     40.63746   -10.353241   -82.307217    139.10705   -87.859553   -13293.009    278.99363 
   13100    40.635336    40.635336    40.635336    279.10156    303.86089    267.67117    265.77264   -13289.013    271.85484 
   13150    40.639026    40.639026    40.639026   -174.39337   -161.81168   -144.21044   -217.15801   -13293.834    281.77014 
   13200    40.639882    40.639882    40.639882    55.959261    -177.4954    245.74525     99.62793   -13289.878    274.70457 
   13250    40.638707    40.638707    40.638707   -96.224658   -234.85834   -209.87187    156.05623   -13292.948    281.22598 
   13300    40.635992    40.635992    40.635992    90.425089    54.802052    243.99201   -27.518793   -13291.972    279.91076 
   13350    40.637778    40.637778    40.637778   -5.7502149   -67.935167    -49.08797    99.772493   -13292.935    282.34662 
   13400    40.640119    40.640119    40.640119   -238.76771    -216.1423   -315.90994   -184.25089   -13291.971    281.04902 
   13450    40.637899    40.637899    40.637899    214.44997    294.24318    212.29834    136.80838   -13289.394    276.62716 
   13500    40.638536    40.638536    40.638536   -35.270521   -226.83171   -20.619683    141.63983   -13290.571    279.46684 
   13550    40.637924    40.637924    40.637924   -20.527801    -101.9462    58.070682   -17.707885   -13292.717    284.17196 
   13600    40.637429    40.637429    40.637429   -10.878496   -32.744595   -161.43883    161.54794   -13292.134    283.59278 
   13650    40.638502    40.638502    40.638502   -17.287291   -120.92279    11.273416    57.787499   -13290.217    280.42852 
   13700    40.639732    40.639732    40.639732    -20.13763   -25.849605   -80.080657    45.517371   -13289.705    279.97691 
   13750    40.639152    40.639152    40.639152    65.474147   -8.4801172   -67.549222    272.45178   -13289.506    280.12823 
   13800    40.638519    40.638519    40.638519    114.94471    155.10262    13.370536    176.36096   -13288.258     278.2502 
   13850    40.638763    40.638763    40.638763    66.459184   -62.138006    107.24461    154.27095   -13289.992    282.13146 
   13900    40.640504    40.640504    40.640504    2.9876875   -55.968443    15.224757    49.706748   -13289.739    282.16021 
   13950    40.642506    40.642506    40.642506   -146.20645   -123.42259   -127.37998   -187.81679   -13290.735    284.60745 
   14000     40.64047     40.64047     40.64047   -38.520442   -332.79778    43.818431    173.41802   -13289.397    282.52968 
   14050    40.638655    40.638655    40.638655    47.461573    82.899228  -0.26614106    59.751631   -13291.484    287.08124 
   14100    40.640004    40.640004    40.640004    8.7948543    3.9920229   -15.132364    37.524904   -13289.798    284.32668 
   14150    40.641179    40.641179    40.641179    29.251977   -7.8588516    196.78761   -101.17283   -13287.346    280.08802 
   14200    40.641148    40.641148    40.641148   -56.751279   -156.21754   -56.920084    42.883787   -13289.929    285.57949 
   14250     40.64108     40.64108     40.64108    26.834487    13.651038   -144.05712    210.90954   -13289.817     285.8502 
   14300    40.641344    40.641344    40.641344    121.47808    63.415564    78.518699    222.49999   -13285.545    278.07714 
   14350    40.642235    40.642235    40.642235   -19.692874   -97.748848   -222.96292    261.63314   -13288.898    285.04916 
   14400    40.641677    40.641677    40.641677   -52.450899   -172.69524   -58.970226    74.312765    -13290.92    289.44512 
   14450    40.640595    40.640595    40.640595    113.85799     156.6962    103.89067    80.987092   -13287.263    282.84348 
   14500    40.643149    40.643149    40.643149    4.0456036     56.16275   -37.706102   -6.3198382   -13287.988    284.71468 
   14550    40.643382    40.643382    40.643382     -54.1648   -233.21459    27.104204    43.615989   -13287.825    284.86637 
   14600    40.641109    40.641109    40.641109    50.455987    56.316864    -21.57491    116.62601     -13288.4    286.44024 
   14650    40.641355    40.641355    40.641355    37.097427    83.164703   -118.91275    147.04032   -13287.699     285.5419 
   14700    40.643085    40.643085    40.643085   -58.184717    43.232768    -120.2077   -97.579216    -13288.94    288.39707 
   14750    40.643498    40.643498    40.643498    11.026485   -2.2861011   -11.440721    46.806276   -13286.691     284.5024 
   14800     40.64235     40.64235     40.64235    36.318192    -15.73187   -31.778363    156.46481   -13287.779    287.05635 
   14850    40.641979    40.641979    40.641979    72.051201   -20.150009    38.637304    197.66631   -13287.582    287.11649 
   14900    40.644004    40.644004    40.644004   -118.30114   -17.430102   -263.91723   -73.556083   -13288.843    289.99875 
   14950    40.643991    40.643991    40.643991   -28.541056   -138.50116   -48.526427    101.40442   -13287.075     287.0116 
   15000    40.642036    40.642036    40.642036     109.0273    342.60279   -99.602016    84.081109   -13286.897    287.10056 
   15050    40.640926    40.640926    40.640926    131.10293    135.84205    275.52353   -18.056774   -13285.586    284.98311 
   15100    40.643672    40.643672    40.643672      82.5631    71.716276    45.177548    130.79548   -13285.488    285.21055 
   15150    40.646341    40.646341    40.646341   -285.32966   -441.86304   -245.75937   -168.36656    -13287.59    289.70047 
   15200    40.641613    40.641613    40.641613    130.32283     221.7258    107.20447     62.03823   -13286.495    287.99093 
   15250    40.640874    40.640874    40.640874    105.33064    60.867625     86.15062    168.97369   -13287.727    290.78534 
   15300    40.644652    40.644652    40.644652   -127.61555    99.513799   -185.79689   -296.56356   -13288.145    292.00218 
   15350    40.645985    40.645985    40.645985   -172.73306   -166.02115   -270.62199   -81.556048   -13287.103    290.38413 
   15400     40.64324     40.64324     40.64324    97.353733    194.25431     40.18226    57.624629   -13285.231    287.15979 
   15450    40.643243    40.643243    40.643243   -56.295038    1.1881787   -156.48359   -13.589705   -13289.802    296.40115 
   15500    40.644612    40.644612    40.644612    9.0535757    170.29536   -61.449133   -81.685497   -13285.405    288.27886 
   15550    40.645925    40.645925    40.645925   -134.77447   -153.98283    -54.59199    -195.7486   -13285.959    289.73548 
   15600    40.643654    40.643654    40.643654    57.559472     209.5421   -86.870621    50.006937   -13286.612    291.38439 
   15650    40.642982    40.642982    40.642982    147.84046    180.78242    78.311714    184.42724   -13283.941    286.59543 
   15700    40.645287    40.645287    40.645287   -107.53909    58.696886   -169.31328   -212.00087   -13286.847    292.59384 
   15750    40.645095    40.645095    40.645095   -103.94651   -207.38985    -93.02826   -11.421404   -13286.417    292.12946 
   15800    40.642878    40.642878    40.642878    127.90455    121.50551   -11.331722    273.53986   -13285.516    290.75057 
   15850    40.643457    40.643457    40.643457    245.24058    196.71468    188.28984    350.71722   -13282.228    284.74585 
   15900    40.648555    40.648555    40.648555   -178.32772   -87.394432   -192.55217   -255.03655   -13285.182    290.81745 
   15950    40.647346    40.647346    40.647346   -177.78765   -259.23025   -166.94414   -107.18854   -13286.961    294.61631 
   16000    40.641878    40.641878    40.641878    244.71686    209.52054    146.88491    377.74512   -13286.085    293.27229 
   16050    40.644364    40.644364    40.644364    61.213171    26.943457    159.21721   -2.5211508    -13285.09    291.68832 
   16100    40.647843    40.647843    40.647843   -75.083978   -59.477668   -169.28096    3.5066908   -13283.194    288.36182 
   16150    40.646294    40.646294    40.646294   -149.05513   -265.36784   -162.17312   -19.624439   -13287.377    296.78457 
   16200    40.643552    40.643552    40.643552    283.77701    355.14412    132.01186    364.17504   -13282.173     287.0487 
   16250    40.647189    40.647189    40.647189    -74.51622    31.048767   -217.85663   -36.740802   -13285.114    293.07128 
   16300    40.647683    40.647683    40.647683   -247.49512     -343.828   -109.62301   -289.03434   -13287.575    298.15271 
   16350    40.644734    40.644734    40.644734    124.00024    212.02873    7.4340545    152.53794   -13284.611    292.74036 
   16400     40.64616     40.64616     40.64616   -98.479017   -4.4144545   -86.477745   -204.54485   -13286.402    296.52488 
   16450    40.645659    40.645659    40.645659    162.09528    192.76668    78.920284    214.59889   -13281.743    287.82378 
   16500    40.646102    40.646102    40.646102    15.277517    192.15568   -48.121858   -98.201272   -13284.015    292.52596 
   16550    40.645702    40.645702    40.645702    102.83094     206.1626    35.808316    66.521905   -13282.312    289.52442 
   16600    40.647183    40.647183    40.647183   -58.047954   -26.709129   -152.78828    5.3535492   -13284.367    293.79977 
   16650    40.647088    40.647088    40.647088   -97.234103   -55.275749   -160.53747   -75.889088   -13284.409    294.17888 
   16700    40.645288    40.645288    40.645288     87.34951   -26.209823     180.8063    107.45205   -13284.926     295.4771 
   16750    40.646049    40.646049    40.646049    30.285331    298.15981   -96.303996   -110.99983   -13282.978    292.00019 
   16800    40.646999    40.646999    40.646999   -21.178718     2.141687   -72.071274    6.3934325   -13283.438    293.17774 
   16850    40.646712    40.646712    40.646712   -69.494023   -62.153446   -163.46006    17.131431   -13285.435    297.32464 
   16900    40.645764    40.645764    40.645764    178.21668    188.54271    214.55786    131.54948   -13282.376    291.68116 
   16950    40.647839    40.647839    40.647839   -84.965244    51.148263    -342.9773    36.933301   -13284.464    295.99663 
   17000    40.648062    40.648062    40.648062   -119.46093   -214.73311   -126.31245   -17.337219   -13285.071    297.43622 
   17050    40.645994    40.645994    40.645994    66.790131    175.89899   -209.06257    233.53397   -13282.186    292.12043 
   17100    40.646085    40.646085    40.646085      74.7775   -120.82784     197.3413    147.81903   -13283.627     295.1748 
   17150    40.648323    40.648323    40.648323    -142.3697    61.030444   -237.99545    -250.1441   -13284.575    297.27469 
   17200    40.647232    40.647232    40.647232   -54.088476    36.825021   -189.38684    -9.703611   -13283.591    295.62916 
   17250    40.645904    40.645904    40.645904    71.174646     -26.8289    173.30307    67.049767   -13283.259    295.24389 
   17300    40.646469    40.646469    40.646469     61.69985   -2.2611408   -77.178495    264.53918   -13282.083    293.22182 
   17350    40.647725    40.647725    40.647725   -112.23984   -16.699793   -222.12143   -97.898287   -13283.984    297.14311 
   17400    40.646347    40.646347    40.646347    140.33363   -27.938764    254.81534    194.12431   -13282.896    295.28237 
   17450    40.647924    40.647924    40.647924    17.805037    74.743818   -75.487367    54.158661   -13282.509    294.76349 
   17500    40.650686    40.650686    40.650686   -233.99875   -462.06816    -11.51577   -228.41232   -13284.781    299.39556 
   17550    40.647247    40.647247    40.647247   -55.351901   -89.864515   -273.85584    197.66466   -13283.876    297.87894 
   17600    40.643223    40.643223    40.643223    178.49613    103.24445    222.80053     209.4434   -13283.705     297.7818 
   17650    40.646197    40.646197    40.646197     97.71209    260.96625   -80.227628    112.39765   -13281.565    293.86006 
   17700    40.651534    40.651534    40.651534   -195.39468   -131.87742   -255.81382   -198.49278   -13283.976    298.74569 
   17750     40.65004     40.65004     40.65004   -42.866836    115.98587    4.7538537   -249.34023   -13281.791    294.73368 
   17800    40.645809    40.645809    40.645809    136.36515     172.8633    90.612371    145.61976   -13281.932    295.21754 
   17850    40.646534    40.646534    40.646534    36.272843    -25.82425    62.806094    71.836684   -13282.901     297.3034 
   17900    40.650099    40.650099    40.650099   -226.52509   -136.68599   -454.27917   -88.610114   -13284.121    299.87374 
   17950     40.64786     40.64786     40.64786   -2.9646716    72.775907    76.143296   -157.81322   -13283.136    298.16793 
   18000    40.646037    40.646037    40.646037    238.85139    353.17977    14.049725    349.32467   -13281.816    295.80803 
   18050    40.650957    40.650957    40.650957   -243.46352   -70.825109   -241.89951   -417.66595   -13283.736    299.71255 
   18100    40.650682    40.650682    40.650682   -157.66867   -222.39609   -163.03544    -87.57447     -13282.5    297.50964 
   18150    40.646128    40.646128    40.646128    76.014083    81.566939    -99.76385    246.23916   -13283.477    299.58807 
   18200    40.645881    40.645881    40.645881    213.15031    297.28166    373.21145   -31.042168   -13280.829    294.65076 
   18250    40.651532    40.651532    40.651532   -188.96545    -100.0923   -479.16725    12.363212    -13283.27    299.55517 
   18300    40.651433    40.651433    40.651433   -118.24679   -83.275855   -133.74605   -137.71846   -13281.342    295.99765 
   18350    40.648138    40.648138    40.648138      72.4917    212.81315   -22.748219    27.410165   -13282.763    298.92143 
   18400    40.647323    40.647323    40.647323    79.699071    156.97466   -96.434187    178.55674   -13280.974    295.63468 
   18450    40.648079    40.648079    40.648079    41.170877    70.641411    115.69178   -62.820561   -13281.258    296.35147 
   18500    40.648548    40.648548    40.648548    43.050923    211.90308   -33.612448   -49.137869   -13280.018    294.10912 
   18550    40.649076    40.649076    40.649076     78.83467    155.99564   -191.86111    272.36948    -13281.42    296.97978 
   18600    40.649774    40.649774    40.649774    -118.0184   -97.383398   -205.73843   -50.933385    -13282.25    298.73893 
   18650    40.647655    40.647655    40.647655    55.475517    119.98343   -120.25568     166.6988    -13281.99    298.38354 
   18700    40.648832    40.648832    40.648832    45.294577    19.578266   -153.14448    269.44994   -13280.984     296.5902 
   18750     40.65086     40.65086     40.65086   -173.49036   -24.608269   -301.33836   -194.52446   -13283.565    301.73821 
   18800    40.647675    40.647675    40.647675    82.307213    200.55081   -107.92745    154.29827   -13280.055    295.08662 
   18850    40.646403    40.646403    40.646403    95.344015    75.635999    54.042032    156.35401   -13282.491     299.9422 
   18900    40.648167    40.648167    40.648167    97.449858    129.29532   -38.823025    201.87728   -13280.533    296.29066 
   18950    40.650987    40.650987    40.650987   -130.40736   -138.92064   -70.879917   -181.42154   -13282.071    299.39793 
   19000    40.649109    40.649109    40.649109    32.716305    140.89764   -261.78155    219.03283   -13280.674    296.82434 
   19050    40.647708    40.647708    40.647708    77.723409    34.847051    235.32075   -36.997576   -13282.704    300.87418 
   19100    40.649591    40.649591    40.649591   -65.162665   -40.207967   -225.94777    70.667747    -13282.13    299.88691 
   19150    40.651186    40.651186    40.651186   -181.65804   -54.646767   -392.10075     -98.2266    -13282.76    301.22704 
   19200    40.648446    40.648446    40.648446    61.925044    34.022215   -57.999097    209.75201   -13282.393    300.62993 
   19250    40.648194    40.648194    40.648194    151.64395    178.41569    157.26341    119.25276   -13280.349     296.7863 
   19300    40.652877    40.652877    40.652877   -204.68859   -262.13748   -209.64915   -142.27913   -13282.029    300.14993 
   19350    40.650047    40.650047    40.650047   -49.050264    40.639336   -16.471011   -171.31912   -13281.209     298.6686 
   19400    40.645367    40.645367    40.645367    226.90751    130.89782    4.8437673    544.98096     -13280.6    297.59646 
   19450    40.648371    40.648371    40.648371    78.153407    170.48081   -58.996399    122.97581   -13280.303    297.12564 
   19500    40.651917    40.651917    40.651917    3.3891146    15.807791   -131.52922    125.88877   -13278.123     293.0032 
   19550     40.65241     40.65241     40.65241   -163.98336   -147.08552   -289.80036   -55.064198   -13282.599    301.76047 
   19600    40.647972    40.647972    40.647972    150.72494    227.76498    253.72526   -29.315409   -13281.118    298.98486 
   19650    40.647569    40.647569    40.647569    88.968518    113.80083    54.431216     98.67351     -13280.4    297.68268 
   19700    40.650962    40.650962    40.650962   -62.208707    -51.25143   -213.20649    77.831797   -13281.044    299.01671 
   19750     40.65097     40.65097     40.65097   -196.56509   -190.05707   -156.86541    -242.7728    -13282.31    301.54917 
   19800    40.647601    40.647601    40.647601    176.66371    95.772932    95.548652    338.66954   -13280.597    298.31766 
   19850    40.649733    40.649733    40.649733   0.36845244    66.948203   -102.23349    36.390645    -13282.32    301.73329 
   19900    40.652159    40.652159    40.652159   -160.23237    -47.44525   -311.89909   -121.35278   -13282.236    301.64715 
   19950    40.650098    40.650098    40.650098   -32.549889    31.555755   -92.066394   -37.139027    -13281.13    299.57492 
   20000    40.648145    40.648145    40.648145    117.09488    63.247359   -40.838602    328.87587    -13281.91    301.15075 
Loop time of 324.484 on 4 procs for 20000 steps with 4000 atoms

Pair  time (%) = 258.299 (79.603)
Neigh time (%) = 0 (0)
Comm  time (%) = 52.7683 (16.2622)
Outpt time (%) = 0.0812281 (0.025033)
Other time (%) = 13.3357 (4.1098)

Nlocal:    1000 ave 1000 max 1000 min
Histogram: 4 0 0 0 0 0 0 0 0 0
Nghost:    4235 ave 4235 max 4235 min
Histogram: 4 0 0 0 0 0 0 0 0 0
Neighs:    70000 ave 72653 max 67302 min
Histogram: 1 0 1 0 0 0 0 1 0 1
FullNghs:  0 ave 0 max 0 min
Histogram: 4 0 0 0 0 0 0 0 0 0

Total # of neighbors = 280000
Ave neighs/atom = 70
Neighbor list builds = 0
Dangerous builds = 0
unfix 1

# Store final cell length for strain calculations
variable tmp equal "lx"
variable L0 equal ${tmp}
variable L0 equal 40.6481453069531
print "Initial Length, L0: ${L0}"
Initial Length, L0: 40.6481453069531

######################################
# DEFORMATION
reset_timestep	0

fix		1 all npt temp 300 300 1 y 0 0 1 z 0 0 1 drag 1
variable srate equal 1.0e10
variable srate1 equal "v_srate / 1.0e12"
fix		2 all deform 1 x erate ${srate1} units box remap x
fix		2 all deform 1 x erate 0.01 units box remap x

# Output strain and stress info to file
# for units metal, pressure is in [bars] = 100 [kPa] = 1/10000 [GPa]
# p2, p3, p4 are in GPa
variable strain equal "(lx - v_L0)/v_L0"
variable p1 equal "v_strain"
variable p2 equal "-pxx/10000"
variable p3 equal "-pyy/10000"
variable p4 equal "-pzz/10000"
fix def1 all print 20 "${p1} ${p2} ${p3} ${p4}" file  Al99.posFRho.eam.alloy.def1.txt screen no

# Use cfg for AtomEye
#dump 		1 all cfg 250 dump.tensile_*.cfg id type xs ys zs c_csym c_peratom fx fy fz
#dump_modify 1 element Al

# Display thermo
thermo 	50
thermo_style	custom step v_strain temp v_p2 v_p3 v_p4 ke pe press

run		20000
Memory usage per processor = 3.04301 Mbytes
Step strain Temp p2 p3 p4 KinEng PotEng Press 
       0            0    301.15075 -0.0063247359 0.0040838602 -0.032887587    155.66823    -13281.91    117.09488 
      50       0.0005    301.11414  0.048391052  0.025311827  0.021197046    155.64931   -13281.838   -316.33308 
     100        0.001    299.88977   0.08985857  0.034936603  0.013158674    155.01642   -13281.145   -459.84615 
     150       0.0015     296.3593   0.06838782 -0.010778161 -0.0091363285    153.19148   -13279.258   -161.57777 
     200        0.002    303.72186   0.12393917 -0.057249725   0.00107781    156.99727   -13282.986   -225.89085 
     250       0.0025    294.92913   0.14302934 -0.0053844818 -0.023806693    152.45221   -13278.365   -379.46056 
     300        0.003    302.17992    0.2125086  0.024673678  0.068042594    156.20022   -13282.022   -1017.4162 
     350       0.0035    297.88309   0.22400122 0.0031789834 0.0053581878    153.97914    -13279.71   -775.12798 
     400        0.004    299.68222   0.24302305 0.0030540702 -0.050274703    154.90913   -13280.529   -652.67472 
     450       0.0045    298.11505   0.27218173 -0.001347952 -0.027974295    154.09904   -13279.606    -809.5316 
     500        0.005    297.47332   0.29924639 -0.013164433  0.024430107    153.76733   -13279.159   -1035.0402 
     550       0.0055    298.67784   0.39257352 0.0064639117 -0.011569986    154.38996   -13279.656   -1291.5581 
     600        0.006    298.02859   0.38756686   0.02373809  0.017978362    154.05435   -13279.189   -1430.9444 
     650       0.0065    298.00182   0.40162755 -0.0067692208  -0.01948482    154.04051   -13279.037    -1251.245 
     700        0.007     298.8544   0.43879475 -0.046110357 -0.0062098693    154.48122   -13279.329   -1288.2484 
     750       0.0075    301.35336   0.47823602  0.020711428  0.026142975    155.77296   -13280.465   -1750.3014 
     800        0.008     303.1448   0.53570793  0.014922138  0.014893919    156.69898   -13281.232   -1885.0799 
     850       0.0085    298.94925   0.54858499 0.0041134414 0.0079898006    154.53025   -13278.896   -1868.9608 
     900        0.009    295.46471   0.57874533 -0.021291099 -0.029414483    152.72905   -13276.919   -1760.1325 
     950       0.0095    300.38149   0.62335727  0.039553502 -0.0013793241    155.27059   -13279.276   -2205.1048 
    1000         0.01    299.79494   0.66346404 -0.00081707561 -0.0060911162     154.9674   -13278.785   -2188.5195 
    1050       0.0105     299.1381   0.67523513 0.0089223667 0.0014091797    154.62787   -13278.245   -2285.2222 
    1100        0.011    304.03911   0.70712176 -0.013988816  0.022154896    157.16126   -13280.575   -2384.2928 
    1150       0.0115    301.31033   0.74270275 0.0019305179  0.029820941    155.75072    -13278.95    -2581.514 
    1200        0.012    302.36482   0.78860573  -0.01120497 0.0047486921     156.2958   -13279.275   -2607.1648 
    1250       0.0125    299.86735   0.81082143  0.024010077 -0.015543207    155.00483   -13277.755    -2730.961 
    1300        0.013    299.55741    0.8349654 -0.0023263563 -0.017400883    154.84462    -13277.36   -2717.4605 
    1350       0.0135    301.06413   0.88224412  0.018217535  0.011790995    155.62346   -13277.895   -3040.8422 
    1400        0.014    294.50531   0.88949994 0.0073889605 -0.018011976    152.23313    -13274.26   -2929.5897 
    1450       0.0145    298.82499   0.92841005 0.0030544606 0.0058928875    154.46602   -13276.234   -3124.5247 
    1500        0.015    300.45383   0.96741055 0.0074271625 -0.0070279966    155.30799   -13276.817   -3226.0324 
    1550       0.0155    300.48124   0.99181945 -0.014191519 -0.013683053    155.32215   -13276.557   -3213.1496 
    1600        0.016    300.85519    1.0477437 0.0085413686  0.027941246    155.51546   -13276.469   -3614.0878 
    1650       0.0165    293.65978     1.072499 -0.0013234081  0.016645788    151.79607   -13272.459   -3626.0714 
    1700        0.017    303.77892    1.1017667 0.0044257785 0.0035786781    157.02676   -13277.394   -3699.2371 
    1750       0.0175    295.61612    1.1213911 -0.023715029 -0.0043466679    152.80732   -13272.868   -3644.4315 
    1800        0.018    298.91692    1.1417095   0.01882552 -0.014457603    154.51354   -13274.274   -3820.2581 
    1850       0.0185    301.50141    1.1921442 -0.0063123475 -0.010746591    155.84949   -13275.299   -3916.9508 
    1900        0.019    297.61734    1.2309006  0.019395769 0.0062782941    153.84177   -13272.971   -4188.5821 
    1950       0.0195    298.82801    1.2408184 0.0061967238  0.014184227    154.46758   -13273.272   -4203.9979 
    2000         0.02    301.81817    1.3076344 -0.00056772891 -0.018104858    156.01323    -13274.48   -4296.5394 
    2050       0.0205    295.65164    1.2902148 -0.019797318  0.013589669    152.82568   -13270.954   -4280.0237 
    2100        0.021    304.96773    1.3547578 0.0078768041 0.00098699824    157.64127   -13275.421   -4545.4054 
    2150       0.0215    300.15447    1.3974772 -0.0082000314  0.011004216    155.15325   -13272.579   -4667.6047 
    2200        0.022    297.27991    1.3999334   0.03596799  0.022400247    153.66735   -13270.731   -4861.0055 
    2250       0.0225    297.26837    1.4329497 -0.011996601 -0.030841365    153.66139   -13270.354   -4633.7058 
    2300        0.023    295.69968    1.4388634 -0.0044947399 -0.019852044    152.85051   -13269.172   -4715.0553 
    2350       0.0235    302.77512    1.5064528 0.0022557371 0.0093235555    156.50789   -13272.445   -5060.1071 
    2400        0.024    296.81364    1.5265469 0.0045690271 0.0022413815    153.42633    -13268.98   -5111.1912 
    2450       0.0245    300.16501    1.5630607  0.022944314 0.00089938643    155.15869   -13270.319   -5289.6815 
    2500        0.025    299.54025    1.5885398 -0.024725644 0.0097206867    154.83575   -13269.597   -5245.1161 
    2550       0.0255    296.37837    1.6002205 -0.020565682 -0.0019291767    153.20134   -13267.558   -5259.0854 
    2600        0.026    304.43958    1.6916566  0.027164003  0.026856258    157.36827   -13271.308   -5818.9228 
    2650       0.0265    296.67888    1.6849989 -0.00058192906 0.0057273917    153.35667   -13266.876   -5633.8146 
    2700        0.027    297.14737    1.6969132 0.0061678363 -0.018221888    153.59884   -13266.685   -5616.1973 
    2750       0.0275    296.38933    1.7296655 -0.024559586 -0.032881756      153.207    -13265.86   -5574.0804 
    2800        0.028    298.84613    1.7710779  0.019082457 -0.0024322687    154.47695   -13266.688   -5959.0937 
    2850       0.0285    297.47149    1.8260596 0.0075959673  0.014723785    153.76638   -13265.527   -6161.2646 
    2900        0.029    298.68815    1.8408916 0.0099963751 0.0074861921    154.39528   -13265.704   -6194.5806 
    2950       0.0295    299.00323    1.8640551 -0.027881198 -0.016681317    154.55815   -13265.404   -6064.9754 
    3000         0.03    300.22063    1.8957901 -0.0028112117  0.020356835    155.18744   -13265.564   -6377.7859 
    3050       0.0305    295.41089    1.9342636 -0.012351298 -0.0033113227    152.70123   -13262.607   -6395.3368 
    3100        0.031     300.5414    1.9897557 0.0094166587  0.033907684    155.35325   -13264.774   -6776.9336 
    3150       0.0315    296.60995    1.9966053 -0.003922266  -0.01496975    153.32104   -13262.252   -6592.3776 
    3200        0.032    300.15734    2.0389323   0.02258405 -0.011576638    155.15473   -13263.587   -6833.1323 
    3250       0.0325    300.22381    2.0699067  0.014009443 -0.0086129546    155.18909   -13263.116   -6917.6773 
    3300        0.033    296.73466    2.0619733 -0.018421749 0.00041112503     153.3855   -13260.805   -6813.2089 
    3350       0.0335    299.65395    2.1383029  0.011867691   0.01225522    154.89452   -13261.798    -7208.086 
    3400        0.034    299.67734    2.1380709 0.0057278637  0.019203653    154.90661   -13261.287    -7210.008 
    3450       0.0345    296.53219    2.1626197 -0.0048392924 -0.0046964859    153.28085   -13259.135   -7176.9465 
    3500        0.035    301.60898     2.207847 -0.014786647  0.025565324     155.9051   -13261.225   -7395.4188 
    3550       0.0355    297.38376    2.2267985 -0.021447486  -0.00282934    153.72103   -13258.501    -7341.739 
    3600        0.036    298.02262    2.2946375  0.018624867 -0.0093263398    154.05127   -13258.279   -7679.7867 
    3650       0.0365     298.6387     2.304177  0.025407043 -0.0012174291    154.36972   -13258.037   -7761.2219 
    3700        0.037    299.94195    2.3288014 -0.027223617 -0.015060782    155.04339   -13258.154   -7621.7235 
    3750       0.0375    300.84706    2.3498397 -0.0056631819 0.0023204672    155.51125   -13258.059   -7821.6565 
    3800        0.038    297.47133    2.3925531  0.010217555 0.00030770272     153.7663   -13255.745   -8010.2611 
    3850       0.0385    299.69796    2.4477525  0.027492608  0.023446551    154.91727   -13256.313   -8328.9723 
    3900        0.039     301.5072    2.4545982  0.013938665  0.014638857    155.85248   -13256.667   -8277.2524 
    3950       0.0395     297.5759    2.4671623 -0.054558567 -0.030379056    153.82035   -13254.039   -7940.7488 
    4000         0.04     297.1776     2.505893 -0.0047149529 0.0021427828    153.61447   -13253.233   -8344.4026 
    4050       0.0405    298.79428    2.5721716 0.0083858378  0.043142125    154.45015   -13253.464   -8745.6651 
    4100        0.041    297.16159    2.5993526  0.030737494 -0.011614547    153.60619   -13252.003   -8728.2517 
    4150       0.0415    301.42381    2.6054868 -0.00072233699 -0.0058732956    155.80938   -13253.585   -8662.9706 
    4200        0.042    299.22643    2.6347085 -0.024030204 -0.026700403    154.67353   -13251.824   -8613.2596 
    4250       0.0425    298.31028    2.6544568  -0.01040156 0.0079441954    154.19996    -13250.72    -8839.998 
    4300        0.043    295.36573     2.704339  0.037003154  0.012340768    152.67789   -13248.566   -9178.9431 
    4350       0.0435    298.70069    2.7121266 -0.00086136189 0.0070050396    154.40177   -13249.647   -9060.9009 
    4400        0.044    302.99896    2.7773763  0.010007571 -0.0086720212    156.62359   -13251.216   -9262.3727 
    4450       0.0445    297.35848    2.7844561 -0.0021514185  -0.02957626    153.70796   -13247.643   -9175.7615 
    4500        0.045    299.18473    2.8306349 -0.0058617789  0.012958136    154.65197   -13247.923   -9459.1043 
    4550       0.0455    299.96331    2.8711508 0.0085381499  0.027957251    155.05443   -13247.652   -9692.1541 
    4600        0.046    299.65154    2.9174527 0.0096348714 0.0041663057    154.89327   -13246.808   -9770.8463 
    4650       0.0465    296.25926    2.8863888 -0.029579175  0.018646068    153.13977   -13244.375   -9584.8523 
    4700        0.047    303.19507    2.9577482 0.0047859111 -0.0080668404    156.72496    -13247.27   -9848.2241 
    4750       0.0475    299.71556    2.9902904  0.027641026 -0.019446198    154.92637   -13244.771   -9994.9509 
    4800        0.048    297.56627    3.0271842 -0.019452093  0.016683351    153.81537   -13242.955   -10081.385 
    4850       0.0485    299.64745    3.0449687  0.036587311 0.0048834263    154.89116   -13243.319   -10288.131 
    4900        0.049    298.12341    3.0886526 -0.010336763   0.01135567    154.10336   -13241.814   -10298.905 
    4950       0.0495    295.11502    3.0739873 0.0013844943 -0.030167503    152.54829   -13239.542   -10150.681 
    5000         0.05    296.60157    3.1168145 -0.020998104 -0.026839737    153.31671   -13239.586   -10229.922 
    5050       0.0505    303.37361    3.1721297  0.018419341  0.031727107    156.81725   -13242.352   -10740.921 
    5100        0.051    296.05237    3.2106687   0.01629818  0.016071472    153.03282   -13237.828   -10810.128 
    5150       0.0515    302.22838    3.2410291  0.012751097  0.018777236    156.22527   -13240.272   -10908.525 
    5200        0.052     295.4483    3.2235945 -0.029213542 0.0025914048    152.72057   -13236.014   -10656.575 
    5250       0.0525     301.8505    3.2689187 -0.010646804 -0.020823489    156.02994   -13238.564   -10791.495 
    5300        0.053    300.09807    3.3010937 0.0016077648  0.021608926    155.12409   -13236.902   -11081.035 
    5350       0.0535    296.33117    3.3370532  0.027566719 0.0047973253    153.17694   -13234.183   -11231.391 
    5400        0.054    296.59898    3.3734167 -0.004964649 -0.0067467296    153.31537   -13233.549   -11205.684 
    5450       0.0545     297.5937    3.3904481 -0.0049446671 -0.034949896    153.82955   -13233.282   -11168.512 
    5500        0.055    297.17321    3.3933042  0.011620967  0.015506935     153.6122   -13232.284    -11401.44 
    5550       0.0555    299.47215    3.4567056  0.014287043 -0.030086167    154.80054   -13232.686   -11469.688 
    5600        0.056    296.73787    3.4622691 -0.0095381605  0.023901011    153.38716   -13230.481   -11588.773 
    5650       0.0565    296.67735    3.4873032 -0.016193393  0.014328419    153.35588   -13229.646   -11618.128 
    5700        0.057    296.77906      3.51208 -0.030837454   0.01247745    153.40845    -13228.89   -11645.733 
    5750       0.0575    296.67882    3.5419646 0.0030245953 0.0076749706    153.35664    -13228.03   -11842.214 
    5800        0.058    298.49143    3.5628688 -0.010432872 0.0081702094     154.2936   -13228.155   -11868.687 
    5850       0.0585    300.98701    3.6257534  0.010391052 -0.012493109    155.58359   -13228.621   -12078.838 
    5900        0.059    295.98973    3.6245189  0.026188546 -0.013316963    153.00044   -13225.204   -12124.635 
    5950       0.0595    294.97299     3.678646 -0.0018317813  -0.03790029    152.47488   -13223.839   -12129.713 
    6000         0.06     302.6404     3.725729  0.025322017  0.002076601    156.43825   -13226.955   -12510.425 
    6050       0.0605    299.68005    3.7405094   0.02563344 -0.0020430798    154.90801   -13224.574   -12546.999 
    6100        0.061    293.49203    3.7295132 -0.0033539457 -0.025122536    151.70935   -13220.525   -12336.789 
    6150       0.0615    301.96816    3.7927591 -0.032887843  0.039133716    156.09076   -13224.043    -12663.35 
    6200        0.062    294.15389    3.7938142 -0.019950066 -0.035398852    152.05148   -13219.141   -12461.551 
    6250       0.0625     302.4642    3.8631303  0.018709168  0.039619307    156.34717   -13222.564   -13071.529 
    6300        0.063    293.71872    3.8806674 0.00083468513 0.0019856518    151.82653    -13217.17   -12944.959 
    6350       0.0635    298.87015    3.8943715 0.0083943731  0.014515558    154.48936   -13218.947   -13057.605 
    6400        0.064    302.51759    3.9229732 -0.012854918 0.0040672985    156.37477   -13219.941   -13047.285 
    6450       0.0645    296.78231    3.9303868 -0.010486673 -0.039772211    153.41014    -13216.08    -12933.76 
    6500        0.065    295.66784    3.9724599  0.011403932  0.011868775    152.83405   -13214.603   -13319.109 
    6550       0.0655     298.3497    4.0308211  0.026893508    0.0246877    154.22034   -13215.083   -13608.008 
    6600        0.066    297.15088    4.0382666 -0.026164144 0.0037527171    153.60065   -13213.549   -13386.184 
    6650       0.0665    296.37546     4.024922 -0.023563297 -0.0058279709    153.19983   -13212.235   -13318.436 
    6700        0.067    301.75178    4.1069682 -0.010603256  0.007642147    155.97891   -13214.094   -13680.024 
    6750       0.0675    297.42884    4.1385201  0.011905035  0.027007599    153.74433   -13210.929   -13924.776 
    6800        0.068    297.01817    4.1436661  0.021046361 -0.0081735064    153.53206   -13209.786    -13855.13 
    6850       0.0685     298.0179    4.1795354  -0.02374465 -0.027594455    154.04882   -13209.361   -13760.654 
    6900        0.069    297.22409    4.2138359  0.034165542 -0.019379546     153.6385   -13208.003   -14095.406 
    6950       0.0695    299.39705    4.2564599  0.050020855 -0.011364294    154.76172   -13208.181   -14317.055 
    7000         0.07     298.9977    4.2680213  0.011847144  0.014695896     154.5553   -13207.019   -14315.214 
    7050       0.0705    293.18981    4.2589018 -0.048654463 -0.037107405    151.55313   -13203.056   -13910.466 
    7100        0.071    300.11526    4.3233904 -0.0038298313  0.011522354    155.13297   -13205.665   -14436.943 
    7150       0.0715    298.79052    4.3644983 -0.0088458947   0.02924187     154.4482       -13204   -14616.314 
    7200        0.072    301.77783    4.4058848 0.0087151453  0.031641531    155.99238   -13204.565   -14820.805 
    7250       0.0725    301.11489    4.4234708  0.001531625  0.013063428    155.64969   -13203.236   -14793.553 
    7300        0.073    298.07748    4.4444337  -0.02772174 0.0097558397    154.07962    -13200.67   -14754.893 
    7350       0.0735    295.58635    4.4320176   0.01554822 -0.025483386    152.79193   -13198.387   -14740.275 
    7400        0.074    301.44298    4.5114121  0.036015975 -0.00027333576    155.81929   -13200.409   -15157.183 
    7450       0.0745    296.37345    4.5252248    -0.036858 -0.019782653    153.19879    -13196.78    -14895.28 
    7500        0.075    297.17315    4.5812296  0.042478349  0.010424892    153.61216   -13196.178    -15447.11 
    7550       0.0755     293.8592    4.5826079 -0.00076111773  0.011760657    151.89915   -13193.446   -15312.025 
    7600        0.076    299.64312     4.603611 -0.0030398582 -0.011637948    154.88892   -13195.406   -15296.444 
    7650       0.0765    300.68502    4.6290668 0.0062164959 -0.012640456    155.42749   -13194.913   -15408.809 
    7700        0.077    299.62097    4.6739988 -0.011247256  0.011831691    154.87747   -13193.325   -15581.944 
    7750       0.0775    297.98541    4.7038276  0.021718249  0.025560999    154.03203   -13191.437   -15837.023 
    7800        0.078    294.77709    4.7221944  0.012760739 -0.0025132676    152.37361    -13188.73   -15774.806 
    7850       0.0785    293.27407    4.7186877 -0.021140335 -0.032399833    151.59669   -13186.897   -15550.492 
    7900        0.079    295.09854    4.7432605 -0.029579815 -0.022737408    152.53978   -13186.782   -15636.478 
    7950       0.0795    299.33889    4.8160871 0.0092401542 -0.0020304257    154.73166   -13187.912   -16077.656 
    8000         0.08    297.82048    4.8677212  0.036031122   0.04887299    153.94678   -13186.048   -16508.751 
    8050       0.0805    297.31594     4.855009 -0.046582764  0.029379828    153.68597   -13184.714    -16126.02 
    8100        0.081    294.24991    4.8622373  -0.05234409 -0.050650847    152.10111   -13182.053   -15864.141 
    8150       0.0815    299.31339    4.9514014  0.030411711  0.017932399    154.71848   -13183.574   -16665.818 
    8200        0.082    297.78812    4.9552179  0.052400496  0.025242682    153.93005   -13181.685   -16776.204 
    8250       0.0825    295.74358    4.9611281 -0.0071492462 -0.018664544     152.8732   -13179.533   -16451.048 
    8300        0.083    302.24148    5.0175723 -0.0038104019 -0.036311731    156.23204   -13181.778   -16591.501 
    8350       0.0835    298.73314    5.0433147 -0.025709826 -0.015778197    154.41854   -13178.851   -16672.755 
    8400        0.084    291.61041    5.0525149  0.037596382   0.02005718    150.73672   -13174.053   -17033.895 
    8450       0.0845    300.48632    5.1454302  0.025154975   0.08349854    155.32478   -13177.515   -17513.612 
    8500        0.085     298.1131    5.0967911 -0.013374726 -0.025928288    154.09804   -13175.154   -16858.294 
    8550       0.0855    298.27955    5.1013789 -0.028839119  -0.05681406    154.18407   -13174.097   -16719.086 
    8600        0.086    300.05569    5.1655332 0.0030918944 -0.0065251316    155.10218   -13173.878       -17207 
    8650       0.0865    295.58779    5.2334406  0.063368351 -0.003900452    152.79268   -13170.419   -17643.028 
    8700        0.087    300.54833    5.2624112  0.036715198  0.068433979    155.35683    -13171.83   -17891.868 
    8750       0.0875    300.01303    5.2392935 -0.044613431 0.0027382858    155.08013   -13170.396   -17324.728 
    8800        0.088    295.13188    5.2328245 -0.070763375 -0.023008643    152.55701   -13166.707   -17130.175 
    8850       0.0885    294.27186     5.325538 -0.013525895  0.025434507    152.11246   -13165.094   -17791.489 
    8900        0.089    296.02646    5.3554361  0.046568559  0.048137742    153.01943   -13164.821   -18167.141 
    8950       0.0895    295.18055    5.3553671 0.0061357489 -0.026627271    152.58217   -13163.207   -17782.918 
    9000         0.09     296.4654    5.3913612 -0.058595149 -0.071239203    153.24632   -13162.677   -17538.423 
    9050       0.0905    298.68413    5.4193315  0.051477187 -0.054098434    154.39321   -13162.636   -18055.701 
    9100        0.091    300.66832    5.4596423  0.081544445  0.071450062    155.41886   -13162.465   -18708.789 
    9150       0.0915    298.22173    5.4901983  0.057905837  0.015980322    154.15419   -13160.009   -18546.948 
    9200        0.092    298.66344    5.4823647 -0.037543189 -0.036581642    154.38251   -13159.025   -18027.466 
    9250       0.0925    296.74979    5.5220224  -0.11456389 -0.0025784231    153.39332   -13156.798   -18016.267 
    9300        0.093    293.43157    5.5399714 0.0068474348  0.034615341     151.6781   -13153.867   -18604.781 
    9350       0.0935    304.84865    5.6547591  0.051658735   0.11663786    157.57972   -13158.537   -19410.186 
    9400        0.094    295.54409    5.5920446 -0.037876694 -0.017820327    152.77009   -13152.511   -18454.492 
    9450       0.0945    297.98242    5.5919751 -0.022758904 -0.053485807    154.03049   -13152.533   -18385.768 
    9500        0.095    296.41034    5.6417484 -0.002655402 -0.0086054118    153.21786   -13150.478   -18768.292 
    9550       0.0955    293.90249     5.677658  0.068070663 0.0064891483    151.92152   -13147.925   -19174.059 
    9600        0.096    299.50823    5.7279589  0.050918127 -0.027016885     154.8192   -13149.571   -19172.867 
    9650       0.0965    299.46515    5.7268699 0.0094161341 -0.034992161    154.79692   -13148.299   -19004.313 
    9700        0.097    297.63855    5.7426752 -0.015985713 -0.0084801036    153.85274   -13146.101   -19060.698 
    9750       0.0975    296.65047    5.7967836 -0.010230898  0.018019861    153.34198   -13144.316   -19348.575 
    9800        0.098    300.00366    5.8483813 -0.0058088439  0.096483955    155.07529   -13144.759   -19796.855 
    9850       0.0985    297.08218    5.8030854  -0.03757042  0.013921511    153.56514   -13141.976   -19264.788 
    9900        0.099    291.54629    5.8219934 -0.051411741 -0.012749818    150.70358   -13137.843   -19192.773 
    9950       0.0995    303.28375    5.9441113 -0.0050248774  0.032376503     156.7708   -13142.623   -19904.876 
   10000          0.1    297.16246    5.9250306  0.042451661 -0.0014739866    153.60664   -13138.158   -19886.694 
   10050       0.1005    293.94348    5.9246148  0.024043374  -0.03741618    151.94271   -13135.193    -19704.14 
   10100        0.101    297.03477    5.9599091  0.013624312 -0.024016037    153.54064   -13135.483   -19831.724 
   10150       0.1015    298.41415    6.0141384   0.02557857 -0.035740406    154.25365   -13134.884   -20013.255 
   10200        0.102    294.45834    6.0410838  0.019305198 -0.017079607    152.20885   -13131.526   -20144.365 
   10250       0.1025    292.82648    6.0204375 -0.020477256 0.0050871624    151.36532   -13129.365   -20016.825 
   10300        0.103    292.27672    6.0239689 -0.034622492  0.014974258    151.08114   -13127.752   -20014.402 
   10350       0.1035    299.43783    6.1236822  0.019743189  0.020364154     154.7828   -13130.119   -20545.965 
   10400        0.104    294.91472    6.1018286 -0.043220255 0.0041199556    152.44476   -13126.439   -20209.094 
   10450       0.1045    299.73323    6.1701829  0.010108338 0.0036082889     154.9355   -13127.585   -20612.998 
   10500        0.105    297.87302    6.2119192  0.022002923  0.021045409    153.97394   -13125.262   -20849.892 
   10550       0.1055    294.02786     6.215158 -0.026894244  0.012237016    151.98633    -13121.92   -20668.336 
   10600        0.106    299.14392    6.2452089   0.01442843 -0.029621857    154.63088   -13123.201   -20766.718 
   10650       0.1065    295.99582    6.2586569 -0.013086963 -0.019248507    153.00359   -13120.202   -20754.405 
   10700        0.107    295.10241    6.2693715   0.02733643 -0.033739403    152.54178   -13118.378   -20876.562 
   10750       0.1075    294.59564    6.3098307  0.031513064  0.019011903    152.27982    -13116.74   -21201.186 
   10800        0.108    298.80151    6.3413018  0.042270796   0.02030203    154.45389   -13117.531   -21346.249 
   10850       0.1085    295.81791    6.3227183 -0.068983724  0.010089016    152.91163   -13114.602   -20879.412 
   10900        0.109     297.2633    6.3648874 -0.016911633 -0.059510395    153.65877   -13113.957   -20961.551 
   10950       0.1095    299.55561    6.4537863  0.026878329  0.021336628    154.84369   -13113.741   -21673.337 
   11000         0.11    292.84286    6.4853767  0.032752343  0.040181817    151.37379   -13108.855   -21861.036 
   11050       0.1105    296.46901    6.4718822 -0.015792446  0.016477687    153.24819   -13109.319   -21575.225 
   11100        0.111    293.80212    6.4860316  -0.05404565 -0.039805285    151.86964    -13106.52   -21307.269 
   11150       0.1115    300.11656    6.5370743  0.019079928 -0.003139914    155.13365   -13108.355   -21843.381 
   11200        0.112    288.66234    6.5336163 -0.0094494253  0.021011087    149.21283   -13101.004    -21817.26 
[...]
   11600        0.116    297.98886     6.762868 0.0085942028  0.025390788    154.03381   -13094.196   -22656.177 
   11650       0.1165    292.47637    6.7709254  0.015530626   0.07643954    151.18435   -13089.875   -22876.318 
   11700        0.117    294.60037    6.8180239  0.024484397  0.028434355    152.28227   -13089.502   -22903.142 
   11750       0.1175    293.41577    6.7889544  -0.07166257 -0.061455556    151.66993   -13087.393   -22186.121 
   11800        0.118    291.07202    6.8354478 -0.043734826 -0.053294444    150.45842   -13084.692   -22461.395 
   11850       0.1185    293.53604    6.9327006  0.087339555  0.016356241     151.7321   -13084.449   -23454.655 
   11900        0.119    296.10496    6.9077306   0.10587118  0.016233505       153.06   -13084.276   -23432.784 
   11950       0.1195    293.08466     6.879971 -0.030805343 -0.073673241    151.49878    -13081.22   -22584.975 
   12000         0.12     297.1437    6.9218749 -0.056979337 -0.054198717    153.59694   -13081.799   -22702.323 
   12050       0.1205    301.57373    7.0044117  0.043329137  0.051479916    155.88688    -13082.57   -23664.069 
   12100        0.121    293.88518    7.0181952  0.023704102  0.096299077    151.91258    -13077.05   -23793.994 
   12150       0.1215    296.77492    7.0081704 0.0043799715 0.00069808219    153.40631   -13077.019   -23377.495 
   12200        0.122    292.48254    6.9759498  -0.10485414 -0.035533144    151.18753   -13073.259   -22785.208 
   12250       0.1225    296.94777    7.0534954 -0.014942462 -0.019752574    153.49566    -13074.04   -23396.001 
   12300        0.123    289.85143    7.1236905  0.018799859  0.057195855    149.82749    -13068.82   -23998.954 
   12350       0.1235    298.58885    7.1838681   0.04970915  0.081128984    154.34395   -13071.776   -24382.354 
   12400        0.124    291.63893    7.1204512 -0.026389348 -0.053532536    150.75146   -13066.631   -23468.431 
   12450       0.1245    295.19025    7.1440596 -0.053111476 -0.055204578    152.58718    -13066.89   -23452.478 
   12500        0.125    296.23706    7.2041307  0.050583808 0.0036076007    153.12829   -13065.857   -24194.407 
   12550       0.1255    297.53686    7.2773925  0.056919275  0.038006041    153.80017   -13064.945   -24574.393 
   12600        0.126    295.16646    7.2349261  0.028616872 -0.046162351    152.57489   -13062.146   -24057.935 
   12650       0.1265    297.48564    7.2443244 -0.002926581 -0.039286275    153.77369   -13061.771   -24007.039 
   12700        0.127     297.6455    7.2738282  0.011785089  0.018395731    153.85633   -13060.277   -24346.697 
   12750       0.1275    291.20625    7.2478242 -0.018356863  0.011536729    150.52781   -13055.356    -24136.68 
   12800        0.128    294.05992    7.2869327 -6.0060928e-05  0.050726989     152.0029   -13055.241   -24458.666 
   12850       0.1285    293.16691     7.323405 -0.0082366186  0.011829006    151.54129   -13053.179   -24423.325 
   12900        0.129    290.51934     7.301818  -0.06422737 0.0078975927    150.17274    -13050.21   -24151.627 
   12950       0.1295    295.24041    7.3677399 -0.038356894 0.0019299379    152.61311   -13051.052    -24437.71 
   13000         0.13    289.72472    7.4063709 0.0028220833 -0.019061577    149.76199   -13046.587   -24633.771 
   13050       0.1305    294.20874    7.4325389  0.022934818  0.054717682    152.07983   -13047.285   -25033.971 
   13100        0.131    294.82583    7.4265067   0.02320686 -0.012422588    152.39881   -13045.985    -24790.97 
   13150       0.1315    296.17783    7.4414649 0.00084737194 -0.046693416    153.09767   -13045.046   -24652.063 
   13200        0.132    296.84104    7.4504726 0.0017525246 -0.018512667     153.4405   -13043.757   -24779.042 
   13250       0.1325    291.17353    7.4347129  0.039254531 0.0052303155    150.51089   -13039.199   -24930.659 
   13300        0.133    290.54755    7.5095937  0.026722493 -0.0006468377    150.18732   -13037.239   -25118.898 
   13350       0.1335    293.09289    7.5713648  -0.01572042  0.025268631    151.50303     -13036.9    -25269.71 
   13400        0.134    292.05957    7.6004809  -0.07298188 -0.021083163     150.9689   -13034.692   -25021.386 
   13450       0.1345    291.07254    7.5984774 -0.028081357 0.0019183149    150.45869   -13032.522   -25241.048 
   13500        0.135    296.32757    7.6290964   0.01305769  0.037427109    153.17508   -13033.571   -25598.604 
   13550       0.1355    285.62458    7.5809068 -0.025769251 -0.013534048    147.64258   -13026.384   -25138.678 
   13600        0.136    291.18549    7.6578962  0.030234848 -0.011747781    150.51708   -13027.585   -25587.944 
   13650       0.1365    293.84293    7.7239412  0.043927615 -0.012269924    151.89074   -13027.265   -25851.996 
   13700        0.137    294.36831     7.711163 -0.020209488 0.0025684834    152.16231   -13025.846   -25645.073 
   13750       0.1375     294.9798    7.7122797 0.0096494533 -0.029843031     152.4784    -13024.47   -25640.287 
   13800        0.138    293.95066    7.7389519 -0.0052910215 -0.027773545    151.94642   -13022.251   -25686.291 
   13850       0.1385    288.79186    7.6942326 -0.030326757   0.04965687    149.27978   -13017.891   -25711.876 
   13900        0.139    288.19803    7.7319856  0.013836596  0.030560807    148.97282    -13015.89   -25921.277 
   13950       0.1395    295.95238    7.6865856  0.020951335 -0.0078056581    152.98114    -13018.21   -25665.771 
   14000         0.14    289.44773    7.6739317 -0.041908854 -0.070290132    149.61881   -13013.157   -25205.776 
   14050       0.1405    292.86843    7.7689499  0.056705953 0.0076145309    151.38701    -13013.23   -26110.901 
   14100        0.141    292.26328    7.8409037  0.040902414  0.066213204     151.0742   -13011.195   -26493.398 
   14150       0.1415    291.80893    7.7895253 -0.004793072 -0.033131972    150.83934   -13009.247   -25838.667 
   14200        0.142    288.50772    7.7368248 -0.085378915  -0.03637587    149.13291   -13005.817   -25383.567 
   14250       0.1425    295.43752    7.8360719 -0.022714078  0.050813147      152.715   -13007.701   -26213.903 
   14300        0.143     293.7445    7.8876423  0.050866737  0.068478344    151.83986   -13005.082   -26689.958 
   14350       0.1435    291.32453    7.8365138  0.012273573  0.010869171    150.58895   -13002.106   -26198.855 
   14400        0.144    292.12404    7.8122776 -0.043572441  -0.02523765    151.00222   -13000.787   -25811.558 
   14450       0.1445    290.03276    7.8078094 0.0028496393  -0.10302404    149.92122   -12997.972   -25692.117 
   14500        0.145    285.50401    7.7971055  0.032689186 -0.017163655    147.58026   -12993.919   -26042.103 
   14550       0.1455    287.19654    7.8793187  0.050016006  0.072466787    148.45514   -12993.053   -26672.672 
   14600        0.146    293.07742    7.8557525 -0.010560767 -0.00077962415    151.49504   -12994.368    -26148.04 
   14650       0.1465    295.42509     7.845127 -0.064088035 -0.068867638    152.70857   -12993.824   -25707.238 
   14700        0.147    286.93725    7.8722595 -0.028827124 -0.041438729    148.32111   -12987.712   -26006.645 
   14750       0.1475    290.37246    7.9450655     0.114849  0.045457705    150.09681   -12987.732   -27017.907 
   14800        0.148    286.84261    7.9076839  0.055575881   0.07997595    148.27219   -12984.164   -26810.786 
   14850       0.1485    291.68389    7.7839372 -0.051684787 -0.073676836    150.77471   -12984.928   -25528.585 
   14900        0.149    294.23177    7.6965631 -0.059485051  -0.10639964    152.09173   -12984.517   -25102.261 
   14950       0.1495    289.97935    7.6077535  0.043183336 -0.036867738    149.89361   -12980.664    -25380.23 
   15000         0.15       289.53    7.4948978    0.1290812  0.079500105    149.66133   -12978.755   -25678.264 
   15050       0.1505    297.86582     7.383112   0.03196753  0.079562034    153.97021   -12981.453   -24982.139 
   15100        0.151    306.52916    7.1470837 -0.077555791 -0.069190665    158.44839   -12984.287   -23334.457 
   15150       0.1515    305.82628    6.8298383 -0.074013482 -0.070534228    158.08506   -12982.381   -22284.302 
   15200        0.152    315.31484    6.5743286  0.025653697  0.078211485    162.98981   -12985.834   -22260.646 
   15250       0.1525    315.85182    6.2582847 0.0064291316  0.093644184    163.26738   -12984.756   -21194.527 
   15300        0.153      323.768    5.9397092 -0.0031212327  0.059906606    167.35934   -12987.628   -19988.315 
   15350       0.1535    326.39003    5.6090484 -0.040598824 -0.012536457     168.7147   -12987.883    -18519.71 
   15400        0.154    337.82025    5.2462161 -0.00041613111 -0.014015065    174.62311   -12992.811   -17439.283 
   15450       0.1545    343.34774    4.8617485  0.025309249  0.015200265    177.48033   -12994.864    -16340.86 
   15500        0.155    344.27506    4.3931423  0.011735525  0.075465645    177.95967    -12994.73   -14934.478 
   15550       0.1555    356.00149    4.0434736 -0.018967716  0.071922713     184.0212    -13000.41   -13654.762 
   15600        0.156    359.21355    3.6502194 -0.048738161  0.040469263    185.68155   -13001.847   -12139.835 
   15650       0.1565    368.96913    3.3054033 -0.030960197   0.02795422    190.72432    -13006.87   -11007.991 
   15700        0.157    366.22916    3.0332841 -0.023934568  0.015929545      189.308   -13005.565   -10084.264 
   15750       0.1575    373.65559    2.8139776 -0.048089553  0.026546296     193.1468   -13009.624   -9308.1145 
   15800        0.158    365.24781    2.6818752 0.0053913512  0.041742864    188.80073   -13005.557   -9096.6982 
   15850       0.1585    371.40752    2.5648868  0.013466962   0.02538742    191.98475   -13009.046   -8679.1374 
   15900        0.159    376.04844     2.391146 -0.023522186 -0.012625467     194.3837   -13011.722   -7849.9946 
   15950       0.1595    383.18027    2.3232174   0.08314262 -0.017968993    198.07022   -13015.699   -7961.3035 
   16000         0.16    379.23231    2.2168013  0.052075457 -0.046333731    196.02947   -13013.973   -7408.4767 
   16050       0.1605    374.77826    2.1920583 -0.081893885 0.0091894584    193.72712   -13012.011   -7064.5128 
   16100        0.161     383.1671     2.190051 -0.016347843  0.048029074    198.06341   -13016.709   -7405.7741 
   16150       0.1615    385.69992    2.2237929  0.022768909  0.031231473    199.37265   -13018.409   -7592.6444 
   16200        0.162    390.78805    2.1683274  0.086619091 -0.0037568947    202.00277   -13021.466   -7503.9654 
   16250       0.1625    388.92112    2.1550436 -0.00040009422 -0.068724768    201.03773   -13020.949   -6953.0624 
   16300        0.163    386.00172    2.1305804 0.00011632983 -0.054533179    199.52866   -13019.929   -6920.5453 
   16350       0.1635    387.50096    2.1164105 -0.041810023    0.1076157    200.30363   -13021.219    -7274.054 
   16400        0.164    388.36118    2.0758377 -0.020564858  0.057804441    200.74829   -13022.233   -7043.5911 
   16450       0.1645    387.78132    1.9962281 -0.041351201 -0.0047552384    200.44855   -13022.505   -6500.4055 
   16500        0.165    395.72586    1.9727696  0.029628436 -0.020531723    204.55518   -13027.193    -6606.221 
   16550       0.1655    388.61048    1.9063115  0.001673034 -0.038965816    200.87716    -13024.11   -6230.0622 
   16600        0.166    394.28175    1.9227847  0.097528067  0.058222749     203.8087   -13027.657   -6928.4517 
   16650       0.1665    392.39186      1.89716  0.026147794 -0.029636667     202.8318   -13027.339    -6312.237 
   16700        0.167     399.4693    1.8026994 -0.061680267 -0.060396995     206.4902   -13031.642   -5602.0739 
   16750       0.1675    394.72919    1.7299972 -0.033680485 -0.052848035    204.03998   -13029.888   -5478.2291 
   16800        0.168    392.80391    1.7870701  0.075369179   0.13236276    203.04479   -13029.572   -6649.3402 
   16850       0.1685    396.76534    1.6994664  0.017115337    0.1290425     205.0925   -13032.382   -6152.0809 
   16900        0.169    395.47638    1.5839778  -0.11172372  -0.08196742    204.42622   -13032.431   -4634.2889 
   16950       0.1695    396.05693    1.5902427  0.027820496  -0.15514221    204.72631   -13033.434   -4876.4033 
   17000         0.17    400.44028    1.6432608   0.10864756 -0.010535747    206.99211   -13036.452   -5804.5753 
   17050       0.1705    397.54403    1.6034067   0.10858165  0.056206855    205.49501   -13035.751    -5893.984 
   17100        0.171    398.43856    1.5420164 -0.019903607  0.073546942     205.9574   -13036.995   -5318.8657 
   17150       0.1715    399.39106    1.5816536  -0.11931414 -0.045517995    206.44976    -13038.19   -4722.7381 
   17200        0.172    401.91587    1.5608625 -0.083000147  0.024534156    207.75486   -13040.279   -5007.9882 
   17250       0.1725    392.76146    1.6240294  0.075113516  0.077040375    203.02284   -13036.328    -5920.611 
   17300        0.173    396.69006    1.6438724  0.056413124  0.063282415    205.05358   -13039.144   -5878.5598 
   17350       0.1735    394.39561    1.5982126  -0.07079692 -0.029071137    203.86756   -13038.754    -4994.482 
   17400        0.174    395.11288     1.566899  -0.12295161  -0.11836951    204.23832   -13039.871   -4418.5929 
   17450       0.1745    399.06789    1.6723791 -0.043556402  0.040482575    206.28271   -13042.737   -5564.3511 
   17500        0.175    401.04524     1.707567   0.14230552   0.20438558    207.30482    -13044.51   -6847.5269 
   17550       0.1755    399.92176    1.5997498  0.058013081  0.055899749    206.72408   -13044.822   -5712.2086 
   17600        0.176    402.25047    1.5467574  -0.11408462  -0.11851292    207.92782   -13046.776   -4380.5329 
   17650       0.1765    399.97392    1.4759197 -0.077126545 -0.094688011    206.75105   -13046.399   -4347.0173 
   17700        0.177    410.80266     1.523861   0.14475309  0.045018586    212.34855   -13052.815   -5712.1088 
   17750       0.1775    404.94442    1.5558023   0.15985015  0.037893704    209.32036   -13050.662    -5845.154 
   17800        0.178    402.06641    1.4285698 -0.032535518 -0.098916862    207.83268   -13050.065   -4323.7248 
   17850       0.1785    402.75267    1.3868589  -0.12224698 -0.022742469    208.18741   -13051.245    -4139.565 
   17900        0.179    402.12828    1.4652393 -0.029842573  0.091153993    207.86466   -13051.778   -5088.5024 
   17950       0.1795    408.22973    1.4675206   0.10639455  0.094280119    211.01857   -13055.796    -5560.651 
   18000         0.18     410.5694    1.4060615  0.059204252 -0.0045817994    212.22797   -13057.936   -4868.9465 
   18050       0.1805    415.82088    1.2651779 -0.038235199 -0.067117854    214.94252   -13061.564   -3866.0829 
   18100        0.181    406.06447    1.1855164 -0.059915212  -0.11557183    209.89932   -13057.462   -3366.7645 
   18150       0.1815     412.5261    1.3556058   0.10321451  0.058250685    213.23941   -13061.749   -5056.9033 
   18200        0.182    404.93841    1.3827313  0.072456813  0.068938014    209.31725   -13058.762   -5080.4204 
   18250       0.1825    410.27051    1.3248935  0.006963831 -0.019433233    212.07347   -13062.497   -4374.7469 
   18300        0.183    414.28618    1.2554421 -0.046316103 -0.080314103    214.14922   -13065.508   -3762.7062 
   18350       0.1835    412.05076    1.2318917 -0.033196172 -0.0077267079     212.9937   -13065.335    -3969.896 
   18400        0.184    409.70014    1.2298373  0.028492516  0.020446516    211.77864   -13065.083   -4262.5876 
   18450       0.1845    412.92136    1.2052793  0.080232736   0.14159165    213.44373   -13067.729   -4757.0123 
   18500        0.185    419.54042      1.12143  0.016836619  0.014969485    216.86519   -13072.205   -3844.1205 
   18550       0.1855    414.15333   0.98048554  -0.14582994 -0.090274121    214.08054   -13070.401   -2481.2716 
   18600        0.186    415.52668    1.0551386 -0.0046679098 -0.030630915    214.79045   -13072.176   -3399.4659 
   18650       0.1865    413.66404    1.1006302   0.14373662  0.030320501    213.82763   -13072.243   -4248.9576 
   18700        0.187    421.49159    1.0851619  0.087534592  0.045743784    217.87377   -13077.367   -4061.4676 
   18750       0.1875    416.64613   0.98336089  0.021578131 -0.018073197     215.3691   -13075.962   -3289.5528 
   18800        0.188    415.25692   0.95743093 -0.096069723 -0.052266217      214.651   -13076.302   -2696.9833 
   18850       0.1885    418.24097    1.0473439 -0.060118076 -0.062362637    216.19349   -13078.908   -3082.8773 
   18900        0.189     420.2538    1.1173461  0.048208342   0.13576479    217.23395   -13081.003   -4337.7306 
   18950       0.1895    412.67028   0.99856919  0.063367195   0.10718645    213.31394   -13078.152   -3897.0761 
   19000         0.19    416.59813   0.91497318 0.0051467336  0.016447764    215.34429   -13081.293   -3121.8923 
   19050       0.1905    418.03059   0.83843535 -0.085435455 -0.037752356    216.08474   -13083.125   -2384.1585 
   19100        0.191    418.19863   0.82454675 -0.040034649 -0.027445205    216.17161    -13084.33   -2523.5563 
   19150       0.1915    414.10679   0.87962944  0.051867545 -4.176708e-05    214.05649   -13083.332   -3104.8507 
   19200        0.192    422.59666   0.94735629  0.061642852  0.042913083      218.445   -13088.846   -3506.3741 
   19250       0.1925    413.64857   0.94391105 -0.023504849 -0.044324643    213.81963   -13085.341   -2920.2718 
   19300        0.193    420.14869   0.98470883 -0.084727656 0.0004042558    217.17961   -13089.827   -3001.2848 
   19350       0.1935    411.48836   0.93381576 -0.044187197 -0.015967788    212.70299   -13086.481   -2912.2026 
   19400        0.194    421.26625    1.0471642  0.025761395  0.079945117    217.75729   -13092.655   -3842.9025 
   19450       0.1945    416.66432    1.0286128 -0.020254354  0.055778286     215.3785   -13091.429   -3547.1225 
   19500        0.195    420.34109    0.9492479 -0.031667075 0.0066525672    217.27907   -13094.463    -3080.778 
   19550       0.1955    415.67828   0.92694802 -0.0048153702 -0.081514376    214.86881   -13093.145   -2802.0609 
   19600        0.196    423.55287   0.99172415  0.063596392 -0.004989811    218.93927   -13098.316   -3501.1024 
   19650       0.1965    417.58218    1.0168826  0.045148549  0.018932701    215.85295   -13096.358   -3603.2128 
   19700        0.197    414.08101    0.9826297  0.015780123 -0.031327805    214.04316   -13095.661   -3223.6067 
   19750       0.1975    420.79975    1.0856491 -0.0010672713 -0.011626084    217.51615   -13100.217    -3576.519 
   19800        0.198    417.73479     1.163453 -0.015664952  0.010142421    215.93184   -13099.717   -3859.7682 
   19850       0.1985    411.38975    1.1183199  0.040949243  0.022566351    212.65202   -13097.487   -3939.4515 
   19900        0.199    414.74629    1.1225075 2.4470161e-05   0.14375723    214.38705   -13100.303   -4220.9641 
   19950       0.1995    416.57726    1.0262832 -0.076456598 0.0085194701     215.3335   -13102.337   -3194.4869 
   20000          0.2    408.37677   0.99380677  -0.12602171 -0.059360914    211.09458   -13099.181   -2694.7472 
Loop time of 350 on 4 procs for 20000 steps with 4000 atoms

Pair  time (%) = 291.131 (83.1803)
Neigh time (%) = 0.479936 (0.137124)
Comm  time (%) = 46.0309 (13.1517)
Outpt time (%) = 0.115712 (0.0330606)
Other time (%) = 12.2425 (3.49784)

Nlocal:    1000 ave 1014 max 984 min
Histogram: 1 1 0 0 0 0 0 0 0 2
Nghost:    3730.5 ave 3742 max 3720 min
Histogram: 2 0 0 0 0 0 0 0 1 1
Neighs:    69146 ave 70807 max 67250 min
Histogram: 1 1 0 0 0 0 0 0 0 2
FullNghs:  0 ave 0 max 0 min
Histogram: 4 0 0 0 0 0 0 0 0 0

Total # of neighbors = 276584
Ave neighs/atom = 69.146
Neighbor list builds = 81
Dangerous builds = 0

######################################
# SIMULATION DONE
print "All done"
All done
