
# ----------------------- ATOM DEFINITION ----------------------------
lattice		fcc ${latparam}
lattice		fcc 4.05
Lattice spacing in x,y,z = 4.05 4.05 4.05
region		whole block 0 16 0 16 0 16
create_box	1 whole
Created orthogonal box = (0 0 0) to (64.8 64.8 64.8)
  2 by 1 by 2 MPI processor grid
lattice 	fcc ${latparam} orient x 1 0 0 orient y 0 1 0 orient z 0 0 1
lattice 	fcc 4.05 orient x 1 0 0 orient y 0 1 0 orient z 0 0 1
Lattice spacing in x,y,z = 4.05 4.05 4.05
create_atoms	1 region whole
Created 16384 atoms

# ------------------------ FORCE FIELDS ------------------------------

#****************USE THIS TO TEST******************
pair_style	eam/rad
pair_coeff 		* * Al99.PC0.05.eam.alloy.rad.txt Al # pc = 0.5   error generating


# to test with error = 0 use this potential
# pair_coeff	* * Al99.eam.alloy.005pcrad_NULL_noerror Al

#****************USE THIS TO RUN REFRENCE***********
# pair_style	eam/alloy
# pair_coeff	* * Al99.eam.alloy Al

# ------------------------- SETTINGS ---------------------------------
compute csym all centro/atom fcc
compute peratom all pe/atom

######################################
# EQUILIBRATION
reset_timestep	0
timestep	0.001 # default
# timestep	0.0001 # tiny time step
velocity all create 300 12345 mom yes rot no
fix 1 all npt temp 300 300 1 iso 0 0 1 drag 1

# Set thermo output
thermo 50
# thermo 1 # debug mode

# thermo_style custom step lx ly lz press pxx pyy pzz pe temp
# IMPLEMENTATION HERE

# VERSION add rad variables .v1 .v2
# thermo_style custom step lx ly lz press pxx pyy pzz pxxrad pyyrad pzzrad pe temp

# VERSION ublb separation .v3
thermo_style custom step lx ly lz press pxx pxxrad pyy pyyrad pzz pzzrad pe temp

# Run for at least 10 picosecond (assuming 1 fs timestep)
run 	20000 # default
Memory usage per processor = 5.90433 Mbytes
Step Lx Ly Lz Press Pxx Pxxrad Pyy Pyyrad Pzz Pzzrad PotEng Temp 
       0         64.8         64.8         64.8    2496.5946    2464.3333    242.99145    2508.7809    242.99145    2516.6696    242.99145    -55050.24          300 
      50    64.896706    64.896706    64.896706    860.56085    949.43103    242.50192    822.00845    242.55999    810.24307    242.52719   -54640.386    105.49614 
     100    65.005446    65.005446    65.005446   -4102.3745   -4104.9237     238.9486   -4081.9907    238.95029   -4120.2091    238.96325   -54773.083    169.34737 
     150    64.907088    64.907088    64.907088    484.52969    515.48616    241.69128    475.96207    241.69421    462.14084    241.69728   -54678.107    124.56271 
     200    64.845387    64.845387    64.845387    2508.6157    2493.3738    243.33021    2511.6845     243.3667    2520.7889    243.36176    -54706.98    139.20862 
     250    64.904149    64.904149    64.904149    143.81178    132.07413    241.66808     152.0707    241.66191    147.29051    241.67547   -54721.637    146.57251 
     300    64.948544    64.948544    64.948544   -1470.5569   -1474.6314     240.5534   -1497.5382    240.55498   -1439.5011    240.55431   -54728.049    150.34907 
     350     64.91112     64.91112     64.91112   -321.25184   -276.42273     241.4271   -390.59413    241.45212   -296.73867    241.44046   -54749.819    161.18582 
     400    64.873529    64.873529    64.873529    1344.5041    1342.6916    242.57167    1345.7421     242.5576    1345.0785    242.56696   -54725.472    150.50327 
     450    64.906123    64.906123    64.906123    16.057935    71.326045    241.64599   -37.018105    241.63721    13.865866    241.63877   -54729.524    153.12426 
     500    64.934384    64.934384    64.934384   -907.51804   -913.42979    240.91369   -917.21901     240.9313    -891.9053    240.93874   -54721.881    150.36869 
     550    64.911149    64.911149    64.911149   -86.223732   -88.312004    241.54507   -89.943239    241.54262   -80.415955    241.55474   -54724.417    152.32973 
     600    64.886962    64.886962    64.886962    810.71522     843.2597    242.17066    770.41775    242.17256    818.46822    242.16813   -54730.919    156.25829 
     650    64.907203    64.907203    64.907203    103.12322    103.37156    241.65237    68.331601    241.65124     137.6665    241.65768   -54725.549    154.50552 
     700    64.929217    64.929217    64.929217   -784.55457   -743.52423    241.03262   -805.31015     241.0318   -804.82932    241.03308   -54727.129    156.12146 
     750    64.911263    64.911263    64.911263   -2.2768646   -7.1166668    241.53262   -15.754097    241.56866     16.04017    241.55425   -54723.502     155.2258 
     800    64.894977    64.894977    64.894977    531.27954    541.11308    241.96012     531.8221    241.95525    520.90344    241.97036   -54725.978    157.25865 
     850    64.908699    64.908699    64.908699    83.269989      91.5132    241.60273    36.159085    241.62371    122.13768    241.62255   -54722.084    156.26393 
     900    64.924682    64.924682    64.924682   -516.92399   -521.23577    241.17296    -522.1347    241.15946    -507.4015    241.20417   -54722.401    157.28073 
     950     64.91247     64.91247     64.91247   -69.108026   -75.357132    241.50577   -84.236667     241.5156   -47.730278     241.4959   -54721.937    157.91846 
    1000    64.898857    64.898857    64.898857    498.02335    483.40561    241.94245    470.08925    241.95697     540.5752    241.95994   -54715.614     155.8034 
    1050    64.911235    64.911235    64.911235    44.683247    10.903167    241.60326    71.727963    241.60223     51.41861    241.60076   -54716.754    157.19439 
    1100    64.923817    64.923817    64.923817   -457.38643   -471.82814    241.21028    -478.0245    241.23347   -422.30664    241.20369   -54718.458    158.88081 
    1150    64.913242    64.913242    64.913242   -30.297346   -28.257071    241.48773   -22.678698     241.4909   -39.956268    241.49535   -54724.952    162.81681 
    1200    64.902829    64.902829    64.902829    387.28708    353.72187    241.85779    364.68411    241.89403    443.45527    241.89432   -54708.669    156.00176 
    1250    64.913092    64.913092    64.913092   -37.782504   -17.813692    241.49977   -58.408683     241.4666   -37.125138    241.51091   -54721.076    162.73117 
    1300    64.921588    64.921588    64.921588   -247.18429      -274.59    241.34653   -240.31197    241.35911    -226.6509    241.33138   -54710.747    158.74756 
    1350    64.914794    64.914794    64.914794   -50.058944   -57.335922    241.51426   -25.937033    241.52891   -66.903877    241.50246    -54710.14    159.32923 
    1400     64.90718     64.90718     64.90718    308.15164      299.236    241.68258    313.08477    241.68189    312.13416    241.67657   -54716.037    163.00318 
    1450    64.915457    64.915457    64.915457   -68.182331   -45.461183    241.52109   -110.28569    241.52896   -48.800117    241.50377   -54708.153    160.15139 
    1500    64.921221    64.921221    64.921221   -222.12004    -260.1734     241.2706   -175.01713    241.28184   -231.16961    241.30428   -54717.857    165.62684 
    1550    64.914891    64.914891    64.914891    84.508989    68.509585    241.54533    76.045396    241.56912    108.97199    241.57966   -54698.634     157.4345 
    1600    64.911514    64.911514    64.911514    179.10262    171.04647    241.57966    199.75421    241.60982    166.50719    241.59877   -54711.252    164.27838 
    1650    64.917196    64.917196    64.917196   -69.216668   -77.641356    241.48728   -28.794477    241.49938   -101.21417    241.48871   -54705.888    162.63245 
    1700      64.9199      64.9199      64.9199   -124.95287   -91.733041    241.37215   -131.46383    241.38728   -151.66172    241.40375   -54709.851    165.38762 
    1750    64.916324    64.916324    64.916324    17.906812     26.35357     241.5269    29.180508      241.476   -1.8136411     241.4933   -54706.639    164.76164 
    1800    64.914963    64.914963    64.914963    132.33831    129.12402    241.50387    111.60445    241.51312    156.28646    241.51911   -54703.754    164.28487 
    1850    64.918757    64.918757    64.918757   -47.026286   -41.061169    241.41462   -45.325242    241.41118   -54.692448     241.4374   -54705.487    166.00606 
    1900    64.920556    64.920556    64.920556   -67.644229   -68.175359    241.43251    -74.49325    241.45919   -60.264079    241.41661   -54699.368    163.99471 
    1950    64.918703    64.918703    64.918703    4.4279539    43.163473    241.44764   -7.4447635    241.44837   -22.434848    241.48492   -54700.238    165.30024 
    2000    64.916844    64.916844    64.916844    84.515369    101.57458     241.5287    76.675086    241.50759    75.296442    241.52241   -54699.354    165.77466 
    2050     64.91964     64.91964     64.91964   -25.377169   -30.069028    241.38316   -39.312397    241.40062   -6.7500835    241.39551   -54705.018     169.3409 
    2100     64.92101     64.92101     64.92101   -69.637287   -51.749208    241.36902   -108.58252    241.40005   -48.580138    241.38639   -54699.952     167.8488 
    2150    64.919935    64.919935    64.919935     64.77002    111.25353     241.4635    46.591022    241.47648    36.465504    241.47001   -54693.209    165.55076 
    2200    64.921444    64.921444    64.921444   -31.293365    28.953798    241.41027   -79.532145    241.39202   -43.301748    241.41079   -54699.988    169.64218 
    2250    64.921431    64.921431    64.921431   -56.153186   -30.621665    241.36125   -81.837503    241.38238   -56.000389    241.36411   -54695.552    168.44636 
    2300    64.919484    64.919484    64.919484    102.20585    114.06956    241.40088    106.55792    241.44966    85.990079    241.42951   -54696.873    169.97344 
    2350    64.921889    64.921889    64.921889    5.3667074    66.901676    241.41236   -51.399408    241.41725   0.59785414    241.42469   -54689.676    167.45768 
    2400    64.923937    64.923937    64.923937     -70.8674   -69.099774    241.32445   -72.435113    241.30826   -71.067315    241.29745   -54693.907    170.36189 
    2450    64.921683    64.921683    64.921683    38.795441    88.603291    241.41056    -27.56332    241.41336    55.346352    241.41465   -54691.559    170.14627 
    2500    64.921244    64.921244    64.921244    34.281772    17.649698    241.42995    28.512509    241.42908    56.683109    241.42743   -54690.512    170.54889 
    2550    64.923382    64.923382    64.923382   -23.045063    10.201656    241.35021   -27.908162     241.3659   -51.428684    241.33155   -54695.462     173.7817 
    2600    64.925251    64.925251    64.925251   -48.308893   -27.356417    241.33092   -59.004134    241.34834   -58.566128    241.33846   -54684.581    169.53976 
    2650    64.923828    64.923828    64.923828    10.772066    50.569126    241.34766    45.072755    241.35633   -63.325684     241.3511   -54689.739     172.8804 
    2700    64.922631    64.922631    64.922631    41.503128    77.608484    241.46547    6.0269148    241.45066    40.873986    241.44125   -54685.948    171.98139 
    2750    64.924507    64.924507    64.924507    13.926302    66.564428    241.37995   -22.106717    241.38782   -2.6788067     241.3994   -54685.371    172.60524 
    2800    64.926105    64.926105    64.926105   -66.900793   -34.640355    241.24854   -42.237189    241.28392   -123.82483    241.28707   -54688.938    175.19563 
    2850    64.925298    64.925298    64.925298     23.63414     30.31689    241.34923    21.432216    241.38339    19.153315    241.32453   -54683.681    173.61182 
    2900    64.925171    64.925171    64.925171   -9.5255578    28.788704    241.35121    12.687064    241.34087   -70.052441     241.3554   -54687.397     176.2641 
    2950    64.925703    64.925703    64.925703    27.226991    123.72234    241.35457    1.9493504     241.3571   -43.990714    241.40439   -54679.695    173.52513 
    3000    64.927642    64.927642    64.927642   -36.160513   -28.962985    241.28219   -26.459715    241.28399    -53.05884    241.30106   -54680.506    174.80889 
    3050    64.927529    64.927529    64.927529   -19.919289    6.7113271    241.23573   -25.882011    241.28002   -40.587182    241.27244   -54684.291    177.49718 
    3100    64.926679    64.926679    64.926679     26.36626     10.20864     241.2973    56.829536      241.322    12.060605    241.31239   -54680.729    176.71487 
    3150    64.927597    64.927597    64.927597    23.887023    91.138758    241.30377    33.787624    241.35195   -53.265313     241.3373   -54674.957    174.88876 
    3200    64.928549    64.928549    64.928549   -51.345938   -23.670471    241.23548   -110.14189    241.24684   -20.225453     241.2772   -54681.883    179.06425 
    3250    64.928117    64.928117    64.928117   -2.1282022    37.496193    241.28651    12.411412    241.28285   -56.292212    241.30442   -54679.173    178.68206 
    3300    64.928624    64.928624    64.928624   -35.413114    8.7917753     241.2949   -30.015144    241.30552   -85.015972    241.30631   -54675.925    178.04877 
    3350    64.928311    64.928311    64.928311     38.55506    18.417377     241.2964    69.743563    241.28203    27.504238    241.29789   -54680.779    181.24606 
    3400    64.930178    64.930178    64.930178    10.079993    96.853272    241.28531    -6.139849    241.32155   -60.473445    241.30952   -54667.172    175.71509 
    3450    64.931797    64.931797    64.931797   -83.382733   -136.49785     241.2259   -43.562348    241.26474   -70.087997    241.24942   -54673.118    179.42886 
    3500    64.929604    64.929604    64.929604    47.192489    124.85847    241.24408    52.720913    241.26978   -36.001915    241.28506   -54673.413    180.46486 
    3550    64.928961    64.928961    64.928961    60.043325    57.026722    241.30984    67.763949    241.29689    55.339305     241.2943    -54669.87    179.70124 
    3600    64.930874    64.930874    64.930874   -19.510368    36.514866    241.24785     1.265272    241.28459   -96.311242    241.28124   -54671.363    181.30673 
    3650    64.932912    64.932912    64.932912    -66.82066   -40.386328    241.21063   -80.966851    241.23141   -79.108803    241.19957   -54672.023    182.51599 
    3700    64.932336    64.932336    64.932336   -52.111219   -69.255911    241.22056   -13.105938    241.22245   -73.971809    241.25519   -54670.176    182.54705 
    3750    64.930113    64.930113    64.930113    66.161664    117.67797    241.27477    42.797297    241.28802    38.009729    241.32058   -54668.531    182.67233 
    3800    64.932039    64.932039    64.932039    18.378685    55.199993       241.26   -36.253423    241.26679    36.189486    241.25996   -54665.402    182.09586 
    3850    64.935035    64.935035    64.935035   -69.920649   -64.191715    241.16497    -22.28254    241.17212   -123.28769    241.18545   -54664.839    182.73132 
    3900    64.934425    64.934425    64.934425    -44.84433   -35.855783    241.13091   -93.038511    241.18286   -5.6386941     241.1749   -54666.355     184.3493 
    3950    64.931657    64.931657    64.931657    108.12242    86.347834    241.29264    164.11022    241.26029    73.909222    241.26818   -54661.144    182.79497 
    4000    64.933259    64.933259    64.933259    39.562897    127.60877    241.23848    1.1038606    241.23763    -10.02394    241.25039   -54661.847    184.02281 
    4050    64.936337    64.936337    64.936337   -69.141502    -76.55805    241.17908   -79.516737    241.15037    -51.34972      241.169   -54661.831    184.91911 
    4100    64.935494    64.935494    64.935494   -10.468708    33.629516    241.16246   -9.1546272    241.16884   -55.881013    241.19551   -54660.637    185.25636 
    4150    64.933871    64.933871    64.933871    55.054712    50.669504    241.16182    23.079217    241.21282    91.415416    241.19635   -54662.305     186.9483 
    4200    64.935075    64.935075    64.935075    3.1453102    17.354796    241.16568     31.65033    241.20116   -39.569196    241.24069   -54658.337    185.97588 
    4250    64.937269    64.937269    64.937269   -41.894341   -3.4751109    241.13647   -106.35189    241.14274   -15.856028    241.17906   -54657.387    186.42258 
    4300    64.937412    64.937412    64.937412   -35.988985   -46.890645    241.11787   -42.239804    241.13389   -18.836507    241.10331   -54659.204    188.18522 
    4350    64.935136    64.935136    64.935136    66.759734    77.269333    241.21254      76.7378    241.23707    46.272068    241.21152   -54650.597    185.02228 
    4400     64.93534     64.93534     64.93534    93.381852    92.748074    241.21187    74.142821    241.23037    113.25466    241.21965   -54652.897    187.00939 
    4450    64.939127    64.939127    64.939127   -91.106412   -90.393474    241.07102   -83.919238    241.07938   -99.006524    241.09726   -54656.436    189.58001 
    4500    64.939677    64.939677    64.939677   -79.280601   -121.88204    241.05075   -88.768847    241.07677   -27.190916    241.10606   -54654.833    189.72476 
    4550    64.936566    64.936566    64.936566     32.35499    58.160484    241.18527   -14.927284    241.17237     53.83177     241.1847   -54653.784     190.1291 
    4600    64.936176    64.936176    64.936176    69.227021    114.12137    241.12804    65.541563    241.15976    28.018133    241.19269   -54654.577     191.4044 
    4650    64.939875    64.939875    64.939875   -28.558605   -4.4595293    241.08038   -63.125106    241.09992    -18.09118    241.08386   -54649.696    190.00281 
    4700    64.941468    64.941468    64.941468   -132.70997   -80.856125    241.06069   -140.19142    241.07291   -177.08238    241.07803   -54649.487    190.79744 
    4750    64.938078    64.938078    64.938078    101.26554    131.75744    241.14136    65.147046    241.16281    106.89212    241.17573   -54647.781    190.89352 
    4800    64.938802    64.938802    64.938802    59.602532    107.84034    241.13467    33.453505    241.11184    37.513747    241.15364   -54647.109    191.47364 
    4850    64.942227    64.942227    64.942227   -58.039397   -13.889691    241.05612   -108.10035    241.04241   -52.128147    241.06346    -54644.85    191.30938 
    4900    64.942279    64.942279    64.942279   -86.126851    -74.33397    241.04606   -78.311838    241.01225   -105.73475    241.04546    -54649.93    194.60258 
    4950    64.938904    64.938904    64.938904    121.18702    153.78082     241.1761     125.0405    241.18134    84.739739    241.14773   -54639.826    190.73082 
    5000    64.940474    64.940474    64.940474    39.941221    104.49265    241.07453    3.2738964    241.12498    12.057119    241.12914   -54644.714    193.93713 
    5050    64.944344    64.944344    64.944344   -69.899311    13.546292    240.97933    -113.7666    241.00266   -109.47762    241.01498   -54642.743    193.90385 
    5100    64.944311    64.944311    64.944311   -49.087349   -32.070386    240.97106   -79.668453     241.0078   -35.523208    240.99454   -54642.432    194.65556 
    5150    64.941672    64.941672    64.941672     53.30495    133.34082     241.0408   -33.421968    241.05922    59.995996    241.11672   -54640.014    194.41031 
    5200    64.942455    64.942455    64.942455    40.272807    44.546297    241.03641    41.094698    241.06504    35.177426    241.06077   -54642.183    196.32928 
    5250    64.945095    64.945095    64.945095   -49.669905    7.0054855    241.03994   -66.160589    241.04104   -89.854611    241.03973   -54635.589    194.11219 
    5300    64.944947    64.944947    64.944947    5.0988099    57.033906    241.02288    4.1364344    241.04089   -45.873911    241.03983   -54635.423    194.92456 
    5350    64.944154    64.944154    64.944154   -10.270997   -3.0025937    240.96124   -33.336722     240.9823    5.5263246     240.9793   -54640.661    198.29749 
    5400      64.9439      64.9439      64.9439    12.283463    99.403511    241.00512   -12.670129    240.99532   -49.882993    241.02422   -54639.041    198.43201 
    5450    64.945657    64.945657    64.945657   -21.563725     18.94493    241.00487   -62.425036    241.00656    -21.21107    241.03249   -54636.863    198.29288 
    5500     64.94652     64.94652     64.94652   -37.181305   -14.514438    240.97024   -48.856993    241.00707   -48.172484    241.01206   -54633.407    197.55327 
    5550    64.945216    64.945216    64.945216    53.996136    74.969407    241.01095    44.219327    241.04091    42.799673    241.05266   -54631.854    197.71413 
    5600    64.945613    64.945613    64.945613    55.025469    19.866462    241.03978    96.117746    241.04074    49.092198    241.03405   -54628.693    197.11657 
    5650    64.948095    64.948095    64.948095   -49.138611   -63.701111    240.95454   -1.0801871    240.95181   -82.634535    240.96157   -54632.032    199.58039 
    5700    64.948588    64.948588    64.948588   -41.508354   -65.677852    240.91439    14.888239    240.94164    -73.73545    240.94467   -54631.141    200.05337 
    5750    64.946948    64.946948    64.946948    31.945903    42.147432    240.96928     61.69119    240.99679   -8.0009137    241.00238   -54627.945     199.4337 
    5800    64.946659    64.946659    64.946659    42.087954    59.053488    240.99291    98.900102    240.98558   -31.689729    241.03922   -54631.694    202.09915 
    5850    64.949267    64.949267    64.949267   -14.274084   -64.076519    240.91835   -8.7334735    240.91918    29.987741    240.94284   -54627.081    200.80366 
    5900    64.950815    64.950815    64.950815   -75.017577   -62.583115    240.86573   -28.380852    240.88368   -134.08876    240.89722   -54627.922    202.09739 
    5950    64.948563    64.948563    64.948563    43.016864    23.529361    240.95779    104.95146    241.00162   0.56977574    240.96478   -54624.707    201.46218 
    6000    64.948104    64.948104    64.948104     31.80873   -14.897012     240.9801    101.73495    240.96583    8.5882487    240.95689   -54626.522    203.20864 
    6050    64.949927    64.949927    64.949927    52.963454    32.797762    240.91978    83.789382    240.93469    42.303218    240.95227   -54622.044    201.98167 
    6100    64.953106    64.953106    64.953106   -87.116688    -42.40576    240.88767   -123.17156    240.85289   -95.772743    240.86207   -54620.703    202.23368 
    6150    64.951555    64.951555    64.951555   -42.642128   -86.849341    240.88674    19.147126    240.92525   -60.224168    240.91963   -54623.606    204.49154 
    6200    64.948846    64.948846    64.948846     101.4011    96.358359       240.94    136.12392      240.954    71.721021    240.97967   -54622.736    204.96319 
    6250    64.951467    64.951467    64.951467   -12.139176   -33.221793    240.89413    15.947459    240.90875   -19.143193    240.89592   -54621.307    205.17637 
    6300    64.954438    64.954438    64.954438    -48.92492   -66.028088    240.81782   -73.103334    240.81626   -7.6433381     240.8839   -54618.545    204.75341 
    6350    64.953536    64.953536    64.953536   -70.277798   -71.175085    240.84868   -30.213583    240.85955   -109.44473    240.84343   -54619.706     206.1864 
    6400    64.949736    64.949736    64.949736    103.05567    55.216393    240.97465    171.97203    240.98822    81.978582    240.99199   -54617.148    205.86201 
    6450    64.951892    64.951892    64.951892     89.43345    88.042117     240.9254     58.11642    240.95977    122.14181    240.95488   -54612.898    204.73224 
    6500     64.95675     64.95675     64.95675   -127.71656   -191.02107     240.7563   -79.245796    240.76627   -112.88282    240.76758   -54618.012    208.03112 
    6550     64.95488     64.95488     64.95488   -17.551408    60.709933    240.81252   -80.943872    240.83014   -32.420284    240.86259    -54612.65    206.37744 
    6600    64.951841    64.951841    64.951841    90.972512    71.266448     240.9325    132.80256    240.88626    68.848532    240.93019   -54616.538    209.09467 
    6650    64.954099    64.954099    64.954099    41.757368     106.6738    240.87844    9.7146118    240.87955    8.8836966    240.90278   -54609.603    206.69332 
    6700    64.958015    64.958015    64.958015   -116.22734   -153.42225    240.75871   -76.616182     240.7804   -118.64358    240.77061   -54611.408    208.42506 
    6750    64.955624    64.955624    64.955624    23.155986    45.882826    240.84288    72.588369    240.85037   -49.003237    240.86481    -54607.86    207.62494 
    6800    64.953303    64.953303    64.953303    85.918223    81.856804     240.8508    65.477807    240.87479    110.42006    240.90282   -54610.555    209.77512 
    6850    64.955954    64.955954    64.955954     22.26937    81.092069    240.80333     22.04334    240.79292   -36.327298    240.82051   -54610.298    210.53078 
    6900    64.959266    64.959266    64.959266   -68.929974   -8.9623161    240.73679   -54.435277     240.7426   -143.39233    240.77953   -54606.804    209.75419 
    6950    64.957736    64.957736    64.957736   -50.106943   -43.828659    240.79137   -49.204783    240.77728   -57.287388    240.81394   -54607.424    210.91535 
    7000    64.955119    64.955119    64.955119    66.106542    126.84725    240.85603    42.835122    240.86132    28.637257    240.92455   -54608.173    212.14154 
    7050    64.957113    64.957113    64.957113    14.178771   -10.531493     240.8031     12.91696    240.80074    40.150847    240.83783   -54605.028    211.52693 
    7100    64.960167    64.960167    64.960167   -72.807998    36.591937    240.71125   -62.916229    240.71428    -192.0997    240.75703   -54604.558    212.17661 
    7150    64.959254    64.959254    64.959254   -61.602376   -64.900808    240.75855   -59.364545     240.7491   -60.541776    240.75339    -54604.23    212.89088 
    7200    64.956254    64.956254    64.956254    123.54552    172.55629    240.84392     125.6326    240.84392    72.447667    240.87663   -54601.514    212.47574 
    7250    64.958404    64.958404    64.958404    58.923703    30.988235    240.82027     80.87632    240.80081    64.906554    240.83108   -54599.125    212.21684 
    7300     64.96229     64.96229     64.96229   -98.770076   -20.970111      240.709   -83.883167    240.71644   -191.45695    240.75523   -54598.515    212.78935 
    7350    64.960905    64.960905    64.960905   -48.813418   -21.658323    240.76836   -84.170425    240.74637   -40.611506    240.75461   -54599.816    214.26976 
    7400    64.956877    64.956877    64.956877    126.33988    165.69152    240.84266    122.38108    240.82672    90.947045    240.83392   -54598.449    214.48916 
    7450    64.958832    64.958832    64.958832    79.562026    94.172815    240.76229    126.77827    240.74405     17.73499    240.75664   -54598.011    215.14879 
    7500    64.963965    64.963965    64.963965   -108.14718   -122.40196    240.63759   -97.702153    240.68047   -104.33742    240.67674   -54597.667    215.84659 
    7550    64.963119    64.963119    64.963119   -66.917066   -123.84621    240.71036   -11.914177    240.73132    -64.99081    240.73434   -54595.285    215.57796 
    7600    64.959538    64.959538    64.959538    66.182822    80.537476    240.78591    50.738374    240.81011    67.272616      240.831   -54596.151    216.84442 
    7650    64.960724    64.960724    64.960724    30.184446    76.181654    240.75531    58.596622    240.73048   -44.224938    240.76227   -54597.493    218.33962 
    7700    64.965031    64.965031    64.965031   -87.136511   -135.67695     240.6118   -49.067053    240.59567   -76.665531    240.60868   -54597.068    218.99381 
    7750    64.964941    64.964941    64.964941   -67.829257    -4.551791    240.60192   -93.850641    240.64665   -105.08534     240.6701   -54593.181    218.01912 
    7800    64.961087    64.961087    64.961087    59.084462     53.88425    240.75779    105.96377    240.74443    17.405367    240.79543   -54591.383    218.02061 
    7850    64.961408    64.961408    64.961408    129.13434    169.10718    240.74898    154.37631    240.75024     63.91953    240.78681   -54587.815    217.18921 
    7900    64.966644    64.966644    64.966644      -90.527   -56.006322    240.63001   -34.951149    240.63166   -180.62353    240.63746   -54587.053    217.68133 
    7950    64.966919    64.966919    64.966919   -106.88551   -126.67168    240.58503   -59.131279    240.62242   -134.85356    240.58815   -54590.838     220.3208 
    8000    64.962108    64.962108    64.962108    111.30662    192.95032    240.73401    144.78495    240.74606   -3.8154213    240.77028   -54584.225    218.04898 
    8050    64.962706    64.962706    64.962706    99.051536    146.13755    240.73213    31.099086    240.74529    119.91797    240.76066   -54586.072    219.76756 
    8100    64.968171    64.968171    64.968171   -78.427309   -51.945627    240.56247   -80.759501    240.57201    -102.5768    240.59878   -54587.298    221.19468 
    8150    64.968537    64.968537    64.968537   -64.178991   -81.912039     240.5969   -74.911226    240.55359   -35.713707    240.60645   -54582.599    219.82427 
    8200    64.964494    64.964494    64.964494    92.104704    173.93919    240.67527    107.63883    240.68853   -5.2639033    240.69273   -54583.665    221.16941 
    8250    64.964833    64.964833    64.964833    72.410089    66.179221    240.69056    1.3851638    240.70321    149.66588    240.67821    -54585.43    222.84712 
    8300    64.969376    64.969376    64.969376   -64.261577   -68.923488    240.58258   -50.459042     240.5811     -73.4022     240.5688    -54581.63    221.89378 
    8350    64.970168    64.970168    64.970168   -91.435831   -156.98243    240.50674   -62.571213    240.52022   -54.753852    240.54278   -54585.327    224.48301 
    8400    64.966525    64.966525    64.966525    51.258428    37.938134    240.61779    70.480926    240.67625    45.356225    240.66387   -54581.554    223.53664 
    8450    64.966323    64.966323    64.966323    82.221508    74.386881    240.68743    114.87324     240.6643    57.404405      240.696   -54577.714    222.55921 
    8500    64.970463    64.970463    64.970463   -48.225571   -25.721192     240.5868   -60.380883    240.55451   -58.574638    240.57101   -54575.849    222.51476 
    8550    64.970816    64.970816    64.970816   -93.884933   -54.857474    240.53042   -160.51152    240.55503   -66.285807     240.5528   -54578.427    224.57104 
    8600    64.967101    64.967101    64.967101    139.11742    146.86257    240.65262    194.69844    240.61975    75.791238    240.65222   -54576.432    224.46243 
    8650    64.969173    64.969173    64.969173    3.1483363    28.738074    240.56939   -56.235821    240.59281    36.942755    240.58566   -54575.691    224.94696 
    8700    64.971854    64.971854    64.971854     -68.7698   -116.10651    240.55027   -5.0011582     240.5314   -85.201734    240.50039   -54579.878    227.75265 
    8750    64.971904    64.971904    64.971904   -67.182553   -63.197209    240.51862    -24.01635    240.53204    -114.3341    240.55377   -54576.258    226.87008 
    8800    64.970052    64.970052    64.970052    79.438675    90.911273    240.57406    91.163107    240.60862    56.241646    240.58093   -54570.121    224.79881 
    8850     64.97149     64.97149     64.97149     13.22576    14.066215    240.53697   -14.538886    240.56429    40.149952    240.58012   -54570.592    225.84808 
    8900    64.972718    64.972718    64.972718   -3.9891204    38.631298     240.4876    21.238026    240.52761   -71.836685     240.5378    -54570.84    226.79338 
    8950    64.972266    64.972266    64.972266    35.810372     99.50172    240.53049   -8.2466299     240.5417    16.176028    240.52933   -54569.553    227.00837 
    9000    64.972546    64.972546    64.972546    10.151834    16.591347    240.53712    46.671421    240.54235   -32.807265    240.50788   -54569.906    227.99736 
    9050    64.973538    64.973538    64.973538   -61.331172   -61.403107    240.49612   -116.17613    240.49867    -6.414278    240.50087   -54571.658    229.64311 
    9100    64.972912    64.972912    64.972912    41.898657    84.868777     240.5011    25.581862    240.52552    15.245331    240.52877   -54568.546    228.99296 
    9150    64.974044    64.974044    64.974044   -12.475464   -97.500023     240.4541    45.822851    240.47156    14.250781    240.50066   -54570.802    230.87494 
    9200    64.975684    64.975684    64.975684   -42.705464   -51.891086     240.4397   -11.814993    240.44681   -64.410313    240.43358   -54567.291    230.03132 
    9250    64.974964    64.974964    64.974964    13.672826    13.271093    240.45725    31.793723    240.47101   -4.0463388    240.46366   -54563.834    229.21413 
    9300    64.974192    64.974192    64.974192    59.414045    87.404883    240.49095     25.10489    240.49732    65.732361    240.52332   -54562.266    229.28623 
    9350    64.975523    64.975523    64.975523    1.2853101   -81.530516    240.47125    32.034216    240.47775     53.35223    240.45737   -54565.811     231.7696 
    9400    64.977052    64.977052    64.977052   -96.691083    -72.77632    240.38162   -117.53051    240.45423   -99.766422    240.43026   -54567.915    233.56933 
    9450    64.975363    64.975363    64.975363    27.965824   -29.616366    240.47085    64.292913    240.50297    49.220926    240.50337   -54560.836    231.03533 
    9500    64.975278    64.975278    64.975278    32.875849    67.225627    240.47795    13.100999    240.48739    18.300919    240.48423   -54561.184    232.00474 
    9550    64.976509    64.976509    64.976509   -20.744073   -20.538339    240.43646   -47.177451    240.42315    5.4835722    240.44776   -54559.204    231.87811 
    9600    64.976106    64.976106    64.976106    94.425025    139.05742    240.43474    92.319146     240.4645    51.898514    240.48682   -54554.641    230.52469 
    9650    64.977299    64.977299    64.977299   -19.565453   -94.840849    240.41055    38.464319    240.43393   -2.3198294    240.42973   -54560.418    234.05496 
    9700    64.977223    64.977223    64.977223    34.853728    79.358394    240.44778    12.645233    240.47324    12.557556    240.46122   -54553.728    231.68887 
    9750    64.978038    64.978038    64.978038   -90.959678   -72.711863    240.43526   -31.803723    240.41623   -168.36345    240.39799   -54563.486    237.09357 
    9800    64.977173    64.977173    64.977173    60.245875    96.567211    240.45891   -10.065643    240.45116    94.236056    240.46365   -54553.737    233.28502 
    9850    64.978769    64.978769    64.978769    -9.645999   -45.986779    240.39683     9.149433    240.39754    7.8993487    240.42789   -54557.067    235.65541 
    9900    64.979198    64.979198    64.979198   -33.031717    29.656642    240.38383   -11.812585    240.38826   -116.93921    240.41562   -54552.233    234.16254 
    9950    64.978203    64.978203    64.978203    62.554349    16.910739    240.40109    62.837329    240.40448    107.91498    240.41216   -54555.542    236.51703 
   10000     64.97967     64.97967     64.97967    31.828521    56.100761    240.40755    75.800805    240.39019   -36.416003    240.39529   -54551.297    235.29757 
   10050    64.981801    64.981801    64.981801   -52.862736     14.21204    240.32854   -114.62243    240.35651   -58.177815    240.32672    -54552.58    236.69116 
   10100    64.981127    64.981127    64.981127   -12.936916   -49.443328    240.36614    34.965438    240.35393   -24.332858    240.36926   -54551.557    236.99104 
   10150    64.979724    64.979724    64.979724    54.970747    75.030374    240.41885    47.061192    240.43538    42.820674    240.43058   -54550.064    237.06794 
   10200    64.981265    64.981265    64.981265     15.46661    30.561794    240.38154    15.262408    240.36799    0.5756263     240.3907   -54550.181    237.90143 
   10250    64.983122    64.983122    64.983122   -48.827105    19.773997    240.32347   -134.98479    240.32446   -31.270521    240.35434   -54548.946    238.09972 
   10300    64.983042    64.983042    64.983042    -5.738439   -93.184018     240.3371      11.4012    240.35822    64.567501    240.34361   -54546.775    237.84975 
   10350    64.982695    64.982695    64.982695   -16.447721    20.734412    240.30522   -14.374482    240.34939   -55.703094    240.35785   -54549.214    239.77832 
   10400     64.98193     64.98193     64.98193    54.517596    44.392774    240.35458    31.337576     240.3442    87.822437    240.38844   -54544.677    238.40927 
   10450    64.983325    64.983325    64.983325   -23.488735    85.134561    240.30085   -64.258372    240.31604   -91.342393    240.33691   -54547.768    240.64172 
   10500    64.984392    64.984392    64.984392   -30.345218   -61.109625     240.2651   -5.4884357    240.27358   -24.437593    240.28161   -54547.327    241.20175 
   10550    64.984294    64.984294    64.984294   -3.9050019   -31.725595    240.26759    34.458399    240.28724    -14.44781    240.28551   -54543.044    239.94717 
   10600     64.98362     64.98362     64.98362    73.639837    140.05109    240.33001    51.583083     240.3283    29.285341     240.3539   -54540.571    239.54237 
   10650    64.985282    64.985282    64.985282   -58.570514   -96.819563    240.29371   -92.205685    240.28137    13.313707    240.28906   -54543.497    241.68466 
   10700    64.985165    64.985165    64.985165    17.885728    108.46209     240.3198    26.070146    240.28463   -80.875056    240.31809   -54540.428     240.9996 
   10750    64.985316    64.985316    64.985316    8.2171452   -42.606569    240.24641    12.852897    240.29021    54.405107    240.31071    -54541.11    242.07905 
   10800    64.984934    64.984934    64.984934     32.75143    72.411197    240.29919     5.224387    240.29808    20.618707    240.30634   -54537.746    241.25126 
   10850    64.985818    64.985818    64.985818  -0.72907572    22.929291    240.28003    8.0845054    240.25058   -33.201023    240.27482   -54539.805    242.97649 
   10900    64.987016    64.987016    64.987016   -27.648872    13.052593    240.23731   -72.590281    240.26455   -23.408929    240.26162   -54538.878    243.29431 
   10950    64.986831    64.986831    64.986831   -64.524437   -59.257222    240.30848   -55.407794    240.27159   -78.908294    240.29288   -54539.473    244.32358 
   11000     64.98556     64.98556     64.98556    75.421983    140.82559    240.28428    47.409159    240.28089    38.031202     240.2962   -54538.659    244.68781 
   11050    64.987078    64.987078    64.987078   -9.6118611    48.781073    240.28435   -23.345128    240.24683   -54.271529    240.27719    -54534.81    243.61813 
   11100    64.988415    64.988415    64.988415    7.6343537    6.2778872    240.26149   -10.756686    240.24256     27.38186    240.26093   -54532.112    243.08659 
   11150    64.988464    64.988464    64.988464    -14.28932    4.2676763    240.23747   -32.421669    240.22405   -14.713968    240.26384   -54532.926    244.21383 
   11200    64.988042    64.988042    64.988042   -13.729977    49.181478     240.2052   -41.223785    240.22638   -49.147623      240.239   -54536.763    246.76628 
   11250    64.988561    64.988561    64.988561   0.92007872    37.187587    240.23937     27.15017    240.18343    -61.57752    240.29095   -54533.341    245.89191 
   11300    64.989519    64.989519    64.989519   -2.7644211    38.384863    240.21247    13.273778      240.202   -59.951904    240.24197   -54532.188    246.08206 
   11350    64.990476    64.990476    64.990476    -41.42969   0.78071385    240.17581   -79.974049    240.15868   -45.095734      240.179   -54531.696    246.58568 
   11400    64.989317    64.989317    64.989317    17.859973   0.31705247    240.20347    72.940344    240.20451   -19.677476    240.21211    -54531.55    247.24941 
   11450    64.988663    64.988663    64.988663    77.058992    3.3363355    240.23455    51.023486    240.24156    176.81715    240.23702   -54526.938    245.80222 
   11500    64.990973    64.990973    64.990973   -66.176701   -37.080124    240.15093   -24.077929    240.17946   -137.37205    240.21022   -54532.693    249.24502 
   11550    64.991348    64.991348    64.991348     38.27498    -29.22673    240.20349    47.630922    240.18699    96.420747    240.22517   -54523.445     245.6005 
   11600    64.992424    64.992424    64.992424   -60.605003   -9.3494211    240.14382   -46.603818    240.14035   -125.86177    240.12631   -54531.507    250.13245 
   11650    64.990945    64.990945    64.990945    75.478384    136.49148    240.21061    64.770155    240.19271    25.173514    240.21232   -54523.209    246.93655 
   11700    64.991579    64.991579    64.991579    -56.73892   -76.894686    240.17127   -14.117386    240.16093   -79.204688    240.15565   -54528.913    250.35039 
   11750    64.991141    64.991141    64.991141    90.001387    84.196661    240.20523    60.618181    240.21076    125.18932    240.23474   -54522.336    247.95994 
   11800    64.993062    64.993062    64.993062    -57.16093   -86.173468    240.14705    1.5196547    240.16095   -86.828978    240.16396   -54523.312    249.13309 
   11850    64.992282    64.992282    64.992282   -6.4051942    37.997356    240.15923   -39.256087    240.16037   -17.956852     240.1657   -54524.953    250.62454 
   11900     64.99049     64.99049     64.99049    113.86902    164.97168    240.24269    157.80959    240.24981    18.825784    240.22463   -54520.135    249.05591 
   11950    64.993815    64.993815    64.993815   -38.693103    23.610862    240.11854   -29.998811    240.10391   -109.69136    240.12516   -54525.197    252.15287 
   12000    64.996279    64.996279    64.996279   -105.67284   -73.673109    240.04469    -70.38373    240.07014   -172.96168    240.06143   -54523.036     251.8378 
   12050      64.9938      64.9938      64.9938   -15.384944   -14.347939    240.15406   -16.477556     240.1386   -15.329337    240.17146   -54521.514    251.82233 
   12100    64.992187    64.992187    64.992187    87.259225    154.53453    240.18783    127.87434    240.18058   -20.631194    240.17891   -54519.814    251.71878 
   12150     64.99532     64.99532     64.99532   -29.226165   -63.511866    240.10161    33.361385    240.09728   -57.528014    240.10335   -54520.847     252.9091 
   12200    64.997238    64.997238    64.997238   -107.13491   -47.785506    240.04711   -141.26296    240.03227   -132.35626    240.04765   -54518.816      252.645 
   12250    64.994406    64.994406    64.994406    21.763478    31.438239    240.11181    60.500877     240.1015   -26.648683     240.1261   -54520.074     253.9338 
   12300    64.993308    64.993308    64.993308    44.872048    67.109629    240.17071    83.098465    240.14357    -15.59195    240.14495   -54518.065    253.67531 
   12350    64.996035    64.996035    64.996035     17.94731    42.039793    240.12501    103.86669    240.13239   -92.064551    240.09723   -54514.093    252.48595 
   12400     64.99859     64.99859     64.99859   -96.427861    -60.75979    240.02735   -54.764982    240.01736   -173.75881    240.00867   -54518.575    255.29035 
   12450    64.996965    64.996965    64.996965   -35.367795   -15.157564    240.06299    -20.06903    240.02543   -70.876791    240.09119   -54515.814    254.66939 
   12500     64.99502     64.99502     64.99502    46.527335    100.69795    240.15062   -7.8554605    240.13363    46.739519    240.11721   -54515.351    255.13318 
   12550     64.99663     64.99663     64.99663    10.488067   -9.6800399    240.06479    68.052841    240.05332   -26.908599    240.09874   -54512.474    254.45546 
   12600    64.998752    64.998752    64.998752   -21.346799    70.919178    240.01433   -76.857179    240.01176   -58.102396    240.03465   -54513.127    255.44341 
   12650     64.99881     64.99881     64.99881    -47.97853   -67.125829    240.02929   -32.988068    240.03744   -43.821693    240.02202   -54510.326    254.79481 
   12700    64.996559    64.996559    64.996559     17.99128    23.333446    240.12318   -11.057725    240.09399    41.698119    240.10677   -54511.652    256.09193 
   12750    64.996803    64.996803    64.996803    71.864473    136.99288    240.06812    50.966505    240.07392    27.634031    240.07927   -54511.964    256.90743 
   12800    65.000501    65.000501    65.000501   -84.067739    3.2954419    239.95517   -125.78042    239.99001   -129.71824    239.97795   -54511.625    257.41836 
   12850    65.000385    65.000385    65.000385   -103.79042   -76.363219     239.9878   -84.208979    240.01544   -150.79907    239.98715   -54509.999    257.31219 
   12900    64.997288    64.997288    64.997288    102.89599    149.97672    240.05007    80.143802    240.08577    78.567438      240.082   -54508.286    257.16696 
   12950    64.998857    64.998857    64.998857    8.1198202    33.073775    240.06314    10.227067    240.02466   -18.941381    240.05808   -54509.863    258.57239 
   13000    65.001336    65.001336    65.001336     4.148757    50.896081    239.98749   -11.761826     239.9926   -26.687984    240.02733   -54499.798     254.4752 
   13050    65.001213    65.001213    65.001213   -67.543318   -63.408973    239.96219   -68.435593    239.96902    -70.78539    239.97814   -54512.052    260.91953 
   13100    64.999437    64.999437    64.999437    63.374919    18.860217    240.05466    141.22191    240.05361    30.042625    240.07637   -54502.337    256.98134 
   13150    65.001316    65.001316    65.001316    3.0805994    87.551328     239.9456   -47.383658    239.98423   -30.925872    239.99863   -54506.677    259.68345 
   13200    65.003166    65.003166    65.003166   -68.636709   -96.357817    239.94538    -16.01032    239.91552    -93.54199    239.93155   -54504.828    259.45868 
   13250    65.001479    65.001479    65.001479    32.653645    37.521556    239.99996   -16.549132     239.9627    76.988512    239.98409   -54501.264    258.42198 
   13300    65.000468    65.000468    65.000468    76.767082    116.47616    239.99371    106.00672    239.99568    7.8183692     240.0364   -54500.986    258.93216 
   13350    65.002986    65.002986    65.002986   -21.808471   -54.704772    239.96458    15.346278    239.95727    -26.06692    239.94278   -54502.687    260.37581 
   13400     65.00484     65.00484     65.00484   -92.323788   -39.295602    239.90766   -196.96892    239.92835   -40.706841    239.89098   -54502.463    260.90699 
   13450    65.003178    65.003178    65.003178    1.2517954     -52.6411    239.97214    125.13733    239.91811   -68.740845    239.95826   -54500.886    260.79843 
   13500    65.000974    65.000974    65.000974    50.716371    148.11696    240.00323   -137.30827    240.01878    141.34043    239.98775    -54501.01     261.4921 
   13550    65.002346    65.002346    65.002346    2.1239661   -47.708913    239.97118    101.42617    239.97167   -47.345358    239.97933   -54500.878    262.05624 
   13600    65.004985    65.004985    65.004985   -20.253338   -22.755128    239.90075   -63.920124    239.90778    25.915238    239.92873   -54496.681    260.70149 
   13650    65.005226    65.005226    65.005226   -87.526899    16.806257    239.88767   -146.15456    239.90323   -133.23239    239.90485   -54501.464    263.58346 
   13700    65.002632    65.002632    65.002632    100.30422    50.569336    239.97399    141.16147    239.95915    109.18186    239.99851    -54494.08     260.7215 
   13750    65.003402    65.003402    65.003402    53.458132    80.512855      239.938    38.585107    239.94919    41.276434    239.93062   -54497.219    262.82535 
   13800    65.006493    65.006493    65.006493   -76.420954   -104.70327    239.85578   -42.275807    239.85905   -82.283784    239.87869   -54496.528    263.11273 
   13850    65.006436    65.006436    65.006436   -32.329149   -53.062222    239.87829   -39.602029    239.87706   -4.3231964    239.86805   -54494.241    262.64509 
   13900    65.004981    65.004981    65.004981   -53.916576    1.3022331    239.92235     -67.4361    239.89271   -95.615861    239.90992   -54499.937    265.94582 
   13950    65.004154    65.004154    65.004154    77.906495    80.087439     239.9332     65.18167      239.944    88.450376    239.96002   -54493.826    263.67168 
   14000    65.007407    65.007407    65.007407   -54.849822    60.869217    239.84426    -75.98163    239.86988   -149.43705    239.83809   -54493.804    264.26642 
   14050    65.008317    65.008317    65.008317   -82.389115   -137.87714    239.81319   -10.521322    239.82579   -98.768883    239.85088   -54495.404    265.62948 
   14100    65.005065    65.005065    65.005065    95.948196    170.79844     239.9251   -9.6166365    239.95452    126.66278    239.95304   -54486.898    262.21159 
   14150    65.005911    65.005911    65.005911    22.082133    11.546444    239.89698    75.970525    239.90674   -21.270569    239.93728   -54491.383    264.92977 
   14200    65.007937    65.007937    65.007937    -58.42636   -48.734901    239.81634   -53.355011    239.83601   -73.189167    239.84095    -54493.35    266.45756 
   14250    65.007679    65.007679    65.007679   -16.233876    41.610205    239.85981   -20.009525    239.84847   -70.302309    239.85185   -54491.672     266.2579 
   14300    65.006925    65.006925    65.006925   -10.505199   -65.579534    239.85138    40.409526    239.86181    -6.345588    239.89205   -54490.655    266.36794 
   14350     65.00673     65.00673     65.00673    49.075549    142.86479    239.90502   -19.692486    239.90915    24.054345    239.86804   -54488.047    265.72215 
   14400    65.007994    65.007994    65.007994    16.710179   -15.138417    239.86524    68.778712    239.83597   -3.5097587    239.89737   -54484.438    264.60465 
   14450     65.00909     65.00909     65.00909    -43.69426    59.878317    239.81338   -64.010641    239.83711   -126.95046    239.86329   -54488.473     267.0934 
   14500    65.007568    65.007568    65.007568   -10.921023    2.7990137    239.84248    -23.74924    239.87822   -11.812844    239.89873   -54488.713    267.78771 
   14550     65.00719     65.00719     65.00719    3.3504138    35.229775    239.85184   -52.289683    239.85605    27.111149    239.85736   -54493.302    270.53229 
   14600    65.009272    65.009272    65.009272   -15.108985    15.452593    239.80979    22.641124    239.82812   -83.420671    239.81443   -54486.244    267.77634 
   14650    65.010254    65.010254    65.010254   -91.752327   -112.91136    239.78724   -12.490619    239.81798     -149.855     239.8195   -54489.729    269.99201 
   14700    65.008623    65.008623    65.008623    85.935015    103.89113    239.86376    114.02415     239.8523    39.889762    239.84166   -54482.595    267.18902 
   14750    65.010609    65.010609    65.010609   -10.552316   -25.817004     239.8033   -7.4034931    239.77853    1.5635486    239.80392   -54484.105    268.46838 
   14800    65.011172    65.011172    65.011172   -47.559096   -54.341083     239.8178   -36.163334    239.80694   -52.172872    239.82511   -54480.067    267.12621 
   14850    65.009108    65.009108    65.009108    54.944294    89.664882    239.87423    58.201578    239.85295    16.966422    239.86171   -54481.505    268.36541 
   14900    65.009679    65.009679    65.009679    26.792246    3.1491432    239.79906    3.1822088    239.81677    74.045387    239.80794   -54484.666    270.42309 
   14950    65.011485    65.011485    65.011485     -1.65824    22.471889    239.77868   -38.017178    239.83982    10.570569    239.79412   -54482.398    269.90664 
   15000    65.013386    65.013386    65.013386   -138.37133    -245.5056    239.73032   -95.591916    239.76756   -74.016473    239.74239   -54483.589    271.02236 
   15050    65.010453    65.010453    65.010453    45.442243    69.425153    239.78636   -22.447442    239.81863    89.349019    239.82601   -54479.846    269.80891 
   15100    65.008626    65.008626    65.008626    171.93128     184.4324    239.87291    223.31028    239.84707    108.05117    239.88897   -54474.735    267.94472 
   15150    65.012947    65.012947    65.012947   -62.118027    31.027039    239.76179   -110.53104     239.7662   -106.85008    239.74151   -54480.106    271.02554 
   15200     65.01491     65.01491     65.01491   -66.311121   -84.115941    239.69747   -60.521713    239.71393   -54.295709    239.67259   -54480.086    271.55623 
   15250    65.013048    65.013048    65.013048   -58.251712   -25.907238    239.74318    -153.8837     239.7803    5.0358001    239.76827   -54480.336    272.21323 
   15300     65.01022     65.01022     65.01022    107.10497      37.3931    239.84492    172.90603     239.8595     111.0158    239.83953   -54476.409    270.89648 
   15350    65.013048    65.013048    65.013048    6.9630288    22.901903    239.75862    75.518397    239.79031   -77.531213    239.74729   -54475.588    271.04423 
   15400    65.015961    65.015961    65.015961   -120.74608   -133.19286    239.67777     -44.9016    239.68002   -184.14377    239.66785   -54478.254    272.83791 
   15450    65.012506    65.012506    65.012506    62.279189    110.93293    239.77218    79.757232    239.78718   -3.8525983    239.78615   -54473.458    271.10258 
   15500    65.011012    65.011012    65.011012    32.563301    51.581586    239.80565    55.233134    239.81034    -9.124819    239.80557   -54478.992    274.24166 
   15550    65.012798    65.012798    65.012798    38.679001    28.254017     239.7937   -31.997597    239.77258    119.78058    239.76164   -54472.023    271.47045 
   15600    65.015475    65.015475    65.015475   -113.00022   -43.503041    239.67961   -86.961572    239.71072   -208.53606    239.70395   -54479.229    275.39123 
   15650    65.013988    65.013988    65.013988    33.516209   -38.392273    239.77202    126.62597    239.79595    12.314932    239.76564   -54470.365    271.72068 
   15700    65.013892    65.013892    65.013892   -12.483284    11.545993    239.76786   -3.2541272    239.76271   -45.741718    239.73463   -54475.236    274.53773 
   15750    65.014695    65.014695    65.014695   -6.2480269   -50.028596    239.70472      86.6567    239.72281   -55.372184    239.68512   -54475.806    275.32212 
   15800    65.015646    65.015646    65.015646   -2.5484339    22.841249    239.73616   -24.440238    239.73159    -6.046313    239.72876   -54467.724    272.01642 
   15850    65.015739    65.015739    65.015739    1.7944996    -18.91172    239.71827    72.310908    239.67111   -48.015689    239.72053   -54470.857    274.00323 
   15900    65.015554    65.015554    65.015554   -22.324492    42.314653    239.69837   -46.172967    239.72437   -63.115161    239.68886   -54473.953    275.97205 
   15950    65.015689    65.015689    65.015689    6.6346471   -59.165953    239.71089    86.173101    239.71738   -7.1032074    239.68844   -54472.437    275.75768 
   16000    65.017294    65.017294    65.017294   -56.727692    7.0934448    239.64186      33.9819    239.67552   -211.25842    239.68909   -54473.437    276.72743 
   16050    65.017123    65.017123    65.017123   -5.0597154   -79.497209    239.71322    97.820092    239.67979   -33.502029    239.66174   -54467.162    274.26088 
   16100    65.015248    65.015248    65.015248    41.651353     4.521986    239.72384     90.75755    239.75847    29.674523    239.73393   -54468.167    275.22757 
   16150      65.0158      65.0158      65.0158     70.35859    117.00293    239.71262    52.631225    239.73384    41.441612    239.72855   -54469.126    276.16838 
   16200    65.019601    65.019601    65.019601   -52.930759   -85.384887    239.64779    80.048282    239.61878   -153.45567     239.6264   -54463.959    274.21704 
   16250    65.019243    65.019243    65.019243   -36.847298    89.317408    239.62283   -141.29634    239.64541   -58.562959    239.63092   -54466.691    275.99277 
   16300    65.015942    65.015942    65.015942    37.740344    59.871175    239.71978    118.66012     239.7232    -65.31026    239.73826   -54468.963     277.5491 
   16350    65.015859    65.015859    65.015859    25.590161    19.363696    239.67359    48.932505    239.72706    8.4742814    239.71994   -54470.586    278.79459 
   16400    65.019289    65.019289    65.019289   -36.130788   -30.778719     239.6377   -22.302117    239.63803   -55.311528     239.6332   -54465.101    276.68149 
   16450    65.019655    65.019655    65.019655   -51.876899    21.975224    239.59627   -37.736349     239.6385   -139.86957    239.62259   -54464.084    276.67642 
   16500    65.016357    65.016357    65.016357    53.143815   -32.704092    239.72196    112.16924    239.72314    79.966299    239.70813   -54465.108    277.62941 
   16550    65.016166    65.016166    65.016166    53.266236    92.772185    239.68744     125.1644     239.7489   -58.137875    239.71209   -54465.601     278.3304 
   16600    65.019552    65.019552    65.019552   -43.767156    -83.60245    239.61308   -39.139157    239.66177   -8.5598615    239.63393   -54464.971    278.49631 
   16650    65.021155    65.021155    65.021155    -105.7246   -102.60175    239.59541   -121.21079    239.58846    -93.36126    239.55474   -54465.836     279.3687 
   16700    65.018198    65.018198    65.018198    1.1595646    32.816794    239.66064   0.81236229    239.70696   -30.150462    239.66647   -54463.255     278.6116 
   16750    65.016691    65.016691    65.016691    114.15962    128.41353    239.72249    201.63827    239.74224     12.42704    239.73927   -54460.817    277.91766 
   16800    65.020568    65.020568    65.020568   -27.240336   -30.322576    239.60073   -32.303891    239.61061    -19.09454    239.61114   -54460.945    278.43255 
   16850    65.021841    65.021841    65.021841   -64.657536    3.4651342    239.56398   -154.27829    239.60209   -43.159447    239.55422   -54459.184    278.05516 
   16900    65.018923    65.018923    65.018923    31.536944    28.778775    239.64852    80.439998    239.64319   -14.607942    239.64505   -54462.847    280.23138 
   16950    65.018714    65.018714    65.018714    15.449823    41.991716     239.6497    66.823474    239.68083    -62.46572    239.67238   -54464.573    281.49096 
   17000    65.021634    65.021634    65.021634   -63.182172   -96.269591    239.57237   -45.908221     239.6092   -47.368703    239.60075   -54460.865    280.18194 
   17050    65.022022    65.022022    65.022022   -16.494168     25.14977    239.56924   -37.266088    239.62506   -37.366184    239.56513   -54457.345     278.9623 
   17100    65.020008    65.020008    65.020008    56.617963    28.223817    239.66014     90.17647    239.64506    51.453603    239.63462   -54456.888    279.18476 
   17150    65.020185    65.020185    65.020185    28.324724    6.0551605    239.60368    42.956623    239.64894    35.962388    239.64912   -54458.833    280.54062 
   17200    65.021797    65.021797    65.021797    8.6741434   -20.626293    239.56478    68.754095    239.58084   -22.105372    239.59144   -54459.035    281.06904 
   17250    65.023447    65.023447    65.023447   -71.032762   -119.17381    239.57384   -83.733662    239.56948   -10.190813    239.56698   -54455.991    280.06118 
   17300    65.021845    65.021845    65.021845   -5.6163435    54.636653     239.5646    7.3550402     239.5932   -78.840723    239.60405   -54456.984    280.96098 
   17350     65.02034     65.02034     65.02034    88.800759    32.341657    239.60716     115.5278    239.62708    118.53282    239.61128   -54458.764    282.22728 
   17400    65.023046    65.023046    65.023046   -5.7676901      48.9984     239.5445   -23.567438     239.5975   -42.734032    239.58236   -54455.673    281.18768 
   17450    65.024608    65.024608    65.024608   -41.019949   -83.642371    239.52684   -29.417055    239.55206   -10.000421    239.50711    -54453.27     280.4691 
   17500     65.02279     65.02279     65.02279   -52.294393    -33.37452     239.5515    -29.87695    239.58155   -93.631709    239.56993   -54458.585    283.39456 
   17550    65.020522    65.020522    65.020522    74.425778    45.614875    239.65496    138.54904    239.62965    39.113422    239.61264   -54455.654    282.42222 
   17600    65.023053    65.023053    65.023053   -3.0265697     14.29652     239.5733    41.061451    239.54738    -64.43768    239.54293   -54455.987    282.99059 
   17650    65.026162    65.026162    65.026162   -61.866777    41.605945     239.4713   -121.00946    239.49574   -106.19681    239.50432       -54455    282.93211 
   17700    65.025161    65.025161    65.025161   -70.109818    -100.8315    239.49937   -34.257856    239.54058   -75.240099    239.53178   -54454.496    283.09927 
   17750    65.020543    65.020543    65.020543    140.04881    88.171814    239.64038    192.11292    239.64486    139.86169    239.64103   -54448.636    280.73391 
   17800    65.022824    65.022824    65.022824    80.183471    156.23188    239.57073    166.11584    239.59145   -81.797306    239.57228   -54453.477    283.42088 
   17850    65.028151    65.028151    65.028151   -132.35297   -109.85814    239.44442   -77.842986    239.44017    -209.3578    239.46875   -54453.098    283.64068 
   17900    65.026241    65.026241    65.026241   -87.127413   -77.685703    239.48655   -75.027213    239.50261   -108.66932    239.49292   -54452.402    283.70515 
   17950    65.021543    65.021543    65.021543    116.01116    71.111783    239.59102    151.36528    239.63702     125.5564    239.61389   -54452.462    284.12895 
   18000     65.02299     65.02299     65.02299     61.98417    23.133061    239.56489    115.84368    239.58422     46.97577    239.55858   -54451.506    284.06771 
   18050    65.027859    65.027859    65.027859   -73.919943   -95.352754     239.4463   -44.458946    239.45992   -81.948129    239.47104   -54449.265    283.39432 
   18100    65.028024    65.028024    65.028024   -60.713176   -62.679673    239.46043   -31.397564    239.46765   -88.062291      239.484   -54444.525     281.5406 
   18150    65.023369    65.023369    65.023369    67.603995   -53.219272    239.53343    256.16721    239.56672  -0.13594975    239.55964   -54452.287    285.59055 
   18200    65.022215    65.022215    65.022215    145.00628    159.89843    239.57851    157.81947    239.61723    117.30094    239.62928   -54446.432    283.20416 
   18250    65.027645    65.027645    65.027645   -88.022508   -265.08929     239.4619    31.333697    239.47552   -30.311926    239.43901   -54450.144    285.33106 
   18300    65.028954    65.028954    65.028954   -129.76512   -121.10681    239.36558   -121.47279    239.39313   -146.71577    239.42603   -54448.977    285.15448 
   18350    65.023541    65.023541    65.023541    85.758803    15.691078    239.57579    58.763115    239.56828    182.82222    239.57123   -54448.687    285.38657 
   18400    65.022745    65.022745    65.022745    181.56379    144.12631    239.58178    234.62391    239.62501    165.94114    239.60498   -54444.088    283.57938 
   18450    65.029073    65.029073    65.029073   -81.587504   -131.97725    239.43091    36.422431    239.42791   -149.20769    239.43371    -54444.45    284.11711 
   18500    65.029373    65.029373    65.029373   -121.52831   -203.59236    239.40373    -110.4694    239.46276   -50.523158    239.41367   -54446.534    285.46264 
   18550    65.023478    65.023478    65.023478    101.28445    118.48629    239.54787    124.35305    239.56613    61.014014    239.58496   -54449.156    287.06003 
   18600    65.024011    65.024011    65.024011    90.475821    66.870527    239.57663     100.7094    239.58651    103.84754     239.5742   -54445.476    285.67684 
   18650    65.029994    65.029994    65.029994   -122.35738   -95.539394     239.3932   -113.32187    239.40851   -158.21088    239.38676   -54448.672    287.54479 
   18700    65.029167    65.029167    65.029167    -85.41387   -93.563021    239.40199   -52.934396    239.44578   -109.74419    239.44108   -54444.862    286.09575 
   18750    65.023966    65.023966    65.023966    211.58184    121.20112    239.55551    312.12171    239.58222     201.4227    239.56999   -54438.842    283.60127 
   18800    65.026896    65.026896    65.026896   -39.678954   -53.846292    239.46597    33.453014    239.47449   -98.643583    239.49274   -54447.042    287.82196 
   18850    65.029186    65.029186    65.029186   -38.880516   -63.744145    239.46819   -18.875494    239.48745   -34.021909    239.47289   -54438.872    284.30767 
   18900    65.028073    65.028073    65.028073   -42.708723   -7.7674894    239.48488   -1.8684282    239.44125   -118.49025    239.44383   -54446.462    288.23498 
   18950    65.025881    65.025881    65.025881    42.657124    31.453817    239.50398    66.095816    239.51429     30.42174     239.5077   -54443.985    287.40804 
   19000    65.026351    65.026351    65.026351    83.683138    16.639203    239.51932    92.973784    239.51779    141.43643    239.50151   -54441.231    286.44507 
   19050    65.028881    65.028881    65.028881   -51.658857     10.40396    239.42447    50.251398    239.45451   -215.63193    239.47857   -54441.376    286.84831 
   19100    65.028311    65.028311    65.028311    41.221913    16.043851    239.47477   -29.622398    239.45968    137.24429    239.43346    -54441.02    287.00999 
   19150    65.027852    65.027852    65.027852   -8.6468596    100.07615    239.48265    4.1784316    239.46716   -130.19516    239.48185   -54443.582    288.54827 
   19200    65.027285    65.027285    65.027285    55.459995    36.410795    239.50829    53.494068    239.51079    76.475122    239.45913   -54439.278    286.84083 
   19250    65.028375    65.028375    65.028375    -2.927201   -9.9555226    239.47405    80.756045    239.44744   -79.582126    239.42964    -54445.15    289.93614 
   19300    65.029471    65.029471    65.029471    -16.44996    56.504549    239.45626   -3.5225385      239.462   -102.33189    239.45056   -54437.931     286.8444 
   19350     65.02948     65.02948     65.02948   -34.867856   -66.860949    239.42091    1.8249377    239.40678   -39.567558    239.40245   -54443.179    289.63992 
   19400    65.028254    65.028254    65.028254    28.148038     33.28184    239.45942    121.78608    239.46916   -70.623808    239.44129   -54441.657    289.23683 
   19450    65.029249    65.029249    65.029249    38.340008    92.900866    239.43771    26.105635    239.47455   -3.9864758    239.45187   -54438.554    288.08217 
   19500    65.031395    65.031395    65.031395   -80.909258   -151.12453    239.41103    18.540277    239.37508   -110.14352    239.38134   -54439.463    288.82272 
   19550     65.02912     65.02912     65.02912     9.829913    83.488214    239.43203   -9.0043645    239.41491    -44.99411    239.45264   -54441.624    290.15212 
   19600    65.027718    65.027718    65.027718    120.10155    115.76796    239.51648    156.49847    239.51578    88.038219    239.48677   -54435.555    287.58845 
   19650    65.031458    65.031458    65.031458   -82.804021   -138.63132    239.38256   -9.5392413    239.41931    -100.2415    239.39185   -54438.788    289.41881 
   19700    65.031794    65.031794    65.031794   -95.656151   -79.384203    239.37305   -76.881766      239.338   -130.70248    239.38837   -54441.463    290.98717 
   19750    65.028369    65.028369    65.028369    67.007249   -18.059074    239.46955     68.70037    239.46037    150.38045    239.45068   -54438.834    290.04609 
   19800     65.02825     65.02825     65.02825    134.21789    250.86213    239.46185    120.95984    239.48547    30.831709    239.48817   -54434.825    288.44911 
   19850    65.032979    65.032979    65.032979   -53.263187   -75.152009    239.39596    91.907256    239.36195   -176.54481    239.35459   -54434.001    288.35251 
   19900    65.032792    65.032792    65.032792    -81.09111   -30.758059    239.35299   -115.11879    239.37007   -97.396482    239.32869   -54438.097    290.57874 
   19950    65.027695    65.027695    65.027695    117.31052    98.222593    239.48919    180.01347     239.4805    73.695498     239.5181   -54434.714    289.27026 
   20000    65.029204    65.029204    65.029204    58.503433    89.028838    239.46032    36.466642    239.41306    50.014821    239.43248   -54439.173    291.66205 
Loop time of 4541.57 on 4 procs for 20000 steps with 16384 atoms

Pair  time (%) = 4183.26 (92.1105)
Neigh time (%) = 0 (0)
Comm  time (%) = 246.695 (5.43194)
Outpt time (%) = 0.203461 (0.00447997)
Other time (%) = 111.408 (2.45307)

Nlocal:    4096 ave 4096 max 4096 min
Histogram: 4 0 0 0 0 0 0 0 0 0
Nghost:    8717 ave 8717 max 8717 min
Histogram: 4 0 0 0 0 0 0 0 0 0
Neighs:    286720 ave 292352 max 281088 min
Histogram: 2 0 0 0 0 0 0 0 0 2
FullNghs:  0 ave 0 max 0 min
Histogram: 4 0 0 0 0 0 0 0 0 0

Total # of neighbors = 1146880
Ave neighs/atom = 70
Neighbor list builds = 0
Dangerous builds = 0
# run 	200000

# Use this if debug
# run 	1000
# run 200
unfix 1

# Store final cell length for strain calculations
variable tmp equal "lx"
variable L0 equal ${tmp}
variable L0 equal 65.0292040293441
print "Initial Length, L0: ${L0}"
Initial Length, L0: 65.0292040293441

######################################
# DEFORMATION
reset_timestep	0
set atom * xrad 0 yrad 0 zrad 0 vxrad 0 vyrad 0 vzrad 0
  16384 settings made for xrad
  16384 settings made for yrad
  16384 settings made for zrad
  16384 settings made for vxrad
  16384 settings made for vyrad
  16384 settings made for vzrad
fix		1 all npt temp 300 300 1 y 0 0 1 z 0 0 1 drag 1

variable srate equal 1.0e10
# variable srate equal 1.0e9 # tiny time step

variable srate1 equal "v_srate / 1.0e12"
fix		2 all deform 1 x erate ${srate1} units box remap x
fix		2 all deform 1 x erate 0.01 units box remap x

# Output strain and stress info to file
# for units metal, pressure is in [bars] = 100 [kPa] = 1/10000 [GPa]
# p2, p3, p4 are in GPa
variable strain equal "(lx - v_L0)/v_L0"
variable p1 equal "v_strain"
variable p2 equal "-pxx/10000"
variable p3 equal "-pyy/10000"
variable p4 equal "-pzz/10000"

# fix def1 all print 100 "${p1} ${p2} ${p3} ${p4}" file Al99.eam_rad.alloy.def1.txt screen no
# IMPLEMENTATION HERE
variable p5 equal "-pxxrad/10000"

# VERSION add rad variables
variable p6 equal "-pyyrad/10000"
variable p7 equal "-pzzrad/10000"

# VERSION ublb coupled/decoupled scheme
# variable p6 equal "-pxxub/10000"
# variable p7 equal "-pxxlb/10000"

fix def1 all print 20 "${p1} ${p2} ${p3} ${p4} ${p5} ${p6} ${p7}" file Al99.eam_rad.alloy.def1.txt screen no

# Use cfg for AtomEye
# dump 		1 all cfg 250 dump.tensile_*.cfg mass type xs ys zs c_csym c_peratom fx fy fz
# dump_modify 1 element Al

# print output to a text file every n timesteps
# dump		2 all custom 50 dump.xyz_rvf_rad.tensile_*.txt mass type id x y z vx vy vz fx fy fz xrad yrad zrad vxrad vyrad vzrad fxrad fyrad fzrad # use for rad developement
# dump		2 all custom 50 dump.xyz_rvf_rad.tensile_*.txt mass type id x y z vx vy vz fx fy fz xrad yrad zrad vxrad vyrad vzrad fxrad fyrad fzrad xub yub zub vxub vyub vzub fxub fyub fzub xlb ylb zlb vxlb vylb vzlb fxlb fylb fzlb # use for ublb developement

# Display thermo
thermo 	50
# thermo 1
# thermo_style	custom step v_strain temp v_p2 v_p3 v_p4 ke pe press

# IMPLEMENTATION HERE
thermo_style	custom step v_strain temp v_p2 v_p3 v_p4 v_p5 v_p6 v_p7 ke pe press
run	20000
Memory usage per processor = 5.90862 Mbytes
Step strain Temp p2 p3 p4 p5 p6 p7 KinEng PotEng Press 
       0            0    291.66205 -0.0089028838 -0.0036466642 -0.0050014821 -0.023946032 -0.023941306 -0.023943248    617.64367   -54439.173    58.503433 
      50       0.0005    291.63353  0.039089639  0.013632449  0.032936288 -0.023916811 -0.023920828 -0.023920083    617.58328   -54438.855   -285.52792 
     100        0.001    290.30026  0.072713263  0.012380118  0.017318566  -0.02391075 -0.023922329          nan    614.75986   -54435.668   -341.37316 
     150       0.0015    291.42485  0.089428101 -0.022424274 -0.004813619 -0.023914263 -0.023927069 -0.023927024    617.14136    -54437.57   -207.30069 
     200        0.002    290.74457   0.10834932 0.0053879461 -0.015634771 -0.023903561 -0.023917867          nan    615.70075   -54435.542   -327.00832 
     250       0.0025     290.4986   0.16383608  0.011992693 4.6838343e-05  -0.02388662 -0.023901464 -0.023906049    615.17987   -54434.346   -586.25203 
     300        0.003    289.34835    0.1891214  0.012486457  0.007984165 -0.023873074 -0.023893789          nan    612.74402   -54431.151   -698.64007 
     350       0.0035    291.43776   0.22636221 0.0021018116 -0.0040730853 -0.023868726 -0.023893816 -0.023897244    617.16871   -54434.739    -747.9698 
     400        0.004    289.65682   0.24979058 -0.0098124585 -0.0089095852 -0.023861765 -0.023892617          nan    613.39725   -54430.043   -770.22845 
     450       0.0045    291.72314   0.28866541 -0.0063711314 0.0026746728 -0.023846887  -0.02388239 -0.023879936    617.77304   -54433.445   -949.89651 
     500        0.005    292.34391    0.3318371 0.0040886813   0.03106471 -0.023828992  -0.02386558          nan    619.08762   -54433.728   -1223.3017 
     550       0.0055    294.21166   0.35775038  0.014507858   0.01524457 -0.023824966 -0.023863472 -0.023865377    623.04289   -54436.609    -1291.676 
     600        0.006    289.88005   0.36769008 -0.013708684 -0.00012953215 -0.023827871 -0.023870166          nan    613.86998    -54426.32   -1179.5062 
     650       0.0065    294.54373   0.41206211 -0.0030559785 -0.014768714 -0.023814583 -0.023856882 -0.023862094     623.7461   -54435.041   -1314.1247 
     700        0.007    289.86122   0.45153952 0.0095339883 -0.0053971864 -0.023799512  -0.02384875          nan     613.8301   -54423.948   -1518.9211 
     750       0.0075    292.40199    0.4931569  0.021695156  0.017547819 -0.023781193 -0.023833099 -0.023835517    619.21062   -54428.123   -1774.6662 
     800        0.008    290.22525   0.51162883 0.0039405095 -0.010260843 -0.023778791 -0.023833565          nan    614.60099   -54422.289   -1684.3617 
     850       0.0085    291.07925   0.52842631 -0.0097171222 -0.0071000587 -0.023783316 -0.023834918 -0.023840965    616.40949   -54422.848   -1705.3638 
     900        0.009    291.66592     0.572513 -0.0070427116 -0.0022931067 -0.023772744 -0.023830958          nan    617.65185   -54422.831   -1877.2573 
     950       0.0095    292.22403   0.60456961 -0.00020114767   0.01110411  -0.02375246 -0.023812267 -0.023816245    618.83376   -54422.735   -2051.5752 
    1000         0.01    293.13572   0.65416354 -0.0016026163   0.02320911 -0.023743848  -0.02380712          nan    620.76442   -54423.376   -2252.5668 
    1050       0.0105    291.84075   0.65576224 0.0025683233 0.0036522525 -0.023741731 -0.023805193 -0.023812763    618.02209   -54419.336   -2206.6094 
    1100        0.011    294.31916   0.69423781 0.0031726848 -0.021004749 -0.023740046 -0.023810465          nan    623.27055   -54423.275   -2254.6858 
    1150       0.0115    292.59037   0.73637157 -0.0091413243 0.00042324118  -0.02372647 -0.023798791  -0.02380253    619.60954   -54418.282   -2425.5116 
    1200        0.012    291.78795   0.76108396  0.015905405 0.0085335404 -0.023706613 -0.023780749          nan    617.91028   -54415.233   -2618.4097 
    1250       0.0125     292.9478   0.81005185  0.017866505 0.0098017194 -0.023699796 -0.023775137  -0.02377991    620.36646   -54416.322   -2792.4002 
    1300        0.013    292.48153   0.82594928 -0.0060929594 -0.0048545596 -0.023701599 -0.023778618          nan    619.37906   -54413.932   -2716.6725 
    1350       0.0135    295.17579   0.85286263 0.0017445942 -0.0090341867 -0.023694925  -0.02377319 -0.023781375    625.08461   -54418.216   -2818.5768 
    1400        0.014    290.53936   0.89167291 -0.014476217 -0.0069443721 -0.023687515 -0.023771587          nan    615.26618   -54406.971   -2900.8411 
    1450       0.0145    292.75065   0.92671553  0.013393384   0.02562936 -0.023667571 -0.023752803 -0.023752931    619.94897   -54410.202   -3219.1276 
    1500        0.015    295.11574   0.96989265 0.00048279987  0.023647495 -0.023662546 -0.023744791          nan    624.95743   -54413.727   -3313.4098 
    1550       0.0155    293.76374   0.97325795 -0.0038135042 -0.0070834882 -0.023668085 -0.023754259 -0.023755388    622.09436    -54409.37   -3207.8699 
    1600        0.016    294.51056    1.0075178 -0.0034970989 -0.014774608 -0.023662882 -0.023750432          nan    623.67587   -54409.435   -3297.4871 
    1650       0.0165    292.00812      1.04963 0.0043973862 -0.015550221 -0.023644896 -0.023733742 -0.023738352    618.37653   -54402.592   -3461.5905 
    1700        0.017    293.66816    1.1042522  0.021356514  0.012708469 -0.023625869 -0.023716891          nan    621.89194   -54404.537   -3794.3908 
    1750       0.0175    295.88821    1.1298066  0.023811223  0.017676739 -0.023620431  -0.02371249 -0.023716046    626.59328   -54407.653   -3904.3153 
    1800        0.018    292.39151    1.1296307 -0.027610703  -0.01117653  -0.02363194 -0.023728847          nan    619.18843   -54398.622   -3636.1448 
    1850       0.0185    295.10244    1.1739436 -0.014411121 -0.0043922516 -0.023624702 -0.023724619 -0.023723751    624.92927   -54402.728   -3850.4673 
    1900        0.019    295.40761     1.219937 -0.00089515971 0.0049399382 -0.023605968 -0.023702841          nan    625.57553   -54401.713   -4079.9394 
    1950       0.0195    296.05485    1.2531964  0.031737195  0.029788203 -0.023589739 -0.023689073 -0.023689817    626.94616   -54401.403   -4382.4061 
    2000         0.02    292.29967    1.2707487 -0.0058944393 0.0089658481  -0.02359475 -0.023693777          nan    618.99393   -54391.752    -4246.067 
    2050       0.0205    294.86035    1.3004202 -0.007174535 -0.021437563  -0.02359584 -0.023700056 -0.023701941    624.41661   -54395.438   -4239.3604 
    2100        0.021    293.44196    1.3345252 -0.0049605906 -0.011609398  -0.02358437 -0.023688181          nan    621.41292   -54390.667    -4393.184 
    2150       0.0215    295.22509    1.3737005  0.014504862   0.01637316 -0.023567654 -0.023673908 -0.023676517    625.18902   -54392.663   -4681.9283 
    2200        0.022    292.96239    1.4085809 0.0074934937 -0.00075408847 -0.023560273 -0.023666095          nan    620.39736   -54386.063   -4717.7343 
    2250       0.0225    294.40959    1.4376992 -0.0011467685 0.0083742443 -0.023559529 -0.023667542 -0.023668228    623.46205   -54387.287   -4816.4224 
    2300        0.023    293.07038    1.4550911 -0.0027791209 -0.024742373 -0.023559617 -0.023669752          nan    620.62605   -54382.596   -4758.5653 
    2350       0.0235    295.85534    1.5006025 -0.0028203207  0.010589191 -0.023545834 -0.023655457  -0.02365907    626.52367   -54386.614   -5027.9045 
    2400        0.024    295.11232    1.5295571 0.0059744581 0.0089916986 -0.023535342 -0.023643256          nan     624.9502   -54383.137   -5148.4107 
    2450       0.0245    292.74008    1.5547426 0.00016947644  0.012676118 -0.023530464 -0.023645489 -0.023645331    619.92657   -54376.189    -5225.294 
    2500        0.025    295.67897     1.587317 -0.0097979755 -0.0080624517 -0.023528479 -0.023643453          nan    626.15018    -54380.47   -5231.5219 
    2550       0.0255    297.38522    1.6332437 0.0032504987 0.00099288502 -0.023520372 -0.023635681 -0.023637818    629.76345   -54382.105   -5458.2904 
    2600        0.026    294.01209     1.655255 0.0016228928 0.0024881542 -0.023511138 -0.023627466          nan    622.62029   -54372.967     -5531.22 
    2650       0.0265    294.67979    1.6938126  0.010332482 0.0082859664 -0.023500806 -0.023618407  -0.02362197    624.03423   -54372.365   -5708.1034 
[...]
   13800        0.138    291.04478    7.7100765  0.025116864  0.020491933 -0.021646738 -0.022119509          nan     616.3365   -53360.812   -25852.284 
   13850       0.1385    291.51861    7.7382622  0.011682168  0.025944087 -0.021641311 -0.022120841 -0.022115889     617.3399   -53355.004   -25919.628 
   13900        0.139    290.29483    7.7460818 -0.023024333  -0.01759794 -0.021644606 -0.022129756          nan    614.74834   -53345.566   -25684.865 
   13950       0.1395    291.97503    7.7858493 -0.025838676 0.0052134879 -0.021630986    -0.022119 -0.022113608    618.30647   -53342.249    -25884.08 
   14000         0.14    291.32814    7.8244783  0.019659344  0.015252095 -0.021605158 -0.022092832          nan    616.93655   -53333.989   -26197.966 
   14050       0.1405    292.00872    7.8645431  0.015198608  0.029408772  -0.02159173 -0.022084105 -0.022079452    618.37779   -53328.493   -26363.835 
   14100        0.141    289.43427    7.8265102 -0.013088092 -0.016648748  -0.02159686 -0.022087715          nan    612.92597   -53316.123   -25989.245 
   14150       0.1415    289.16031    7.8212713 -0.026198965 -0.032965605  -0.02158766 -0.022080161 -0.022082674     612.3458   -53308.634   -25873.689 
   14200        0.142    289.88201    7.8584449  0.022851299  0.019017101 -0.021554292 -0.022044051          nan    613.87413   -53303.226   -26334.378 
   14250       0.1425    291.53787    7.9204572  0.032809204  0.033112633 -0.021538341 -0.022035175 -0.022036029     617.3807   -53299.759   -26621.263 
   14300        0.143    290.38301    7.8930614 -0.0015763817 -0.020272017 -0.021547787 -0.022043508          nan    614.93509    -53290.33   -26237.377 
   14350       0.1435    289.45291    7.9110067 -0.032753643 -0.026507029 -0.021542397  -0.02204652 -0.022045176    612.96545   -53281.372   -26172.487 
   14400        0.144    290.65541    7.9386583   0.01872612 0.0086795685 -0.021516299 -0.022012475          nan    615.51193   -53276.903   -26553.547 
   14450       0.1445    289.27663    7.9438435  0.020359268   0.02783822 -0.021494808 -0.021990992  -0.02199481    612.59214   -53266.958   -26640.137 
   14500        0.145    288.24473    7.9253352 -0.0019551395 -0.005332819 -0.021492519 -0.021990613          nan    610.40691   -53257.767   -26393.491 
   14550       0.1455     288.1228     7.937292 -0.0071436632 -0.023712615 -0.021488312 -0.021990156 -0.021991351    610.14871   -53250.482   -26354.786 
   14600        0.146    289.73322    7.9963718 -0.008315551  0.011616432 -0.021467624 -0.021976925          nan    613.55905   -53246.832   -26665.575 
   14650       0.1465    288.35812    8.0219524  0.018720144 -0.0023470001  -0.02145016 -0.021961132 -0.021959484    610.64703   -53236.819   -26794.419 
   14700        0.147    289.19428    8.0323342 0.0023991844 -0.0010004881 -0.021441996 -0.021956577          nan    612.41775   -53231.497    -26779.11 
   14750       0.1475    288.15752    8.0245376 -0.019278776 -0.0085517223 -0.021435097 -0.021952508 -0.021948045    610.22223   -53222.191    -26655.69 
   14800        0.148    287.69309    8.0220678 -0.029001169  0.021506594 -0.021416749 -0.021935193          nan    609.23872   -53214.111   -26715.244 
   14850       0.1485    288.11223    8.0699743  0.024772955  0.012796251 -0.021393217 -0.021909832 -0.021905501    610.12632   -53207.863   -27025.145 
   14900        0.149    287.66028    8.0699985  0.013724475 -0.00075351667  -0.02138712 -0.021904678          nan    609.16925    -53199.75   -26943.231 
   14950       0.1495    286.49932    8.0552713 -0.026078246 -0.027165977 -0.021385903 -0.021903867 -0.021906993    606.71071   -53190.128   -26673.424 
   15000         0.15    288.36511    8.0436169 -0.0055405225 -0.023123398 -0.021367737 -0.021882806          nan    610.66184   -53186.944    -26716.51 
   15050       0.1505    287.84796    8.0221898  0.032074638  0.046722049 -0.021339707 -0.021847176 -0.021849176    609.56668   -53178.717   -27003.288 
   15100        0.151    289.86503     8.009349  0.022580725  0.013022977  -0.02133662 -0.021848422          nan    613.83818   -53175.875   -26816.509 
   15150       0.1515    289.78785    7.9487241 -0.018514708 -0.031619197 -0.021348346 -0.021860659 -0.021864585    613.67473   -53168.607   -26328.634 
   15200        0.152    290.31853    7.8667592 -0.016873746 -0.033512904 -0.021336907 -0.021846588          nan    614.79854   -53162.699   -26054.575 
   15250       0.1525    288.52284    7.7777716  0.018989735 0.0065869689 -0.021297853  -0.02179875 -0.021800034    610.99587   -53151.958   -26011.161 
   15300        0.153    292.59979    7.6874063  0.040995206   0.05111153 -0.021277319 -0.021768246          nan    619.62949   -53153.718    -25931.71 
   15350       0.1535    293.44753    7.5105271  -0.01715212  0.010782774 -0.021288333 -0.021782134 -0.021771721    621.42472   -53148.786   -25013.859 
   15400        0.154    300.38177    7.3148832 -0.023705618  -0.03372703 -0.021301991 -0.021784245          nan    636.10915   -53156.901   -24191.502 
   15450       0.1545    303.37336     7.099078 -0.005157063 -0.022685555 -0.021286275 -0.021760735 -0.021757243    642.44434   -53156.917   -23570.784 
   15500        0.155    310.56808    6.8335628  0.028671026  0.061517304 -0.021263911 -0.021724308          nan    657.68038   -53166.129    -23079.17 
   15550       0.1555    319.07102    6.4622776 -0.017969937  0.074104983 -0.021286522 -0.021735858 -0.021723931    675.68679   -53178.592   -21728.042 
   15600        0.156    328.59338    6.0768926 -0.054305874 0.0032310691 -0.021326333 -0.021763137          nan    695.85201   -53193.752   -20086.059 
   15650       0.1565    339.98605    5.7091227 -0.039253418 -0.011629085 -0.021340539   -0.0217664 -0.021768488     719.9779   -53213.419   -18860.801 
   15700        0.157     349.9769    5.3833154  0.014535402  0.024428597 -0.021332741 -0.021740345          nan    741.13522   -53230.814   -18074.265 
   15750       0.1575    356.34055    5.0262823  0.046377412  0.025275241  -0.02133879  -0.02172775 -0.021734076    754.61132   -53241.297   -16993.116 
   15800        0.158    363.93805    4.6373933  0.051548958 -0.025566959 -0.021380147  -0.02175134          nan    770.70031   -53255.135   -15544.584 
   15850       0.1585    369.39373    4.2720394  0.011057645  -0.04033417 -0.021430774 -0.021783366 -0.021796229    782.25363   -53265.144   -14142.543 
   15900        0.159    376.31002    3.9450294  0.025588824 -0.020515676 -0.021462564 -0.021795108          nan    796.90004   -53278.787   -13167.008 
   15950       0.1595    377.48704    3.6586387  0.055163305 -0.028075241 -0.021490782 -0.021801864 -0.021817349     799.3926   -53280.681   -12285.756 
   16000         0.16    376.28538    3.3967325  0.017835897  0.040873249  -0.02152006 -0.021819127          nan    796.84787   -53277.693   -11518.139 
   16050       0.1605    381.43001    3.1451302  0.059913572  0.011176456 -0.021570245 -0.021850547 -0.021857864     807.7425   -53288.357   -10720.734 
   16100        0.161    383.02458    2.9185524 -0.015108025 -0.013841913 -0.021627132 -0.021900283          nan    811.11925    -53291.71   -9632.0082 
   16150       0.1615    382.24622    2.6707841 -0.042510109 -5.8002395e-05 -0.021674555 -0.021928502 -0.021927831    809.47096   -53290.255     -8760.72 
   16200        0.162    384.28542    2.5132043 0.0072497602  0.064284504 -0.021695889 -0.021928739          nan     813.7893   -53295.055   -8615.7952 
   16250       0.1625    387.55178    2.3624185  0.017334212   0.05188648 -0.021733422 -0.021955354 -0.021953183    820.70637   -53302.835   -8105.4639 
   16300        0.163    391.04332    2.2023952 -0.0029853183  0.021283681 -0.021799356 -0.022005896          nan    828.10031   -53311.338   -7402.3119 
   16350       0.1635    393.07265    2.0627596 0.00033388423 -0.033342202 -0.021857133 -0.022046687 -0.022049346    832.39776   -53316.903   -6765.8377 
   16400        0.164    392.99985     1.947482   0.01643309 -0.024855808 -0.021889333 -0.022063153          nan    832.24358   -53318.177   -6463.5308 
   16450       0.1645    397.69265    1.8597323  0.044083245  0.021783537 -0.021910754 -0.022074545 -0.022075219    842.18138   -53329.736   -6418.6635 
   16500        0.165    399.56344    1.8021243  0.023002338 -0.0032643613 -0.021947533 -0.022109909          nan    846.14309   -53335.512   -6072.8742 
   16550       0.1655    398.63934    1.7065534 -0.048249614 0.0018889645 -0.021988487 -0.022146248  -0.02213768    844.18615   -53335.387   -5533.9758 
   16600        0.166    401.63186    1.6554372  0.017345694  0.015262818 -0.021998583 -0.022150274          nan    850.52331   -53343.667   -5626.8189 
   16650       0.1665    406.61402    1.6071214  0.057283454   0.04180605 -0.022019487 -0.022158367 -0.022154296    861.07388   -53356.368   -5687.3695 
   16700        0.167    404.39975    1.5220623 -0.0071849052 -0.018915642 -0.022070587 -0.022204933          nan    856.38479   -53353.953   -4986.5392 
   16750       0.1675    407.19179    1.5265762 -0.065372073 -0.0070952308 -0.022094247 -0.022233702 -0.022223927    862.29742   -53362.136   -4847.0295 
   16800        0.168    405.66592    1.5141962 -0.005861296  0.011501671 -0.022085072 -0.022216378          nan    859.06612   -53361.272   -5066.1219 
   16850       0.1685    407.07406    1.5114259   0.02089229   0.05174981 -0.022077007 -0.022207943 -0.022197675     862.0481   -53366.675   -5280.2265 
   16900        0.169    406.63752    1.4741978 -0.015798871  0.017131132 -0.022094088 -0.022227678          nan    861.12365   -53368.237   -4918.4335 
   16950       0.1695    410.66948    1.4646052 -0.020337987  0.017340096 -0.022112663 -0.022249633 -0.022237014    869.66201   -53379.317   -4872.0243 
   17000         0.17    408.79544    1.4546807 -0.038271172 -0.001544997 -0.022120345 -0.022260505          nan    865.69342   -53377.932    -4716.215 
   17050       0.1705    411.86404    1.4204592   0.04240294 0.0035351829 -0.022120079 -0.022246184 -0.022241528    872.19168   -53387.061   -4887.9911 
   17100        0.171    411.47291    1.3799741  0.039945831 -0.014297978 -0.022127306  -0.02225555          nan     871.3634   -53388.914   -4685.4067 
   17150       0.1715     415.6465    1.4015654  0.019159239 -0.010833587 -0.022140113 -0.022272581 -0.022264387    880.20169   -53400.492   -4699.6367 
   17200        0.172    411.20364    1.4250032 0.0026900974 -0.025898047 -0.022151605 -0.022284015          nan    870.79318    -53393.82    -4672.651 
   17250       0.1725    413.48119    1.4266051 2.5208323e-05  0.013223685 -0.022146791 -0.022279601 -0.022267447    875.61629   -53401.357   -4799.5132 
   17300        0.173    415.44619    1.4285964 -0.012139911   0.07535237 -0.022149227 -0.022281386          nan    879.77749   -53408.288   -4972.6961 
   17350       0.1735    415.37694     1.413188 -0.0013389531  0.018443787  -0.02216823 -0.022297463 -0.022285702    879.63085   -53410.986   -4767.6428 
   17400        0.174    414.08099    1.3238422 0.0067634716 -0.024715985 -0.022194156 -0.022313782          nan    876.88646   -53411.101   -4352.9657 
   17450       0.1745    412.73679    1.3070466  -0.02834393 -0.016673837 -0.022197709 -0.022317088 -0.022311115    874.03989   -53411.138   -4206.7626 
   17500        0.175    415.30307    1.3450921  0.018904004 -0.0022488516 -0.022182594 -0.022300375          nan    879.47443   -53419.486   -4539.1576 
   17550       0.1755    418.03187    1.3752953  0.011006198  0.025073468 -0.022174118 -0.022293794 -0.022294301    885.25312   -53428.211   -4704.5832 
   17600        0.176    414.28934    1.3249708 -0.015053991  0.041946465 -0.022183797 -0.022301975          nan    877.32768   -53423.228   -4506.2108 
   17650       0.1765    418.03552    1.3754292 -0.025543129  0.035982388 -0.022194973 -0.022314211 -0.022317282    885.26084   -53434.165   -4619.5616 
   17700        0.177     415.8377    1.3587249 0.0068948774  0.010339238 -0.022210224 -0.022321647          nan    880.60658   -53432.514     -4586.53 
   17750       0.1775    416.87175    1.3043095  0.023693682 -0.030539399 -0.022228121 -0.022335922 -0.022342379    882.79637   -53437.644   -4324.8793 
   17800        0.178    413.89216     1.291808 0.0075090475 -0.038840188  -0.02223117   -0.0223401          nan    876.48657   -53434.335   -4201.5895 
   17850       0.1785    416.72334    1.2762378  0.069559726 -0.00091387329 -0.022233488 -0.022331566 -0.022343122    882.48209   -53443.399   -4482.9455 
   17900        0.179    418.12239    1.2561465  0.033608055   -0.0038504  -0.02225357 -0.022359467          nan     885.4448   -53449.512   -4286.3473 
   17950       0.1795    412.65072    1.2076882 -0.015397513 -0.055657145 -0.022284867 -0.022391156 -0.022397515    873.85763   -53441.036   -3788.7784 
   18000         0.18    413.82535    1.2302221 -0.028155016 -0.010380558 -0.022282066 -0.022393464          nan    876.34511     -53446.6   -3972.2885 
   18050       0.1805    415.34012    1.2437416 0.0036961712  0.056498841 -0.022265111 -0.022372306 -0.022366219    879.55287   -53452.829   -4346.4552 
   18100        0.181     417.5726    1.2663258 0.00031224206  0.043030606 -0.022264449 -0.022374624          nan    884.28053   -53460.628   -4365.5622 
   18150       0.1815    411.88227    1.2645511 -0.027130796 -0.044124428  -0.02226853 -0.022385658   -0.0223813     872.2303   -53451.581   -3977.6529 
   18200        0.182    416.98469    1.2953278  0.034722518  0.049671954  -0.02225433 -0.022366465          nan    883.03554   -53465.389   -4599.0741 
   18250       0.1825    413.83739    1.2613692  0.018901034  0.050028486 -0.022271304 -0.022378143 -0.022372688     876.3706   -53461.831   -4434.3291 
   18300        0.183    417.55101    1.2296757 -0.022344408 -0.025781022 -0.022311582 -0.022420623          nan     884.2348   -53472.782    -3938.501 
   18350       0.1835    415.04557    1.1742498 -0.012003267  -0.04202506 -0.022329196 -0.022432191 -0.022434551    878.92911   -53470.543   -3734.0717 
   18400        0.184    411.66665    1.2083913 -0.0043950042  0.011989088 -0.022314981 -0.022419444          nan    871.77368   -53466.462   -4053.2846 
   18450       0.1845    416.80055    1.2153247  0.023400226  0.048485831 -0.022311014 -0.022413288 -0.022412391    882.64558   -53480.453   -4290.7024 
   18500        0.185     412.8057     1.215712 -0.032529224 -0.0080820679 -0.022329453  -0.02244142          nan    874.18582   -53475.122   -3917.0023 
   18550       0.1855    416.73391    1.2150063  0.012350915 -0.038932225 -0.022335038 -0.022442811 -0.022447758    882.50446   -53486.508   -3961.4165 
   18600        0.186    413.19957    1.2222866  0.010146899 -0.028892302 -0.022323367  -0.02242848          nan     875.0199   -53482.093   -4011.8039 
   18650       0.1865    412.71035    1.2645499  0.036487945  0.046083834 -0.022305573 -0.022412878 -0.022412135    873.98389   -53484.122   -4490.4057 
   18700        0.187     412.9248    1.2237834  0.023251994 0.00074515253 -0.022326775 -0.022431236          nan    874.43802   -53487.641   -4159.2686 
   18750       0.1875    416.64845    1.1820588 -0.028928542 0.0036902952 -0.022358402 -0.022464745 -0.022457613    882.32349   -53498.627   -3856.0684 
   18800        0.188    412.10646    1.1729937 -0.082810006  0.019922057  -0.02236452 -0.022478963          nan    872.70506   -53492.078   -3700.3526 
   18850       0.1885    412.66012     1.209767 -0.012608752  0.032322633 -0.022342917 -0.022455719 -0.022443777    873.87753   -53496.361   -4098.2697 
   18900        0.189    413.23056    1.2489481  0.032566484  0.039609264 -0.022327041   -0.0224348          nan    875.08552   -53500.619   -4403.7462 
   18950       0.1895    412.98537    1.2329792  0.033395257  0.005880248 -0.022343148 -0.022447028 -0.022449417    874.56629   -53503.143    -4240.849 
   19000         0.19    410.87349    1.2183578 0.0097882894 -0.071825932 -0.022364791 -0.022473849          nan    870.09403   -53501.618   -3854.4007 
   19050       0.1905    412.86009    1.2299516  0.034236549 -0.058206995 -0.022362274 -0.022462928 -0.022476524    874.30099   -53508.831   -4019.9372 
   19100        0.191    412.05642    1.2359775  0.047758375 -0.010296066 -0.022341289 -0.022442555          nan    872.59909   -53510.186   -4244.7993 
   19150       0.1915    408.84981    1.2473024 0.0090387394   0.05732094 -0.022333867 -0.022439511 -0.022441302    865.80855   -53506.365   -4378.8737 
   19200        0.192    411.45511    1.2649385 -0.00020249289  0.008627884 -0.022360171    -0.022466          nan     871.3257   -53514.871   -4244.5461 
   19250       0.1925    409.50181    1.2425237 -0.0021758851 -0.022742586 -0.022389915 -0.022494811 -0.022498368    867.18926   -53513.669    -4058.684 
   19300        0.193    409.68344    1.2622841 -0.028557543 -0.020079886 -0.022386532 -0.022503663          nan     867.5739   -53516.985   -4045.4888 
   19350       0.1935    407.70952    1.2682982 -0.014618188 0.0098163216 -0.022372714 -0.022490958 -0.022488087     863.3938   -53515.698   -4211.6546 
   19400        0.194    407.39248    1.2615625  0.041215451  0.038150602 -0.022358205  -0.02246684          nan     862.7224    -53517.89   -4469.7617 
   19450       0.1945    408.35015    1.2326108  0.032621389  0.030391502 -0.022379137 -0.022481811 -0.022482605    864.75043   -53522.831   -4318.7455 
   19500        0.195    407.92211    1.2065539 -0.022165338 -0.032424793 -0.022415298 -0.022521304          nan    863.84399   -53524.819   -3839.8791 
   19550       0.1955    408.80895    1.1814437 -0.033884883 -0.014811411 -0.022424942 -0.022535664 -0.022534172    865.72203   -53529.593   -3775.8246 
   19600        0.196    407.01234    1.2287206 -0.013658142 0.0076738521 -0.022405811 -0.022516497          nan     861.9174   -53528.677   -4075.7878 
   19650       0.1965    410.01174    1.2133665  0.037341876   0.09712877 -0.022394685 -0.022499877 -0.022496194    868.26914   -53537.967   -4492.7906 
   19700        0.197    407.69594    1.1778383 -0.031116004 0.0010701848  -0.02243352 -0.022536157          nan    863.36503    -53536.07   -3825.9751 
   19750       0.1975    407.83932    1.1211602 -0.034247343 -0.046470917  -0.02245671  -0.02255639 -0.022565476    863.66866   -53539.289   -3468.1397 
   19800        0.198      410.608    1.1616433  0.022851323 -0.044943985  -0.02243129 -0.022529465          nan    869.53182   -53548.051   -3798.5022 
   19850       0.1985    408.75353    1.1689764   0.09129606   0.03372633 -0.022401595 -0.022497224 -0.022504702    865.60465   -53547.041   -4313.3294 
   19900        0.199    406.73166    1.1636202  0.038160413 0.0013311429 -0.022418378 -0.022514592          nan      861.323   -53545.692   -4010.3726 
   19950       0.1995    406.42809    1.1424564 -0.042039569 -0.0059842948 -0.022443735  -0.02254981 -0.022548478    860.68014   -53547.946   -3648.1086 
   20000          0.2    407.29258    1.1308292 -0.059480826 0.0064373617 -0.022443065 -0.022551295          nan    862.51085   -53552.629   -3592.6193 
Loop time of 4282.23 on 4 procs for 20000 steps with 16384 atoms

Pair  time (%) = 4048.18 (94.5344)
Neigh time (%) = 2.66313 (0.0621903)
Comm  time (%) = 147.589 (3.44655)
Outpt time (%) = 0.450873 (0.0105289)
Other time (%) = 83.3473 (1.94635)

Nlocal:    4096 ave 4146 max 4009 min
Histogram: 1 0 0 0 0 0 0 1 1 1
Nghost:    7414.25 ave 7456 max 7392 min
Histogram: 1 1 1 0 0 0 0 0 0 1
Neighs:    282154 ave 286620 max 275810 min
Histogram: 1 0 0 0 0 1 0 0 1 1
FullNghs:  0 ave 0 max 0 min
Histogram: 4 0 0 0 0 0 0 0 0 0

Total # of neighbors = 1128617
Ave neighs/atom = 68.8853
Neighbor list builds = 121
Dangerous builds = 0

######################################
# SIMULATION DONE
print "All done"
All done
