LAMMPS (28 Jun 2014)
# Input file for uniaxial tensile loading of single crystal aluminum
# Mark Tschopp, November 2010

# ------------------------ INITIALIZATION ----------------------------
units 		metal
dimension	3
boundary	p	p	p
atom_style	atomic
variable latparam equal 4.05

# ----------------------- ATOM DEFINITION ----------------------------
lattice		fcc ${latparam}
lattice		fcc 4.05
Lattice spacing in x,y,z = 4.05 4.05 4.05
region		whole block 0 10 0 10 0 10
create_box	1 whole
Created orthogonal box = (0 0 0) to (40.5 40.5 40.5)
  1 by 2 by 2 MPI processor grid
lattice 	fcc ${latparam} orient x 1 0 0 orient y 0 1 0 orient z 0 0 1
lattice 	fcc 4.05 orient x 1 0 0 orient y 0 1 0 orient z 0 0 1
Lattice spacing in x,y,z = 4.05 4.05 4.05
create_atoms	1 region whole
Created 4000 atoms

# ------------------------ FORCE FIELDS ------------------------------
pair_style	eam/alloy
pair_coeff	* * Al99.ZeroFRho.NegRhoR.NegPhiR.eam.alloy Al

# ------------------------- SETTINGS ---------------------------------
compute csym all centro/atom fcc
compute peratom all pe/atom

######################################
# EQUILIBRATION
reset_timestep	0
timestep 0.001
velocity all create 300 12345 mom yes rot no
fix 1 all npt temp 300 300 1 iso 0 0 1 drag 1

# Set thermo output
thermo 1000
thermo_style custom step lx ly lz press pxx pyy pzz pe temp

# Run for at least 10 picosecond (assuming 1 fs timestep)
run 20000
Memory usage per processor = 3.04301 Mbytes
Step Lx Ly Lz Press Pxx Pyy Pzz PotEng Temp 
       0         40.5         40.5         40.5    2154.6813    2105.5481    2193.2121    2165.2836   -13449.904          300 
    1000    40.552154    40.552154    40.552154     857.0655    845.66273    829.15951    896.37427   -13370.998    165.27791 
    2000    40.565914    40.565914    40.565914    258.21648    189.97148    288.56469    296.11326   -13366.372    178.94356 
    3000    40.574827    40.574827    40.574827    97.095766    12.464417    191.61744    87.205438    -13359.84    189.30061 
    4000     40.58254     40.58254     40.58254    71.816263     22.97178     48.53787    143.93914   -13350.217    193.67446 
    5000    40.587607    40.587607    40.587607    170.81489    271.85538    229.70861     10.88069   -13344.129    204.63925 
    6000    40.594678    40.594678    40.594678    81.963984    73.350938   -11.805419    184.34643   -13337.237    213.54111 
    7000    40.602476    40.602476    40.602476   -38.596291   -63.750565    61.577426   -113.61574   -13331.514    223.95226 
    8000      40.6077      40.6077      40.6077   -30.799344   -86.045394   0.85559919   -7.2082358   -13329.055    239.67101 
    9000    40.612285    40.612285    40.612285   -17.739831   -64.528926    100.93069   -89.621257   -13325.873    252.79699 
   10000    40.620571    40.620571    40.620571   -84.323967   -66.102143   -60.701565   -126.16819   -13316.577    252.66964 
   11000    40.625797    40.625797    40.625797   -119.53473   -468.62107    136.54596   -26.529085   -13312.992    262.03719 
   12000    40.626652    40.626652    40.626652   0.87679445    98.688972   -19.061892   -76.996697   -13311.123    273.03375 
   13000    40.632162    40.632162    40.632162   -34.356147   -158.87366   -176.41743    232.22265   -13307.697    279.24419 
   14000    40.632926    40.632926    40.632926    127.36202   -102.37016     158.6004     325.8558   -13303.271     281.7781 
   15000    40.637012    40.637012    40.637012    164.96848    133.48332     107.3256    254.09652   -13300.096    285.02431 
   16000     40.63673     40.63673     40.63673    125.59703     263.3682    148.26267    -34.83978   -13300.132    292.80126 
   17000    40.640491    40.640491    40.640491    50.465069    95.568385    105.25642   -49.429597   -13300.489    299.64905 
   18000    40.642528    40.642528    40.642528    5.7562004   -90.896608     165.8977   -57.732486   -13298.541    300.49177 
   19000    40.643708    40.643708    40.643708   -47.273874    199.61652   -243.59959   -97.838554   -13298.136    302.93179 
   20000    40.646451    40.646451    40.646451   -192.16242   -125.35753    -205.7323   -245.39741   -13296.633    301.89832 
Loop time of 253.916 on 4 procs for 20000 steps with 4000 atoms

Pair  time (%) = 211.519 (83.3029)
Neigh time (%) = 0 (0)
Comm  time (%) = 33.2568 (13.0976)
Outpt time (%) = 0.00417006 (0.0016423)
Other time (%) = 9.13555 (3.59786)

Nlocal:    1000 ave 1000 max 1000 min
Histogram: 4 0 0 0 0 0 0 0 0 0
Nghost:    4235 ave 4235 max 4235 min
Histogram: 4 0 0 0 0 0 0 0 0 0
Neighs:    70000 ave 72653 max 67302 min
Histogram: 1 0 1 0 0 0 0 1 0 1
FullNghs:  0 ave 0 max 0 min
Histogram: 4 0 0 0 0 0 0 0 0 0

Total # of neighbors = 280000
Ave neighs/atom = 70
Neighbor list builds = 0
Dangerous builds = 0
unfix 1

# Store final cell length for strain calculations
variable tmp equal "lx"
variable L0 equal ${tmp}
variable L0 equal 40.6464514186598
print "Initial Length, L0: ${L0}"
Initial Length, L0: 40.6464514186598

######################################
# DEFORMATION
reset_timestep	0

fix		1 all npt temp 300 300 1 y 0 0 1 z 0 0 1 drag 1
variable srate equal 1.0e10
variable srate1 equal "v_srate / 1.0e12"
fix		2 all deform 1 x erate ${srate1} units box remap x
fix		2 all deform 1 x erate 0.01 units box remap x

# Output strain and stress info to file
# for units metal, pressure is in [bars] = 100 [kPa] = 1/10000 [GPa]
# p2, p3, p4 are in GPa
variable strain equal "(lx - v_L0)/v_L0"
variable p1 equal "v_strain"
variable p2 equal "-pxx/10000"
variable p3 equal "-pyy/10000"
variable p4 equal "-pzz/10000"
fix def1 all print 20 "${p1} ${p2} ${p3} ${p4}" file  Al99.ZeroFRho.NegRhoR.NegPhiR.eam.alloy.def1.txt screen no

# Use cfg for AtomEye
#dump 		1 all cfg 250 dump.tensile_*.cfg id type xs ys zs c_csym c_peratom fx fy fz
#dump_modify 1 element Al

# Display thermo
thermo 	1000
thermo_style	custom step v_strain temp v_p2 v_p3 v_p4 ke pe press

run		20000
Memory usage per processor = 3.04301 Mbytes
Step strain Temp p2 p3 p4 KinEng PotEng Press 
       0 5.2443156e-16    301.89832  0.012535753   0.02057323  0.024539741    156.05466   -13296.633   -192.16242 
    1000         0.01    297.67474   0.64992478  0.013782985 -0.017169423    153.87144   -13291.918   -2155.1278 
    2000         0.02    300.08352    1.3025325  0.015507981   0.04650086    155.11657   -13287.741    -4548.471 
    3000         0.03    301.73239    1.9082342 -0.012336252 0.0095707102    155.96889   -13280.521   -6351.5623 
    4000         0.04     304.5734    2.5097024 -0.022997337  -0.00667069    157.43744   -13271.281   -8266.7813 
    5000         0.05    296.63197    3.0884829 -0.016976899 -0.0025519978    153.33242   -13253.846   -10229.847 
    6000         0.06    295.54961    3.6723266 -0.018472986 0.0086601331    152.77294   -13237.513   -12208.379 
    7000         0.07    302.17456      4.32401  0.021457154  0.018131121    156.19745   -13222.792   -14545.328 
    8000         0.08     295.2958     4.814652 -0.020504263 -0.020217492    152.64174   -13198.794   -15913.101 
    9000         0.09    299.94814     5.381946 -0.064236186 -0.010270319    155.04659   -13178.533   -17691.465 
   10000          0.1    293.51436    5.9470855  0.004882107  0.052496711     151.7209   -13150.311   -20014.881 
   11000         0.11    296.30247    6.4131737 -0.015869969 -0.034017222     153.1621   -13124.723   -21210.955 
   12000         0.12    290.39681    6.9440963  0.014369805 -0.015593956     150.1094   -13092.322   -23142.907 
   13000         0.13    298.24953    7.4013683  -0.07271965 -0.026779248    154.16856   -13064.953   -24339.565 
   14000         0.14    290.64507    7.8536521  0.040849587  0.049468412    150.23773   -13027.697     -26479.9 
   15000         0.15    288.42709    7.9908329 -0.031668493 -0.044276051    149.09123   -12991.646   -26382.961 
   16000         0.16    392.05255    2.9953384  0.042326292 -0.016254695     202.6564   -13026.151   -10071.367 
   17000         0.17    413.42565    1.4649056 -0.049532044  0.086325248     213.7044   -13050.201   -5005.6628 
   18000         0.18    415.57824    1.2815903  0.051393389  0.083375013     214.8171    -13071.31   -4721.1957 
   19000         0.19    402.36268    1.6070958  0.005369406  0.038257468    207.98582   -13083.493   -5502.4088 
   20000          0.2    395.14426    1.2310839  -0.08126188 -0.046310168    204.25454   -13097.061    -3678.373 
Loop time of 370.361 on 4 procs for 20000 steps with 4000 atoms

Pair  time (%) = 283.249 (76.4793)
Neigh time (%) = 0.522659 (0.141121)
Comm  time (%) = 58.609 (15.8248)
Outpt time (%) = 0.00374782 (0.00101194)
Other time (%) = 27.9763 (7.55379)

Nlocal:    1000 ave 1007 max 995 min
Histogram: 2 0 0 0 0 1 0 0 0 1
Nghost:    3712.5 ave 3738 max 3688 min
Histogram: 2 0 0 0 0 0 0 0 0 2
Neighs:    68816.5 ave 70485 max 67273 min
Histogram: 1 0 1 0 0 0 0 1 0 1
FullNghs:  0 ave 0 max 0 min
Histogram: 4 0 0 0 0 0 0 0 0 0

Total # of neighbors = 275266
Ave neighs/atom = 68.8165
Neighbor list builds = 86
Dangerous builds = 0

######################################
# SIMULATION DONE
print "All done"
All done
