LAMMPS (28 Jun 2014)
# Input file for uniaxial tensile loading of single crystal aluminum
# Mark Tschopp, November 2010

# ------------------------ INITIALIZATION ----------------------------
units 		metal
dimension	3
boundary	p	p	p
atom_style	atomic
variable latparam equal 4.05

# ----------------------- ATOM DEFINITION ----------------------------
lattice		fcc ${latparam}
lattice		fcc 4.05
Lattice spacing in x,y,z = 4.05 4.05 4.05
region		whole block 0 10 0 10 0 10
create_box	1 whole
Created orthogonal box = (0 0 0) to (40.5 40.5 40.5)
  1 by 2 by 2 MPI processor grid
lattice 	fcc ${latparam} orient x 1 0 0 orient y 0 1 0 orient z 0 0 1
lattice 	fcc 4.05 orient x 1 0 0 orient y 0 1 0 orient z 0 0 1
Lattice spacing in x,y,z = 4.05 4.05 4.05
create_atoms	1 region whole
Created 4000 atoms

# ------------------------ FORCE FIELDS ------------------------------
pair_style	eam/alloy
pair_coeff	* * Al99.posRhoR.eam.alloy Al

# ------------------------- SETTINGS ---------------------------------
compute csym all centro/atom fcc
compute peratom all pe/atom

######################################
# EQUILIBRATION
reset_timestep	0
timestep 0.001
velocity all create 300 12345 mom yes rot no
fix 1 all npt temp 300 300 1 iso 0 0 1 drag 1

# Set thermo output
thermo 50
thermo_style custom step lx ly lz press pxx pyy pzz pe temp

# Run for at least 10 picosecond (assuming 1 fs timestep)
run 20000
Memory usage per processor = 3.04301 Mbytes
Step Lx Ly Lz Press Pxx Pyy Pzz PotEng Temp 
       0         40.5         40.5         40.5    2514.9467    2465.8136    2553.4775     2525.549       -13440          300 
      50    40.561393    40.561393    40.561393     908.2723    837.93993    947.25464    939.62233   -13338.818     103.2608 
     100     40.63742     40.63742     40.63742   -4625.6431   -4620.2956    -4647.515   -4609.1188   -13373.519    171.78616 
     150    40.566696    40.566696    40.566696    543.75426    508.69276    621.33646    501.23355   -13348.904    124.14322 
     200    40.511873    40.511873    40.511873    3556.5256    3652.4835    3495.2521    3521.8412   -13355.219    137.90747 
     250    40.566073    40.566073    40.566073    167.87685    91.540971    218.94101    193.14858   -13359.509     146.7295 
     300    40.611628    40.611628    40.611628   -2471.7264    -2418.061   -2488.9257   -2508.1925   -13360.119    149.21852 
     350    40.571676    40.571676    40.571676   -409.51207   -483.59241   -347.57086   -397.37293   -13367.344    163.76654 
     400    40.532564    40.532564    40.532564    2228.6367    2282.8349    2299.8652    2103.2099   -13359.852    150.39901 
     450    40.566341    40.566341    40.566341    2.5048402   -39.642137   -31.371425    78.528083   -13363.084    157.36618 
     500    40.596301    40.596301    40.596301   -1612.8692   -1656.8073    -1480.799   -1701.0014   -13359.403    151.31904 
     550    40.571163    40.571163    40.571163   -162.40925   -150.53592   -167.77664    -168.9152    -13360.74    154.75601 
     600    40.545378    40.545378    40.545378    1386.9999    1415.4495    1434.0842    1311.4661   -13361.917    158.15688 
     650    40.566534    40.566534    40.566534    212.85627    184.22797    246.00554    208.33531   -13358.109    151.74317 
     700    40.590321    40.590321    40.590321   -1218.3591   -1344.2222   -1127.4513   -1183.4038    -13360.21     156.9316 
     750    40.573247    40.573247    40.573247   -250.73193   -286.77561   -263.33268   -202.08752   -13360.533    158.56013 
     800    40.551649    40.551649    40.551649    1209.3987    1079.0219    1322.7699    1226.4043   -13357.172    153.22072 
     850    40.567949    40.567949    40.567949    35.982295    27.375508    95.741925   -15.170547   -13362.175    163.91854 
     900    40.586884    40.586884    40.586884   -906.18083   -936.95011   -840.39468   -941.19768   -13360.494    161.80301 
     950    40.575995    40.575995    40.575995   -241.97373   -257.88407   -191.39162    -276.6455   -13355.032    152.28693 
    1000    40.557923    40.557923    40.557923     866.0416    854.47078    838.30405    905.34996   -13361.129    165.23513 
    1050    40.567653    40.567653    40.567653    296.92371    233.54583     413.5738     243.6515   -13352.945    150.46321 
    1100    40.584759    40.584759    40.584759   -763.08364   -854.44249    -675.3888   -759.41964    -13360.47    166.16581 
    1150    40.576294    40.576294    40.576294   -142.44971   -202.12132   -29.761861   -195.46593   -13353.752    154.26954 
    1200      40.5627      40.5627      40.5627    594.99085    540.32341    625.09912    619.55003   -13359.845    167.19775 
    1250    40.569715    40.569715    40.569715    166.97855    92.688862    250.69902    157.54778   -13356.019    160.89681 
    1300    40.582213    40.582213    40.582213   -560.71139   -582.11366   -450.26651   -649.75401   -13357.592    165.07274 
    1350     40.57626     40.57626     40.57626    -188.1513   -340.49053   -120.27211   -103.69126   -13356.829    164.71791 
    1400    40.566419    40.566419    40.566419    567.41602    500.65017     642.8577    558.74021   -13354.382    161.12343 
    1450    40.573295    40.573295    40.573295   -9.0222559   -54.580669    -9.595735    37.109636   -13356.762    166.84907 
    1500    40.580111    40.580111    40.580111   -268.16293   -333.58157   -176.63663   -294.27058   -13353.682      162.046 
    1550    40.577138    40.577138    40.577138   -220.43933   -334.87607   -207.57133   -118.87058   -13357.326    170.21403 
    1600     40.56932     40.56932     40.56932    378.06091    358.66409    458.89634    316.62229   -13352.706    162.41946 
    1650    40.573636    40.573636    40.573636    122.30576    66.348909    162.52424    138.04413   -13355.393    168.74415 
    1700    40.581019    40.581019    40.581019   -352.26931   -405.61666   -357.85391   -293.33738   -13352.188    163.70572 
    1750    40.577152    40.577152    40.577152   -31.134043   -49.591094   -62.335377    18.524341   -13355.532    171.28815 
    1800       40.571       40.571       40.571    303.39923    205.80686    336.65906    367.73176   -13351.265    164.19984 
    1850    40.574135    40.574135    40.574135     241.0349    159.83119    291.54872     271.7248   -13352.003    166.75455 
    1900    40.582834    40.582834    40.582834   -408.87862   -517.13682   -372.96187   -336.53716   -13355.894    175.43848 
    1950    40.579344    40.579344    40.579344   -120.96363   -78.583726   -79.975164     -204.332   -13350.026    165.20946 
    2000    40.571817    40.571817    40.571817    262.47966    197.91726    289.35874    300.16298    -13356.43    178.75709 
    2050    40.574449    40.574449    40.574449    292.06409     439.8508    284.32464    152.01682   -13349.016    165.55104 
    2100     40.58402     40.58402     40.58402   -349.91502   -572.33598   -279.04493   -198.36414    -13352.83    174.09006 
    2150    40.581207    40.581207    40.581207   -116.01302    -186.1311   -84.040392   -77.867579   -13348.353    166.56306 
    2200    40.573541    40.573541    40.573541     266.6039    327.65941    144.55334    327.59893   -13352.364    175.46647 
    2250    40.575135    40.575135    40.575135    150.72284    252.34022    168.18167    31.646636   -13352.011    175.94421 
    2300    40.582817    40.582817    40.582817   -228.88823   -261.80965   -226.78501   -198.07005   -13351.082    175.28314 
    2350    40.582781    40.582781    40.582781   -261.93299   -229.96179   -223.67891   -332.15826   -13351.017    176.31653 
    2400    40.575422    40.575422    40.575422    306.21824      319.912    231.79238    366.95034   -13348.862    173.29521 
    2450     40.57635     40.57635     40.57635    115.22788   -50.222659    231.13265    164.77365   -13349.788    176.24263 
    2500    40.582289    40.582289    40.582289   -85.215687   -222.06369   -50.401198    16.817826   -13348.585    175.04701 
    2550    40.584174    40.584174    40.584174   -280.00609   -328.99453   -350.83385   -160.18989   -13350.788    180.47296 
    2600    40.577517    40.577517    40.577517    315.90044     230.4638    392.58016    324.65735   -13345.719     171.8258 
    2650    40.579235    40.579235    40.579235    13.777844    145.46752   -44.743011   -59.390978   -13350.908    182.99911 
    2700    40.583826    40.583826    40.583826   -174.83209   -294.13075   -112.12178   -118.24374   -13346.806    176.22117 
    2750    40.582784    40.582784    40.582784   -39.051705   -64.453038    -86.42719    33.725112   -13348.656    180.94515 
    2800    40.579014    40.579014    40.579014     107.5972   -20.543679    190.09901    153.23625   -13346.404    177.75531 
    2850    40.579623    40.579623    40.579623    125.32793    82.471611    125.52227    167.98991   -13349.579    185.04091 
    2900    40.584942    40.584942    40.584942   -68.811274   -151.46271   -33.721285   -21.249823    -13345.84    178.95418 
    2950    40.585672    40.585672    40.585672   -184.16889   -155.97234   -314.57197   -81.962357   -13345.526    179.51556 
    3000    40.580701    40.580701    40.580701    102.88614    17.601996    199.88465    91.171786   -13350.002    189.32153 
    3050    40.580809    40.580809    40.580809    62.507082    44.400712    20.726113    122.39442   -13345.203    181.17888 
    3100    40.585007    40.585007    40.585007   -106.34562   -221.78015   -58.150412   -39.106294   -13347.434    186.65087 
    3150     40.58616     40.58616     40.58616   -139.20709   -192.50871   -101.44303   -123.66954   -13344.288    181.70558 
    3200    40.583126    40.583126    40.583126    56.470964   -25.412669    83.361277    111.46428   -13346.768    187.67676 
    3250    40.583178    40.583178    40.583178    204.00187     155.8118    138.40341     317.7904   -13343.904    183.27705 
    3300    40.587886    40.587886    40.587886   -210.56234   -372.97555   -88.277126   -170.43432    -13345.07    186.68856 
    3350    40.586884    40.586884    40.586884   -9.5916081    -70.16994   -18.018907    59.414023   -13343.443    184.69499 
    3400    40.585137    40.585137    40.585137   -5.6735674   -170.63926    45.346205    108.27235   -13346.359    191.48114 
    3450    40.585751    40.585751    40.585751    10.921466   -97.115729     72.95787    56.922257   -13344.017    188.10145 
    3500    40.588008    40.588008    40.588008   -73.032517   -198.26684   -60.988227    40.157519   -13344.626     190.4327 
    3550     40.58727     40.58727     40.58727   -57.452873   -70.858448    6.4812587   -107.98143     -13342.5    187.47461 
    3600    40.585476    40.585476    40.585476    111.46219    99.480491    58.816469    176.08962   -13342.375    188.37242 
    3650    40.587192    40.587192    40.587192   -4.3312091   -13.558652   -45.356603    45.921628   -13342.027    188.84519 
    3700    40.588808    40.588808    40.588808   -27.048937   -82.949701   -12.785682    14.588573   -13342.513    190.94801 
    3750    40.588677    40.588677    40.588677   -5.6363805    43.753328   -55.101318   -5.5611518   -13342.311     191.7075 
    3800    40.587814    40.587814    40.587814    22.870649   -94.656391    158.21704     5.051301   -13342.304    192.84542 
    3850    40.588465    40.588465    40.588465    105.93543    53.801958    77.979799    186.02454   -13339.385    188.32772 
    3900     40.59039     40.59039     40.59039   -63.369784    39.825344   -165.59714   -64.337551   -13340.265    191.19058 
    3950    40.589352    40.589352    40.589352    27.730292    -115.9647    113.54824    85.607335   -13340.454    192.69945 
    4000     40.58844     40.58844     40.58844    63.363777    18.804645    37.038107    134.24858   -13340.489    193.91336 
    4050    40.589579    40.589579    40.589579    52.009453    26.369958    47.251779    82.406622   -13339.237    192.63971 
    4100    40.591756    40.591756    40.591756   -70.659376   -82.298251   -72.636828   -57.043049   -13342.975    201.02293 
    4150    40.591472    40.591472    40.591472   -58.021539   -168.01711   -23.351262     17.30375   -13338.544    193.58578 
    4200    40.589703    40.589703    40.589703    126.93851    102.79884     29.41234    248.60434   -13337.076    191.88783 
    4250    40.590681    40.590681    40.590681   -7.7248451   -97.142003    69.114342     4.853125   -13339.859    198.41584 
    4300    40.592617    40.592617    40.592617   -98.864812   -133.78784   -92.426236   -70.380359   -13339.713    199.27524 
    4350    40.591744    40.591744    40.591744    29.342988   -18.711002    116.78002   -10.040051   -13337.248    195.64879 
    4400    40.591165    40.591165    40.591165    6.8764184   -66.957669    32.234066    55.352858   -13340.044    202.20115 
    4450    40.592424    40.592424    40.592424   -2.0289332    31.200209   -33.629673   -3.6573357    -13337.87    199.13281 
    4500    40.593947    40.593947    40.593947   -65.175279    36.814019   -96.362172   -135.97768   -13337.396    199.34843 
    4550    40.592657    40.592657    40.592657   -64.671299   -161.84343   -86.479006    54.308537     -13338.2    202.04843 
    4600    40.590571    40.590571    40.590571    251.30497    324.77679    283.97936    145.15876   -13335.437    197.83372 
    4650    40.594598    40.594598    40.594598   -36.190793   -44.501676    9.5441099   -73.614815   -13336.269    200.58192 
    4700     40.59658     40.59658     40.59658   -162.27416   -160.80342   -176.80002   -149.21904   -13336.176    201.53967 
    4750    40.593244    40.593244    40.593244    70.990447    97.853555    215.82784   -100.71006   -13336.681    203.64596 
    4800    40.592539    40.592539    40.592539    95.346151    179.24169   -85.647621    192.44438   -13336.578    204.57936 
    4850     40.59574     40.59574     40.59574     5.521856   -107.52989    58.795258    65.300204   -13334.962    202.58636 
    4900    40.597688    40.597688    40.597688   -205.15165   -36.952234   -233.08786   -345.41486   -13335.614    204.97773 
    4950     40.59328     40.59328     40.59328    157.80595    77.811163    150.23607    245.37062   -13333.534    202.08505 
    5000    40.593348    40.593348    40.593348    185.42465    268.69176    244.96348    42.618715   -13334.254    204.59856 
    5050      40.5988      40.5988      40.5988   -114.67563   -164.94149   -168.54009   -10.545295   -13334.005    205.24128 
    5100    40.599097    40.599097    40.599097   -111.92452   -8.3492997   -166.89516   -160.52911   -13332.474      203.411 
    5150    40.594585    40.594585    40.594585    94.746814    100.60661    86.431252    97.202574   -13334.973    209.36469 
    5200    40.594326    40.594326    40.594326    199.94851    276.24699     225.6593    97.939238   -13334.963    210.46836 
    5250    40.599756    40.599756    40.599756   -88.099541   -114.03861    -108.8475   -41.412518    -13330.24     202.4616 
    5300    40.600178    40.600178    40.600178   -145.35418   -137.93475   -211.36354   -86.764228   -13332.955    208.82814 
    5350    40.595527    40.595527    40.595527    222.46614    257.52104    319.90421    89.973178   -13332.076    208.24846 
    5400    40.596461    40.596461    40.596461    151.87538    180.99275    165.34402    109.28938   -13331.555    208.35368 
    5450    40.601459    40.601459    40.601459   -137.42433    -284.4864   -31.314299   -96.472274   -13330.993    208.37632 
    5500    40.601524    40.601524    40.601524    -225.4565   -158.06679    -298.1839   -220.11882   -13333.451    214.24496 
    5550    40.595932    40.595932    40.595932    181.81602    236.15959    219.85222    89.436245   -13332.612    213.73772 
    5600    40.596744    40.596744    40.596744    160.13101    97.543654    129.46141    253.38797   -13330.981    211.69285 
    5650    40.602375    40.602375    40.602375   -120.63974   -160.67097   -123.75821   -77.490033   -13328.939    208.84998 
    5700    40.602363    40.602363    40.602363    -130.8247   -146.82107   -93.786368   -151.86667   -13330.985    213.91761 
    5750    40.597662    40.597662    40.597662    249.35047    130.80936    255.58366    361.65838   -13329.338    211.83629 
    5800     40.59928     40.59928     40.59928    81.318285    68.639849    219.97849   -44.663489    -13329.54    213.33443 
    5850     40.60349     40.60349     40.60349   -206.48085   -199.18049   -194.75524    -225.5068   -13331.028    217.31528 
    5900     40.60277     40.60277     40.60277   -126.08597   -246.07056   -19.091867   -113.09549   -13329.472    215.39005 
    5950    40.598718    40.598718    40.598718    257.33352    268.48528    352.01075    151.50454   -13327.616    212.90868 
    6000     40.60049     40.60049     40.60049    87.944359    105.55927   -19.133679    177.40749   -13327.338    213.46338 
    6050    40.604119    40.604119    40.604119   -149.98805   -196.70954   -73.085364   -180.16924   -13330.211    220.12516 
    6100    40.602645    40.602645    40.602645   -29.663614    20.595177   -129.22663    19.640612   -13327.678    216.31556 
    6150    40.600306    40.600306    40.600306    91.813953   -55.054868    203.16704    127.32968   -13329.972    221.83975 
    6200    40.602157    40.602157    40.602157     20.76438    20.145628    68.978983    -26.83147    -13326.57    216.34477 
    6250    40.605048    40.605048    40.605048   -123.32104   -71.324498   -229.49295   -69.145688   -13327.294    218.82892 
    6300    40.603552    40.603552    40.603552    35.832868   -74.942198    205.30435   -22.863554   -13327.381     220.0917 
    6350    40.602637    40.602637    40.602637    52.670851    168.89309   -65.824795     54.94426   -13327.853    222.08854 
    6400    40.604673    40.604673    40.604673   -52.904745   -241.48929    83.239813  -0.46475506   -13327.183    221.87009 
    6450    40.605579    40.605579    40.605579   -104.81736   -19.078714   -201.82034    -93.55303   -13326.923     222.4441 
    6500    40.604133    40.604133    40.604133    40.881148   -145.45144   -28.337638    296.43252    -13326.76    223.19732 
    6550    40.604151    40.604151    40.604151    24.526885    29.053679    82.097053   -37.570076   -13324.638    220.16537 
    6600    40.605703    40.605703    40.605703    40.819181   -23.870173    32.190357    114.13736   -13325.132    222.20031 
    6650     40.60682     40.60682     40.60682    23.418082   -43.813205    285.90063   -171.83318     -13323.3     219.7293 
    6700    40.606233    40.606233    40.606233   -5.6373836   -33.950947   -16.605672    33.644469   -13325.532    225.11785 
    6750    40.605339    40.605339    40.605339    114.22116    8.7424073    113.60315    220.31793   -13324.774    224.71567 
    6800    40.606608    40.606608    40.606608   -96.247953   -118.89142   -52.164433     -117.688   -13324.678    225.58534 
    6850    40.607218    40.607218    40.607218   -130.24718   -172.68659   -115.09089   -102.96406   -13327.339    231.78746 
    6900     40.60677     40.60677     40.60677    41.124983   -40.329051    143.46554    20.238459   -13323.748    225.90163 
    6950    40.607397    40.607397    40.607397   -37.536602   -62.300657   -100.36178    50.052627   -13326.005    231.33283 
    7000    40.608082    40.608082    40.608082   -20.172399    -23.45304    69.283432   -106.34759   -13321.787    224.22078 
    7050    40.608688    40.608688    40.608688   -87.689973   -63.468114   -82.488665   -117.11314   -13324.235    229.99891 
    7100    40.607885    40.607885    40.607885   -1.3188938   -16.296791    48.991623   -36.651513    -13323.22    229.08639 
    7150    40.608113    40.608113    40.608113    19.354517    44.123013   -56.703766    70.644303   -13323.216    230.12758 
    7200    40.609742    40.609742    40.609742   -72.962804   -97.543203    11.246612   -132.59182   -13323.449    231.62278 
    7250     40.61023     40.61023     40.61023    52.009492    3.7726008    75.368564    76.887311   -13321.178    228.27451 
    7300     40.60992     40.60992     40.60992   -74.776785    -19.85683   -183.45999   -21.013539   -13321.815    230.53895 
    7350    40.608559    40.608559    40.608559    150.14519    125.55316    182.99069     141.8917    -13319.85    227.77231 
    7400     40.61098     40.61098     40.61098   -38.411225    -21.82728   -60.097008   -33.309386   -13321.429    231.85579 
    7450    40.612514    40.612514    40.612514   -123.84236   -223.95617   -37.710702   -109.86021   -13322.877    235.68483 
    7500    40.610479    40.610479    40.610479    -5.229225   -92.357819    3.1542359    73.515908    -13321.08     233.2444 
    7550    40.608858    40.608858    40.608858    221.47145    156.58545    266.87352    240.95539   -13319.655    231.50486 
    7600    40.612588    40.612588    40.612588   -43.986555   -65.626882    11.347357    -77.68014   -13319.676    232.57213 
    7650    40.614415    40.614415    40.614415    9.2732898   -68.932587    128.33655   -31.584097   -13317.272    228.93303 
    7700    40.612767    40.612767    40.612767   -105.36624   -63.805198   -146.51546   -105.77807   -13319.634    234.52119 
    7750     40.60828     40.60828     40.60828    195.06521    198.58122    243.99678    142.61765    -13320.51    237.23341 
    7800    40.611439    40.611439    40.611439    13.003166    84.445068   -59.408387    13.972818   -13320.165    237.56602 
    7850    40.616097    40.616097    40.616097   -192.63512   -125.08113    -158.8922   -293.93203    -13316.98    232.40948 
    7900    40.614434    40.614434    40.614434   -65.714677   -180.08101   -50.223929    33.160903   -13319.652     238.5809 
    7950     40.61085     40.61085     40.61085    58.937062    100.20411    131.46255   -54.855484   -13320.478    241.18666 
    8000    40.612636    40.612636    40.612636    63.742029    46.920329    108.89226    35.413498   -13317.976    237.33168 
    8050    40.617038    40.617038    40.617038    -200.2971   -221.58314   -267.46903   -111.83911   -13317.486    237.39289 
    8100    40.614287    40.614287    40.614287   -35.492755   -68.224924    6.0128805   -44.266223    -13318.85    241.02251 
    8150    40.611359    40.611359    40.611359    235.83394    253.88362    199.71561    253.90259   -13316.451    237.36413 
    8200    40.615794    40.615794    40.615794   -70.045274   -136.51241    120.43035   -194.05376   -13318.217     241.7694 
    8250    40.618353    40.618353    40.618353   -102.85236    28.884247   -165.85623   -171.58509   -13314.293    235.15731 
    8300    40.615315    40.615315    40.615315    25.028848   -148.35444    199.69219    23.748787   -13316.226    239.87319 
    8350    40.612256    40.612256    40.612256    169.91859     260.1047    140.68548    108.96558   -13316.646     241.6649 
    8400    40.614714    40.614714    40.614714    145.73318    6.6310209    135.37603     295.1925   -13313.399    236.35611 
    8450    40.619308    40.619308    40.619308   -287.42572   -228.15403   -183.20555   -450.91757   -13317.796    245.83182 
    8500    40.616018    40.616018    40.616018   -31.506151    -66.67188   -106.49557    78.648996   -13315.532    242.41559 
    8550    40.612214    40.612214    40.612214    273.98544    268.93792    324.31183    228.70658   -13315.177    242.69966 
    8600     40.61684     40.61684     40.61684   -144.14162   -299.85399    26.823826   -159.39471   -13317.026    247.22975 
    8650    40.619677    40.619677    40.619677   -69.545105   -190.12528   -21.673688    3.1636504    -13313.81    241.96924 
    8700    40.618835    40.618835    40.618835   -117.09238   -41.688401   -88.598571   -220.99018   -13314.721    244.67802 
    8750    40.615679    40.615679    40.615679    184.38766    23.359013    268.38708    261.41687   -13312.658    241.64183 
    8800    40.616094    40.616094    40.616094    42.864709    40.896291    79.843352    7.8544841   -13313.988    245.16478 
    8850    40.618115    40.618115    40.618115   -31.100091   -15.438839    14.191911   -92.053347   -13314.317    246.73743 
    8900    40.619229    40.619229    40.619229   -202.00691   -72.092368   -272.49147    -261.4369   -13315.563    250.09023 
    8950    40.616943    40.616943    40.616943    114.04887    18.688644     206.4336    117.02438   -13312.171    244.46083 
    9000    40.618286    40.618286    40.618286     -4.44375   -99.212793    101.19907   -15.317528   -13315.892    252.59698 
    9050    40.620457    40.620457    40.620457   -43.259163    32.302749    -88.73581   -73.344428   -13311.378    244.78653 
    9100    40.620384    40.620384    40.620384   -45.492141   -167.63248   -31.602153    62.758209   -13312.205    247.31518 
    9150    40.617904    40.617904    40.617904    151.57778     226.6222    102.94233    125.16883   -13310.011    243.99242 
    9200    40.618043    40.618043    40.618043    72.828262    38.682205    42.181664    137.62092   -13311.674    248.13128 
    9250    40.619943    40.619943    40.619943    -83.58065    -148.3193   -70.435172   -31.987475   -13311.364    248.44628 
    9300    40.619869    40.619869    40.619869    116.32177     119.2038    22.332191    207.42931   -13311.887     250.3716 
    9350    40.620937    40.620937    40.620937   -23.127899   -211.03895    42.191206     99.46405   -13310.907    249.37191 
    9400    40.621956    40.621956    40.621956   -108.36369    54.013523   -306.69278   -72.411818   -13310.972    250.39682 
    9450     40.62109     40.62109     40.62109    121.24673     27.99304    165.46892    170.27822   -13308.702    246.90344 
    9500    40.621777    40.621777    40.621777   -79.853305   -93.117717   -172.08525    25.643053   -13312.343    254.85041 
    9550    40.621298    40.621298    40.621298    74.711469   -88.825631    164.38021    148.57983   -13310.741    252.65351 
    9600    40.623348    40.623348    40.623348   -97.997743   -46.376012   -79.244785   -168.37243   -13310.953    253.94292 
    9650    40.623982    40.623982    40.623982   -93.879067   -107.97793   -147.14784   -26.511431   -13309.969    252.92894 
    9700    40.622196    40.622196    40.622196    18.815616   -110.38555    190.35939   -23.526989   -13311.202    256.19612 
    9750    40.621943    40.621943    40.621943    66.046892    55.797935    17.663317    124.67942   -13308.965    252.74489 
    9800    40.623814    40.623814    40.623814    29.167734   -259.25472    216.92436    129.83357   -13308.878    253.44777 
    9850    40.625294    40.625294    40.625294    -204.8633   -203.76759   -324.40282   -86.419505   -13310.928    258.28204 
    9900    40.622613    40.622613    40.622613    141.27495    116.13068    207.37978    100.31439    -13307.28    252.08316 
    9950    40.623676    40.623676    40.623676    2.5823879    71.901244   -163.54135    99.387266   -13310.313    258.81671 
   10000    40.626334    40.626334    40.626334   -43.024195   -29.215518    41.078842   -140.93591   -13306.175    251.67135 
   10050    40.625943    40.625943    40.625943   -110.01873   -261.74927   -94.719828    26.412923   -13309.039    258.07029 
   10100    40.622009    40.622009    40.622009    196.14297    35.083709    507.72071    45.624488   -13308.283    257.45768 
   10150    40.624258    40.624258    40.624258     153.4669    69.952586    39.564499    350.88362   -13305.767    253.43304 
   10200      40.6294      40.6294      40.6294   -267.95124   -509.96754   -156.22322   -137.66297   -13308.654     259.8573 
   10250    40.626558    40.626558    40.626558    135.65143    306.64452    6.7790989    93.530682   -13303.946     251.5854 
   10300    40.624478    40.624478    40.624478   -32.100237   -82.623618   -58.814677    45.137584    -13309.14    262.46981 
   10350    40.623977    40.623977    40.623977    173.11953    205.96922    251.65974    61.729628   -13305.254    255.78237 
   10400    40.627432    40.627432    40.627432   -210.66265   -221.37169   -244.40845    -166.2078   -13309.223    264.29489 
   10450    40.627207    40.627207    40.627207   -25.624608   -116.97811    90.950049   -50.845765   -13305.986    258.84814 
   10500    40.626225    40.626225    40.626225    5.7717393   -54.936078   -90.644727    162.89602   -13306.792     261.2218 
   10550    40.626046    40.626046    40.626046    107.47485    111.07811    301.89278   -90.546354    -13304.63    257.85414 
   10600    40.628577    40.628577    40.628577    -7.387416    75.618612   -22.340435   -75.440425   -13304.897    259.17906 
   10650    40.629759    40.629759    40.629759   -75.247666    29.431705   -82.412367   -172.76234   -13304.733    259.67141 
   10700    40.627367    40.627367    40.627367     43.27951   -22.976049    158.92821   -6.1136352   -13306.023    262.97299 
   10750    40.626082    40.626082    40.626082    93.955932    127.90684    155.05297   -1.0920074   -13304.824    261.44856 
   10800    40.629135    40.629135    40.629135   -47.541245   -230.77307   -26.530055    114.67939   -13305.331    263.20975 
   10850    40.630491    40.630491    40.630491   -215.95644   -346.93939   -105.67987   -195.25005   -13305.902    265.11287 
   10900    40.626173    40.626173    40.626173    150.18677    75.733102    156.64064    218.18657    -13303.84    261.90745 
   10950    40.626219    40.626219    40.626219     148.4276    338.73473    30.169188    76.378891   -13304.387    263.75015 
   11000    40.629648    40.629648    40.629648   -1.6954158    -243.5188    113.79226    124.64029   -13303.057    261.95437 
   11050    40.631254    40.631254    40.631254   -211.11242   -399.90245   -151.94868   -81.486115   -13305.504    267.45518 
   11100    40.628767    40.628767    40.628767    -11.15389   -21.132104   -16.980644    4.6510779   -13304.423    266.12809 
   11150    40.627291    40.627291    40.627291    41.553175   -38.672061    171.48894   -8.1573581   -13304.374    266.80264 
   11200     40.62899     40.62899     40.62899    84.644061   -1.7125898   -37.833827     293.4786    -13302.58    264.09078 
   11250    40.631457    40.631457    40.631457   -200.73308   -322.81811   -188.04879   -91.332336   -13303.703    267.02276 
   11300    40.628398    40.628398    40.628398    145.99565    312.01631    47.525359    78.445274   -13301.473    263.45832 
   11350    40.628023    40.628023    40.628023    111.61208    21.917033    145.54315    167.37606   -13302.558    266.30384 
   11400    40.631237    40.631237    40.631237   -64.783142    -155.2431   -35.135433   -3.9708893   -13301.918    265.80616 
   11450    40.632628    40.632628    40.632628   -14.323194   -80.259659   -32.750828    70.040904   -13300.893    264.56856 
   11500    40.631127    40.631127    40.631127   -9.1505278   -173.83469    43.496976    102.88613   -13301.424    266.33075 
   11550    40.629221    40.629221    40.629221    122.03751    150.26605    121.86387     93.98261   -13302.148    268.46569 
   11600    40.630493    40.630493    40.630493    72.495774   -192.91239    114.83845    295.56126   -13300.946    266.85955 
   11650    40.634163    40.634163    40.634163   -169.18897   -86.303673   -84.925138   -336.33811    -13302.67    270.91136 
   11700    40.633548    40.633548    40.633548   -74.036131   -209.11408   -125.48167    112.48736   -13300.705    267.82514 
   11750    40.630966    40.630966    40.630966    8.1541186   -60.443881    112.59635   -27.690113   -13302.378    271.76797 
   11800    40.630819    40.630819    40.630819    19.799292   -97.004375    20.731437    135.67081   -13302.241     272.2189 
   11850    40.633113    40.633113    40.633113   -63.972119   -74.503945   -116.45432   -0.9580928   -13300.403    269.36201 
   11900     40.63356     40.63356     40.63356    -89.12184    7.1174621   -44.757763   -229.72522   -13299.984    269.25808 
   11950    40.631703    40.631703    40.631703    100.48968   -5.8943226    111.20783    196.15553   -13301.243    272.38787 
   12000     40.63312     40.63312     40.63312   -82.964029    54.249197   -144.71454   -158.42674   -13301.409    273.40148 
   12050    40.633349    40.633349    40.633349   -102.24053   -215.68194   -121.13967     30.10002   -13301.957    275.14764 
   12100     40.63201     40.63201     40.63201    78.030115    129.35972   -42.004434    146.73505   -13300.167    272.36503 
   12150    40.633113    40.633113    40.633113    39.834869    55.384491    27.601262    36.518854   -13299.361    271.47784 
   12200    40.635573    40.635573    40.635573   -52.659384   -162.27524   -66.415728    70.712814   -13298.586    270.64933 
   12250    40.635561    40.635561    40.635561   -117.09265    -110.1947   -27.582649    -213.5006   -13300.919    275.82924 
   12300    40.633157    40.633157    40.633157    147.45904    61.108028    86.912492    294.35661   -13298.178    271.19284 
   12350    40.634377    40.634377    40.634377    84.392648   -27.676914    122.22693    158.62793   -13298.988    273.41982 
   12400     40.63692     40.63692     40.63692   -83.972469   -158.38065   -41.908594    -51.62816    -13298.59    273.30466 
   12450     40.63633     40.63633     40.63633   -99.133657   -111.33362    23.633406   -209.70075   -13299.078    274.89592 
   12500    40.633852    40.633852    40.633852    82.179848   -124.83629    120.23539    251.14044    -13298.97    275.33419 
   12550     40.63534     40.63534     40.63534    104.60361     158.1997   -1.5074903    157.11863   -13297.538    273.20584 
   12600    40.638505    40.638505    40.638505   -226.30182   -376.71159   -109.79154   -192.40234   -13298.738    276.16735 
   12650    40.635381    40.635381    40.635381    53.671664    59.711662   -26.497422    127.80075   -13299.382    278.04099 
   12700    40.634906    40.634906    40.634906    71.166641   -17.457192    75.877452    155.07966    -13298.56    277.07659 
   12750    40.638105    40.638105    40.638105   -61.641518    111.73065   -96.872571   -199.78263   -13297.092    274.86426 
   12800    40.638355    40.638355    40.638355    -9.128185   -251.29642    105.93935    117.97252   -13296.425    274.19859 
   12850    40.636466    40.636466    40.636466    26.341955    49.306016   -39.223005    68.942855    -13296.53    275.01871 
   12900    40.635627    40.635627    40.635627    125.83097  -0.96546979    198.96892    179.48945    -13296.71    275.98214 
   12950    40.638269    40.638269    40.638269    51.161278    36.467105    18.912018    98.104712   -13296.917    276.99111 
   13000    40.640255    40.640255    40.640255   -204.28217   -289.14578   -380.98272    57.281986    -13298.18    280.03817 
   13050    40.637162    40.637162    40.637162    33.747367   -42.788464    174.50541   -30.474845   -13297.139     278.6218 
   13100     40.63519     40.63519     40.63519    295.42262    308.92232    295.14597    282.19956   -13293.363    271.90963 
   13150    40.639572    40.639572    40.639572   -187.94302   -173.06673   -163.18027   -227.58207   -13298.016    281.49836 
   13200    40.640548    40.640548    40.640548     36.16342    -188.4773    201.42611    95.541451   -13294.093    274.49747 
   13250    40.638682    40.638682    40.638682   -91.863325   -251.15076   -189.51549    165.07627   -13297.438    281.54989 
   13300    40.635612    40.635612    40.635612    136.92548    105.47197    279.94793    25.356539   -13296.211    279.75106 
   13350    40.638244    40.638244    40.638244    -22.75516   -103.09586   -52.008524    86.838909   -13297.316    282.46007 
   13400    40.640938    40.640938    40.640938   -274.98028   -240.79512   -379.44901   -204.69671   -13296.358    281.17343 
   13450    40.637952    40.637952    40.637952    215.88869    299.76216    221.48729    126.41663   -13293.828    276.84533 
   13500    40.638122    40.638122    40.638122   -6.8706618   -207.70819    10.907911     176.1883   -13295.034    279.73821 
   13550    40.638149    40.638149    40.638149   -19.609058   -90.088648    60.287533   -29.026061   -13296.955    284.01155 
   13600    40.638118    40.638118    40.638118   -43.696089    -96.78806   -204.48871     170.1885   -13296.149    282.99865 
   13650    40.638622    40.638622    40.638622   -12.184676    -101.8831    15.831663    49.497406   -13294.577    280.50225 
   13700     40.63951     40.63951     40.63951    14.318189    9.2394548   -60.026636    93.741748   -13293.807    279.55312 
   13750    40.639425    40.639425    40.639425    45.043426   -33.070987   -117.61034     285.8116     -13293.8    280.07524 
   13800    40.638859    40.638859    40.638859    92.432231    135.36701   -8.7326955    150.66238   -13292.975    279.01535 
   13850    40.638952    40.638952    40.638952     53.82608   -83.297294    98.646093    146.12944   -13294.326    282.15418 
   13900    40.640265    40.640265    40.640265    37.346523   -24.967854    58.834832    78.172592    -13293.98    282.00592 
   13950    40.642535    40.642535    40.642535   -130.06678   -111.77175   -120.68607   -157.74251   -13295.109    284.70793 
   14000    40.641198    40.641198    40.641198   -74.135085   -360.09429    19.589248    118.09979   -13293.713    282.51738 
   14050    40.638962    40.638962    40.638962    48.459395    80.157439   -11.547438    76.768186   -13295.801     287.0731 
   14100     40.63976     40.63976     40.63976    35.717082    44.974187   -11.557384    73.734443   -13293.946    283.99038 
   14150    40.641196    40.641196    40.641196    18.466295   -28.136213    161.73079   -78.195686   -13291.965    280.66253 
   14200    40.641439    40.641439    40.641439   -69.978279   -168.40739   -66.650096    25.122651   -13294.575    286.20523 
   14250    40.641504    40.641504    40.641504    45.240225    49.347187   -108.56429    194.93777   -13293.882    285.35334 
   14300    40.642008    40.642008    40.642008    63.802372   -19.342917    27.201355    183.54868   -13290.266    278.84949 
   14350    40.641955    40.641955    40.641955    12.766336    -40.52017   -183.86934    262.68851   -13293.045    284.71118 
   14400    40.641279    40.641279    40.641279    -7.426823    -139.9577    -23.07465    140.75188   -13294.894    288.77305 
   14450    40.640998    40.640998    40.640998    119.14943    117.65439    139.48567    100.30823   -13291.227    282.15084 
   14500    40.643865    40.643865    40.643865   -48.741484    1.5890895   -106.88368   -40.929865   -13292.362    284.81695 
   14550    40.643055    40.643055    40.643055   -30.655585   -228.77229    81.946225    54.859311   -13292.369    285.29561 
   14600    40.640702    40.640702    40.640702    55.065375    36.605258   -21.705334     150.2962   -13293.101    287.17323 
   14650    40.641586    40.641586    40.641586    45.541334    110.69377   -106.17962    132.10986   -13291.985    285.47311 
   14700    40.644073    40.644073    40.644073   -102.79054   -29.685558   -132.62824   -146.05781   -13292.975    287.84078 
   14750     40.64365     40.64365     40.64365    21.782858    12.237956   -36.725832    89.836451   -13290.808    284.10441 
   14800    40.641677    40.641677    40.641677     105.6232    47.936308    51.938799    216.99448   -13291.723    286.32368 
   14850    40.642294    40.642294    40.642294    60.854865   -2.9791381    13.640868    171.90287   -13292.136    287.56372 
   14900    40.645155    40.645155    40.645155   -161.87668   -69.799396   -327.68714   -88.143489   -13292.946     289.5709 
   14950    40.644529    40.644529    40.644529   -38.884841   -174.80846   -1.1907168    59.344651    -13291.48    287.17126 
   15000    40.641428    40.641428    40.641428    173.46335    402.50092   -35.962876    153.85199   -13290.766    286.22173 
   15050    40.640852    40.640852    40.640852    138.29891     110.2363    315.78779   -11.127355   -13290.048    285.25234 
   15100    40.644572    40.644572    40.644572    44.642817     7.206304     19.19482    107.52733   -13289.322    284.26706 
   15150    40.646842    40.646842    40.646842   -270.17232   -407.13715   -260.89165   -142.48816   -13291.691    289.27243 
   15200    40.641793    40.641793    40.641793    155.42963    186.61988    158.88942     120.7796   -13291.062    288.46632 
   15250    40.641451    40.641451    40.641451    115.23796    100.15465    63.356238    182.20301   -13291.846     290.3933 
   15300     40.64577     40.64577     40.64577   -171.72638   -41.223059   -125.89436   -348.06171   -13292.751    292.55264 
   15350    40.646479    40.646479    40.646479   -207.16845   -200.57139   -340.58579   -80.348191   -13292.046    291.58742 
   15400    40.642655    40.642655    40.642655    165.09066    169.90155    157.21727    168.15315   -13289.108    286.30173 
   15450    40.643509    40.643509    40.643509    -57.16138    15.650184   -136.13062   -51.003702   -13294.515    297.15918 
   15500    40.645388    40.645388    40.645388   -13.979101    110.23772   -64.992248    -87.18278   -13289.006    286.88574 
   15550    40.645943    40.645943    40.645943   -137.46745   -206.10941   -76.983348   -129.30959   -13290.541     290.2397 
   15600    40.643242    40.643242    40.643242    155.95856    316.05948   -48.728759    200.54495   -13290.281    290.12193 
   15650     40.64391     40.64391     40.64391    156.01795    137.66095    131.14775    199.24515    -13287.83    285.75819 
   15700     40.64688     40.64688     40.64688   -156.26926    45.105452   -213.19296   -300.72025    -13291.38    292.99985 
   15750    40.645797    40.645797    40.645797   -106.56109   -175.05048   -92.270732   -52.362048   -13290.481    291.62679 
   15800    40.642497    40.642497    40.642497    174.86797    191.79697    49.174543    283.63239   -13289.925    290.91405 
   15850    40.643632    40.643632    40.643632     269.0543    192.05406    203.09951    412.00931   -13286.942    285.49736 
   15900    40.650106    40.650106    40.650106   -293.28172   -161.35205   -292.76216   -425.73096   -13290.071    291.90805 
   15950    40.647772    40.647772    40.647772   -143.17399   -256.97632   -69.682061    -102.8636    -13290.75    293.57629 
   16000    40.641675    40.641675    40.641675    253.78648    295.70362    67.133569    398.52225   -13290.012    292.50096 
   16050    40.644787    40.644787    40.644787     63.78205    56.814403    173.27375   -38.742006   -13289.313    291.48931 
   16100    40.648707    40.648707    40.648707   -52.112391   -46.956314   -203.36448     93.98362   -13286.478    286.34902 
   16150    40.647064    40.647064    40.647064   -95.363668   -159.63331   -158.67282    32.215127    -13290.73    294.90416 
   16200    40.644213    40.644213    40.644213    261.13987    197.90253    232.03348     353.4836    -13286.47    286.99364 
   16250    40.647377    40.647377    40.647377   -82.620911   -50.363494     -189.325   -8.1742347   -13290.233    294.60803 
   16300    40.648146    40.648146    40.648146   -267.93025    -377.0783   -114.60523   -312.10723   -13292.103    298.54704 
   16350    40.644931    40.644931    40.644931    175.21666    232.52755    67.876912    225.24552   -13287.833    290.60816 
   16400    40.646836    40.646836    40.646836    -72.52397    37.790562   -111.69022   -143.67225   -13290.103    295.31692 
   16450    40.646625    40.646625    40.646625    96.349739    19.608582    194.24525     75.19539   -13287.105    289.82967 
   16500    40.646251    40.646251    40.646251   -15.977703    144.67221   -97.273897   -95.331421   -13288.804    293.42132 
   16550    40.645645    40.645645    40.645645    99.383718    189.43143   -6.1616879    114.88141    -13287.44    291.07726 
   16600    40.647314    40.647314    40.647314   -55.460978   -7.5941199   -156.08326   -2.7055553   -13288.809    294.02448 
   16650    40.647748    40.647748    40.647748   -98.740007   -98.761818   -76.155316   -121.30289   -13288.372    293.47715 
   16700    40.645676    40.645676    40.645676    52.406279    30.681594    78.873626    47.663616   -13289.983    296.89018 
   16750     40.64578     40.64578     40.64578    56.694588    186.10452   -57.026686     41.00593   -13287.124    291.64988 
   16800    40.647047    40.647047    40.647047   -39.460953    -13.16702    -183.2182    78.002356    -13288.87    295.31578 
   16850    40.646993    40.646993    40.646993    22.492313      19.5287   -58.694861     106.6431   -13288.588    295.05085 
   16900    40.647499    40.647499    40.647499    119.36353    130.96179    247.76109   -20.632311   -13284.796    287.98858 
   16950    40.648421    40.648421    40.648421   -40.103614    129.00757   -224.97522   -24.343195   -13288.493    295.41577 
   17000    40.648083    40.648083    40.648083   -91.482542   -112.14582   -18.537678   -143.76413   -13289.666    297.95403 
   17050    40.646504    40.646504    40.646504    67.137842    81.407197   -184.80347    304.80979   -13286.878    292.82469 
   17100    40.647202    40.647202    40.647202   -5.4796265   -151.52582    134.13816   0.94877636   -13289.404      297.974 
   17150    40.648075    40.648075    40.648075   -54.640082    152.34281    -217.9929   -98.270156   -13287.326    294.21477 
   17200    40.647845    40.647845    40.647845   -43.068928   -6.0792471   -6.2737867   -116.85375   -13288.331    296.41633 
   17250    40.647541    40.647541    40.647541   -35.854865   -242.21458    65.811225     68.83876   -13287.848    295.73792 
   17300    40.645982    40.645982    40.645982    87.593221     107.5231   -90.160046    245.41661   -13287.619    295.54193 
   17350    40.647549    40.647549    40.647549   -86.821904    41.587226   -196.84776   -105.20518   -13288.442    297.37609 
   17400    40.648415    40.648415    40.648415    31.072364   -127.08117   -17.952388    238.25065   -13286.927    294.69063 
   17450    40.649047    40.649047    40.649047   -49.963738    191.77261   -162.70098   -178.96285    -13287.34    295.72244 
   17500    40.648755    40.648755    40.648755    25.318149   -198.26422    160.49211    113.72656    -13287.01    295.32035 
   17550    40.648169    40.648169    40.648169   -31.981097   -127.09624   -80.295057    111.44801   -13287.517    296.53567 
   17600    40.647012    40.647012    40.647012    14.393181    117.99083    -3.995579    -70.81571   -13288.474    298.61715 
   17650    40.646863    40.646863    40.646863    154.46354    206.28806    81.058718    176.04383   -13285.007    292.13074 
   17700    40.650231    40.650231    40.650231   -119.86262   -28.579161   -102.66782   -228.34087   -13288.644     299.3865 
   17750    40.650492    40.650492    40.650492   -152.18985   -63.394378   -104.88247    -288.2927   -13287.578    297.54437 
   17800    40.646704    40.646704    40.646704    105.31222    378.62145     123.2615   -185.94629   -13286.584     295.8386 
   17850    40.647128    40.647128    40.647128     105.0797   -104.27366    220.76359    198.74919   -13287.686    298.18107 
   17900     40.65079     40.65079     40.65079   -188.27438    114.76004   -479.07218     -200.511   -13288.153    299.29555 
   17950    40.649023    40.649023    40.649023   -3.0128596   -94.354352    184.13144   -98.815666   -13286.286    295.88209 
   18000    40.646304    40.646304    40.646304    211.54267    302.86847    178.97823    152.78132   -13286.163    295.84191 
   18050    40.648835    40.648835    40.648835    62.885954    120.04611    30.397164    38.214592   -13284.559    292.92676 
   18100    40.651268    40.651268    40.651268    -128.3895   -114.08516   -139.75831   -131.32502   -13286.559    296.98863 
   18150    40.648732    40.648732    40.648732   -67.323861   -29.420278   -137.29469   -35.256617   -13287.825    299.62408 
   18200     40.64618     40.64618     40.64618    264.35231    205.61073    519.27405    68.172159    -13285.34    295.00352 
   18250    40.649788    40.649788    40.649788   -131.21298   -60.227247    -310.1447   -23.267002   -13287.617    299.59013 
   18300     40.65096     40.65096     40.65096   -61.568837   -148.14242   -85.932969    49.368877   -13284.701    294.12507 
   18350    40.649388    40.649388    40.649388   -151.84473   -6.6804386   -250.69286   -198.16088   -13289.846    304.25397 
   18400    40.646164    40.646164    40.646164    149.56603    224.49587   -64.297529    288.49975   -13285.243    295.52155 
   18450    40.648241    40.648241    40.648241    21.637746    127.15835    198.06382   -260.30894   -13287.369    299.80051 
   18500    40.650975    40.650975    40.650975   -83.603035   -79.786513   -202.72811    31.705514   -13284.706    294.80769 
   18550    40.650053    40.650053    40.650053   -103.19362   -221.97483   -136.30639    48.700362    -13286.98    299.36695 
   18600    40.646683    40.646683    40.646683    73.322443    169.89288   -152.85682    202.93127   -13287.613     300.7437 
   18650    40.647247    40.647247    40.647247    140.59666    82.431415   -20.049755    359.40833   -13285.009    295.85635 
   18700    40.652231    40.652231    40.652231   -129.13814   -182.50186   -207.10436    2.1918073   -13285.066    296.11787 
   18750    40.651241    40.651241    40.651241   -53.248417   -91.936891    -77.74927    9.9409113   -13285.572    297.24556 
   18800    40.646451    40.646451    40.646451    138.63506    126.03133   -3.6708042    293.54464   -13286.427    299.04108 
   18850    40.648211    40.648211    40.648211   -40.335553    -36.48404   -113.89126    29.368644   -13287.108    300.49864 
   18900    40.650598    40.650598    40.650598   -79.690171   -62.916208   -14.119904    -162.0344   -13286.212    298.90666 
   18950    40.649805    40.649805    40.649805    50.820339    83.046646    27.385805    42.028566   -13283.993    294.74822 
   19000    40.648012    40.648012    40.648012    152.07435   -143.94506    250.75811    349.40998   -13284.488    295.83567 
   19050    40.648506    40.648506    40.648506    125.11305    277.49955    8.1259757    89.713637   -13284.642    296.25442 
   19100    40.652049    40.652049    40.652049   -165.19977   -241.77709   -192.26858   -61.553628   -13286.843    300.63432 
   19150    40.651467    40.651467    40.651467   -10.684591   -25.773386   -65.705963    59.425577   -13284.404    296.02927 
   19200    40.649163    40.649163    40.649163      13.9272   -59.948501    111.12143   -9.3913282   -13287.329    301.80314 
   19250    40.648613    40.648613    40.648613    179.09784    234.82658    187.51194      114.955   -13285.538    298.44807 
   19300    40.653614    40.653614    40.653614   -387.97548   -586.27738   -200.58929   -377.05976   -13288.402    304.10239 
   19350     40.64957     40.64957     40.64957     127.9225    27.381741    50.806601    305.57916   -13283.187    294.11566 
   19400     40.64744     40.64744     40.64744    105.34328    51.690171    6.5418397    257.79784   -13286.657     300.9367 
   19450    40.650265    40.650265    40.650265    66.003024    87.782697     66.06854    44.157835   -13285.168    298.15765 
   19500    40.653406    40.653406    40.653406   -146.51119    102.33613   -325.96281   -215.90688   -13285.076     298.0785 
   19550    40.650594    40.650594    40.650594   -22.482672   -127.46817    19.898745    40.121415       -13286     299.9547 
   19600     40.64762     40.64762     40.64762    147.89863    422.06515    12.505872    9.1248657   -13285.213    298.52321 
   19650    40.648633    40.648633    40.648633    30.554312    55.602057   -170.07116    206.13204   -13284.967     298.1344 
   19700    40.650775    40.650775    40.650775   -82.206364   -144.22181    23.326504   -125.72379   -13285.846    299.92163 
   19750    40.650502    40.650502    40.650502   -81.991893   -67.658299   -112.42177    -65.89561    -13286.11    300.51257 
   19800    40.647755    40.647755    40.647755    65.826779    304.63839   -48.476904   -58.681152   -13286.758    301.83623 
   19850    40.649493    40.649493    40.649493   -5.1916587    1.3557038    71.175302   -88.105982   -13285.809    300.07262 
   19900    40.651948    40.651948    40.651948   -181.75015    -211.1575    -451.4743    117.38135   -13286.571    301.62244 
   19950    40.649729    40.649729    40.649729    62.693583    61.887094     234.4993   -108.30565   -13284.692    298.05884 
   20000    40.647999    40.647999    40.647999    86.429456  -0.15424552    133.21395    126.22866   -13285.479      299.651 
Loop time of 217.779 on 4 procs for 20000 steps with 4000 atoms

Pair  time (%) = 191.588 (87.9738)
Neigh time (%) = 0 (0)
Comm  time (%) = 19.5102 (8.95873)
Outpt time (%) = 0.0571617 (0.0262476)
Other time (%) = 6.62322 (3.04126)

Nlocal:    1000 ave 1000 max 1000 min
Histogram: 4 0 0 0 0 0 0 0 0 0
Nghost:    4235 ave 4235 max 4235 min
Histogram: 4 0 0 0 0 0 0 0 0 0
Neighs:    70000 ave 72653 max 67302 min
Histogram: 1 0 1 0 0 0 0 1 0 1
FullNghs:  0 ave 0 max 0 min
Histogram: 4 0 0 0 0 0 0 0 0 0

Total # of neighbors = 280000
Ave neighs/atom = 70
Neighbor list builds = 0
Dangerous builds = 0
unfix 1

# Store final cell length for strain calculations
variable tmp equal "lx"
variable L0 equal ${tmp}
variable L0 equal 40.6479994287183
print "Initial Length, L0: ${L0}"
Initial Length, L0: 40.6479994287183

######################################
# DEFORMATION
reset_timestep	0

fix		1 all npt temp 300 300 1 y 0 0 1 z 0 0 1 drag 1
variable srate equal 1.0e10
variable srate1 equal "v_srate / 1.0e12"
fix		2 all deform 1 x erate ${srate1} units box remap x
fix		2 all deform 1 x erate 0.01 units box remap x

# Output strain and stress info to file
# for units metal, pressure is in [bars] = 100 [kPa] = 1/10000 [GPa]
# p2, p3, p4 are in GPa
variable strain equal "(lx - v_L0)/v_L0"
variable p1 equal "v_strain"
variable p2 equal "-pxx/10000"
variable p3 equal "-pyy/10000"
variable p4 equal "-pzz/10000"
fix def1 all print 20 "${p1} ${p2} ${p3} ${p4}" file  Al99.posRhoR.eam.alloy.def1.txt screen no

# Use cfg for AtomEye
#dump 		1 all cfg 250 dump.tensile_*.cfg id type xs ys zs c_csym c_peratom fx fy fz
#dump_modify 1 element Al

# Display thermo
thermo 	50
thermo_style	custom step v_strain temp v_p2 v_p3 v_p4 ke pe press

run		20000
Memory usage per processor = 3.04301 Mbytes
Step strain Temp p2 p3 p4 KinEng PotEng Press 
       0 -1.7480386e-16      299.651 1.5424552e-05 -0.013321395 -0.012622866    154.89299   -13285.479    86.429456 
      50       0.0005    299.28028  0.049537254  0.027285047  0.028342658    154.70136   -13285.229   -350.54986 
     100        0.001    300.80341   0.10427592  0.036364815  0.019773457    155.48869   -13285.951   -534.71397 
     150       0.0015    301.85335  0.075395026 0.0055142201 -0.021131564    156.03141   -13286.422   -199.25894 
     200        0.002    299.28647   0.13568401 -0.051433611 -0.016417183    154.70456   -13285.013   -226.11071 
     250       0.0025    299.47319   0.15027558 -0.0038332706  0.022965727    154.80108   -13285.024   -564.69344 
     300        0.003    297.64985   0.22204599  0.009206567  0.028065823    153.85858   -13283.991    -864.3946 
     350       0.0035    296.05022   0.22917902 -0.011295908 -0.0065971598    153.03171    -13283.06   -704.28651 
     400        0.004    299.85398   0.24570276    0.0108747 -0.016196404    154.99792   -13284.917    -801.2702 
     450       0.0045    299.66969   0.30497861 -0.0086356487 -0.017706565    154.90265   -13284.702   -928.78798 
     500        0.005    299.30983   0.30362079  0.033632037  0.013624755    154.71664   -13284.396   -1169.5919 
     550       0.0055    300.93482   0.36282578 -0.0021829631 -0.026104433    155.55662    -13285.11   -1115.1279 
     600        0.006    299.86383   0.36473862  0.018307486 0.0090427218    155.00301   -13284.423   -1306.9628 
     650       0.0065    297.80741   0.40628528 -0.032818972 0.0044345444    153.94002   -13283.221   -1259.6695 
     700        0.007    297.59222   0.43972404 -0.018919947  0.011964514    153.82879   -13282.962    -1442.562 
     750       0.0075    297.08569   0.46445125 -0.017541704  0.031323989    153.56696   -13282.544   -1594.1118 
     800        0.008    303.69098   0.51023398 0.0043153541 0.0041416517    156.98131   -13285.796     -1728.97 
     850       0.0085    300.71271   0.53476984   0.01874471 -0.026567465     155.4418   -13284.087   -1756.4903 
     900        0.009    295.67697   0.57619285 0.0041607232 -0.017577041    152.83877   -13281.306   -1875.9218 
     950       0.0095    302.24092    0.6169322  0.042529533 -0.012908493    156.23175   -13284.512   -2155.1775 
    1000         0.01    295.98567   0.62521382 -0.026413599 0.0085482975    152.99835   -13281.091   -2024.4951 
    1050       0.0105    296.49377   0.67380158 -0.0080981782 -0.0047277865    153.26098   -13281.149    -2203.252 
    1100        0.011    297.92845   0.70332723 -0.018347149 0.0015989467    154.00259   -13281.681   -2288.5968 
    1150       0.0115    297.00493   0.72858469 -0.021649758  0.022365596    153.52521   -13280.989   -2431.0018 
    1200        0.012    297.54121   0.76513043  0.009400618 -0.0093547237    153.80242   -13281.044   -2550.5878 
    1250       0.0125    299.26658   0.81434686 -0.007733246 -0.0043998116    154.69428   -13281.707    -2674.046 
    1300        0.013    302.15624    0.8298521  0.043929013 -0.0024464485    156.18798   -13282.961   -2904.4489 
    1350       0.0135    302.11712   0.87452649  0.015465437 -0.013904181    156.16776   -13282.699   -2920.2925 
    1400        0.014    299.95629   0.90634357  0.011135243  -0.01343821     155.0508   -13281.332   -3013.4687 
    1450       0.0145    295.41707   0.91074577 -0.026826401  0.017853864    152.70443   -13278.732   -3005.9108 
    1500        0.015    296.65177   0.95162552  -0.00966434 -0.0034187181    153.34266   -13279.107   -3128.4749 
    1550       0.0155    302.80529   0.99978676 -0.00097660249  0.011370889    156.52348   -13282.017   -3367.2702 
    1600        0.016    299.80289    1.0383466 -0.0065342826  0.015321519    154.97151   -13280.186    -3490.446 
    1650       0.0165    303.50593    1.0854934   0.01892048  0.015315098    156.88565   -13281.813   -3732.4299 
    1700        0.017     301.2652    1.1025179  0.016594165 0.0019689635    155.72739   -13280.362   -3736.9366 
    1750       0.0175    297.17588    1.1061707 -0.022468656 -0.011174698    153.61358    -13277.95   -3575.0911 
    1800        0.018    298.84956    1.1613044 0.0038727588 -0.0044818899    154.47872   -13278.507   -3868.9843 
    1850       0.0185    299.95795     1.194995  0.002074282  0.011405633    155.05166   -13278.769   -4028.2497 
    1900        0.019    300.74185    1.2377293   0.01425248  0.014235007    155.45687   -13278.858   -4220.7225 
    1950       0.0195    297.15105    1.2287105 -0.0034417236 -0.023970752    153.60074   -13276.674   -4004.3269 
    2000         0.02    305.52854     1.282443  0.016189846  0.021597751    157.93116   -13280.669   -4400.7686 
    2050       0.0205    295.34515    1.3055756 -0.015240848 -0.021398051    152.66725   -13275.066   -4229.7889 
    2100        0.021    293.51942    1.3358263 0.0063756183 0.0012065637    151.72351   -13273.773   -4478.0284 
    2150       0.0215    304.17228    1.3812496  0.017799534   0.02617596    157.23009   -13278.922   -4750.7503 
    2200        0.022    291.04224    1.3776654 -0.043033549 -0.037959842    150.44303   -13271.776   -4322.2401 
    2250       0.0225    300.39211    1.4593606 0.0049833634 -0.0038202552    155.27608   -13276.246   -4868.4123 
    2300        0.023    302.08727    1.5022005  0.022096827  0.051945723    156.15233   -13276.745   -5254.1434 
    2350       0.0235    296.48683    1.5019477  0.043700717 -0.028371383     153.2574    -13273.47   -5057.5901 
    2400        0.024    299.36695    1.5010538 -0.017675417 -0.021973379    154.74616   -13274.572     -4871.35 
    2450       0.0245    300.27003    1.5676201 -0.032831549 -0.028251207    155.21298   -13274.646   -5021.7911 
    2500        0.025    303.17234    1.5884851  0.039709035  0.045679883    156.71322   -13275.754   -5579.5801 
    2550       0.0255    300.10507    1.6472411 -0.0012878817  0.058495193    155.12771   -13273.763   -5681.4947 
    2600        0.026    299.40251    1.6323661 0.0082211016 -0.0052231515    154.76455   -13272.992   -5451.2135 
    2650       0.0265    297.40203    1.6766576 -0.053266154 -0.018907072    153.73048    -13271.54   -5348.2813 
    2700        0.027    300.37211    1.6939268   0.03407931 -0.0046883734    155.26574   -13272.652   -5744.3926 
    2750       0.0275    298.12132    1.7454777  0.028016631 -0.010255448    154.10229   -13271.054    -5877.463 
    2800        0.028    296.35145    1.7775674 0.0027857411  0.024079093    153.18742   -13269.701   -6014.7741 
    2850       0.0285    301.68839    1.7962835  0.014430728 -0.022337581    155.94614   -13272.017   -5961.2553 
    2900        0.029    298.41574    1.8168789 -0.033774663 -0.029442264    154.25448   -13269.871   -5845.5398 
    2950       0.0295    298.15133    1.8610119 0.0084888641 0.0087500038     154.1178   -13269.276   -6260.8359 
    3000         0.03    299.49219    1.9312057 0.0069380131  0.032646871    154.81091   -13269.504   -6569.3019 
    3050       0.0305    296.49779    1.9327622 -0.032964895  0.031246735    153.26306   -13267.488   -6436.8135 
    3100        0.031    296.39227    1.9356837 -0.012233331 -0.022084848    153.20852   -13266.954   -6337.8851 
    3150       0.0315    302.38178      1.99859 0.0032317482  0.015282773    156.30457   -13269.569   -6723.6818 
    3200        0.032    301.39397    2.0284627  0.034857928 -0.017615974    155.79396   -13268.562   -6819.0153 
    3250       0.0325    294.14469    2.0504991 -0.00067615229 -0.010328907    152.04672   -13264.314   -6798.3134 
    3300        0.033    303.37453    2.1022607  0.030227996  -0.01429913    156.81773   -13268.574   -7060.6319 
    3350       0.0335    296.07088    2.1258832 -0.0061658149 -0.010020525    153.04239   -13264.287    -7032.323 
    3400        0.034    297.69468    2.1317972 -0.0047264312  0.019733183    153.88175   -13264.606   -7156.0131 
    3450       0.0345    300.07969    2.1853678  0.013055439  -0.02588251    155.11459   -13265.307   -7241.8025 
    3500        0.035    297.49636     2.212339 -0.016412725  0.013529973    153.77924   -13263.435   -7364.8541 
    3550       0.0355    294.55184    2.2469291  0.010092803 -0.014089406    152.25718   -13261.371   -7476.4416 
    3600        0.036    294.94257    2.2672025 -0.0091585864 0.0011289355    152.45915   -13261.026   -7530.5761 
    3650       0.0365     298.0891    2.2788605  -0.02433236 0.0032109718    154.08563     -13262.1    -7525.797 
    3700        0.037    301.53758    2.3404825  -0.01408818 0.0063892094    155.86819   -13263.319    -7775.945 
    3750       0.0375    301.98246    2.3816409  0.012115989  0.014957278    156.09815    -13262.98   -8029.0474 
    3800        0.038    301.26637    2.4135123  0.027350305  0.041050332      155.728    -13262.04   -8273.0433 
    3850       0.0385    295.91241    2.4103692  0.018656843 -0.030335423    152.96047   -13258.695   -7995.6353 
    3900        0.039    296.70195    2.4230762 -0.028026414 -0.023310681     153.3686   -13258.511   -7905.7971 
    3950       0.0395    299.11348    2.4801333  0.027007414 -0.0077085186    154.61515   -13259.164   -8331.4405 
    4000         0.04    299.73283    2.5109301  0.011209066  0.022287397    154.93529   -13258.883   -8481.4218 
    4050       0.0405    294.72267    2.5316714 -0.011730171 -0.0022110047    152.34548   -13255.689   -8392.4342 
    4100        0.041    300.99139    2.5678233 -0.013945115 -0.0082161368    155.58586   -13258.313   -8485.5402 
    4150       0.0415    299.40262      2.58739 -0.027771197  0.027974158     154.7646   -13256.876   -8625.3098 
    4200        0.042    294.80887    2.6318252   0.03168286 -0.015677216    152.39004   -13253.875   -8826.1027 
    4250       0.0425    299.72979    2.6817797  0.010630829 0.0088545897    154.93372   -13255.784   -9004.2171 
    4300        0.043    299.98217    2.6945716 -0.0085749449 -0.021547368    155.06418   -13255.277   -8881.4975 
    4350       0.0435    297.24266    2.7198371 0.0037637565 -0.0033999853     153.6481   -13253.212   -9067.3363 
    4400        0.044    297.17045    2.7704322 0.0070686247 0.0069320406    153.61077   -13252.521   -9281.4429 
    4450       0.0445     296.4875    2.7589432 0.0072057902  0.027359892    153.25774   -13251.515   -9311.6962 
    4500        0.045    298.27112     2.791081 -0.021652092 -0.0019685145    154.17972   -13251.778   -9224.8678 
    4550       0.0455     298.4156    2.8409401 -0.040390865 -0.034588289     154.2544   -13251.182   -9219.8697 
    4600        0.046    298.92211    2.9038233 0.0048563747  0.028346327    154.51622   -13250.767   -9790.0868 
    4650       0.0465    299.49612    2.9259397  0.049417735  0.028919229    154.81294   -13250.381   -10014.256 
    4700        0.047    297.38834    2.9217554 -0.0025766469 -0.023074298     153.7234   -13248.605   -9653.6815 
    4750       0.0475    295.61557    2.9624713  -0.02318582 -0.042853824    152.80703    -13246.99   -9654.7721 
    4800        0.048      300.477    3.0058586  0.011037641 0.0088241833    155.31996   -13248.801   -10085.735 
    4850       0.0485    301.62013    3.0715542  0.012071813  0.024624136    155.91086   -13248.675   -10360.834 
    4900        0.049    296.08804    3.0583072 -0.00021884432 -0.0037476137    153.05126   -13245.103   -10181.136 
    4950       0.0495    297.82008    3.0655186 -0.0041030324  0.020082638    153.94657   -13245.283   -10271.661 
    5000         0.05    300.58384    3.1237078 -0.025762177 -0.025328579    155.37519   -13245.985   -10242.057 
    5050       0.0505    300.76445    3.1696785  0.017812362  0.011403581    155.46855   -13245.346   -10662.982 
    5100        0.051    297.04518    3.2004115  0.031296408  0.014699668    153.54601   -13242.683   -10821.359 
    5150       0.0515    299.58434    3.2007324 -0.016734238 0.0052657461    154.85853    -13243.25    -10630.88 
    5200        0.052    296.52776    3.2043491 -0.035554183 -0.0098566346    153.27856   -13240.923   -10529.794 
    5250       0.0525    298.63228    3.2849208  0.007636745 -0.0053248523     154.3664   -13241.252   -10957.442 
    5300        0.053    295.99123    3.3189413  0.001981756 0.00086876336    153.00122   -13239.122    -11072.64 
    5350       0.0535    296.46354    3.3513487  0.028189087 -0.0066181507    153.24536   -13238.599   -11243.066 
    5400        0.054    301.13112    3.3458716  0.020560402 -0.0019775637    155.65809   -13240.243   -11214.848 
    5450       0.0545    299.32725    3.3770598  -0.02044218 -0.016631327    154.72564    -13238.53   -11133.288 
    5500        0.055    299.51377    3.4327599 -0.00034242029 -0.014733252    154.82206    -13237.84   -11392.281 
    5550       0.0555    294.05839    3.4334678 -0.0069277981 0.0038099179    152.00211   -13234.233     -11434.5 
    5600        0.056    296.88266    3.4964284   0.01653094  0.034613507    153.46201   -13234.896   -11825.243 
    5650       0.0565    303.65884    3.5289285  0.010664741  0.049837521    156.96469   -13237.594   -11964.769 
    5700        0.057    296.78622    3.4956987 -0.077480098 -0.033866856    153.41216   -13233.236   -11281.172 
    5750       0.0575    300.24984    3.5508541 -0.0074951357 -0.0040639215    155.20254   -13234.219    -11797.65 
    5800        0.058    294.18685    3.6330843  0.029151576  0.024302257    152.06851   -13230.258    -12288.46 
    5850       0.0585    299.00093    3.6435467  0.060257195 -0.0056676508    154.55696   -13231.915   -12327.121 
    5900        0.059    296.93687    3.6216783 -0.031791522 -0.021937937    153.49003    -13230.02   -11893.163 
    5950       0.0595    300.74431    3.6769614 0.0098369672 -0.043333954    155.45814   -13231.151   -12144.881 
    6000         0.06    297.52266    3.7123675 0.0063013599  0.011883308    153.79283   -13228.639   -12435.174 
    6050       0.0605     298.0255    3.7257951  0.039580286  0.024019127    154.05276    -13228.05   -12631.315 
    6100        0.061    296.15526    3.7538996 -0.011092331 -0.0036982719    153.08601   -13226.232   -12463.697 
    6150       0.0615    297.58143    3.7639123 -0.044157793 -0.010339051    153.82321   -13226.107   -12364.718 
    6200        0.062    291.31429    3.8019523 -0.032852977 -0.029270189    150.58366   -13222.002   -12466.097 
    6250       0.0625    305.18972    3.8787297  0.023131157   0.07380306    157.75602   -13228.297   -13252.213 
    6300        0.063    298.61544    3.8906834 0.0069864633  0.025269828     154.3577   -13224.023   -13076.466 
    6350       0.0635    294.74664    3.8970166 -0.029614586 -0.018684526    152.35788   -13221.143   -12829.058 
    6400        0.064    303.02973     3.960928  0.028441234 -0.025031603     156.6395   -13224.519   -13214.459 
    6450       0.0645    297.34416    3.9837465   0.01120641 0.0085976849    153.70056   -13220.675   -13345.169 
    6500        0.065    291.97031    3.9809459 -0.012818813  -0.02817289    150.92276       -13217   -13133.181 
    6550       0.0655    300.46628    4.0421494  0.032904264 -0.014561105    155.31442   -13220.479   -13534.975 
    6600        0.066    305.28056    4.0914883  0.019464519  0.030055696    157.80298   -13222.048   -13803.362 
    6650       0.0665    296.44896    4.0703909 -0.012144428 -0.036100218    153.23782   -13216.566   -13407.154 
    6700        0.067    296.94986    4.1163645 -0.0087920754  0.013232154    153.49674     -13215.9   -13736.015 
    6750       0.0675    299.44569    4.1500473   0.03099197  0.031462614    154.78687   -13216.258   -14041.673 
    6800        0.068    296.96371    4.1718634  -0.01296829  0.016295171     153.5039   -13214.036   -13917.301 
    6850       0.0685    296.54029    4.1786597 -0.041933151 -0.0061845257    153.28503   -13212.874   -13768.473 
    6900        0.069     302.6461    4.2514069  0.022395614  -0.02034779    156.44119   -13215.081   -14178.182 
    6950       0.0695    293.35598    4.2289131 0.0073095759  0.031095789    151.63903   -13209.328   -14224.395 
    7000         0.07    294.76475    4.2737217  0.011397018 -0.021476114    152.36724   -13209.101   -14212.142 
    7050       0.0705    297.27878    4.3217118 0.0048668785 -0.016026426    153.66677   -13209.431   -14368.507 
    7100        0.071    299.86918    4.3323646 0.0021220854 -0.0043840018    155.00577   -13209.802   -14433.676 
    7150       0.0715    299.07193    4.3372879 -0.026003734 -0.012964337    154.59367   -13208.419   -14327.733 
    7200        0.072    301.15455     4.394248  0.015615798  0.031083143    155.67019   -13208.518   -14803.156 
    7250       0.0725    293.59571    4.4295422 -0.022687628  0.029253562    151.76295   -13203.624   -14787.027 
    7300        0.073    296.90418    4.4651737 0.0026095392 0.0089096854    153.47313   -13204.342    -14922.31 
    7350       0.0735     301.9844    4.4996756 -0.0092545651 0.0099010003    156.09915   -13205.965   -15001.073 
    7400        0.074    298.38108    4.4830114 -0.0027905092  -0.01750831    154.23656   -13203.097   -14875.709 
    7450       0.0745     295.5063    4.5113348  0.011839796 -0.020793325    152.75055   -13200.606   -15007.938 
    7500        0.075    297.27695     4.572389  0.026502895 -0.010142636    153.66582   -13200.509   -15295.831 
    7550       0.0755    296.74871    4.5559662  0.026206242 -0.0082131612    153.39277    -13199.22   -15246.531 
    7600        0.076    295.72043    4.6015348 -0.017660239 -0.0076619653    152.86124   -13197.664   -15254.042 
    7650       0.0765    298.70722    4.6267775  0.004847497 -0.012295441    154.40515   -13198.176   -15397.765 
    7700        0.077    295.67935    4.6545094 -0.015694307  0.015794475       152.84   -13195.578   -15515.365 
    7750       0.0775    299.52361    4.7207181 -0.015175829  0.055186282    154.82714   -13196.518   -15869.095 
    7800        0.078    296.10574    4.7173195 -0.013240318 -0.0076888651    153.06041   -13193.702   -15654.634 
    7850       0.0785    295.08781     4.713519 -0.031127385  0.029827771    152.53423   -13192.132   -15707.398 
    7900        0.079    299.01415    4.7747831 0.0080257831  -0.01934475     154.5638   -13193.102   -15878.214 
    7950       0.0795    297.91206    4.8167798  0.029406797  -0.02867605    153.99411   -13191.458   -16058.368 
    8000         0.08    299.52879    4.8685511  0.023424606  0.015827958    154.82982   -13191.215   -16359.346 
    8050       0.0805    296.90194    4.8771377  0.036612635 -0.040599637    153.47197   -13188.775   -16243.836 
    8100        0.081    298.43703    4.8926315 -0.021937698 -0.012239386    154.26548   -13188.484   -16194.848 
    8150       0.0815     296.0443    4.9000077  -0.02821052  0.010185691    153.02865   -13186.163   -16273.276 
    8200        0.082    298.22065    4.9522849  0.017656118  0.018613848    154.15363   -13186.193   -16628.516 
    8250       0.0825    296.14172     4.980364 -0.016279148  0.040429599    153.07901   -13184.016   -16681.715 
    8300        0.083    297.58038    4.9839486 -0.025323196  0.019458101    153.82267   -13183.656   -16593.612 
    8350       0.0835    297.36649    5.0041132 -0.021129746 -0.026342516     153.7121   -13182.437   -16522.137 
    8400        0.084    293.95704    5.0517231 0.0042066771 -0.011460939    151.94972   -13179.555   -16814.896 
    8450       0.0845    297.33701    5.0995709 0.0037065711  0.014419583    153.69686   -13180.173    -17058.99 
    8500        0.085    295.21034    5.1010406  0.042971877 -0.016565094    152.59757   -13177.945   -17091.491 
    8550       0.0855    300.58472    5.1528954 0.0018539931 -0.020689662    155.37565   -13179.587   -17113.533 
    8600        0.086    300.40381    5.1494128 -0.023382561 -0.019788495    155.28213   -13178.352   -17020.806 
    8650       0.0865    301.11214     5.210815  0.043830909 0.00033447374    155.64828   -13177.576   -17516.601 
    8700        0.087    297.22456    5.2350015  0.038143033  0.020380758    153.63874   -13174.415   -17645.084 
    8750       0.0875     297.4217     5.243794 0.0050574368 3.7925614e-05    153.74064   -13173.364   -17496.298 
    8800        0.088    295.73972    5.2711444 -0.048172941 -0.0015867178    152.87121   -13171.325   -17404.616 
    8850       0.0885    300.40085    5.2981809 -0.050669452  0.023043198     155.2806   -13172.565   -17568.515 
    8900        0.089    296.31294    5.3202671 -0.022232337  0.045674949    153.16751    -13169.29   -17812.366 
    8950       0.0895    297.46201    5.3449006  0.035119415  0.023174054    153.76148   -13168.719   -18010.647 
    9000         0.09    296.00285    5.3619797 -0.0063755497 -0.019126222    153.00723   -13166.782    -17788.26 
    9050       0.0905    300.78965     5.423963 -0.0041595146 -0.0046048582    155.48157   -13168.058   -18050.662 
    9100        0.091    295.71249    5.4359256 0.0025359618 -0.033576371    152.85713    -13164.24   -18016.284 
    9150       0.0915    297.23573    5.4803148  0.024947485 0.00043306694    153.64451   -13163.824   -18352.318 
    9200        0.092    298.55094    5.5019685  0.045115597  0.029312698    154.32436   -13163.302   -18587.989 
    9250       0.0925    297.71431    5.5137246 -0.020072307 -0.029378971     153.8919    -13161.66   -18214.244 
    9300        0.093    298.80336    5.5127352 -0.0072816259 -0.012721063    154.45484   -13161.005   -18309.108 
    9350       0.0935    298.35793    5.5725685  0.018747864 -0.0050738909    154.22459   -13159.557   -18620.808 
    9400        0.094    297.19979    5.6298509  0.013190545  0.047859953    153.62594    -13157.73   -18969.671 
    9450       0.0945    297.06658    5.6313429 -0.0002089493  0.042494326    153.55708   -13156.425   -18912.094 
    9500        0.095    295.74758    5.6142591   -0.0574618 -0.026893519    152.87527   -13154.502   -18433.013 
    9550       0.0955    299.13365    5.6935678 -0.046639542 0.0070846579    154.62557   -13155.011    -18846.71 
    9600        0.096    301.49674    5.7488189  0.049015373  0.023001115    155.84708   -13154.975   -19402.785 
    9650       0.0965    296.44213    5.7540487  0.023447109  0.034699771    153.23429   -13151.103   -19373.985 
    9700        0.097     297.2609    5.7684841  0.015912523 -0.027057086    153.65753   -13150.264   -19191.132 
    9750       0.0975     294.6804    5.7617941 -0.026850731 -0.025224896    152.32363   -13147.658   -19032.395 
    9800        0.098    294.85937    5.7897043 -0.0011185897 -0.020114825    152.41614   -13146.481   -19228.236 
    9850       0.0985    300.91464    5.8830224  0.035295187  0.024576916    155.54618   -13148.329   -19809.648 
    9900        0.099    298.34074    5.8937885  0.031532981 0.0078010786     154.2157    -13145.71   -19777.075 
    9950       0.0995    293.24879    5.8621298 -0.022875798 -0.022312384    151.58362   -13141.794   -19389.805 
   10000          0.1    298.89384    5.9213109  0.009719533 -0.0040561649    154.50161   -13143.417   -19756.581 
   10050       0.1005    300.05596    5.9789669  0.021580772  0.020158691    155.10232   -13142.714   -20069.021 
   10100        0.101     296.2485     5.942682  0.003381083  0.016488902     153.1342   -13139.441   -19875.173 
   10150       0.1015    296.45127    5.9791555 -0.011106299 -0.0052029039    153.23902   -13138.237   -19876.154 
   10200        0.102    301.43786    6.0506062 -0.042551568 0.0021952751    155.81664   -13139.496   -20034.166 
   10250       0.1025    292.62037    6.0477147 -0.016133062  0.028795298    151.25878   -13133.618   -20201.256 
   10300        0.103    296.46701    6.0756004  0.043304542   0.04773092    153.24715   -13134.281   -20555.453 
   10350       0.1035    295.54701    6.1082903 -0.0005320422 -0.028219059    152.77159    -13132.47   -20265.131 
   10400        0.104    300.10484    6.1393185  0.010390003 -0.034138917    155.12759   -13133.476   -20385.232 
   10450       0.1045    292.12816     6.138632 -0.013854548 -0.064313719    151.00435   -13128.004   -20201.546 
   10500        0.105    297.77425    6.1994047  0.038338952 -0.0034648328    153.92288    -13129.58   -20780.929 
   10550       0.1055      296.766    6.2554256  0.064853663  0.024587623     153.4017   -13127.707   -21149.556 
   10600        0.106    293.34071    6.2103474 -0.019729544 -0.0040391303    151.63114   -13124.578   -20621.929 
   10650       0.1065    298.42417    6.2592315 -0.053614967 -0.012084198    154.25883   -13125.835   -20645.108 
   10700        0.107    297.46025    6.2688897  -0.04337572  0.027570888    153.76057   -13123.959   -20843.616 
   10750       0.1075    295.49158    6.3599992  0.014563784   0.01334934    152.74294   -13121.569   -21293.041 
   10800        0.108    299.04925    6.3938434  0.038625581  0.066107722    154.58194   -13122.012   -21661.922 
   10850       0.1085    291.11999     6.303291 -0.033700744 -0.022387475    150.48322   -13116.533   -20824.009 
   10900        0.109    294.05521    6.3572733 -0.033509707 -0.077034298    152.00047    -13116.65   -20822.431 
   10950       0.1095    299.83981    6.4382504 0.0043413186 -0.0056997763    154.99059    -13118.24   -21456.306 
   11000         0.11    295.89954    6.4636856  0.047368313  0.069732689    152.95382   -13114.792   -21935.955 
   11050       0.1105    295.70008    6.4610255  0.030438288 -0.010494052    152.85072   -13113.286   -21603.232 
   11100        0.111    297.11125    6.4806053  -0.03531258 -0.044435695    153.58017   -13112.591    -21336.19 
   11150       0.1115    290.34763    6.4756485 -0.015221715 -0.013092929    150.08398    -13107.68   -21491.113 
   11200        0.112    295.22071     6.559004  0.023649919  0.031642946    152.60293   -13108.764   -22047.656 
[...]
   11600        0.116    300.22251    6.7810192  0.038488189  0.018080905    155.18842   -13099.742   -22791.961 
   11650       0.1165    297.27471    6.8014617  0.052825995  0.011198467    153.66466   -13096.735   -22884.954 
   11700        0.117    292.66368    6.7869576 0.0085887693 -0.015313555    151.28117   -13092.869   -22600.776 
   11750       0.1175    296.92859    6.8413071 -0.035429623 -0.052773841    153.48575   -13093.579   -22510.346 
   11800        0.118     294.0111    6.8742423 -0.016177973 0.0088095099    151.97766   -13090.576   -22889.579 
   11850       0.1185    292.61448    6.9091519  0.030945636  0.019643593    151.25574   -13088.348   -23199.137 
   11900        0.119    296.68614     6.921515   0.03066296  0.027819837    153.36042   -13088.948   -23266.659 
   11950       0.1195    295.11815    6.9043592 -0.059474947 -0.046799601    152.54991   -13086.625   -22660.282 
   12000         0.12    297.73339    6.9784065 -0.0091453577 -0.014535201    153.90176   -13086.462    -23182.42 
   12050       0.1205    295.73476    7.0369021  0.054292472  0.045640793    152.86865     -13083.9   -23789.451 
   12100        0.121    295.93579    7.0203924  0.028687281  0.040343858    152.97256   -13082.475   -23631.412 
   12150       0.1215    297.98229     7.009149 -0.0082958319 -0.023615648    154.03042   -13082.002   -23257.459 
   12200        0.122     292.6768    7.0145435 -0.073935722 -0.046502439    151.28795   -13077.719   -22980.351 
   12250       0.1225    294.37547    7.0699419 -0.0055943245  0.043716493    152.16601   -13077.068   -23693.547 
   12300        0.123    293.68443    7.0848981  0.042762027  0.062616073    151.80881   -13075.163   -23967.587 
   12350       0.1235    289.95993    7.0682813 -0.022819042 0.0024288799    149.88357   -13071.701    -23492.97 
   12400        0.124    294.80494    7.1036017 -0.039193032 -0.045856893    152.38801   -13072.649   -23395.172 
   12450       0.1245    292.80627    7.1343683 -0.031974246 -0.022044307    151.35488   -13070.057   -23601.166 
   12500        0.125    296.98106    7.1657514  0.064567145  0.029049208    153.51287   -13070.647   -24197.892 
   12550       0.1255    294.30908    7.1651407  0.082229397 -0.0062772055    152.13169   -13067.698   -24136.976 
   12600        0.126    293.62533    7.2078762 -0.032953144 -0.037239278    151.77826   -13065.774   -23792.279 
   12650       0.1265    297.53965    7.2519242 -0.0085098239 -0.031921867    153.80161   -13066.212   -24038.309 
   12700        0.127    292.43794    7.2451031 0.0045194939 -0.0077264272    151.16448   -13062.002   -24139.654 
   12750       0.1275    294.54322    7.2921711  0.067419246  0.017917207    152.25272   -13061.499   -24591.692 
   12800        0.128     294.0194    7.2762575 0.0074466589 -0.0012743039    151.98196   -13059.658   -24274.766 
   12850       0.1285     294.9085    7.2823653   -0.0460588 -0.015377386    152.44154   -13058.517   -24069.764 
   12900        0.129    292.53201    7.3172479 -0.040691872 -0.0076504426    151.21311    -13055.68   -24229.685 
   12950       0.1295    296.21096    7.3482049  0.047207929  0.070488147     153.1148   -13055.978   -24886.337 
   13000         0.13    298.10877    7.3942314  0.026432168  0.056765103     154.0958   -13055.346   -24924.762 
   13050       0.1305    295.76124    7.3861094  -0.05785293  0.015031733    152.88233   -13052.522   -24477.627 
   13100        0.131    289.86275    7.3692896 -0.075759151   -0.0777544    149.83333   -13047.855   -24052.587 
   13150       0.1315    287.43096    7.4090425  0.016964666 -0.0093949994    148.57632   -13044.979   -24722.041 
   13200        0.132    293.76161    7.5241063   0.05715994  0.092576165     151.8487   -13046.605   -25579.475 
   13250       0.1325    292.98889    7.5089761 0.0057798661 0.0072246964    151.44927   -13044.578   -25073.269 
   13300        0.133    295.70542    7.4988775 -0.044722037 -0.072405348    152.85348   -13044.318   -24605.834 
   13350       0.1335    294.06252    7.5287047 -0.038480178 -0.075265882    152.00425   -13041.826   -24716.529 
   13400        0.134    291.50111    7.5396785  0.070698628  0.026910794    150.68023   -13038.843   -25457.626 
   13450       0.1345    291.34084     7.580971  0.076690677  0.037580546    150.59738   -13037.108   -25650.807 
   13500        0.135    292.94811    7.6301657 -0.017927585  0.026203914    151.42819   -13036.282   -25461.474 
   13550       0.1355    295.38885     7.594996 -0.066551802 -0.065188171    152.68984   -13035.856    -24877.52 
   13600        0.136     294.7243    7.6122831 -0.027602915 -0.026953968    152.34633    -13033.85   -25192.421 
   13650       0.1365    294.19148    7.6822825 0.0045778431  0.066400685    152.07091   -13031.898   -25844.203 
   13700        0.137    291.91394    7.7119636  0.058204475  0.070850215    150.89362   -13029.036   -26136.728 
   13750       0.1375    290.98357    7.6966917 -0.015631483 -0.013221568     150.4127   -13026.875   -25559.462 
   13800        0.138    298.07089    7.7338265 -0.044023206 -0.056969028    154.07622   -13028.836   -25442.781 
   13850       0.1385    291.98011    7.7307476 -0.052507948 -0.013169376    150.92782   -13024.002   -25550.234 
   13900        0.139    287.77533    7.7637816  0.049151929  0.011009964    148.75433   -13020.133   -26079.812 
   13950       0.1395    290.38752    7.8054748  0.054638503  0.061303569     150.1046   -13019.777   -26404.723 
   14000         0.14    291.02277    7.7749642 -0.013301391 -0.051858626    150.43297   -13018.402   -25699.347 
   14050       0.1405    292.73878    7.7633908 -0.063068425 -0.076312139    151.31999    -13017.57   -25413.368 
   14100        0.141    292.45746    7.7985189  0.030313355 -0.0039407773    151.17457   -13015.728   -26082.972 
   14150       0.1415    284.13929    7.7886071  0.060524461  0.029182373    146.87482   -13009.715   -26261.046 
   14200        0.142    297.04047    7.8688704  0.067396439  0.053758944    153.54358   -13014.669   -26633.419 
   14250       0.1425    292.05524    7.8377756 -0.060122747 -0.063566861    150.96666   -13010.358    -25713.62 
   14300        0.143    288.38944    7.8084216 -0.077226242 -0.074336623    149.07177   -13006.735   -25522.862 
   14350       0.1435    297.60156    7.9667617  0.063303732  0.066912292    153.83361   -13009.768   -26989.926 
   14400        0.144     287.3515    7.9332357  0.040899141  0.092821589    148.53524   -13002.709   -26889.855 
   14450       0.1445    289.43218    7.9028704 -0.032135689 -0.023974457    149.61077   -13002.053   -26155.867 
   14500        0.145    292.60124    7.9333456 -0.095589806 -0.037096271    151.24889   -13001.925   -26002.198 
   14550       0.1455    290.55261    7.9391545  0.010836591 -0.022980488    150.18993   -12999.119   -26423.369 
   14600        0.146    287.89381    7.9319766  0.011148811 0.0046374899    148.81557   -12995.997   -26492.543 
   14650       0.1465     288.6034    7.9403958  0.025983373  0.056512116    149.18237   -12994.616   -26742.971 
   14700        0.147     286.9411    7.9622822 -0.010315228 -0.020765244     148.3231   -12992.006   -26437.339 
   14750       0.1475    289.00714     7.946809 -0.041183716  -0.03294899    149.39106   -12991.314   -26242.254 
   14800        0.148    292.24245    7.9443923 -0.012882473 -0.045619634    151.06343   -12991.233   -26286.301 
   14850       0.1485    292.19949    7.9449437  0.070456855  0.033982934    151.04123   -12989.455   -26831.278 
   14900        0.149    291.82168    7.8472557 0.0053682122  0.037074609    150.84593   -12987.524   -26298.995 
   14950       0.1495    293.78265    7.7456058 -0.094728585 -0.0021267441    151.85958   -12986.815   -25495.835 
   15000         0.15     298.4089    7.6489933 -0.0029172927  0.008687322    154.25094   -12987.514   -25515.878 
   15050       0.1505    301.40399     7.503991  0.030576567  0.010752345    155.79913     -12987.4   -25151.066 
   15100        0.151    302.78953    7.3817614  0.071935088 -0.016737719    156.51534   -12986.497   -24789.863 
   15150       0.1515    305.58815    7.2055797 -0.0010226403 -0.070389804    157.96197   -12986.377   -23780.558 
   15200        0.152    316.72349    7.0302848  0.032036076 -0.081103405    163.71796   -12990.642   -23270.725 
   15250       0.1525    316.06318    6.7735818  0.037101494 -0.008171725    163.37664   -12988.921   -22675.038 
   15300        0.153      319.287    6.4718246  0.064432824  0.023496904    165.04307   -12989.299   -21865.848 
   15350       0.1535    324.52314    6.0723491 -0.068146276  0.078167833    167.74969    -12990.79   -20274.569 
   15400        0.154    333.44091     5.757418 -0.072449476 0.0079246568    172.35938   -12994.309   -18976.311 
   15450       0.1545    342.07304    5.3913988  -0.04940653  0.013840236    176.82143   -12997.862   -17852.775 
   15500        0.155    341.56712    5.1266302 -0.028133487   0.06474503    176.55991   -12996.861   -17210.806 
   15550       0.1555    349.75722     4.812581 -0.0017294318   0.10859942    180.79346   -13000.535    -16398.17 
   15600        0.156       349.87    4.5520062 -0.051112299 0.0076448147    180.85176   -13000.221   -15028.463 
   15650       0.1565    358.75537    4.3945567 -0.004682582 -0.070133444    185.44471   -13004.494   -14399.135 
   15700        0.157    360.10581    4.2420809   0.16329156 -0.065269448    186.14277   -13004.918    -14467.01 
   15750       0.1575    355.45433    4.0602285   0.10076665 -0.017712282    183.73837   -13002.416   -13810.943 
   15800        0.158    358.46039    3.8652164  0.010569329 -0.079457188    185.29223   -13003.959   -12654.429 
   15850       0.1585    357.94576     3.726309 -0.077431194 -0.079640947    185.02622   -13003.646   -11897.456 
   15900        0.159    371.25998    3.7519936  0.062013933  0.069392955    191.90849    -13010.49   -12944.668 
   15950       0.1595    364.39871    3.7242581  0.015001588  0.086161688    188.36182   -13006.924   -12751.405 
   16000         0.16    363.17202    3.5686471 -0.066499712  0.075212833    187.72773    -13006.28   -11924.534 
   16050       0.1605    373.13397    3.5348379   -0.0880013 -0.0095034718    192.87717   -13011.446   -11457.777 
   16100        0.161    374.06129    3.4521058 -0.096429738 -0.033601185    193.35652   -13011.979   -11073.583 
   16150       0.1615    365.79318    3.3535906  0.034690808  0.058588017    189.08264   -13007.779   -11489.565 
   16200        0.162    370.08472    3.3700379   0.10555604  0.010748509    191.30098   -13010.072   -11621.142 
   16250       0.1625    372.95763    3.3379632  0.030104617 -0.032427977    192.78602   -13011.664   -11118.799 
   16300        0.163    381.37045    3.1685678 0.00050456053 -0.038382696     197.1347   -13016.153   -10435.632 
   16350       0.1635    382.26187    3.1214764 -0.043113381 -0.052406974    197.59549   -13016.819    -10086.52 
   16400        0.164    391.18196    3.1486964  0.042069856  0.040481574    202.20639   -13021.679   -10770.826 
   16450       0.1645    392.27798    3.1256698  0.056655245  0.055998226    202.77293   -13022.577   -10794.411 
   16500        0.165    394.48537    2.9829504 -0.022538698  0.020363095    203.91395   -13024.096   -9935.9158 
   16550       0.1655    391.01167    2.9404603 -0.060647985 -0.046140529    202.11836   -13022.659   -9445.5726 
   16600        0.166    388.52148    2.9543214  0.032979506  0.023137883    200.83115   -13021.761   -10034.796 
   16650       0.1665    390.11514    2.8885372 -0.00069355489  0.054606632    201.65493   -13022.999   -9808.1675 
   16700        0.167    388.76064    2.8075772  0.050516233 -0.071166392    200.95478   -13022.733   -9289.7567 
   16750       0.1675    389.56698     2.803547  0.060185702 -0.066316101    201.37158   -13023.589    -9324.722 
   16800        0.168    391.85976    2.8220291 -0.031893877  0.039612026    202.55674    -13025.22   -9432.4909 
   16850       0.1685    382.32657    2.7786131 0.0008088872 0.0020447798    197.62893   -13020.705   -9271.5558 
   16900        0.169    384.64632    2.7082638 -0.035636382  0.032160964    198.82804   -13022.335   -9015.9612 
   16950       0.1695     388.9872    2.6880059 -0.039470378  0.048225604    201.07189    -13025.02   -8989.2037 
   17000         0.17    381.89533    2.6720096  -0.08895011 2.7264853e-05    197.40602   -13021.817   -8610.2891 
   17050       0.1705    392.58248    2.6902951 -0.013100547  0.056231257    202.93033   -13027.826   -9111.4195 
   17100        0.171    386.16914    2.6902711  0.064367221 0.0092026213     199.6152   -13024.977   -9212.8031 
   17150       0.1715    384.88825    2.7104176  0.048472543 -0.047709714     198.9531   -13024.752   -9037.2682 
   17200        0.172    384.83409    2.6906309  0.051508518 -0.064435962     198.9251   -13025.173   -8925.6783 
   17250       0.1725    387.86634    2.7596078  0.083482613 -0.061885897     200.4925   -13027.223   -9270.6816 
   17300        0.173    387.99781     2.742844 -0.010376018  0.044782663    200.56046   -13027.752   -9257.5023 
   17350       0.1735    386.05783    2.7191281 -0.032104227 0.0032862758    199.55766   -13027.191   -8967.7005 
   17400        0.174    387.76744    2.6353531  0.037611064 0.0085681494    200.44138   -13028.546   -8938.4411 
   17450       0.1745     378.9243    2.6324983  -0.02708431 -0.042452947    195.87026   -13024.443   -8543.2034 
   17500        0.175    381.11613     2.573348 -0.069616359   0.01240854    197.00324    -13026.03   -8387.1339 
   17550       0.1755    384.43922    2.5874393 -0.037135538  0.089694164    198.72098   -13028.206   -8799.9932 
   17600        0.176    377.95544    2.5351256 -0.021317757 -0.026853386    195.36945    -13025.34    -8289.848 
   17650       0.1765    383.47196    2.6128317  0.025158721 -0.0091358902      198.221   -13028.638   -8762.8486 
   17700        0.177    388.80906    2.6671981  0.051916296  0.033747105     200.9798   -13031.843    -9176.205 
   17750       0.1775    382.60636    2.6413639 -0.0044830366 -0.060059735    197.77356    -13029.08   -8589.4037 
   17800        0.178    380.34543    2.6246024 -0.017814305 -0.065829353    196.60486   -13028.362   -8469.8625 
   17850       0.1785    385.09652    2.6490164  0.073430426     0.109195    199.06075   -13031.255    -9438.806 
   17900        0.179    377.50742    2.5685546    0.0339821  0.032289749    195.13786   -13027.801   -8782.7548 
   17950       0.1795    377.19092    2.4551658  -0.06920613 -0.051556406    194.97426   -13028.057   -7781.3442 
   18000         0.18    381.85684    2.4520862 -0.095241131 -0.021504335    197.38612   -13030.918   -7784.4691 
   18050       0.1805    376.82758    2.4263664  0.039394933 -0.00039871552    194.78644   -13028.779   -8217.8754 
   18100        0.181    378.34935    2.4054481  0.047248472  0.099881091    195.57306   -13030.023   -8508.5921 
   18150       0.1815    378.71065    2.3504126 0.0085571481  0.045224103    195.75982   -13030.712   -8013.9794 
   18200        0.182    381.36119    2.2993217 -0.034868215 -0.051751701    197.12992   -13032.552   -7375.6725 
   18250       0.1825    380.63244    2.2934428 -0.034621469 -0.086221751    196.75321   -13032.634   -7241.9986 
   18300        0.183    381.63575     2.292998  0.024851244 -0.025605196    197.27184   -13033.641   -7640.8135 
   18350       0.1835    379.73525      2.38716  0.085161105  0.060260005    196.28945   -13033.115   -8441.9369 
   18400        0.184    379.23701    2.3272425  0.091036185   0.11188934    196.03191   -13033.339   -8433.8934 
   18450       0.1845    370.50062    2.2106405  -0.10370007 -0.050253246    191.51596   -13029.285   -6855.6238 
   18500        0.185     382.6812    2.2658289 -0.098915512  -0.11212392    197.81224   -13036.011   -6849.2984 
   18550       0.1855    377.82871    2.2822666  0.088049934 -0.017192876    195.30394   -13033.976   -7843.7454 
   18600        0.186    378.27759    2.2268458   0.15770301  0.074701599    195.53597   -13034.686   -8197.5013 
   18650       0.1865    378.92594     2.173376 -0.025513784 -0.0058129049    195.87111   -13035.548   -7140.1643 
   18700        0.187    378.27061    2.1004865 -0.089853682 -0.041717525    195.53236   -13035.672    -6563.051 
   18750       0.1875    376.33245    2.0831884  -0.01667136 0.0085743189     194.5305   -13035.161   -6916.9713 
   18800        0.188    376.84893    2.1315403  0.040315637 -0.0019609351    194.79748    -13035.92   -7232.9832 
   18850       0.1885    381.11189    2.0751961  0.031168011  0.098053553    197.00105   -13038.615   -7348.0588 
   18900        0.189    381.35443    2.0456362 -0.029623985  0.005147692    197.12642   -13039.268   -6737.1998 
   18950       0.1895    381.53896    1.9457941 -0.089666081  0.033215228    197.22181    -13039.88   -6297.8108 
   19000         0.19    382.15884    1.9099649 -0.023514599 0.0067637446    197.54223   -13040.773   -6310.7136 
   19050       0.1905    378.58187    1.8534838  0.075346822 -0.0047243082    195.69325   -13039.473   -6413.6878 
   19100        0.191    379.22967    1.7695819  0.092318568  0.015151814    196.02811   -13040.386    -6256.841 
   19150       0.1915    386.82878    1.7226682 -0.040472476  0.008288206    199.95617   -13044.896   -5634.9465 
   19200        0.192    381.03836    1.5927099 -0.021159921  -0.11776148    196.96304   -13042.485   -4845.9618 
   19250       0.1925    391.63921    1.5854478  0.044361713 -0.015334898    202.44274   -13048.617   -5381.5822 
   19300        0.193    383.06614    1.5273839    0.0471415  0.040762327    198.01122   -13044.856   -5384.2923 
   19350       0.1935    390.94054     1.534929 0.0049265828 -0.002339442    202.08159    -13049.61   -5125.0538 
   19400        0.194     385.6021    1.4587127 -0.047782923 -0.021560773    199.32209   -13047.527   -4631.2302 
   19450       0.1945    386.62104    1.4380011 -0.028646305 -0.022427491    199.84879   -13048.748   -4623.0909 
   19500        0.195     392.1028    1.4826903  0.035963488  0.025520023    202.68238   -13052.287    -5147.246 
   19550       0.1955    387.38507    1.4268336  0.016995338   0.11258511    200.24373   -13050.566    -5188.047 
   19600        0.196    386.23576    1.3783799   -0.1063827 -0.027850712    199.64964     -13050.7    -4147.155 
   19650       0.1965    386.04388    1.2919653   -0.0540127  0.010469233    199.55045   -13051.329    -4161.406 
   19700        0.197    389.92273    1.3787591 0.0090954794  0.056076329    201.55547   -13054.092   -4813.1029 
   19750       0.1975     387.5208    1.3642233 -0.0049511333  0.025184612    200.31389   -13053.629    -4614.856 
   19800        0.198     388.2427    1.4105835  0.053339906  -0.11871141    200.68705   -13054.672   -4484.0401 
   19850       0.1985    397.14293    1.4549225   0.12998381 -0.057664456    205.28768   -13059.997   -5090.8063 
   19900        0.199    392.02798     1.423859 0.0020371141  0.013504583     202.6437   -13058.121   -4798.0023 
   19950       0.1995    391.81248    1.2758492  0.019488404   0.05125604    202.53231   -13058.765   -4488.6455 
   20000          0.2    395.77878    1.1737283 -0.077552827  0.039471171    204.58253   -13061.618   -3785.4887 
Loop time of 288.93 on 4 procs for 20000 steps with 4000 atoms

Pair  time (%) = 250.625 (86.7424)
Neigh time (%) = 0.465763 (0.161203)
Comm  time (%) = 27.42 (9.49018)
Outpt time (%) = 0.0659248 (0.0228169)
Other time (%) = 10.3536 (3.58342)

Nlocal:    1000 ave 1013 max 989 min
Histogram: 1 1 0 0 0 0 1 0 0 1
Nghost:    3719.75 ave 3736 max 3697 min
Histogram: 1 0 0 0 0 1 0 1 0 1
Neighs:    68763.2 ave 71152 max 66452 min
Histogram: 1 1 0 0 0 0 0 1 0 1
FullNghs:  0 ave 0 max 0 min
Histogram: 4 0 0 0 0 0 0 0 0 0

Total # of neighbors = 275053
Ave neighs/atom = 68.7632
Neighbor list builds = 80
Dangerous builds = 0

######################################
# SIMULATION DONE
print "All done"
All done
