
# ----------------------- ATOM DEFINITION ----------------------------
lattice		fcc ${latparam}
lattice		fcc 4.05
Lattice spacing in x,y,z = 4.05 4.05 4.05
region		whole block 0 10 0 10 0 10
create_box	1 whole
Created orthogonal box = (0 0 0) to (40.5 40.5 40.5)
  1 by 2 by 2 MPI processor grid
lattice 	fcc ${latparam} orient x 1 0 0 orient y 0 1 0 orient z 0 0 1
lattice 	fcc 4.05 orient x 1 0 0 orient y 0 1 0 orient z 0 0 1
Lattice spacing in x,y,z = 4.05 4.05 4.05
create_atoms	1 region whole
Created 4000 atoms

# ------------------------ FORCE FIELDS ------------------------------

#****************USE THIS TO TEST******************
pair_style	eam/rad
pair_coeff 			* * Al99.PC0.5.eam.alloy.rad.txt Al # pc = 0.5

# to test with error = 0 use this potential
# pair_coeff	* * Al99.eam.alloy.005pcrad_NULL_noerror Al

#****************USE THIS TO RUN REFRENCE***********
# pair_style	eam/alloy
# pair_coeff	* * Al99.eam.alloy Al

# ------------------------- SETTINGS ---------------------------------
compute csym all centro/atom fcc
compute peratom all pe/atom

######################################
# EQUILIBRATION
reset_timestep	0
timestep	0.001 # default
# timestep	0.0001 # tiny time step
velocity all create 300 12345 mom yes rot no
fix 1 all npt temp 300 300 1 iso 0 0 1 drag 1

# Set thermo output
thermo 50
# thermo 1 # debug mode

# thermo_style custom step lx ly lz press pxx pyy pzz pe temp
# IMPLEMENTATION HERE

# VERSION add rad variables .v1 .v2
# thermo_style custom step lx ly lz press pxx pyy pzz pxxrad pyyrad pzzrad pe temp

# VERSION ublb separation .v3
thermo_style custom step lx ly lz press pxx pxxub pxxlb pyy pyyub pyylb pzz pzzub pzzlb pe temp

# Run for at least 10 picosecond (assuming 1 fs timestep)
run 	20000 # default
Memory usage per processor = 7.82687 Mbytes
Step Lx Ly Lz Press Pxx Pxxub Pxxlb Pyy Pyyub Pyylb Pzz Pzzub Pzzlb PotEng Temp 
       0         40.5         40.5         40.5    2496.1233    2446.9902    11714.518    3286.8783    2534.6541    11593.005    3165.3656    2506.7256    11761.309    3333.6695       -13440          300 
      50      40.5611      40.5611      40.5611    907.43706    837.10986    5085.6924   -3411.3917    946.43161    5196.8957   -3303.9517    938.76971    5189.3941   -3311.7738   -13338.819    103.27149 
     100    40.636867    40.636867    40.636867   -4611.4186   -4606.0751    -425.3817    -8786.781   -4633.2987   -453.35365   -8813.2454   -4594.8821   -414.31448   -8775.4624   -13373.529    171.80729 
     150    40.566371    40.566371    40.566371    544.64066    509.57779    4739.3917   -3720.1354    622.24374    4850.7503   -3606.1614    502.10046    4733.1503   -3728.8528   -13348.908    124.16109 
     200    40.511722    40.511722    40.511722    3547.2897    3643.2596    7909.1478   -622.47207    3485.9867    7752.8829   -780.76114    3512.6228    7778.9416   -753.53201   -13355.216     137.9072 
     250    40.565785    40.565785    40.565785    166.93066    90.523527    4320.5775   -4139.3895    218.10474    4445.9256   -4009.5675    192.16371    4420.3436   -4035.8784   -13359.502    146.72328 
     300    40.611235    40.611235    40.611235   -2466.5664   -2412.8394    1786.4021   -6612.0069   -2483.9007    1715.4694   -6683.1942   -2502.9592    1697.3577   -6703.1865   -13360.111    149.21075 
     350    40.571353    40.571353    40.571353   -408.34084   -482.42607    3740.7411   -4705.4539   -346.38838    3878.0669      -4570.7   -396.20806    3826.3653   -4618.6525   -13367.339    163.76556 
     400    40.532306    40.532306    40.532306    2225.5431    2279.8069    6529.0248   -1969.2944    2296.6157    6547.3475   -1954.0199    2100.2067    6352.6531   -2152.1363   -13359.854    150.41108 
     450    40.566044    40.566044    40.566044    2.0377845   -40.092854    4188.4676   -4268.5143   -31.888362    4196.5762   -4260.2047     78.09457    4306.2065    -4149.873    -13363.08    157.36643 
     500    40.595966    40.595966    40.595966   -1611.3461   -1655.3283    2554.2141   -5864.7211   -1479.2164    2730.6993   -5688.9834   -1699.4934    2508.9606   -5907.8004   -13359.404    151.32857 
     550    40.570848    40.570848    40.570848   -161.85418   -150.03728    4074.4802   -4374.4257   -167.20465    4057.9074   -4392.1717   -168.32062    4055.2677   -4391.7765   -13360.736    154.75593 
     600    40.545092    40.545092    40.545092    1385.8336    1414.2998    5656.3228   -2827.5936    1433.0694    5676.3853   -2810.1111    1310.1316    5550.2864   -2929.9038   -13361.915    158.16074 
     650    40.566235    40.566235    40.566235    212.56633    184.02753    4415.5361   -4047.3391    245.48283    4477.3044   -3986.2086    208.18862    4441.3447   -4024.8199   -13358.104    151.74194 
     700    40.589999    40.589999    40.589999   -1217.4105   -1343.5854    2871.9448   -5558.9298   -1126.2179    3087.5318   -5339.7729   -1182.4283    3032.9517   -5397.6133   -13360.206    156.93263 
     750    40.572933    40.572933    40.572933   -250.38158   -286.45411    3936.0929   -4508.8543   -263.19279    3961.0767   -4487.3097   -201.49783    4021.1387   -4423.9834   -13360.538    158.57849 
     800    40.551356    40.551356    40.551356    1208.6566    1078.2928    5320.2198   -3163.5021    1322.2307    5565.8529    -2921.249    1225.4462    5467.2746   -3016.2541   -13357.161    153.20685 
     850    40.567647    40.567647    40.567647     35.88215    27.354765    4254.3221   -4199.4284    95.437303    4322.2181    -4131.162   -15.145617    4211.6195   -4241.7363   -13362.171    163.91834 
     900    40.586566    40.586566    40.586566   -905.95525   -936.83022      3280.32   -5153.7978   -840.20578    3375.7472   -5055.9694   -940.82976    3275.2349   -5156.6971   -13360.501    161.82509 
     950    40.575685    40.575685    40.575685   -242.27646    -258.0676     3968.323   -4484.2738   -191.53537    4034.1222   -4417.0057    -277.2264    3950.0798   -4504.3583   -13355.043     152.3172 
    1000    40.557624    40.557624    40.557624    865.78368    854.28577    5087.8724   -3379.1461     838.0004    5070.9404   -3394.7667    905.06486    5139.6775   -3329.3904   -13361.124    165.23426 
    1050    40.567354    40.567354    40.567354    296.20892     232.8234     4466.925   -4001.0869     412.4804    4647.5313   -3822.3722    243.32297    4477.9352   -3991.0902   -13352.949    150.47937 
    1100    40.584443    40.584443    40.584443   -762.38408   -853.89575    3363.8543   -5071.4458   -674.30507    3542.4859    -4890.883   -758.95143      3456.56    -4974.265   -13360.466    166.16585 
    1150    40.575983    40.575983    40.575983    -142.2806   -201.77341    4026.1939   -4429.5429   -30.014093    4195.0618   -4254.8848    -195.0543    4028.7324   -4418.6338    -13353.75    154.27323 
    1200    40.562401    40.562401    40.562401    595.06575    539.95132    4774.7905   -3694.6936    625.63845    4856.9671   -3605.4827    619.60749    4852.0275   -3612.6112    -13359.83    167.17798 
    1250    40.569413    40.569413    40.569413    166.79261    92.903564    4324.5832   -4138.5685    250.18713      4482.22   -3981.6354    157.28713    4389.3242   -4074.5462   -13356.017    160.90148 
    1300    40.581899    40.581899    40.581899   -560.61752   -582.11355    3637.5133   -4801.5287   -449.93781    3773.3179    -4672.974   -649.80119    3573.3944   -4872.7991   -13357.596    165.08945 
    1350    40.575948    40.575948    40.575948    -187.6128   -340.24911    3884.4991   -4564.7973   -119.43237    4105.5945   -4344.2451   -103.15693    4122.6141   -4328.7154   -13356.829    164.72703 
    1400    40.566127    40.566127    40.566127    565.86425    499.12344     4733.616   -3735.1445    641.64272    4874.9233   -3591.4085    556.82658    4791.9517   -3678.0744   -13354.386    161.14085 
    1450    40.572988    40.572988    40.572988    -8.561472    -54.13345    4173.1036   -4281.1431   -9.1404528    4218.9124    -4236.957    37.589487     4263.474   -4188.0578   -13356.765    166.86433 
    1500    40.579794    40.579794    40.579794   -267.41446   -332.77441    3892.4542   -4557.7677   -176.15609    4047.9516   -4400.0175   -293.31287    3931.1255   -4517.5138   -13353.672    162.03422 
    1550    40.576834    40.576834    40.576834   -220.87916   -335.60203    3889.5541   -4560.5001   -207.98546    4018.1636   -4433.8615   -119.05001     4105.357   -4343.1882    -13357.33    170.23169 
    1600     40.56902     40.56902     40.56902    377.81634    358.40758    4591.3936     -3874.35    458.79305    4691.9506   -3774.1217    316.24838    4549.0817   -3916.3508   -13352.705    162.42694 
    1650    40.573333    40.573333    40.573333    121.60248    65.830518    4293.1059   -4161.1998    161.88969    4390.5116   -4066.4755    137.08722    4365.7417   -4091.3282     -13355.4    168.76756 
    1700    40.580701    40.580701    40.580701   -351.25931   -404.48696    3822.1173   -4630.8225   -356.71365    3868.1333   -4581.2841   -292.57732     3934.665   -4519.5538   -13352.169    163.67705 
    1750    40.576849    40.576849    40.576849   -32.167301   -50.678233    4174.6879   -4275.7763   -63.920617    4160.1947   -4287.7612    18.096946    4243.4065   -4206.9324   -13355.552    171.33506 
    1800    40.570697    40.570697    40.570697    303.86959    205.87186    4439.8075   -4027.7927    337.67696     4569.724   -3894.0711    368.05996    4600.9109   -3864.5241   -13351.254    164.18628 
    1850    40.573832    40.573832    40.573832    241.25661    160.65476    4389.1546   -4067.5841    291.81867    4521.8713   -3937.9735    271.29639    4499.6311    -3956.773   -13351.989    166.73526 
    1900    40.582525    40.582525    40.582525   -408.49907   -517.11515    3705.9084   -4739.8718    -372.3218    3849.0679   -4593.4345   -336.06028    3885.6052   -4557.4676    -13355.88     175.4205 
    1950    40.579035    40.579035    40.579035   -121.18037    -78.31077    4151.3879   -4307.7045   -80.564036    4149.3185    -4310.112    -204.6663    4023.8454   -4432.8734   -13350.032    165.23107 
    2000     40.57151     40.57151     40.57151    262.28188    197.36064    4427.7617   -4032.7224    289.69509    4518.9622   -3939.2478     299.7899    4528.1265   -3928.2301   -13356.433    178.77171 
    2050     40.57415     40.57415     40.57415    291.00696    438.91963    4669.1173   -3790.9878    282.96388    4514.8097   -3948.5856    151.13737    4383.0952   -4080.5388   -13349.034    165.59547 
    2100    40.583714    40.583714    40.583714   -349.64824   -571.69905    3652.7604   -4795.8793   -278.61218    3946.7037   -4503.6333   -198.63349    4023.8639   -4420.8557    -13352.82     174.0797 
    2150    40.580896    40.580896    40.580896   -115.46102   -185.78203    4043.2598   -4414.5209   -83.935203    4144.6913   -4312.2286   -76.665824    4152.3789   -4305.3927   -13348.342    166.55152 
    2200    40.573232    40.573232    40.573232    266.96923    327.53375    4558.4126   -3902.9999    145.53519    4373.8423   -4082.4183    327.83874    4556.4693   -3900.4419   -13352.358    175.46306 
    2250    40.574827    40.574827    40.574827    151.21048    253.25725    4484.9885   -3978.1435    168.12758    4396.4093    -4059.812    32.246605    4263.2758   -4198.4624   -13351.993    175.91954 
    2300    40.582519    40.582519    40.582519   -229.92012   -262.55007    3964.7097   -4489.4933   -227.80284    3998.0724   -4453.3376   -199.40745    4025.1981    -4423.692   -13351.098    175.32277 
    2350    40.582472    40.582472    40.582472   -261.47493   -230.22332    3993.4599   -4453.5465   -223.18601    4000.1537   -4446.1753   -331.01546    3894.2957   -4555.9778   -13351.015     176.3209 
    2400    40.575117    40.575117    40.575117    304.99838    318.71288    4549.2878   -3911.5027    230.82389    4464.5422   -4002.5271    365.45835    4597.4866    -3866.206    -13348.88    173.33846 
    2450    40.576041    40.576041    40.576041    115.98281   -49.519186    4182.0392    -4280.729    231.81908    4463.6121    -3999.612    165.64854     4395.892   -4064.2497   -13349.774    176.22576 
    2500    40.581993    40.581993    40.581993    -86.32248   -223.14465    4004.5467   -4450.4904   -50.962736    4176.0149   -4277.5658    15.139951    4243.4885   -4212.8553   -13348.601    175.08643 
    2550    40.583873    40.583873    40.583873   -280.78867    -329.5054    3894.6488   -4553.2957   -351.60669    3870.7181   -4573.5566   -161.25393    4064.7838   -4386.9371   -13350.803    180.51146 
    2600    40.577203    40.577203    40.577203    317.49535    231.68198    4466.1601     -4002.43    393.67729    4623.3289   -3835.6013    327.12677    4558.8692   -3904.2474    -13345.69    171.77884 
    2650    40.578933    40.578933    40.578933    13.030925    144.96731    4375.8661   -4085.5359   -44.713472    4185.7603   -4274.7908   -61.161069     4167.905   -4289.8413   -13350.912    183.01571 
    2700    40.583518    40.583518    40.583518   -174.83865   -293.93299    3934.8111   -4522.2865   -111.84152    4115.4981   -4338.7713   -118.74145    4109.3959   -4346.4891   -13346.798    176.21518 
    2750    40.582481    40.582481    40.582481   -39.748764   -65.184794     4162.413   -4292.3999    -87.13603    4138.9704   -4312.8307    33.074533    4261.3553   -4194.8143   -13348.669    180.97912 
    2800    40.578705    40.578705    40.578705    108.86451   -19.945463    4211.6023   -4251.1055    191.66526    4423.8935   -4040.1428    154.87373    4387.1035    -4076.977   -13346.376    177.70923 
    2850    40.579322    40.579322    40.579322    124.53218    81.912131    4312.1056   -4147.8767    124.60452     4353.955   -4104.3241     167.0799    4397.2836    -4062.738   -13349.584    185.05983 
    2900    40.584645    40.584645    40.584645   -69.825092    -152.5521    4076.1093   -4380.7776   -33.708358    4192.8781   -4259.8462   -23.214815    4205.3901   -4251.3899   -13345.868     179.0187 
    2950    40.585359    40.585359    40.585359   -182.56258   -154.04171    4071.3223   -4378.9801   -313.08375    3912.4681   -4538.1853   -80.562296    4146.9511   -4307.6527   -13345.484    179.44392 
    3000    40.580393    40.580393    40.580393    103.06038     17.74205    4248.1933   -4212.2995    199.86076     4428.689   -4028.5298    91.578338    4323.4613   -4139.8918   -13349.988    189.30398 
    3050    40.580507    40.580507    40.580507    62.168107    44.094515    4276.6394   -4188.0226    20.509683     4253.116   -4211.6426    121.90012    4352.3663   -4108.1301   -13345.218    181.21565 
    3100    40.584708    40.584708    40.584708   -107.42179   -223.08689    4005.9729   -4451.6842   -59.455111    4170.9315   -4289.3629   -39.723375    4188.7797   -4267.7795   -13347.434     186.6605 
    3150    40.585857    40.585857    40.585857   -139.90607   -193.02274    4034.5973    -4420.183   -102.84206    4126.6508   -4331.8443    -123.8534    4104.0141   -4351.2518   -13344.327    181.78994 
    3200    40.582817    40.582817    40.582817    56.136466   -25.815173    4202.4109   -4253.5947    83.857537    4311.9106   -4143.7378    110.36703    4338.7401   -4117.5623   -13346.758    187.66531 
    3250    40.582883    40.582883    40.582883    202.40337    154.08445    4386.6184    -4077.978    136.98617     4366.593   -4092.1356    316.13948     4549.429   -3916.6789   -13343.925    183.32635 
    3300    40.587578    40.587578    40.587578    -209.4339   -371.94849    3855.3193   -4598.7329   -87.698913    4136.6888   -4311.5812   -168.65429    4056.2033   -4393.0313   -13345.062    186.68197 
    3350    40.586577    40.586577    40.586577   -9.0566859   -69.573038    4158.9047   -4297.5635   -16.305688    4211.7715   -4243.8729    58.708669    4286.6089   -4168.6966    -13343.41    184.64018 
    3400    40.584833    40.584833    40.584833    -4.464904   -169.79656    4058.9054   -4398.0281    46.672382    4276.3869   -4182.5382    109.72947    4337.3429   -4117.3989   -13346.346    191.46455 
    3450    40.585451    40.585451    40.585451    9.8032381   -98.559471    4130.7228   -4327.3552    71.647379    4301.6697    -4157.861    56.321806    4282.1511    -4169.027   -13344.024    188.12534 
    3500    40.587697    40.587697    40.587697   -73.255431   -198.59139    4029.5768   -4426.2329   -60.277768    4165.0884   -4285.1008    39.102863    4265.7086   -4186.9798   -13344.644    190.47515 
    3550    40.586958    40.586958    40.586958    -56.96485   -70.538578    4160.4375   -4300.9878    6.9900731    4234.8599   -4220.3274   -107.34605    4121.2744   -4335.4405   -13342.497     187.4769 
    3600    40.585183    40.585183    40.585183    109.67337    96.750394    4328.3749   -4134.3679    58.529928    4290.9072   -4173.3057    173.73977    4402.9646   -4054.9651   -13342.391    188.41229 
    3650    40.586887    40.586887    40.586887   -3.9723187   -11.668849    4218.6893    -4241.489   -45.333257    4184.5895   -4274.6836    45.085149    4272.6543   -4181.9586   -13342.044    188.88701 
    3700    40.588496    40.588496    40.588496   -27.142131   -83.336603      4142.73   -4308.8741   -12.131481    4215.4499   -4239.1458    14.041689    4240.0667    -4211.437   -13342.511    190.95338 
    3750    40.588371    40.588371    40.588371   -6.0911329    43.936973    4269.2061   -4180.7767   -56.088694     4171.133   -4282.7244   -6.1216783    4219.2063   -4230.9055   -13342.317    191.72699 
    3800    40.587518    40.587518    40.587518    21.179747   -96.321442    4133.0059    -4325.087    156.68462    4385.6115    -4071.647    3.1760619    4231.9574   -4225.0396    -13342.31    192.86572 
    3850    40.588168    40.588168    40.588168    103.71552    51.378646    4280.5709   -4177.2504    75.437151    4305.1396   -4153.6827    184.33078    4414.7282   -4045.4904   -13339.435    188.43341 
    3900    40.590071    40.590071    40.590071   -61.991803    41.084916    4269.0505   -4186.3272   -163.63867    4065.4921   -4392.1658   -63.421652    4163.1279   -4289.4189   -13340.244    191.15887 
    3950     40.58905     40.58905     40.58905    26.629811   -116.89505    4111.8088    -4345.017    111.68117    4340.7427   -4116.7588    85.103306    4314.0586   -4143.2546   -13340.459    192.71663 
    4000     40.58814     40.58814     40.58814    64.030856    18.996702    4249.6966   -4211.0899    37.882754    4269.9516   -4193.5437    135.21311    4363.0664   -4092.0098   -13340.476    193.89746 
    4050     40.58928     40.58928     40.58928    51.730888    26.058107    4254.0684   -4201.3555    48.279046    4278.8289   -4181.6327    80.855511    4308.8489    -4146.536   -13339.217    192.61086 
    4100    40.591447    40.591447    40.591447    -69.41407   -80.629256    4145.8154   -4306.4918   -72.506139    4155.8941   -4300.2755   -55.106814    4170.5321   -4280.1516   -13342.948    200.98044 
    4150    40.591167    40.591167    40.591167     -59.3496   -170.66274    4060.7344   -4401.4479   -23.297654     4205.154    -4251.095    15.911595     4243.276   -4210.8208    -13338.58    193.66416 
    4200    40.589402    40.589402    40.589402    126.45049    102.31182    4336.0129   -4130.7368    28.361074    4261.4468   -4204.0278    248.67858    4478.5443   -3980.5441   -13337.074    191.89142 
    4250    40.590375    40.590375    40.590375   -5.8786185    -95.14102    4132.6873   -4322.3255    71.464313    4300.5958   -4156.9908    6.0408519    4234.6581   -4221.9407   -13339.822    198.35283 
    4300    40.592312    40.592312    40.592312   -99.932489   -134.35608    4093.0751   -4361.1497   -92.003546    4137.0558    -4320.407   -73.437843     4152.995   -4299.2565   -13339.728    199.31371 
    4350    40.591432    40.591432    40.591432    30.669897   -17.453823     4211.259   -4245.5353    116.38325    4345.0898   -4111.6491   -6.9197307    4220.5325   -4233.7374   -13337.239    195.64072 
    4400    40.590868    40.590868    40.590868    6.1809803   -68.690877     4158.814   -4295.5244    32.701826     4260.166    -4194.046    54.531992    4282.9532   -4173.2174   -13340.043     202.2069 
    4450    40.592123    40.592123    40.592123   -2.7294806    31.335042    4260.2465   -4196.8826   -35.521345    4193.1265   -4263.4508   -4.0021387    4224.7748   -4232.0943   -13337.875    199.15199 
    4500    40.593642    40.593642    40.593642   -65.462705    36.313648     4263.901   -4190.5846   -97.154892     4131.102   -4324.6838   -135.54687    4091.3287   -4361.7415    -13337.41     199.3838 
    4550    40.592338    40.592338    40.592338   -64.277171   -161.69941    4066.5623   -4389.2777   -86.840811    4143.4664   -4316.4205    55.708711    4284.1372   -4172.0289   -13338.207    202.07086 
    4600    40.590278    40.590278    40.590278     249.1077    320.61637    4550.3947    -3908.472    284.38178    4515.8854   -3946.3877    142.32493    4375.2979    -4089.946   -13335.472    197.91016 
    4650    40.594313    40.594313    40.594313   -36.483052   -43.388388    4183.0532   -4269.1169     7.304162    4234.7421   -4219.3972   -73.364929    4152.8398   -4298.8551   -13336.259    200.57068 
    4700    40.596271    40.596271    40.596271   -162.12355   -160.59482    4064.1738   -4384.6485   -175.19352    4052.4896   -4402.1089   -150.58232    4076.4673   -4376.8882   -13336.155    201.50807 
    4750    40.592916    40.592916    40.592916    73.064448    98.496599      4328.08   -4130.3449    218.68878    4448.0197   -4009.8752   -97.992039    4129.3489   -4324.5957   -13336.665     203.6226 
    4800    40.592243    40.592243    40.592243    93.558524    177.60258    4404.8111   -4048.8848   -87.323114    4144.5001   -4318.3745    190.39611    4417.5782   -4036.0544   -13336.604    204.63746 
    4850    40.595451    40.595451    40.595451    4.2171739   -108.36622    4118.7983   -4334.7907    56.758562    4285.8052   -4171.4936    64.259175    4293.2864   -4164.0128   -13334.982    202.63372 
    4900     40.59738     40.59738     40.59738   -207.49532   -38.513481     4186.623   -4262.8938   -236.77389    3990.0143   -4462.7702   -347.19859     3881.262   -4574.8782   -13335.657    205.06988 
    4950    40.592949    40.592949    40.592949    160.16595    79.901741    4308.8327   -4148.2728    153.84852    4382.8575    -4074.373    246.74758    4478.7928   -3984.5429   -13333.532    202.08895 
    5000    40.593071    40.593071    40.593071    183.41074     268.5787    4498.0513   -3960.1061     243.1868    4472.6016   -3985.4126    38.466717    4271.1516   -4193.4469   -13334.242    204.58527 
    5050    40.598517    40.598517    40.598517   -115.69735   -166.07939    4057.7584   -4389.1213     -169.547    4060.7232   -4398.9701   -11.465649    4213.8854   -4236.0155   -13334.019    205.27643 
    5100     40.59878     40.59878     40.59878   -111.70343    -8.370906    4219.1469   -4235.0641   -166.12906    4060.3527   -4391.7443   -160.61033    4063.9371   -4384.3339   -13332.452    203.37832 
    5150    40.594255    40.594255    40.594255    96.931121    101.97383    4329.4208   -4124.6552    87.628943    4316.0176   -4139.8907    101.19059    4329.9765   -4126.7548   -13334.964    209.35602 
    5200    40.594043    40.594043    40.594043    196.29774    273.67141    4502.0807   -3953.9088    221.69784    4448.5457   -4004.3041    93.523963    4322.9327   -4135.0788   -13335.021    210.58986 
    5250     40.59947     40.59947     40.59947   -89.380203   -116.97376    4108.9956   -4342.1088   -109.49403    4120.2097   -4338.3245    -41.67282    4184.3004   -4266.8163   -13330.257    202.50162 
    5300    40.599859    40.599859    40.599859   -145.25531   -136.63669    4087.9976   -4360.4223   -209.45351    4016.5693   -4434.5655   -89.675735    4136.7253   -4315.2024   -13332.957    208.84095 
    5350    40.595213    40.595213    40.595213    222.90062    257.82359    4484.6641   -3968.1624    316.73027    4545.9284   -3911.5721    94.147998    4322.9873   -4133.8281   -13332.065    208.23568 
    5400    40.596174    40.596174    40.596174    152.99394    182.46696    4410.2836    -4044.504    168.26953    4400.4002   -4062.9535    108.24535    4337.2732   -4119.9249   -13331.528    208.31029 
    5450    40.601169    40.601169    40.601169   -137.60144   -286.80303    3940.3338   -4513.0617   -30.046473    4197.2374    -4256.408   -95.954809    4131.5993   -4322.6333   -13330.969    208.33875 
    5500    40.601195    40.601195    40.601195   -223.23281   -155.64611    4068.6373   -4379.0205   -294.77355    3928.8208   -4517.4336   -219.27877    4004.6759   -4442.3389   -13333.433    214.21786 
    5550    40.595615    40.595615    40.595615    182.19163    236.97313    4467.2183   -3992.3501    219.29512    4448.8036   -4009.2536    90.306631    4318.3687   -4136.8417   -13332.625    213.77091 
    5600     40.59647     40.59647     40.59647    157.71549    95.081188    4324.8449   -4133.7724    126.56426    4356.7674    -4102.698    251.50101     4480.548   -3976.6346    -13331.02    211.77575 
    5650    40.602086    40.602086    40.602086   -122.48126   -162.13077    4064.5238   -4387.8579   -127.35932    4100.0317   -4353.7831   -77.953682    4150.7916    -4305.775   -13328.959    208.89658 
    5700    40.602031    40.602031    40.602031   -129.57349   -144.97713    4078.4155   -4367.4171    -92.19506    4132.7659   -4316.1642   -151.54828    4075.6581   -4377.8054   -13330.973    213.90323 
    5750    40.597351    40.597351    40.597351    249.95841     130.2933    4358.1711   -4096.6484    256.42866    4486.4334   -3972.5973    363.15327    4591.3709   -3864.1269   -13329.355    211.87752 
    5800    40.599001    40.599001    40.599001    81.368288    70.461749     4300.292   -4158.4105    220.52608    4448.2515   -4006.2066   -46.882963    4182.1333   -4274.9404    -13329.51    213.28364 
    5850    40.603186    40.603186    40.603186   -204.96413   -200.81552    4024.8941   -4425.5438   -191.63639    4034.7616   -4417.0296   -222.44049    4004.3076   -4448.2076   -13330.974    217.21937 
    5900    40.602446    40.602446    40.602446   -126.97389   -248.41884    3979.5013   -4475.3546   -16.958909    4212.3747   -4245.2592   -115.54392    4112.8618   -4342.9737    -13329.54    215.52932 
    5950    40.598403    40.598403    40.598403     257.9828    272.70332    4503.0248   -3956.6157    348.64877    4576.4557   -3878.1447    152.59632    4382.9731   -4076.7805   -13327.614    212.91421 
    6000     40.60021     40.60021     40.60021    86.846298    101.33594      4328.29   -4124.6224   -18.435667    4212.9178   -4248.7204    177.63862    4405.3011   -4049.0208   -13327.324    213.44455 
    6050     40.60381     40.60381     40.60381     -147.965   -193.76594    4032.5897    -4419.112   -73.546053     4152.304   -4298.3476   -176.58301    4049.9549   -4402.1169   -13330.172    220.05867 
    6100    40.602318    40.602318    40.602318    -26.95951    24.115571    4251.1168   -4201.8777    -126.5007    4102.2783   -4354.2333    21.506596    4250.5314   -4206.4993   -13327.624    216.21915 
    6150    40.600005    40.600005    40.600005    91.858136   -57.062472    4171.4013   -4284.4787     204.7372    4432.6563   -4022.0867    127.89968    4355.8463   -4099.0006   -13329.971    221.84627 
    6200    40.601871    40.601871    40.601871     18.81411    18.213485    4247.1675   -4209.6823    68.835547    4298.3077   -4159.5375   -30.606703    4200.4026   -4260.5821   -13326.581     216.3745 
    6250    40.604737    40.604737    40.604737   -124.00793   -72.865587     4153.241   -4297.9081   -231.27249    3994.4368   -4455.8932   -67.885715     4160.018   -4294.7395    -13327.32    218.88695 
    6300    40.603226    40.603226    40.603226    38.479186    -71.27144    4155.1035   -4296.5806     210.4996    4436.7377   -4014.6191   -23.790601    4202.5204   -4249.0249   -13327.339     220.0188 
    6350    40.602348    40.602348    40.602348    53.655171    168.57174     4394.936   -4056.7026   -65.580559    4161.7095    -4291.724    57.974335    4284.6371   -4167.5979   -13327.803    222.00053 
    6400    40.604389    40.604389    40.604389   -55.165601   -243.02272    3985.3776   -4470.3089    81.803234    4312.1245   -4147.3632   -4.2773159    4223.4926   -4230.9557    -13327.19    221.89227 
    6450    40.605242    40.605242    40.605242   -103.23012   -18.394609    4209.0967   -4244.7829   -201.09066    4026.5925   -4427.6267   -90.205083    4140.7881    -4320.088   -13326.925    222.45568 
    6500    40.603815    40.603815    40.603815    39.068389   -146.98714     4083.436   -4376.2863     -28.4868    4199.1438   -4254.9315    292.67911    4522.6982   -3936.2171   -13326.809    223.30103 
    6550     40.60387     40.60387     40.60387    22.403565    29.280286    4256.8359   -4197.1617    75.786435    4303.6514   -4150.8794   -37.856025    4190.2383   -4264.8282   -13324.708    220.30764 
    6600     40.60543     40.60543     40.60543    36.934272   -27.131059    4199.0964   -4252.2056    31.251669    4261.3248   -4197.6058     106.6822    4333.6216    -4119.117   -13325.152    222.24729 
    6650    40.606492    40.606492    40.606492    27.935899   -38.026677    4190.1582   -4265.0332    291.58289     4519.578   -3935.1812   -169.74852    4059.3405   -4397.6829   -13323.272    219.68455 
    6700    40.605902    40.605902    40.605902   -2.8302171   -32.479587     4192.217   -4256.0365   -15.290284     4211.809   -4241.1666    39.279221    4263.7975   -4184.0841   -13325.483    225.03079 
    6750    40.605041    40.605041    40.605041    116.28823    11.166754    4238.2087   -4214.7287    118.66357    4349.1585   -4110.5873    219.03438    4449.0285   -4009.7826     -13324.7    224.58162 
    6800    40.606317    40.606317    40.606317   -94.135085   -116.06994    4111.6524   -4342.5968   -53.083775    4175.9875   -4280.8819   -113.25154    4115.2506   -4340.5821   -13324.612    225.46738 
    6850    40.606909    40.606909    40.606909   -131.72414   -177.87527     4048.664   -4403.2097   -112.67255    4115.5766   -4339.6339   -104.62461    4123.1686   -4331.2158   -13327.361    231.83937 
    6900    40.606457    40.606457    40.606457    38.770044   -42.543621    4184.0615   -4267.9376    139.77117    4368.1935   -4087.3612    19.082584    4247.3532    -4207.956    -13323.81    226.02987 
    6950    40.607088    40.607088    40.607088    -35.87355   -57.864929    4166.4808   -4280.9661   -99.363756    4128.3131   -4325.7546    49.608035    4274.7707    -4174.326   -13325.976    231.28561 
    7000    40.607798    40.607798    40.607798   -21.517973   -27.074967    4202.6932   -4255.6196    68.888779    4299.2601    -4160.168   -106.36773    4122.2667   -4333.7661   -13321.758    224.17335 
    7050    40.608361    40.608361    40.608361   -85.333283   -62.294957    4163.8943   -4287.2456   -78.471956    4149.8847   -4305.4835   -115.23294    4109.6283   -4338.8483   -13324.227    229.99186 
    7100    40.607551    40.607551    40.607551  -0.32340728   -15.680349    4210.2638   -4240.3648    51.728357    4279.3746   -4174.5738    -37.01823    4191.5656   -4264.3158   -13323.223    229.10019 
    7150     40.60782     40.60782     40.60782    20.921777    45.317835    4271.2887   -4179.3855   -55.509065    4172.3867   -4282.0445    72.956561    4301.9549   -4154.7432   -13323.207    230.11782 
    7200    40.609482    40.609482    40.609482   -77.821672   -101.91746     4122.805   -4325.3649    4.9611119    4232.9248   -4221.6243   -136.50867    4092.6625   -4364.3752   -13323.495    231.72021 
    7250    40.609913    40.609913    40.609913    50.433017   0.56460385      4226.76   -4224.3359    75.008988    4301.5747   -4150.1853     75.72546    4302.8651   -4150.1103   -13321.183    228.29296 
    7300     40.60956     40.60956     40.60956    -69.90714   -13.571925    4210.7466   -4236.6166   -179.09254    4049.1272   -4405.9139   -17.056953    4209.5992   -4242.3703   -13321.826    230.56804 
    7350    40.608273    40.608273    40.608273    147.86894    124.22491    4352.9462   -4103.1799    181.66507    4412.2549   -4047.4942    137.71684     4366.491   -4089.7131   -13319.822    227.72576 
    7400     40.61072     40.61072     40.61072   -38.902497   -22.541514    4206.3318    -4250.076   -63.916036    4165.5684   -4291.9438   -30.249939    4197.1165   -4256.2392   -13321.343    231.69891 
    7450      40.6122      40.6122      40.6122   -125.41163   -226.57028    3995.5278   -4447.3236    -33.61997    4190.5608   -4256.3402   -116.04465    4106.7754    -4337.499   -13322.895    235.72868 
    7500    40.610108    40.610108    40.610108   0.23229987   -85.457416    4141.3881    -4310.943    5.8911509    4232.2908    -4219.059    80.263165    4305.6859   -4143.7906   -13321.055    233.20319 
    7550    40.608593    40.608593    40.608593    216.78304    152.03962    4379.8658   -4074.4304    265.65517     4495.155   -3962.3309    232.65434     4462.872   -3996.1653   -13319.725    231.64868 
    7600    40.612333    40.612333    40.612333   -46.447022   -71.347699     4154.467   -4295.7792    11.081953    4238.2587   -4214.5861    -79.07532    4146.2219   -4302.9568    -13319.66    232.54909 
    7650    40.614101    40.614101    40.614101    8.5688691   -63.097679    4160.3307   -4285.1456    126.74828    4352.8706   -4097.8689   -37.943999    4188.2437   -4262.7227   -13317.293     228.9811 
    7700    40.612387    40.612387    40.612387   -98.768505   -57.973541    4165.7045   -4280.2364   -144.42907     4085.873   -4373.1981   -93.902904     4131.479   -4317.8636   -13319.588    234.44054 
    7750    40.607968    40.607968    40.607968    199.50031    202.77634    4433.7726   -4026.7937    254.41477    4484.7034   -3974.3338    141.30983    4367.4384   -4083.3846   -13320.441    237.10839 
    7800    40.611213    40.611213    40.611213    10.113906    81.539417    4305.3084    -4140.803    -64.43268    4163.5902   -4290.9214     13.23498    4240.0624   -4212.1348   -13320.135    237.51591 
    7850    40.615802    40.615802    40.615802    -190.8177   -123.93483    4099.6882   -4346.1156   -155.49397     4070.967   -4380.3845   -293.02431    3935.5208   -4520.0711   -13316.958    232.37563 
    7900    40.614071    40.614071    40.614071   -62.814506    -179.3342    4043.6388   -4400.8562   -47.023971    4181.2362   -4273.6704    37.914647     4265.706   -4188.3752   -13319.654    238.59408 
    7950    40.610522    40.610522    40.610522     61.91862    100.38714    4329.5057   -4127.2594    136.28653    4368.0967   -4093.9273   -50.917809    4175.3683    -4275.727   -13320.447    241.13365 
    8000    40.612416    40.612416    40.612416    54.480615    36.677358    4266.3182   -4191.4724    96.889371     4325.085   -4129.6894    29.875117    4259.1148   -4197.8281   -13318.108    237.59574 
    8050    40.616739    40.616739    40.616739   -201.42892   -220.49972    4004.4162   -4443.8866   -266.56184    3958.6847   -4490.1668   -117.22521    4107.4355   -4340.3425   -13317.484     237.3978 
    8100    40.613917    40.613917    40.613917   -29.516087   -62.473189    4164.3324   -4287.7731    8.6103831    4235.2272   -4216.3688   -34.685456    4190.2948   -4258.1266   -13318.824    240.98117 
    8150    40.611079    40.611079    40.611079    233.41268     250.2191    4476.0398   -3974.0854    199.26147    4429.0612   -4028.8822    250.75748    4479.7038   -3976.6369   -13316.499    237.46563 
    8200    40.615557    40.615557    40.615557   -73.482497   -143.76325    4082.0604   -4368.0119    121.83238     4348.813   -4103.4631   -198.51662    4024.3279   -4419.8152   -13318.206    241.75524 
    8250    40.618041    40.618041    40.618041   -99.554299    28.475224    4255.1337   -4196.6344   -164.46411    4064.0391   -4391.2738   -162.67401    4061.8149   -4385.5875    -13314.28    235.13872 
    8300    40.614975    40.614975    40.614975    28.031927   -144.03934    4082.7315   -4369.2385    205.83186    4433.2134   -4019.8521    22.303256    4249.0442   -4202.8324   -13316.211    239.85171 
    8350    40.611951    40.611951    40.611951    171.74974    263.70158    4492.1593    -3963.165    140.68604      4369.51   -4086.4271    110.86162    4340.7224   -4117.3959   -13316.616    241.61323 
    8400    40.614453    40.614453    40.614453    143.17086  -0.11537715     4227.033   -4225.6817    138.95256    4368.6573    -4089.037     290.6754    4517.7932    -3934.852   -13313.361    236.28983 
    8450    40.618979    40.618979    40.618979   -283.99859   -222.64095    4002.0842   -4445.7329   -181.34927    4044.4111   -4405.3567   -448.00554    3779.8815   -4674.2549   -13317.732     245.7156 
    8500    40.615661    40.615661    40.615661   -29.771671   -69.689884    4156.4422    -4294.183    -99.93417    4128.9383   -4327.0117    80.309039    4307.1886   -4144.9151    -13315.56    242.47643 
    8550     40.61192     40.61192     40.61192    275.83701    274.34212    4503.5746   -3953.2426    321.67168    4553.0083    -3907.896    231.49724    4457.3594   -3992.7192   -13315.123     242.6027 
    8600    40.616597    40.616597    40.616597   -150.21221    -307.5939    3919.3781   -4532.9001    22.330695    4251.6172   -4205.1221   -165.37342    4058.8971   -4387.9643   -13317.089    247.35868 
    8650     40.61938     40.61938     40.61938   -70.949903   -188.44591    4035.3383   -4410.5451   -23.889919    4200.7578   -4246.7316  -0.51388247       4225.1   -4224.4391   -13313.832    242.01927 
    8700    40.618511    40.618511    40.618511   -118.97868   -41.616921    4185.2698   -4266.8109   -90.616415      4135.86   -4315.2786   -224.70272    4000.2033   -4447.9163   -13314.804    244.84642 
    8750    40.615356    40.615356    40.615356    184.70792    24.093517    4252.7883    -4202.877    267.47839    4498.1255   -3961.3021    262.55184    4488.6286   -3961.8161   -13312.664    241.65958 
    8800     40.61578     40.61578     40.61578    49.124551    51.019324    4277.8792    -4174.124    85.170428    4317.2183   -4145.0081    11.183902     4237.639   -4213.5611   -13313.827    244.86054 
    8850    40.617841    40.617841    40.617841   -30.004023   -14.969104    4212.1969    -4240.393    14.218623    4241.7504   -4211.4321   -89.261589    4137.7116   -4314.4762    -13314.23    246.57563 
    8900    40.618905    40.618905    40.618905   -196.67237   -69.287145    4156.4797   -4293.3124   -267.14581    3958.4229   -4490.8411   -253.58416    3970.1322   -4475.5345   -13315.482    249.94202 
    8950    40.616633    40.616633    40.616633    113.56155     17.70615    4247.1807   -4210.0011    205.62112     4432.481   -4019.3326    117.35737    4345.6638   -4109.1987   -13312.174    244.47327 
    9000    40.617981    40.617981    40.617981   -5.3782871   -96.290796    4130.6647   -4321.4472    102.10605    4329.3951   -4123.2772   -21.950111    4204.2725   -4246.4048   -13315.903    252.62496 
    9050    40.620148    40.620148    40.620148   -48.644761    26.770246    4251.0353   -4195.6913   -95.187336    4133.1038   -4321.5533   -77.517195    4148.5302   -4301.7402   -13311.498    245.02404 
    9100    40.620057    40.620057    40.620057   -49.592958   -174.28861    4050.9678   -4397.7464   -33.121107    4192.1863   -4256.4518    58.630846    4285.5918    -4166.483   -13312.283    247.47347 
    9150     40.61758     40.61758     40.61758    150.26405    225.47259    4453.1989   -4000.4141    101.73932    4330.4424   -4124.9999    123.58025    4351.3507   -4102.3638   -13310.095    244.16108 
    9200     40.61774     40.61774     40.61774    72.268147    41.329583    4270.7116   -4186.1992    38.217779    4262.6578   -4184.2644    137.25708    4365.2974   -4088.9436   -13311.689    248.16871 
    9250    40.619622    40.619622    40.619622   -84.083887   -149.79255    4074.1165   -4371.8691    -69.87264    4156.2179    -4293.989   -32.586469    4191.1444   -4254.4684   -13311.349    248.42467 
    9300    40.619538    40.619538    40.619538    119.50181    125.80622    4349.2199   -4095.7746     23.83651    4253.1433   -4203.4514    208.86271    4433.8513   -4014.2742   -13311.853    250.31265 
    9350    40.620623    40.620623    40.620623   -23.026387   -212.93313    4013.4789   -4437.4676    47.062092    4277.9216   -4181.7596    96.791877     4324.832   -4129.3464   -13310.946    249.45277 
    9400    40.621651    40.621651    40.621651   -110.30374    55.349363    4282.1176   -4169.5164   -308.53971     3916.766   -4531.8164   -77.720873     4147.756   -4301.3157    -13310.94    250.34293 
    9450    40.620796    40.620796    40.620796    119.80518    22.147835    4249.3871   -4203.1872    168.09362    4395.7358   -4057.5155    169.17409    4397.1166   -4056.8687   -13308.678    246.86507 
    9500    40.621436    40.621436    40.621436   -77.654363   -94.095478    4133.2766   -4319.5326   -169.62014    4056.9747    -4394.148    30.752526    4253.9479   -4190.5244   -13312.361    254.89143 
    9550    40.620956    40.620956    40.620956    80.176844   -81.439503    4143.9357   -4304.8725    171.10941    4398.4642   -4054.1587    150.86063    4378.2079   -4074.5324   -13310.642     252.4677 
    9600    40.623082    40.623082    40.623082   -100.37971   -50.707541    4174.4462   -4273.8906   -83.798674    4144.4992   -4309.9732   -166.63292    4060.1233    -4391.416   -13311.014    254.06807 
    9650     40.62368     40.62368     40.62368   -96.708169   -111.18675    4113.3652   -4333.7766   -146.71085    4077.5031    -4368.831   -32.226906    4191.3682   -4253.8517   -13309.976    252.94982 
    9700    40.621786    40.621786    40.621786    25.766695   -101.68196    4123.1359   -4324.5201    193.85198    4419.5348   -4029.7108   -14.869939    4213.1022   -4240.8475   -13311.217    256.23031 
    9750    40.621617    40.621617    40.621617    63.783347    45.223363    4273.8731   -4181.4271    18.202269    4248.5844   -4210.0141    127.92441    4353.2113   -4095.3559   -13309.015    252.84887 
    9800    40.623567    40.623567    40.623567    30.108544   -256.64207    3969.3952   -4480.6699    218.38384    4443.2154   -4004.2831    128.58387    4352.3536   -4093.1615   -13308.817     253.3361 
    9850    40.625018    40.625018    40.625018   -209.09391   -204.87145    4018.8918   -4426.5968   -333.00963    3895.0315   -4558.8574   -89.400642    4132.7696   -4309.5344    -13310.94    258.31262 
    9900    40.622237    40.622237    40.622237    148.31384    127.49748    4355.7139    -4098.665    211.31408    4438.6423   -4013.8271    106.12996    4337.6012   -4123.2894   -13307.278    252.08567 
    9950    40.623383    40.623383    40.623383     1.582774    69.834119    4294.1649   -4152.4491   -163.62004    4062.2715   -4387.2948    98.534248    4322.2257   -4123.0865   -13310.401     258.9926 
   10000     40.62607     40.62607     40.62607   -49.067764   -32.888182    4191.5239   -4255.1994    31.781308    4257.5789   -4191.7964   -146.09642    4077.1176   -4367.2474   -13306.221    251.76572 
   10050    40.625601    40.625601    40.625601   -111.26613   -260.75667    3964.1241   -4483.5393   -93.751589    4131.2759   -4316.5514    20.709871    4244.5741   -4201.0748   -13309.037    258.07207 
   10100     40.62165     40.62165     40.62165    194.77386    28.814092    4258.4277   -4198.6995    505.48434    4732.7895    -3719.576    50.023147    4276.4083   -4174.2535   -13308.396    257.68142 
   10150    40.623957    40.623957    40.623957    148.65111    67.804204    4293.6809   -4155.9638    36.673761    4263.6743   -4188.0607    341.47535    4567.7611   -3882.6808   -13305.783    253.47093 
   10200    40.629076    40.629076    40.629076   -266.31898   -507.92354    3715.5348   -4729.2197   -161.58297    4059.5127   -4380.3989   -129.45043    4091.8654   -4348.6174     -13308.7    259.95316 
   10250    40.626239    40.626239    40.626239    139.51768    308.09578    4532.6946   -3914.3474    15.774635    4243.6549    -4209.788    94.682613    4321.8023   -4130.2894    -13303.86    251.42496 
   10300    40.624167    40.624167    40.624167     -32.4434   -82.799664    4145.1147   -4308.5508   -62.479318    4165.8017   -4288.4297    47.948784    4274.6203   -4176.5062   -13309.107    262.41275 
   10350    40.623612    40.623612    40.623612     175.4361    204.33298    4433.6306   -4022.7592      258.726    4485.5528   -3965.7615     63.24931    4288.5084   -4159.8148   -13305.282     255.8423 
   10400    40.627102    40.627102    40.627102   -209.12009   -222.42107    4000.7369   -4443.3651   -245.20351    3979.3856   -4467.4262   -159.73569     4060.343   -4377.5976   -13309.194    264.24465 
   10450    40.626953    40.626953    40.626953   -37.296466   -132.87675    4091.4689   -4354.9998     82.48944    4306.5049   -4139.1179   -61.502083    4166.3164   -4287.0835   -13306.088    259.05202 
   10500    40.625844    40.625844    40.625844     3.606221    -58.26973    4165.7317   -4280.0535   -86.758565    4140.7828   -4311.9144    155.84696     4383.182   -4069.2173   -13306.912    261.45961 
   10550    40.625595    40.625595    40.625595    111.78184    112.94411    4339.1502   -4111.0129    309.47861    4541.6404    -3920.238   -87.077194    4139.2336   -4311.1164    -13304.68    257.95671 
   10600    40.628278    40.628278    40.628278   -8.4171661     70.80722    4295.5166   -4151.6257   -24.293744    4201.3672   -4247.5211   -71.764974    4151.3028   -4292.5378    -13304.87    259.13252 
   10650    40.629525    40.629525    40.629525    -76.00165    29.818683    4257.0037   -4195.0738    -84.45566    4134.8396   -4301.3249   -173.36797    4048.4701   -4392.8875   -13304.625    259.46901 
   10700    40.627011    40.627011    40.627011    47.009139   -16.427123    4209.1776   -4239.7196    162.61651     4386.475   -4058.7771   -5.1619706    4218.4788   -4226.4963   -13306.004    262.94252 
   10750    40.625683    40.625683    40.625683    101.81504    128.92511    4355.1433   -4094.9852    169.09554    4394.9301   -4054.2752    7.4244807    4237.0104   -4219.8237   -13304.619    261.05812 
   10800    40.628883    40.628883    40.628883   -57.759356   -232.59692    3994.7102    -4457.546   -42.288746     4184.933   -4266.9981     101.6076    4325.0495    -4119.457   -13305.472    263.48864 
   10850    40.630171    40.630171    40.630171   -214.60569     -342.753    3879.6775   -4562.8457   -101.34117    4123.2738   -4323.4439    -199.7229    4019.9473   -4417.0105   -13305.818    264.95585 
   10900    40.625775    40.625775    40.625775    151.63751    78.462207    4305.8106   -4146.5087    158.15176    4386.8636   -4068.0136    218.29857    4442.4749   -4003.5191   -13303.888    262.00642 
   10950    40.625825    40.625825    40.625825    156.99311    351.87784    4578.5216   -3872.3544    28.857647    4256.6086   -4196.3412    90.243849    4319.5036   -4136.6151   -13304.334    263.65212 
   11000    40.629465    40.629465    40.629465   -4.6147152   -257.73613    3966.7626   -4479.8189    122.77483    4345.3275   -4097.2049    121.11715    4347.6591   -4103.0127   -13303.002    261.85318 
   11050    40.631044    40.631044    40.631044   -216.10871   -397.60634     3827.127   -4619.8976   -158.54736    4066.7532   -4381.2366   -92.172443    4129.6933   -4311.6028   -13305.477     267.4096 
   11100    40.628304    40.628304    40.628304   -8.2088922    -27.43093    4194.7845   -4247.2143   -7.8096948    4216.7408   -4229.7537    10.613949    4235.5086   -4211.8071   -13304.539    266.35772 
   11150    40.626833    40.626833    40.626833    47.524497   -24.750529    4202.1182   -4249.1561    171.35739    4397.6838   -4052.3324   -4.0333658    4221.5556   -4227.1478   -13304.416    266.89007 
   11200    40.628827    40.628827    40.628827    66.135866   -26.759252    4199.2779   -4250.3007    -54.27607     4172.771   -4278.6741    279.44292    4502.6213   -3941.2337   -13302.796     264.5124 
   11250    40.631237    40.631237    40.631237   -205.72997   -313.74178    3907.7871   -4532.7659   -196.51809    4027.3093    -4417.688   -106.93004    4117.3493    -4328.703   -13303.694    267.01032 
   11300    40.627988    40.627988    40.627988    145.36804    303.85977    4530.1128    -3919.898    46.112924     4275.296    -4180.375    86.131426    4310.1034   -4135.3456   -13301.625    263.75624 
   11350    40.627598    40.627598    40.627598    123.42655    49.406004    4276.6603   -4175.3123     151.7312    4378.0392   -4071.8871    169.14245    4394.4853   -4053.6548     -13302.5    266.19717 
   11400    40.631013    40.631013    40.631013   -77.358293   -166.48749    4057.6654   -4388.0693    -50.58186    4176.3011   -4274.7208   -15.005531    4211.2128   -4238.6399   -13302.024    266.01716 
   11450    40.632363    40.632363    40.632363   -19.472944    -90.11872    4131.8504   -4309.5187   -33.678407    4192.4726   -4257.0709    65.378293     4286.202   -4152.8707    -13300.91    264.60553 
   11500    40.630696    40.630696    40.630696   -3.0508462   -160.00149    4062.9277   -4380.3495    48.513397      4272.27   -4172.4836    102.33555    4324.7745   -4117.5039   -13301.475    266.43476 
   11550    40.628804    40.628804    40.628804    126.34517    150.27522    4373.3649    -4070.196    126.02328    4351.5051   -4096.6854    102.73703    4327.1626   -4119.0727   -13302.117    268.41079 
   11600    40.630261    40.630261    40.630261    73.233627   -189.57979    4037.0639   -4413.5805    117.34552    4341.0464   -4103.5533    291.93515    4516.7668   -3930.2867   -13300.928    266.82904 
   11650    40.634013    40.634013    40.634013   -181.24677   -102.18677    4119.3411   -4321.0622   -93.849952    4128.0566   -4312.9537   -347.70358    3875.9165    -4568.671   -13302.663    270.90194 
   11700    40.633111    40.633111    40.633111   -58.957529   -187.11382     4038.239   -4409.8097   -111.76711    4114.6272   -4335.3528    122.00834     4347.565   -4100.8953   -13300.459     267.3539 
   11750    40.630416    40.630416    40.630416    24.711564   -45.483729    4175.9104   -4264.2404    126.59345     4350.353   -4094.3574   -6.9750275    4214.9604   -4226.2562   -13302.282    271.58763 
   11800     40.63046     40.63046     40.63046    26.762155   -93.700409    4130.2822    -4314.984     19.32279    4247.7482   -4206.2161    154.66408    4377.8408    -4065.857   -13302.153    272.05155 
   11850    40.633042    40.633042    40.633042   -87.038853   -104.27361    4119.5297   -4325.3813    -134.4311    4090.0757   -4356.0438   -22.411855    4202.5805   -4244.7004   -13300.574    269.69782 
   11900    40.633192    40.633192    40.633192   -79.570443    23.165684    4244.6085   -4195.5379   -28.753296    4191.8379   -4246.4922   -233.12372    3990.7803   -4454.3235   -13299.843    268.98867 
   11950    40.631173    40.631173    40.631173    118.26227     10.00073     4235.757    -4213.009    122.41582    4347.5309   -4099.7731    222.37025    4448.0852   -4000.6092   -13301.134    272.18158 
   12000    40.632786    40.632786    40.632786   -78.056303    59.459661    4282.0257    -4160.365   -129.93546    4095.6227   -4352.5524   -163.69311    4058.3275   -4382.9712   -13301.306    273.20595 
   12050    40.633253    40.633253    40.633253   -112.85073   -227.21485    3994.6283   -4446.2746   -134.45662    4087.6276   -4353.6272    23.119281    4243.6638   -4194.6552   -13301.911    275.06268 
   12100    40.631762    40.631762    40.631762    74.823908    125.98572    4350.6267   -4095.8618   -51.757588    4174.4475   -4275.0001     150.2436    4374.9622   -4071.6854   -13300.219    272.47072 
   12150    40.632564    40.632564    40.632564    51.699905    67.557455    4291.0218   -4153.0861    36.367176    4259.4982   -4183.7974    51.175083    4276.0856   -4170.9235   -13299.354    271.46837 
   12200    40.635215    40.635215    40.635215   -52.400902   -178.48675    4048.9608   -4403.1054   -65.642467    4155.6463   -4283.9529    86.926515    4310.4996   -4133.8126   -13298.614    270.70756 
   12250    40.635432    40.635432    40.635432   -130.77979   -126.65134    4094.1087   -4344.5799   -32.035334    4193.5492   -4254.6022   -233.65269    3986.6443   -4451.1064   -13301.017    276.02303 
   12300    40.632938    40.632938    40.632938    135.49607    51.613656    4274.7842   -4168.7205    68.905016    4294.1884   -4153.3528    285.96953    4510.0746    -3935.255   -13298.193     271.2239 
   12350      40.6338      40.6338      40.6338    110.79204   -4.0624609    4220.9628   -4226.2101    156.24311    4376.5113    -4061.013    180.19546    4408.4607   -4045.1648   -13298.862    273.17917 
   12400    40.636491    40.636491    40.636491   -84.226133   -156.34843    4063.4734   -4373.3065   -53.223318    4167.3031   -4270.7183   -43.106656    4175.0198   -4258.3705   -13298.516    273.16508 
   12450     40.63608     40.63608     40.63608   -105.43112   -113.94969    4110.4361   -4335.4412    31.671273    4255.6699   -4189.2649   -234.01495    3989.4034   -4454.5109   -13299.057    274.85802 
   12500     40.63349     40.63349     40.63349    73.301941   -126.24504    4095.8537   -4345.4317     99.61075    4324.9459   -4122.6264    246.54011    4466.4153   -3970.3986   -13299.132    275.65091 
   12550    40.634765    40.634765    40.634765    108.36807    158.23465    4382.3456   -4062.9583    4.7940989    4229.6385   -4216.9263    162.07545    4386.6496   -4059.5548   -13297.624     273.3763 
   12600    40.638009    40.638009    40.638009   -209.13169   -344.18259    3878.9624   -4564.3822   -95.649934    4127.1857   -4315.3661   -187.56254     4036.605   -4408.7572   -13298.598     275.8979 
   12650    40.635318    40.635318    40.635318    42.289504    47.830192    4273.4917   -4174.8588   -45.030418    4178.3395   -4265.2331    124.06874    4347.6026   -4096.4841   -13299.196    277.68473 
   12700    40.634776    40.634776    40.634776    50.474438   -38.278257    4184.3501   -4257.9362    52.429299    4279.2665   -4171.2129    137.27227    4361.8686   -4084.3093    -13298.83    277.60061 
   12750    40.637413    40.637413    40.637413   -54.674044    116.52329    4339.1225    -4103.078   -89.556189    4133.5108   -4309.4415   -190.98924    4028.9241    -4407.878   -13297.222    275.11887 
   12800    40.637637    40.637637    40.637637    17.392318    -212.4068    4013.2197   -4435.0341    113.15086    4335.0082   -4105.5126     151.4329    4372.0737   -4066.1725   -13296.433    274.21775 
   12850    40.636444    40.636444    40.636444   -3.2089293    27.118558    4255.1345   -4197.8552   -64.830864    4158.6701   -4285.1314    28.085518    4253.9044   -4194.6785   -13296.615    275.18459 
   12900    40.635496    40.635496    40.635496    112.85919   -16.130395    4206.2924   -4235.5065    171.77843    4396.4159   -4049.6303    182.92953    4408.1487   -4039.2278   -13296.632    275.83382 
   12950     40.63761     40.63761     40.63761    70.575063    60.800672     4282.355   -4157.6785    54.946595    4276.2865   -4163.1644    95.977923    4320.7858   -4125.7441   -13296.897    276.95357 
   13000    40.639634    40.639634    40.639634   -170.17992   -259.99103    3962.0459   -4478.9177   -351.17303    3868.8707   -4567.9524    100.62431     4320.921   -4116.5694   -13298.108    279.90085 
   13050    40.637291    40.637291    40.637291   -3.4885987   -69.042692    4153.6478   -4288.6293    144.65744    4371.5368   -4078.9026   -86.080541    4137.0985   -4306.1487    -13297.37    279.07051 
   13100    40.635236    40.635236    40.635236    285.64911    315.25233    4543.1184   -3909.4816    260.62272     4487.797   -3963.2717    281.07229    4506.7511    -3941.461   -13293.252    271.69647 
   13150    40.639057    40.639057    40.639057   -181.74363   -167.99126    4050.7958   -4383.6604   -151.01727    4071.0006   -4369.7248   -226.22236    3993.5287   -4442.8143   -13298.159     281.7789 
   13200     40.63981     40.63981     40.63981    56.183701   -181.40784    4044.6337   -4404.2529    247.79395    4470.7822   -3971.8534      102.165    4323.0051   -4115.5095   -13294.232    274.76961 
   13250    40.638489    40.638489    40.638489   -86.426982   -235.51017    3988.2673   -4456.0946   -189.17544    4035.4125   -4410.4114    165.40466    4388.0171   -4054.0333   -13297.241    281.17201 
   13300    40.635856    40.635856    40.635856    92.943918    58.114107    4283.3186    -4163.867    243.30267     4467.974   -3977.9888    -22.58502     4202.461    -4244.455   -13296.341    280.00382 
   13350    40.637821    40.637821    40.637821   -11.807637   -71.060899    4153.9364   -4292.8435   -55.137929    4168.7651   -4275.6446    90.775916    4311.5839   -4126.8185   -13297.248    282.32932 
   13400    40.640089    40.640089    40.640089   -244.51189   -222.86359    3999.1212   -4441.6209   -325.95106    3895.7152   -4544.2036     -184.721      4042.08   -4408.2764   -13296.377    281.21349 
   13450    40.637708    40.637708    40.637708    224.67057    299.08332    4523.5241   -3922.0916    228.42859    4451.7448   -3991.4955     146.4998    4370.0082   -4073.7482   -13293.736    276.66879 
   13500    40.638508    40.638508    40.638508   -35.183139   -224.25489    4001.4604   -4446.6577   -23.668273    4197.9327   -4241.8634    142.37375     4363.963   -4075.9313    -13294.82     279.3269 
   13550    40.638004    40.638004    40.638004   -29.545736   -110.31045    4113.2536   -4330.5455    48.517033    4276.1341   -4175.6239   -26.843796    4191.7737   -4242.2264   -13296.986    284.07303 
   13600    40.637313    40.637313    40.637313    2.9985382    -20.30025    4204.0703   -4241.3438   -156.28401    4070.2772   -4379.4072    185.57988    4407.8018    -4033.346   -13296.215    283.12797 
   13650    40.638396    40.638396    40.638396   -14.068008   -114.53994    4108.9908    -4334.694    18.101605    4241.1832   -4201.5207    54.234306    4283.9382   -4172.1467   -13294.578    280.50422 
   13700     40.63977     40.63977     40.63977   -24.028045   -31.566892    4191.6806   -4251.4292   -88.182613    4133.8022   -4306.6678     47.66537    4267.3559   -4168.7378   -13294.035    279.99381 
   13750     40.63924     40.63924     40.63924    52.050265    -17.10691     4208.356   -4239.1222   -89.977532    4137.7659   -4314.1815    263.23524    4489.3376   -3959.4935   -13293.941    280.34795 
   13800    40.638391    40.638391    40.638391    110.32958    153.57904    4374.6945   -4064.1133  -0.92167679    4226.3089   -4224.5935    178.33139    4402.8184   -4042.8066   -13292.726    278.53424 
   13850    40.638572    40.638572    40.638572     76.64713   -45.554201    4180.2891   -4267.9371    116.22915    4338.5025   -4102.4855    159.26645     4380.985   -4059.1026   -13294.325    282.15374 
   13900    40.640473    40.640473    40.640473     9.791836   -57.548615    4167.5968   -4279.1964    19.475116    4241.3648   -4198.8548    67.449007    4291.4927   -4153.1676   -13293.875     281.8037 
   13950    40.642547    40.642547    40.642547   -155.24301   -131.91731     4085.766   -4346.1214   -131.80256    4087.9265   -4347.9876   -202.00915    4019.0163   -4419.6289   -13295.158    284.80494 
   14000     40.64039     40.64039     40.64039   -35.655012   -332.61646    3891.7797   -4553.5174     52.87647    4280.4543   -4171.0915    172.77495    4398.1468   -4049.1774   -13293.769    282.62806 
   14050    40.638549    40.638549    40.638549    49.507167    87.248983    4310.7298   -4132.7298    4.9390984    4228.0423    -4214.541    56.333419    4280.3744   -4164.2706   -13295.744    286.96311 
   14100    40.639947    40.639947    40.639947      2.72087    13.003139    4241.5203   -4211.9849   -31.598315    4190.1254    -4249.707    26.757785    4251.7846   -4194.7682   -13294.216    284.51509 
   14150    40.641101    40.641101    40.641101    30.233658   -3.9348283    4221.0862    -4225.407    187.21131    4409.5741   -4031.5143   -92.575504    4127.8363   -4309.5222   -13291.686    280.12516 
   14200    40.641083    40.641083    40.641083   -50.158484   -149.02153    4075.5633   -4370.0578   -41.156181    4181.0778   -4259.7382    39.702255    4262.0616   -4179.1857   -13294.162    285.40899 
   14250    40.641189    40.641189    40.641189    22.345014    12.646576    4234.2025   -4205.3439   -142.41608    4082.1056   -4363.2471    196.80455    4422.1729   -4025.0407   -13294.206    285.98202 
   14300    40.641404    40.641404    40.641404    104.07924    43.143855    4265.7059   -4175.8248    68.220708    4297.4581   -4157.2721    200.87317    4423.2524   -4017.9907   -13290.024    278.38251 
   14350    40.641892    40.641892    40.641892    -1.845087   -72.708735    4149.0001   -4290.8522   -198.09654    4025.9702   -4418.3903    265.27002     4488.642    -3954.583   -13293.086    284.79306 
   14400    40.641417    40.641417    40.641417   -36.180675   -153.97295    4071.2986   -4375.6186   -44.451724    4172.3103   -4257.4605    89.882649    4312.8428   -4129.5238   -13295.188     289.3449 
   14450    40.640686    40.640686    40.640686    108.74009    143.41713    4374.7336   -4084.2353    101.92335    4327.3875   -4119.7731    80.879783    4301.0082   -4135.6608   -13291.498    282.67855 
   14500    40.643262    40.643262    40.643262   -14.583012    32.320591    4250.4272   -4182.1474   -48.607513    4179.7297   -4273.1415   -27.462113    4194.2375   -4245.6273   -13292.327    284.74998 
   14550    40.642986    40.642986    40.642986   -37.790055   -226.65181    3996.1111   -4445.7636     65.67136    4285.6351    -4150.517     47.61028    4271.0483   -4172.2469   -13292.161    284.89494 
   14600    40.640718    40.640718    40.640718    64.243243    64.196799    4292.1735   -4160.0919   -6.1570565    4218.6781   -4227.1704    134.68999    4359.1121   -4086.1207   -13292.745    286.48662 
   14650    40.641474    40.641474    40.641474    18.583595    65.058129    4291.9214   -4158.1174   -126.14258    4103.7208   -4352.1269    116.83524    4340.1245   -4102.8462   -13292.072    285.64295 
   14700    40.643283    40.643283    40.643283   -80.770125     20.17634    4245.2462    -4201.194   -145.49623    4075.7962   -4362.9441   -116.99048    4105.2413   -4335.5878   -13293.395    288.65391 
   14750      40.6432      40.6432      40.6432    18.825638    12.131751    4238.2648    -4210.275   -5.8742923    4214.7952   -4222.6812    50.219456    4272.3749   -4168.2841    -13291.05    284.57408 
   14800    40.641828    40.641828    40.641828    59.688144     13.38137    4234.4083   -4203.9227   -6.9829497    4219.4356   -4229.5024    172.66601    4398.6443   -4049.6161   -13291.847    286.56654 
   14850    40.641895    40.641895    40.641895    66.260735    -31.36407    4191.9952   -4250.9596    59.560317    4284.7565   -4161.7099    170.58596     4396.753   -4051.8942   -13291.946     287.1986 
   14900    40.644253    40.644253    40.644253    -137.8918   -28.810621    4193.3449   -4247.2128   -283.00416    3941.0817    -4503.132   -101.86061    4119.7055   -4319.7089   -13293.074    289.82247 
   14950    40.643903    40.643903    40.643903   -25.902299   -149.35746    4071.2109   -4366.1636   -19.989706    4198.9377   -4234.9685     91.64027    4311.4091   -4124.4058   -13291.409    287.03537 
   15000    40.641649    40.641649    40.641649     121.2001    369.62337    4594.0482   -3851.0056   -105.35529    4123.1888    -4329.901    99.332208    4322.1322   -4119.7083    -13291.13    286.92694 
   15050    40.640804    40.640804    40.640804    124.25808    130.95532    4356.0756    -4090.362    266.91166    4490.8065   -3953.0082   -25.092751    4203.4374   -4249.8334   -13290.189    285.52842 
   15100    40.643721    40.643721    40.643721    68.421529    56.283599    4275.7732   -4159.3964    34.445267    4255.7002   -4182.8124    114.53572    4338.1519   -4105.2924    -13289.81    285.21211 
   15150    40.646227    40.646227    40.646227   -260.38134   -424.20211    3797.2903   -4641.8373   -211.45708    4013.0987   -4431.9471   -145.48484    4073.1064   -4360.2797   -13291.683    289.25668 
   15200    40.641762    40.641762    40.641762    130.30459    204.55067    4431.8504     -4018.88    116.31639    4341.0528   -4104.3852    70.046715    4299.2116   -4155.2755   -13290.562    287.49797 
   15250    40.641099    40.641099    40.641099    98.566659     46.09651    4270.4382   -4174.3698    79.674937    4303.3405   -4139.9387    169.92853    4390.7052   -4047.0536   -13292.078    290.84329 
   15300    40.644544    40.644544    40.644544   -118.84699    75.931577    4298.3103   -4142.5586   -140.47862    4084.8773   -4361.7356   -291.99393     3931.929    -4512.036   -13292.477    292.02294 
   15350    40.645904    40.645904    40.645904   -177.19528   -169.86276    4048.6904   -4384.5096   -274.56886    3948.0774   -4493.0994   -87.154236    4140.4185   -4310.8573   -13291.589    290.70199 
   15400    40.643297    40.643297    40.643297    83.933268    152.76898    4375.4201   -4065.9493      41.9908    4268.1131   -4180.0065    57.040018    4280.4454   -4162.5316   -13289.785    287.61095 
   15450    40.643212    40.643212    40.643212   -47.128333    -3.393349    4221.5238   -4224.3539   -127.31612    4094.0291     -4344.54   -10.675524     4211.893   -4229.3283   -13293.994    296.15045 
   15500    40.644556    40.644556    40.644556   -10.913815    130.34848    4355.0564   -4090.3784   -50.513648    4172.8677   -4269.7375   -112.57628    4113.0426   -4334.2775   -13289.964    288.73837 
   15550    40.645592    40.645592    40.645592   -114.97909   -134.85099    4086.6035   -4352.3267   -47.571431    4176.7123   -4267.6421   -162.51484     4059.231   -4380.3325   -13290.329    289.82883 
   15600    40.643746    40.643746    40.643746    55.880874    222.32778    4444.1741    -3995.512   -81.345277    4140.7204   -4299.2153    26.660114    4248.9644   -4191.6991   -13290.832    291.18802 
   15650    40.643304    40.643304    40.643304    147.72957    187.86622    4412.9307   -4033.2216    99.284361    4323.0028   -4120.2278    156.03812    4377.2628   -4061.2156   -13288.079    286.24089 
   15700    40.645435    40.645435    40.645435   -95.613541    108.29415    4332.4841   -4111.8341   -140.73087    4083.2821    -4360.482    -254.4039     3971.306   -4476.1155   -13291.127    292.51058 
   15750    40.645221    40.645221    40.645221   -119.59063   -210.43333    4009.6843   -4426.4678     -83.1876    4139.9054    -4302.032   -65.150955    4158.1879   -4284.4763    -13290.72    292.09127 
   15800     40.64282     40.64282     40.64282    128.44945    151.43527    4374.6496    -4067.686   -10.250141    4213.7476   -4230.0047    244.16322    4470.5482   -3978.1992   -13290.004    291.06987 
   15850    40.643562    40.643562    40.643562    255.12946    184.87633    4407.3721   -4033.5665    204.18276    4430.8584   -4018.2452    376.32928    4603.0515   -3846.3727    -13286.28     284.2209 
   15900    40.648933    40.648933    40.648933   -203.49251    -85.01199     4136.212   -4302.1282   -224.27456     3996.184   -4440.4246   -301.19097    3918.6655   -4517.0207   -13289.703    291.20079 
   15950    40.647235    40.647235    40.647235   -177.93799   -277.47371    3945.6262   -4496.4057   -130.23204    4088.5386   -4344.6923   -126.10822    4094.4334   -4342.5704   -13291.204    294.46058 
   16000    40.641642    40.641642    40.641642    253.28201    245.03511    4469.8245   -3975.5834    116.57843    4345.4485   -4107.9643    398.23248    4622.5239   -3821.9525   -13290.572    293.59034 
   16050     40.64468     40.64468     40.64468    44.585677   -2.5265583    4219.0259   -4219.8948    193.21688    4419.4033   -4028.6291   -56.933291    4166.8915   -4276.6461   -13289.491    291.84188 
   16100    40.648092    40.648092    40.648092   -96.521565   -56.646929    4164.7993     -4273.87   -213.35102    4008.5167   -4430.8989   -19.566745     4200.934   -4235.9517   -13287.606    288.53645 
   16150    40.646183    40.646183    40.646183   -124.85479    -223.7641    3998.5494   -4441.8571    -140.8099     4079.467   -4356.7562   -9.9903647     4214.918   -4230.7334   -13291.657    296.70436 
   16200    40.643683    40.643683    40.643683    260.25256    311.88632    4535.1877   -3907.1952    121.74351    4348.9309   -4101.0761    347.12785    4571.2694   -3872.8703   -13286.817    287.67145 
   16250    40.647248    40.647248    40.647248   -64.881933    27.348632    4248.5716   -4189.6252   -187.98853    4035.0895    -4406.672   -34.005901    4184.4736   -4248.3436   -13289.246    292.70305 
   16300    40.647707    40.647707    40.647707   -300.11993   -413.03993    3806.2195    -4628.033   -163.64314    4053.8647   -4376.7575    -323.6767    3898.0042   -4541.1351   -13292.628    299.56755 
   16350    40.643982    40.643982    40.643982     184.8353    291.46572    4514.3541   -3927.1156    92.583257    4317.3771   -4127.7615    170.45693    4392.7797   -4047.6633   -13288.662    292.21654 
   16400    40.646359    40.646359    40.646359   -120.05301   -36.129501    4188.9005   -4256.8345   -117.08587     4107.934   -4337.6352   -206.94367     4013.043   -4422.7265   -13290.463    296.02097 
   16450    40.646194    40.646194    40.646194     131.3871    117.35014    4336.3031    -4097.312    123.33839    4348.4078   -4097.2484    153.47277    4374.4409   -4063.2738   -13286.527    288.71751 
   16500    40.645997    40.645997    40.645997    19.115891    199.68744    4419.2539   -4015.5725   -44.688078    4176.9116   -4261.8031   -97.651693    4122.3958   -4313.4712   -13287.923    291.72469 
   16550    40.645018    40.645018    40.645018      139.161    245.82592    4468.6466    -3972.659    67.598466    4297.9717   -4158.2447     104.0586    4330.1355   -4117.7615   -13286.999    290.23117 
   16600    40.646961    40.646961    40.646961   -47.628543   -26.188985    4196.5115   -4244.5156   -115.06211    4105.9772   -4331.5913   -1.6345282    4220.1271   -4219.1577   -13288.658    293.73898 
   16650    40.647639    40.647639    40.647639   -163.65753   -132.37627    4088.6852   -4349.0865   -199.92358    4019.1739    -4414.513   -158.67272    4064.1296   -4377.1703   -13289.088    294.86789 
   16700    40.644928    40.644928    40.644928    90.328838    3.7104478    4225.9073    -4214.116    156.31857    4377.8565   -4060.6672     110.9575    4337.7599   -4111.5312   -13289.441    295.84883 
   16750    40.645008    40.645008    40.645008    66.487621    308.01568    4534.7438   -3914.2703   -9.2102034    4215.5336   -4229.4199   -99.342608    4122.6521   -4317.0252   -13287.397    292.18604 
   16800    40.646982    40.646982    40.646982   -28.647079    -1.732685     4220.411   -4219.4225   -113.97574    4113.3248   -4336.6816    29.767187    4250.3618   -4186.4897   -13288.147    293.92404 
   16850    40.647575    40.647575    40.647575   -113.98103   -112.42947    4108.6638   -4329.1155   -158.39772     4062.207   -4374.4182   -71.115905    4149.2687   -4287.1804   -13289.385     296.6021 
   16900     40.64558     40.64558     40.64558    185.06392    171.88758    4396.9908   -4048.8031    257.47412    4480.9453   -3961.4218    125.83005    4350.0802   -4094.0852   -13286.361    291.02729 
   16950    40.646624    40.646624    40.646624   -8.3386466    105.91063    4325.5345   -4109.2796   -153.59331    4071.2089   -4373.7852    22.666735    4243.9595   -4194.2653   -13288.359    295.16891 
   17000    40.647892    40.647892    40.647892     -84.9798   -202.79434    4019.8785   -4420.9794   -84.437064    4137.6548   -4301.9006    32.292003    4255.4356    -4186.457   -13288.971    296.61817 
   17050    40.647433    40.647433    40.647433   -41.121248    62.970544    4285.4642   -4155.0246    -258.0537    3966.4917   -4477.9653    71.719408    4295.5909   -4147.7596   -13287.587    294.20613 
   17100    40.646208    40.646208    40.646208    51.590538   -157.36983    4067.1336   -4377.4009    181.58593    4405.1308    -4037.318    130.55551    4353.7029   -4088.1641   -13288.503    296.24409 
   17150     40.64691     40.64691     40.64691   -65.900093    88.764333     4309.713     -4127.69   -136.20971    4087.9833   -4355.7262    -150.2549    4065.1057   -4361.2047   -13288.567    296.63092 
   17200    40.647071    40.647071    40.647071   -5.7301942    85.350031    4310.9154   -4135.6868   -56.817588    4170.0775   -4279.0154   -45.723026    4178.9283   -4265.9076   -13287.799    295.40475 
   17250    40.647511    40.647511    40.647511    -25.19417   -189.67004    4034.6733   -4409.4748    87.685232    4307.4797   -4127.4072    26.402299    4249.0049   -4191.7149   -13287.151     294.4074 
   17300    40.646197    40.646197    40.646197    51.128973   -28.626207    4192.2349   -4244.9657   -66.967949    4160.9624    -4290.162    248.98108    4479.4877   -3976.9864   -13286.795    293.97096 
   17350    40.645704    40.645704    40.645704     25.76403    133.32117    4354.7238   -4083.5255   -41.976564     4178.105   -4257.3304    -14.05252    4209.4941    -4233.096   -13287.693    295.95127 
   17400    40.646821    40.646821    40.646821    88.993293   -51.853742    4172.0156   -4271.1458    109.37425    4334.5439   -4111.0437    209.45937    4432.3603   -4008.9301   -13287.471    295.76596 
   17450    40.649304    40.649304    40.649304    -91.48287    7.8513218    4224.2306   -4203.9619   -111.95574    4114.6138   -4333.7182   -170.34419    4053.9978   -4390.1366   -13287.294    295.65469 
   17500     40.64965     40.64965     40.64965   -125.92975   -340.24098    3876.6913    -4552.583    26.244848     4245.359   -4188.0916   -63.793135    4156.1833   -4279.2011   -13288.019    297.29323 
   17550    40.646417    40.646417    40.646417    4.3014998   -46.704835    4179.5067   -4268.2678   -108.84987    4114.6476   -4327.5607     168.4592    4388.1828   -4046.6796   -13288.223    297.92335 
   17600    40.644359    40.644359    40.644359    139.68143    106.22348    4330.7426   -4113.6477    162.31823    4387.1692   -4057.7026    150.50258    4374.7867    -4069.191   -13287.957    297.64168 
   17650    40.647422    40.647422    40.647422    14.878034    216.79361    4442.3655   -4004.0887   -132.52787    4093.6602   -4353.8787   -39.631644    4185.1168   -4259.7469   -13285.756    293.60247 
   17700    40.650624    40.650624    40.650624   -138.79927   -55.326369    4164.4654   -4270.4151   -197.14582    4024.9548   -4414.3838   -163.92561    4054.9096   -4378.1286   -13288.721    299.56013 
   17750    40.649172    40.649172    40.649172   -36.150917    61.241998    4279.8452   -4152.6745    19.197546    4242.6946   -4199.4555    -188.8923    4033.4998   -4406.6481    -13286.87    296.19526 
   17800    40.646619    40.646619    40.646619    134.11957     266.8086    4490.2217   -3951.8659    61.829198    4287.2859   -4158.7883    73.720902    4300.9811   -4148.8729   -13285.681    294.11104 
   17850    40.648224    40.648224    40.648224   -10.097739   -112.46807    4112.6475   -4332.8188   -4.1572798    4218.0912   -4221.5427    86.332135    4311.0949   -4133.7191   -13287.112    297.09284 
   17900    40.649757    40.649757    40.649757   -213.19533    -135.9982    4082.9586   -4350.2188   -465.20502    3757.1923   -4682.6959   -38.382757    4179.2633    -4251.337   -13288.333    299.66476 
   17950    40.646153    40.646153    40.646153     133.7404    157.47713    4384.8407   -4065.0678    242.56937    4467.7774   -3977.7438    1.1747135    4225.0267   -4217.9933   -13286.412    296.14748 
   18000    40.646559    40.646559    40.646559    169.63043    205.26381    4428.9123   -4013.5812    36.418296    4258.5991    -4180.904    267.20919    4490.8307   -3951.6756   -13287.075    297.62351 
   18050    40.652159    40.652159    40.652159   -295.84138   -172.97238    4041.9789    -4383.132   -283.00239    3937.7166   -4498.7951   -431.54937    3786.5615   -4644.9397    -13288.39     300.3592 
   18100    40.650501    40.650501    40.650501    -73.75406   -73.999733     4147.839    -4291.021    -130.0967     4094.295   -4349.5508   -17.165743    4202.0818   -4231.6656   -13285.795    295.52623 
   18150    40.646245    40.646245    40.646245    96.166344    155.87866    4384.1422    -4067.527   -60.233594    4163.9454   -4279.4718    192.85397    4417.0177   -4026.5357   -13287.652    299.30984 
   18200    40.646927    40.646927    40.646927    175.47057    206.98394    4429.4469   -4010.6271     341.3466    4565.8801   -3878.2292   -21.918825    4201.2679   -4240.3614   -13285.156    294.66771 
   18250    40.652093    40.652093    40.652093   -179.84718   -56.152416    4162.7866   -4270.2419   -468.95038    3752.3924   -4685.3082   -14.438737    4205.2069   -4229.3053   -13286.688    297.81787 
   18300     40.65108     40.65108     40.65108   -146.48119   -204.13115    4019.5751   -4422.9308   -120.05816    4101.9823   -4337.1104   -115.25425      4109.88   -4335.5736   -13286.354    297.34563 
   18350    40.647339    40.647339    40.647339    152.34576    345.38026    4567.7579   -3872.1054    116.05076    4339.1591   -4102.1158   -4.3937254    4214.9796   -4218.9437   -13287.164    299.08915 
   18400    40.648314    40.648314    40.648314    39.840227    111.98087    4333.3417   -4104.4525    -97.70683    4131.0005   -4321.3992    105.24664    4324.0305   -4108.7376   -13284.387    293.89244 
   18450    40.649518    40.649518    40.649518   -43.171992   -2.8361551    4216.7653    -4217.522     129.5971    4354.5278   -4090.2767   -256.27692    3966.3871   -4474.0833   -13286.612    298.36329 
   18500    40.648505    40.648505    40.648505    101.24795    218.24174    4443.6805   -4002.2589    15.561833    4240.0721     -4203.89     69.94029    4290.4258   -4145.6719    -13284.19    293.83806 
   18550    40.648958    40.648958    40.648958   -52.247421   -4.6820598    4219.2739   -4223.6722   -196.79381    4021.0015   -4409.5044    44.733607    4267.5307   -4173.1967   -13288.345    302.03487 
   18600    40.649113    40.649113    40.649113   -56.733612   -3.5033343    4215.8974   -4217.9912   -90.042583    4132.4554   -4307.4594    -76.65492    4143.1416   -4291.5725   -13286.397    298.41916 
   18650    40.648364    40.648364    40.648364    68.655145    224.00438    4448.8339   -3995.8153   -188.23487    4036.6819   -4408.0468    170.19593    4395.2494    -4049.928   -13286.073    297.94127 
   18700    40.650336    40.650336    40.650336   -80.376999   -141.46978    4082.8019   -4360.7332   -13.513316     4211.877   -4233.7413     -86.1479     4134.448   -4301.7893   -13285.705    297.38366 
   18750    40.650298    40.650298    40.650298   -128.58808   -83.145517    4132.3059    -4293.632    -205.1903    4015.7187   -4420.9515   -97.428425    4119.8907   -4309.8124   -13287.988     301.9554 
   18800    40.646816    40.646816    40.646816    138.77851    312.50042    4542.8309   -3912.7732    83.938646    4307.2356   -4134.1974     19.89647    4245.4487   -4200.6852   -13284.734    295.80138 
   18850    40.648234    40.648234    40.648234    30.728254   -38.662071    4185.9751    -4258.237   -7.3471006    4219.2224   -4228.7379    138.19393    4358.3063   -4076.9446   -13286.842    300.01921 
   18900    40.650992    40.650992    40.650992    -42.95928    148.55719    4368.2074   -4066.0216   -127.39375    4093.5169   -4343.1296   -150.04128    4069.3842   -4364.5105   -13285.424    297.41421 
   18950    40.650288    40.650288    40.650288   -100.85335    -181.3983    4040.4177      -4398.1    62.860203    4284.5715   -4153.6415   -184.02196    4038.1989    -4401.232   -13286.265    299.17496 
   19000    40.647024    40.647024    40.647024    214.95262    284.83887     4506.126   -3931.3366    51.056801    4275.6236    -4168.281    308.96218     4535.323   -3912.3325   -13285.026    296.90714 
[...]
   13800        0.138    291.00261    7.7081202  0.024272743 -0.0045248811  -0.40131148    7.3054709    8.1105079    150.42255   -13024.964    -25759.56 
   13850       0.1385    289.48167    7.6931768 -0.019929264  -0.08086121  -0.40127993    7.2905681    8.0955207    149.63635     -13022.5   -25307.954 
   13900        0.139    291.70069    7.7764968 -0.020065687  0.036329728  -0.40088821    7.3741484     8.178577    150.78339   -13021.951   -25975.869 
   13950       0.1395    292.40459    7.7633246  0.034195037  0.055360884  -0.40057146    7.3611348    8.1652416    151.14724   -13020.605   -26176.268 
   14000         0.14    290.29233    7.7626058 -0.019044665 0.0027132017   -0.4006915    7.3607982    8.1641408    150.05539   -13017.814   -25820.915 
   14050       0.1405    292.06281    7.7758053 -0.058294545 0.0016094312  -0.40088656    7.3735469    8.1777879    150.97057   -13017.015   -25730.401 
   14100        0.141    291.80496    7.8211659 0.00028761018 -0.017408969  -0.40069479    7.4189214    8.2231303    150.83729    -13015.17   -26013.482 
   14150       0.1415    297.26935     7.847889  0.039829398  0.040463454  -0.40045041    7.4458517    8.2496431    153.66189   -13016.276   -26427.273 
   14200        0.142    294.94924    7.8306521 -0.022628759 -0.015413473  -0.40031855    7.4289588    8.2320603     152.4626   -13013.352   -25975.366 
   14250       0.1425    285.96849    7.7274369 -0.019690775 -0.013715348  -0.40012034     7.326125    8.1284632    147.82035   -13007.005   -25646.769 
   14300        0.143    294.08148     7.854946  0.040805067  0.032335478  -0.39985501     7.453515    8.2560877    152.01404   -13009.485   -26426.955 
   14350       0.1435    290.28478    7.8710878 -0.0011355756  0.010547296  -0.39977947     7.469842    8.2720421    150.05149   -13005.791   -26268.332 
   14400        0.144    292.02666    7.8550118 -0.054338121 -0.010967788  -0.39988498    7.4536817    8.2560485    150.95188   -13004.963   -25965.686 
   14450       0.1445    291.36909    7.8812951 -2.5298705e-05 -0.0035149583  -0.39974744    7.4798795    8.2824134    150.61198   -13002.891   -26259.183 
   14500        0.145    293.05698    7.9126564  0.024818975 0.0090266216  -0.39933426    7.5122392    8.3127778    151.48447   -13002.023    -26488.34 
   14550       0.1455    291.11591    7.8783456  0.041595587 -0.004925422  -0.39927259    7.4777573    8.2786321    150.48111   -12999.279   -26383.386 
   14600        0.146    289.72465    7.8605182 0.0018716117 -0.035585746   -0.3991817    7.4597176    8.2610096    149.76195   -12996.828   -26089.347 
   14650       0.1465    291.52433    7.8626249  0.020558716 -0.030841571  -0.39911546    7.4620235    8.2629145    150.69222   -12996.022   -26174.474 
   14700        0.147    287.28328    7.8480441 -0.0015077067  -0.02289151  -0.39880725    7.4477537    8.2480186    148.49998   -12992.095   -26078.816 
   14750       0.1475     287.2113    7.8283047 0.0036588903   0.01924008  -0.39853037    7.4279722    8.2283145    148.46277   -12990.327   -26170.679 
   14800        0.148    290.08169    7.8122967  0.013847228  -0.02782856  -0.39847979      7.41231    8.2119571    149.94651   -12990.084   -25994.385 
   14850       0.1485    292.33905    7.7421444 -0.0042803489 -0.0072748583  -0.39838331    7.3425595    8.1414003    151.11336   -12989.525   -25768.631 
   14900        0.149    294.43287    7.6449516 0.0047456205  0.006668966   -0.3980711    7.2458192    8.0437482    152.19568   -12988.895   -25521.221 
   14950       0.1495    296.24667    7.5168203   0.01744676  0.010321422   -0.3977943    7.1175197    7.9157711    153.13325   -12988.155   -25148.628 
   15000         0.15    296.72472    7.4013875 -0.046167886  0.052676284  -0.39781378    7.0022379    7.8001755    153.38037   -12986.745   -24692.986 
   15050       0.1505    304.25068     7.289207  -0.03265575  0.018369654   -0.3976192    6.8906481    7.6873885    157.27062   -12989.017   -24249.736 
   15100        0.151    303.02416    7.0944295 -0.051498951 0.0042977033   -0.3971539    6.6959649    7.4924909    156.63662   -12986.819   -23490.761 
   15150       0.1515     314.8956    6.9117087  0.021293995  0.039251207  -0.39641013    6.5141396    7.3088483     162.7731   -12991.459   -23240.846 
   15200        0.152    315.38381    6.6090598  0.059737802 -0.026761326   -0.3959417    6.2124441    7.0052168    163.02546   -12990.283   -22140.121 
   15250       0.1525    318.88193    6.2813558 -0.013337772 -0.011751581  -0.39557133    5.8853555    6.6768571    164.83368    -12990.77   -20854.222 
   15300        0.153    329.15876    5.9459889 -0.0053411582  0.031617617  -0.39511022    5.5508509    6.3405776    170.14589   -12994.899   -19907.551 
   15350       0.1535    334.15201    5.6073996  -0.02804573 -0.032032207  -0.39486496    5.2123656    6.0018196    172.72695   -12996.433   -18491.072 
   15400        0.154    335.01225    5.1941277   0.05202696 -0.054712672  -0.39426428    4.7998523    5.5877085    173.17162   -12995.982   -17304.806 
   15450       0.1545    339.12061    4.8524245  0.089519224 -0.046115315  -0.39353149    4.4588626    5.2452008    175.29528   -12997.384   -16319.428 
   15500        0.155    343.58505    4.5517803  0.043632239  0.028933698  -0.39333005    4.1587421    4.9439319      177.603   -12999.148   -15414.488 
   15550       0.1555    349.23647    4.2293884 -0.002056156 -0.023993203   -0.3936342    3.8354571    4.6223113    180.52429   -13001.647    -14011.13 
   15600        0.156    345.61369    3.9967499  0.008089561 -0.067938347  -0.39379564    3.6018923    4.3904611    178.65163   -12999.486   -13123.004 
   15650       0.1565    355.10777    3.8298894  0.051691972 0.0024924364  -0.39346393    3.4350368    4.2234457    183.55923   -13004.207   -12946.913 
   15700        0.157    351.42257     3.737719 -0.014077183   0.03788408   -0.3936578    3.3416375    4.1323334     181.6543   -13002.195    -12538.42 
   15750       0.1575    358.45769    3.6579491 -0.0030485794  0.084621272  -0.39412539    3.2604311    4.0538223    185.29084   -13005.733   -12465.073 
   15800        0.158    355.47998    3.5921901  -0.03839707  -0.01969733   -0.3946484    3.1938602    3.9886909    183.75163   -13004.129   -11780.319 
   15850       0.1585    351.43079    3.5356221 -0.093812591 -0.018556763  -0.39487525    3.1366955    3.9325186    181.65855   -13001.971   -11410.843 
   15900        0.159     364.8669    3.5427921  0.098405366 -0.0077872278  -0.39451025    3.1444678    3.9388754    188.60383   -13008.866   -12111.368 
   15950       0.1595    356.19129    3.3844364  0.085001001  0.026523006  -0.39465892    2.9866863    3.7797239    184.11931   -13004.367   -11653.201 
   16000         0.16    363.57135    3.2883991 -0.0093785823 0.0022126777  -0.39540359    2.8890973    3.6849947    187.93414   -13008.194   -10937.444 
   16050       0.1605    365.11109     3.128248 -0.054426062 -0.026985662  -0.39566964    2.7294013    3.5241402    188.73005   -13008.979   -10156.121 
   16100        0.161    370.08371    3.0150355 -0.0099875136   0.01871793  -0.39576961     2.616098    3.4107691    191.30046    -13011.61    -10079.22 
   16150       0.1615    370.83635    2.8453768  0.019332986  0.053176832  -0.39581016    2.4465653    3.2407298    191.68951    -13012.12   -9726.2886 
   16200        0.162    378.03957    2.7892592  0.055630419  0.041186128  -0.39621982    2.3892243    3.1855646    195.41293   -13016.033   -9620.2524 
   16250       0.1625     373.1588    2.5389907  0.066212881  -0.11165943  -0.39705109    2.1387972    2.9351829    192.89001   -13013.757   -8311.8137 
   16300        0.163     374.8996    2.3623098  0.074424775  -0.14920376  -0.39731141    1.9613238    2.7590229    193.78985   -13015.001   -7625.1029 
   16350       0.1635    382.63058    2.2940821   0.06315873 -0.026724197  -0.39704881     1.893503    2.6901277    197.78608    -13019.47   -7768.3888 
   16400        0.164    380.30727    2.1500847    0.0121782  0.041511768  -0.39710001    1.7494797    2.5458874    196.58513   -13018.697   -7345.9156 
   16450       0.1645    378.87379    2.0035787 -0.052340343  0.092383079  -0.39733944    1.6021886    2.3998843    195.84415   -13018.358   -6812.0716 
   16500        0.165    383.34234    1.8617953  -0.10359716   0.09925781  -0.39774756    1.4587413    2.2594774      198.154   -13021.126   -6191.5197 
   16550       0.1655    386.85065     1.803676  0.035131414 -0.0061033968  -0.39802748    1.3983163    2.2033657    199.96748   -13023.506   -6109.0134 
   16600        0.166    387.79546    1.7171409 -0.041273482 -0.051024979  -0.39844772    1.3091891    2.1191328    200.45586   -13024.545   -5416.1414 
   16650       0.1665    386.74329    1.7093358  0.076839358 -0.042310129  -0.39834368    1.3031138    2.1093424    199.91199   -13024.593   -5812.8835 
   16700        0.167    388.86679    1.6343085  0.049165309  0.022115554  -0.39849471    1.2289377    2.0332079    201.00965   -13026.333   -5685.2979 
   16750       0.1675    386.10678    1.5964394 -0.039171896 -0.0060042019  -0.39921901    1.1902901    1.9958557    199.58296    -13025.55   -5170.8777 
   16800        0.168    394.07978    1.5770454 -0.012819212 -0.010615069  -0.39944434    1.1701264    1.9769652     203.7043   -13030.307   -5178.7038 
   16850       0.1685    392.40986    1.5734607 -0.0060250071 -0.0081855909  -0.39945948    1.1664231     1.973238     202.8411   -13030.121   -5197.5003 
   16900        0.169    391.79696     1.579787   0.10645107 -0.044236454  -0.39927676    1.1753965    1.9766764    202.52428   -13030.495   -5473.3387 
   16950       0.1695    387.58396    1.5544042  0.047897714  0.025430158  -0.39961042    1.1494263    1.9516211    200.34653   -13029.029   -5425.7737 
   17000         0.17    391.69935    1.5421989 -0.055575788 -0.019208832  -0.40015726    1.1381734    1.9381989    202.47383   -13031.852   -4891.3811 
   17050       0.1705    386.92695    1.4884058 -0.041700297 -0.024794695   -0.3999563    1.0835753    1.8849244    200.00692    -13030.04   -4739.7027 
   17100        0.171    383.67815    1.4558597 -0.0077109956  0.077863311  -0.39948249    1.0518155    1.8513081    198.32758   -13029.031   -5086.7069 
   17150       0.1715    393.88257    1.4755461  0.045144501  0.063335249  -0.39945343    1.0701192     1.872072    203.60236   -13035.035   -5280.0861 
   17200        0.172    384.79627    1.4208353 -0.050745809 -0.055164584  -0.40019298    1.0149998    1.8174548    198.90555   -13031.048    -4383.083 
   17250       0.1725    390.80312     1.439334  -0.05529157  -0.05350203  -0.40012224    1.0320843    1.8370405    202.01056   -13034.845   -4435.1346 
   17300        0.173    389.74777    1.4413677  0.051808789  0.059416454  -0.39935696    1.0346165      1.83825    201.46504    -13035.02   -5175.3097 
   17350       0.1735    391.54363     1.494419  0.088326024  0.067063251  -0.39917413    1.0878255    1.8908004    202.39333   -13036.663   -5499.3609 
   17400        0.174    394.93153     1.386677 -0.016852696 0.0069006943  -0.40023946   0.97813294    1.7846469    204.14458   -13039.169   -4589.0832 
   17450       0.1745    391.52248    1.3847862  -0.11758415 -0.042135774  -0.40079577   0.97730976    1.7813524     202.3824   -13038.116   -4083.5544 
   17500        0.175    395.53172    1.3710729 0.0035905558  0.052627406  -0.40018507   0.96503477    1.7658751    204.45482   -13040.939   -4757.6361 
   17550       0.1755     388.7407    1.3046167  0.083098486  0.040742715  -0.40002854   0.89737009    1.7002727    200.94447   -13038.174   -4761.5265 
   17600        0.176    387.61423    1.3451975  0.040277587 0.0093846206  -0.40044288   0.93632167    1.7420974    200.36218   -13038.354   -4649.5324 
   17650       0.1765    389.33577    1.1987386 -0.075971553  -0.10111027  -0.40124378   0.79072746     1.594394    201.25206   -13039.979   -3405.5227 
   17700        0.177     390.6426    1.2161529 -0.060889173  0.011740789  -0.40072683   0.80874485    1.6108132    201.92758   -13041.421    -3890.015 
   17750       0.1775    389.95107    1.3590803   0.02600683  0.076207038  -0.39997515   0.95061672    1.7543941    201.57012   -13041.822   -4870.9806 
   17800        0.178    388.20934    1.3330116  0.097678474  0.073942531  -0.39999267    0.9262543    1.7262311     200.6698   -13041.658   -5015.4419 
   17850       0.1785    392.63185    1.2284649   0.10442231 -0.088139339  -0.40071712   0.82071595    1.6222476    202.95585    -13044.74   -4149.1596 
   17900        0.179    388.21643    1.1191871 -0.040326125  -0.13051576  -0.40187123   0.70926083    1.5147108    200.67347   -13043.215   -3161.1508 
   17950       0.1795    389.86731     1.185017 -0.043973976 -0.038446781  -0.40159205   0.77525265    1.5799644    201.52683    -13044.86    -3675.321 
   18000         0.18    388.75928      1.24759  0.032638885 -0.0054759418  -0.40082968     0.835332    1.6445939    200.95407   -13045.059   -4249.1765 
   18050       0.1805     388.4357    1.3285145  0.073279698  0.078766804  -0.40034359   0.91581642    1.7255213    200.78681   -13045.649   -4935.2034 
   18100        0.181    386.57142    1.2380388  0.062495771   0.10221958  -0.40084314    0.8244852    1.6354713    199.82314   -13045.462   -4675.8471 
   18150       0.1815     397.9622    1.1262931 -0.059847116  0.016965504  -0.40218007   0.71446297    1.5215907    205.71116   -13052.142   -3611.3715 
   18200        0.182    386.70589    1.0471937  -0.13752513  -0.12353221  -0.40321427   0.63342224    1.4440231    199.89265   -13047.077   -2620.4546 
   18250       0.1825     394.8271    1.1209112 -0.032620483   0.01448023  -0.40231075   0.71002971    1.5144812     204.0906   -13052.093   -3675.9033 
   18300        0.183    387.78504    1.1964364  0.048006077   0.07188904  -0.40144479   0.78258726    1.5925701    200.45047   -13049.239   -4387.7716 
   18350       0.1835    387.08206    1.2137367 -0.0015931206   0.11469475  -0.40135139   0.80357062    1.6057938     200.0871   -13049.668   -4422.7945 
   18400        0.184    391.30638    1.1735967 -0.013364151 -0.0038303574  -0.40212524   0.76348339    1.5652037     202.2707   -13052.678   -3854.6739 
   18450       0.1845    389.32619    1.1271053 -0.035330389  -0.11533933  -0.40269882   0.71398845    1.5212815    201.24712   -13052.403   -3254.7854 
   18500        0.185    382.04815    1.1364021  0.019662652 -0.078028957  -0.40225309   0.72321989    1.5301998    197.48501   -13049.423   -3593.4527 
   18550       0.1855    390.87765    1.2327455  0.072181376  0.086389418  -0.40132496   0.81823823    1.6274167    202.04908   -13054.743    -4637.721 
   18600        0.186    396.17832    1.2647788  0.058698707   0.06252672  -0.40142863   0.84914356    1.6600924    204.78906   -13058.285    -4620.014 
   18650       0.1865     384.4525    1.2280297   -0.1118591 -0.023570913    -0.402345   0.81363033     1.621643    198.72785   -13052.988   -3641.9989 
   18700        0.187    388.49368    1.2284784 -0.079066864 -0.040343693  -0.40244353   0.81470027    1.6210395    200.81678   -13055.839   -3696.8928 
   18750       0.1875    389.18303    1.3209374 -0.010680474  0.066132952  -0.40152097   0.90737353    1.7128679    201.17312   -13056.965   -4587.9664 
   18800        0.188     386.1058     1.332081   0.11712684  0.083051891  -0.40121115   0.91974459    1.7223711    199.58246   -13056.117   -5107.5325 
   18850       0.1885      384.702    1.2476339 -0.0073354529 0.0034565014   -0.4019015    0.8350696    1.6376846    198.85682    -13056.15   -4145.8499 
   18900        0.189    384.66373    1.1687925 -0.092357828 -0.048979653  -0.40264332   0.75079228    1.5637554    198.83704   -13056.857   -3424.8502 
   18950       0.1895    395.51192    1.2350812  0.027767175 -0.020614289  -0.40228638   0.81743051    1.6292223    204.44459   -13063.229   -4140.7803 
   19000         0.19    378.98918    1.1501441  0.012166513 -0.025531479  -0.40222796    0.7347982     1.541542     195.9038   -13055.442   -3789.2638 
   19050       0.1905    387.61941    1.1367401   0.12777482 0.0064263401  -0.40208531   0.72387902    1.5252008    200.36486   -13060.647   -4236.4709 
   19100        0.191    385.70198    1.1159255 -0.037046316  0.023357423  -0.40275144   0.70126837    1.5056798    199.37372   -13060.427   -3674.1221 
   19150       0.1915    386.53321    1.0857961 -0.016195891 -0.019901586  -0.40274312   0.66710417    1.4790692    199.80339   -13061.579   -3498.9954 
   19200        0.192     385.5587     1.090416 -0.0014207943  -0.00961978  -0.40283354   0.67178712    1.4831544    199.29966   -13061.828   -3597.9182 
   19250       0.1925      381.164    1.1555136 -0.035659554  0.019390482  -0.40261743   0.74160903    1.5430822    197.02799   -13060.286   -3797.4817 
   19300        0.193    389.03181     1.194345  0.030486506   0.10550442  -0.40237248   0.77740325    1.5844545    201.09495   -13065.093    -4434.453 
   19350       0.1935    377.66378    1.1810355 -0.036496313 -0.023293605  -0.40280622    0.7633864     1.571375    195.21868    -13059.96   -3737.4853 
   19400        0.194    384.98533    1.1240802  0.031507733 -0.054207063  -0.40289032   0.70244832    1.5179195    199.00328   -13064.441   -3671.2697 
   19450       0.1945    381.38593    1.0808835  0.030384572 -0.038904163  -0.40284185   0.66128046    1.4722179    197.14271   -13063.304   -3574.5463 
   19500        0.195    380.89279    1.0675193 0.0024422387  0.034502455  -0.40267965   0.65229264     1.454013     196.8878   -13063.772   -3681.5467 
   19550       0.1955    380.04329    1.0948515 -0.00095820485 0.0065305545  -0.40269923   0.68280078    1.4776997    196.44868   -13064.041   -3668.0793 
   19600        0.196    384.71164    1.1750214  0.016750462  0.064105404   -0.4024039   0.75501676     1.565279     198.8618   -13067.148   -4186.2577 
   19650       0.1965    369.22355     1.016534 -0.095062777 0.0077902741  -0.40256903   0.59750558    1.4052989    190.85583   -13059.869   -3097.5383 
   19700        0.197    375.65019    1.0280438 -0.014181062 0.0037700741  -0.40267183   0.61264194    1.4126943    194.17784   -13063.927   -3392.1092 
   19750       0.1975    381.40547    1.0404183  0.023180125 -0.016286545  -0.40250332   0.62078138    1.4287639     197.1528   -13067.595   -3491.0397 
   19800        0.198    380.55633    1.0235517  0.060801435 0.0086847831  -0.40230181   0.60259206    1.4126787    196.71388   -13067.864   -3643.4596 
   19850       0.1985     380.7584   0.99162643   0.10413245  0.023323468  -0.40256184   0.57312983    1.3777464    196.81833    -13068.69   -3730.2745 
   19900        0.199    377.58425   0.92544335 -0.0082770011 -0.079140986  -0.40345543   0.50466402    1.3132539    195.17757    -13067.76   -2793.4179 
   19950       0.1995    376.80436   0.93285653 -0.055522463 -0.054477259  -0.40365672   0.50568692     1.326448    194.77444   -13068.075    -2742.856 
   20000          0.2    377.76767    1.0265785 -0.024532225  0.034028566  -0.40296672   0.60114452    1.4179164    195.27238   -13069.274   -3453.5827 
Loop time of 2089.77 on 4 procs for 20000 steps with 4000 atoms

Pair  time (%) = 1652.04 (79.054)
Neigh time (%) = 0.544431 (0.0260522)
Comm  time (%) = 189.093 (9.04853)
Outpt time (%) = 0.895145 (0.0428347)
Other time (%) = 247.19 (11.8286)

Nlocal:    1000 ave 1005 max 995 min
Histogram: 1 0 0 1 0 0 0 1 0 1
Nghost:    3742.5 ave 3761 max 3726 min
Histogram: 1 0 1 0 0 0 1 0 0 1
Neighs:    68798.5 ave 70658 max 66857 min
Histogram: 2 0 0 0 0 0 0 0 0 2
FullNghs:  0 ave 0 max 0 min
Histogram: 4 0 0 0 0 0 0 0 0 0

Total # of neighbors = 275194
Ave neighs/atom = 68.7985
Neighbor list builds = 82
Dangerous builds = 0

######################################
# SIMULATION DONE
print "All done"
All done
