ITEM: TIMESTEP
11800
ITEM: NUMBER OF ATOMS
4000
ITEM: BOX BOUNDS pp pp pp
-2.47245 42.9725
0.673399 39.8266
0.671187 39.8288
ITEM: ATOMS mass type id x y z vx vy vz fx fy fz xrad yrad zrad vxrad vyrad vzrad fxrad fyrad fzrad 
26.982 1 43 -0.190487 4.64034 2.67931 -4.48748 0.332991 0.72823 -0.0387541 -0.571935 -0.0213096 0 0 0 0 0 0 0 0 0 
26.982 1 202 -0.279713 2.58805 4.64362 0.472354 0.332655 -1.13543 0.551646 0.0266569 -0.459996 0 0 0 0 0 0 0 0 0 
26.982 1 245 2.10661 4.71611 4.51288 0.213867 -0.191104 -2.44098 -0.122426 -0.12196 0.546142 0 0 0 0 0 0 0 0 0 
26.982 1 2 -0.225711 2.65484 0.61855 6.45059 4.28381 0.0924021 0.0379337 0.765518 -0.102847 0 0 0 0 0 0 0 0 0 
26.982 1 3 -0.220779 0.707785 2.37167 1.20741 1.24942 2.56078 0.212367 0.0733594 0.733495 0 0 0 0 0 0 0 0 0 
26.982 1 201 -2.49121 0.749095 4.69003 1.2966 -0.156184 -2.26779 -0.118886 0.00386667 -0.260797 0 0 0 0 0 0 0 0 0 
26.982 1 1 -2.46074 0.736831 0.723418 -0.782894 -1.94393 1.88967 -0.280722 -0.273229 -0.395147 0 0 0 0 0 0 0 0 0 
26.982 1 5 2.10061 0.969745 0.53139 1.17408 -0.183872 5.25551 -0.074092 -0.202111 0.183464 0 0 0 0 0 0 0 0 0 
26.982 1 8 2.1752 2.77621 2.75695 1.76019 -2.10763 -3.62821 -0.400398 -0.544876 -0.290983 0 0 0 0 0 0 0 0 0 
26.982 1 7 4.32648 0.875243 2.59159 -3.81719 5.36533 2.42009 -0.119096 -0.226343 -0.689319 0 0 0 0 0 0 0 0 0 
26.982 1 47 4.27567 4.69514 2.46466 4.21487 -2.64438 1.00895 0.465709 -0.189532 0.31198 0 0 0 0 0 0 0 0 0 
26.982 1 206 4.33298 2.48568 4.56176 -0.0045125 0.830217 3.97647 -0.135703 0.927735 0.45784 0 0 0 0 0 0 0 0 0 
26.982 1 249 6.5715 4.56811 4.55093 -5.09546 3.48332 3.62937 0.0416641 0.472561 -0.832419 0 0 0 0 0 0 0 0 0 
26.982 1 49 6.5893 4.47033 0.501291 1.01461 2.89309 0.853107 0.399723 0.190441 0.121462 0 0 0 0 0 0 0 0 0 
26.982 1 12 6.65127 2.59291 2.51583 1.1422 -4.94871 -5.1113 -0.166188 0.343279 0.479571 0 0 0 0 0 0 0 0 0 
26.982 1 51 8.84404 4.59724 2.529 0.635 -5.14632 -5.61363 -0.163189 0.128815 0.145942 0 0 0 0 0 0 0 0 0 
26.982 1 210 8.76565 2.68421 4.38214 7.16407 0.265402 -1.81279 0.368577 0.196051 0.809641 0 0 0 0 0 0 0 0 0 
26.982 1 253 11.1462 4.60996 4.29817 -3.57411 -0.0769061 -2.68851 0.104809 0.147197 0.515566 0 0 0 0 0 0 0 0 0 
26.982 1 10 8.88103 2.68518 0.453754 -0.470715 -0.803893 2.87767 0.0464754 -0.00448874 0.0281368 0 0 0 0 0 0 0 0 0 
26.982 1 16 11.0534 2.57176 2.60068 1.18029 -3.37815 5.0233 0.254193 0.0524229 -0.381678 0 0 0 0 0 0 0 0 0 
26.982 1 53 11.2453 4.59495 0.96648 2.47382 0.477666 6.33889 0.10139 0.318715 -0.390469 0 0 0 0 0 0 0 0 0 
26.982 1 55 13.5776 4.53896 2.53794 3.45024 -2.24536 0.684953 0.00476419 0.357827 -0.193851 0 0 0 0 0 0 0 0 0 
26.982 1 214 13.5284 2.65673 4.39283 3.38257 4.07462 3.6606 -0.129131 0.35944 0.688982 0 0 0 0 0 0 0 0 0 
26.982 1 14 13.508 2.54238 0.61265 6.71126 0.705447 1.21092 -0.125574 0.43304 0.379255 0 0 0 0 0 0 0 0 0 
26.982 1 57 15.6693 4.59448 0.446349 1.00639 0.92092 -0.920707 -0.342529 -0.250175 0.715407 0 0 0 0 0 0 0 0 0 
26.982 1 20 15.6845 2.48132 2.59055 -0.615949 -1.36159 -4.25345 0.391776 0.344016 -0.312572 0 0 0 0 0 0 0 0 0 
26.982 1 257 15.8055 4.61626 4.43237 1.82911 1.71518 0.864739 -0.269105 -0.082011 0.407136 0 0 0 0 0 0 0 0 0 
26.982 1 218 17.9193 2.51198 4.58996 0.597501 -3.52441 -1.11938 0.0611276 0.114136 -0.0231271 0 0 0 0 0 0 0 0 0 
26.982 1 59 18.0548 4.42859 2.66866 0.194937 1.28208 1.54617 -0.000634738 0.417578 -0.0451229 0 0 0 0 0 0 0 0 0 
26.982 1 24 20.2053 2.57554 2.60448 0.607495 0.372945 -1.48483 -0.00979683 0.293817 -0.28659 0 0 0 0 0 0 0 0 0 
26.982 1 261 20.2056 4.58812 4.6711 -4.21682 -1.02034 -4.80614 -0.0883921 -0.338802 -0.226175 0 0 0 0 0 0 0 0 0 
26.982 1 63 22.4569 4.42699 2.53373 -2.15568 2.0126 2.00633 0.0322142 0.0310285 -0.10653 0 0 0 0 0 0 0 0 0 
26.982 1 222 22.5105 2.82178 4.74222 -4.75049 2.14369 2.33051 -0.16602 -0.196945 -0.379647 0 0 0 0 0 0 0 0 0 
26.982 1 28 24.7197 2.67121 2.83942 4.02462 4.54424 4.17791 0.191453 0.173141 -0.462063 0 0 0 0 0 0 0 0 0 
26.982 1 265 24.7551 4.6889 4.67598 -1.32433 4.10585 6.31235 0.140952 -0.0167633 -0.0924345 0 0 0 0 0 0 0 0 0 
26.982 1 67 27.0597 4.63705 2.62058 3.7641 2.3876 3.8513 -0.0643958 0.00415983 0.190499 0 0 0 0 0 0 0 0 0 
26.982 1 226 26.9947 2.62592 4.64596 4.18363 1.14689 -1.34458 0.0655638 0.13249 0.0118626 0 0 0 0 0 0 0 0 0 
26.982 1 32 29.3584 2.61591 2.80236 0.545503 -4.71514 -0.145033 -0.245648 -0.0859314 -0.982465 0 0 0 0 0 0 0 0 0 
26.982 1 26 27.1537 2.65956 0.75713 -1.54644 4.86592 -6.57457 0.0468746 0.251314 -0.456136 0 0 0 0 0 0 0 0 0 
26.982 1 269 29.2342 4.45356 4.62393 -2.01751 0.275775 -6.36958 0.0712997 0.731881 0.415999 0 0 0 0 0 0 0 0 0 
26.982 1 71 31.4886 4.33508 2.75097 3.30881 -0.187987 1.73228 0.445005 0.401819 -0.558146 0 0 0 0 0 0 0 0 0 
26.982 1 230 31.5976 2.5816 4.73479 -4.05975 -6.01359 0.286083 0.0469475 -0.320153 0.307019 0 0 0 0 0 0 0 0 0 
26.982 1 30 31.5703 2.51875 0.642866 -1.52588 2.50236 3.16253 0.0527013 0.646882 0.169578 0 0 0 0 0 0 0 0 0 
26.982 1 273 33.8698 4.46608 4.74363 5.62624 -0.252163 -0.270626 0.353885 0.356938 -0.623018 0 0 0 0 0 0 0 0 0 
26.982 1 36 33.8419 2.37469 2.86276 -1.72608 -2.66414 3.41378 0.0736388 0.301299 -0.261199 0 0 0 0 0 0 0 0 0 
26.982 1 75 36.1387 4.5587 2.69308 -2.59307 5.8387 0.697735 0.13994 -0.725739 0.248924 0 0 0 0 0 0 0 0 0 
26.982 1 234 36.3337 2.381 4.62005 0.266047 7.29107 0.791767 -0.611761 0.238099 0.287804 0 0 0 0 0 0 0 0 0 
26.982 1 34 35.8772 2.6821 0.705018 0.583129 -2.357 -1.5926 0.66101 -0.369724 0.169179 0 0 0 0 0 0 0 0 0 
26.982 1 40 38.2246 2.29097 2.64634 -1.80522 2.08738 1.53854 0.581574 0.652025 -0.555186 0 0 0 0 0 0 0 0 0 
26.982 1 237 38.4097 0.462494 4.62408 -2.69158 1.76235 0.631478 -0.0790029 -0.0868338 0.480493 0 0 0 0 0 0 0 0 0 
26.982 1 4 42.9814 2.64641 2.65269 3.44549 3.73089 2.13976 0.0644527 -0.0495474 -0.00567857 0 0 0 0 0 0 0 0 0 
26.982 1 241 43.1698 4.44806 4.71349 5.35785 -3.1867 1.90547 -0.551461 0.435605 -0.271316 0 0 0 0 0 0 0 0 0 
26.982 1 77 38.6125 4.56416 0.893573 5.86592 -3.07782 0.175003 -0.275969 -0.431142 -0.282341 0 0 0 0 0 0 0 0 0 
26.982 1 277 38.375 4.48655 4.62471 0.635545 1.69417 -0.727187 -0.0194433 -0.0236491 -0.302526 0 0 0 0 0 0 0 0 0 
26.982 1 79 40.9118 4.52234 2.73285 -1.10961 -1.33051 4.87529 -0.303824 -0.457714 -0.348561 0 0 0 0 0 0 0 0 0 
26.982 1 238 40.4519 2.58149 4.6079 -5.31907 -0.148417 0.277967 0.475609 0.0370809 0.0259309 0 0 0 0 0 0 0 0 0 
26.982 1 39 40.8435 0.58693 2.77211 0.761375 -3.23986 -4.07369 -0.480955 0.333887 -0.215745 0 0 0 0 0 0 0 0 0 
26.982 1 83 -0.154533 8.46531 2.7766 -1.20976 0.284168 -6.03959 -0.397918 0.295291 -0.435933 0 0 0 0 0 0 0 0 0 
26.982 1 242 -0.212146 6.57143 4.64945 -2.8264 0.35572 0.275631 0.241235 -0.422782 0.312851 0 0 0 0 0 0 0 0 0 
26.982 1 84 -2.68292 10.4118 2.66174 -1.65475 0.94087 2.10198 0.450303 0.00428316 -0.064994 0 0 0 0 0 0 0 0 0 
26.982 1 281 -2.43937 8.39032 4.64094 -0.20805 -0.689146 -3.76802 -0.421364 0.605143 0.264728 0 0 0 0 0 0 0 0 0 
26.982 1 88 2.16037 10.4153 2.59131 0.0966252 3.27278 3.61067 -0.361017 0.142866 0.212182 0 0 0 0 0 0 0 0 0 
26.982 1 48 1.97541 6.48702 2.52727 1.78952 -0.445601 0.448027 0.21336 0.124311 -0.173518 0 0 0 0 0 0 0 0 0 
26.982 1 282 -0.26288 10.5434 4.51628 7.36393 -0.266417 -1.80865 -0.165186 -0.133736 0.0690785 0 0 0 0 0 0 0 0 0 
26.982 1 85 1.77061 8.44098 0.63974 -0.276033 -3.96315 -4.46755 0.649046 0.249909 0.362738 0 0 0 0 0 0 0 0 0 
26.982 1 285 2.03499 8.35775 4.40556 -5.70897 -1.02608 2.1062 0.234986 0.446619 0.531627 0 0 0 0 0 0 0 0 0 
26.982 1 87 4.14193 8.382 2.40672 -2.82087 0.419347 -5.82661 0.0872847 0.605087 0.577723 0 0 0 0 0 0 0 0 0 
26.982 1 246 4.35836 6.5237 4.37898 -0.122565 0.323444 -1.12452 -0.0743935 0.114268 0.440422 0 0 0 0 0 0 0 0 0 
26.982 1 289 6.46689 8.3565 4.41657 3.70897 3.09724 1.93164 0.130428 0.438446 0.466226 0 0 0 0 0 0 0 0 0 
26.982 1 52 6.70017 6.59245 2.46079 -0.0274401 3.6968 1.37952 -0.00389102 -0.638252 -0.0181379 0 0 0 0 0 0 0 0 0 
26.982 1 92 6.55832 10.5679 2.88856 -1.97478 2.97852 -0.301662 -0.0253007 0.13044 -0.0888484 0 0 0 0 0 0 0 0 0 
26.982 1 46 4.44811 6.66175 0.535118 -1.01884 -1.73424 -2.89997 -0.157929 -0.779908 -0.278606 0 0 0 0 0 0 0 0 0 
26.982 1 91 8.86707 8.76066 2.6386 1.95577 0.903943 -6.13233 -0.201299 -0.236596 -0.0745102 0 0 0 0 0 0 0 0 0 
26.982 1 250 8.85386 6.70026 4.53085 -0.966013 4.3781 -3.52054 0.0273629 -0.741393 -0.270262 0 0 0 0 0 0 0 0 0 
26.982 1 290 9.08764 10.5805 4.80352 -4.94492 8.02617 -0.621002 -0.494042 0.0291766 -0.043162 0 0 0 0 0 0 0 0 0 
26.982 1 293 11.1824 8.68994 4.64325 1.985 4.55454 -0.0307972 0.0953489 -0.172281 -0.137917 0 0 0 0 0 0 0 0 0 
26.982 1 89 6.42726 8.67183 0.841436 -2.89677 1.29062 -0.959518 0.478247 0.269996 -0.440476 0 0 0 0 0 0 0 0 0 
26.982 1 93 11.2172 8.65388 0.468847 1.14198 -4.73887 1.44273 0.0143782 -0.535439 0.207337 0 0 0 0 0 0 0 0 0 
26.982 1 56 11.1595 6.79103 2.76854 -4.36754 2.07752 1.21896 0.0509595 0.174269 -0.646394 0 0 0 0 0 0 0 0 0 
26.982 1 95 13.4184 8.72413 2.69588 -3.97383 -0.949169 4.42213 0.0699487 -0.0109742 -0.375359 0 0 0 0 0 0 0 0 0 
26.982 1 254 13.4137 6.63766 4.42051 -1.48326 -0.508345 -8.62945 0.367236 -0.2274 0.512009 0 0 0 0 0 0 0 0 0 
26.982 1 54 13.5412 6.70851 0.693918 -0.304405 -7.31502 3.12354 -0.314009 -0.270931 -0.0298262 0 0 0 0 0 0 0 0 0 
26.982 1 100 16.0429 10.5829 2.80037 -0.091487 -0.904484 -1.89758 -0.283655 0.0778293 -0.752226 0 0 0 0 0 0 0 0 0 
26.982 1 60 15.7987 6.48591 2.52311 1.72249 0.247727 1.79199 -0.0588749 -0.236419 0.225836 0 0 0 0 0 0 0 0 0 
26.982 1 297 15.7817 8.52759 4.38212 0.749652 0.471798 1.97534 -0.0435142 -0.344728 0.578852 0 0 0 0 0 0 0 0 0 
26.982 1 99 18.1494 8.46927 2.78238 -1.25411 -0.181129 -0.327327 0.0192268 -0.0853217 -0.398911 0 0 0 0 0 0 0 0 0 
26.982 1 258 18.0473 6.489 4.54531 1.00517 -0.556602 -1.43309 -0.0681893 -0.0225708 -0.0049262 0 0 0 0 0 0 0 0 0 
26.982 1 64 20.4306 6.51497 2.66563 -1.96965 -4.51874 -4.14502 -0.659819 -0.24279 -0.283522 0 0 0 0 0 0 0 0 0 
26.982 1 301 20.3889 8.51481 4.5476 -1.54355 4.20255 -3.01939 -0.222588 0.152154 -0.182909 0 0 0 0 0 0 0 0 0 
26.982 1 298 18.2091 10.6475 4.52686 0.640796 -2.17152 -0.171691 0.0427497 -0.346594 0.456309 0 0 0 0 0 0 0 0 0 
26.982 1 58 17.9985 6.40015 0.737359 2.8654 0.785995 3.14624 0.157215 0.510215 0.0776835 0 0 0 0 0 0 0 0 0 
26.982 1 104 20.3962 10.5524 2.77376 0.159844 0.772637 -3.62326 0.204753 -0.425568 -0.415399 0 0 0 0 0 0 0 0 0 
26.982 1 103 22.5962 8.42399 2.65654 -1.30461 8.17317 -0.829329 0.241358 0.500538 0.0357081 0 0 0 0 0 0 0 0 0 
26.982 1 262 22.3881 6.43235 4.49212 -4.35727 -2.47253 -3.82256 0.655079 0.0269261 0.506326 0 0 0 0 0 0 0 0 0 
26.982 1 302 22.7607 10.3435 4.69653 -3.32089 -4.20583 -4.67154 -0.232187 0.0643178 -0.424733 0 0 0 0 0 0 0 0 0 
26.982 1 101 20.5132 8.46019 0.765119 -2.95457 1.48609 -2.56593 -0.435624 0.276912 0.133077 0 0 0 0 0 0 0 0 0 
26.982 1 305 24.8382 8.54895 4.54928 2.69982 -5.752 -2.1273 0.0411359 -0.27795 0.0601685 0 0 0 0 0 0 0 0 0 
26.982 1 68 24.8076 6.48077 2.63602 0.994128 3.96619 1.78599 -0.103054 0.186874 0.0656106 0 0 0 0 0 0 0 0 0 
26.982 1 105 24.9167 8.42676 0.672956 0.534924 3.28411 -2.93858 -0.169888 0.103604 -0.207489 0 0 0 0 0 0 0 0 0 
26.982 1 102 22.7808 10.4458 0.649661 -1.01374 -2.27112 0.937494 -0.06236 -0.00842631 0.0247321 0 0 0 0 0 0 0 0 0 
26.982 1 107 27.1463 8.43033 2.51433 3.75898 -2.05249 4.06967 0.0231512 0.155986 0.380531 0 0 0 0 0 0 0 0 0 
26.982 1 266 26.9517 6.73733 4.53967 -0.403794 0.930684 0.814545 0.275077 -0.921291 0.0550944 0 0 0 0 0 0 0 0 0 
26.982 1 306 27.2363 10.5709 4.43457 -0.522458 1.71847 -4.61939 -0.215921 -0.46037 -0.037228 0 0 0 0 0 0 0 0 0 
26.982 1 112 29.4078 10.5579 2.43523 -1.17237 2.50728 3.20001 0.290635 -0.373238 0.388137 0 0 0 0 0 0 0 0 0 
26.982 1 72 29.2729 6.48955 2.6265 -1.22801 -1.41893 3.04182 0.0754638 -0.0337077 0.227978 0 0 0 0 0 0 0 0 0 
26.982 1 309 29.4606 8.62853 4.55882 2.33474 -2.12791 1.49284 -0.144734 -0.206379 -0.446826 0 0 0 0 0 0 0 0 0 
26.982 1 111 31.7903 8.43207 2.62595 3.9334 0.972998 2.39593 -0.234319 0.482863 -0.150653 0 0 0 0 0 0 0 0 0 
26.982 1 270 31.463 6.51617 4.39312 -2.39605 -3.36066 3.06408 0.204984 -0.258358 0.497983 0 0 0 0 0 0 0 0 0 
26.982 1 310 31.6858 10.4084 4.57286 0.403977 6.04566 0.221743 -0.517215 -0.12686 0.1427 0 0 0 0 0 0 0 0 0 
26.982 1 76 34.0063 6.5264 2.83547 4.98329 3.26014 -3.69591 -0.37424 -0.126674 -0.257024 0 0 0 0 0 0 0 0 0 
26.982 1 313 33.9083 8.61285 4.68055 2.74235 0.952892 1.40657 0.0393956 -0.367656 0.200313 0 0 0 0 0 0 0 0 0 
26.982 1 115 36.0947 8.57987 2.67573 -2.31525 -4.60139 -2.48554 0.362604 -0.397158 -0.0510384 0 0 0 0 0 0 0 0 0 
26.982 1 274 36.1257 6.39216 4.60648 -0.127111 0.276597 -3.94743 0.105277 0.405561 0.611684 0 0 0 0 0 0 0 0 0 
26.982 1 113 34.0603 8.45973 0.721545 3.28137 2.44557 1.38346 -0.38268 -0.0240445 0.146504 0 0 0 0 0 0 0 0 0 
26.982 1 80 38.4054 6.49027 2.63383 1.86026 3.53533 -2.5639 -0.054089 -0.141268 0.327548 0 0 0 0 0 0 0 0 0 
26.982 1 44 43.1229 6.48821 2.9163 3.20812 -2.06738 -4.17946 -0.402514 -0.231438 -0.812274 0 0 0 0 0 0 0 0 0 
26.982 1 317 38.5325 8.29694 4.56348 -1.49128 -4.09467 -0.972479 -0.33796 0.499092 0.181255 0 0 0 0 0 0 0 0 0 
26.982 1 119 40.7918 8.4582 2.6215 0.654184 3.44693 -2.71507 -0.265658 0.234329 0.564693 0 0 0 0 0 0 0 0 0 
26.982 1 278 40.6919 6.35864 4.46299 1.88671 6.94469 1.569 0.10238 0.618133 0.843835 0 0 0 0 0 0 0 0 0 
26.982 1 120 38.3697 10.538 2.70853 -3.02354 -2.6117 -0.0442684 -0.0774259 -0.421123 -0.064111 0 0 0 0 0 0 0 0 0 
26.982 1 123 -0.145691 12.3422 2.52381 1.50428 4.42104 0.617844 -0.379559 0.347809 0.415662 0 0 0 0 0 0 0 0 0 
26.982 1 322 -0.402873 14.3954 4.47218 -0.20177 3.53105 0.582501 0.307264 0.177884 0.428879 0 0 0 0 0 0 0 0 0 
26.982 1 325 1.97253 12.349 4.68209 -3.03905 -0.765973 -0.654175 0.0862687 0.452218 -0.493418 0 0 0 0 0 0 0 0 0 
26.982 1 128 1.95953 14.4666 2.82781 -2.68072 -1.67779 -7.63226 -0.00149191 0.132116 -0.299118 0 0 0 0 0 0 0 0 0 
26.982 1 321 -2.62425 12.3478 4.55358 4.03016 0.329413 0.621174 0.122656 0.805493 -0.432642 0 0 0 0 0 0 0 0 0 
26.982 1 124 -2.43359 14.5215 2.71281 0.591626 -2.39994 1.4128 -0.455575 -0.442953 -0.425218 0 0 0 0 0 0 0 0 0 
26.982 1 82 -0.339108 10.3721 0.742966 -9.01601 -0.00912651 -6.17141 -0.0464706 0.209306 0.0335667 0 0 0 0 0 0 0 0 0 
26.982 1 125 1.93349 12.522 0.876446 1.36309 1.50472 -5.42953 0.425995 -0.319963 -0.298443 0 0 0 0 0 0 0 0 0 
26.982 1 286 4.27428 10.3897 4.6154 -1.83083 4.66558 3.37097 -0.118521 0.00913647 -0.536111 0 0 0 0 0 0 0 0 0 
26.982 1 127 4.3397 12.6185 2.82538 0.144312 -1.36617 0.648086 -0.186553 -0.817557 -0.343746 0 0 0 0 0 0 0 0 0 
26.982 1 326 4.23084 14.4693 4.49536 -0.99884 -2.53428 -2.22333 -0.0616776 0.575403 0.54156 0 0 0 0 0 0 0 0 0 
26.982 1 329 6.48423 12.7428 4.66828 -2.87135 0.178976 0.594241 0.378173 -0.679308 -0.47349 0 0 0 0 0 0 0 0 0 
26.982 1 126 4.22096 14.4373 0.816243 -4.50285 -1.77796 -0.772946 -0.109343 0.302881 -0.064198 0 0 0 0 0 0 0 0 0 
26.982 1 96 11.1185 10.3904 2.49028 2.35722 1.80915 -1.03462 0.285142 0.395942 0.206208 0 0 0 0 0 0 0 0 0 
26.982 1 132 6.50584 14.5897 2.48718 0.969343 -1.38109 -3.1884 0.419112 -0.18312 0.502489 0 0 0 0 0 0 0 0 0 
26.982 1 131 8.7811 12.2906 2.82059 -5.36261 2.94357 1.95289 -0.0457578 0.19756 -0.512507 0 0 0 0 0 0 0 0 0 
26.982 1 330 8.89831 14.3126 4.51317 0.54402 2.21307 -1.1063 -0.128627 0.305835 0.339531 0 0 0 0 0 0 0 0 0 
26.982 1 333 11.2422 12.3872 4.40888 -5.08245 -2.24489 0.0652398 0.251305 -0.330835 0.411306 0 0 0 0 0 0 0 0 0 
26.982 1 133 11.2265 12.5159 0.659503 -0.422071 0.808532 -2.08461 0.0313323 -0.36526 0.178768 0 0 0 0 0 0 0 0 0 
26.982 1 136 11.1422 14.332 2.67156 -1.0108 3.81792 -3.49164 0.270807 0.471128 -0.026104 0 0 0 0 0 0 0 0 0 
26.982 1 130 8.9432 14.2296 0.818249 -3.86977 -3.05816 -0.137114 -0.270921 -0.136833 -0.0902098 0 0 0 0 0 0 0 0 0 
26.982 1 294 13.6738 10.4692 4.78376 -4.29367 -1.25754 5.26566 -0.149565 0.329787 0.0442535 0 0 0 0 0 0 0 0 0 
26.982 1 94 13.5315 10.6276 0.65926 -3.31084 0.890064 5.89475 0.0501466 -0.480051 -0.381159 0 0 0 0 0 0 0 0 0 
26.982 1 135 13.7138 12.2566 2.75968 4.55955 0.703655 -1.73044 -0.470061 0.288741 -0.0141212 0 0 0 0 0 0 0 0 0 
26.982 1 334 13.5523 14.4845 4.59747 -0.24488 -0.790708 2.71154 -0.399713 -0.463583 0.112981 0 0 0 0 0 0 0 0 0 
26.982 1 134 13.6591 14.3354 0.722458 -0.0268124 0.896378 2.32395 -0.276529 0.101688 0.125799 0 0 0 0 0 0 0 0 0 
26.982 1 140 15.6603 14.2235 2.64659 0.701652 -3.05922 -5.20907 0.501655 0.311586 0.0815462 0 0 0 0 0 0 0 0 0 
26.982 1 337 15.8991 12.3504 4.74295 -1.55597 1.33112 5.71849 -0.113814 0.306836 0.462398 0 0 0 0 0 0 0 0 0 
26.982 1 139 18.2374 12.4975 2.50211 0.596315 -2.51465 0.620676 -0.171922 0.0206058 0.0547129 0 0 0 0 0 0 0 0 0 
26.982 1 338 18.1259 14.2004 4.58185 -3.30278 0.130562 -1.57548 -0.115822 -0.0950867 0.350199 0 0 0 0 0 0 0 0 0 
26.982 1 341 20.5709 12.4024 4.67012 -0.129254 -3.14359 4.49612 -0.331853 -0.00840432 -0.388322 0 0 0 0 0 0 0 0 0 
26.982 1 144 20.3329 14.3953 2.53109 -4.38997 -6.93206 -4.61145 0.133653 -0.402334 0.343909 0 0 0 0 0 0 0 0 0 
26.982 1 138 18.1013 14.3744 0.575374 -3.22497 -4.02956 5.445 0.0277953 0.0903197 -0.128372 0 0 0 0 0 0 0 0 0 
26.982 1 141 20.5658 12.2606 0.656447 -2.27136 -1.14714 -1.20728 -0.54677 -0.11548 0.01783 0 0 0 0 0 0 0 0 0 
26.982 1 142 22.5322 14.1644 0.509333 1.3581 0.743813 1.86899 0.476151 0.0574982 0.357384 0 0 0 0 0 0 0 0 0 
26.982 1 143 22.6815 12.3017 2.66771 4.47753 0.0554289 -1.25925 -0.0790038 0.445653 -0.0202197 0 0 0 0 0 0 0 0 0 
26.982 1 342 22.4423 14.5917 4.66979 -1.80414 -2.30838 -1.15577 0.456233 -0.317548 -0.529658 0 0 0 0 0 0 0 0 0 
26.982 1 148 24.829 14.4196 2.64398 -0.402169 1.92636 -1.66908 0.104624 -0.197483 -0.0536073 0 0 0 0 0 0 0 0 0 
26.982 1 108 24.9329 10.4569 2.5668 0.675508 -1.87572 2.43373 0.0455009 -0.117201 -0.121038 0 0 0 0 0 0 0 0 0 
26.982 1 146 27.2994 14.3338 0.554721 0.446171 -0.338459 3.98909 -0.436806 0.117003 0.211351 0 0 0 0 0 0 0 0 0 
26.982 1 345 24.8193 12.3959 4.42786 2.81325 -4.34243 5.77916 0.3781 0.23079 0.43808 0 0 0 0 0 0 0 0 0 
26.982 1 147 27.3739 12.4384 2.48904 3.82596 -0.141625 9.71256 -0.601111 0.133714 0.0308125 0 0 0 0 0 0 0 0 0 
26.982 1 346 27.2402 14.4707 4.63804 5.06865 -2.04964 -0.622647 -0.419537 0.134628 -0.421126 0 0 0 0 0 0 0 0 0 
26.982 1 152 29.3087 14.4398 2.65026 1.53849 1.22834 -5.12893 0.145025 0.201401 -0.391669 0 0 0 0 0 0 0 0 0 
26.982 1 149 29.504 12.4012 0.423718 -1.16417 -5.10473 -1.91884 -0.136447 -0.0309131 0.243512 0 0 0 0 0 0 0 0 0 
26.982 1 349 29.3907 12.547 4.57253 1.07459 2.64665 -3.88624 0.171455 -0.582506 0.199771 0 0 0 0 0 0 0 0 0 
26.982 1 151 31.6845 12.3922 2.5984 1.93292 -5.60319 1.97908 -0.275489 0.229524 -0.142936 0 0 0 0 0 0 0 0 0 
26.982 1 350 31.4552 14.3739 4.58536 0.989538 -1.66985 -3.18841 0.289748 0.221809 0.130544 0 0 0 0 0 0 0 0 0 
26.982 1 153 33.8125 12.4255 0.558295 -2.98542 3.00059 4.5755 -0.0100968 -0.258275 0.352139 0 0 0 0 0 0 0 0 0 
26.982 1 150 31.4879 14.3643 0.56843 0.0254165 1.48215 0.83164 0.0942087 -0.0408875 0.270277 0 0 0 0 0 0 0 0 0 
26.982 1 116 33.8162 10.4936 2.63885 5.27834 -1.7592 -2.39638 0.0464586 -0.0700989 -0.10881 0 0 0 0 0 0 0 0 0 
26.982 1 314 36.1715 10.3627 4.6554 -1.45717 0.163338 -1.00903 -0.100604 0.150696 0.232933 0 0 0 0 0 0 0 0 0 
26.982 1 156 33.7129 14.5479 2.60199 -3.24473 -0.803374 1.82982 -0.127276 -0.493743 0.448048 0 0 0 0 0 0 0 0 0 
26.982 1 353 33.6216 12.3038 4.7133 1.18103 3.76733 -1.18044 0.515698 0.451255 -0.0144702 0 0 0 0 0 0 0 0 0 
26.982 1 155 35.7476 12.5551 2.92519 -0.950551 -3.40081 -0.879675 0.466334 -0.231842 -0.352602 0 0 0 0 0 0 0 0 0 
26.982 1 354 35.8609 14.4002 4.82335 1.08153 0.234564 2.72059 0.307007 -0.353474 -0.285114 0 0 0 0 0 0 0 0 0 
26.982 1 160 38.5087 14.3319 2.74247 -0.798437 6.28463 -0.336913 -0.351256 0.244885 0.167103 0 0 0 0 0 0 0 0 0 
26.982 1 114 36.0594 10.6513 0.84694 -1.12825 -1.54051 -4.7547 0.250266 0.123129 -0.299128 0 0 0 0 0 0 0 0 0 
26.982 1 357 38.2051 12.3652 4.63913 -0.560866 -0.996029 1.0893 0.0561704 0.522477 0.088076 0 0 0 0 0 0 0 0 0 
26.982 1 318 40.5235 10.3218 4.69413 1.55811 9.13433 -0.564745 0.140281 0.152683 -0.519365 0 0 0 0 0 0 0 0 0 
26.982 1 159 40.7003 12.4198 2.6669 0.719616 -1.35283 0.243629 -0.00681349 0.143345 0.0963109 0 0 0 0 0 0 0 0 0 
26.982 1 358 40.4304 14.3733 4.71565 -3.4674 -1.61106 2.56456 0.571888 -0.0954904 -0.147198 0 0 0 0 0 0 0 0 0 
26.982 1 158 40.5273 14.4599 0.642769 0.468168 -5.28638 2.71968 0.436977 0.390302 0.196916 0 0 0 0 0 0 0 0 0 
26.982 1 163 -0.188912 16.5173 2.54517 7.38619 -1.31181 1.52973 -0.0887823 -0.0890488 0.442477 0 0 0 0 0 0 0 0 0 
26.982 1 362 -0.341627 18.3455 4.73325 1.1657 -5.21116 4.01774 0.258944 0.147895 -0.76026 0 0 0 0 0 0 0 0 0 
26.982 1 365 2.0598 16.5119 4.68256 -1.73955 1.04868 2.86617 -0.289666 -0.249553 -0.192882 0 0 0 0 0 0 0 0 0 
26.982 1 361 -2.65371 16.3835 4.56289 -1.91921 1.01685 -4.23653 0.26412 -0.404031 0.361916 0 0 0 0 0 0 0 0 0 
26.982 1 168 1.95504 18.3642 2.52695 -0.225519 3.56444 -1.36771 0.425898 0.0518953 0.577693 0 0 0 0 0 0 0 0 0 
26.982 1 2201 -2.54976 20.5128 4.67013 1.21366 -3.87966 7.26096 0.348101 -0.290038 0.00454887 0 0 0 0 0 0 0 0 0 
26.982 1 2001 -2.3429 20.2286 0.564777 -1.45736 2.11035 3.5608 -0.226952 -0.0610018 0.370858 0 0 0 0 0 0 0 0 0 
26.982 1 2003 -0.122853 20.325 2.67291 2.27773 -1.35488 -2.65685 -0.207546 -0.456173 0.33556 0 0 0 0 0 0 0 0 0 
26.982 1 167 4.40056 16.4946 2.57731 -3.25251 -1.62979 6.54701 -0.318934 0.0373133 0.189903 0 0 0 0 0 0 0 0 0 
26.982 1 366 4.41222 18.4282 4.4905 5.03367 -4.5655 -4.0968 -0.13854 0.216121 -0.0676423 0 0 0 0 0 0 0 0 0 
26.982 1 369 6.58262 16.4228 4.58707 4.00947 1.35724 -4.21331 0.0408218 -0.236494 -0.423733 0 0 0 0 0 0 0 0 0 
26.982 1 172 6.65038 18.4115 2.41454 -3.99624 2.01108 5.15696 0.0128988 -0.365349 0.608081 0 0 0 0 0 0 0 0 0 
26.982 1 2007 4.49915 20.4065 2.39072 2.76092 -0.839143 4.48926 -0.154279 -0.617579 -0.0830372 0 0 0 0 0 0 0 0 0 
26.982 1 2205 2.46517 20.5608 4.51192 -1.57556 -2.80682 6.53326 -0.70301 -0.910412 -0.411737 0 0 0 0 0 0 0 0 0 
26.982 1 2209 6.56956 20.34 4.48053 3.66218 0.914309 1.00186 0.649153 -0.262454 -0.102655 0 0 0 0 0 0 0 0 0 
26.982 1 171 8.95179 16.405 2.61624 -0.905599 2.93835 -3.25429 -0.278723 -0.244976 -0.122589 0 0 0 0 0 0 0 0 0 
26.982 1 370 8.69994 18.2791 4.57289 0.270175 2.65035 -1.45564 0.437511 0.0863997 -0.297938 0 0 0 0 0 0 0 0 0 
26.982 1 176 11.0817 18.2868 2.71425 -5.16402 -6.71468 5.8949 0.44609 -0.228843 -0.45509 0 0 0 0 0 0 0 0 0 
26.982 1 373 11.1686 16.4128 4.62554 -2.88172 2.95613 2.76709 -0.0640969 -0.167254 -0.0437207 0 0 0 0 0 0 0 0 0 
26.982 1 2009 6.70153 20.3251 0.635142 -3.61349 -7.933 -0.924748 0.0651639 0.331827 -0.538358 0 0 0 0 0 0 0 0 0 
26.982 1 173 11.1161 16.2728 0.673523 2.64509 -4.69515 4.38371 0.139207 0.244395 0.159802 0 0 0 0 0 0 0 0 0 
26.982 1 170 9.02108 18.4164 0.68453 0.528665 -0.688069 -0.0672975 -0.118124 -0.114915 -0.241717 0 0 0 0 0 0 0 0 0 
26.982 1 2213 11.1971 20.103 4.60465 2.69259 -2.32762 -2.33442 0.244304 0.234526 -0.233667 0 0 0 0 0 0 0 0 0 
26.982 1 175 13.4718 16.3248 2.63401 -5.73989 1.72843 -0.535711 -0.217888 -0.224066 -0.0961019 0 0 0 0 0 0 0 0 0 
26.982 1 374 13.4814 18.1895 4.63729 -2.99133 3.09435 2.02813 -0.0430609 0.110048 -0.183827 0 0 0 0 0 0 0 0 0 
26.982 1 377 15.6902 16.1708 4.67245 -1.20849 -3.57669 2.55468 0.282391 0.305611 -0.243634 0 0 0 0 0 0 0 0 0 
26.982 1 180 15.578 18.1963 2.71577 2.06046 -2.87303 -0.377612 0.251462 0.0597122 -0.224949 0 0 0 0 0 0 0 0 0 
26.982 1 174 13.3787 18.1618 0.694914 1.56856 -1.04595 2.86156 0.0567739 0.0627833 -0.327623 0 0 0 0 0 0 0 0 0 
26.982 1 2013 11.308 20.2974 0.777275 -0.258758 -1.45469 5.27411 -0.117732 -0.54046 -0.111322 0 0 0 0 0 0 0 0 0 
26.982 1 179 18.0317 16.0983 2.76308 4.22867 -0.269306 -2.08161 -0.212347 0.504651 -0.279026 0 0 0 0 0 0 0 0 0 
26.982 1 378 17.9189 18.4179 4.38893 -5.95987 -0.741294 6.4298 0.00440436 -0.0889672 0.326175 0 0 0 0 0 0 0 0 0 
26.982 1 381 20.4205 16.4803 4.44612 8.23864 2.97822 0.855232 -0.261834 0.0696195 0.473947 0 0 0 0 0 0 0 0 0 
26.982 1 2019 17.9285 20.3301 2.55672 3.01884 -2.6633 4.21312 -0.158147 0.0559808 0.262062 0 0 0 0 0 0 0 0 0 
26.982 1 181 20.3483 16.1924 0.570315 5.54648 -5.32004 -1.87814 -0.142992 0.648358 0.0624519 0 0 0 0 0 0 0 0 0 
26.982 1 177 15.861 16.3278 0.629965 -1.52819 -2.96391 1.99074 -0.140343 0.0443483 0.265029 0 0 0 0 0 0 0 0 0 
26.982 1 184 20.0861 18.3262 2.52813 3.1517 -4.16269 3.62882 0.34458 -0.414096 0.0797282 0 0 0 0 0 0 0 0 0 
26.982 1 183 22.5846 16.1898 2.4465 0.456671 -2.37397 -3.94118 0.0579886 0.117636 -0.179203 0 0 0 0 0 0 0 0 0 
26.982 1 382 22.7254 18.1235 4.40099 0.670858 -5.52029 -1.54906 -0.267014 0.307087 0.282291 0 0 0 0 0 0 0 0 0 
26.982 1 385 24.9202 16.2213 4.75983 1.34047 -2.19658 -0.0246342 0.0267002 0.146466 -0.112234 0 0 0 0 0 0 0 0 0 
26.982 1 188 24.9072 18.055 2.69908 1.22472 -1.53839 -4.21721 -0.486735 0.473166 -0.399588 0 0 0 0 0 0 0 0 0 
26.982 1 187 27.0213 16.4515 2.55064 3.52104 -2.42966 4.53327 0.430456 -0.778289 0.0916543 0 0 0 0 0 0 0 0 0 
26.982 1 386 27.1211 18.2893 4.53594 1.51164 -3.21892 1.33934 -0.125567 0.0567723 0.295909 0 0 0 0 0 0 0 0 0 
26.982 1 192 29.2268 18.2746 2.64371 0.424969 -1.13524 3.91116 -0.0256944 0.018204 -0.653394 0 0 0 0 0 0 0 0 0 
26.982 1 189 29.3046 16.3744 0.55215 2.02814 0.64671 -0.774649 0.0768956 -0.158185 0.193856 0 0 0 0 0 0 0 0 0 
26.982 1 389 29.3384 16.4524 4.704 2.07597 0.806441 1.75521 0.0386968 -0.318823 0.0467651 0 0 0 0 0 0 0 0 0 
26.982 1 191 31.3764 16.4621 2.52175 1.29902 5.95041 4.76196 0.153686 -0.286801 0.0923304 0 0 0 0 0 0 0 0 0 
26.982 1 390 31.4713 18.2247 4.5676 -3.59564 4.88423 2.42708 0.294067 0.242237 0.562022 0 0 0 0 0 0 0 0 0 
26.982 1 190 31.5423 18.2455 0.316882 2.7685 4.52933 0.940501 -0.540199 0.261 1.00204 0 0 0 0 0 0 0 0 0 
26.982 1 393 33.6688 16.3972 4.70284 1.37463 2.05502 -7.00377 0.22352 -0.0679119 -0.403212 0 0 0 0 0 0 0 0 0 
26.982 1 196 33.6712 18.2943 2.62203 -2.2349 -0.47155 3.87985 0.148705 -0.311745 -0.119886 0 0 0 0 0 0 0 0 0 
26.982 1 195 36.0215 16.3415 2.72673 -8.32558 -0.909182 3.1041 0.00482758 0.292593 0.346425 0 0 0 0 0 0 0 0 0 
26.982 1 394 36.1134 18.4578 4.73182 -8.87446 -0.14069 1.23232 0.341598 -0.361406 -0.60326 0 0 0 0 0 0 0 0 0 
26.982 1 2237 38.6885 20.2008 4.47274 0.18565 3.1951 -8.65063 -0.640389 0.415743 0.661393 0 0 0 0 0 0 0 0 0 
26.982 1 2037 38.5627 20.2798 0.761405 1.17118 -0.880172 5.57172 -0.347705 0.295633 -0.169553 0 0 0 0 0 0 0 0 0 
26.982 1 197 38.1277 16.2746 0.808162 0.271897 1.63796 2.15912 0.357483 0.274476 -0.0241268 0 0 0 0 0 0 0 0 0 
26.982 1 193 33.5815 16.3557 0.728271 3.60069 3.66108 -4.66338 0.250673 0.441155 -0.206275 0 0 0 0 0 0 0 0 0 
26.982 1 194 35.937 18.4518 0.87511 4.62942 5.3502 1.42447 0.258184 -0.609509 -0.183744 0 0 0 0 0 0 0 0 0 
26.982 1 397 38.3422 16.1886 4.5712 2.53828 0.953074 1.29905 -0.221852 0.860021 0.326767 0 0 0 0 0 0 0 0 0 
26.982 1 200 38.4989 18.3618 2.66566 -0.355884 -4.72128 1.15641 -0.468898 -0.562372 -0.246464 0 0 0 0 0 0 0 0 0 
26.982 1 164 42.8857 18.3714 2.85353 10.1313 -4.07318 2.46778 0.292961 0.217122 -0.632238 0 0 0 0 0 0 0 0 0 
26.982 1 199 40.5838 16.4398 2.66793 -2.21674 1.73003 3.36732 0.268069 -0.460803 -0.150927 0 0 0 0 0 0 0 0 0 
26.982 1 398 40.6021 18.2993 4.65687 1.31922 1.98513 1.44974 0.229106 0.0478807 0.124308 0 0 0 0 0 0 0 0 0 
26.982 1 2039 40.8461 20.214 2.68084 -4.38741 2.00856 -0.555475 -0.0422187 0.211789 -0.488212 0 0 0 0 0 0 0 0 0 
26.982 1 198 40.6837 18.224 0.5905 1.8821 0.0285821 5.846 0.133253 0.213646 0.392647 0 0 0 0 0 0 0 0 0 
26.982 1 405 2.13069 0.736272 8.31703 1.82641 -1.94588 1.75412 -0.137957 -0.0853908 0.323646 0 0 0 0 0 0 0 0 0 
26.982 1 243 -0.155175 4.58426 6.6456 0.204101 1.00623 0.394485 0.192513 0.0377781 -0.348748 0 0 0 0 0 0 0 0 0 
26.982 1 402 -0.252569 2.60117 8.44388 1.78729 2.51386 -2.93286 0.45382 -0.361867 0.281047 0 0 0 0 0 0 0 0 0 
26.982 1 208 2.07912 2.71461 6.52702 -1.16601 0.346719 1.81301 -0.0623215 -0.00289245 -0.337519 0 0 0 0 0 0 0 0 0 
26.982 1 204 -2.40974 2.68511 6.5917 1.00726 -0.379464 -0.214704 -0.473718 -0.709632 0.280829 0 0 0 0 0 0 0 0 0 
26.982 1 443 -0.0385609 4.52205 10.3249 -2.20032 2.34946 -3.33238 0.0248402 0.354471 -0.2632 0 0 0 0 0 0 0 0 0 
26.982 1 203 -0.270517 0.641186 6.46806 -5.41722 2.92384 0.96138 0.490508 -0.0204257 0.174341 0 0 0 0 0 0 0 0 0 
26.982 1 445 2.16137 4.80029 8.50011 -0.644856 1.15998 3.8568 -0.294144 -0.732522 -0.317239 0 0 0 0 0 0 0 0 0 
26.982 1 247 4.1262 4.80348 6.5618 -1.85136 1.56485 0.610506 0.383171 -0.249694 -0.451402 0 0 0 0 0 0 0 0 0 
26.982 1 406 4.45615 2.73763 8.33871 -5.51706 5.60028 -2.26543 -0.439486 -0.020875 0.33046 0 0 0 0 0 0 0 0 0 
26.982 1 449 6.60763 4.65672 8.49751 -1.58337 -3.729 0.980651 0.229087 0.126008 0.297047 0 0 0 0 0 0 0 0 0 
26.982 1 212 6.39361 2.94753 6.49017 2.95957 0.803333 0.977807 0.53619 -0.513723 0.414607 0 0 0 0 0 0 0 0 0 
26.982 1 447 4.36522 4.55317 10.4016 3.16115 5.35882 0.392484 0.323793 0.275669 0.0238791 0 0 0 0 0 0 0 0 0 
26.982 1 251 9.10691 4.60084 6.50083 -1.49749 4.12533 -2.35916 -0.320699 -0.202508 -0.398951 0 0 0 0 0 0 0 0 0 
26.982 1 410 8.99551 2.60429 8.44232 0.596792 -0.592237 2.72932 -0.405168 0.249108 0.0227179 0 0 0 0 0 0 0 0 0 
26.982 1 453 11.4092 4.43498 8.35562 0.738121 2.54797 -1.65105 -0.357653 0.448139 0.0306716 0 0 0 0 0 0 0 0 0 
26.982 1 211 8.89097 0.834585 6.45317 2.92872 1.12038 8.73829 0.350962 -0.190727 0.0540903 0 0 0 0 0 0 0 0 0 
26.982 1 409 6.60687 0.760057 8.50162 1.0022 -5.10036 -0.821435 0.232166 -0.105018 -0.356019 0 0 0 0 0 0 0 0 0 
26.982 1 216 11.3271 2.6962 6.33866 2.63605 2.29567 5.00006 -0.184366 -0.338017 -0.130957 0 0 0 0 0 0 0 0 0 
26.982 1 255 13.5326 4.64941 6.55921 -4.34229 -1.09986 -2.35519 0.0292156 -0.145146 -0.669094 0 0 0 0 0 0 0 0 0 
26.982 1 414 13.458 2.41415 8.47649 -4.00608 -5.17469 2.02042 -0.0561698 0.0964971 -0.204601 0 0 0 0 0 0 0 0 0 