ITEM: TIMESTEP
16750
ITEM: NUMBER OF ATOMS
4000
ITEM: BOX BOUNDS pp pp pp
-3.4785 43.9785
0.91976 39.5802
1.13184 39.3682
ITEM: ATOMS mass type id x y z vx vy vz fx fy fz xrad yrad zrad vxrad vyrad vzrad fxrad fyrad fzrad 
26.982 1 43 -0.783796 6.93442 3.50418 8.17946 4.86358 0.424589 -0.0307101 0.141307 -0.459176 0 0 0 0 0 0 0 0 0 
26.982 1 202 -1.14095 3.50344 4.45869 4.12302 -0.767887 -6.4017 0.738567 0.422286 -0.0101867 0 0 0 0 0 0 0 0 0 
26.982 1 235 36.485 1.46781 7.2408 -0.850873 -2.90942 -0.606271 0.313222 -0.472266 -0.827293 0 0 0 0 0 0 0 0 0 
26.982 1 205 1.16861 1.77509 4.14656 2.50912 4.91695 1.19975 -0.0175157 -0.286372 0.439302 0 0 0 0 0 0 0 0 0 
26.982 1 2 -1.91261 3.05721 1.70595 -2.88461 -1.4824 -2.65588 -0.154181 -0.385145 0.282203 0 0 0 0 0 0 0 0 0 
26.982 1 245 1.96 4.26763 4.64 4.7359 4.39321 -1.8031 0.283772 0.000208184 -0.275275 0 0 0 0 0 0 0 0 0 
26.982 1 8 2.00863 3.57935 1.88416 -5.47848 0.403877 -2.85219 0.394141 -0.000446806 0.00481014 0 0 0 0 0 0 0 0 0 
26.982 1 47 4.60245 4.77431 3.6773 -2.97525 -2.17103 -0.222911 -0.125967 -0.218558 -0.11636 0 0 0 0 0 0 0 0 0 
26.982 1 206 5.09209 2.01341 4.72135 -0.0441849 -2.12634 0.335632 -0.173725 0.319614 -0.333687 0 0 0 0 0 0 0 0 0 
26.982 1 249 6.90207 4.94052 5.68309 2.08883 -0.932355 4.15764 -0.0827949 0.0910095 -0.331054 0 0 0 0 0 0 0 0 0 
26.982 1 12 7.24554 2.89396 3.29025 0.389008 -2.42153 5.98981 -0.196674 0.00980003 0.40608 0 0 0 0 0 0 0 0 0 
26.982 1 51 9.34704 4.17351 2.40002 -4.38642 -0.583205 -1.03614 0.36988 0.227369 0.058602 0 0 0 0 0 0 0 0 0 
26.982 1 210 9.70751 2.57548 4.77281 -3.57289 0.994074 1.08714 -0.206138 0.133728 -0.383581 0 0 0 0 0 0 0 0 0 
26.982 1 212 7.35023 2.29614 6.42779 2.77518 -1.00676 -0.0188135 -0.310629 0.0431582 0.324323 0 0 0 0 0 0 0 0 0 
26.982 1 253 11.7974 4.41011 4.32738 3.34058 -2.0532 -3.4857 -0.231432 0.102396 0.465091 0 0 0 0 0 0 0 0 0 
26.982 1 16 11.6278 2.60505 2.45813 -1.69712 4.21096 -0.903034 0.071463 -0.798496 -0.0447387 0 0 0 0 0 0 0 0 0 
26.982 1 214 13.7375 2.43673 4.19059 -0.725917 -8.29775 7.82765 0.225558 -0.135667 0.340059 0 0 0 0 0 0 0 0 0 
26.982 1 19 18.2631 1.03763 3.19849 1.68927 0.262153 -0.927092 0.0399179 -0.0977189 0.237359 0 0 0 0 0 0 0 0 0 
26.982 1 55 14.1537 5.44384 2.93987 6.37825 2.14317 0.954541 0.530652 -0.154031 0.142407 0 0 0 0 0 0 0 0 0 
26.982 1 20 16.2945 3.10443 3.17898 -3.58699 -2.97702 -2.53458 0.152232 -0.339574 0.566837 0 0 0 0 0 0 0 0 0 
26.982 1 257 16.3219 5.1874 4.97033 3.43056 -0.279172 -0.87425 0.162244 -0.256488 0.423885 0 0 0 0 0 0 0 0 0 
26.982 1 57 16.3251 5.09944 1.21797 1.89041 -1.85162 -4.17365 0.202707 0.207083 -0.00515025 0 0 0 0 0 0 0 0 0 
26.982 1 14 14.3856 3.13677 1.34071 2.14369 4.07765 -6.35388 -0.269873 -0.17138 0.0871666 0 0 0 0 0 0 0 0 0 
26.982 1 35 36.6263 1.13722 3.35277 1.08128 -1.34735 0.0380696 0.161323 0.0828742 -0.315421 0 0 0 0 0 0 0 0 0 
26.982 1 218 18.6581 3.26712 5.02862 -3.45668 2.41771 -5.71582 -1.27564 -0.468205 0.164419 0 0 0 0 0 0 0 0 0 
26.982 1 59 18.4384 5.0018 2.97633 5.5398 -0.640054 1.13587 -0.135262 0.298378 0.109721 0 0 0 0 0 0 0 0 0 
26.982 1 24 20.4648 2.98963 2.98404 -0.882009 1.66333 -3.62551 -0.143579 -0.376112 0.0520841 0 0 0 0 0 0 0 0 0 
26.982 1 261 20.4728 5.17548 4.92885 -1.9904 0.499242 -2.91074 0.696678 -0.395277 0.113352 0 0 0 0 0 0 0 0 0 
26.982 1 1198 41.0834 18.0444 19.5963 1.19171 -0.504506 -0.188688 0.501389 0.401734 0.675873 0 0 0 0 0 0 0 0 0 
26.982 1 5 0.397259 1.43647 1.62184 -1.62722 -1.15414 7.02981 -0.367335 -0.779292 0.156603 0 0 0 0 0 0 0 0 0 
26.982 1 63 22.6023 4.72685 2.84238 -4.65573 -1.759 -2.98352 0.237643 0.170336 0.553158 0 0 0 0 0 0 0 0 0 
26.982 1 222 22.4583 2.7489 4.89469 -6.01097 1.67296 -1.60581 0.372401 0.314073 0.107704 0 0 0 0 0 0 0 0 0 
26.982 1 28 24.5972 2.47954 2.70998 0.673315 -2.23994 0.137901 0.373122 -0.0417932 0.530354 0 0 0 0 0 0 0 0 0 
26.982 1 265 24.95 4.60838 4.7077 1.00839 -1.30756 -1.71586 -0.570103 -0.115932 -0.232544 0 0 0 0 0 0 0 0 0 
26.982 1 1161 43.4023 16.0067 19.2876 -4.28862 3.97159 0.480515 0.313732 -0.121908 0.558565 0 0 0 0 0 0 0 0 0 
26.982 1 831 31.1154 1.10587 18.0404 -2.06432 -1.5569 0.977904 0.601207 -0.466496 0.240886 0 0 0 0 0 0 0 0 0 
26.982 1 67 27.1684 4.405 2.78501 5.28335 -3.39789 -2.24821 -0.347195 -0.0435214 -0.339289 0 0 0 0 0 0 0 0 0 
26.982 1 226 26.8136 2.60929 4.65208 -5.42986 -3.21345 0.927219 0.284716 -0.552218 0.167188 0 0 0 0 0 0 0 0 0 
26.982 1 32 29.4722 3.00566 2.28184 -0.914575 2.42983 2.83026 -0.0250524 0.386712 -0.0345218 0 0 0 0 0 0 0 0 0 
26.982 1 269 29.5931 4.17642 4.69488 -2.8248 4.15271 6.2528 -0.282004 -0.297877 0.647606 0 0 0 0 0 0 0 0 0 
26.982 1 2427 27.7598 19.7729 11.0534 5.04799 -1.06583 0.227607 0.197841 0.550633 -0.213776 0 0 0 0 0 0 0 0 0 
26.982 1 71 31.9656 4.55869 2.70166 1.96762 0.322993 -1.1653 -0.486722 0.570183 0.219179 0 0 0 0 0 0 0 0 0 
26.982 1 230 31.9398 2.66251 4.7914 1.01986 1.64568 0.0551684 0.0581179 0.522597 0.658164 0 0 0 0 0 0 0 0 0 
26.982 1 273 33.7933 4.80165 4.99334 -5.48379 0.653299 8.24028 0.214857 0.56295 0.245789 0 0 0 0 0 0 0 0 0 
26.982 1 36 34.4573 2.8053 3.52207 -4.07872 1.85046 1.64931 -0.176199 -0.12794 -0.640025 0 0 0 0 0 0 0 0 0 
26.982 1 833 33.5003 1.25545 15.7942 7.56951 5.52983 -0.778461 -0.0981492 0.0656204 -0.24731 0 0 0 0 0 0 0 0 0 
26.982 1 2823 23.4489 19.8897 18.5004 -4.23733 -3.18727 0.43103 -0.493334 -0.188143 0.299805 0 0 0 0 0 0 0 0 0 
26.982 1 75 36.1655 5.34951 3.14269 -0.672849 0.315183 -3.77902 0.115146 0.222514 0.448165 0 0 0 0 0 0 0 0 0 
26.982 1 234 36.7154 3.62905 5.04501 3.77482 1.33419 -0.227302 -0.22473 -0.493254 0.327133 0 0 0 0 0 0 0 0 0 
26.982 1 40 38.6095 3.6583 3.02154 2.52273 -1.50107 -2.76017 0.121649 -0.38283 0.15027 0 0 0 0 0 0 0 0 0 
26.982 1 277 39.5183 4.54943 5.73266 2.28109 0.0324615 2.52358 -0.043526 -0.594718 0.270899 0 0 0 0 0 0 0 0 0 
26.982 1 33 34.596 0.993525 1.36875 1.71472 1.8439 -4.18262 0.213699 -0.165098 0.0164929 0 0 0 0 0 0 0 0 0 
26.982 1 2219 17.9801 20.0058 6.09287 0.716191 0.988166 4.10083 0.382281 0.102554 -0.369337 0 0 0 0 0 0 0 0 0 
26.982 1 237 38.7062 1.69816 5.03797 3.0413 1.00854 5.27196 0.0216616 -0.153326 0.565085 0 0 0 0 0 0 0 0 0 
26.982 1 37 38.7348 1.42755 1.23328 4.91522 1.90699 -1.30728 -0.324853 -0.00947563 0.20517 0 0 0 0 0 0 0 0 0 
26.982 1 41 43.3892 4.79893 1.65156 -1.78882 1.26146 -0.108712 0.137737 0.0169655 0.506043 0 0 0 0 0 0 0 0 0 
26.982 1 4 43.92 2.70774 3.97633 3.90762 3.80475 -2.84721 -0.95839 0.109528 -0.199514 0 0 0 0 0 0 0 0 0 
26.982 1 241 -3.13773 5.66254 4.57009 0.865085 5.2658 1.79943 -0.140101 -0.0989558 -0.0273222 0 0 0 0 0 0 0 0 0 
26.982 1 79 41.59 4.4704 3.71915 11.4 3.0681 -1.86917 0.284934 0.359428 0.301837 0 0 0 0 0 0 0 0 0 
26.982 1 238 41.6642 2.70114 5.73316 3.73719 1.29925 -1.10496 0.149802 -0.300085 0.321578 0 0 0 0 0 0 0 0 0 
26.982 1 142 22.279 14.9364 1.67202 -10.1038 -2.73258 -2.46529 -0.201306 0.674664 0.192207 0 0 0 0 0 0 0 0 0 
26.982 1 39 40.6726 1.81908 3.21163 -2.37169 -3.08618 -0.633982 0.582724 -0.234539 -0.346631 0 0 0 0 0 0 0 0 0 
26.982 1 223 22.396 0.93907 7.01274 -3.17418 0.214678 -1.32323 -0.212924 0.53441 -0.260484 0 0 0 0 0 0 0 0 0 
26.982 1 83 -0.617514 9.5877 3.20912 7.25475 6.17741 0.954179 0.0946585 0.0119003 -0.129646 0 0 0 0 0 0 0 0 0 
26.982 1 242 -0.191277 5.74732 5.69548 1.54658 6.54534 1.93053 -0.199981 -0.0587669 0.823526 0 0 0 0 0 0 0 0 0 
26.982 1 281 -1.36104 8.38114 5.78163 6.08421 -0.786894 -1.64784 -0.56287 -0.294838 -1.02668 0 0 0 0 0 0 0 0 0 
26.982 1 282 -1.85749 11.2493 5.01401 -6.48351 2.15685 5.69152 0.129685 0.132394 -0.644736 0 0 0 0 0 0 0 0 0 
26.982 1 48 2.13129 6.28833 2.79138 0.81082 -2.90951 1.84346 -0.502705 0.319727 0.0526267 0 0 0 0 0 0 0 0 0 
26.982 1 285 1.62436 8.02399 5.37494 -1.93151 3.6959 0.0156384 -0.113019 0.078646 -0.219305 0 0 0 0 0 0 0 0 0 
26.982 1 87 4.73816 7.34474 2.8287 -1.92521 2.71073 3.28226 -0.0603494 0.412774 0.39428 0 0 0 0 0 0 0 0 0 
26.982 1 246 4.57695 7.21935 5.87702 -0.913558 -6.86848 -4.20328 -0.0921558 -0.239542 -1.03304 0 0 0 0 0 0 0 0 0 
26.982 1 88 2.28695 9.25077 2.98484 -5.59027 2.00583 -5.10943 -0.117693 -0.361398 -0.154252 0 0 0 0 0 0 0 0 0 
26.982 1 286 4.38267 9.77687 4.74719 -0.146841 1.55298 1.9951 -0.391671 -0.181542 -0.0354445 0 0 0 0 0 0 0 0 0 
26.982 1 86 4.86432 9.89036 1.82055 -2.70068 8.73086 0.103635 -0.419985 0.647308 -0.109622 0 0 0 0 0 0 0 0 0 
26.982 1 289 7.18023 7.77485 4.51055 4.07251 3.07226 -0.908992 -0.18276 -0.0990571 0.314081 0 0 0 0 0 0 0 0 0 
26.982 1 52 6.95675 5.68808 2.65117 -4.56304 -1.7759 -1.68083 0.271247 -0.371217 0.335915 0 0 0 0 0 0 0 0 0 
26.982 1 91 9.84235 8.64347 3.58543 -2.10629 4.02567 8.77554 -0.514857 -0.282467 -0.343552 0 0 0 0 0 0 0 0 0 
26.982 1 250 9.20274 5.72985 4.64417 0.541385 -3.2866 -12.6929 0.448359 0.319982 -0.371262 0 0 0 0 0 0 0 0 0 
26.982 1 89 7.28912 8.35777 1.85372 2.97396 -1.02518 -2.52405 0.0228594 -0.087192 -0.334823 0 0 0 0 0 0 0 0 0 
26.982 1 50 9.74983 6.8153 1.425 -0.566835 6.5272 0.0257386 -0.19429 -0.26903 0.732419 0 0 0 0 0 0 0 0 0 
26.982 1 293 11.8918 8.85895 5.4156 4.21631 -4.22079 2.34786 -0.0115162 0.384456 -0.165612 0 0 0 0 0 0 0 0 0 
26.982 1 56 11.9922 6.95416 3.40109 2.68605 3.01039 0.43749 -0.247651 0.508174 0.107487 0 0 0 0 0 0 0 0 0 
26.982 1 95 13.1533 9.45022 2.63911 -2.72659 0.410469 -1.74956 0.425243 -0.103754 0.563628 0 0 0 0 0 0 0 0 0 
26.982 1 73 34.2488 4.63031 1.30223 2.20393 2.75038 -1.63587 -0.396523 0.416385 0.17869 0 0 0 0 0 0 0 0 0 
26.982 1 254 14.2088 7.09593 5.23786 -1.76071 0.556439 6.23934 -0.601084 -0.0800523 -0.391994 0 0 0 0 0 0 0 0 0 
26.982 1 60 16.3239 7.28677 3.21636 -2.92235 -6.39038 -4.7224 0.0537534 -0.302108 -0.0671042 0 0 0 0 0 0 0 0 0 
26.982 1 297 15.3995 9.65135 4.48199 -0.497998 -1.05583 -1.47012 0.0108622 -0.277558 0.149883 0 0 0 0 0 0 0 0 0 
26.982 1 2825 25.4385 19.8413 16.5772 3.31734 -2.27134 2.64352 0.350582 -0.122507 -0.128477 0 0 0 0 0 0 0 0 0 
26.982 1 97 16.0945 9.40995 1.49724 3.41252 0.393151 0.0310154 -0.26083 -0.388116 0.0897374 0 0 0 0 0 0 0 0 0 
26.982 1 99 18.2705 9.19958 3.33343 5.69461 0.325048 1.96824 0.101346 0.169415 -0.27166 0 0 0 0 0 0 0 0 0 
26.982 1 258 18.5502 7.04776 5.25029 -2.22802 1.22464 1.13735 -0.441914 0.00303964 -0.235383 0 0 0 0 0 0 0 0 0 
26.982 1 64 20.5316 6.83533 2.91997 -3.01898 2.44951 1.87581 0.183546 0.558219 -0.314853 0 0 0 0 0 0 0 0 0 
26.982 1 301 20.5221 8.8546 4.90995 6.59114 -1.18421 0.422861 0.71465 0.430217 0.0561296 0 0 0 0 0 0 0 0 0 
26.982 1 103 22.7401 8.76424 3.01248 3.97066 2.04857 2.69568 -0.351193 -0.296876 0.373261 0 0 0 0 0 0 0 0 0 
26.982 1 262 23.0764 6.71406 4.76008 7.29748 1.99647 2.63605 -0.963279 -0.572746 0.187846 0 0 0 0 0 0 0 0 0 
26.982 1 305 25.0212 8.43835 4.90092 0.851362 3.20722 -4.47408 0.711667 -0.0859305 0.0982224 0 0 0 0 0 0 0 0 0 
26.982 1 68 24.8767 6.63474 2.71033 -0.353724 1.48158 4.73865 -0.089391 -0.715523 0.931898 0 0 0 0 0 0 0 0 0 
26.982 1 431 32.0037 1.73429 11.5247 1.79694 0.679971 0.620787 -0.163858 -0.404141 0.307251 0 0 0 0 0 0 0 0 0 
26.982 1 193 34.2546 16.1094 1.0673 3.88754 5.70384 -10.1436 -0.406859 0.788121 0.0535444 0 0 0 0 0 0 0 0 0 
26.982 1 107 27.1375 8.26262 2.92792 1.60189 5.25546 1.04354 0.303214 0.487021 0.192196 0 0 0 0 0 0 0 0 0 
26.982 1 266 27.1294 6.16906 4.81222 -1.45548 -0.00645351 2.72217 0.252415 0.691604 0.012028 0 0 0 0 0 0 0 0 0 
26.982 1 72 29.3591 6.16044 2.98914 -1.08262 1.57828 2.4765 -0.0186889 0.242761 -0.671351 0 0 0 0 0 0 0 0 0 
26.982 1 309 29.2749 8.25192 4.78153 -4.95992 2.73935 3.57346 0.235529 -0.111604 -0.134174 0 0 0 0 0 0 0 0 0 
26.982 1 112 29.4819 10.3023 2.83559 1.16388 -1.33591 0.100167 -0.503373 -0.166477 -0.287685 0 0 0 0 0 0 0 0 0 
26.982 1 146 27.2907 14.2918 1.12635 -0.5282 -4.2422 -0.924312 0.0248189 0.173195 -0.0851763 0 0 0 0 0 0 0 0 0 
26.982 1 45 -0.325834 5.18438 1.53676 6.30412 2.43911 0.725553 0.423704 0.515989 -0.202026 0 0 0 0 0 0 0 0 0 
26.982 1 2417 16.1283 19.8746 8.76912 -0.177861 2.70671 0.483048 0.0438399 0.522162 0.284453 0 0 0 0 0 0 0 0 0 
26.982 1 111 31.5222 8.53355 2.92257 -5.26877 -0.950771 -5.68611 -0.127713 -0.325946 -0.52848 0 0 0 0 0 0 0 0 0 
26.982 1 270 31.4436 6.37131 4.70277 -4.06395 -0.415909 2.05607 0.284436 0.110333 0.124959 0 0 0 0 0 0 0 0 0 
26.982 1 76 33.7672 6.81072 2.92498 7.6023 -0.193411 -0.358342 -0.219183 -0.00451721 0.239337 0 0 0 0 0 0 0 0 0 
26.982 1 313 34.5415 7.51861 5.60491 -7.81979 3.34927 3.19235 -0.182069 -0.296043 0.0914367 0 0 0 0 0 0 0 0 0 
26.982 1 116 34.0122 9.48009 3.73981 5.18873 -0.372873 4.39805 0.37414 0.463474 0.0967113 0 0 0 0 0 0 0 0 0 
26.982 1 310 31.5488 10.0648 5.03162 1.55479 1.39868 0.0909047 0.139502 0.204756 -0.11726 0 0 0 0 0 0 0 0 0 
26.982 1 221 20.2871 1.09266 5.13471 0.546326 -6.44808 1.04221 0.476344 -0.300213 -0.1522 0 0 0 0 0 0 0 0 0 
26.982 1 115 36.6576 8.13939 3.71125 1.68845 -3.27847 7.27431 -0.090873 -0.352664 0.709021 0 0 0 0 0 0 0 0 0 
26.982 1 274 37.2524 6.34935 5.70492 -0.0944524 1.21179 -1.86063 -0.028694 -0.209984 0.110055 0 0 0 0 0 0 0 0 0 
26.982 1 80 39.3179 6.07867 3.59452 -1.91858 3.88036 -1.94112 -0.0607965 0.792119 -0.052392 0 0 0 0 0 0 0 0 0 
26.982 1 317 39.225 8.51793 4.91557 2.08468 -1.57193 3.90048 -0.187432 0.393753 0.294372 0 0 0 0 0 0 0 0 0 
26.982 1 117 38.8414 8.24352 1.96284 5.27751 -7.92858 -4.11596 0.210627 0.0299791 0.215816 0 0 0 0 0 0 0 0 0 
26.982 1 314 36.6362 9.19369 6.30081 3.89204 6.01161 0.878505 0.311905 0.306319 -0.218444 0 0 0 0 0 0 0 0 0 
26.982 1 6 4.89928 2.74948 1.74189 -4.93973 11.4512 0.485156 -0.363762 0.0275381 0.236081 0 0 0 0 0 0 0 0 0 
26.982 1 114 36.6068 9.74426 1.73532 6.28405 -2.5992 -5.12898 -0.22034 1.14478 -0.256786 0 0 0 0 0 0 0 0 0 
26.982 1 78 41.5845 6.84208 1.73593 5.49524 3.07385 2.72826 0.0778368 -0.37782 0.248706 0 0 0 0 0 0 0 0 0 
26.982 1 44 -3.30699 8.45786 3.51269 5.95175 -2.81536 -2.20638 0.0165401 -0.284944 0.529011 0 0 0 0 0 0 0 0 0 
26.982 1 119 41.3095 9.17121 3.04435 -3.35995 2.16774 -2.34372 -0.1248 0.483911 -0.173826 0 0 0 0 0 0 0 0 0 
26.982 1 278 41.6799 7.15803 4.60866 2.10425 7.57984 -0.296568 0.464405 -0.595265 0.126945 0 0 0 0 0 0 0 0 0 
26.982 1 84 43.5542 11.1089 2.87092 -0.802534 7.83814 2.12659 -0.055659 0.678346 0.592746 0 0 0 0 0 0 0 0 0 
26.982 1 318 41.0051 11.4096 4.55142 2.49322 1.1301 -3.04068 0.560814 0.179962 -0.288298 0 0 0 0 0 0 0 0 0 
26.982 1 123 -1.3626 12.0714 2.08218 2.92683 -4.58027 0.148554 0.339838 0.558492 -0.00470066 0 0 0 0 0 0 0 0 0 
26.982 1 322 -1.57181 14.087 4.07782 2.84126 5.21965 -0.266232 -0.699357 0.0187343 -0.517087 0 0 0 0 0 0 0 0 0 
26.982 1 122 -0.482035 14.9381 1.64712 7.51654 0.52207 0.596604 -0.768316 -0.593026 -0.0697028 0 0 0 0 0 0 0 0 0 
26.982 1 361 43.4121 15.7848 3.89429 1.24034 -5.36299 3.06819 0.0915601 0.431025 0.578282 0 0 0 0 0 0 0 0 0 
26.982 1 325 0.842082 11.7706 4.13021 4.28922 0.02444 2.32349 -0.172582 -0.545411 -0.613582 0 0 0 0 0 0 0 0 0 
26.982 1 128 2.2545 14.1995 3.49778 0.0592359 3.8326 3.54112 -0.578219 -0.0808865 0.499793 0 0 0 0 0 0 0 0 0 
26.982 1 127 4.4694 12.3836 3.53538 2.78023 2.62249 -0.175523 0.100327 -0.623407 -0.535459 0 0 0 0 0 0 0 0 0 
26.982 1 326 4.65531 14.1639 5.3863 -0.445853 2.00189 -5.93974 -0.680782 0.622823 0.703567 0 0 0 0 0 0 0 0 0 
26.982 1 125 2.32419 11.712 1.84839 5.45737 3.48623 3.17801 0.103685 0.468809 -0.216485 0 0 0 0 0 0 0 0 0 
26.982 1 126 3.73906 14.3651 1.30567 -0.627666 -0.462521 4.20186 0.552049 -0.168077 0.0242093 0 0 0 0 0 0 0 0 0 
26.982 1 129 6.11359 12.6306 1.25875 -3.00281 -0.229221 -1.93041 -0.196778 -0.0637269 0.136587 0 0 0 0 0 0 0 0 0 
26.982 1 290 9.33065 10.594 5.36827 2.42257 -0.546656 -2.65633 -0.228058 0.222994 0.189162 0 0 0 0 0 0 0 0 0 
26.982 1 92 6.89315 10.4102 3.57886 1.24921 1.9126 4.32292 0.224681 0.235203 -0.0363725 0 0 0 0 0 0 0 0 0 
26.982 1 329 6.87365 12.5236 5.27135 0.733909 -4.39314 -5.53754 0.0490882 -0.489236 0.00550741 0 0 0 0 0 0 0 0 0 
26.982 1 132 6.2328 14.5915 3.24699 -1.88632 3.79255 -1.13577 0.185446 -0.0466931 -0.286631 0 0 0 0 0 0 0 0 0 
26.982 1 131 8.65669 12.5714 3.11997 3.37862 -0.0977057 5.95934 -0.338781 0.739749 -0.00143563 0 0 0 0 0 0 0 0 0 
26.982 1 182 23.3262 18.6044 1.43885 5.90136 -3.45635 -1.81535 -0.244172 -0.550346 -0.496931 0 0 0 0 0 0 0 0 0 
26.982 1 3033 34.5458 20.0033 20.0707 -2.27534 -0.112674 -4.94137 0.0174297 -0.209275 -0.0542417 0 0 0 0 0 0 0 0 0 
26.982 1 294 13.0443 11.3335 4.61553 -0.714112 -3.16211 -5.42782 0.387924 0.317408 0.924065 0 0 0 0 0 0 0 0 0 
26.982 1 96 10.8833 11.1328 2.98289 3.19092 1.32514 -3.25538 -0.330386 -0.388503 -0.268682 0 0 0 0 0 0 0 0 0 
26.982 1 333 10.8722 13.0703 5.06537 -3.39861 -2.0057 5.76026 0.0302593 0.128784 0.196848 0 0 0 0 0 0 0 0 0 
26.982 1 135 12.3764 13.3405 2.76315 0.0842505 3.20275 -1.36546 0.576463 0.404932 0.0672518 0 0 0 0 0 0 0 0 0 
26.982 1 100 14.8583 11.6099 2.55803 -0.213103 2.27453 -3.35545 0.331973 0.806957 -0.157935 0 0 0 0 0 0 0 0 0 
26.982 1 337 15.2439 13.4669 4.87308 4.15738 0.528143 2.5178 -0.200464 -0.175016 -0.512467 0 0 0 0 0 0 0 0 0 
26.982 1 139 16.8584 14.0688 2.42038 -2.72437 0.0430244 1.03784 -0.215439 -0.557967 -0.0116145 0 0 0 0 0 0 0 0 0 
26.982 1 298 17.3392 11.6849 4.40145 3.25765 -2.06047 2.65794 0.193232 0.0943627 -0.27942 0 0 0 0 0 0 0 0 0 
26.982 1 2627 27.656 19.8303 14.587 2.48958 1.1593 -3.60084 0.531302 0.0179067 0.557733 0 0 0 0 0 0 0 0 0 
26.982 1 104 20.3844 11.1307 3.06568 3.00717 -0.820376 -6.09714 0.0102608 -0.531083 -0.199643 0 0 0 0 0 0 0 0 0 
26.982 1 338 18.1407 14.2681 4.87803 0.796479 0.0402881 -1.83199 -0.0091381 0.14832 0.424991 0 0 0 0 0 0 0 0 0 
26.982 1 341 20.5549 13.655 3.65468 2.77813 -0.586493 -7.65271 -0.385492 0.0133133 0.100083 0 0 0 0 0 0 0 0 0 
26.982 1 144 19.0986 15.6318 2.28011 -2.45762 1.96528 -1.11974 -0.102067 0.171603 0.00142988 0 0 0 0 0 0 0 0 0 
26.982 1 302 22.9604 10.7227 4.9888 -5.98926 2.43559 3.79765 -0.2879 -0.371244 -0.320592 0 0 0 0 0 0 0 0 0 
26.982 1 108 25.1144 10.2238 3.00223 -2.25099 1.64506 -2.12505 -0.0447508 0.69106 0.17939 0 0 0 0 0 0 0 0 0 
26.982 1 143 22.7967 12.638 2.89569 -1.06605 -0.332776 1.47623 0.995961 -0.635639 -0.23488 0 0 0 0 0 0 0 0 0 
26.982 1 342 23.0246 14.4585 5.03265 -1.81088 -1.06737 0.830969 -0.000596946 -0.128048 0.297829 0 0 0 0 0 0 0 0 0 
26.982 1 148 25.2184 14.2337 3.2347 -3.04515 0.906274 -4.33804 -0.0795065 0.42779 -0.837713 0 0 0 0 0 0 0 0 0 
26.982 1 345 25.096 12.39 4.99671 -1.05174 1.09958 -0.653041 0.175012 -0.275797 0.111976 0 0 0 0 0 0 0 0 0 
26.982 1 306 27.408 10.34 4.88717 4.36707 -0.171384 -4.45555 -0.199209 -0.385001 -0.214367 0 0 0 0 0 0 0 0 0 
26.982 1 147 27.2626 12.232 2.98707 -5.96935 -2.07376 -2.17755 0.504425 0.635766 0.678163 0 0 0 0 0 0 0 0 0 
26.982 1 346 27.6083 14.2417 4.85163 0.238338 0.166413 -4.49144 0.113959 -0.230286 0.0143666 0 0 0 0 0 0 0 0 0 
26.982 1 152 29.7221 14.3383 2.76816 -3.56488 -1.79337 0.873555 -0.423839 -0.767318 0.841748 0 0 0 0 0 0 0 0 0 
26.982 1 349 29.737 12.1038 4.83046 1.0846 -1.89718 0.554398 -0.570296 0.516475 0.14271 0 0 0 0 0 0 0 0 0 
26.982 1 2629 30.0021 19.7911 12.6691 3.09612 2.25934 0.385737 -0.14736 0.285298 0.246591 0 0 0 0 0 0 0 0 0 
26.982 1 27 27.1242 1.21796 2.21824 -2.26618 3.41833 -3.99454 0.35297 0.369534 -0.107378 0 0 0 0 0 0 0 0 0 
26.982 1 151 31.6038 12.054 2.80486 -3.3086 2.20209 1.47519 0.480041 0.640158 0.593383 0 0 0 0 0 0 0 0 0 
26.982 1 350 31.7386 14.1584 4.95459 -2.0658 4.2402 -0.497171 0.292217 -0.623137 -0.224005 0 0 0 0 0 0 0 0 0 
26.982 1 156 33.9383 14.1831 2.85639 -0.104756 1.84536 -7.29093 -0.266416 -0.360037 -0.0962092 0 0 0 0 0 0 0 0 0 
26.982 1 353 33.7588 12.1812 4.74258 -3.93598 4.51317 5.20416 -0.677129 -0.486821 -0.133455 0 0 0 0 0 0 0 0 0 
26.982 1 2215 13.805 19.9393 6.87445 -1.78514 7.33855 1.04472 -0.0753308 0.33719 -0.29836 0 0 0 0 0 0 0 0 0 
26.982 1 2625 25.6694 19.942 12.894 2.09492 -0.750707 2.97169 -0.671097 -0.678479 0.0245437 0 0 0 0 0 0 0 0 0 
26.982 1 58 18.3852 7.0254 1.09793 3.18707 -3.49998 -3.83015 0.268818 0.171157 0.0826827 0 0 0 0 0 0 0 0 0 
26.982 1 2039 40.9314 20.1553 3.16954 2.94541 2.85062 -0.791143 0.257694 0.381114 0.176865 0 0 0 0 0 0 0 0 0 
26.982 1 120 39.0392 10.9555 2.87423 -1.02837 -0.914488 0.154057 -0.517206 -0.192247 -0.109033 0 0 0 0 0 0 0 0 0 
26.982 1 155 36.2512 11.3368 4.04101 3.70872 0.333391 -1.52801 0.330703 -0.510206 -0.382893 0 0 0 0 0 0 0 0 0 
26.982 1 354 35.8385 13.8896 4.91904 -0.109384 -1.09302 -0.0121081 0.290823 0.236082 -0.205836 0 0 0 0 0 0 0 0 0 
26.982 1 160 38.3838 13.7878 3.78582 -2.80835 0.297391 2.90561 0.112155 0.0779471 -0.218546 0 0 0 0 0 0 0 0 0 
26.982 1 357 38.5567 11.4016 5.55369 -1.43526 3.66998 -1.68277 -0.802055 -0.526544 0.00431449 0 0 0 0 0 0 0 0 0 
26.982 1 124 43.9548 14.0858 2.01405 4.15287 3.58122 3.35913 0.0641562 -0.579192 -0.600934 0 0 0 0 0 0 0 0 0 
26.982 1 321 43.0949 13.1114 4.82429 5.53703 3.20192 -3.74827 0.823042 -0.632692 -0.219176 0 0 0 0 0 0 0 0 0 
26.982 1 159 41.2742 13.429 2.70205 1.0203 0.278887 -1.22257 -0.144243 -0.143582 0.176424 0 0 0 0 0 0 0 0 0 
26.982 1 358 40.943 14.6178 5.18496 -4.70048 0.103801 0.395686 -0.735908 0.107644 -0.0674751 0 0 0 0 0 0 0 0 0 
26.982 1 199 41.4808 16.0427 1.89341 -3.80374 1.98515 -2.97885 0.0452271 -0.0186713 0.0753748 0 0 0 0 0 0 0 0 0 
26.982 1 163 -1.46008 16.9576 3.51671 -1.64289 4.56032 -0.935592 0.0490453 -0.204197 -0.277442 0 0 0 0 0 0 0 0 0 
26.982 1 362 -0.878879 18.6782 5.47363 5.87526 -0.636825 2.18702 -0.266956 -0.277899 -0.0917298 0 0 0 0 0 0 0 0 0 
26.982 1 2621 21.0559 19.6815 12.6072 5.36335 1.61008 3.94944 0.0279387 0.178676 0.00604924 0 0 0 0 0 0 0 0 0 
26.982 1 2003 -1.09956 19.9312 2.96254 -0.919083 -3.01512 -1.89247 0.273513 0.337261 0.159511 0 0 0 0 0 0 0 0 0 
26.982 1 185 25.0579 16.2839 1.31178 -1.08175 -0.498397 -1.79079 0.497268 -0.403838 -0.278202 0 0 0 0 0 0 0 0 0 
26.982 1 1033 33.2576 1.18034 19.9985 0.523507 -3.09927 -1.06054 -0.192185 -0.279608 0.230919 0 0 0 0 0 0 0 0 0 
26.982 1 166 3.36233 18.6239 1.19497 -3.55034 -1.69552 -1.41144 -0.245706 -0.0950369 0.119805 0 0 0 0 0 0 0 0 0 
26.982 1 165 1.36446 16.6526 1.351 0.452533 -5.59833 1.61354 0.902922 -0.281599 0.107311 0 0 0 0 0 0 0 0 0 
26.982 1 365 2.37223 16.2123 5.65536 5.39752 7.40257 -4.68504 0.158065 -0.840007 -0.161369 0 0 0 0 0 0 0 0 0 
26.982 1 168 1.23687 17.9753 3.7165 3.37367 -3.0216 2.57775 -0.0215014 0.213333 -0.0368536 0 0 0 0 0 0 0 0 0 
26.982 1 167 3.58731 16.6688 3.18296 -4.93523 1.15677 -2.7403 0.3663 -0.163443 0.0939134 0 0 0 0 0 0 0 0 0 
26.982 1 366 3.91995 18.4977 5.53032 -4.50843 -1.08029 0.801075 -0.185137 -0.3792 -0.324473 0 0 0 0 0 0 0 0 0 
26.982 1 429 29.4612 1.53321 9.73789 2.22548 5.11685 2.9499 -0.206834 0.0301105 0.408948 0 0 0 0 0 0 0 0 0 
26.982 1 330 8.50947 14.7142 5.17792 -7.91299 3.63903 0.417464 0.105402 0.428745 -0.487635 0 0 0 0 0 0 0 0 0 
26.982 1 369 5.94343 16.6608 5.0916 -0.49778 -0.72178 -4.37026 0.0728719 0.0864619 0.305278 0 0 0 0 0 0 0 0 0 
26.982 1 172 5.54245 18.8558 3.05221 -2.51001 3.83608 -2.11825 -0.15524 -0.655614 0.121362 0 0 0 0 0 0 0 0 0 
26.982 1 171 7.66523 16.9852 3.02042 -0.257123 2.22533 1.78681 0.721947 -0.184817 -0.0161492 0 0 0 0 0 0 0 0 0 
26.982 1 370 7.96893 19.0038 5.1142 1.84973 1.05658 -0.388202 -0.283132 -0.134337 -0.21849 0 0 0 0 0 0 0 0 0 
26.982 1 102 23.0457 10.4839 1.12044 1.12142 -0.935226 -3.34427 -0.525043 1.03533 0.149796 0 0 0 0 0 0 0 0 0 
26.982 1 835 35.6986 1.49108 17.7021 -3.85998 -1.30367 0.938592 0.549314 -0.527711 0.0660342 0 0 0 0 0 0 0 0 0 
26.982 1 136 10.231 15.0716 3.02981 2.1518 -2.94401 0.993321 -0.347444 0.0654606 -0.548796 0 0 0 0 0 0 0 0 0 
26.982 1 334 12.7122 15.2401 4.82481 -0.0162744 -0.218614 3.97849 -0.546687 -0.286215 -0.0345208 0 0 0 0 0 0 0 0 0 
26.982 1 176 9.57199 19.1499 2.78373 1.49377 1.89341 -7.08494 0.50027 -0.137477 0.0295286 0 0 0 0 0 0 0 0 0 
26.982 1 373 10.1436 17.0766 4.84982 -1.14659 -2.39636 0.865566 0.224067 0.175071 -0.136633 0 0 0 0 0 0 0 0 0 
26.982 1 175 12.0797 17.3978 2.73694 -4.3611 -2.40632 3.40647 -0.549821 -0.0279322 0.29114 0 0 0 0 0 0 0 0 0 
26.982 1 374 11.8596 19.5413 4.68973 0.790418 -5.03445 0.136036 0.211185 -0.353459 0.267882 0 0 0 0 0 0 0 0 0 
26.982 1 140 14.415 15.3991 2.59744 -0.639965 6.13472 -1.52313 -0.182664 0.29616 0.365172 0 0 0 0 0 0 0 0 0 
26.982 1 377 14.1038 17.618 4.51227 5.15436 4.12505 4.92965 0.541597 0.531935 0.111429 0 0 0 0 0 0 0 0 0 
26.982 1 179 16.5754 16.5376 4.05601 -0.125999 0.796274 2.68701 -0.814045 -1.05224 0.160039 0 0 0 0 0 0 0 0 0 
26.982 1 1 42.8645 1.86202 1.29486 -2.38305 2.30963 1.8531 -0.0777663 0.564892 -0.486129 0 0 0 0 0 0 0 0 0 
26.982 1 178 16.031 18.6195 2.12111 -2.72823 4.74547 1.66914 -0.0468579 0.225594 -0.092499 0 0 0 0 0 0 0 0 0 
26.982 1 378 18.3677 18.1655 3.54242 -0.264117 7.16603 -0.618074 1.08588 0.93021 0.162937 0 0 0 0 0 0 0 0 0 
26.982 1 381 20.6087 15.9873 4.63097 0.452831 -3.94248 2.34787 -0.0933475 1.07341 0.150279 0 0 0 0 0 0 0 0 0 
26.982 1 184 20.8922 17.7172 2.49527 2.78927 -2.20351 1.91471 -0.00679639 0.270412 -0.372207 0 0 0 0 0 0 0 0 0 
26.982 1 183 23.4896 16.6971 3.41722 -0.123992 2.31659 -3.80859 -0.744287 -0.566908 0.0278185 0 0 0 0 0 0 0 0 0 
26.982 1 382 22.9789 19.2258 3.99178 -3.41604 1.28697 3.7995 -0.229483 0.360028 0.664888 0 0 0 0 0 0 0 0 0 
26.982 1 385 25.6201 16.1968 4.93378 0.560744 -1.11604 4.99265 -0.154213 -0.298954 0.590559 0 0 0 0 0 0 0 0 0 
26.982 1 188 25.6958 18.2106 3.09567 -2.68967 0.843388 0.287114 0.0533484 0.205354 -0.226199 0 0 0 0 0 0 0 0 0 
26.982 1 2225 25.6413 19.8618 5.17786 2.96339 -2.97677 -0.725685 -0.177343 0.572854 -0.250607 0 0 0 0 0 0 0 0 0 
26.982 1 53 11.9414 5.17299 1.43938 -1.05078 0.506876 0.199555 0.0856051 -0.0460959 -0.740752 0 0 0 0 0 0 0 0 0 
26.982 1 229 29.5477 1.26986 4.42207 2.31088 -3.08878 -0.530041 0.280755 0.11319 -0.0563229 0 0 0 0 0 0 0 0 0 
26.982 1 2229 29.9257 19.9721 4.84838 -1.0133 -2.23951 1.15886 -0.10437 -0.144176 0.903298 0 0 0 0 0 0 0 0 0 
26.982 1 187 27.7284 16.1868 2.89676 7.3884 -4.93241 -2.79893 -0.280099 0.293797 0.429391 0 0 0 0 0 0 0 0 0 
26.982 1 386 27.6506 17.9041 5.10661 6.27203 -2.87019 -1.21358 0.563095 0.313568 -0.0531173 0 0 0 0 0 0 0 0 0 
26.982 1 192 30.0223 17.9873 3.04636 -6.3841 -7.41458 -2.07952 -0.269055 -0.0145862 0.0802001 0 0 0 0 0 0 0 0 0 
26.982 1 389 29.7924 16.0318 5.13426 -5.4422 -3.22007 -1.75616 -0.181205 0.360985 -0.536349 0 0 0 0 0 0 0 0 0 
26.982 1 2027 27.8438 19.9383 3.13601 0.885788 -0.832062 3.73173 -0.611181 0.0300616 -0.187329 0 0 0 0 0 0 0 0 0 
26.982 1 154 36.3287 14.2436 1.43845 -0.506862 1.42443 2.06621 -0.0230399 -0.201366 0.0956038 0 0 0 0 0 0 0 0 0 
26.982 1 2423 23.448 19.7424 10.881 8.29386 -4.85474 0.924181 -0.405276 0.310717 0.107334 0 0 0 0 0 0 0 0 0 
26.982 1 1197 39.319 16.0319 19.9548 -2.62924 -1.9322 0.719253 -0.0516468 -0.457002 0.0103793 0 0 0 0 0 0 0 0 0 
26.982 1 191 31.931 16.0121 3.03997 -0.99249 6.93666 0.254774 0.199322 0.710329 -0.362632 0 0 0 0 0 0 0 0 0 
26.982 1 390 32.02 17.9985 4.9956 -1.44532 -0.174709 2.47539 -0.0839036 0.0923062 -0.451505 0 0 0 0 0 0 0 0 0 
26.982 1 393 34.0288 15.96 4.94266 2.73231 0.0249029 3.78631 -0.130175 0.124104 -0.0998226 0 0 0 0 0 0 0 0 0 
26.982 1 196 34.3307 18.2575 3.28222 1.23102 -2.72574 -1.61592 -0.223214 -0.422213 -0.50761 0 0 0 0 0 0 0 0 0 
26.982 1 30 32.2567 2.30013 1.4784 3.42886 3.04859 -2.17801 0.0881932 0.579805 0.473485 0 0 0 0 0 0 0 0 0 
26.982 1 2031 32.1309 20.1599 3.00683 0.7446 -1.75176 -3.33861 0.203765 -0.437534 0.299163 0 0 0 0 0 0 0 0 0 
26.982 1 195 36.472 16.213 3.44606 4.24412 -3.63442 -4.85569 -0.248252 -0.0522402 -0.240323 0 0 0 0 0 0 0 0 0 
26.982 1 394 36.414 18.3736 5.16189 -1.28969 -3.26411 -0.67949 0.599051 -0.294758 0.727573 0 0 0 0 0 0 0 0 0 
26.982 1 397 38.5806 16.4662 5.16077 0.310951 0.299959 -5.33804 0.485236 0.0911476 0.0359032 0 0 0 0 0 0 0 0 0 
26.982 1 200 38.8612 18.3238 2.87635 0.336586 4.61555 7.05307 -0.337327 -0.113377 -0.0151703 0 0 0 0 0 0 0 0 0 
26.982 1 197 38.5403 15.9152 1.56372 7.145 -5.95977 0.842069 -0.0434816 0.56968 0.353785 0 0 0 0 0 0 0 0 0 
26.982 1 2801 43.0035 20.1486 15.3742 -0.322247 2.76375 2.70736 -0.111396 1.05023 0.794997 0 0 0 0 0 0 0 0 0 
26.982 1 813 11.9016 1.01584 16.648 -0.818273 -8.17686 0.466261 -0.575784 -0.694014 0.115476 0 0 0 0 0 0 0 0 0 
26.982 1 164 43.6988 18.602 2.9612 -1.08827 1.96688 1.06933 -0.393151 -0.674278 0.0460705 0 0 0 0 0 0 0 0 0 
26.982 1 398 41.2108 17.4515 4.31176 -4.02238 -5.92671 -2.84331 -0.000217825 0.114979 -0.473158 0 0 0 0 0 0 0 0 0 
26.982 1 2217 15.7009 20.1408 4.54871 0.745512 1.4217 0.857353 0.0679736 -0.29235 -0.0926284 0 0 0 0 0 0 0 0 0 
26.982 1 153 34.3906 11.6991 1.78954 1.78383 0.12835 -4.77243 0.02513 -0.173814 0.163874 0 0 0 0 0 0 0 0 0 
26.982 1 203 -1.28188 1.41758 6.46596 -3.42624 -4.5389 -2.45793 0.830492 -0.460719 0.213339 0 0 0 0 0 0 0 0 0 
26.982 1 243 0.712177 3.23048 6.73687 6.84174 4.36089 2.33807 -0.692809 0.688935 0.0968227 0 0 0 0 0 0 0 0 0 
26.982 1 402 1.08456 1.337 8.50634 1.79508 0.577228 -2.11751 -0.582192 -0.17944 0.370966 0 0 0 0 0 0 0 0 0 
26.982 1 443 0.733939 3.44024 10.3571 4.07167 -1.30354 0.637869 -0.357915 0.179998 0.735686 0 0 0 0 0 0 0 0 0 
26.982 1 401 -3.2138 1.24384 8.84195 7.15989 -7.98403 0.727619 0.0938213 -0.258684 -0.000972678 0 0 0 0 0 0 0 0 0 
26.982 1 441 -1.70985 3.44713 9.1069 -3.41643 0.963165 2.80662 0.0891264 0.432946 -0.0642252 0 0 0 0 0 0 0 0 0 
26.982 1 208 3.01448 1.83968 6.44268 -8.01625 0.629235 -3.09612 0.106769 -0.199691 -0.0839802 0 0 0 0 0 0 0 0 0 
26.982 1 445 2.67211 3.7015 8.60529 3.12712 -4.50419 2.09975 0.498614 0.227766 -0.178271 0 0 0 0 0 0 0 0 0 
26.982 1 247 4.48041 4.44277 6.32942 -0.745667 9.83946 2.99703 -0.376454 -1.05468 0.408403 0 0 0 0 0 0 0 0 0 
26.982 1 406 4.80054 1.91779 8.70727 -3.86509 -1.05172 -0.462984 0.686562 0.190879 -0.294182 0 0 0 0 0 0 0 0 0 
26.982 1 408 2.87562 1.60085 10.7216 -0.113927 1.08639 2.32197 0.448738 -0.0331556 0.000297859 0 0 0 0 0 0 0 0 0 
26.982 1 447 4.63483 4.07352 10.6016 -3.44486 3.1019 -3.68596 0.38594 -0.306735 -0.30496 0 0 0 0 0 0 0 0 0 