ITEM: TIMESTEP
11750
ITEM: NUMBER OF ATOMS
4000
ITEM: BOX BOUNDS pp pp pp
-2.46229 42.9623
0.669921 39.8301
0.661521 39.8385
ITEM: ATOMS mass type id x y z vx vy vz fx fy fz xrad yrad zrad vxrad vyrad vzrad fxrad fyrad fzrad 
26.982 1 43 -0.0795558 4.47029 2.64602 1.39644 2.48299 0.145708 -0.37433 0.575088 0.0493698 0 0 0 0 0 0 0 0 0 
26.982 1 202 -0.210727 2.59147 4.53328 0.0186135 -0.203619 3.07927 -0.305219 -0.0671031 0.193376 0 0 0 0 0 0 0 0 0 
26.982 1 245 2.09299 4.72824 4.74 -0.255118 -0.307011 -2.79139 0.157883 -0.143254 -0.64301 0 0 0 0 0 0 0 0 0 
26.982 1 2 -0.436986 2.76946 0.590676 1.59133 -4.32477 -0.0652047 0.290405 -0.563739 0.129379 0 0 0 0 0 0 0 0 0 
26.982 1 3 -0.169786 0.755862 2.43105 -1.90271 -4.2088 -1.84674 -0.069373 0.180295 -0.153471 0 0 0 0 0 0 0 0 0 
26.982 1 201 -2.54442 0.678315 4.64672 0.125283 3.50236 3.77598 0.209597 -0.153312 -0.290839 0 0 0 0 0 0 0 0 0 
26.982 1 1 -2.53837 0.67468 0.495209 2.10685 3.28959 4.00662 0.291729 0.0666287 0.453548 0 0 0 0 0 0 0 0 0 
26.982 1 5 2.03711 0.853968 0.49408 1.3585 3.76817 -4.53923 0.0351187 -0.0223316 0.320409 0 0 0 0 0 0 0 0 0 
26.982 1 8 2.00394 2.70368 2.65966 3.05813 2.98272 7.23974 0.345073 -0.0268284 -0.335721 0 0 0 0 0 0 0 0 0 
26.982 1 7 4.40922 0.74888 2.33762 0.973973 -1.42959 2.69963 -0.209797 0.128221 0.633455 0 0 0 0 0 0 0 0 0 
26.982 1 47 4.23523 4.66578 2.52217 -0.836388 4.18745 -2.93885 0.0393015 -0.276512 0.0501218 0 0 0 0 0 0 0 0 0 
26.982 1 206 4.31269 2.69938 4.4794 0.509253 -5.72912 1.06854 0.0333011 -0.258318 -0.114701 0 0 0 0 0 0 0 0 0 
26.982 1 249 6.69223 4.70003 4.39108 2.31387 -7.13003 -4.13683 -0.425923 -0.142696 0.959616 0 0 0 0 0 0 0 0 0 
26.982 1 49 6.67345 4.42001 0.511095 -1.54378 -1.0287 -0.838027 -0.320266 0.255428 -0.0899445 0 0 0 0 0 0 0 0 0 
26.982 1 12 6.50363 2.75108 2.6202 4.06687 0.824126 3.43747 0.129158 -0.300554 -0.385239 0 0 0 0 0 0 0 0 0 
26.982 1 51 8.90826 4.72318 2.68042 -5.38101 2.61608 2.75145 0.420191 -0.556358 -0.758971 0 0 0 0 0 0 0 0 0 
26.982 1 210 8.68411 2.72292 4.59029 -2.92815 -0.498692 -1.57327 0.208707 -0.234357 -0.776028 0 0 0 0 0 0 0 0 0 
26.982 1 253 11.3339 4.67175 4.54192 -3.06067 -2.62315 -4.88193 -0.175326 0.132935 -0.253985 0 0 0 0 0 0 0 0 0 
26.982 1 10 8.88788 2.72043 0.424992 0.484343 -0.459927 -3.90853 0.0011147 -0.0759107 0.569411 0 0 0 0 0 0 0 0 0 
26.982 1 16 11.05 2.68764 2.40884 0.218902 -1.45911 -0.634408 -0.0602781 -0.0420873 0.595556 0 0 0 0 0 0 0 0 0 
26.982 1 53 11.1386 4.70815 0.607699 2.67736 -3.44976 5.27924 -0.104012 -0.152331 0.315209 0 0 0 0 0 0 0 0 0 
26.982 1 55 13.4046 4.77066 2.47483 3.77656 -5.60645 -0.388936 0.00709287 -0.158708 0.357405 0 0 0 0 0 0 0 0 0 
26.982 1 214 13.3513 2.6435 4.41265 3.00786 -1.84692 -1.1694 0.0997006 -0.0959546 -0.33535 0 0 0 0 0 0 0 0 0 
26.982 1 14 13.2541 2.68753 0.693689 1.90638 -4.7053 -2.31882 0.402636 -0.0941517 -0.279482 0 0 0 0 0 0 0 0 0 
26.982 1 57 15.5381 4.50543 0.663949 2.06455 1.36872 -4.44408 0.274392 0.128319 -0.402152 0 0 0 0 0 0 0 0 0 
26.982 1 20 15.7759 2.57245 2.6191 -0.689225 -0.613023 1.58738 -0.297446 -0.20697 0.0217977 0 0 0 0 0 0 0 0 0 
26.982 1 257 15.6413 4.60367 4.47525 3.02252 -2.13702 -1.21356 0.275226 0.126571 -0.0923248 0 0 0 0 0 0 0 0 0 
26.982 1 218 17.9537 2.63964 4.57104 -2.18645 -1.29584 1.68729 0.11235 -0.107768 -0.0830155 0 0 0 0 0 0 0 0 0 
26.982 1 59 18.023 4.59324 2.63162 2.39156 -6.58432 -0.52128 -0.373354 0.011382 0.00828736 0 0 0 0 0 0 0 0 0 
26.982 1 24 20.1938 2.66732 2.62185 -0.588219 -1.82607 -1.64356 0.111025 -0.439696 0.31562 0 0 0 0 0 0 0 0 0 
26.982 1 261 20.3576 4.53805 4.63179 -1.93936 1.14748 6.10633 -0.0930314 0.16927 -0.188629 0 0 0 0 0 0 0 0 0 
26.982 1 63 22.4999 4.43147 2.45109 0.620549 -3.2594 -0.853567 -0.0427125 0.292021 0.432444 0 0 0 0 0 0 0 0 0 
26.982 1 222 22.6189 2.67112 4.59617 0.587947 3.20432 1.01538 -0.258315 -0.0185249 0.273145 0 0 0 0 0 0 0 0 0 
26.982 1 28 24.6716 2.52223 2.53657 -2.81729 0.754209 4.42095 0.369914 0.302503 0.48677 0 0 0 0 0 0 0 0 0 
26.982 1 265 24.8348 4.50435 4.46269 -0.190988 2.79171 0.771045 -0.402498 0.175526 0.331438 0 0 0 0 0 0 0 0 0 
26.982 1 67 26.9528 4.55801 2.56222 -0.799931 0.702764 -1.03886 0.330554 0.0274322 -0.0473098 0 0 0 0 0 0 0 0 0 
26.982 1 226 26.9088 2.7102 4.65151 -1.97261 -4.53168 0.527554 0.460803 0.0460955 0.0350554 0 0 0 0 0 0 0 0 0 
26.982 1 32 29.2918 2.78881 2.65186 0.568689 -2.73665 1.09466 0.124156 -0.149183 0.466647 0 0 0 0 0 0 0 0 0 
26.982 1 26 27.2483 2.61942 0.632671 -1.90333 -1.29776 8.66701 -0.103194 -0.303037 0.293999 0 0 0 0 0 0 0 0 0 
26.982 1 269 29.347 4.56543 4.8157 -2.30212 0.608048 3.24213 -0.0697862 -0.657387 -0.877137 0 0 0 0 0 0 0 0 0 
26.982 1 71 31.5157 4.46688 2.54822 -3.68258 -3.14602 1.10772 0.160589 -0.186593 0.875243 0 0 0 0 0 0 0 0 0 
26.982 1 230 31.704 2.61808 4.72453 0.416006 2.9779 2.00565 -0.235082 0.0327515 -0.279675 0 0 0 0 0 0 0 0 0 
26.982 1 30 31.6817 2.7156 0.537868 -3.60281 -6.67529 1.38891 0.170899 -0.406769 -0.00270925 0 0 0 0 0 0 0 0 0 
26.982 1 273 33.8096 4.51123 4.58265 -2.65745 0.57253 2.59082 0.193524 -0.251334 0.395875 0 0 0 0 0 0 0 0 0 
26.982 1 36 33.9019 2.50557 2.65921 -0.174413 -0.92575 3.19978 -0.134698 -0.276909 0.13519 0 0 0 0 0 0 0 0 0 
26.982 1 75 36.2201 4.28359 2.81206 0.90182 0.913604 -5.15176 -0.417826 0.665121 -0.0382821 0 0 0 0 0 0 0 0 0 
26.982 1 234 36.1613 2.23044 4.59431 3.78151 -2.83953 2.93821 0.170363 0.558176 -0.394257 0 0 0 0 0 0 0 0 0 
26.982 1 34 36.1251 2.51966 0.751545 -8.21562 7.65811 0.797216 -0.0494755 -0.13609 -0.194364 0 0 0 0 0 0 0 0 0 
26.982 1 40 38.4859 2.40583 2.47111 -6.69227 -4.68884 0.954896 -0.128861 0.0104667 0.697209 0 0 0 0 0 0 0 0 0 
26.982 1 237 38.5656 0.486086 4.76202 -4.92128 -5.18943 -4.05718 0.216097 0.593898 -0.167624 0 0 0 0 0 0 0 0 0 
26.982 1 4 42.8808 2.50281 2.60176 -0.388325 1.18238 -0.0678168 0.223371 0.221409 -0.0706563 0 0 0 0 0 0 0 0 0 
26.982 1 241 42.8439 4.56887 4.58514 3.24464 0.491288 2.5565 0.70766 -0.243507 -0.201893 0 0 0 0 0 0 0 0 0 
26.982 1 77 38.2468 4.50931 0.81902 7.51824 2.05087 1.01141 0.0593326 0.48077 0.0388959 0 0 0 0 0 0 0 0 0 
26.982 1 277 38.338 4.32225 4.60991 -0.414825 5.06406 -0.678965 0.27001 -0.0899141 0.176041 0 0 0 0 0 0 0 0 0 
26.982 1 79 40.7621 4.41531 2.42657 6.87112 2.64847 3.90751 -0.263939 0.362929 0.574542 0 0 0 0 0 0 0 0 0 
26.982 1 238 40.7841 2.66348 4.65236 -5.19744 -2.46724 -1.62476 -0.509761 -0.2473 -0.256203 0 0 0 0 0 0 0 0 0 
26.982 1 39 40.6915 0.693181 2.75262 2.87661 1.20764 4.59366 0.216596 -0.371431 -0.262759 0 0 0 0 0 0 0 0 0 
26.982 1 83 -0.230833 8.50374 2.86773 2.96349 0.418946 0.964887 0.112787 -0.345259 -0.188736 0 0 0 0 0 0 0 0 0 
26.982 1 242 -0.0430975 6.43477 4.70031 -1.16277 2.42214 0.427853 -0.465561 0.288938 -0.517835 0 0 0 0 0 0 0 0 0 
26.982 1 84 -2.49396 10.3846 2.55104 -3.13443 -0.897554 0.909654 -0.285304 0.300824 0.289743 0 0 0 0 0 0 0 0 0 
26.982 1 281 -2.56407 8.51426 4.74055 3.72924 -0.848256 2.65336 0.155149 -0.298534 -0.547222 0 0 0 0 0 0 0 0 0 
26.982 1 88 2.03856 10.4156 2.67636 3.94843 -3.73065 -7.71179 -0.0725811 0.115996 0.173529 0 0 0 0 0 0 0 0 0 
26.982 1 48 1.99904 6.49366 2.48392 -1.98569 0.794556 -1.33733 0.0824338 -0.117569 0.477523 0 0 0 0 0 0 0 0 0 
26.982 1 282 -0.505968 10.5078 4.59706 -0.0494366 1.30793 -1.4156 0.653099 -0.0418796 0.0557675 0 0 0 0 0 0 0 0 0 
26.982 1 85 2.01799 8.52852 0.808861 -7.9793 2.03602 0.22939 0.157801 -0.184447 -0.407209 0 0 0 0 0 0 0 0 0 
26.982 1 285 2.24394 8.4734 4.57026 1.15696 -1.36992 -7.04197 -0.745091 -0.250445 -0.00310377 0 0 0 0 0 0 0 0 0 
26.982 1 87 4.35128 8.44963 2.65908 -5.06036 1.32286 0.397824 -0.0007417 -0.608813 -0.761457 0 0 0 0 0 0 0 0 0 
26.982 1 246 4.33083 6.50301 4.57874 1.69802 0.176156 -4.99757 -0.128547 0.145497 -0.199257 0 0 0 0 0 0 0 0 0 
26.982 1 289 6.44612 8.33482 4.52842 -3.57854 -1.15886 -5.24152 0.374698 0.122334 -0.0119267 0 0 0 0 0 0 0 0 0 
26.982 1 52 6.64928 6.3395 2.39471 3.1418 1.15464 1.1554 -0.188299 0.850821 -0.0450927 0 0 0 0 0 0 0 0 0 
26.982 1 92 6.65135 10.5007 2.82302 -1.45699 1.25183 3.88311 -0.0611014 -0.328767 -0.501487 0 0 0 0 0 0 0 0 0 
26.982 1 46 4.41415 6.51203 0.57886 2.63129 4.69695 -0.108436 -0.161922 0.0203728 -0.0707435 0 0 0 0 0 0 0 0 0 
26.982 1 91 8.73518 8.59035 2.80291 1.93869 5.61348 -0.256541 0.300602 -0.126325 -0.20268 0 0 0 0 0 0 0 0 0 
26.982 1 250 8.92502 6.37959 4.68291 -2.01525 2.62941 -4.47418 0.104811 0.895565 0.0195456 0 0 0 0 0 0 0 0 0 
26.982 1 290 9.09945 10.4123 4.75577 3.54154 -2.05656 2.07488 -0.184436 0.275672 -0.0905656 0 0 0 0 0 0 0 0 0 
26.982 1 293 11.1989 8.43289 4.58004 -2.23668 4.24598 1.37692 0.0907577 0.226274 0.105568 0 0 0 0 0 0 0 0 0 
26.982 1 89 6.70378 8.63619 0.741101 -5.74451 1.91599 2.73736 -0.230475 -0.198253 0.0662588 0 0 0 0 0 0 0 0 0 
26.982 1 93 11.1362 8.61543 0.509678 2.87446 3.21788 -3.13153 -0.129831 0.293213 0.10936 0 0 0 0 0 0 0 0 0 
26.982 1 56 11.3936 6.71693 2.49622 -3.84541 1.68254 6.17762 -0.322625 -0.0496398 0.352023 0 0 0 0 0 0 0 0 0 
26.982 1 95 13.5889 8.73127 2.48342 -2.36599 0.828412 0.818746 -0.0866734 -0.161278 0.499196 0 0 0 0 0 0 0 0 0 
26.982 1 254 13.5956 6.63731 4.7782 -3.14906 -0.941433 -0.473873 -0.405773 0.195965 -1.11711 0 0 0 0 0 0 0 0 0 
26.982 1 54 13.4481 6.81411 0.579645 2.47835 4.43854 -0.0357831 0.168607 -0.597457 0.191712 0 0 0 0 0 0 0 0 0 
26.982 1 100 15.9413 10.606 2.64974 3.49953 0.0450862 1.88359 -0.0383344 -0.027856 0.783631 0 0 0 0 0 0 0 0 0 
26.982 1 60 15.6984 6.45535 2.49645 1.98935 -1.66866 -0.197065 0.0653666 0.490331 -0.0264868 0 0 0 0 0 0 0 0 0 
26.982 1 297 15.77 8.40128 4.46882 -0.824157 2.0481 -3.22823 0.162857 0.350397 -0.122479 0 0 0 0 0 0 0 0 0 
26.982 1 99 18.1932 8.41791 2.72167 0.17993 0.566872 1.07409 -0.148157 0.392642 -0.00816178 0 0 0 0 0 0 0 0 0 
26.982 1 258 17.9762 6.55344 4.50251 1.5305 -2.24901 2.24654 0.0455807 -0.0577457 0.24686 0 0 0 0 0 0 0 0 0 
26.982 1 64 20.3213 6.48654 2.74234 3.39563 4.69005 0.395004 0.195746 0.000611313 -0.220135 0 0 0 0 0 0 0 0 0 
26.982 1 301 20.4072 8.48275 4.69566 -0.095562 -1.52528 -4.27407 0.0515917 -0.17297 0.0662603 0 0 0 0 0 0 0 0 0 
26.982 1 298 18.2265 10.5967 4.65377 -1.00793 3.56464 -2.10849 -0.0172968 -0.131855 -0.449462 0 0 0 0 0 0 0 0 0 
26.982 1 58 17.9298 6.59013 0.623352 -0.146937 -6.41363 1.61664 0.202591 -0.117904 -0.0174547 0 0 0 0 0 0 0 0 0 
26.982 1 104 20.4664 10.3472 2.76817 -2.41 4.75958 2.15403 0.0266927 0.345974 -0.0258036 0 0 0 0 0 0 0 0 0 
26.982 1 103 22.7212 8.3978 2.71219 -1.68335 -6.28725 -0.43498 -0.333064 0.363471 -0.328941 0 0 0 0 0 0 0 0 0 
26.982 1 262 22.7599 6.57622 4.70712 -6.42916 -3.8368 -1.04962 -0.610508 -0.0319903 -0.602966 0 0 0 0 0 0 0 0 0 
26.982 1 302 22.7426 10.4482 4.65366 3.55023 0.134373 5.0285 -0.118854 -0.0459779 -0.130008 0 0 0 0 0 0 0 0 0 
26.982 1 101 20.494 8.48527 0.837479 1.94705 -0.555083 0.874244 0.0716252 -0.347932 -0.416908 0 0 0 0 0 0 0 0 0 
26.982 1 305 24.816 8.57091 4.60675 -2.82935 4.16825 -0.52047 0.367072 -0.112936 0.0258742 0 0 0 0 0 0 0 0 0 
26.982 1 68 24.754 6.47268 2.63969 0.323135 -3.27319 -1.18343 0.148105 0.103483 -0.180727 0 0 0 0 0 0 0 0 0 
26.982 1 105 24.8532 8.37199 0.658649 1.11347 -1.6085 3.21571 0.0881559 0.268302 -0.227411 0 0 0 0 0 0 0 0 0 
26.982 1 102 22.8004 10.5284 0.598823 0.474892 -0.64632 0.869005 -0.154033 -0.158184 0.0189162 0 0 0 0 0 0 0 0 0 
26.982 1 107 27.0065 8.54116 2.52947 1.08151 -1.53642 -3.35816 0.205251 -0.182876 -0.056394 0 0 0 0 0 0 0 0 0 
26.982 1 266 27.056 6.49383 4.50302 -3.34155 4.00479 0.573971 0.0636417 0.53065 -0.068808 0 0 0 0 0 0 0 0 0 
26.982 1 306 27.1612 10.4378 4.53699 2.77726 1.12759 0.493349 -0.0218743 0.334243 -0.190909 0 0 0 0 0 0 0 0 0 
26.982 1 112 29.5058 10.4284 2.443 -0.6718 -0.0710592 -2.69267 -0.396727 0.403207 0.0638557 0 0 0 0 0 0 0 0 0 
26.982 1 72 29.3021 6.47249 2.5923 0.410449 2.50625 -0.932739 -0.0940211 -0.22644 -0.0765682 0 0 0 0 0 0 0 0 0 
26.982 1 309 29.2753 8.55641 4.39082 4.89348 5.299 1.76061 -0.0623606 -0.282334 0.47363 0 0 0 0 0 0 0 0 0 
26.982 1 111 31.5323 8.50398 2.42355 4.60152 -0.791705 3.29194 0.25056 -0.385351 0.42995 0 0 0 0 0 0 0 0 0 
26.982 1 270 31.5769 6.55361 4.44803 -1.23526 0.677993 -3.62599 -0.129525 -0.0230047 -0.0533769 0 0 0 0 0 0 0 0 0 
26.982 1 310 31.51 10.2202 4.64453 3.548 -0.368729 -2.83567 0.341632 0.423418 -0.0735733 0 0 0 0 0 0 0 0 0 
26.982 1 76 33.7924 6.38485 2.77587 0.662326 0.099177 6.50445 0.489281 0.493165 -0.378227 0 0 0 0 0 0 0 0 0 
26.982 1 313 33.8538 8.44717 4.66068 -1.39478 4.69641 1.23818 0.21736 -0.0794594 -0.401712 0 0 0 0 0 0 0 0 0 
26.982 1 115 36.2419 8.5521 2.73876 -1.78124 4.77191 -0.537511 -0.323909 -0.176051 -0.0393763 0 0 0 0 0 0 0 0 0 
26.982 1 274 36.1392 6.46407 4.80581 -0.497514 -1.96811 0.750398 0.0189706 -0.0091738 -0.936236 0 0 0 0 0 0 0 0 0 
26.982 1 113 33.8655 8.43672 0.755713 1.78231 -2.53313 -2.69932 0.402449 0.297961 0.020497 0 0 0 0 0 0 0 0 0 
26.982 1 80 38.2722 6.37729 2.86472 2.4288 -0.515687 -4.36198 0.152411 0.302372 -0.402072 0 0 0 0 0 0 0 0 0 
26.982 1 44 42.8987 6.57199 2.78616 3.39663 -2.30492 6.38709 0.216679 -0.0366465 -0.036001 0 0 0 0 0 0 0 0 0 
26.982 1 317 38.3833 8.53398 4.61126 6.41903 -2.80883 -1.0889 -0.0314214 -0.30046 0.0608769 0 0 0 0 0 0 0 0 0 
26.982 1 119 40.7232 8.35975 2.84324 1.30741 1.82446 -2.24865 -0.145105 0.0493684 -0.550334 0 0 0 0 0 0 0 0 0 
26.982 1 278 40.6067 6.29081 4.60243 1.78953 -3.17052 -2.21399 -0.0973434 0.305967 -0.592376 0 0 0 0 0 0 0 0 0 
26.982 1 120 38.4623 10.5565 2.67988 -0.755685 -0.404885 0.107102 -0.15506 0.172288 0.128792 0 0 0 0 0 0 0 0 0 
26.982 1 123 -0.307414 12.3629 2.721 3.31298 -4.2009 -6.8337 0.203365 0.0616758 -0.143424 0 0 0 0 0 0 0 0 0 
26.982 1 322 -0.311306 14.3651 4.53741 -2.50789 -2.58237 -2.37558 0.11759 0.248466 0.0973594 0 0 0 0 0 0 0 0 0 
26.982 1 325 2.10033 12.3919 4.50552 -0.542177 0.898762 4.63885 -0.29686 -0.0589232 0.374938 0 0 0 0 0 0 0 0 0 
26.982 1 128 2.05848 14.5203 2.86596 -1.02804 0.436973 6.40677 -0.0159607 -0.172696 -0.378249 0 0 0 0 0 0 0 0 0 
26.982 1 321 -2.72705 12.5455 4.41864 -0.65773 -3.17242 1.38738 0.426723 -0.643351 0.425532 0 0 0 0 0 0 0 0 0 
26.982 1 124 -2.61722 14.5039 2.58333 5.38213 0.887271 1.79644 0.137316 0.194245 0.0581511 0 0 0 0 0 0 0 0 0 
26.982 1 82 -0.0611334 10.357 0.849706 -0.413315 0.603904 2.33712 -0.447726 0.0601112 -0.228824 0 0 0 0 0 0 0 0 0 
26.982 1 125 2.05245 12.508 0.908301 -4.03886 -2.39429 3.43233 -0.0500864 0.140974 -0.279473 0 0 0 0 0 0 0 0 0 
26.982 1 286 4.3057 10.3383 4.38688 0.138173 -5.23012 0.420549 0.0770715 0.627296 0.855456 0 0 0 0 0 0 0 0 0 
26.982 1 127 4.2854 12.5045 2.76764 0.945425 1.95996 0.215623 0.246568 0.317956 -0.0106307 0 0 0 0 0 0 0 0 0 
26.982 1 326 4.31477 14.6737 4.67136 -2.2191 -2.26948 -2.31829 -0.0316473 -0.416099 -0.309551 0 0 0 0 0 0 0 0 0 
26.982 1 329 6.71708 12.4663 4.46278 -4.49195 7.41005 3.56249 -0.142021 0.265304 0.53314 0 0 0 0 0 0 0 0 0 
26.982 1 126 4.33237 14.4286 0.775827 0.32616 5.3163 0.261084 -0.162823 -0.603205 0.259881 0 0 0 0 0 0 0 0 0 
26.982 1 96 11.1561 10.3983 2.62297 -3.13875 0.123142 -4.07053 0.137867 -0.261609 0.047765 0 0 0 0 0 0 0 0 0 
26.982 1 132 6.62736 14.5946 2.76436 -3.72152 1.7416 -4.93048 -0.0991076 -0.310874 -0.449678 0 0 0 0 0 0 0 0 0 
26.982 1 131 9.01591 12.2577 2.66868 -3.73465 -2.07922 1.51161 -0.0826701 0.27649 0.190261 0 0 0 0 0 0 0 0 0 
26.982 1 330 8.86453 14.2947 4.59204 -0.232038 -0.746304 0.0977429 0.262726 0.114946 -0.403476 0 0 0 0 0 0 0 0 0 
26.982 1 333 11.4442 12.2983 4.61346 0.255115 3.70403 -7.16009 -0.62399 0.180235 0.0195363 0 0 0 0 0 0 0 0 0 
26.982 1 133 11.2996 12.4006 0.789926 -2.48581 1.52278 -2.24738 0.0236917 0.241533 -0.262002 0 0 0 0 0 0 0 0 0 
26.982 1 136 11.2664 14.3796 2.68339 -2.399 -2.93865 3.38934 -0.153521 -0.230005 -0.314734 0 0 0 0 0 0 0 0 0 
26.982 1 130 9.01737 14.3021 0.786108 0.62509 -0.333256 1.16446 -0.158687 0.00550384 -0.0838619 0 0 0 0 0 0 0 0 0 
26.982 1 294 13.7639 10.5313 4.64306 0.917044 0.4468 0.522939 -0.26153 -0.20511 -0.0519167 0 0 0 0 0 0 0 0 0 
26.982 1 94 13.6535 10.4856 0.40235 -0.196272 1.77579 -0.231196 -0.294241 0.484397 0.948302 0 0 0 0 0 0 0 0 0 
26.982 1 135 13.4108 12.3372 2.63837 4.62521 -2.60733 6.93523 0.467271 -0.138284 -0.180268 0 0 0 0 0 0 0 0 0 
26.982 1 334 13.4824 14.419 4.5644 1.08829 0.721428 -0.909491 0.196408 0.275166 -0.0727566 0 0 0 0 0 0 0 0 0 
26.982 1 134 13.6057 14.2896 0.675832 1.46226 1.59666 -0.15018 0.00691752 -0.100286 -0.097686 0 0 0 0 0 0 0 0 0 
26.982 1 140 15.7966 14.3633 2.75113 -4.17318 -0.432769 2.19617 -0.122655 -0.344292 -0.420457 0 0 0 0 0 0 0 0 0 
26.982 1 337 15.927 12.4569 4.70572 0.898056 -3.89896 -2.4687 -0.195982 -0.128808 -0.0615703 0 0 0 0 0 0 0 0 0 
26.982 1 139 18.1586 12.6368 2.45516 2.31947 -2.3944 0.367033 -0.0731492 -0.19355 0.211126 0 0 0 0 0 0 0 0 0 
26.982 1 338 18.2125 14.2394 4.71647 0.284763 -3.98086 -1.42401 -0.239006 0.518103 -0.379073 0 0 0 0 0 0 0 0 0 
26.982 1 341 20.4332 12.5593 4.47506 5.0599 -1.60404 0.0878744 -0.12794 -0.458569 0.544072 0 0 0 0 0 0 0 0 0 
26.982 1 144 20.495 14.5219 2.68425 -0.293658 0.351101 1.30043 -0.442847 0.00726035 -0.603868 0 0 0 0 0 0 0 0 0 
26.982 1 138 18.2003 14.5053 0.432361 0.0990708 0.344281 -2.92695 -0.194455 -0.381974 0.729851 0 0 0 0 0 0 0 0 0 
26.982 1 141 20.4337 12.2562 0.709811 5.88878 0.245756 -1.02534 -0.0314911 0.176126 -0.0410072 0 0 0 0 0 0 0 0 0 
26.982 1 142 22.6566 14.2015 0.546788 -4.55619 -2.38038 -2.68154 -0.106423 0.130196 0.0175248 0 0 0 0 0 0 0 0 0 
26.982 1 143 22.5069 12.4561 2.68398 0.732728 -4.50663 0.429753 0.410042 -0.111899 -0.0807921 0 0 0 0 0 0 0 0 0 
26.982 1 342 22.6502 14.5631 4.60903 -4.6347 3.33891 0.98499 -0.154576 -0.303887 0.141868 0 0 0 0 0 0 0 0 0 
26.982 1 148 24.8568 14.403 2.55647 0.194247 -1.97034 4.93134 -0.193114 -0.0289828 -0.0232662 0 0 0 0 0 0 0 0 0 
26.982 1 108 24.9141 10.4971 2.4531 0.382613 -0.364732 0.434128 -0.0591955 0.0202985 0.272337 0 0 0 0 0 0 0 0 0 
26.982 1 146 27.1623 14.4097 0.434699 3.09785 -2.25283 0.453939 0.120015 -0.030997 0.241225 0 0 0 0 0 0 0 0 0 
26.982 1 345 24.8529 12.5547 4.42885 -2.89184 0.116179 -5.46992 -0.0288724 -0.405571 0.206293 0 0 0 0 0 0 0 0 0 
26.982 1 147 27.0485 12.4419 2.29247 6.49077 0.241465 -4.92708 0.215109 -0.0371318 0.884879 0 0 0 0 0 0 0 0 0 
26.982 1 346 26.9185 14.5003 4.48695 4.88295 2.83214 4.27176 0.452795 -0.451284 0.203382 0 0 0 0 0 0 0 0 0 
26.982 1 152 29.2157 14.3899 2.73098 3.07007 2.46473 0.646907 -0.151616 -0.274569 -0.151416 0 0 0 0 0 0 0 0 0 
26.982 1 149 29.4505 12.5388 0.611605 3.97844 0.0594088 -5.62503 -0.324037 -0.197466 0.0743496 0 0 0 0 0 0 0 0 0 
26.982 1 349 29.3662 12.2764 4.70991 0.507299 4.85876 0.323885 -0.107507 0.415401 -0.495821 0 0 0 0 0 0 0 0 0 
26.982 1 151 31.5178 12.6125 2.57045 3.14238 -0.617709 -3.42874 0.158119 -0.556219 0.464518 0 0 0 0 0 0 0 0 0 
26.982 1 350 31.4924 14.4748 4.68323 -1.8009 -0.862219 0.912862 0.0369741 -0.248165 -0.401972 0 0 0 0 0 0 0 0 0 
26.982 1 153 33.9006 12.3128 0.539524 0.270494 -0.680259 -4.72878 -0.311933 0.387217 0.456325 0 0 0 0 0 0 0 0 0 
26.982 1 150 31.5508 14.3379 0.536948 -3.17038 -1.36647 1.63313 0.170837 0.204011 -0.124451 0 0 0 0 0 0 0 0 0 
26.982 1 116 33.6607 10.5196 2.64777 -0.0696964 0.785923 0.745884 0.320661 -0.123933 0.148729 0 0 0 0 0 0 0 0 0 
26.982 1 314 36.1333 10.4242 4.72056 3.29379 -2.08454 0.374566 -0.260655 -0.0035731 -0.401657 0 0 0 0 0 0 0 0 0 
26.982 1 156 33.8065 14.3797 2.73815 -0.850778 5.21153 -4.946 -0.0941846 0.0939801 -0.277618 0 0 0 0 0 0 0 0 0 
26.982 1 353 33.7585 12.327 4.72399 -5.11955 -3.43348 0.73748 -0.0317899 0.0684009 -0.101688 0 0 0 0 0 0 0 0 0 
26.982 1 155 35.9505 12.5288 2.77444 -6.8757 4.44567 5.48358 0.249582 -0.210523 0.0132431 0 0 0 0 0 0 0 0 0 
26.982 1 354 35.8915 14.3508 4.72895 -2.51237 -0.427903 -0.347463 0.269847 0.273208 0.0324625 0 0 0 0 0 0 0 0 0 
26.982 1 160 38.4045 14.2723 2.75708 3.89566 -3.86737 2.06914 -0.0965622 0.3147 -0.422213 0 0 0 0 0 0 0 0 0 
26.982 1 114 36.1559 10.6502 0.88383 -1.69173 4.27879 3.02226 -0.186992 -0.757673 -0.391325 0 0 0 0 0 0 0 0 0 
26.982 1 357 38.2872 12.522 4.74436 -3.74163 -2.35095 -5.69694 0.274515 -0.324049 0.0675419 0 0 0 0 0 0 0 0 0 
26.982 1 318 40.5815 10.2489 4.63131 -4.34425 -9.43645 -0.32196 0.131126 1.00888 0.275586 0 0 0 0 0 0 0 0 0 
26.982 1 159 40.6547 12.4606 2.59847 1.61122 0.588053 3.40076 -0.217644 -0.147413 -0.230772 0 0 0 0 0 0 0 0 0 
26.982 1 358 40.6997 14.4106 4.60969 -4.01994 -0.333144 0.635923 -0.525365 -0.00980248 0.143123 0 0 0 0 0 0 0 0 0 
26.982 1 158 40.6307 14.6177 0.569993 -2.90663 4.43794 -0.180866 -0.164885 -1.1437 0.177795 0 0 0 0 0 0 0 0 0 
26.982 1 163 -0.497625 16.5441 2.66102 4.00555 1.07071 -4.38015 0.385129 -0.427795 -0.227478 0 0 0 0 0 0 0 0 0 
26.982 1 362 -0.348267 18.4328 4.39753 0.249662 3.78696 2.63815 0.0382728 -0.37477 1.06906 0 0 0 0 0 0 0 0 0 
26.982 1 365 2.03725 16.4529 4.63804 2.2695 0.652453 -3.5399 -0.0606931 -0.0857772 0.364127 0 0 0 0 0 0 0 0 0 
26.982 1 361 -2.44099 16.3349 4.7221 -4.54849 -2.22568 0.00700144 -0.280899 0.514171 -0.368316 0 0 0 0 0 0 0 0 0 
26.982 1 168 2.05987 18.2647 2.68457 -1.60281 0.32694 -1.81111 -0.222966 0.0739199 -0.467663 0 0 0 0 0 0 0 0 0 
26.982 1 2201 -2.45574 20.4785 4.51167 -2.79456 5.8273 -2.26073 -0.164163 -0.418966 0.263388 0 0 0 0 0 0 0 0 0 
26.982 1 2001 -2.43858 20.1636 0.526838 6.3611 -0.118874 -1.26912 -0.366068 0.122373 0.0750366 0 0 0 0 0 0 0 0 0 
26.982 1 2003 -0.208206 20.2736 2.72386 -0.0849595 -0.497977 4.57463 0.244338 0.578653 -0.758343 0 0 0 0 0 0 0 0 0 
26.982 1 167 4.42134 16.6039 2.52897 2.25567 -1.58191 -5.57119 -0.181879 -0.286482 0.379941 0 0 0 0 0 0 0 0 0 
26.982 1 366 4.20842 18.5314 4.5694 1.32574 2.8855 0.7191 0.502477 -0.51405 -0.0977192 0 0 0 0 0 0 0 0 0 
26.982 1 369 6.46206 16.4 4.59506 0.0436814 -4.08944 1.40535 0.348978 0.783161 0.182703 0 0 0 0 0 0 0 0 0 
26.982 1 172 6.79727 18.2837 2.40764 -0.690803 1.22919 -3.72019 -0.327784 0.221408 0.16686 0 0 0 0 0 0 0 0 0 
26.982 1 2007 4.3964 20.2918 2.26353 0.3232 2.32397 -2.04921 0.241889 0.240488 0.642265 0 0 0 0 0 0 0 0 0 
26.982 1 2205 2.27208 20.4627 4.2146 7.99368 2.80527 1.52187 -0.183985 0.239355 0.747123 0 0 0 0 0 0 0 0 0 
26.982 1 2209 6.68488 20.1637 4.428 -5.37642 5.28766 -1.01978 -0.136367 -0.00326871 0.488039 0 0 0 0 0 0 0 0 0 
26.982 1 171 8.94925 16.2554 2.68152 0.208461 1.243 0.469616 0.0474725 0.332235 -0.169753 0 0 0 0 0 0 0 0 0 
26.982 1 370 8.84403 18.2805 4.53747 -4.78888 -2.09271 0.776 0.159778 -0.0163954 0.134546 0 0 0 0 0 0 0 0 0 
26.982 1 176 11.3815 18.3755 2.43718 -2.99008 4.38045 1.84755 -0.585068 -0.523652 0.478225 0 0 0 0 0 0 0 0 0 
26.982 1 373 11.2928 16.3529 4.4066 -1.92549 -2.4132 4.90214 -0.0909158 0.376677 0.195975 0 0 0 0 0 0 0 0 0 
26.982 1 2009 6.82931 20.6294 0.545978 -0.362382 0.222798 0.37936 -0.181308 -1.01681 0.566294 0 0 0 0 0 0 0 0 0 
26.982 1 173 11.0683 16.4244 0.599501 -0.738089 1.64991 -2.16899 0.1947 -0.632107 0.253939 0 0 0 0 0 0 0 0 0 
26.982 1 170 8.92545 18.3583 0.667447 3.31432 2.8008 -1.60817 -0.0112359 -0.00886301 0.309017 0 0 0 0 0 0 0 0 0 
26.982 1 2213 11.1672 20.2039 4.54746 -0.689776 -1.17998 2.62387 0.0464173 0.00812068 0.158717 0 0 0 0 0 0 0 0 0 
26.982 1 175 13.5998 16.2338 2.50668 0.809829 0.236642 4.57946 -0.268649 0.306782 0.0616725 0 0 0 0 0 0 0 0 0 
26.982 1 374 13.5631 18.1467 4.537 0.190429 -1.91311 0.647838 -0.148287 0.277369 0.146469 0 0 0 0 0 0 0 0 0 
26.982 1 377 15.8298 16.4248 4.6275 -2.69136 -5.07613 -2.83194 -0.188502 -0.222425 0.266474 0 0 0 0 0 0 0 0 0 
26.982 1 180 15.6326 18.3224 2.65761 -3.95364 -1.26445 0.832963 0.187519 -0.192988 0.197393 0 0 0 0 0 0 0 0 0 
26.982 1 174 13.3842 18.1792 0.460852 -2.21035 -0.311189 3.50694 0.148553 0.241848 0.551366 0 0 0 0 0 0 0 0 0 
26.982 1 2013 11.2626 20.2759 0.539435 1.7603 -1.14254 2.00299 0.0130904 0.442827 0.550839 0 0 0 0 0 0 0 0 0 
26.982 1 179 17.8113 16.2003 2.7117 2.07462 -1.72288 3.00368 0.561821 -0.0999295 -0.0563937 0 0 0 0 0 0 0 0 0 
26.982 1 378 18.1005 18.448 4.30801 0.38646 -0.720571 -3.81187 -0.494793 -0.047551 0.379628 0 0 0 0 0 0 0 0 0 
26.982 1 381 20.0941 16.4666 4.58025 1.87197 -1.90454 -4.96711 0.65776 -0.0711226 -0.0558775 0 0 0 0 0 0 0 0 0 
26.982 1 2019 17.7687 20.4307 2.4691 1.25745 -0.0588983 0.504626 0.464391 -0.278886 -0.0588648 0 0 0 0 0 0 0 0 0 
26.982 1 181 20.1434 16.5218 0.682646 0.647908 -3.25191 -2.63685 0.464453 -0.730093 -0.0939403 0 0 0 0 0 0 0 0 0 
26.982 1 177 15.8198 16.443 0.642078 4.11348 -0.0436027 -2.00019 -0.395335 -0.426712 -0.00380806 0 0 0 0 0 0 0 0 0 
26.982 1 184 20.2082 18.3332 2.58544 -7.67352 1.2986 -6.13697 0.274885 0.199105 0.177875 0 0 0 0 0 0 0 0 0 
26.982 1 183 22.5945 16.3127 2.57432 -0.520481 -1.85233 -2.88212 -0.0518579 -0.0822884 0.162879 0 0 0 0 0 0 0 0 0 
26.982 1 382 22.5316 18.4157 4.54596 6.32722 -3.3025 -3.20358 -0.0349912 -0.626879 -0.1268 0 0 0 0 0 0 0 0 0 
26.982 1 385 24.8117 16.3294 4.73405 3.55462 -2.17983 1.58007 -0.158431 0.117495 -0.32321 0 0 0 0 0 0 0 0 0 
26.982 1 188 24.7143 18.2981 2.68683 3.72121 -6.33832 3.01946 0.284951 -0.0870402 -0.00745473 0 0 0 0 0 0 0 0 0 
26.982 1 187 26.994 16.2948 2.47446 -1.101 5.04493 -2.57224 0.0384175 0.342854 0.293168 0 0 0 0 0 0 0 0 0 
26.982 1 386 27.0661 18.298 4.68569 -0.0652314 3.81921 -6.34143 0.0871053 -0.238702 -0.0717849 0 0 0 0 0 0 0 0 0 
26.982 1 192 29.2439 18.3029 2.42243 -1.31496 1.41649 -0.605182 -0.026187 -0.37939 0.91999 0 0 0 0 0 0 0 0 0 
26.982 1 189 29.2444 16.269 0.565263 0.288716 2.90654 1.13632 0.0848736 0.0815082 -0.15778 0 0 0 0 0 0 0 0 0 
26.982 1 389 29.2258 16.357 4.59947 2.41173 1.47285 2.8143 -0.00293387 0.142572 -0.131725 0 0 0 0 0 0 0 0 0 
26.982 1 191 31.3644 16.1746 2.47614 -1.45347 3.48283 -4.8682 0.275611 0.379299 0.512316 0 0 0 0 0 0 0 0 0 
26.982 1 390 31.668 18.1479 4.58211 -2.95632 -1.98384 -0.932182 -0.202321 0.280737 -0.154766 0 0 0 0 0 0 0 0 0 
26.982 1 190 31.3554 18.2471 0.573226 2.73851 -3.39958 -8.70105 0.18108 -0.101041 0.0142228 0 0 0 0 0 0 0 0 0 
26.982 1 393 33.7502 16.321 4.74409 -4.78641 0.533314 4.85008 0.183761 0.0834526 -0.390526 0 0 0 0 0 0 0 0 0 
26.982 1 196 33.7984 18.183 2.58296 -2.58135 3.47605 -5.02336 -0.0037531 0.0675947 0.462043 0 0 0 0 0 0 0 0 0 
26.982 1 195 36.306 16.4213 2.75106 -1.30278 1.22968 -2.50638 -0.660268 -0.722507 -0.204037 0 0 0 0 0 0 0 0 0 
26.982 1 394 36.4957 18.4175 4.42396 -2.57186 -0.587768 7.54875 -0.964263 0.395776 0.37915 0 0 0 0 0 0 0 0 0 
26.982 1 2237 38.5146 20.2546 4.82829 3.59203 -2.80904 -0.768526 0.201453 -0.213963 -0.871518 0 0 0 0 0 0 0 0 0 
26.982 1 2037 38.3923 20.4757 0.57448 3.92453 -5.10107 -0.0136417 0.121214 -0.218671 0.310699 0 0 0 0 0 0 0 0 0 
26.982 1 197 38.2662 16.3249 0.680832 -5.12554 -2.93513 2.6908 0.0758402 0.0604683 -0.0522438 0 0 0 0 0 0 0 0 0 
26.982 1 193 33.576 16.3238 0.675064 -3.86769 0.278368 6.35286 0.340868 -0.182156 -0.236036 0 0 0 0 0 0 0 0 0 
26.982 1 194 35.8659 18.1615 0.762699 -2.23464 2.41741 2.63812 0.320985 0.566152 -0.0651112 0 0 0 0 0 0 0 0 0 
26.982 1 397 38.2782 16.4022 4.56498 -3.55104 -5.65723 -0.93328 0.742101 -0.337444 0.0808824 0 0 0 0 0 0 0 0 0 
26.982 1 200 38.4139 18.4318 2.50655 0.565682 -0.51541 4.46981 0.383546 0.114188 -0.157363 0 0 0 0 0 0 0 0 0 
26.982 1 164 42.6941 18.3954 2.57732 -2.98996 4.00353 4.95665 0.35022 -0.109841 0.475287 0 0 0 0 0 0 0 0 0 
26.982 1 199 40.6946 16.3049 2.54862 -0.518258 0.463255 -1.48811 -0.390038 0.478609 0.510717 0 0 0 0 0 0 0 0 0 
26.982 1 398 40.5817 18.2742 4.5701 -0.46828 -1.75536 2.68345 0.105481 0.255512 -0.0941194 0 0 0 0 0 0 0 0 0 
26.982 1 2039 40.7592 20.3337 2.48647 8.38107 -6.3066 5.59805 -0.297109 0.0107091 0.232195 0 0 0 0 0 0 0 0 0 
26.982 1 198 40.6537 18.331 0.569629 0.0335204 -4.01707 -4.18452 -0.20298 0.092729 0.0828618 0 0 0 0 0 0 0 0 0 
26.982 1 405 2.08151 0.733332 8.3364 -1.42019 2.61527 -1.45777 0.400884 -0.302146 -0.0459459 0 0 0 0 0 0 0 0 0 
26.982 1 243 -0.163567 4.50959 6.5422 2.34829 2.50848 1.22516 -0.31457 -0.151081 0.280577 0 0 0 0 0 0 0 0 0 
26.982 1 402 -0.160963 2.47692 8.55389 -2.68772 -0.318263 1.42493 -0.256814 0.391316 -0.664957 0 0 0 0 0 0 0 0 0 
26.982 1 208 2.12516 2.66058 6.37092 -0.489384 2.40594 1.51662 -0.0183079 -0.113371 0.458792 0 0 0 0 0 0 0 0 0 
26.982 1 204 -2.47438 2.57185 6.56111 -1.51075 -0.669188 3.16032 0.559469 0.754183 -0.311633 0 0 0 0 0 0 0 0 0 
26.982 1 443 0.0406221 4.53918 10.2741 1.28643 -1.69675 3.04094 -0.516727 -0.0388215 0.274777 0 0 0 0 0 0 0 0 0 
26.982 1 203 0.0728849 0.592856 6.40372 -4.47559 -2.2376 1.69838 -0.622115 0.288146 0.127653 0 0 0 0 0 0 0 0 0 
26.982 1 445 2.12038 4.45557 8.33628 0.898125 8.42766 1.34218 0.19772 0.509708 0.0638994 0 0 0 0 0 0 0 0 0 
26.982 1 247 4.37624 4.59552 6.45027 -6.73539 5.88167 0.389566 0.038103 0.00314191 0.525526 0 0 0 0 0 0 0 0 0 
26.982 1 406 4.48014 2.56388 8.48769 4.13217 0.411886 -1.82208 -0.226006 0.254742 -0.263424 0 0 0 0 0 0 0 0 0 
26.982 1 449 6.72451 4.76805 8.57016 -1.28254 0.825405 -2.17057 -0.262465 -0.453125 -0.266654 0 0 0 0 0 0 0 0 0 
26.982 1 212 6.4926 2.76889 6.49499 -5.80967 4.46937 0.658166 0.241193 -0.0049129 -0.22976 0 0 0 0 0 0 0 0 0 
26.982 1 447 4.38495 4.51736 10.3403 -2.42354 -3.76382 1.5213 -0.0178608 0.200438 0.154586 0 0 0 0 0 0 0 0 0 
26.982 1 251 9.07233 4.46278 6.47066 2.48579 -1.34147 0.919555 -0.131899 0.539615 0.362718 0 0 0 0 0 0 0 0 0 
26.982 1 410 8.87605 2.61417 8.32372 2.6905 1.17843 1.15585 0.139313 -0.0734757 0.173703 0 0 0 0 0 0 0 0 0 
26.982 1 453 11.2518 4.39632 8.35253 4.68829 0.767795 1.90983 -0.0290328 -0.111967 -0.0836003 0 0 0 0 0 0 0 0 0 
26.982 1 211 8.93053 0.746121 6.31049 -2.94276 2.43037 -5.34768 -0.024489 -0.238603 0.64842 0 0 0 0 0 0 0 0 0 
26.982 1 409 6.71609 0.80811 8.37272 -4.00962 3.63166 3.63146 -0.105306 -0.305528 0.280135 0 0 0 0 0 0 0 0 0 
26.982 1 216 11.1681 2.53073 6.22126 3.14424 2.52893 -2.96216 0.105246 0.21373 0.543775 0 0 0 0 0 0 0 0 0 
26.982 1 255 13.5908 4.60233 6.42567 3.24365 3.42702 3.39663 -0.370793 -0.2763 0.444994 0 0 0 0 0 0 0 0 0 
26.982 1 414 13.553 2.59424 8.32589 1.21587 -1.86688 2.53039 -0.352831 -0.0648743 0.170331 0 0 0 0 0 0 0 0 0 