ITEM: TIMESTEP
13400
ITEM: NUMBER OF ATOMS
4000
ITEM: BOX BOUNDS pp pp pp
-2.79764 43.2976
0.74387 39.7561
0.753045 39.747
ITEM: ATOMS mass type id x y z vx vy vz fx fy fz xrad yrad zrad vxrad vyrad vzrad fxrad fyrad fzrad 
26.982 1 43 -0.526073 4.56946 2.63468 -3.7308 -2.5007 -0.0164923 -0.0924937 0.183087 -0.031963 0 0 0 0 0 0 0 0 0 
26.982 1 202 -0.3412 2.71943 4.7639 -5.16398 -1.65726 -3.7535 -0.736899 0.14999 0.232027 0 0 0 0 0 0 0 0 0 
26.982 1 3 -0.408428 0.932737 2.75311 0.743951 -2.1411 -0.747162 -0.26211 -0.520054 0.0316868 0 0 0 0 0 0 0 0 0 
26.982 1 41 -2.85066 4.72613 0.836501 -3.3272 -2.79952 2.70584 0.142128 -0.447283 -0.129929 0 0 0 0 0 0 0 0 0 
26.982 1 2 -0.485444 2.61386 0.748317 -0.516501 4.87096 1.52681 -0.238055 0.397632 -0.313024 0 0 0 0 0 0 0 0 0 
26.982 1 245 1.57569 4.56318 4.74855 6.78072 4.48091 -0.317732 0.377966 0.672798 0.0596679 0 0 0 0 0 0 0 0 0 
26.982 1 8 1.81445 2.654 2.76074 0.711858 -0.336298 3.24366 -0.0745362 0.45063 -0.459631 0 0 0 0 0 0 0 0 0 
26.982 1 47 3.8119 4.76687 2.99271 3.14829 3.05219 -4.05997 0.2964 0.178386 -0.584758 0 0 0 0 0 0 0 0 0 
26.982 1 206 4.11095 2.75224 4.59956 -0.890947 3.92508 -4.23433 -0.11986 -0.219177 0.219089 0 0 0 0 0 0 0 0 0 
26.982 1 205 1.81855 0.811644 4.64922 -0.651295 0.976981 1.26269 0.202174 0.00369064 0.132485 0 0 0 0 0 0 0 0 0 
26.982 1 45 1.77021 4.61987 0.686466 2.41923 -1.23474 -3.39088 0.0700603 -0.418407 0.46163 0 0 0 0 0 0 0 0 0 
26.982 1 7 3.90207 0.752639 2.56474 1.80374 -1.83023 1.92698 0.28601 0.174035 0.17943 0 0 0 0 0 0 0 0 0 
26.982 1 249 6.27274 4.70655 4.72516 -5.73282 -1.2598 -0.876387 0.0292805 0.235819 -0.42953 0 0 0 0 0 0 0 0 0 
26.982 1 12 6.25784 2.56747 2.83382 3.00651 -2.0101 -0.423621 0.280284 0.255806 0.0079298 0 0 0 0 0 0 0 0 0 
26.982 1 51 8.49634 4.7461 2.71253 -1.52717 2.60567 -2.58368 0.0314744 -0.113304 0.0592992 0 0 0 0 0 0 0 0 0 
26.982 1 210 8.68387 2.72749 4.49409 -1.47772 2.2941 5.95893 -0.0548671 0.0749454 0.275561 0 0 0 0 0 0 0 0 0 
26.982 1 49 6.31324 4.60435 0.898642 3.3518 -6.02737 -2.74806 0.328277 0.158403 -0.215606 0 0 0 0 0 0 0 0 0 
26.982 1 10 8.82434 2.69139 0.910408 4.80769 -3.20986 1.0138 -0.037238 -0.198884 -0.160448 0 0 0 0 0 0 0 0 0 
26.982 1 253 11.0857 4.43349 4.46457 -5.63296 2.69292 2.15097 -0.160917 0.340213 0.502781 0 0 0 0 0 0 0 0 0 
26.982 1 16 11.106 2.68261 2.53215 2.62128 -2.24509 -1.56628 -0.363414 -0.645199 -0.0217648 0 0 0 0 0 0 0 0 0 
26.982 1 55 13.2135 4.43742 2.51633 -4.7301 -5.32287 -4.18102 0.28281 0.321917 0.192337 0 0 0 0 0 0 0 0 0 
26.982 1 214 13.4088 2.71123 4.70045 1.82777 2.35021 0.829979 0.155684 -0.0420372 0.229535 0 0 0 0 0 0 0 0 0 
26.982 1 14 13.2765 2.65719 0.599293 -5.51446 3.63681 0.572949 0.0731959 -0.301258 -0.0833889 0 0 0 0 0 0 0 0 0 
26.982 1 15 13.3303 0.891586 2.69379 -0.0597199 6.81544 -3.54355 -0.137269 -0.199216 0.157196 0 0 0 0 0 0 0 0 0 
26.982 1 20 15.6916 2.69069 2.71781 -2.83765 5.75425 -4.37318 -0.0276591 0.46281 -0.0119061 0 0 0 0 0 0 0 0 0 
26.982 1 257 15.8134 4.74145 4.73927 4.74583 -0.588298 -1.76456 -0.00994477 -0.573913 -0.248691 0 0 0 0 0 0 0 0 0 
26.982 1 218 17.9114 2.71945 4.56843 -3.16844 6.58057 -4.73798 0.121323 0.0299232 -0.0710957 0 0 0 0 0 0 0 0 0 
26.982 1 59 18.2249 4.7124 2.58127 -3.27305 0.571674 -1.87196 -0.518714 -0.11855 0.692273 0 0 0 0 0 0 0 0 0 
26.982 1 24 20.3342 2.53538 2.70336 -2.38689 -1.35264 0.968438 -0.131389 -0.064293 -0.369256 0 0 0 0 0 0 0 0 0 
26.982 1 261 20.4543 4.49309 4.49802 2.36988 0.665475 0.159013 -0.199382 0.493716 0.209698 0 0 0 0 0 0 0 0 0 
26.982 1 63 22.6666 4.51142 2.75046 -5.84209 -2.37 -0.620047 -0.231295 0.210974 -0.434005 0 0 0 0 0 0 0 0 0 
26.982 1 222 22.6788 2.63399 4.60425 4.14534 -5.83662 -0.889418 -0.26661 -0.602965 0.372788 0 0 0 0 0 0 0 0 0 
26.982 1 28 24.8277 2.72477 2.70281 3.91659 0.100237 0.553259 0.300574 -0.329248 -0.433673 0 0 0 0 0 0 0 0 0 
26.982 1 265 25.0051 4.50094 4.63869 2.03558 -2.45356 2.40534 0.131894 -0.404429 0.5475 0 0 0 0 0 0 0 0 0 
26.982 1 225 25.0347 0.746951 4.62503 3.29193 -4.89993 -5.53872 -0.148489 -0.110509 -0.137576 0 0 0 0 0 0 0 0 0 
26.982 1 23 22.5567 0.640213 2.75991 1.79939 3.64216 3.98775 0.209965 0.122964 -0.19832 0 0 0 0 0 0 0 0 0 
26.982 1 22 22.688 2.55868 0.697072 -1.13191 2.49358 -10.4965 -0.608395 0.331163 0.0981389 0 0 0 0 0 0 0 0 0 
26.982 1 67 27.3389 4.68992 2.70829 -3.8491 1.07166 -2.7292 -0.107286 0.0747622 -0.221287 0 0 0 0 0 0 0 0 0 
26.982 1 226 27.2207 2.67507 4.51602 -1.08759 2.29083 6.85755 0.0252299 -0.295079 0.211764 0 0 0 0 0 0 0 0 0 
26.982 1 32 29.7625 2.72368 2.59311 -2.01936 -0.690362 -0.883964 -0.434416 -0.0461974 0.0487683 0 0 0 0 0 0 0 0 0 
26.982 1 269 29.6305 4.58933 4.78964 -3.04926 -0.94303 0.537541 -0.395639 -0.302219 -0.549898 0 0 0 0 0 0 0 0 0 
26.982 1 26 27.053 2.74471 0.798096 1.97544 -5.08086 0.641548 0.191787 -0.0290362 -0.17059 0 0 0 0 0 0 0 0 0 
26.982 1 71 31.9348 4.61926 2.57087 3.19216 -2.24809 -5.69352 -0.106453 0.462616 -0.0130517 0 0 0 0 0 0 0 0 0 
26.982 1 230 31.8378 2.69914 4.57918 3.93897 -1.61364 -1.95784 0.0934237 -0.082969 0.332075 0 0 0 0 0 0 0 0 0 
26.982 1 273 34.2542 4.94109 4.70191 1.70404 -5.27101 4.33762 -0.150572 -0.315623 -0.268409 0 0 0 0 0 0 0 0 0 
26.982 1 36 34.0801 2.79418 2.7808 1.65894 0.163671 0.625084 -0.0104232 0.223606 0.155859 0 0 0 0 0 0 0 0 0 
26.982 1 233 34.0857 0.726149 4.58316 -0.917108 -0.0124315 -3.23613 -0.208488 0.156242 0.188293 0 0 0 0 0 0 0 0 0 
26.982 1 75 36.4202 4.68273 2.82435 2.4422 -2.166 -4.78991 0.0924962 -0.101807 0.259358 0 0 0 0 0 0 0 0 0 
26.982 1 234 36.6587 2.78297 4.7992 -0.944155 -0.729411 1.27573 -0.199522 -0.065134 0.311005 0 0 0 0 0 0 0 0 0 
26.982 1 40 38.7914 2.66778 2.84128 5.95039 -4.67695 0.877378 -0.298594 -0.233831 -0.205018 0 0 0 0 0 0 0 0 0 
26.982 1 277 38.8348 4.49247 4.79805 1.21375 -0.254299 -3.41229 -0.0461952 -0.11393 0.249747 0 0 0 0 0 0 0 0 0 
26.982 1 35 36.3135 1.04602 2.84866 -3.76245 -4.30947 1.31854 0.411396 -0.552276 -0.17921 0 0 0 0 0 0 0 0 0 
26.982 1 237 38.6397 0.522969 4.80043 0.954409 1.68032 -1.1247 0.224669 0.74864 -0.369645 0 0 0 0 0 0 0 0 0 
26.982 1 4 43.3452 2.57942 2.67351 2.10512 -1.15809 0.71002 -0.153258 0.642617 0.0600687 0 0 0 0 0 0 0 0 0 
26.982 1 241 43.1461 4.63855 4.69439 4.72912 1.72567 -0.720306 0.469118 -0.281889 -0.350746 0 0 0 0 0 0 0 0 0 
26.982 1 79 40.9893 4.63176 2.71724 -0.421781 3.16723 0.748977 0.0895641 0.111004 0.153562 0 0 0 0 0 0 0 0 0 
26.982 1 238 41.0735 2.64216 4.64817 -5.06611 0.984836 5.02929 -0.03902 0.0659514 0.367676 0 0 0 0 0 0 0 0 0 
26.982 1 201 43.3102 0.838369 4.68707 1.38197 1.31256 1.81609 0.20662 -0.0574889 0.260969 0 0 0 0 0 0 0 0 0 
26.982 1 39 40.9513 0.744129 2.85066 -1.62705 6.99336 4.5112 0.0105561 -0.17654 -0.400519 0 0 0 0 0 0 0 0 0 
26.982 1 38 40.8444 2.69733 0.865683 -2.73775 -1.84964 -3.12229 0.492985 0.0735071 0.121906 0 0 0 0 0 0 0 0 0 
26.982 1 83 -0.615974 8.51263 2.85988 1.37443 -6.77208 -1.29459 -0.306332 0.443106 -0.557769 0 0 0 0 0 0 0 0 0 
26.982 1 242 -0.711551 6.57391 4.5234 6.53458 -1.44928 3.82032 0.264872 -0.296024 0.614417 0 0 0 0 0 0 0 0 0 
26.982 1 44 -2.97091 6.70138 2.68596 1.88621 1.4823 1.57101 0.187693 -0.102048 0.620538 0 0 0 0 0 0 0 0 0 
26.982 1 82 -0.591278 10.3619 0.795972 -0.742607 2.42298 0.801758 0.0715782 0.00687645 -0.107641 0 0 0 0 0 0 0 0 0 
26.982 1 48 1.84427 6.60456 2.67288 0.0992434 2.83341 -2.77417 -0.421729 -0.142844 0.311425 0 0 0 0 0 0 0 0 0 
26.982 1 285 1.48221 8.60712 4.57641 -0.304054 4.21763 1.88219 0.411156 -0.0410043 0.59061 0 0 0 0 0 0 0 0 0 
26.982 1 87 3.93088 8.52083 2.6899 1.98022 1.44122 7.3768 0.26705 -0.180441 0.0597905 0 0 0 0 0 0 0 0 0 
26.982 1 246 4.06651 6.69562 4.86433 1.30787 -4.90477 4.97774 -0.133615 0.161992 -0.345941 0 0 0 0 0 0 0 0 0 
26.982 1 88 1.68829 10.3523 2.59391 -1.21395 -0.500925 0.368016 -0.0330474 0.506842 0.0618114 0 0 0 0 0 0 0 0 0 
26.982 1 286 3.97832 10.6265 4.53594 -0.415607 2.92479 -2.31494 -0.0811885 0.0972086 -0.4835 0 0 0 0 0 0 0 0 0 
26.982 1 86 4.09435 10.5894 0.906936 1.10489 1.91435 -0.0440328 -0.0174528 -0.346626 -0.41794 0 0 0 0 0 0 0 0 0 
26.982 1 289 6.36033 8.65387 4.74035 0.477305 2.77299 3.11152 -0.04153 0.0566099 -0.348009 0 0 0 0 0 0 0 0 0 
26.982 1 52 6.13395 6.58272 2.78823 3.00719 -1.94453 -6.20217 0.173476 0.114825 0.0910423 0 0 0 0 0 0 0 0 0 
26.982 1 91 8.62247 8.24202 2.65025 -0.226096 -0.765803 -2.88936 0.0143593 0.497317 0.480458 0 0 0 0 0 0 0 0 0 
26.982 1 250 8.65562 6.51795 4.70584 1.55031 -0.108012 -1.52357 0.212742 0.249831 0.312072 0 0 0 0 0 0 0 0 0 
26.982 1 92 6.3618 10.417 2.66886 -2.14322 -1.9495 0.781042 0.0794944 -0.336718 -0.337794 0 0 0 0 0 0 0 0 0 
26.982 1 290 8.68579 10.5119 4.67425 -4.13734 -3.45047 1.30959 0.0335873 -0.583096 -0.37977 0 0 0 0 0 0 0 0 0 
26.982 1 89 6.37074 8.42384 0.833797 -2.24729 -2.24708 0.644385 -0.201639 0.310796 -0.14195 0 0 0 0 0 0 0 0 0 
26.982 1 293 11.0691 8.36727 4.64566 2.53413 4.16284 -1.31619 -0.320321 -0.401271 0.308818 0 0 0 0 0 0 0 0 0 
26.982 1 56 10.9583 6.53743 2.63757 2.06304 -4.66323 -0.713246 0.0810254 0.00703555 0.312117 0 0 0 0 0 0 0 0 0 
26.982 1 95 13.4437 8.6145 2.69692 1.3989 -1.26451 -0.0105172 -0.436249 -0.14818 0.393878 0 0 0 0 0 0 0 0 0 
26.982 1 254 13.411 6.43197 4.3427 3.13652 0.093167 3.90966 -0.33638 0.12422 0.46359 0 0 0 0 0 0 0 0 0 
26.982 1 60 15.6419 6.56788 2.65665 4.88666 -0.14942 -2.69706 0.416383 0.172775 0.352455 0 0 0 0 0 0 0 0 0 
26.982 1 297 15.5478 8.62387 4.45141 -1.28286 -0.740251 0.0577226 0.309496 -0.291634 0.165156 0 0 0 0 0 0 0 0 0 
26.982 1 99 18.0084 8.34061 2.54095 0.0523732 -3.59539 -2.32593 -0.0559917 0.336223 0.509587 0 0 0 0 0 0 0 0 0 
26.982 1 258 17.8604 6.66359 4.74517 -1.67467 -3.70858 -4.58965 0.296097 0.0930778 -0.189315 0 0 0 0 0 0 0 0 0 
26.982 1 298 17.9342 10.3149 4.46442 0.697214 1.13715 0.241915 0.120082 -0.423117 0.09633 0 0 0 0 0 0 0 0 0 
26.982 1 98 17.9192 10.5416 0.900677 -1.38211 -0.799333 1.03528 0.177752 -0.0368441 -0.00902872 0 0 0 0 0 0 0 0 0 
26.982 1 64 20.4397 6.81932 2.76486 -3.3648 -7.53528 1.04527 -0.083681 -0.399967 -0.208075 0 0 0 0 0 0 0 0 0 
26.982 1 301 20.268 8.56565 4.75089 -5.55095 -2.84159 -2.05742 0.0209523 -0.00409834 -0.344972 0 0 0 0 0 0 0 0 0 
26.982 1 104 20.4129 10.2569 2.58343 -2.92295 0.859867 -3.08593 -0.201154 0.489136 0.33127 0 0 0 0 0 0 0 0 0 
26.982 1 103 22.709 8.63545 2.86682 2.48246 0.398324 0.645606 -0.0537273 -0.439063 -0.562714 0 0 0 0 0 0 0 0 0 
26.982 1 262 22.6757 6.576 4.64176 2.13836 -5.91178 0.471205 -0.635367 -0.207918 0.0326946 0 0 0 0 0 0 0 0 0 
26.982 1 305 24.9338 8.75774 4.44854 0.709465 -5.09201 -2.84729 0.0827025 -0.788103 0.384487 0 0 0 0 0 0 0 0 0 
26.982 1 68 24.7629 6.33562 2.84705 2.35629 5.05588 3.67225 0.510815 0.875494 -0.625184 0 0 0 0 0 0 0 0 0 
26.982 1 102 22.6264 10.4266 0.765725 1.55959 -2.7993 4.65248 0.040426 -0.0547198 -0.153852 0 0 0 0 0 0 0 0 0 
26.982 1 108 25.0987 10.5863 2.60967 2.80104 0.138765 2.66293 -0.412136 -0.245728 -0.815055 0 0 0 0 0 0 0 0 0 
26.982 1 107 27.2429 8.54723 2.66686 -0.0449116 -2.93154 -1.68592 -0.0993692 -0.0427524 0.21735 0 0 0 0 0 0 0 0 0 
26.982 1 266 27.1562 6.52875 4.68618 1.10754 -0.304082 1.28931 -0.0735186 -0.187667 -0.384076 0 0 0 0 0 0 0 0 0 
26.982 1 72 29.4472 6.65864 2.4997 0.803582 -1.84332 -5.09272 0.100287 -0.630862 0.701775 0 0 0 0 0 0 0 0 0 
26.982 1 309 29.4449 8.45694 4.51882 2.24039 -1.44643 -3.06182 0.0848487 0.0975494 0.241983 0 0 0 0 0 0 0 0 0 
26.982 1 306 27.0399 10.5482 4.59001 1.20358 1.03284 0.0130304 0.658933 0.0909187 0.189307 0 0 0 0 0 0 0 0 0 
26.982 1 112 29.477 10.5124 2.67175 -1.77472 2.33462 -3.63213 0.00744813 -0.583244 0.302594 0 0 0 0 0 0 0 0 0 
26.982 1 109 29.6651 8.59897 0.823751 0.0736363 -0.311748 6.4426 -0.12793 0.318671 -0.383842 0 0 0 0 0 0 0 0 0 
26.982 1 111 31.8035 8.48378 2.90286 -0.922104 5.71276 1.36089 0.0749943 0.214099 -0.34734 0 0 0 0 0 0 0 0 0 
26.982 1 270 31.6093 6.44198 4.65412 5.55724 -2.99297 2.70239 0.220901 0.473655 -0.455505 0 0 0 0 0 0 0 0 0 
26.982 1 76 34.0801 6.75859 2.6704 1.29251 -1.50884 -0.672205 0.055757 -0.522568 -0.122005 0 0 0 0 0 0 0 0 0 
26.982 1 313 34.1859 8.53713 4.65228 1.10934 5.16328 -0.637835 -0.163898 0.160459 0.0622774 0 0 0 0 0 0 0 0 0 
26.982 1 310 31.7355 10.4359 4.72219 3.05249 2.08521 -0.816619 -0.144544 0.0577482 -0.156426 0 0 0 0 0 0 0 0 0 
26.982 1 113 34.4517 8.56314 0.763174 -4.22466 -4.76027 -2.75432 -0.605469 0.2 -0.121664 0 0 0 0 0 0 0 0 0 
26.982 1 70 31.8968 6.85363 0.734588 1.64199 1.82701 -0.0827812 0.0383718 -0.29021 -0.146492 0 0 0 0 0 0 0 0 0 
26.982 1 110 31.7554 10.4915 0.760605 -4.61796 2.21995 3.07165 0.230901 -0.419436 0.253396 0 0 0 0 0 0 0 0 0 
26.982 1 115 36.6383 8.51893 2.60441 -1.14203 2.14407 2.55948 -0.549082 0.264359 0.413499 0 0 0 0 0 0 0 0 0 
26.982 1 274 36.3971 6.80417 4.67552 6.3308 -0.952606 4.62084 -0.128748 -0.0784138 0.0672395 0 0 0 0 0 0 0 0 0 
26.982 1 80 38.7101 6.54174 3.03874 -2.96112 -2.70228 0.357543 0.0848936 -0.208247 -0.321353 0 0 0 0 0 0 0 0 0 
26.982 1 317 38.7121 8.69253 4.67933 3.42538 -1.40563 0.244382 -0.103339 0.0636812 -0.158036 0 0 0 0 0 0 0 0 0 
26.982 1 120 38.7121 10.597 2.66832 -6.72576 0.824688 -0.746153 -0.090267 -0.0468915 -0.16223 0 0 0 0 0 0 0 0 0 
26.982 1 314 36.2916 10.3506 4.72564 -6.60713 1.09756 -0.20419 0.194207 0.00453838 -0.08268 0 0 0 0 0 0 0 0 0 
26.982 1 281 43.2046 8.67137 4.90973 3.23448 2.83429 -1.90589 0.0363816 -0.434184 -0.347515 0 0 0 0 0 0 0 0 0 
26.982 1 119 40.8621 8.56587 2.84014 -3.20459 1.68294 -2.69288 0.279579 -0.0784158 0.240948 0 0 0 0 0 0 0 0 0 
26.982 1 278 41.0131 6.45335 4.81394 0.213892 2.32499 3.7299 -0.0133441 0.336538 -0.167533 0 0 0 0 0 0 0 0 0 
26.982 1 318 41.1023 10.601 4.79803 -3.16839 -7.84004 2.54871 -0.409897 0.122142 -0.418716 0 0 0 0 0 0 0 0 0 
26.982 1 118 41.0626 10.3196 0.812779 -2.52292 1.91135 0.110355 -0.135961 0.31492 -0.223562 0 0 0 0 0 0 0 0 0 
26.982 1 282 -0.758343 10.6773 4.64703 -0.773784 -1.11551 -1.27492 0.654202 -0.167757 0.122084 0 0 0 0 0 0 0 0 0 
26.982 1 123 -0.529344 12.4675 2.48961 0.476122 1.10586 6.85968 -0.17513 0.300242 0.390089 0 0 0 0 0 0 0 0 0 
26.982 1 322 -0.544892 14.3262 4.75476 4.09365 -3.26665 0.483617 0.0307367 0.284299 -0.429965 0 0 0 0 0 0 0 0 0 
26.982 1 325 1.70102 12.4875 4.34048 3.43543 0.949364 -2.18976 -0.0769633 -0.356683 0.461527 0 0 0 0 0 0 0 0 0 
26.982 1 128 1.81286 14.4832 2.65699 4.4146 -2.97261 -2.87795 -0.149625 0.427551 -0.27755 0 0 0 0 0 0 0 0 0 
26.982 1 127 3.96865 12.6318 2.477 -5.15646 -0.196471 1.17735 0.289258 -0.118912 0.543378 0 0 0 0 0 0 0 0 0 
26.982 1 326 4.0323 14.2146 4.70687 -0.991239 0.969094 -0.556928 0.0457024 0.086484 -0.376816 0 0 0 0 0 0 0 0 0 
26.982 1 126 4.16704 14.6718 0.813687 -0.136283 -2.21099 -1.60554 0.0246831 -0.104712 -0.377388 0 0 0 0 0 0 0 0 0 
26.982 1 125 1.67955 12.4899 0.760414 -2.70282 -1.04063 -2.45333 0.3664 -0.126635 0.0710443 0 0 0 0 0 0 0 0 0 
26.982 1 329 6.36982 12.2246 4.4536 0.666632 -3.49779 -4.45581 -0.130172 0.652755 0.660664 0 0 0 0 0 0 0 0 0 
26.982 1 132 6.48486 14.3024 2.78545 -3.13516 2.42395 -3.90555 -0.118431 -0.196052 -0.353939 0 0 0 0 0 0 0 0 0 
26.982 1 131 8.73681 12.4048 2.80863 1.19253 3.75346 1.55238 -0.061146 0.040809 -0.454389 0 0 0 0 0 0 0 0 0 
26.982 1 330 8.59978 14.446 4.81454 -2.11053 3.04749 -1.97975 -0.118716 -0.638318 -0.461783 0 0 0 0 0 0 0 0 0 
26.982 1 130 8.78556 14.2417 0.69617 -2.97486 -1.10205 -1.82722 -0.155814 0.490159 0.559921 0 0 0 0 0 0 0 0 0 
26.982 1 129 6.47189 12.3114 0.663493 1.65731 1.45002 -0.480671 -0.0703315 0.197956 0.19023 0 0 0 0 0 0 0 0 0 
26.982 1 294 13.3755 10.6365 4.63151 -1.19354 -1.6576 2.30129 -0.303607 0.127203 -0.470057 0 0 0 0 0 0 0 0 0 
26.982 1 96 10.9535 10.2822 2.97124 0.224918 4.38222 -2.31238 -0.0187353 0.679122 -0.765315 0 0 0 0 0 0 0 0 0 
26.982 1 333 10.9025 12.5766 4.64989 1.34292 2.69405 -2.64698 0.23521 -0.296948 0.378984 0 0 0 0 0 0 0 0 0 
26.982 1 136 11.0556 14.2605 2.69961 -5.3337 -1.28025 3.91447 -0.321984 0.594019 -0.714622 0 0 0 0 0 0 0 0 0 
26.982 1 135 13.2926 12.6241 2.55623 -0.339777 -4.15813 0.298846 -0.0519982 -0.420929 0.613008 0 0 0 0 0 0 0 0 0 
26.982 1 334 13.1853 14.3802 4.63841 3.44321 4.77533 4.01476 0.147578 -0.132493 0.437834 0 0 0 0 0 0 0 0 0 
26.982 1 134 13.3057 14.2892 0.548758 1.30089 -2.84115 1.54145 -0.0631872 0.480195 -0.0250359 0 0 0 0 0 0 0 0 0 
26.982 1 100 15.5407 10.7067 2.77851 7.74735 -4.78212 -1.80963 0.100925 -0.199366 -0.278856 0 0 0 0 0 0 0 0 0 
26.982 1 140 15.3973 14.4668 2.69097 -0.436301 -0.144431 2.36478 0.240696 -0.0249727 0.167816 0 0 0 0 0 0 0 0 0 
26.982 1 337 15.4188 12.5424 4.71354 -1.4382 -1.54403 3.90629 0.193237 0.216782 0.0957171 0 0 0 0 0 0 0 0 0 
26.982 1 139 17.7129 12.4667 2.95186 1.93709 -1.60444 4.21753 0.185458 0.29705 -0.108159 0 0 0 0 0 0 0 0 0 
26.982 1 338 17.8385 14.5447 4.81593 -1.39654 -0.64377 0.84529 0.0772125 -0.188546 -0.405098 0 0 0 0 0 0 0 0 0 
26.982 1 138 17.8431 14.2148 0.908057 -1.52073 -1.84352 -0.730142 0.249949 0.0858495 -0.510219 0 0 0 0 0 0 0 0 0 
26.982 1 341 20.1979 12.2353 4.51021 4.52294 -2.76119 -0.177345 0.183248 0.381211 -0.0619415 0 0 0 0 0 0 0 0 0 
26.982 1 144 20.0912 14.2811 2.75283 0.336155 0.0896462 0.0301807 0.200543 -0.179769 -0.175602 0 0 0 0 0 0 0 0 0 
26.982 1 141 20.3297 12.4263 0.66316 -3.45153 2.59849 3.60513 -0.0161163 -0.175281 0.648924 0 0 0 0 0 0 0 0 0 
26.982 1 145 24.8926 12.2975 0.537269 5.78157 -1.41173 -1.78013 0.12903 0.362838 0.299487 0 0 0 0 0 0 0 0 0 
26.982 1 302 22.7875 10.7659 4.44671 1.0872 3.89882 -4.46371 -0.368042 -0.153407 0.357492 0 0 0 0 0 0 0 0 0 
26.982 1 143 22.6212 12.4627 2.40998 1.58617 3.97013 0.106539 -0.0699131 0.618736 0.318145 0 0 0 0 0 0 0 0 0 
26.982 1 342 22.7375 14.3728 4.62973 -3.26403 5.07756 2.59385 -0.245883 -0.132213 -0.713024 0 0 0 0 0 0 0 0 0 
26.982 1 148 25.0151 14.2918 2.52648 0.803985 -1.45817 -0.482372 -0.295832 0.262808 -0.137111 0 0 0 0 0 0 0 0 0 
26.982 1 345 25.0628 12.3975 4.39526 4.63456 -0.982392 -2.92064 -0.319118 0.704325 1.1221 0 0 0 0 0 0 0 0 0 
26.982 1 142 22.6299 14.533 0.538194 1.63493 -0.214198 -0.796251 -0.15967 -0.39925 0.374308 0 0 0 0 0 0 0 0 0 
26.982 1 147 27.2076 12.3995 2.51264 3.41322 -1.72283 -0.130245 0.122651 0.358348 0.222358 0 0 0 0 0 0 0 0 0 
26.982 1 346 27.2794 14.2933 4.57682 -1.14738 3.76826 -2.03061 -0.011141 0.313315 0.0871204 0 0 0 0 0 0 0 0 0 
26.982 1 152 29.4639 14.4054 2.72416 1.60251 -4.58148 -2.14846 0.0934101 -0.286249 -0.0110994 0 0 0 0 0 0 0 0 0 
26.982 1 349 29.429 12.3482 4.47884 -0.748202 -3.6919 -2.35405 0.174818 0.523282 0.446743 0 0 0 0 0 0 0 0 0 
26.982 1 146 27.2703 14.4996 0.741211 -1.76746 1.03474 0.818656 -0.0636476 -0.825123 -0.233154 0 0 0 0 0 0 0 0 0 
26.982 1 149 29.3973 12.2681 0.754579 -5.38251 4.44038 5.08161 0.428425 0.958908 -0.463961 0 0 0 0 0 0 0 0 0 
26.982 1 116 33.9303 10.4906 2.7223 1.77564 -1.21327 3.13031 0.40863 -0.779833 -0.185428 0 0 0 0 0 0 0 0 0 
26.982 1 151 31.8829 12.2508 2.72855 4.14938 1.09373 5.60532 -0.444712 0.58627 -0.16961 0 0 0 0 0 0 0 0 0 
26.982 1 350 31.8327 14.2116 4.60843 -3.01922 -1.28361 3.11996 -0.0366766 0.10431 -0.0447823 0 0 0 0 0 0 0 0 0 
26.982 1 156 34.127 14.3205 2.60931 3.0356 -0.218974 1.83556 -0.135368 0.102531 0.43064 0 0 0 0 0 0 0 0 0 
26.982 1 353 34.0435 12.2818 4.61821 -3.22441 -4.73787 -0.861127 0.0875839 0.632073 0.115139 0 0 0 0 0 0 0 0 0 
26.982 1 155 36.2096 12.385 2.77218 -1.97398 -1.23302 0.0814578 0.434833 0.0791604 -0.210154 0 0 0 0 0 0 0 0 0 
26.982 1 354 36.6138 14.3275 4.7013 4.64477 4.10146 -0.994763 -0.638872 0.365588 0.256359 0 0 0 0 0 0 0 0 0 
26.982 1 160 38.6073 14.3663 2.70866 4.41215 -3.58671 3.79662 0.374425 -0.202044 -0.371759 0 0 0 0 0 0 0 0 0 
26.982 1 357 38.489 12.4079 4.73159 3.39991 0.601025 -1.50734 0.320605 0.156544 -0.406537 0 0 0 0 0 0 0 0 0 
26.982 1 84 43.2665 10.483 2.94375 3.39195 1.14952 -2.96008 -0.240503 -0.273227 -1.12811 0 0 0 0 0 0 0 0 0 
26.982 1 321 43.2411 12.5503 4.5618 -0.208735 0.329895 -0.423157 0.0205139 0.156709 0.387979 0 0 0 0 0 0 0 0 0 
26.982 1 124 43.3143 14.6775 2.85369 1.558 2.3713 -1.33508 -0.0922221 -0.530669 -0.449311 0 0 0 0 0 0 0 0 0 
26.982 1 159 40.9678 12.4744 2.66218 1.36872 -1.61136 2.65823 -0.17646 -0.0701768 0.265528 0 0 0 0 0 0 0 0 0 
26.982 1 358 41.1971 14.4436 4.63879 -1.13195 -1.37147 0.996571 -0.434715 0.445193 -0.173086 0 0 0 0 0 0 0 0 0 
26.982 1 158 40.902 14.3449 0.658331 -2.67373 -0.88005 -3.37302 0.212615 0.530063 0.456847 0 0 0 0 0 0 0 0 0 
26.982 1 163 -0.534506 16.2694 2.77823 1.36394 4.58182 0.228095 0.207647 0.404097 -0.0304517 0 0 0 0 0 0 0 0 0 
26.982 1 362 -0.614395 18.3251 4.85564 -1.24211 -4.16821 0.648022 0.318728 -0.388024 -0.370111 0 0 0 0 0 0 0 0 0 
26.982 1 361 -2.84196 16.4823 4.82742 0.500433 -5.68101 4.97213 0.143861 0.111812 -0.480046 0 0 0 0 0 0 0 0 0 
26.982 1 2003 -0.707825 20.2163 2.74756 -0.229083 -3.32471 4.50701 0.348398 -0.165141 -0.0645266 0 0 0 0 0 0 0 0 0 
26.982 1 162 -0.459247 18.2578 0.716876 1.04475 3.34528 3.5543 0.094403 0.151266 0.484424 0 0 0 0 0 0 0 0 0 
26.982 1 365 1.6775 16.3472 4.64532 3.78707 3.46878 2.40347 0.0721261 -0.379154 -0.03817 0 0 0 0 0 0 0 0 0 
26.982 1 168 1.71986 18.4588 2.86189 -0.0660558 1.17971 -2.42149 -0.101196 0.00355922 -0.114774 0 0 0 0 0 0 0 0 0 
26.982 1 167 4.15466 16.3207 2.87717 1.59018 3.20401 1.63428 -0.303422 0.0891114 -0.191512 0 0 0 0 0 0 0 0 0 
26.982 1 366 4.0641 18.3013 4.68181 2.01622 0.442799 -0.292838 -0.0382029 -0.0295146 0.369732 0 0 0 0 0 0 0 0 0 
26.982 1 369 6.19543 16.1924 4.67449 -4.24673 1.20489 6.13305 0.451661 0.309945 0.39928 0 0 0 0 0 0 0 0 0 
26.982 1 172 6.43025 18.3754 2.84064 3.38634 -1.00208 1.12206 -0.0217921 -0.01504 -0.168399 0 0 0 0 0 0 0 0 0 
26.982 1 171 8.67312 16.2041 2.81547 -0.355176 -3.56077 -5.26303 0.252633 0.193173 -0.196442 0 0 0 0 0 0 0 0 0 
26.982 1 370 8.62422 18.4064 4.5667 3.96905 0.890144 2.06471 0.0471558 -0.279245 0.373424 0 0 0 0 0 0 0 0 0 
26.982 1 2209 6.49218 20.3844 4.63607 -5.0311 1.84141 4.76744 -0.0722657 -0.168606 0.37942 0 0 0 0 0 0 0 0 0 
26.982 1 170 8.83476 18.2673 0.930333 0.288598 2.26826 0.94468 -0.271817 -0.33689 0.0372983 0 0 0 0 0 0 0 0 0 
26.982 1 169 6.56721 16.3812 1.05593 2.8565 -6.41397 0.963134 -0.234333 -0.191885 -0.444124 0 0 0 0 0 0 0 0 0 
26.982 1 176 10.949 18.3624 2.74216 -3.2547 0.402224 -1.32475 0.18987 -0.357697 0.175598 0 0 0 0 0 0 0 0 0 
26.982 1 373 10.8755 16.1262 4.66137 3.25687 -1.7076 -2.45445 0.112923 0.614527 0.00368778 0 0 0 0 0 0 0 0 0 
26.982 1 175 13.1541 16.3959 2.90948 -0.699228 -1.30801 1.79077 0.142201 -0.0454936 -0.579146 0 0 0 0 0 0 0 0 0 
26.982 1 374 13.3578 18.3557 4.81075 1.69834 2.45971 -4.10845 -0.149178 -0.123378 -0.0155986 0 0 0 0 0 0 0 0 0 
26.982 1 173 11.0748 16.422 0.738168 2.39683 -1.57813 -2.32649 -0.109221 -0.821592 0.455178 0 0 0 0 0 0 0 0 0 
26.982 1 377 15.7354 16.3825 4.74768 -2.74126 2.60072 -4.24791 -0.377472 0.00136879 -0.0346539 0 0 0 0 0 0 0 0 0 
26.982 1 180 15.4058 18.2103 2.70901 1.07838 2.90976 0.357059 0.220847 0.0807186 0.0805963 0 0 0 0 0 0 0 0 0 
26.982 1 179 17.9403 16.2664 2.61885 -2.39158 0.79612 6.85286 -0.21374 -0.0433969 0.932842 0 0 0 0 0 0 0 0 0 
26.982 1 378 17.8919 18.3878 4.71589 3.08503 2.42377 1.90161 0.242999 -0.565882 -0.295523 0 0 0 0 0 0 0 0 0 
26.982 1 2019 17.9813 20.2718 2.74798 -0.336704 -0.735285 0.0343227 0.070274 -0.118815 -0.435464 0 0 0 0 0 0 0 0 0 
26.982 1 177 15.732 16.3034 0.787363 -4.63252 -4.04511 0.622281 -0.278909 -0.170255 -0.153274 0 0 0 0 0 0 0 0 0 
26.982 1 381 20.2733 16.1884 4.60322 -0.618293 1.44602 2.42523 -0.204489 0.279384 0.0552066 0 0 0 0 0 0 0 0 0 
26.982 1 184 20.2327 18.2395 2.84606 1.25169 -4.56176 -0.0685076 -0.303254 0.619048 0.107044 0 0 0 0 0 0 0 0 0 
26.982 1 2221 20.2863 20.5551 4.76304 1.21616 -0.970026 -2.55235 -0.179505 -0.547434 -0.431908 0 0 0 0 0 0 0 0 0 
26.982 1 181 20.2247 16.2916 0.905043 -0.209329 -0.563113 -1.95295 0.201737 -0.306735 -0.180463 0 0 0 0 0 0 0 0 0 
26.982 1 183 22.4118 16.4915 2.82969 -0.2935 -3.12528 1.17547 0.4542 -0.485363 -0.113732 0 0 0 0 0 0 0 0 0 
26.982 1 382 22.7334 18.3601 4.92164 1.15092 4.30754 -3.87156 -0.260813 -0.693901 -0.63683 0 0 0 0 0 0 0 0 0 
26.982 1 385 24.9118 16.1733 4.60552 0.845798 -2.38495 3.04369 0.0922811 0.388954 -0.246048 0 0 0 0 0 0 0 0 0 
26.982 1 188 24.833 18.2174 2.86097 5.10521 2.66032 1.14439 -0.0941165 0.163047 -0.521837 0 0 0 0 0 0 0 0 0 
26.982 1 2023 22.5023 20.1805 2.97443 -0.586479 2.41106 -2.94215 -0.0770047 0.0761169 -0.53624 0 0 0 0 0 0 0 0 0 
26.982 1 2225 24.8593 20.3374 4.56619 2.2053 1.2151 -1.73726 0.0327607 -0.493771 0.505812 0 0 0 0 0 0 0 0 0 
26.982 1 185 24.9492 16.3445 0.72748 -3.18155 4.55929 1.83188 -0.187323 0.214062 0.114163 0 0 0 0 0 0 0 0 0 
26.982 1 182 22.5967 18.4357 0.96585 4.15655 2.17035 -1.80285 0.0880021 -0.382818 -0.248384 0 0 0 0 0 0 0 0 0 
26.982 1 187 27.3238 16.398 2.61282 -2.92594 -0.596851 3.54486 -0.397989 -0.204273 0.734259 0 0 0 0 0 0 0 0 0 
26.982 1 386 27.0529 18.4139 4.67988 -0.174107 -8.05874 -3.60095 0.084718 -0.398752 -0.659576 0 0 0 0 0 0 0 0 0 
26.982 1 192 29.3085 18.3229 2.61753 -6.09317 0.687466 6.15208 0.268399 -0.108874 -0.166375 0 0 0 0 0 0 0 0 0 
26.982 1 389 29.5891 16.4635 4.67228 -0.147579 2.4358 0.99478 -0.412204 -0.354287 -0.232504 0 0 0 0 0 0 0 0 0 
26.982 1 2229 29.3738 20.1717 4.53123 5.80359 0.609818 -2.97714 0.0420689 0.701273 -0.230177 0 0 0 0 0 0 0 0 0 
26.982 1 189 29.565 16.2093 0.764159 -1.80219 0.772396 3.67417 0.0509983 0.150019 -0.27795 0 0 0 0 0 0 0 0 0 
26.982 1 191 31.7424 16.1491 2.73418 -1.13618 0.53461 4.54077 0.262861 0.73859 0.202263 0 0 0 0 0 0 0 0 0 
26.982 1 390 31.6827 18.3923 4.77728 0.257414 0.262164 1.51012 0.518574 -0.109551 -0.774407 0 0 0 0 0 0 0 0 0 
26.982 1 190 31.6641 18.245 0.789405 -2.49513 2.52995 -2.61776 0.157419 -0.08705 0.0879118 0 0 0 0 0 0 0 0 0 
26.982 1 393 34.2236 16.4533 4.7156 2.00448 -2.68738 3.11906 -0.178127 -0.903539 0.177469 0 0 0 0 0 0 0 0 0 
26.982 1 196 34.027 18.0774 2.72481 -5.72285 0.58968 3.08562 -0.19965 0.515193 -0.377112 0 0 0 0 0 0 0 0 0 
26.982 1 2233 34.3149 20.1931 4.50288 -2.36588 -5.71521 1.58604 -0.29216 -0.399673 -0.0519372 0 0 0 0 0 0 0 0 0 
26.982 1 2031 31.7182 20.1733 2.6871 -0.599469 3.90682 -3.43298 0.295297 -0.252366 -0.056051 0 0 0 0 0 0 0 0 0 
26.982 1 2033 34.0915 20.1003 0.794589 -1.15561 -3.9152 -2.47293 -0.0308698 -0.272975 -0.277627 0 0 0 0 0 0 0 0 0 
26.982 1 195 36.3955 16.1631 2.70608 -8.03986 5.38524 -3.22779 -0.00890366 0.0502276 0.135459 0 0 0 0 0 0 0 0 0 
26.982 1 394 36.3965 18.2477 4.56202 -2.5784 -0.390944 -0.262717 0.306119 0.147728 -0.309769 0 0 0 0 0 0 0 0 0 
26.982 1 2237 38.6795 20.2464 4.68539 -5.50667 -0.75936 1.84981 0.199522 -0.117608 0.115015 0 0 0 0 0 0 0 0 0 
26.982 1 397 39.0356 16.2673 4.69507 -0.425627 6.54837 -5.85984 -0.239243 0.0255502 0.161112 0 0 0 0 0 0 0 0 0 
26.982 1 200 38.7157 18.1544 2.75082 2.83221 -3.92878 -0.571733 -0.230271 0.166226 -0.200305 0 0 0 0 0 0 0 0 0 
26.982 1 2035 36.5787 20.1277 2.43266 -1.78168 3.24107 -5.81715 -0.450542 -0.02874 0.452981 0 0 0 0 0 0 0 0 0 
26.982 1 164 43.0731 18.3845 2.57953 1.73358 6.04265 3.78382 0.820705 -1.03593 0.900986 0 0 0 0 0 0 0 0 0 
26.982 1 199 41.0408 16.5797 2.62728 2.22392 -1.1815 -2.21297 -0.0674194 -0.900456 0.329089 0 0 0 0 0 0 0 0 0 
26.982 1 398 41.094 18.4253 4.8438 0.470252 3.22582 2.19182 -0.21068 -0.447413 -0.186994 0 0 0 0 0 0 0 0 0 
26.982 1 161 43.6175 16.2721 0.7117 2.15062 2.92553 -1.08628 -0.69602 0.0456512 0.052717 0 0 0 0 0 0 0 0 0 
26.982 1 198 41.0253 18.2968 0.662969 1.5183 8.58057 -0.355864 -0.0785039 -0.028338 -0.784064 0 0 0 0 0 0 0 0 0 
26.982 1 243 -0.472746 4.93904 6.7664 -0.433706 0.67518 -4.27261 -0.24164 -1.24106 -0.873941 0 0 0 0 0 0 0 0 0 
26.982 1 402 -0.319555 2.66639 8.69601 2.09012 1.77164 3.81394 -0.574932 0.313617 -0.109012 0 0 0 0 0 0 0 0 0 
26.982 1 204 -2.68969 2.79298 6.76748 -1.94434 -1.81969 -2.61992 0.162585 0.093484 -0.247502 0 0 0 0 0 0 0 0 0 
26.982 1 404 -3.00101 2.78094 10.511 -6.49973 0.47376 -2.83153 0.565996 -0.200316 0.367283 0 0 0 0 0 0 0 0 0 
26.982 1 203 -0.632995 0.802413 6.70322 2.27007 0.29938 -1.73203 -0.0486179 0.310258 -0.541191 0 0 0 0 0 0 0 0 0 
26.982 1 208 1.69684 2.7055 6.81523 -0.363524 1.14663 1.9423 0.243569 0.220849 -0.450999 0 0 0 0 0 0 0 0 0 
26.982 1 445 1.62461 4.72959 8.68768 1.2137 -2.47329 4.22187 0.333685 -0.041896 -0.0942521 0 0 0 0 0 0 0 0 0 
26.982 1 247 3.87011 4.78086 6.67615 -0.722218 -1.81298 1.30575 0.0264548 -0.444907 0.010265 0 0 0 0 0 0 0 0 0 
26.982 1 406 4.17431 2.81417 8.56338 2.02985 -4.34299 0.187922 -0.0209868 0.212048 0.0760508 0 0 0 0 0 0 0 0 0 
26.982 1 408 1.87579 2.70848 10.5619 -3.55038 0.627684 3.79221 -0.250565 0.082786 -0.277998 0 0 0 0 0 0 0 0 0 
26.982 1 447 4.18722 4.74061 10.4827 2.41589 -1.3919 -4.8787 -0.0637047 0.163323 0.0721825 0 0 0 0 0 0 0 0 0 
26.982 1 449 6.43139 4.76118 8.68235 2.69121 -0.887429 -1.81193 -0.274499 0.0552433 -0.22051 0 0 0 0 0 0 0 0 0 
26.982 1 212 6.31861 2.88375 6.52144 4.40834 -0.415839 1.5979 -0.0711369 -0.459385 0.360914 0 0 0 0 0 0 0 0 0 
26.982 1 251 8.4771 4.6895 6.78457 5.41166 -2.40546 -0.589542 0.40656 -0.326641 -0.424771 0 0 0 0 0 0 0 0 0 
26.982 1 410 8.68941 2.78875 8.80236 -0.77715 0.619079 -2.75123 0.110222 0.202994 -0.270757 0 0 0 0 0 0 0 0 0 
26.982 1 451 8.74532 4.92236 10.4945 -2.29239 -2.55402 2.84341 -0.163045 -0.281988 -0.0127396 0 0 0 0 0 0 0 0 0 
26.982 1 453 11.0477 4.94088 8.72069 -2.03493 0.95276 0.0383235 -0.0871233 0.467554 0.40928 0 0 0 0 0 0 0 0 0 
26.982 1 216 10.9361 3.0733 6.89065 0.692217 -0.94661 1.38101 0.0799586 -0.0683098 -0.26402 0 0 0 0 0 0 0 0 0 
26.982 1 255 13.5505 4.71545 6.55101 0.264319 1.25181 -0.371003 -0.159024 0.255163 -0.581882 0 0 0 0 0 0 0 0 0 
26.982 1 414 13.5173 3.03757 8.47958 -2.05331 2.32343 3.07127 -0.298676 -0.764848 0.400696 0 0 0 0 0 0 0 0 0 
26.982 1 455 13.1784 4.73682 10.597 1.98669 5.59527 -1.12837 0.358352 0.08784 -0.457869 0 0 0 0 0 0 0 0 0 
26.982 1 419 17.94 0.615797 10.5594 0.82071 1.65826 -2.70339 -0.0540871 -0.0889506 -0.274355 0 0 0 0 0 0 0 0 0 