ITEM: TIMESTEP
12850
ITEM: NUMBER OF ATOMS
4000
ITEM: BOX BOUNDS pp pp pp
-2.68586 43.1859
0.707203 39.7928
0.732992 39.767
ITEM: ATOMS mass type id x y z vx vy vz fx fy fz xrad yrad zrad vxrad vyrad vzrad fxrad fyrad fzrad 
26.982 1 43 -0.0662479 4.60121 2.78726 4.55156 1.42444 -3.18004 -0.673863 -0.195697 -0.13549 0 0 0 0 0 0 0 0 0 
26.982 1 202 -0.34894 2.5719 4.84931 -0.693786 -4.60162 2.11488 0.206932 0.385804 -0.305916 0 0 0 0 0 0 0 0 0 
26.982 1 3 -0.556376 0.7016 2.76974 3.22563 0.704779 -3.17886 0.256547 -0.283752 -0.253337 0 0 0 0 0 0 0 0 0 
26.982 1 4 -2.53806 2.755 2.93865 -0.614594 1.24234 -1.96007 0.00864356 -0.00400132 -0.422768 0 0 0 0 0 0 0 0 0 
26.982 1 241 -2.82323 4.75616 4.71688 2.13897 0.00270141 0.794347 0.385023 0.117031 -0.0847932 0 0 0 0 0 0 0 0 0 
26.982 1 245 1.87875 4.4295 4.70741 1.13089 -3.23888 -4.54888 0.179307 0.120774 0.135315 0 0 0 0 0 0 0 0 0 
26.982 1 8 2.08078 2.6368 2.84692 0.912011 -0.72542 2.24593 0.0633681 0.264958 -0.457584 0 0 0 0 0 0 0 0 0 
26.982 1 47 4.38083 4.69906 2.86392 0.821275 1.1608 -4.9187 -0.0451679 -0.502426 -0.0871833 0 0 0 0 0 0 0 0 0 
26.982 1 206 4.27388 2.34575 4.76073 4.09287 1.93166 -0.965055 0.113014 0.56028 -0.36968 0 0 0 0 0 0 0 0 0 
26.982 1 205 1.92183 0.458648 4.30494 -1.58173 1.53679 3.98313 -0.122978 0.334923 1.13306 0 0 0 0 0 0 0 0 0 
26.982 1 45 1.99286 4.50091 0.741568 2.31106 4.08712 3.83316 0.0739082 0.0100402 0.132459 0 0 0 0 0 0 0 0 0 
26.982 1 249 6.71413 4.71949 4.7233 -2.12203 -5.29476 -3.01836 -0.0825633 -0.296781 -0.250705 0 0 0 0 0 0 0 0 0 
26.982 1 12 6.67955 2.50536 2.99485 6.95844 -4.51088 2.21062 -0.415742 0.238878 -0.289992 0 0 0 0 0 0 0 0 0 
26.982 1 51 8.81918 4.59351 2.5417 -3.93717 1.16033 -0.0611332 0.00624207 -0.165509 0.237313 0 0 0 0 0 0 0 0 0 
26.982 1 210 8.91035 2.73381 4.7356 0.482052 2.55272 -3.70775 0.0809199 0.157537 -0.401589 0 0 0 0 0 0 0 0 0 
26.982 1 11 8.80926 0.513066 2.88187 -0.647111 2.54522 -3.87506 -0.100178 0.0955019 -0.0375048 0 0 0 0 0 0 0 0 0 
26.982 1 253 11.1759 4.4904 4.51246 -5.1098 0.154528 3.09706 -0.369457 0.0385396 0.207423 0 0 0 0 0 0 0 0 0 
26.982 1 16 10.77 2.55792 2.51736 -1.36199 5.20958 1.48251 0.499804 0.0798202 0.440136 0 0 0 0 0 0 0 0 0 
26.982 1 55 13.2477 4.56571 2.44209 -0.526745 -2.95139 1.37995 0.349477 -0.131419 0.0966407 0 0 0 0 0 0 0 0 0 
26.982 1 214 13.4532 2.81061 4.43027 0.286995 0.0525502 -0.941319 -0.0126615 -0.567494 0.403501 0 0 0 0 0 0 0 0 0 
26.982 1 14 13.0607 2.56846 0.75753 0.810431 -6.77586 5.1617 0.594138 -0.443045 0.102338 0 0 0 0 0 0 0 0 0 
26.982 1 15 13.381 0.617566 2.62541 0.838944 1.8279 -4.43254 -0.172228 0.564846 -0.115247 0 0 0 0 0 0 0 0 0 
26.982 1 57 15.6332 4.45744 0.595203 2.58591 -6.08366 0.724832 0.404112 0.101974 0.0742298 0 0 0 0 0 0 0 0 0 
26.982 1 20 15.6282 2.61116 2.51298 7.02611 -3.41814 -3.81509 -0.14233 0.087853 0.749866 0 0 0 0 0 0 0 0 0 
26.982 1 257 15.4816 4.76457 4.49578 2.71811 -4.34889 -2.42194 0.563467 -0.423623 0.554125 0 0 0 0 0 0 0 0 0 
26.982 1 218 17.8296 2.86241 4.59001 0.178161 0.375033 4.03259 0.000910775 -0.806463 0.747525 0 0 0 0 0 0 0 0 0 
26.982 1 59 17.8459 4.45837 2.7258 0.0868536 3.04384 -2.34001 0.188431 0.654498 -1.15193 0 0 0 0 0 0 0 0 0 
26.982 1 24 20.3413 2.50613 2.67796 -1.38678 -3.03463 -0.182269 -0.771285 0.713849 -0.231961 0 0 0 0 0 0 0 0 0 
26.982 1 261 20.1768 4.47595 4.59765 2.96577 -2.24147 1.00182 -0.214081 0.555353 -0.376195 0 0 0 0 0 0 0 0 0 
26.982 1 63 22.3917 4.57132 2.68499 -1.19162 -6.4528 -0.108149 0.115689 0.237922 -0.0505209 0 0 0 0 0 0 0 0 0 
26.982 1 222 22.2541 2.54587 4.56087 -1.63129 0.3047 -1.02589 0.822348 0.228647 0.390745 0 0 0 0 0 0 0 0 0 
26.982 1 28 24.7051 2.6175 2.55115 -9.38961 -5.85635 0.510666 0.14309 0.085083 0.312932 0 0 0 0 0 0 0 0 0 
26.982 1 265 24.6046 4.49287 4.61916 0.164946 1.15516 -5.04307 0.0829738 -0.168626 0.132499 0 0 0 0 0 0 0 0 0 
26.982 1 225 24.9736 0.717362 4.53491 -4.91791 3.14144 2.029 -0.42149 -0.0505333 -0.394342 0 0 0 0 0 0 0 0 0 
26.982 1 23 22.4607 0.768052 2.74996 -3.8368 1.39132 1.91432 0.414716 -0.992822 -0.485315 0 0 0 0 0 0 0 0 0 
26.982 1 22 22.5393 2.69248 0.72036 -0.52914 2.72127 -3.66448 -0.0559216 -0.20085 -0.26781 0 0 0 0 0 0 0 0 0 
26.982 1 67 26.9123 4.38223 2.54434 2.04915 -0.64565 -1.39505 0.2058 0.184164 -0.421365 0 0 0 0 0 0 0 0 0 
26.982 1 226 27.1118 2.77162 4.66011 -0.472866 -2.67805 0.577085 -0.115208 -0.354463 0.0404785 0 0 0 0 0 0 0 0 0 
26.982 1 32 29.2131 2.52312 2.43835 1.75738 2.37465 -2.00901 0.332399 0.433545 0.391481 0 0 0 0 0 0 0 0 0 
26.982 1 269 29.5117 4.39741 4.64097 -3.32465 0.871511 -1.84237 -0.322769 0.486201 -0.448605 0 0 0 0 0 0 0 0 0 
26.982 1 229 29.2258 0.925889 4.59898 4.14172 1.04781 1.11351 0.467815 -0.345393 0.196799 0 0 0 0 0 0 0 0 0 
26.982 1 27 27.1555 0.519297 2.70586 -1.3674 0.458776 -3.42362 -0.123736 0.568143 0.0499464 0 0 0 0 0 0 0 0 0 
26.982 1 71 31.6285 4.53767 2.76593 -2.42112 0.00810908 -0.805453 -0.0580632 -0.299926 0.0302405 0 0 0 0 0 0 0 0 0 
26.982 1 230 31.7708 2.54775 4.82039 3.14977 4.49737 -2.21846 0.130092 0.216758 -0.564513 0 0 0 0 0 0 0 0 0 
26.982 1 273 33.9389 4.74075 4.65501 3.28195 -2.19928 3.57269 0.115243 -0.673284 0.233738 0 0 0 0 0 0 0 0 0 
26.982 1 36 33.978 2.69013 2.77101 2.35455 -0.083397 -0.571568 0.0102305 0.213826 -0.0215076 0 0 0 0 0 0 0 0 0 
26.982 1 31 31.6566 0.767471 2.7518 2.07433 -3.87867 -5.11868 -0.0689818 0.0800191 -0.0542637 0 0 0 0 0 0 0 0 0 
26.982 1 75 36.3451 4.69618 2.8185 -0.987543 0.411823 -2.48161 -0.375848 -0.53993 -0.0066252 0 0 0 0 0 0 0 0 0 
26.982 1 234 36.3089 2.48763 4.67146 2.28112 -0.46171 -2.14009 0.110844 0.455678 0.0378951 0 0 0 0 0 0 0 0 0 
26.982 1 40 38.7815 2.68293 2.79572 0.794384 -0.698256 5.28107 -0.470418 -0.0727164 -0.0763154 0 0 0 0 0 0 0 0 0 
26.982 1 277 38.5084 4.60144 4.80042 -0.226125 -2.46746 1.52272 0.202948 0.373672 -0.449865 0 0 0 0 0 0 0 0 0 
26.982 1 34 36.1703 2.7899 0.814346 -2.27171 -1.01402 -3.72103 -0.054726 -0.384363 0.0382092 0 0 0 0 0 0 0 0 0 
26.982 1 77 38.2824 4.55227 0.823181 2.21478 0.580204 -1.44694 0.607141 0.283864 -0.22075 0 0 0 0 0 0 0 0 0 
26.982 1 79 40.9908 4.76578 2.80813 -0.533299 2.66845 4.21237 -0.214261 0.0555751 -0.22089 0 0 0 0 0 0 0 0 0 
26.982 1 238 40.8574 2.72494 4.54197 -2.40676 -1.32294 3.0511 0.229308 -0.303219 0.202589 0 0 0 0 0 0 0 0 0 
26.982 1 41 43.3256 4.57732 0.767423 -4.28879 4.45808 -0.823083 -0.134033 0.0373003 0.394018 0 0 0 0 0 0 0 0 0 
26.982 1 83 -0.330102 8.60471 2.58146 0.181279 6.61996 -4.01552 -0.144987 -0.306693 0.966146 0 0 0 0 0 0 0 0 0 
26.982 1 242 -0.423004 6.54445 4.72664 -3.7082 5.52982 -3.8815 -0.0301001 0.0365297 -0.511477 0 0 0 0 0 0 0 0 0 
26.982 1 282 -0.23762 10.4766 4.58592 1.27953 -0.238993 5.34112 -0.169302 0.162001 0.173837 0 0 0 0 0 0 0 0 0 
26.982 1 48 2.0464 6.51921 2.73344 1.81811 3.75185 3.00445 0.135568 -0.0319613 0.326144 0 0 0 0 0 0 0 0 0 
26.982 1 285 1.97703 8.58492 4.59947 1.72231 -0.457551 3.21816 -0.259409 -0.174795 0.232784 0 0 0 0 0 0 0 0 0 
26.982 1 87 4.31533 8.51298 2.63801 1.97717 8.39414 -0.771697 -0.168395 -0.4494 0.145785 0 0 0 0 0 0 0 0 0 
26.982 1 246 4.62622 6.558 4.87903 -3.0665 3.62356 0.512445 -0.487985 0.590992 -0.5656 0 0 0 0 0 0 0 0 0 
26.982 1 46 4.14501 6.46682 0.673148 4.97593 -0.951748 2.03925 0.14036 -0.00913316 0.322268 0 0 0 0 0 0 0 0 0 
26.982 1 289 6.60435 8.66964 4.74108 4.08357 1.73639 1.84388 -0.325814 -0.753813 -0.18722 0 0 0 0 0 0 0 0 0 
26.982 1 52 6.69964 6.61122 2.61925 -4.12985 -2.16062 0.764325 -0.147098 0.122969 0.244973 0 0 0 0 0 0 0 0 0 
26.982 1 91 8.95398 8.58627 2.61628 -5.30111 -1.48678 2.59485 -0.310186 -0.119746 0.208974 0 0 0 0 0 0 0 0 0 
26.982 1 250 8.90014 6.50049 4.59766 -0.873672 -0.054966 3.15714 -0.13897 0.124283 0.117625 0 0 0 0 0 0 0 0 0 
26.982 1 293 10.9428 8.43268 4.67958 7.38258 -1.39824 -2.62725 0.428439 0.210229 -0.0501678 0 0 0 0 0 0 0 0 0 
26.982 1 56 11.0437 6.47215 2.72003 4.06417 1.98589 -4.30281 0.0976097 0.253221 -0.093233 0 0 0 0 0 0 0 0 0 
26.982 1 95 13.2609 8.55504 2.86572 2.55017 0.710318 0.530471 0.33775 0.0751377 -0.149286 0 0 0 0 0 0 0 0 0 
26.982 1 254 13.3026 6.33971 4.40884 -0.941164 -3.82027 4.8137 -0.0660438 0.744715 0.442761 0 0 0 0 0 0 0 0 0 
26.982 1 54 13.4467 6.61357 0.794644 -4.76911 -2.70682 0.217099 -0.105558 0.40623 -0.275997 0 0 0 0 0 0 0 0 0 
26.982 1 294 13.5822 10.4313 4.92115 0.545807 -0.705938 -1.88394 -0.0747395 0.260934 -1.24527 0 0 0 0 0 0 0 0 0 
26.982 1 93 11.1675 8.38386 0.781101 -4.08581 3.55355 -1.76427 0.111545 0.408395 -0.0790253 0 0 0 0 0 0 0 0 0 
26.982 1 60 15.6329 6.52256 2.52516 1.05717 3.12625 2.07323 0.230312 0.31807 -0.0715644 0 0 0 0 0 0 0 0 0 
26.982 1 297 15.6757 8.382 4.70454 1.55529 -3.80917 -3.39565 -0.226757 -0.0231895 -0.513257 0 0 0 0 0 0 0 0 0 
26.982 1 99 18.0543 8.40316 2.59833 -3.73463 4.72275 -1.22224 -0.0524898 0.173635 -0.169542 0 0 0 0 0 0 0 0 0 
26.982 1 258 17.9061 6.53484 4.47003 -1.61463 -0.0776009 -3.28858 0.133907 -0.348813 0.56234 0 0 0 0 0 0 0 0 0 
26.982 1 298 17.911 10.5924 4.45915 2.64368 1.16263 1.96499 0.221689 -0.738654 0.222895 0 0 0 0 0 0 0 0 0 
26.982 1 97 15.5902 8.5207 0.608643 -0.254535 -1.91609 2.11934 0.246782 -0.341192 -0.0774259 0 0 0 0 0 0 0 0 0 
26.982 1 58 17.9978 6.39912 0.597455 0.326015 2.82134 5.57165 -0.0961689 0.362887 0.676292 0 0 0 0 0 0 0 0 0 
26.982 1 64 20.3551 6.52618 2.71603 0.430255 -4.5863 -1.47135 -0.436219 0.0786872 -0.280849 0 0 0 0 0 0 0 0 0 
26.982 1 301 20.2404 8.52312 4.67401 -4.00328 -4.88528 -4.37856 -0.0665784 -0.116969 -0.339097 0 0 0 0 0 0 0 0 0 
26.982 1 101 20.2593 8.71315 0.655608 -6.90406 0.800366 -3.14927 -0.262478 -0.432798 -0.262067 0 0 0 0 0 0 0 0 0 
26.982 1 103 22.4838 8.43356 2.63049 -5.90235 -3.00887 2.44215 0.316557 0.42034 0.399157 0 0 0 0 0 0 0 0 0 
26.982 1 262 22.4739 6.63662 4.64526 2.15326 0.249503 1.1138 0.137901 -0.243212 -0.164186 0 0 0 0 0 0 0 0 0 
26.982 1 305 25.0122 8.48746 4.56625 -0.52158 -3.75465 -0.317277 -0.442466 -0.277509 -0.349621 0 0 0 0 0 0 0 0 0 
26.982 1 68 24.7488 6.28206 2.64279 -3.65161 -4.09607 -5.24395 -0.244078 0.918127 -0.212615 0 0 0 0 0 0 0 0 0 
26.982 1 62 22.4527 6.75399 0.59082 1.26679 -1.26558 -0.283962 -0.0355332 -0.576402 0.0230999 0 0 0 0 0 0 0 0 0 
26.982 1 105 24.845 8.64526 0.819074 0.848127 1.41255 4.94486 -0.258389 -0.530937 0.464522 0 0 0 0 0 0 0 0 0 
26.982 1 107 27.1694 8.42537 2.78333 1.82358 -2.40668 2.03469 -0.234954 0.499795 0.118872 0 0 0 0 0 0 0 0 0 
26.982 1 266 26.8347 6.2929 4.46064 -3.6139 3.33339 1.80395 0.384101 0.0457575 0.463075 0 0 0 0 0 0 0 0 0 
26.982 1 72 29.1735 6.50874 2.73031 -1.75528 -1.12688 -3.86748 0.362995 -0.421055 0.847961 0 0 0 0 0 0 0 0 0 
26.982 1 309 29.6022 8.57056 4.80127 -0.343484 -5.89262 6.04781 -0.113432 -0.0420189 -0.305934 0 0 0 0 0 0 0 0 0 
26.982 1 111 31.5359 8.39179 2.59589 2.08571 1.04173 -1.13495 0.0298024 0.413042 0.640736 0 0 0 0 0 0 0 0 0 
26.982 1 270 31.7394 6.53056 4.77642 0.589833 -3.27607 -3.03568 -0.299207 0.170245 -0.447223 0 0 0 0 0 0 0 0 0 
26.982 1 76 33.9866 6.47899 2.72023 4.57828 3.35845 3.07104 -0.307141 0.178983 -0.14452 0 0 0 0 0 0 0 0 0 
26.982 1 313 33.9919 8.33055 4.84716 -5.79903 1.4972 -1.418 0.0531776 0.340452 -0.330873 0 0 0 0 0 0 0 0 0 
26.982 1 116 34.0315 10.3977 2.86709 -3.12566 0.329873 -0.0686141 -0.401664 0.111501 -0.331846 0 0 0 0 0 0 0 0 0 
26.982 1 115 35.9027 8.50133 2.50398 -2.30026 5.3254 4.33603 0.478389 0.169489 0.649562 0 0 0 0 0 0 0 0 0 
26.982 1 274 36.352 6.6378 4.61425 0.437681 4.07689 -3.68612 -0.220393 0.30191 0.453141 0 0 0 0 0 0 0 0 0 
26.982 1 80 38.3634 6.58137 2.7376 0.924 -2.73901 1.49868 0.613559 -0.119144 -0.0932521 0 0 0 0 0 0 0 0 0 
26.982 1 317 38.5549 8.55505 4.64773 -3.06021 -1.65031 1.06542 -0.0935237 0.0193131 -0.282429 0 0 0 0 0 0 0 0 0 
26.982 1 74 36.0317 6.58162 0.65287 -0.869629 0.215522 -0.32899 0.329534 -0.303849 0.254545 0 0 0 0 0 0 0 0 0 
26.982 1 84 43.3257 10.5919 2.57778 1.58938 -0.382734 1.90829 -0.317271 -0.143733 0.32931 0 0 0 0 0 0 0 0 0 
26.982 1 281 43.1731 8.56494 4.71576 -2.20047 -2.8925 3.1062 -0.217966 -0.00128216 -0.546845 0 0 0 0 0 0 0 0 0 
26.982 1 44 43.2094 6.71651 2.62407 -1.1443 -0.625127 -0.911927 0.123096 -0.279966 0.241355 0 0 0 0 0 0 0 0 0 
26.982 1 119 40.7883 8.39481 2.5641 6.10335 4.69001 -0.117749 -0.13511 0.276035 0.430773 0 0 0 0 0 0 0 0 0 
26.982 1 278 40.8235 6.55462 4.77658 3.79464 2.1709 -1.32802 -0.0970054 0.283893 -0.123939 0 0 0 0 0 0 0 0 0 
26.982 1 123 -0.0787006 12.4893 2.59216 -5.27472 -2.34649 -2.66969 -0.436489 0.0533216 0.188586 0 0 0 0 0 0 0 0 0 
26.982 1 322 -0.501816 14.3891 4.59468 1.79203 -1.42667 0.429624 0.135845 -0.360556 0.0452863 0 0 0 0 0 0 0 0 0 
26.982 1 321 -2.73306 12.3394 4.57976 1.87784 -0.296851 0.512668 0.14909 0.358551 0.341926 0 0 0 0 0 0 0 0 0 
26.982 1 124 -2.66775 14.4375 2.73801 0.606514 -1.28903 -2.30436 -0.165558 0.330471 0.00561926 0 0 0 0 0 0 0 0 0 
26.982 1 121 -2.85949 12.6557 0.750099 -3.19483 0.342143 1.00555 0.289939 -0.229676 -0.124129 0 0 0 0 0 0 0 0 0 
26.982 1 88 2.03556 10.4994 2.47266 0.892168 0.41881 1.74205 -0.113791 0.113698 0.333662 0 0 0 0 0 0 0 0 0 
26.982 1 325 1.84175 12.4475 4.71675 -2.5822 0.913589 2.79293 0.19166 -0.0890255 -0.353497 0 0 0 0 0 0 0 0 0 
26.982 1 128 1.99506 14.3297 2.64718 0.0394945 0.802251 -1.57926 -0.0871519 0.270882 0.179357 0 0 0 0 0 0 0 0 0 
26.982 1 286 4.08776 10.3304 4.6179 -0.543774 2.71035 0.376802 0.213749 0.592416 -0.0818671 0 0 0 0 0 0 0 0 0 
26.982 1 127 4.13802 12.365 2.65091 3.44546 -1.1439 4.18685 0.263812 0.232401 0.0648093 0 0 0 0 0 0 0 0 0 
26.982 1 326 4.47496 14.4151 4.7043 -1.09688 -4.1528 1.85546 -0.283566 -0.387363 -0.278624 0 0 0 0 0 0 0 0 0 
26.982 1 92 6.45719 10.4822 2.62408 1.25648 -1.28063 -7.74793 0.171584 -0.495955 -0.41453 0 0 0 0 0 0 0 0 0 
26.982 1 290 8.70897 10.3099 4.65908 5.34739 -2.16755 0.317285 0.535543 0.572006 -0.0524213 0 0 0 0 0 0 0 0 0 
26.982 1 329 6.42709 12.2418 4.46612 -0.858535 -1.37296 -2.40103 0.0275734 0.502153 0.584363 0 0 0 0 0 0 0 0 0 
26.982 1 132 6.6918 14.4262 2.75001 7.0153 0.706663 -3.04021 -0.29247 -0.0229391 0.125096 0 0 0 0 0 0 0 0 0 
26.982 1 131 8.84577 12.3657 2.7575 2.53649 -1.73213 1.93481 0.287299 -0.0304756 -0.0650052 0 0 0 0 0 0 0 0 0 
26.982 1 330 8.96416 14.309 4.65907 0.70925 -0.808673 -5.01811 0.0842808 -0.397717 0.154332 0 0 0 0 0 0 0 0 0 
26.982 1 96 11.2824 10.5323 2.60419 6.26343 7.75886 -1.56476 -0.199237 -0.277402 -0.0779473 0 0 0 0 0 0 0 0 0 
26.982 1 333 11.2075 12.262 4.5798 1.52168 -3.65884 -3.80291 -0.165015 0.39282 0.552923 0 0 0 0 0 0 0 0 0 
26.982 1 136 11.2503 14.304 2.78504 0.666655 -0.770287 2.75713 -0.321092 -0.304658 -0.431636 0 0 0 0 0 0 0 0 0 
26.982 1 135 13.5622 12.3741 2.7453 0.588198 -3.36489 -1.22807 -0.292762 -0.271697 -0.093446 0 0 0 0 0 0 0 0 0 
26.982 1 334 13.556 14.4537 4.60398 3.11228 -3.74895 3.17494 0.0923195 -0.21145 0.487575 0 0 0 0 0 0 0 0 0 
26.982 1 94 13.5136 10.3593 0.652985 1.14591 -6.34455 -0.643756 -0.323179 0.229671 0.300012 0 0 0 0 0 0 0 0 0 
26.982 1 133 11.3379 12.4663 0.60926 0.768149 0.404549 -3.08807 -0.360417 -0.025763 0.347626 0 0 0 0 0 0 0 0 0 
26.982 1 100 15.854 10.3035 2.53596 2.37041 -2.27232 1.67885 -0.580999 0.154723 0.468165 0 0 0 0 0 0 0 0 0 
26.982 1 137 15.5672 12.5067 0.712027 -0.770649 -0.555016 -0.738067 0.21347 -0.339324 -0.332868 0 0 0 0 0 0 0 0 0 
26.982 1 140 15.7529 14.3958 2.54567 0.253768 -0.578548 -4.15329 0.0431025 0.455183 0.344336 0 0 0 0 0 0 0 0 0 
26.982 1 337 15.73 12.3939 4.39644 2.11106 -0.97428 0.824009 -0.0602829 0.028305 0.456399 0 0 0 0 0 0 0 0 0 
26.982 1 139 17.9711 12.3476 2.49512 -2.7935 1.60478 3.25527 0.00852261 0.761117 -0.0218089 0 0 0 0 0 0 0 0 0 
26.982 1 338 17.9282 14.3661 4.48699 7.02638 -1.60852 0.872002 -0.0653214 0.0937671 0.239136 0 0 0 0 0 0 0 0 0 
26.982 1 138 17.8086 14.419 0.510452 2.55685 4.14809 -2.71687 0.207708 -0.0267664 0.187757 0 0 0 0 0 0 0 0 0 
26.982 1 98 17.8828 10.4463 0.731662 -3.88383 -3.31295 0.163384 0.266444 -0.284348 -0.773904 0 0 0 0 0 0 0 0 0 
26.982 1 104 20.2575 10.5243 2.66618 -1.4978 0.906146 2.74315 0.0340677 -0.274439 -0.0722984 0 0 0 0 0 0 0 0 0 
26.982 1 341 20.1833 12.3494 4.58606 0.64423 2.47596 0.348792 0.00772244 0.318642 0.291618 0 0 0 0 0 0 0 0 0 
26.982 1 144 19.9656 14.4091 2.69332 -0.828719 -3.72121 -2.78812 0.511556 -0.726586 -0.765004 0 0 0 0 0 0 0 0 0 
26.982 1 145 24.5829 12.2553 0.715526 -0.998408 -3.58546 0.830635 0.203351 0.463604 0.300542 0 0 0 0 0 0 0 0 0 
26.982 1 302 22.5873 10.465 4.67911 -0.303235 1.82158 -0.916296 -0.157031 -0.0988147 0.0565039 0 0 0 0 0 0 0 0 0 
26.982 1 102 22.4684 10.4423 0.760134 -0.877024 -0.637511 0.200571 -0.0849439 0.427042 0.0519666 0 0 0 0 0 0 0 0 0 
26.982 1 143 22.4058 12.4724 2.77248 -3.76588 -0.662424 -5.72577 0.0611321 -0.429904 -0.144491 0 0 0 0 0 0 0 0 0 
26.982 1 342 22.5176 14.4441 4.53324 -5.0642 -1.27761 0.191683 -0.0451696 0.120566 -0.0819636 0 0 0 0 0 0 0 0 0 
26.982 1 148 24.6875 14.3488 2.66111 -2.97077 0.669991 3.4083 0.0536042 0.0100486 0.00917217 0 0 0 0 0 0 0 0 0 
26.982 1 108 24.8563 10.6723 2.84697 -1.75566 0.924974 2.15541 -0.0607648 -0.459966 0.0150412 0 0 0 0 0 0 0 0 0 
26.982 1 345 24.865 12.5246 4.78983 -2.73762 -3.04522 0.565004 -0.181989 0.151572 -0.0251141 0 0 0 0 0 0 0 0 0 
26.982 1 306 27.2845 10.6791 4.70684 4.14515 -5.99064 -2.48062 -0.623285 -0.538997 -0.731164 0 0 0 0 0 0 0 0 0 
26.982 1 112 29.2072 10.5707 2.61862 0.514794 0.753352 0.0911505 0.22194 -0.709419 0.15622 0 0 0 0 0 0 0 0 0 
26.982 1 147 26.9731 12.6848 2.61664 -2.03396 4.41167 -1.35499 -0.0166632 -0.562648 -0.0585624 0 0 0 0 0 0 0 0 0 
26.982 1 346 27.0711 14.582 4.61477 -4.79311 -2.61792 3.71267 0.0705696 -0.560009 0.167125 0 0 0 0 0 0 0 0 0 
26.982 1 152 29.3233 14.5383 2.50352 4.08004 -0.849094 -2.62998 0.414331 -0.127299 0.788496 0 0 0 0 0 0 0 0 0 
26.982 1 349 29.2329 12.5623 4.51582 -2.6201 -2.97837 4.8066 0.273414 0.325515 0.0575647 0 0 0 0 0 0 0 0 0 
26.982 1 310 31.8538 10.307 4.69411 1.27465 -8.72007 3.77201 -0.312916 -0.120115 0.130025 0 0 0 0 0 0 0 0 0 
26.982 1 151 31.5805 12.3447 2.86829 -2.81175 -0.72344 -2.50595 -0.0324363 0.148631 -0.392129 0 0 0 0 0 0 0 0 0 
26.982 1 350 31.7016 14.4299 4.66554 1.77859 0.973679 -2.45454 -0.222634 -0.200129 -0.00631929 0 0 0 0 0 0 0 0 0 
26.982 1 153 33.9147 12.3542 0.623305 0.676831 5.35096 -2.76953 0.0451251 0.524231 0.919995 0 0 0 0 0 0 0 0 0 
26.982 1 156 34.0432 14.3826 2.71704 -0.338046 1.74807 1.46934 0.031097 -0.418916 0.152441 0 0 0 0 0 0 0 0 0 
26.982 1 353 33.7437 12.3772 4.66645 0.0493955 1.59418 -1.76248 0.425988 0.292248 0.287287 0 0 0 0 0 0 0 0 0 
26.982 1 120 38.5349 10.7162 2.72315 -1.70156 -6.0785 -0.766021 0.0224064 -0.440168 -0.164376 0 0 0 0 0 0 0 0 0 
26.982 1 314 36.4215 10.5183 4.71502 1.33116 -1.53261 1.99405 -0.204543 -0.529818 -0.067649 0 0 0 0 0 0 0 0 0 
26.982 1 155 36.2095 12.4413 2.89511 3.02781 0.0423416 -0.388451 -0.0457845 0.434228 -0.141479 0 0 0 0 0 0 0 0 0 
26.982 1 354 36.2738 14.4714 4.71323 -4.58493 5.1012 -4.8622 -0.0679851 -0.0822216 0.0133604 0 0 0 0 0 0 0 0 0 
26.982 1 160 38.7066 14.4512 2.72392 -2.03517 -2.12702 4.17102 -0.456717 0.134701 0.0252293 0 0 0 0 0 0 0 0 0 
26.982 1 357 38.5957 12.5695 4.62741 -2.41436 -0.3117 -0.309686 0.0118922 -0.101582 0.597191 0 0 0 0 0 0 0 0 0 
26.982 1 318 40.8045 10.4215 4.52672 2.69741 -1.7488 -3.65309 0.289755 0.120528 0.0805254 0 0 0 0 0 0 0 0 0 
26.982 1 159 40.8788 12.568 2.78918 7.29768 -4.89436 -2.41086 0.178977 -0.306838 0.227385 0 0 0 0 0 0 0 0 0 
26.982 1 358 40.9316 14.5251 4.71938 1.84154 -2.87985 -8.76742 0.03893 -0.448374 -0.485468 0 0 0 0 0 0 0 0 0 
26.982 1 158 40.6826 14.385 0.879719 2.93585 2.47741 -4.94589 0.656561 0.335319 -0.291137 0 0 0 0 0 0 0 0 0 
26.982 1 163 -0.432683 16.2354 2.63327 -1.84474 -4.6841 3.99165 0.239033 0.806057 0.266117 0 0 0 0 0 0 0 0 0 
26.982 1 362 -0.173628 18.2657 4.86545 -2.15521 -3.24797 -1.40299 -0.252648 0.0119806 -0.180405 0 0 0 0 0 0 0 0 0 
26.982 1 361 -2.65987 16.5174 4.81273 -3.42115 -5.49597 -6.48913 0.0247084 -0.52309 -0.153089 0 0 0 0 0 0 0 0 0 
26.982 1 2205 1.9257 20.5006 4.88876 -2.32088 -0.0551722 0.160581 -0.15527 -0.500336 -0.229478 0 0 0 0 0 0 0 0 0 
26.982 1 365 1.94171 16.3714 4.60463 -4.87111 -2.48064 1.24333 -0.229313 -0.709334 0.386775 0 0 0 0 0 0 0 0 0 
26.982 1 168 1.90718 18.3695 2.93498 0.180048 4.88198 0.128681 -0.247791 0.375664 -0.66735 0 0 0 0 0 0 0 0 0 
26.982 1 167 4.06717 16.2604 2.7207 3.27943 2.99539 1.25253 0.444398 0.0709835 0.176535 0 0 0 0 0 0 0 0 0 
26.982 1 366 3.99718 18.2821 4.69884 -4.77135 0.910032 -2.99155 0.537596 -0.37663 -0.0865607 0 0 0 0 0 0 0 0 0 
26.982 1 165 1.92012 16.5688 0.789235 -2.84101 -5.25534 -2.59032 0.0043545 -0.220508 0.311853 0 0 0 0 0 0 0 0 0 
26.982 1 369 6.6602 16.2436 4.75792 -4.6712 1.56998 -0.0673583 -0.254803 0.293557 0.239931 0 0 0 0 0 0 0 0 0 
26.982 1 172 6.42362 18.2831 2.93966 0.548771 -0.809159 1.15015 0.248728 -0.915662 -0.428848 0 0 0 0 0 0 0 0 0 
26.982 1 171 8.8845 16.3175 2.88027 0.0541124 -3.91521 0.567509 -0.0636653 0.158281 -0.141253 0 0 0 0 0 0 0 0 0 
26.982 1 370 8.80656 18.3493 4.84675 -2.79275 -0.336124 2.58864 0.0685914 -0.130615 0.0387852 0 0 0 0 0 0 0 0 0 
26.982 1 176 11.0356 18.315 2.58453 0.760255 -4.65265 -3.31916 0.120258 -0.061647 0.363089 0 0 0 0 0 0 0 0 0 
26.982 1 373 11.2102 16.3089 4.57711 -0.0970069 1.91146 5.38868 -0.195477 0.321104 -0.0256729 0 0 0 0 0 0 0 0 0 
26.982 1 175 13.263 16.1721 2.68272 -4.11061 2.24828 -2.68209 0.4752 1.18975 -0.114907 0 0 0 0 0 0 0 0 0 
26.982 1 374 13.381 18.3302 4.5347 -4.72345 -2.995 0.902813 0.108853 -0.799918 -0.0968949 0 0 0 0 0 0 0 0 0 
26.982 1 2015 13.3113 20.2217 2.73905 -3.69206 -0.756214 0.614277 0.21588 0.216471 -0.321449 0 0 0 0 0 0 0 0 0 
26.982 1 377 15.8018 16.4079 4.58449 -2.53204 2.30206 -4.09515 -0.158546 -0.0245772 0.178142 0 0 0 0 0 0 0 0 0 
26.982 1 180 15.6469 18.3052 2.6006 2.62848 1.89933 -0.00520349 -0.10882 0.185147 0.165429 0 0 0 0 0 0 0 0 0 
26.982 1 179 17.91 16.4222 2.42504 -7.48966 3.97626 -0.555048 -0.193686 -0.0875106 0.501846 0 0 0 0 0 0 0 0 0 
26.982 1 378 18.0879 18.3198 4.58968 2.5511 -3.28146 2.12503 -0.43254 0.0973276 -0.00493207 0 0 0 0 0 0 0 0 0 
26.982 1 2019 17.8801 20.2501 2.64301 5.63827 1.35888 2.55352 0.126168 -0.213416 -0.161865 0 0 0 0 0 0 0 0 0 
26.982 1 2017 15.7056 20.2059 0.594051 -1.81123 0.593002 -1.01126 -0.158621 0.645589 0.604548 0 0 0 0 0 0 0 0 0 
26.982 1 2217 15.731 20.3338 4.67814 2.26538 1.31486 -2.74911 -0.0438992 -0.269007 -0.18217 0 0 0 0 0 0 0 0 0 
26.982 1 381 20.1097 16.3901 4.29686 -4.53488 0.156896 3.29636 0.233662 0.0563689 1.12819 0 0 0 0 0 0 0 0 0 
26.982 1 184 20.3449 18.385 2.62429 -0.595038 4.16418 -2.20921 -0.428174 -0.057815 0.051021 0 0 0 0 0 0 0 0 0 
26.982 1 2221 20.2491 20.2487 4.62319 -1.30374 3.83349 -5.36044 0.122891 0.316149 0.217469 0 0 0 0 0 0 0 0 0 
26.982 1 181 20.1575 16.3054 0.702682 -2.62083 1.83804 5.96801 0.0580355 0.0762372 -0.0759648 0 0 0 0 0 0 0 0 0 
26.982 1 183 22.3756 16.4554 2.58533 -2.32612 1.46917 3.68134 0.317743 -0.47324 0.289077 0 0 0 0 0 0 0 0 0 
26.982 1 382 22.5194 18.2611 4.8154 -0.797576 -1.65421 -2.3159 -0.0730219 0.224879 0.0527832 0 0 0 0 0 0 0 0 0 
26.982 1 385 24.8923 16.3456 4.65627 -4.00161 -2.44406 -0.0939239 -0.357466 -0.619474 0.369573 0 0 0 0 0 0 0 0 0 
26.982 1 188 24.8426 18.1299 2.82427 -1.03457 0.931841 0.582098 0.0554069 0.357994 -0.865524 0 0 0 0 0 0 0 0 0 
26.982 1 2023 22.6787 19.9797 2.72697 -0.946429 0.377903 -0.597903 -0.190009 0.388185 -0.31864 0 0 0 0 0 0 0 0 0 
26.982 1 187 27.12 16.4183 2.64983 3.80755 2.79052 4.70365 -0.0494121 -0.0157019 0.146128 0 0 0 0 0 0 0 0 0 
26.982 1 386 27.2521 18.107 4.77735 0.0338884 8.37968 1.56776 -0.124588 0.860024 -0.475155 0 0 0 0 0 0 0 0 0 
26.982 1 192 29.4791 18.3516 2.70451 2.45182 -1.28303 1.47989 0.198065 -0.0719675 0.326932 0 0 0 0 0 0 0 0 0 
26.982 1 389 29.3625 16.3152 4.75686 -4.07348 -1.71751 -0.635049 0.362094 0.109509 -0.2467 0 0 0 0 0 0 0 0 0 
26.982 1 2229 29.368 20.378 4.58624 -1.73555 0.371238 0.346992 0.304632 -0.220326 -0.0774398 0 0 0 0 0 0 0 0 0 
26.982 1 189 29.5891 16.4589 0.727752 2.40252 0.123434 4.7151 -0.0220397 0.202619 0.178637 0 0 0 0 0 0 0 0 0 
26.982 1 191 31.8919 16.3933 2.84875 2.57705 -0.61183 1.59799 -0.456002 0.389146 -0.0424639 0 0 0 0 0 0 0 0 0 
26.982 1 390 31.6957 18.4276 5.0051 -5.21877 -2.41048 1.54074 0.156693 -0.278635 -1.12007 0 0 0 0 0 0 0 0 0 
26.982 1 190 31.7397 18.195 0.760919 -1.96142 0.42829 -0.800604 0.283215 0.13566 -0.041025 0 0 0 0 0 0 0 0 0 
26.982 1 393 34.0723 16.3382 4.66994 -5.14658 2.45911 1.92273 0.0292341 0.226311 0.206739 0 0 0 0 0 0 0 0 0 
26.982 1 196 34.1589 18.2074 2.69761 -2.54379 -4.61536 2.67619 -0.136532 -0.0220456 0.123735 0 0 0 0 0 0 0 0 0 
26.982 1 195 36.4127 16.334 2.71833 -0.761163 2.65394 -0.90368 -0.197389 -0.0933866 -0.121527 0 0 0 0 0 0 0 0 0 
26.982 1 394 36.4734 18.3035 4.71298 -3.07605 1.91114 2.77814 -0.430885 -0.108309 0.0395891 0 0 0 0 0 0 0 0 0 
26.982 1 2237 38.63 20.2501 4.6282 -2.68151 0.987419 -0.275137 0.0313781 0.130729 0.0339397 0 0 0 0 0 0 0 0 0 
26.982 1 397 38.5604 16.2988 4.7303 -0.845513 -3.72867 1.19085 0.136269 0.263434 -0.351391 0 0 0 0 0 0 0 0 0 
26.982 1 200 38.4237 18.2406 2.79667 -0.633232 0.505871 0.609087 0.549648 0.0758835 -0.397581 0 0 0 0 0 0 0 0 0 
26.982 1 2035 36.3436 20.1869 2.72433 3.79398 4.12776 0.319013 0.0630211 0.252641 -0.159768 0 0 0 0 0 0 0 0 0 
26.982 1 2039 40.958 20.1848 2.73739 2.70342 0.00462485 -3.53127 0.113846 0.519511 -0.202328 0 0 0 0 0 0 0 0 0 
26.982 1 164 43.3742 18.3356 2.86985 3.28378 -2.23518 0.806525 -0.0989982 -0.00754388 -0.365389 0 0 0 0 0 0 0 0 0 
26.982 1 199 40.9195 16.4979 2.62052 0.218268 -1.41145 0.708904 0.110879 -0.508971 0.118376 0 0 0 0 0 0 0 0 0 
26.982 1 398 40.7721 18.2589 4.55094 -4.91801 -0.433807 1.75206 0.162514 0.142491 0.627552 0 0 0 0 0 0 0 0 0 
26.982 1 243 -0.558378 4.71109 6.76893 6.45857 -3.30251 0.274386 -0.15109 -0.501629 -0.652584 0 0 0 0 0 0 0 0 0 
26.982 1 402 -0.453174 2.56414 8.54895 -2.27194 -1.38234 1.33842 -0.112954 0.148284 -0.0617395 0 0 0 0 0 0 0 0 0 
26.982 1 443 -0.627389 4.73375 10.486 6.7717 -1.77389 2.58076 0.239823 -0.4664 -0.563034 0 0 0 0 0 0 0 0 0 
26.982 1 405 1.73187 0.796448 8.60893 -2.02464 -8.09909 -2.25968 -0.0438163 -0.217386 -0.00340827 0 0 0 0 0 0 0 0 0 
26.982 1 208 2.14903 2.44709 6.51796 -2.85439 -0.821224 0.890214 -0.722209 0.0859521 -0.231854 0 0 0 0 0 0 0 0 0 
26.982 1 445 1.72793 4.48969 8.22513 0.981498 -1.71409 -3.94767 0.198559 -0.0482683 0.483491 0 0 0 0 0 0 0 0 0 
26.982 1 247 4.30276 4.53929 6.55813 0.220923 -0.839927 6.78396 -0.0623502 -0.456092 0.0342294 0 0 0 0 0 0 0 0 0 
26.982 1 406 4.28015 2.60209 8.55896 -2.15072 6.34419 0.205889 -0.0469348 0.0687452 0.196075 0 0 0 0 0 0 0 0 0 
26.982 1 408 1.80874 2.82454 10.4908 0.247433 -2.52318 1.49122 -0.549547 -0.303137 0.118848 0 0 0 0 0 0 0 0 0 
26.982 1 449 6.44392 4.45533 8.67635 1.56391 -8.98138 -1.31862 -0.0877413 -0.226433 0.419633 0 0 0 0 0 0 0 0 0 
26.982 1 212 6.66356 2.56857 6.48691 3.37566 -0.656198 -4.95364 -0.472968 0.606326 0.188964 0 0 0 0 0 0 0 0 0 
26.982 1 251 8.90966 4.6691 6.67692 -2.38852 -5.87795 0.82389 -0.138683 -0.286288 -0.281089 0 0 0 0 0 0 0 0 0 
26.982 1 410 8.77906 2.65439 8.59181 8.46658 1.72981 3.51269 -0.136408 0.18886 0.120588 0 0 0 0 0 0 0 0 0 
26.982 1 412 6.38116 2.3197 10.6262 0.0818245 1.68737 1.81136 0.0408731 0.715009 -0.253063 0 0 0 0 0 0 0 0 0 
26.982 1 451 8.75338 4.60635 10.6473 0.399818 -0.0376398 -5.52937 -0.0588872 -0.140488 0.039048 0 0 0 0 0 0 0 0 0 
26.982 1 453 11.0295 4.43373 8.58107 7.82892 -4.89092 0.316767 0.272609 0.873596 -0.0501884 0 0 0 0 0 0 0 0 0 
26.982 1 216 11.293 2.74609 6.56387 2.56133 0.292237 0.267658 -0.305183 -0.048498 -0.300581 0 0 0 0 0 0 0 0 0 
26.982 1 255 13.3898 4.73404 6.56143 2.70738 2.40548 -3.22994 0.197588 -0.258935 0.186449 0 0 0 0 0 0 0 0 0 
26.982 1 414 13.3697 2.61027 8.34881 0.344527 -1.90918 -1.9343 0.25103 0.427309 0.826482 0 0 0 0 0 0 0 0 0 
26.982 1 417 15.578 0.717989 8.53307 4.83023 0.984108 -0.529253 0.342477 -0.136441 -0.377389 0 0 0 0 0 0 0 0 0 
26.982 1 457 15.6476 4.53058 8.55175 0.837664 3.66441 -0.835839 0.0688672 -0.117342 -0.17045 0 0 0 0 0 0 0 0 0 
26.982 1 220 15.7714 2.66941 6.57986 0.773198 -2.82306 0.322849 -0.176467 0.156137 -0.227904 0 0 0 0 0 0 0 0 0 
26.982 1 259 18.0211 4.57922 6.72334 -0.483455 1.4723 -3.01058 -0.371837 0.277181 -0.371946 0 0 0 0 0 0 0 0 0 
26.982 1 418 18.1408 2.68591 8.60118 0.62014 -5.26159 -1.55529 -0.544651 -0.328409 0.0285272 0 0 0 0 0 0 0 0 0 
26.982 1 421 20.2418 0.755569 8.46536 -7.76582 1.13573 -2.5568 -0.170746 -0.214535 -0.0705738 0 0 0 0 0 0 0 0 0 
26.982 1 224 20.3701 2.70103 6.49865 -6.53102 -5.43855 1.49231 -0.669459 -0.21477 0.451586 0 0 0 0 0 0 0 0 0 
26.982 1 461 20.1278 4.70319 8.58018 2.52976 1.99603 -5.34995 0.546928 -0.0710643 0.0209393 0 0 0 0 0 0 0 0 0 
26.982 1 424 20.2465 2.69533 10.4754 -2.28522 2.46448 -2.84814 0.102806 -0.232887 0.601906 0 0 0 0 0 0 0 0 0 
26.982 1 263 22.4929 4.52849 6.39758 -2.03447 -0.661572 -0.949676 0.0347873 0.228867 0.512001 0 0 0 0 0 0 0 0 0 
26.982 1 422 22.3114 2.67871 8.47776 0.601394 -1.95713 1.71478 0.413721 0.345456 0.327949 0 0 0 0 0 0 0 0 0 
26.982 1 428 24.6801 2.57361 10.6369 -4.71902 -3.70596 -2.0727 -0.0375331 0.849048 -0.169305 0 0 0 0 0 0 0 0 0 
26.982 1 228 24.8151 2.44431 6.45725 -0.353341 -0.600348 2.30708 -0.0125147 0.569116 0.314261 0 0 0 0 0 0 0 0 0 
26.982 1 463 22.5204 4.42096 10.7408 1.23847 -4.6303 6.29586 -0.491312 0.0327928 -0.682104 0 0 0 0 0 0 0 0 0 
26.982 1 223 22.4664 0.74822 6.6019 -2.60348 5.1807 2.16992 0.109683 -0.141077 -0.248948 0 0 0 0 0 0 0 0 0 
26.982 1 465 24.634 4.44173 8.5056 -3.66763 -2.02131 5.07765 0.0186713 -0.245801 -0.254205 0 0 0 0 0 0 0 0 0 
26.982 1 425 24.6618 0.872279 8.62093 -1.12622 0.491979 3.69846 0.0834429 -0.458138 -0.208538 0 0 0 0 0 0 0 0 0 
26.982 1 267 26.955 4.63878 6.60738 5.56747 -3.23739 2.00636 -0.0110924 0.0644028 0.158116 0 0 0 0 0 0 0 0 0 
26.982 1 426 27.1073 2.48809 8.36445 -2.35361 4.75074 2.75416 0.052927 -0.169239 -0.144811 0 0 0 0 0 0 0 0 0 