ITEM: TIMESTEP
5650
ITEM: NUMBER OF ATOMS
4000
ITEM: BOX BOUNDS pp pp pp
-1.22251 41.7225
0.33037 40.1696
0.302174 40.1978
ITEM: ATOMS mass type id x y z vx vy vz fx fy fz xrad yrad zrad vxrad vyrad vzrad fxrad fyrad fzrad 
26.982 1 3 0.881038 0.4433 2.39086 -0.183557 6.02895 -6.39559 0.330284 -0.299968 -0.0578396 0 0 0 0 0 0 0 0 0 
26.982 1 8 3.21405 2.28681 2.18938 2.05173 4.70925 -1.23462 -0.0917011 -0.0556159 0.453348 0 0 0 0 0 0 0 0 0 
26.982 1 43 1.06735 4.3216 2.36889 -3.20744 0.337085 -1.00167 -0.409437 0.0639269 -0.20482 0 0 0 0 0 0 0 0 0 
26.982 1 202 0.866533 2.47011 4.27231 -3.0794 -2.72547 -1.73056 0.160719 -0.163101 0.146773 0 0 0 0 0 0 0 0 0 
26.982 1 205 3.07814 0.312991 4.33635 -1.43099 -4.25005 -0.759946 -0.0272872 0.236758 -0.272304 0 0 0 0 0 0 0 0 0 
26.982 1 201 -1.38288 0.387594 4.29594 -1.33712 1.64173 1.47995 0.567055 -0.0909963 -0.0635444 0 0 0 0 0 0 0 0 0 
26.982 1 245 3.19633 4.22429 4.27856 2.14307 -1.14946 1.56911 -0.0170572 0.405599 -0.266373 0 0 0 0 0 0 0 0 0 
26.982 1 47 5.29281 4.40272 2.29155 -3.44472 -0.853692 4.69449 -0.162057 -0.503775 0.179842 0 0 0 0 0 0 0 0 0 
26.982 1 206 5.45913 2.22616 4.28112 4.93168 2.8839 -0.314768 -0.641202 0.25901 -0.557987 0 0 0 0 0 0 0 0 0 
26.982 1 49 7.21916 4.38248 0.137225 -1.68789 2.12822 2.12423 0.240676 0.0032845 0.895634 0 0 0 0 0 0 0 0 0 
26.982 1 12 7.431 2.34247 2.32464 3.41351 -2.59247 3.17214 -0.18359 0.0167398 0.0763625 0 0 0 0 0 0 0 0 0 
26.982 1 249 7.4676 4.37142 4.36162 2.44832 -1.89766 -2.99784 -0.362373 -0.207589 -0.333604 0 0 0 0 0 0 0 0 0 
26.982 1 51 9.46327 4.28609 2.31125 2.75593 -2.22415 4.44137 -0.238315 0.00623238 0.0238827 0 0 0 0 0 0 0 0 0 
26.982 1 210 9.55723 2.35507 4.4457 -0.485448 0.543468 3.64322 -0.200774 -0.272531 -0.487317 0 0 0 0 0 0 0 0 0 
26.982 1 11 9.54711 0.24995 2.23206 -1.45814 1.94917 1.62875 -0.178451 -0.132945 0.207027 0 0 0 0 0 0 0 0 0 
26.982 1 10 9.54542 2.3202 0.410648 3.33581 -1.92137 -2.04877 -0.0330173 0.165821 -0.298481 0 0 0 0 0 0 0 0 0 
26.982 1 9 7.47454 0.469114 0.367517 2.69832 -0.144266 0.965425 -0.367536 -0.44091 0.149839 0 0 0 0 0 0 0 0 0 
26.982 1 209 7.57086 0.155537 4.3367 -0.00158567 -0.273156 -0.32938 -0.484489 0.430242 0.0303794 0 0 0 0 0 0 0 0 0 
26.982 1 16 11.5803 2.13293 2.3383 0.710113 0.777318 -1.75559 0.389704 0.517493 0.141403 0 0 0 0 0 0 0 0 0 
26.982 1 253 11.6259 4.294 4.18018 2.48127 -1.35377 0.647435 0.0635347 0.0830701 -0.116785 0 0 0 0 0 0 0 0 0 
26.982 1 55 13.7911 4.25158 2.50641 -0.622046 3.49263 6.11722 -0.121952 0.104351 -0.605389 0 0 0 0 0 0 0 0 0 
26.982 1 214 13.887 2.27481 4.41518 1.59549 -1.3421 2.57147 0.00357652 -0.404715 -0.631745 0 0 0 0 0 0 0 0 0 
26.982 1 20 15.9643 2.2629 2.39192 0.852701 -2.36958 -0.48508 0.0737863 -0.248004 -0.309883 0 0 0 0 0 0 0 0 0 
26.982 1 257 16.0309 4.29362 4.20644 -0.746076 3.46568 0.611293 0.36529 -0.427758 0.557374 0 0 0 0 0 0 0 0 0 
26.982 1 218 18.198 2.15855 4.3071 1.52412 4.80276 0.376954 -0.0703541 0.47543 -0.070751 0 0 0 0 0 0 0 0 0 
26.982 1 18 18.2007 2.28159 0.252199 2.59 -0.975446 -1.93187 -0.157225 0.053037 0.729632 0 0 0 0 0 0 0 0 0 
26.982 1 59 18.2265 4.29493 2.28202 5.22161 0.378493 5.08426 -0.239696 -0.537565 0.356933 0 0 0 0 0 0 0 0 0 
26.982 1 261 20.3329 4.15843 4.35343 0.484603 2.66993 4.54109 -0.142683 0.265111 0.124022 0 0 0 0 0 0 0 0 0 
26.982 1 221 20.4781 0.228325 4.40702 5.15905 -1.66293 -1.51289 -0.365885 0.606715 -0.20781 0 0 0 0 0 0 0 0 0 
26.982 1 24 20.4995 2.39415 2.34357 3.0602 -5.01673 -0.669505 -0.635652 -0.377939 -0.0902547 0 0 0 0 0 0 0 0 0 
26.982 1 63 22.4635 4.42959 2.26058 3.28785 3.80173 -0.00189307 0.44544 -0.430286 0.425395 0 0 0 0 0 0 0 0 0 
26.982 1 222 22.6972 2.45917 4.09656 0.481605 0.556018 2.55417 -0.441643 -0.165456 0.597609 0 0 0 0 0 0 0 0 0 
26.982 1 23 22.4159 0.402877 2.18952 1.71823 0.350413 1.62544 0.127213 -0.427402 0.329965 0 0 0 0 0 0 0 0 0 
26.982 1 28 24.8792 2.20392 2.21108 -4.18779 -4.06489 3.91524 -0.699598 0.652867 0.027807 0 0 0 0 0 0 0 0 0 
26.982 1 265 24.6581 4.34953 4.38662 1.7613 -2.32063 6.6015 -0.180778 0.0291982 -0.253027 0 0 0 0 0 0 0 0 0 
26.982 1 67 26.9754 4.19416 2.31552 0.050142 -1.78213 2.28881 -0.437716 -0.0641052 -0.266873 0 0 0 0 0 0 0 0 0 
26.982 1 226 26.7478 2.20842 4.17876 4.84843 1.1033 -2.40493 0.193215 -0.00373533 0.297427 0 0 0 0 0 0 0 0 0 
26.982 1 32 28.9708 2.04286 2.26332 5.08278 -2.24393 -4.26945 -0.339456 0.783397 0.180715 0 0 0 0 0 0 0 0 0 
26.982 1 269 28.8244 4.21041 4.32074 0.869657 3.48611 0.280425 0.470546 -0.295092 -0.369964 0 0 0 0 0 0 0 0 0 
26.982 1 225 24.4549 0.423371 4.21902 1.80227 2.21968 0.239 0.161749 -0.648676 0.0238794 0 0 0 0 0 0 0 0 0 
26.982 1 71 31.1327 4.25274 2.17859 -0.747499 -0.0159745 -0.889359 -0.182685 -0.509817 0.352925 0 0 0 0 0 0 0 0 0 
26.982 1 230 31.0289 2.0854 4.35641 -1.7371 0.653139 -0.547329 -0.273282 0.745387 -0.457338 0 0 0 0 0 0 0 0 0 
26.982 1 233 33.2637 0.147246 4.30098 0.0545388 3.48501 -0.401272 -0.395523 -0.0568997 0.12262 0 0 0 0 0 0 0 0 0 
26.982 1 30 31.0236 2.20661 0.112579 2.41629 2.64755 -2.47448 0.249476 0.12107 0.483419 0 0 0 0 0 0 0 0 0 
26.982 1 273 33.1033 4.30586 4.31637 -3.17245 1.15205 -4.65482 0.22091 0.192926 -0.144939 0 0 0 0 0 0 0 0 0 
26.982 1 36 33.1996 2.21716 2.39809 -4.96193 1.20943 -3.99338 -0.20961 0.213877 -0.200989 0 0 0 0 0 0 0 0 0 
26.982 1 35 35.2661 0.358242 2.27735 -5.33925 -1.42089 -4.50198 0.220733 -0.277616 0.369491 0 0 0 0 0 0 0 0 0 
26.982 1 75 35.3204 4.35823 2.35596 5.55294 3.02134 7.5921 0.196031 -0.128565 0.00630424 0 0 0 0 0 0 0 0 0 
26.982 1 234 35.3349 2.262 4.26471 -0.0662221 -0.192814 0.479474 -0.027927 0.0601048 0.288002 0 0 0 0 0 0 0 0 0 
26.982 1 277 37.3416 4.3297 4.27969 -2.6746 1.23271 4.47927 0.191837 0.0329081 0.327334 0 0 0 0 0 0 0 0 0 
26.982 1 77 37.5381 4.39767 0.381475 -0.750635 -3.43179 0.768958 -0.646182 0.196494 0.127882 0 0 0 0 0 0 0 0 0 
26.982 1 40 37.5809 2.37649 2.36386 0.279999 5.75553 4.55421 -0.336767 -0.356956 -0.22563 0 0 0 0 0 0 0 0 0 
26.982 1 41 41.5987 4.46192 0.293105 5.84494 -0.418675 2.39 0.21791 -0.262709 0.407912 0 0 0 0 0 0 0 0 0 
26.982 1 241 41.6536 4.4118 4.42598 -4.94136 2.35699 -3.53384 0.287162 -0.174604 -0.281061 0 0 0 0 0 0 0 0 0 
26.982 1 4 41.807 2.35048 2.1461 0.685657 2.28752 -1.44525 -0.348986 0.481836 0.345964 0 0 0 0 0 0 0 0 0 
26.982 1 79 39.4284 4.5029 2.356 -3.11474 -1.04709 1.16164 0.762049 -0.393295 -0.117731 0 0 0 0 0 0 0 0 0 
26.982 1 238 39.6863 2.35392 4.23791 -2.49575 0.983014 1.0761 -0.253039 0.129511 0.145353 0 0 0 0 0 0 0 0 0 
26.982 1 83 0.791095 8.22773 2.35957 -0.20984 -2.82073 -6.56595 0.209894 0.318113 -0.281049 0 0 0 0 0 0 0 0 0 
26.982 1 242 0.954572 6.27162 4.48702 -3.00943 -1.82673 1.57712 0.103573 -0.0492181 -0.411772 0 0 0 0 0 0 0 0 0 
26.982 1 285 2.97883 8.34603 4.29995 -5.88975 3.78656 1.32273 0.351079 -0.184692 -0.0678385 0 0 0 0 0 0 0 0 0 
26.982 1 42 0.743134 6.26788 0.296666 4.40453 4.80902 -1.53456 0.491996 0.0574875 -0.0120579 0 0 0 0 0 0 0 0 0 
26.982 1 48 2.94499 6.37769 2.34098 -1.22474 -2.353 -6.60481 0.401415 -0.616491 0.577333 0 0 0 0 0 0 0 0 0 
26.982 1 85 2.94699 8.06666 0.467736 0.418994 -7.43015 -0.666643 0.0684899 0.837365 -1.00205 0 0 0 0 0 0 0 0 0 
26.982 1 44 -1.12765 6.2804 2.40709 -3.06491 2.0341 2.52865 -0.361296 -0.261489 -0.178452 0 0 0 0 0 0 0 0 0 
26.982 1 87 5.36016 8.23068 2.21157 -0.47126 2.34543 1.7376 -0.665917 -0.132948 0.46872 0 0 0 0 0 0 0 0 0 
26.982 1 246 5.26955 6.2866 4.3269 0.97472 -0.236173 -0.426254 -0.361724 0.188343 0.0252794 0 0 0 0 0 0 0 0 0 
26.982 1 52 7.33013 6.28276 2.42697 -0.511209 2.91383 -0.997595 0.384021 -0.0893377 -0.528488 0 0 0 0 0 0 0 0 0 
26.982 1 289 7.24387 8.34677 4.26765 3.49402 5.26621 2.05224 0.47434 0.11365 0.185084 0 0 0 0 0 0 0 0 0 
26.982 1 89 7.35 8.19515 0.345082 -0.0695292 2.6123 1.78514 0.362089 -0.152826 -0.456026 0 0 0 0 0 0 0 0 0 
26.982 1 286 5.12899 10.3097 4.13033 -0.938067 4.86944 7.20252 -0.103471 -0.197739 0.270425 0 0 0 0 0 0 0 0 0 
26.982 1 88 3.03677 10.1628 2.28655 -0.0298423 0.0383048 -3.27135 -0.212771 0.31467 -0.374839 0 0 0 0 0 0 0 0 0 
26.982 1 92 7.34752 10.2956 2.11948 3.20301 5.9177 -6.85704 0.140977 -0.300059 0.402647 0 0 0 0 0 0 0 0 0 
26.982 1 91 9.47812 8.28912 2.20098 5.52744 -4.72539 0.0305225 0.0519184 -0.129154 0.0744557 0 0 0 0 0 0 0 0 0 
26.982 1 250 9.55189 6.2594 4.26613 -1.74462 4.8379 2.23911 -0.246157 0.498361 -0.15162 0 0 0 0 0 0 0 0 0 
26.982 1 50 9.47543 6.16383 0.185718 2.08764 -1.88492 4.07416 -0.250348 0.909427 0.495836 0 0 0 0 0 0 0 0 0 
26.982 1 290 9.41628 10.2603 4.10095 0.667765 -0.983429 5.10467 0.278166 -0.104932 0.645465 0 0 0 0 0 0 0 0 0 
26.982 1 93 11.5909 8.26976 0.143613 -1.12955 -1.59241 0.184099 0.267282 -0.221889 0.0944925 0 0 0 0 0 0 0 0 0 
26.982 1 56 11.4978 6.34816 2.23626 -4.13521 -4.04102 1.52208 0.437727 0.16869 0.19544 0 0 0 0 0 0 0 0 0 
26.982 1 293 11.6755 8.3446 4.24346 0.867322 0.862732 0.837123 -0.244847 0.0191391 -0.0475467 0 0 0 0 0 0 0 0 0 
26.982 1 95 13.8058 8.04079 2.11706 -3.02391 0.926316 -0.372635 -0.251602 0.4314 0.124483 0 0 0 0 0 0 0 0 0 
26.982 1 254 13.726 6.45462 4.41606 3.1093 -2.38322 1.08212 -0.103701 -0.201003 -0.484318 0 0 0 0 0 0 0 0 0 
26.982 1 60 15.8708 6.20286 2.46824 1.73276 -2.19248 -1.75062 0.246678 0.395357 -0.605049 0 0 0 0 0 0 0 0 0 
26.982 1 297 15.8676 8.28321 4.29176 -1.88957 -2.38968 -0.0303099 0.246355 0.267933 -0.166381 0 0 0 0 0 0 0 0 0 
26.982 1 294 13.7433 10.2306 4.05194 1.7235 -0.747836 1.6474 0.0473994 0.144939 0.448862 0 0 0 0 0 0 0 0 0 
26.982 1 94 13.8452 10.2825 0.323368 2.18704 0.026765 -3.46813 0.0366826 -0.156501 -0.27774 0 0 0 0 0 0 0 0 0 
26.982 1 99 18.0798 8.24143 2.37377 3.43985 -1.21028 -3.54339 0.139188 0.290053 0.106927 0 0 0 0 0 0 0 0 0 
26.982 1 258 18.1741 6.39309 4.40138 -3.93895 1.46001 0.387011 -0.223687 -0.508632 -0.168903 0 0 0 0 0 0 0 0 0 
26.982 1 301 20.2062 8.34252 4.50389 -1.11983 1.16702 -0.512735 0.144814 -0.290373 -0.500941 0 0 0 0 0 0 0 0 0 
26.982 1 101 20.3632 8.25397 0.570887 1.32397 -2.0531 1.583 -0.49175 0.575647 -0.323209 0 0 0 0 0 0 0 0 0 
26.982 1 64 20.1449 6.22018 2.37372 -3.8579 -0.611698 -0.450162 0.276506 0.229863 0.288942 0 0 0 0 0 0 0 0 0 
26.982 1 103 22.4362 8.33118 2.3263 1.5741 0.632952 -4.43108 0.413053 -0.182902 0.325322 0 0 0 0 0 0 0 0 0 
26.982 1 262 22.305 6.43558 4.24823 2.0161 2.04472 -0.5581 0.368763 -0.225371 0.522508 0 0 0 0 0 0 0 0 0 
26.982 1 305 24.7498 8.16565 4.31007 1.30311 -0.452506 0.693168 -0.433608 0.425259 -0.00339103 0 0 0 0 0 0 0 0 0 
26.982 1 302 22.4518 10.1655 4.32438 -1.4302 0.403012 4.88127 0.445308 -0.0798305 0.533347 0 0 0 0 0 0 0 0 0 
26.982 1 102 22.3852 10.3269 0.512138 -0.178513 0.464177 3.02175 0.0930594 0.185964 -0.22888 0 0 0 0 0 0 0 0 0 
26.982 1 68 24.6888 6.3069 2.25288 -4.9918 0.937154 -4.13402 -0.363704 -0.225497 0.236386 0 0 0 0 0 0 0 0 0 
26.982 1 107 26.7731 8.25197 2.23332 2.86223 2.47412 -4.7319 -0.221342 -0.0733791 0.0565113 0 0 0 0 0 0 0 0 0 
26.982 1 266 26.7628 6.20536 4.25591 -2.07046 4.37401 0.144533 0.0331767 0.107001 0.0599159 0 0 0 0 0 0 0 0 0 
26.982 1 108 24.7063 10.4396 2.34226 -2.2749 0.679465 3.15928 -0.174321 -0.564464 0.388496 0 0 0 0 0 0 0 0 0 
26.982 1 309 28.8868 8.17391 4.09103 -3.40706 1.43964 -1.69379 -0.13172 0.136661 0.370498 0 0 0 0 0 0 0 0 0 
26.982 1 72 29.0122 6.15126 2.09803 0.0220304 -0.769315 4.34572 -0.405465 0.148714 0.174872 0 0 0 0 0 0 0 0 0 
26.982 1 111 30.8906 8.2283 2.05187 -0.260142 9.29346 -0.930138 0.257616 0.0545618 0.145001 0 0 0 0 0 0 0 0 0 
26.982 1 270 30.9107 6.31131 4.10478 -1.96933 4.07448 -0.690214 0.501142 -0.415162 0.214013 0 0 0 0 0 0 0 0 0 
26.982 1 112 28.7879 10.2964 2.41349 3.98481 0.830395 -3.10322 0.0683546 0.340382 -0.332951 0 0 0 0 0 0 0 0 0 
26.982 1 310 30.9855 10.3061 4.16988 -2.20387 0.592826 -5.60784 -0.0593764 -0.198884 0.0886649 0 0 0 0 0 0 0 0 0 
26.982 1 313 33.1826 8.26486 4.19632 0.769922 -1.43812 -1.77913 -0.487499 0.0496704 0.278717 0 0 0 0 0 0 0 0 0 
26.982 1 116 32.8617 10.291 2.12697 -6.27234 3.61306 -0.543619 0.299327 0.34926 0.621871 0 0 0 0 0 0 0 0 0 
26.982 1 76 33.2256 6.276 2.29448 2.83932 0.107669 -2.12953 -0.41518 -0.171899 0.295725 0 0 0 0 0 0 0 0 0 
26.982 1 115 35.2268 8.31988 2.3563 4.42282 4.31152 -0.80869 0.571007 0.131861 -0.198077 0 0 0 0 0 0 0 0 0 
26.982 1 274 35.4108 6.44949 4.33337 3.23704 6.59951 0.578017 -0.174397 -0.573275 -0.01565 0 0 0 0 0 0 0 0 0 
26.982 1 117 37.5563 8.29528 0.360133 -3.18458 0.758189 -0.427585 -0.449224 0.0227589 -0.101396 0 0 0 0 0 0 0 0 0 
26.982 1 80 37.5669 6.5148 2.50544 -0.86181 0.0945605 6.6881 -0.43143 -0.184608 -0.593116 0 0 0 0 0 0 0 0 0 
26.982 1 317 37.5688 8.37191 4.4789 2.09816 1.24582 -2.65763 0.167825 0.231213 -0.459015 0 0 0 0 0 0 0 0 0 
26.982 1 314 35.2025 10.2057 4.15793 -3.21957 3.74913 -2.02542 0.152395 0.579148 0.339715 0 0 0 0 0 0 0 0 0 
26.982 1 74 35.2334 6.4177 0.469749 -3.20283 2.29892 -0.832065 0.615223 -0.387266 -0.733526 0 0 0 0 0 0 0 0 0 
26.982 1 281 41.7138 8.27135 4.23306 -1.04113 -3.93915 4.74535 0.0373748 0.387469 0.322806 0 0 0 0 0 0 0 0 0 
26.982 1 119 39.6989 8.3411 2.34462 -1.28819 -4.09298 -4.74007 -0.104546 0.163543 0.207629 0 0 0 0 0 0 0 0 0 
26.982 1 278 39.5563 6.28971 4.408 -2.81721 -3.98624 -1.93213 0.360805 0.228752 0.0892736 0 0 0 0 0 0 0 0 0 
26.982 1 318 39.7861 10.3635 4.55752 -1.72397 -0.0292194 -4.83492 -0.623047 0.106962 -0.906507 0 0 0 0 0 0 0 0 0 
26.982 1 123 0.933891 12.4129 2.40331 2.8209 3.93455 1.57059 0.0907361 -0.156174 -0.625884 0 0 0 0 0 0 0 0 0 
26.982 1 282 0.795163 10.3553 4.07329 -1.74426 -2.05009 -0.339395 0.316279 -0.0894554 0.72308 0 0 0 0 0 0 0 0 0 
26.982 1 322 1.09613 14.4645 4.24182 1.60709 -1.62782 -0.202112 -0.289371 0.0623237 0.292313 0 0 0 0 0 0 0 0 0 
26.982 1 124 -1.13428 14.3315 2.33112 1.55843 2.58006 1.74445 -0.282763 -0.168735 -0.271615 0 0 0 0 0 0 0 0 0 
26.982 1 82 0.793903 10.3513 0.237934 0.871227 5.12431 -2.13784 0.222504 -0.239021 0.581988 0 0 0 0 0 0 0 0 0 
26.982 1 321 -1.24751 12.4355 4.27633 3.64583 -3.97733 -0.151135 0.420056 0.00731643 0.239237 0 0 0 0 0 0 0 0 0 
26.982 1 128 2.96846 14.3706 2.18748 -4.32123 1.37931 4.62206 0.463046 -0.447217 0.00153678 0 0 0 0 0 0 0 0 0 
26.982 1 86 5.25616 10.1372 0.360493 -3.22156 -2.47755 1.33086 -0.463104 0.387378 -0.365313 0 0 0 0 0 0 0 0 0 
26.982 1 125 3.0056 12.1502 0.0595113 -0.822782 -1.92594 -1.35656 0.185386 -0.0852908 0.795969 0 0 0 0 0 0 0 0 0 
26.982 1 325 3.0378 12.3853 4.17805 -1.08113 1.85867 -2.41094 0.184233 -0.312247 0.25722 0 0 0 0 0 0 0 0 0 
26.982 1 127 5.09294 12.1362 2.07393 -1.3085 0.238435 1.17979 -0.0891012 0.444086 0.346147 0 0 0 0 0 0 0 0 0 
26.982 1 326 5.2275 14.2375 4.06067 -2.86724 -2.82844 5.17078 -0.293262 -0.363201 0.687733 0 0 0 0 0 0 0 0 0 
26.982 1 126 5.30922 14.1753 0.313228 1.95513 2.00106 0.8338 -0.270973 -0.287968 -0.35708 0 0 0 0 0 0 0 0 0 
26.982 1 132 7.36151 14.1409 2.35768 5.54514 2.00396 1.75862 0.105553 -0.0240733 -0.568078 0 0 0 0 0 0 0 0 0 
26.982 1 130 9.43267 14.2339 0.413558 0.363692 1.42909 -0.885731 0.240982 -0.228987 -0.123365 0 0 0 0 0 0 0 0 0 
26.982 1 329 7.15405 12.1078 4.20205 4.47045 -1.90694 -0.160751 0.439642 0.390446 0.196773 0 0 0 0 0 0 0 0 0 
26.982 1 131 9.40229 12.1736 2.26506 -0.853749 -2.18873 3.20069 0.488457 0.269017 -0.0224659 0 0 0 0 0 0 0 0 0 
26.982 1 330 9.53095 14.1246 4.3014 -1.87246 -1.21399 5.5447 0.109959 -0.0734527 0.0865275 0 0 0 0 0 0 0 0 0 
26.982 1 333 11.8663 12.3756 4.25987 -0.0689415 -4.42395 2.17222 -0.777792 -0.348508 0.0489574 0 0 0 0 0 0 0 0 0 
26.982 1 96 11.7408 10.35 2.22587 -1.38208 1.34513 1.75378 -0.377485 -0.438191 0.140364 0 0 0 0 0 0 0 0 0 
26.982 1 136 11.8068 14.2906 2.30936 -2.21353 4.42298 -2.91872 -0.47124 -0.243383 -0.252495 0 0 0 0 0 0 0 0 0 
26.982 1 135 13.7459 12.4106 2.19458 1.00902 -4.38491 -2.00396 0.430386 -0.15639 0.017878 0 0 0 0 0 0 0 0 0 
26.982 1 334 13.8178 14.3839 4.37562 2.19996 0.49648 2.67749 0.40296 -0.00555535 -0.364427 0 0 0 0 0 0 0 0 0 
26.982 1 100 15.8192 10.2489 2.33892 -3.10884 -2.50863 0.0797852 0.478464 0.262357 -0.247836 0 0 0 0 0 0 0 0 0 
26.982 1 337 15.8399 12.3197 4.26473 2.54202 4.306 0.197663 0.17842 0.0509414 0.0433654 0 0 0 0 0 0 0 0 0 
26.982 1 134 13.561 14.2194 0.0657565 1.18409 -5.44197 1.79005 0.694917 0.152191 0.362907 0 0 0 0 0 0 0 0 0 
26.982 1 298 18.0149 10.3103 4.39098 -0.273574 -1.78772 -5.44208 0.120755 0.130495 -0.379269 0 0 0 0 0 0 0 0 0 
26.982 1 140 16.0104 14.3791 2.50466 -0.813155 1.27352 -2.22675 -0.0647352 -0.238161 -0.426739 0 0 0 0 0 0 0 0 0 
26.982 1 139 18.0464 12.3289 2.34752 2.59801 -4.85475 0.0122387 -0.108663 -0.459168 0.247395 0 0 0 0 0 0 0 0 0 
26.982 1 144 20.1807 14.2449 2.57362 -1.50671 -2.46137 -2.41948 0.131235 0.300347 -0.381409 0 0 0 0 0 0 0 0 0 
26.982 1 338 18.0366 14.3669 4.4396 -2.52893 -4.36427 -3.773 0.085836 -0.126943 -0.0336038 0 0 0 0 0 0 0 0 0 
26.982 1 341 20.2074 12.2966 4.40716 0.417188 6.38631 -2.07827 -0.0481195 -0.0416725 0.359955 0 0 0 0 0 0 0 0 0 
26.982 1 142 22.4282 14.2001 0.609881 -1.48105 -3.56028 1.63142 -0.231102 0.132409 -0.694082 0 0 0 0 0 0 0 0 0 
26.982 1 104 20.4472 10.3255 2.51536 -1.66528 -2.28359 -2.7892 -0.936265 -0.118173 -0.342908 0 0 0 0 0 0 0 0 0 
26.982 1 143 22.3922 12.3245 2.67824 2.67029 3.25646 -1.79348 0.0672408 0.066185 -0.413249 0 0 0 0 0 0 0 0 0 
26.982 1 342 22.355 14.5069 4.49934 -0.910002 -5.27269 -3.4656 0.124935 -0.427013 -0.381654 0 0 0 0 0 0 0 0 0 
26.982 1 106 26.7779 10.3306 0.275085 -3.97795 3.81563 -0.225016 -0.325459 0.0443305 0.118504 0 0 0 0 0 0 0 0 0 
26.982 1 148 24.4569 14.2353 2.37824 -2.24819 2.09737 -0.176361 0.402279 0.182703 -0.0239159 0 0 0 0 0 0 0 0 0 
26.982 1 345 24.6001 12.3549 4.35123 -6.09527 -3.07326 -1.37246 0.271985 -0.170854 0.195011 0 0 0 0 0 0 0 0 0 
26.982 1 306 26.7282 10.2818 4.21685 -4.17768 -2.89785 2.68229 0.0600125 0.0925229 0.339523 0 0 0 0 0 0 0 0 0 
26.982 1 147 26.8779 12.4853 2.29089 1.43657 0.0640073 3.22207 -0.498083 -0.44921 0.176595 0 0 0 0 0 0 0 0 0 
26.982 1 346 26.7949 14.3406 4.28949 -0.696199 -1.81885 -0.00709039 -0.209737 -0.0569468 -0.00978809 0 0 0 0 0 0 0 0 0 
26.982 1 145 24.5883 12.2097 0.448973 -4.59112 -2.57726 5.2787 -0.0548496 0.424709 -0.564487 0 0 0 0 0 0 0 0 0 
26.982 1 110 30.7327 10.448 0.299219 -0.254197 -3.12763 1.04981 0.467634 -0.0940587 0.03015 0 0 0 0 0 0 0 0 0 
26.982 1 152 28.875 14.3576 2.28458 0.402832 0.627975 5.2754 -0.0525193 0.470422 0.186765 0 0 0 0 0 0 0 0 0 
26.982 1 349 28.8411 12.3289 4.47475 -1.42174 2.13069 -7.02726 0.101639 -0.257302 -0.587069 0 0 0 0 0 0 0 0 0 
26.982 1 151 30.7135 12.4499 2.23421 -4.45721 -4.49409 -2.29609 0.501892 -0.521766 -0.12282 0 0 0 0 0 0 0 0 0 
26.982 1 350 31.1318 14.051 4.33435 4.11883 -2.66642 -4.06906 -0.458623 1.12115 -0.0759798 0 0 0 0 0 0 0 0 0 
26.982 1 353 33.0895 12.2184 4.15287 2.0274 3.62438 -0.878389 0.332963 -0.20298 -0.00738379 0 0 0 0 0 0 0 0 0 
26.982 1 150 30.8848 14.4128 0.226511 -0.97191 -0.847362 5.27957 0.266994 -0.170617 0.463863 0 0 0 0 0 0 0 0 0 
26.982 1 155 35.2353 12.2688 2.28893 0.615993 0.510659 1.83635 0.121317 0.0186882 0.16658 0 0 0 0 0 0 0 0 0 
26.982 1 156 33.0993 14.3209 2.31022 1.6771 -0.0212968 2.39249 0.00924545 -0.034653 -0.0150899 0 0 0 0 0 0 0 0 0 
26.982 1 354 35.3892 14.1869 4.37539 0.350975 -1.54905 5.18811 -0.499967 0.00158728 -0.399802 0 0 0 0 0 0 0 0 0 
26.982 1 157 37.4518 12.3826 0.378378 1.02528 -7.76817 -6.75683 -0.105665 -0.569124 -0.457102 0 0 0 0 0 0 0 0 0 
26.982 1 114 35.3867 10.3283 0.356678 1.8646 -1.10584 -1.72774 -0.165478 0.128891 0.37748 0 0 0 0 0 0 0 0 0 
26.982 1 154 35.3511 14.2584 0.375408 3.55643 -1.49946 -0.90738 -0.179382 -0.0599736 -0.279603 0 0 0 0 0 0 0 0 0 
26.982 1 120 37.4936 10.2685 2.32878 1.81372 0.425381 -1.67349 -0.138093 -0.23113 0.096194 0 0 0 0 0 0 0 0 0 
26.982 1 84 41.6838 10.5905 2.26026 -2.35238 0.688164 -6.99587 0.262378 -0.878464 -0.193185 0 0 0 0 0 0 0 0 0 
26.982 1 160 37.5532 14.2289 2.20827 -1.94455 1.17197 -0.122948 -0.304255 0.56244 0.596251 0 0 0 0 0 0 0 0 0 
26.982 1 357 37.4013 12.2561 4.09875 0.735392 0.0333797 5.89839 0.299274 -0.000142501 0.558952 0 0 0 0 0 0 0 0 0 
26.982 1 159 39.6745 12.2581 2.41796 4.80815 -1.05823 3.20186 -0.497608 0.297727 -0.253801 0 0 0 0 0 0 0 0 0 
26.982 1 358 39.6415 14.2711 4.31024 1.82703 -4.38555 -2.21222 -0.153046 0.406962 -0.235319 0 0 0 0 0 0 0 0 0 
26.982 1 163 0.846559 16.2174 2.15014 -2.31215 -4.60563 -0.0917076 0.224177 0.698687 0.169311 0 0 0 0 0 0 0 0 0 
26.982 1 361 -1.09876 16.3327 4.18355 -0.409206 2.44122 0.922604 -0.324577 -0.0984925 0.293678 0 0 0 0 0 0 0 0 0 
26.982 1 362 0.955501 18.1426 4.39725 -4.39141 2.29433 -2.72462 0.361808 0.38382 -0.572016 0 0 0 0 0 0 0 0 0 
26.982 1 2003 0.840403 20.1732 2.35733 1.4181 -1.60196 0.00190048 0.405551 0.290506 -0.0488756 0 0 0 0 0 0 0 0 0 
26.982 1 2201 -1.19059 20.2233 4.0867 4.78942 4.09051 3.88641 -0.0288974 0.488463 0.621697 0 0 0 0 0 0 0 0 0 
26.982 1 164 -1.26866 18.3372 2.20239 -2.43058 5.49213 -0.861345 0.184525 -0.371794 -0.312107 0 0 0 0 0 0 0 0 0 
26.982 1 168 3.1018 18.1865 2.26604 0.618325 1.50211 -1.16856 0.0488855 0.166794 -0.0923857 0 0 0 0 0 0 0 0 0 
26.982 1 365 3.24956 16.3828 4.18007 -4.72335 -1.37688 0.913263 -0.271361 -0.314598 0.346454 0 0 0 0 0 0 0 0 0 
26.982 1 2205 3.11126 20.1434 4.23918 1.50004 1.68699 -1.04402 -0.0787267 -0.269761 0.574443 0 0 0 0 0 0 0 0 0 
26.982 1 167 5.22463 16.0621 2.13773 -2.47325 0.165537 1.5466 0.299498 0.891148 0.258121 0 0 0 0 0 0 0 0 0 
26.982 1 366 5.44504 18.1336 4.2544 -4.82663 -2.0972 -3.259 -0.193124 0.315938 -0.248052 0 0 0 0 0 0 0 0 0 
26.982 1 2007 5.24335 20.1615 2.46766 2.26472 -1.41396 -0.737162 -0.100324 -0.0518902 -0.458797 0 0 0 0 0 0 0 0 0 
26.982 1 169 7.36379 16.3473 0.199076 -0.148861 0.265645 0.357966 -0.0742868 -0.483388 0.177028 0 0 0 0 0 0 0 0 0 
26.982 1 166 5.25072 18.1374 0.253993 -4.57103 -1.11954 1.0167 -0.159358 0.289608 0.269589 0 0 0 0 0 0 0 0 0 
26.982 1 172 7.57358 18.1271 2.17687 0.462043 6.68004 3.68958 -0.456949 -0.321311 0.692137 0 0 0 0 0 0 0 0 0 
26.982 1 369 7.39361 15.9854 4.26866 1.25622 -0.667924 -0.127946 0.13076 0.699116 0.22989 0 0 0 0 0 0 0 0 0 
26.982 1 171 9.53454 16.1287 2.34228 -0.146945 -4.21531 0.859212 -0.191496 0.155686 -0.136542 0 0 0 0 0 0 0 0 0 
26.982 1 370 9.43173 18.1907 4.33558 2.58118 -1.85935 4.0332 0.0351306 -0.0448757 -0.199278 0 0 0 0 0 0 0 0 0 
26.982 1 176 11.6032 18.2571 2.2745 -2.95297 -2.83591 0.0270621 0.137819 -0.25128 -0.0494451 0 0 0 0 0 0 0 0 0 
26.982 1 2217 15.9553 20.3453 4.34176 2.82279 0.586552 1.71427 -0.273513 -0.636688 0.319987 0 0 0 0 0 0 0 0 0 
26.982 1 373 11.5735 16.2348 4.13355 -1.79776 0.47424 -3.2771 0.285287 0.259316 0.304691 0 0 0 0 0 0 0 0 0 
26.982 1 175 13.9439 16.2287 2.36966 -2.38306 0.1272 -0.291912 -0.391417 -0.209346 -0.707252 0 0 0 0 0 0 0 0 0 
26.982 1 374 13.8086 18.2282 4.15398 -4.79225 4.10078 -4.01763 -0.34333 0.389533 0.660043 0 0 0 0 0 0 0 0 0 
26.982 1 377 15.9533 16.4619 4.37225 0.744374 1.73923 1.07069 0.0997807 -0.399704 0.15579 0 0 0 0 0 0 0 0 0 
26.982 1 174 13.8091 18.2311 0.349996 3.42515 6.71785 0.244647 -0.207486 -0.0524373 -0.277062 0 0 0 0 0 0 0 0 0 
26.982 1 180 15.8164 18.2473 2.28633 3.6207 -2.53917 -1.8075 0.555752 0.253352 -0.0776539 0 0 0 0 0 0 0 0 0 
26.982 1 179 18.1159 16.2952 2.41864 -1.65023 2.04727 2.52656 -0.0140816 0.102506 -0.32738 0 0 0 0 0 0 0 0 0 
26.982 1 184 20.147 18.3547 2.41293 3.2133 -1.1201 2.75228 0.162389 -0.234319 -0.272065 0 0 0 0 0 0 0 0 0 
26.982 1 378 18.0659 18.2222 4.39872 1.13212 -3.26899 2.63751 -0.0972606 0.341666 0.102851 0 0 0 0 0 0 0 0 0 
26.982 1 178 17.9857 18.2869 0.354859 4.04471 2.11577 1.22677 0.282249 0.0151373 -0.0283475 0 0 0 0 0 0 0 0 0 
26.982 1 177 16.0972 16.0991 0.300415 2.77847 -3.85739 -1.68781 -0.764643 0.207775 0.505826 0 0 0 0 0 0 0 0 0 
26.982 1 381 20.1092 16.3186 4.4129 2.39378 -4.00365 -0.918258 0.254566 0.301934 -0.039279 0 0 0 0 0 0 0 0 0 
26.982 1 181 20.3194 16.2153 0.348504 0.0420471 -1.28417 1.83048 -0.144133 0.201976 0.168222 0 0 0 0 0 0 0 0 0 
26.982 1 2221 20.0329 20.3082 4.37636 2.06323 -6.97155 5.35559 0.66937 -0.306972 -0.0538767 0 0 0 0 0 0 0 0 0 
26.982 1 183 22.2346 16.3385 2.36809 -2.01241 -0.95023 2.01562 0.248399 -0.115915 0.102993 0 0 0 0 0 0 0 0 0 
26.982 1 382 22.3408 18.2369 4.35823 0.303853 -0.796734 2.72124 0.161275 -0.0341289 -0.000408074 0 0 0 0 0 0 0 0 0 
26.982 1 188 24.5057 18.3716 2.32023 2.56785 0.9926 5.19264 0.21902 -0.0164626 0.0583813 0 0 0 0 0 0 0 0 0 
26.982 1 182 22.4912 18.2585 0.418225 0.150296 2.05048 1.17682 -0.430041 0.374355 -0.1293 0 0 0 0 0 0 0 0 0 
26.982 1 2025 24.4961 20.3656 0.337044 -3.85055 5.23525 -0.136719 0.167647 -0.181308 0.18871 0 0 0 0 0 0 0 0 0 
26.982 1 385 24.594 16.2968 4.14297 2.78058 -3.33553 2.61816 -0.301474 0.191287 0.159258 0 0 0 0 0 0 0 0 0 
26.982 1 187 26.8224 16.4399 2.3314 3.2516 -1.01704 -3.44711 -0.410319 -0.100584 0.150006 0 0 0 0 0 0 0 0 0 
26.982 1 386 26.6787 18.4399 4.40874 -2.79527 3.51571 -1.6403 0.323195 -0.0362697 -0.635118 0 0 0 0 0 0 0 0 0 
26.982 1 2027 26.6215 20.3434 2.36205 -1.5936 5.06448 0.41482 0.17128 -0.017072 -0.176692 0 0 0 0 0 0 0 0 0 
26.982 1 192 28.741 18.3526 2.23918 2.10707 -0.849502 2.37655 0.235162 0.147575 0.104678 0 0 0 0 0 0 0 0 0 
26.982 1 389 28.9551 16.4017 4.33264 5.84825 1.95501 3.48865 -0.254848 -0.491399 -0.0582706 0 0 0 0 0 0 0 0 0 
26.982 1 2229 28.9413 20.3134 4.22433 2.46683 0.467786 1.78545 -0.385566 0.227895 0.0537716 0 0 0 0 0 0 0 0 0 
26.982 1 189 28.7575 16.428 0.275816 -1.78366 0.77595 0.66443 0.304842 -0.202998 -0.117779 0 0 0 0 0 0 0 0 0 
26.982 1 191 30.9865 16.3932 2.23274 -6.64395 1.751 3.89176 -0.228596 -0.481222 0.0938831 0 0 0 0 0 0 0 0 0 
26.982 1 390 30.9378 18.2182 4.21567 2.88624 -3.63134 0.269186 0.307528 0.0910622 0.268622 0 0 0 0 0 0 0 0 0 
26.982 1 393 33.2514 16.2988 4.15906 -1.2348 3.67316 1.87499 -0.45453 -0.519107 0.476395 0 0 0 0 0 0 0 0 0 
26.982 1 190 31.0118 18.1635 0.0874075 1.37089 -0.381337 -0.129273 -0.0839175 0.502735 0.340805 0 0 0 0 0 0 0 0 0 
26.982 1 2233 33.1484 20.2109 4.35779 0.0887458 -2.14294 2.28122 0.382077 0.0164887 -0.261653 0 0 0 0 0 0 0 0 0 
26.982 1 196 33.0182 18.2485 2.32603 1.00213 -3.0486 -2.20459 0.345471 0.404272 -0.447226 0 0 0 0 0 0 0 0 0 
26.982 1 195 35.17 16.2594 2.24967 2.1031 2.21062 2.18366 0.328279 -0.344997 -0.12829 0 0 0 0 0 0 0 0 0 
26.982 1 394 35.3591 18.2637 4.10379 -1.37362 -4.96572 5.3031 -0.208078 0.171567 0.629233 0 0 0 0 0 0 0 0 0 
26.982 1 200 37.4459 18.1272 2.34328 3.58103 2.2375 -0.618993 0.32329 0.359851 -0.18453 0 0 0 0 0 0 0 0 0 
26.982 1 397 37.2084 16.132 4.25237 4.02499 3.25302 -5.51003 0.855054 0.229646 -0.0625887 0 0 0 0 0 0 0 0 0 
26.982 1 199 39.6567 16.2568 2.24914 -3.90515 0.204403 0.0505234 -0.241957 -0.0116564 0.217926 0 0 0 0 0 0 0 0 0 
26.982 1 398 39.6716 18.3643 4.10524 0.824154 1.80693 -2.88801 -0.239537 -0.249418 0.301944 0 0 0 0 0 0 0 0 0 
26.982 1 197 37.3893 16.2829 0.224473 1.59692 3.57434 -0.443036 0.395566 0.0350511 0.475873 0 0 0 0 0 0 0 0 0 
26.982 1 243 1.07363 4.33374 6.42104 -2.45288 -0.719017 0.35848 -0.339469 -0.191058 -0.364575 0 0 0 0 0 0 0 0 0 
26.982 1 402 1.28148 2.46183 8.4349 3.17195 3.12839 0.96869 -0.718716 -0.591311 -0.278554 0 0 0 0 0 0 0 0 0 
26.982 1 408 3.22765 2.32446 10.5588 -2.77364 -7.75206 7.44377 -0.288406 -0.00888996 -0.905384 0 0 0 0 0 0 0 0 0 
26.982 1 404 -1.18662 2.31037 10.153 -4.5336 2.449 -4.28806 0.167302 0.250436 0.408808 0 0 0 0 0 0 0 0 0 
26.982 1 405 3.16475 0.399318 8.13823 -1.76001 -2.15265 0.959517 -0.12023 -0.117313 0.412915 0 0 0 0 0 0 0 0 0 
26.982 1 208 3.1642 2.39723 6.16765 0.374844 -0.425437 -3.44942 -0.104367 -0.240825 0.326025 0 0 0 0 0 0 0 0 0 
26.982 1 445 3.13298 4.29361 8.32832 2.80476 2.613 3.74976 0.283163 0.571436 0.0563671 0 0 0 0 0 0 0 0 0 
26.982 1 247 5.30762 4.30705 6.2774 -0.608572 4.50839 -4.68358 -0.177657 0.11485 0.223917 0 0 0 0 0 0 0 0 0 
26.982 1 406 5.04754 2.32377 8.41122 0.502205 2.66695 -3.12443 0.669307 0.0939095 -0.406969 0 0 0 0 0 0 0 0 0 
26.982 1 449 7.32917 4.31921 8.28777 3.86069 4.39152 3.47251 -0.269318 0.253496 -0.32985 0 0 0 0 0 0 0 0 0 
26.982 1 207 5.20356 0.376698 6.23147 -5.21785 5.42728 0.473937 0.474446 -0.290808 0.322743 0 0 0 0 0 0 0 0 0 
26.982 1 212 7.27516 2.3065 6.1804 -1.5608 -0.360836 -0.781469 0.375951 -0.206072 0.806009 0 0 0 0 0 0 0 0 0 
26.982 1 251 9.40445 4.38712 6.25173 1.08516 0.785414 1.42631 0.450796 -0.320604 0.24906 0 0 0 0 0 0 0 0 0 
26.982 1 410 9.45052 2.40553 8.18743 -2.6443 -2.70861 2.09022 0.0106369 -0.245212 -0.0922654 0 0 0 0 0 0 0 0 0 
26.982 1 453 11.6819 4.3013 8.11785 -1.39437 0.575401 -2.31175 0.122212 -0.189597 0.069518 0 0 0 0 0 0 0 0 0 
26.982 1 211 9.46581 0.430713 6.44919 2.71577 -1.81277 3.3305 0.303851 -0.470912 -0.155065 0 0 0 0 0 0 0 0 0 
26.982 1 417 16.0973 0.346029 8.23275 -0.0802362 -5.94439 3.1436 -0.125129 -0.38932 -0.0909544 0 0 0 0 0 0 0 0 0 
26.982 1 413 11.7478 0.498557 8.33703 1.38323 -3.7613 1.25865 -0.419746 -0.461892 -0.630105 0 0 0 0 0 0 0 0 0 
26.982 1 216 11.7718 2.40259 6.08844 0.871303 -1.82966 4.26326 -0.358792 -0.299803 0.670411 0 0 0 0 0 0 0 0 0 
26.982 1 255 13.9274 4.3443 6.06215 6.42708 -2.36313 -5.76318 -0.450736 0.111755 0.434749 0 0 0 0 0 0 0 0 0 
26.982 1 414 13.8546 2.30299 8.11563 1.02038 -10.8783 -3.04548 -0.379997 0.252367 0.366627 0 0 0 0 0 0 0 0 0 
26.982 1 415 13.6349 0.520959 10.2821 -3.86265 1.60153 -2.47196 0.570136 0.151282 0.184468 0 0 0 0 0 0 0 0 0 
26.982 1 416 11.6347 2.38212 10.1828 -4.92064 -1.58808 2.96299 0.0522669 0.348748 0.287833 0 0 0 0 0 0 0 0 0 
26.982 1 457 15.8633 4.40025 8.18627 2.88717 0.200043 5.49162 0.43497 -0.00140414 -0.251629 0 0 0 0 0 0 0 0 0 
26.982 1 420 15.9275 2.337 10.0113 -6.25781 -0.510358 -2.60214 -0.124557 -0.0588174 0.730722 0 0 0 0 0 0 0 0 0 
26.982 1 419 18.0151 0.336388 10.2411 -1.4092 2.71119 -4.9393 0.192741 -0.328241 0.399749 0 0 0 0 0 0 0 0 0 
26.982 1 220 15.86 2.28856 6.37983 -2.9469 -0.0350584 -0.370743 0.861421 0.104792 -0.487934 0 0 0 0 0 0 0 0 0 
26.982 1 259 18.0503 4.28772 6.33423 0.857847 5.41375 -2.56759 -0.0355643 -0.198803 -0.228325 0 0 0 0 0 0 0 0 0 