ITEM: TIMESTEP
16000
ITEM: NUMBER OF ATOMS
4000
ITEM: BOX BOUNDS pp pp pp
-3.32607 43.8261
0.854331 39.6457
1.00437 39.4956
ITEM: ATOMS mass type id x y z vx vy vz fx fy fz xrad yrad zrad vxrad vyrad vzrad fxrad fyrad fzrad 
26.982 1 43 -2.02566 5.62488 2.52035 -2.54466 0.6854 -1.4122 0.302742 0.105787 -0.379129 0 0 0 0 0 0 0 0 0 
26.982 1 202 -1.46654 3.48226 4.10787 0.0881303 -0.372363 -0.146104 0.258572 -0.104012 0.194748 0 0 0 0 0 0 0 0 0 
26.982 1 964 42.9366 18.1269 17.7555 -1.6457 -1.86263 -4.79257 -0.0453301 0.00714563 0.466318 0 0 0 0 0 0 0 0 0 
26.982 1 961 42.7188 15.9868 15.9839 -1.2443 -0.659811 -0.570977 -0.177911 0.283273 0.212857 0 0 0 0 0 0 0 0 0 
26.982 1 5 -0.0828389 1.28026 1.53087 -3.14237 0.312188 -4.00685 -0.273803 0.38476 -0.636659 0 0 0 0 0 0 0 0 0 
26.982 1 245 1.60736 4.24743 4.44098 1.0899 -5.42463 -7.45212 0.0860045 -0.121355 0.632814 0 0 0 0 0 0 0 0 0 
26.982 1 8 1.66881 3.6787 1.62053 -2.80726 1.48495 -2.3636 0.22635 0.0403841 0.105102 0 0 0 0 0 0 0 0 0 
26.982 1 47 3.95717 5.06668 2.98054 3.73029 -1.0826 1.33509 0.0526177 -0.223552 -0.586045 0 0 0 0 0 0 0 0 0 
26.982 1 206 3.75576 2.47796 3.63042 1.80016 1.10058 -5.53688 0.320335 0.0140344 -0.594515 0 0 0 0 0 0 0 0 0 
26.982 1 19 18.3854 1.02179 2.66145 0.960083 3.99529 2.91797 0.486198 0.0093786 0.298179 0 0 0 0 0 0 0 0 0 
26.982 1 205 0.989954 1.74151 4.00614 2.3976 2.498 -5.02404 -0.51995 0.160548 0.0269768 0 0 0 0 0 0 0 0 0 
26.982 1 249 6.68022 5.33537 4.56166 5.02344 -0.229314 -2.26949 0.0284905 -0.170956 0.363086 0 0 0 0 0 0 0 0 0 
26.982 1 12 6.41197 3.03959 2.8232 -6.31023 8.49678 -0.818483 -0.244955 0.674199 -0.396217 0 0 0 0 0 0 0 0 0 
26.982 1 51 8.66254 4.77253 2.01816 3.23957 6.12599 4.72077 0.174238 -0.371199 0.0592318 0 0 0 0 0 0 0 0 0 
26.982 1 210 8.93896 2.96672 4.29996 4.16969 -4.7293 -3.85392 0.0391088 0.173393 -0.28828 0 0 0 0 0 0 0 0 0 
26.982 1 113 34.1993 8.41538 1.18748 0.429034 -0.263952 2.56128 -0.528473 0.6623 -0.320059 0 0 0 0 0 0 0 0 0 
26.982 1 253 11.1244 4.8025 4.07814 2.11798 -1.61601 2.66464 0.0653471 -0.49911 -0.397689 0 0 0 0 0 0 0 0 0 
26.982 1 16 10.9127 2.78313 1.98579 3.3257 -2.2132 7.47035 0.0122067 -0.14965 0.146256 0 0 0 0 0 0 0 0 0 
26.982 1 55 14.0151 5.27348 3.38198 -1.16957 2.43341 -1.80502 0.608795 0.441377 -0.369706 0 0 0 0 0 0 0 0 0 
26.982 1 214 13.2658 2.88727 4.10823 0.453249 -0.559981 0.832761 -0.154148 -0.799928 0.0345987 0 0 0 0 0 0 0 0 0 
26.982 1 2227 27.5716 20.2184 6.83608 -0.582364 2.59463 -0.6016 -0.131462 0.117978 0.116791 0 0 0 0 0 0 0 0 0 
26.982 1 811 9.81263 1.13813 18.2749 0.536646 -4.76043 -0.47676 -0.499694 -0.234274 -0.159138 0 0 0 0 0 0 0 0 0 
26.982 1 20 16.0613 2.91435 3.23167 3.97237 -3.6028 -0.351058 0.255253 0.467076 -0.0881615 0 0 0 0 0 0 0 0 0 
26.982 1 257 16.2639 5.18997 5.12332 0.00144371 0.600626 2.72179 -0.242257 0.0498034 -0.0498032 0 0 0 0 0 0 0 0 0 
26.982 1 218 18.2679 3.01547 4.97817 -4.18422 -3.50474 2.98648 -0.0886681 0.167423 -0.436957 0 0 0 0 0 0 0 0 0 
26.982 1 110 31.9353 10.2319 1.06216 -5.64152 -3.63594 -5.99582 -0.352268 0.300191 -0.0568325 0 0 0 0 0 0 0 0 0 
26.982 1 2835 36.3381 19.9126 18.2787 -1.13378 2.06513 -2.80506 -0.0474364 0.0506465 0.504209 0 0 0 0 0 0 0 0 0 
26.982 1 417 16.2439 1.0664 8.56389 -4.38504 -1.41007 1.12191 0.289004 -0.0728912 0.0384006 0 0 0 0 0 0 0 0 0 
26.982 1 59 18.2253 5.00404 3.06716 1.5743 3.28398 5.60406 -0.0194431 0.270452 -0.469622 0 0 0 0 0 0 0 0 0 
26.982 1 24 20.4271 3.14859 2.9221 -2.42677 -2.25885 1.57298 0.156399 -0.239708 -0.174323 0 0 0 0 0 0 0 0 0 
26.982 1 261 20.4381 5.16659 4.69427 2.90241 -7.28072 -1.65274 0.424861 -0.284306 0.339926 0 0 0 0 0 0 0 0 0 
26.982 1 154 36.4639 14.2919 1.28963 -0.271534 0.562508 0.267938 -0.381876 0.192664 0.420691 0 0 0 0 0 0 0 0 0 
26.982 1 63 22.8043 4.91481 2.6333 0.12141 1.4946 -4.40167 -0.248643 0.067013 0.527069 0 0 0 0 0 0 0 0 0 
26.982 1 222 22.8577 3.0047 4.49895 -1.58841 -2.57038 1.30328 -0.671653 -0.317164 0.734604 0 0 0 0 0 0 0 0 0 
26.982 1 28 24.9782 2.75245 2.78678 0.73756 -1.57967 -2.73359 0.392356 0.0329409 0.0181229 0 0 0 0 0 0 0 0 0 
26.982 1 265 24.8029 4.91209 4.70739 1.24338 0.600849 0.489583 0.485343 -0.274983 -0.0268287 0 0 0 0 0 0 0 0 0 
26.982 1 813 11.6633 1.02792 16.0548 -3.28198 -6.25103 2.03232 -0.111964 -0.154088 -0.0649845 0 0 0 0 0 0 0 0 0 
26.982 1 118 40.527 10.668 1.15014 2.70407 2.47354 -1.00906 0.238213 -0.128159 -0.0648728 0 0 0 0 0 0 0 0 0 
26.982 1 998 40.7102 18.0437 16.0923 6.28536 -2.04667 -4.59476 -0.0273469 0.334202 0.103787 0 0 0 0 0 0 0 0 0 
26.982 1 211 9.17678 0.891585 6.05318 1.78899 -5.21151 -5.59152 -0.333315 0.0913597 -0.0394612 0 0 0 0 0 0 0 0 0 
26.982 1 67 27.2176 4.55191 2.88992 4.46616 -0.40704 0.517421 -0.125243 0.376304 0.222198 0 0 0 0 0 0 0 0 0 
26.982 1 226 27.1954 2.59834 4.92141 -1.88319 -3.02941 0.667089 -0.109414 0.0392165 -0.0603228 0 0 0 0 0 0 0 0 0 
26.982 1 32 29.5356 2.89722 3.2025 -2.53772 -4.52186 -1.33354 0.12499 -0.123843 -0.137495 0 0 0 0 0 0 0 0 0 
26.982 1 269 29.4007 4.71377 5.10826 -1.62695 1.64629 -1.98985 -0.200684 -0.491691 -0.175273 0 0 0 0 0 0 0 0 0 
26.982 1 57 16.4232 5.30319 1.01774 1.20288 -6.49758 1.49916 0.0591163 -0.267582 0.385504 0 0 0 0 0 0 0 0 0 
26.982 1 2839 40.8723 20.1656 18.1216 1.10881 -4.87188 -5.59021 -0.3405 -0.431757 -0.573274 0 0 0 0 0 0 0 0 0 
26.982 1 26 27.3564 2.70199 1.10246 -0.66142 2.65592 -4.7703 -0.0597313 -0.0383231 -0.314901 0 0 0 0 0 0 0 0 0 
26.982 1 17 16.1095 0.997081 1.22386 0.802988 -5.75243 2.79125 0.190464 0.0354067 -0.190912 0 0 0 0 0 0 0 0 0 
26.982 1 71 31.7875 4.77477 3.06015 -5.17989 5.1217 -2.64617 -0.247793 -0.509196 0.378786 0 0 0 0 0 0 0 0 0 
26.982 1 230 32.0237 2.66577 5.17343 -0.909131 -3.84178 0.121232 -0.341417 0.0583956 -0.2832 0 0 0 0 0 0 0 0 0 
26.982 1 273 34.1179 4.70304 5.17387 -1.06301 0.621642 0.935817 -0.0634776 -0.389172 -0.300973 0 0 0 0 0 0 0 0 0 
26.982 1 36 34.1032 2.73902 3.15791 -1.42458 2.34128 -0.965268 -0.0265857 0.10665 0.604279 0 0 0 0 0 0 0 0 0 
26.982 1 203 -1.28332 1.47558 6.30428 -0.618659 4.34941 -0.757604 0.438187 -0.111213 -0.212655 0 0 0 0 0 0 0 0 0 
26.982 1 999 40.9228 16.1307 18.1658 2.42294 -4.02424 1.42893 -0.055547 -0.173553 0.123066 0 0 0 0 0 0 0 0 0 
26.982 1 75 36.1293 4.87516 3.08196 -0.967869 -2.84676 0.446236 0.202018 -0.45144 0.510262 0 0 0 0 0 0 0 0 0 
26.982 1 234 36.1584 2.75691 5.37812 -4.25398 -5.38034 -1.46592 0.375778 0.578983 -0.363251 0 0 0 0 0 0 0 0 0 
26.982 1 40 38.4163 2.78132 3.20462 0.3266 0.292233 -7.25959 -0.136605 -0.120204 0.216903 0 0 0 0 0 0 0 0 0 
26.982 1 277 38.5075 4.7479 4.95545 -1.61563 -7.81255 1.78724 -0.316862 -0.363465 1.42289 0 0 0 0 0 0 0 0 0 
26.982 1 65 25.0644 4.86471 0.958613 -1.39926 -0.264049 -5.99843 0.103382 -0.308991 0.446289 0 0 0 0 0 0 0 0 0 
26.982 1 41 42.6405 4.8965 1.34952 -2.62402 0.582303 2.38258 0.246598 0.215903 -0.222097 0 0 0 0 0 0 0 0 0 
26.982 1 4 42.935 2.57945 3.29683 2.33115 0.00385474 1.46227 -0.164056 0.461295 0.35568 0 0 0 0 0 0 0 0 0 
26.982 1 241 43.4314 5.20842 4.60943 4.68828 4.061 -1.11872 -0.46587 -0.146292 0.231244 0 0 0 0 0 0 0 0 0 
26.982 1 79 40.5959 4.64507 3.07655 3.31996 -1.81973 -1.97978 0.47107 -0.349758 0.100633 0 0 0 0 0 0 0 0 0 
26.982 1 238 40.584 2.71916 5.10553 2.6302 1.3291 3.00605 0.606285 -0.0841837 0.371833 0 0 0 0 0 0 0 0 0 
26.982 1 129 6.98114 12.7573 1.30266 -6.4017 7.41909 0.395387 -0.84371 0.606993 0.613295 0 0 0 0 0 0 0 0 0 
26.982 1 83 -1.33037 8.4689 3.12263 0.888338 -5.71606 -6.39732 0.0683125 -0.0885158 -0.352662 0 0 0 0 0 0 0 0 0 
26.982 1 242 -1.00947 6.20634 5.01678 1.34349 -2.34779 0.945635 -0.263975 -0.0650308 0.214099 0 0 0 0 0 0 0 0 0 
26.982 1 281 43.8861 7.97253 5.40505 9.76481 -4.1288 -3.10561 0.120277 -0.039648 0.0986521 0 0 0 0 0 0 0 0 0 
26.982 1 282 -1.35585 10.4003 5.1674 4.4654 -4.03451 3.54911 0.267774 0.327806 -0.0623031 0 0 0 0 0 0 0 0 0 
26.982 1 2817 16.2209 19.505 16.6245 -4.27776 -1.81252 1.60473 0.405635 -0.0192921 -0.165645 0 0 0 0 0 0 0 0 0 
26.982 1 48 0.890528 6.33063 3.08943 -3.82697 2.57289 -0.000819072 0.101862 0.59694 -0.815055 0 0 0 0 0 0 0 0 0 
26.982 1 285 1.15583 8.62598 4.76284 6.87304 -1.44451 1.60739 -0.111736 0.433153 0.0981876 0 0 0 0 0 0 0 0 0 
26.982 1 87 3.29773 8.00525 1.94785 1.83591 -4.21496 0.624888 0.16842 -0.305875 0.236258 0 0 0 0 0 0 0 0 0 
26.982 1 246 3.37171 7.00866 4.56944 1.88094 -1.81096 -3.04188 0.118201 0.205175 0.680941 0 0 0 0 0 0 0 0 0 
26.982 1 88 1.06762 9.8514 2.02869 -4.41934 2.50131 -2.95495 -0.24139 -0.576175 0.363665 0 0 0 0 0 0 0 0 0 
26.982 1 286 4.33301 9.5641 4.12027 -1.04484 2.71594 -0.644593 0.277775 0.467421 0.231368 0 0 0 0 0 0 0 0 0 
26.982 1 289 7.03758 8.21137 3.96614 -0.952435 -0.350141 -5.45094 -0.961675 0.0768388 0.855207 0 0 0 0 0 0 0 0 0 
26.982 1 52 6.19344 6.25834 2.01917 2.33046 1.83047 -1.77277 -0.114493 -0.021986 -0.218458 0 0 0 0 0 0 0 0 0 
26.982 1 91 9.73425 9.10412 3.28273 -1.27376 1.75034 -1.57982 0.247013 0.790221 -0.29842 0 0 0 0 0 0 0 0 0 
26.982 1 250 9.17432 6.70319 3.91886 1.91818 5.47095 1.22086 0.267681 -1.19983 -0.0899686 0 0 0 0 0 0 0 0 0 
26.982 1 290 9.28006 11.0512 5.10547 3.67396 0.831977 2.76296 0.268763 0.272015 0.219376 0 0 0 0 0 0 0 0 0 
26.982 1 50 9.97532 7.12267 1.23228 -3.48723 3.45907 6.66672 -0.492161 -0.507742 0.103298 0 0 0 0 0 0 0 0 0 
26.982 1 89 7.56521 8.61399 1.5493 1.63368 -0.314759 3.20319 0.251581 0.271081 -1.21289 0 0 0 0 0 0 0 0 0 
26.982 1 293 11.8397 9.1628 5.28423 -1.30294 1.21863 5.63106 -0.143195 0.961393 -0.357666 0 0 0 0 0 0 0 0 0 
26.982 1 56 12.0444 7.25761 3.11602 -2.34229 -5.23864 -2.85361 -0.36039 0.293264 0.205966 0 0 0 0 0 0 0 0 0 
26.982 1 95 13.6218 9.52414 2.82504 -2.68307 -5.27463 0.113494 0.312417 0.372147 0.0909818 0 0 0 0 0 0 0 0 0 
26.982 1 254 14.0049 7.49898 4.99077 -3.53416 2.60651 0.0438797 0.603538 -0.50119 0.185413 0 0 0 0 0 0 0 0 0 
26.982 1 635 37.0922 1.03955 15.3674 3.12292 -1.59043 1.77062 -0.187325 0.567407 0.762626 0 0 0 0 0 0 0 0 0 
26.982 1 294 13.6231 11.7281 4.58516 5.21397 3.6673 -3.89912 0.00521634 -0.555347 0.492433 0 0 0 0 0 0 0 0 0 
26.982 1 633 35.0965 1.74909 13.4128 -4.19624 0.783229 1.46825 -0.0991628 0.00873183 -0.633215 0 0 0 0 0 0 0 0 0 
26.982 1 60 16.2299 7.35558 2.88107 2.81298 2.31423 1.94081 0.0609436 -0.323371 0.380218 0 0 0 0 0 0 0 0 0 
26.982 1 297 15.8858 9.52725 4.60884 -5.12208 -3.97419 1.70342 -0.152954 0.302151 -0.0853251 0 0 0 0 0 0 0 0 0 
26.982 1 99 18.2323 9.38209 2.72776 -0.621971 0.240879 -2.77692 0.101902 -0.536658 0.506266 0 0 0 0 0 0 0 0 0 
26.982 1 100 15.5522 11.8598 2.33998 0.946176 -0.428514 0.796489 0.0756818 0.0872752 0.230431 0 0 0 0 0 0 0 0 0 
26.982 1 258 18.4081 7.27792 4.85375 2.35364 0.296105 1.58588 0.0480043 0.114171 -0.144159 0 0 0 0 0 0 0 0 0 
26.982 1 64 20.5301 6.93165 2.82312 -0.938233 3.74884 -3.46425 0.0217294 -0.0039212 -0.49979 0 0 0 0 0 0 0 0 0 
26.982 1 301 20.515 9.09476 4.54544 -3.68122 0.959486 3.71305 -0.324757 -0.633141 0.700646 0 0 0 0 0 0 0 0 0 
26.982 1 104 20.4982 11.0627 2.78824 3.92293 2.57048 -0.185568 -0.0105477 0.269361 -0.45269 0 0 0 0 0 0 0 0 0 
26.982 1 103 22.7002 8.85593 2.93795 -6.07982 -0.828044 -0.654198 0.323909 0.355639 -0.299666 0 0 0 0 0 0 0 0 0 
26.982 1 262 22.8437 6.9917 4.7726 6.89663 -3.39355 -3.1927 -0.276149 -0.419545 -0.30068 0 0 0 0 0 0 0 0 0 
26.982 1 305 24.9564 8.78558 5.01884 -4.30923 1.99468 -2.11245 -0.250651 -0.386904 -0.161599 0 0 0 0 0 0 0 0 0 
26.982 1 68 25.1195 6.87822 2.9227 -0.534159 2.43245 5.82355 -0.498915 -0.469983 0.22062 0 0 0 0 0 0 0 0 0 
26.982 1 302 22.6365 10.786 5.03562 -6.5935 -1.54952 5.03661 0.445694 0.236988 -0.515858 0 0 0 0 0 0 0 0 0 
26.982 1 109 29.5183 8.54462 1.13224 -5.15959 -1.77602 -2.35696 0.376457 -0.302861 0.485143 0 0 0 0 0 0 0 0 0 
26.982 1 107 27.0336 8.75786 3.18901 -4.25602 0.612186 -1.68364 0.642675 -0.335279 -0.0268022 0 0 0 0 0 0 0 0 0 
26.982 1 266 27.3078 6.50401 4.70219 3.1488 3.03677 1.76766 -0.370649 0.237321 0.58579 0 0 0 0 0 0 0 0 0 
26.982 1 72 29.4339 6.46775 3.07887 -2.50277 -2.82356 -4.8312 0.357024 0.433071 -0.279702 0 0 0 0 0 0 0 0 0 
26.982 1 309 29.4279 8.59273 5.01175 -3.60476 3.38168 2.19227 0.194541 -0.21839 -0.544551 0 0 0 0 0 0 0 0 0 
26.982 1 112 29.4892 10.4868 3.14602 -0.614513 -3.05747 -0.614517 0.310184 0.175121 -0.406997 0 0 0 0 0 0 0 0 0 
26.982 1 78 40.5077 6.76709 1.10892 -0.867414 1.56846 -1.98357 0.145785 -0.209834 0.0015605 0 0 0 0 0 0 0 0 0 
26.982 1 157 38.5196 12.4988 1.25073 0.499491 2.05265 -2.72709 -0.0797225 0.227102 -0.135387 0 0 0 0 0 0 0 0 0 
26.982 1 54 14.0586 7.37335 1.09476 0.822952 -1.4104 -1.77636 0.0133808 -0.122944 -0.015043 0 0 0 0 0 0 0 0 0 
26.982 1 111 31.7 8.34314 3.0464 5.99681 -0.633506 1.17651 -0.296841 0.345185 0.335284 0 0 0 0 0 0 0 0 0 
26.982 1 270 31.6998 6.51914 5.08577 -1.04347 -7.0411 0.494864 0.000172669 -0.307263 -0.661666 0 0 0 0 0 0 0 0 0 
26.982 1 76 33.8526 6.55166 3.1853 -1.70634 2.75444 -0.960937 0.41848 -0.163156 -0.42837 0 0 0 0 0 0 0 0 0 
26.982 1 313 33.9191 8.33223 5.1157 1.60398 3.22543 -5.78839 0.02792 0.37849 -0.347921 0 0 0 0 0 0 0 0 0 
26.982 1 116 33.7469 10.2969 3.08667 2.99378 -1.66754 2.92556 0.385904 0.142308 0.171614 0 0 0 0 0 0 0 0 0 
26.982 1 115 36.1633 8.48217 3.22905 3.89311 -1.27915 5.80868 0.132009 0.392796 0.22679 0 0 0 0 0 0 0 0 0 
26.982 1 274 36.4016 6.90464 5.29874 5.6637 0.0560507 -1.11472 0.226816 -0.556904 -0.0501106 0 0 0 0 0 0 0 0 0 
26.982 1 80 38.6348 6.57574 3.29708 -2.53764 -1.13787 1.11224 -0.769764 1.27516 -0.799692 0 0 0 0 0 0 0 0 0 
26.982 1 317 38.7466 8.88876 5.07194 7.56212 -0.0189633 1.60121 0.386173 -1.1819 0.189178 0 0 0 0 0 0 0 0 0 
26.982 1 120 38.3314 10.5005 3.13767 1.53303 1.04158 -3.07344 0.16374 0.377194 -0.534148 0 0 0 0 0 0 0 0 0 
26.982 1 2819 18.5376 19.7487 18.9506 -0.743656 -2.482 1.65864 -0.0916966 0.148172 -0.69471 0 0 0 0 0 0 0 0 0 
26.982 1 2229 29.8327 20.1186 4.84373 -0.886635 3.02025 -0.0444982 -0.188745 -0.108026 0.382813 0 0 0 0 0 0 0 0 0 
26.982 1 44 42.8787 7.28997 2.97594 1.65708 1.26447 -2.54525 0.449987 -0.221067 -0.503976 0 0 0 0 0 0 0 0 0 
26.982 1 119 40.6014 8.66695 2.94931 2.11469 2.2395 -1.58851 -0.129906 0.141828 0.243907 0 0 0 0 0 0 0 0 0 
26.982 1 278 40.9172 6.56497 4.80214 -0.552838 0.464307 -4.6232 -0.0107189 0.808075 0.20942 0 0 0 0 0 0 0 0 0 
26.982 1 84 43.4636 10.122 3.40589 10.0121 5.02435 -3.22308 0.164996 0.153978 -0.182323 0 0 0 0 0 0 0 0 0 
26.982 1 2633 33.9291 20.0531 12.4508 -0.56627 -6.97352 -0.826365 -0.128027 0.740322 1.11552 0 0 0 0 0 0 0 0 0 
26.982 1 123 -1.29059 11.4297 2.25982 -4.52477 -2.19593 4.93442 0.110035 -0.0477592 0.389997 0 0 0 0 0 0 0 0 0 
26.982 1 322 -0.735002 13.4506 4.2779 2.98241 -1.57921 2.38169 -0.190484 -0.593981 -0.329889 0 0 0 0 0 0 0 0 0 
26.982 1 124 43.6771 12.9418 2.62147 -3.81154 -2.0269 -0.51195 0.289035 0.274648 -0.117251 0 0 0 0 0 0 0 0 0 
26.982 1 122 -0.00348601 14.1763 1.63351 -5.00426 0.085159 -1.58406 0.0304682 0.0904569 -0.141851 0 0 0 0 0 0 0 0 0 
26.982 1 325 1.26395 11.6383 4.25037 -6.5408 -1.31649 -0.00900225 0.0588627 -0.572085 0.182979 0 0 0 0 0 0 0 0 0 
26.982 1 128 2.23379 14.2285 3.65107 0.0176699 1.88742 1.97046 0.228514 -0.412732 0.00311605 0 0 0 0 0 0 0 0 0 
26.982 1 127 4.80899 12.5907 3.34086 3.00649 -0.529161 -1.75887 0.400494 -0.451836 0.190677 0 0 0 0 0 0 0 0 0 
26.982 1 326 4.90911 14.4516 5.42548 -2.02258 0.927499 5.94093 -0.279365 0.569971 0.118966 0 0 0 0 0 0 0 0 0 
26.982 1 125 2.58669 11.9483 1.83579 5.39833 3.37234 -1.12948 0.589176 0.972921 0.153874 0 0 0 0 0 0 0 0 0 
26.982 1 86 4.80956 10.3727 1.4685 -1.91016 5.65636 0.40613 0.955803 -0.0791207 0.963656 0 0 0 0 0 0 0 0 0 
26.982 1 92 7.17165 10.8053 3.14565 -3.86939 1.38254 0.488134 -0.1806 0.389156 0.500341 0 0 0 0 0 0 0 0 0 
26.982 1 329 7.21687 13.1019 5.25385 -6.45105 0.440877 1.93596 -0.0878806 -0.667995 -0.500497 0 0 0 0 0 0 0 0 0 
26.982 1 132 6.44106 15.0153 3.06432 -3.53342 -3.67379 5.97398 0.628797 -0.753134 0.736175 0 0 0 0 0 0 0 0 0 
26.982 1 131 9.06953 13.3717 3.24159 -2.54199 1.61466 6.08459 -0.0412945 -0.80825 -0.464761 0 0 0 0 0 0 0 0 0 
26.982 1 330 8.89163 15.227 5.06212 2.03114 2.01138 -3.18135 0.109661 0.99087 0.545235 0 0 0 0 0 0 0 0 0 
26.982 1 77 38.4537 4.58479 1.36576 -1.33241 -0.704215 -2.10827 -0.457338 0.757542 -0.601571 0 0 0 0 0 0 0 0 0 
26.982 1 2803 -2.15438 19.9534 17.6449 9.35079 -7.06095 2.44177 0.213783 0.458624 0.0361995 0 0 0 0 0 0 0 0 0 
26.982 1 613 11.6536 1.02102 12.0616 -2.75332 -2.52132 -2.01284 0.340129 -0.450904 -0.176736 0 0 0 0 0 0 0 0 0 
26.982 1 96 11.4409 11.4237 2.92505 -5.60271 -2.062 3.70258 -0.491158 -0.0843467 0.138851 0 0 0 0 0 0 0 0 0 
26.982 1 333 11.2584 13.3853 5.12122 -0.607013 -2.30648 -1.22934 0.150738 0.159036 -0.365135 0 0 0 0 0 0 0 0 0 
26.982 1 136 10.8936 15.4938 3.20186 -2.07164 -2.72961 -0.280232 0.116008 0.309174 -0.0137246 0 0 0 0 0 0 0 0 0 
26.982 1 135 13.2141 13.7055 2.72119 -5.10078 -4.13394 5.34941 -0.0641331 0.310497 -0.0923818 0 0 0 0 0 0 0 0 0 
26.982 1 334 13.3752 15.4835 4.76346 -7.39039 -3.58957 -0.425132 -0.653972 0.450894 0.656609 0 0 0 0 0 0 0 0 0 
26.982 1 140 14.9621 16.2266 2.7715 -5.17178 -0.0720069 -3.51293 0.023077 -0.0313131 -0.585595 0 0 0 0 0 0 0 0 0 
26.982 1 337 15.4501 13.8288 4.32474 1.1287 0.794203 -4.45833 0.803466 -0.195392 -0.0668732 0 0 0 0 0 0 0 0 0 
26.982 1 139 17.6269 14.2046 2.04118 -0.834895 0.934176 0.621392 -0.411705 -0.439865 0.510484 0 0 0 0 0 0 0 0 0 
26.982 1 338 18.4018 14.5312 4.76647 2.16561 3.28367 4.27704 -0.109761 -0.142303 -0.224188 0 0 0 0 0 0 0 0 0 
26.982 1 298 17.7631 11.6987 4.26251 -2.10332 -0.866257 1.90221 0.204615 0.649234 -0.205131 0 0 0 0 0 0 0 0 0 
26.982 1 341 20.6328 12.9296 4.6515 -0.90892 -4.66083 3.23081 -0.0955379 0.117866 0.55476 0 0 0 0 0 0 0 0 0 
26.982 1 144 20.0802 15.6251 2.10526 -3.90668 -8.50045 0.159212 0.152317 -0.441567 0.459928 0 0 0 0 0 0 0 0 0 
26.982 1 39 40.609 0.957216 3.01017 -1.20623 2.54519 0.802848 -0.0666496 0.1706 0.31844 0 0 0 0 0 0 0 0 0 
26.982 1 2233 34.2251 20.1589 4.88307 0.689794 0.477015 0.321912 -0.064547 0.561663 0.739932 0 0 0 0 0 0 0 0 0 
26.982 1 108 24.8836 10.6462 3.13301 -1.04823 3.33418 2.01364 -0.0284672 0.379301 -0.165372 0 0 0 0 0 0 0 0 0 
26.982 1 143 22.6218 12.8319 2.79911 5.52416 4.61389 4.69361 0.552163 0.0889038 0.0286848 0 0 0 0 0 0 0 0 0 
26.982 1 342 22.9798 14.5696 5.02773 -2.27324 2.6666 -2.77096 -0.0689566 -0.337498 0.0818513 0 0 0 0 0 0 0 0 0 
26.982 1 148 25.07 14.3962 3.05866 -0.244329 -1.68094 0.467174 0.389996 0.144743 -0.60784 0 0 0 0 0 0 0 0 0 
26.982 1 345 25.0996 12.6365 4.99913 3.15154 -2.20163 -0.0182795 0.194687 -0.266646 -0.187525 0 0 0 0 0 0 0 0 0 
26.982 1 306 27.2423 10.6576 4.96718 -0.0371326 -0.878409 2.03699 0.258297 0.359156 0.118169 0 0 0 0 0 0 0 0 0 
26.982 1 147 27.5066 12.4945 2.83329 -3.62648 -0.733568 2.98181 -0.443909 0.238178 0.640164 0 0 0 0 0 0 0 0 0 
26.982 1 346 27.6254 14.5081 4.89664 -1.58163 1.28358 -2.08093 -0.660605 -0.470478 -0.49297 0 0 0 0 0 0 0 0 0 
26.982 1 152 29.622 14.286 2.79053 -1.72099 -1.10011 1.06785 0.111402 -0.0815101 0.473775 0 0 0 0 0 0 0 0 0 
26.982 1 349 29.7929 12.4064 5.12028 -3.46735 -6.72289 -9.15751 -0.450411 0.394827 -0.888984 0 0 0 0 0 0 0 0 0 
26.982 1 310 31.8513 10.3799 5.04413 2.89788 -2.34205 -0.53674 -0.40577 0.0410135 -0.475886 0 0 0 0 0 0 0 0 0 
26.982 1 151 31.6839 12.4495 2.86059 0.227063 0.940624 -1.69976 -0.0226743 -0.32318 0.0591275 0 0 0 0 0 0 0 0 0 
26.982 1 350 31.7842 14.4084 5.13628 -0.550757 -0.0825006 -1.90908 0.391057 -0.439013 -0.592109 0 0 0 0 0 0 0 0 0 
26.982 1 156 33.8437 14.2798 2.9121 2.61183 -2.91821 1.63637 0.456853 0.467633 0.101889 0 0 0 0 0 0 0 0 0 
26.982 1 353 33.8249 12.5043 4.82332 -0.179725 0.367066 -4.77788 -0.437263 -0.458942 0.74161 0 0 0 0 0 0 0 0 0 
26.982 1 117 38.4311 8.62054 1.11678 -0.964917 0.00168939 6.89593 -0.204153 -0.428682 0.400595 0 0 0 0 0 0 0 0 0 
26.982 1 314 36.2624 9.63254 6.0193 -2.71777 -1.95448 -1.33485 0.535251 -0.329473 -1.00738 0 0 0 0 0 0 0 0 0 
26.982 1 155 35.9945 12.1191 3.39543 2.16692 2.39963 -1.02081 0.360826 -0.180217 -0.166219 0 0 0 0 0 0 0 0 0 
26.982 1 354 36.1394 14.1657 4.93101 2.83083 1.52405 1.41626 -0.914596 1.03835 0.240704 0 0 0 0 0 0 0 0 0 
26.982 1 160 38.2337 13.9564 3.51034 0.50034 -1.78674 2.37872 0.828475 0.232282 -0.137407 0 0 0 0 0 0 0 0 0 
26.982 1 357 38.6322 11.6279 5.47347 1.06023 -0.518334 -5.29406 0.00567303 0.24397 0.420243 0 0 0 0 0 0 0 0 0 
26.982 1 2205 1.44512 20.2024 5.66865 -8.34185 4.52187 -5.19615 0.187519 0.404496 -0.349595 0 0 0 0 0 0 0 0 0 
26.982 1 318 41.1769 10.5248 4.77268 5.50656 3.58599 -3.7618 -0.57527 0.197313 0.1202 0 0 0 0 0 0 0 0 0 
26.982 1 321 42.7766 12.773 5.09089 -0.00340096 0.0389586 -0.680486 0.0584774 -0.266781 0.0445583 0 0 0 0 0 0 0 0 0 
26.982 1 159 40.7043 12.5866 3.07427 1.01828 -1.66988 3.11216 -0.499877 -0.45293 0.235338 0 0 0 0 0 0 0 0 0 
26.982 1 358 40.5685 14.1784 5.3586 -3.59374 -2.60068 -4.9792 -0.367615 0.628199 -0.0625166 0 0 0 0 0 0 0 0 0 
26.982 1 163 0.0555401 16.0128 3.81143 1.10301 0.710351 1.50995 0.123941 0.654029 -0.901857 0 0 0 0 0 0 0 0 0 
26.982 1 362 -0.412973 18.2083 5.57653 -5.35194 1.27864 -3.12965 0.037103 -0.192574 -0.232598 0 0 0 0 0 0 0 0 0 
26.982 1 97 15.9621 9.45026 1.04958 -4.94666 0.989031 -7.77844 0.059992 0.144757 -0.0597605 0 0 0 0 0 0 0 0 0 
26.982 1 166 3.61516 18.4567 1.39992 -2.38148 -0.0528507 1.77426 -0.325529 -0.0649148 -0.117839 0 0 0 0 0 0 0 0 0 
26.982 1 165 2.06071 16.2324 1.57838 -0.657092 -2.44408 0.109607 -0.282912 -0.296308 -0.156685 0 0 0 0 0 0 0 0 0 
26.982 1 365 2.3287 16.2019 5.57453 0.619431 -4.5237 -5.77741 -0.236266 0.0560365 0.119105 0 0 0 0 0 0 0 0 0 
26.982 1 168 1.75102 18.3633 3.51318 -2.38509 2.60122 -7.65183 -0.386815 -0.500626 0.312229 0 0 0 0 0 0 0 0 0 
26.982 1 167 4.14697 16.3381 3.46776 3.71001 -2.37028 -0.495428 -0.17909 0.509406 0.128784 0 0 0 0 0 0 0 0 0 
26.982 1 366 4.05752 18.643 5.35499 -7.3115 0.722342 1.14252 -0.0751245 -0.0105896 0.160362 0 0 0 0 0 0 0 0 0 
26.982 1 14 14.217 3.28902 1.28242 3.42161 6.79369 0.132017 -0.00157556 -0.43326 0.404867 0 0 0 0 0 0 0 0 0 
26.982 1 1000 38.7461 17.9015 18.1269 -1.29135 -2.69453 3.61377 -0.21373 0.417949 0.452048 0 0 0 0 0 0 0 0 0 
26.982 1 369 6.36713 16.8998 5.38091 -0.824174 1.99129 1.0353 0.207904 -0.15325 -0.142105 0 0 0 0 0 0 0 0 0 
26.982 1 172 5.76933 18.785 3.24284 3.45584 -2.45002 -2.01754 -0.378102 0.381046 -0.00897208 0 0 0 0 0 0 0 0 0 
26.982 1 171 8.02146 17.2933 3.01154 0.552011 -2.49585 -0.793155 0.539894 -0.853744 0.0738588 0 0 0 0 0 0 0 0 0 
26.982 1 370 7.93866 19.1135 4.99435 2.77704 0.219887 1.16765 0.142948 0.0702699 0.715956 0 0 0 0 0 0 0 0 0 
26.982 1 169 5.7656 16.6894 1.17315 -3.78933 -4.17667 -4.84557 0.16877 0.647922 0.0433281 0 0 0 0 0 0 0 0 0 
26.982 1 74 36.2259 6.73111 1.20171 -5.16378 4.44369 -2.47522 0.657771 -0.269345 -0.219072 0 0 0 0 0 0 0 0 0 
26.982 1 176 9.92859 19.3902 3.16444 0.388363 -0.88112 -0.533659 0.363394 -0.082619 -0.140517 0 0 0 0 0 0 0 0 0 
26.982 1 373 11.0657 17.5981 5.27407 2.00532 0.853925 -0.0553913 -0.237628 -0.402203 -0.298867 0 0 0 0 0 0 0 0 0 
26.982 1 175 12.558 17.8412 2.94891 2.15151 5.9269 -0.330709 -0.556564 -0.190241 -0.376634 0 0 0 0 0 0 0 0 0 
26.982 1 374 12.2229 20.2101 4.92496 3.09386 -3.8877 1.802 0.273015 -0.383961 -0.083507 0 0 0 0 0 0 0 0 0 
26.982 1 2 -2.36384 3.15862 1.08719 -5.74677 -0.150905 -3.23425 0.554315 0.0618909 0.499515 0 0 0 0 0 0 0 0 0 
26.982 1 377 14.3639 18.3665 4.75032 1.52543 1.12786 2.98907 0.0830456 -0.1487 -0.169608 0 0 0 0 0 0 0 0 0 
26.982 1 2033 34.5524 20.044 1.08351 -4.7724 1.95168 -1.27332 -0.341042 0.46265 0.052276 0 0 0 0 0 0 0 0 0 
26.982 1 179 17.6618 16.7745 2.97421 -1.26689 -0.527999 -4.19581 0.26324 0.628944 0.175501 0 0 0 0 0 0 0 0 0 
26.982 1 378 18.533 19.1982 4.39593 -3.75357 2.08086 0.848674 -0.294198 -0.838735 -0.0517869 0 0 0 0 0 0 0 0 0 
26.982 1 3 -1.97407 0.898506 3.5361 6.42464 -0.24012 -0.120839 -0.021571 -0.113655 0.114156 0 0 0 0 0 0 0 0 0 
26.982 1 381 20.8758 16.2795 4.8227 2.33981 0.626616 0.106992 -0.254914 -0.155648 0.210706 0 0 0 0 0 0 0 0 0 
26.982 1 184 20.6368 18.1256 2.73927 -0.306916 -3.18625 -0.689742 0.0962919 0.878809 0.0908298 0 0 0 0 0 0 0 0 0 
26.982 1 183 22.982 16.3495 3.09321 -1.79227 -6.59165 1.40924 0.0431278 0.645653 -0.0979428 0 0 0 0 0 0 0 0 0 
26.982 1 382 22.9578 18.5254 4.83394 3.60727 -2.8893 -5.64662 -0.0459509 -0.0657305 -0.252774 0 0 0 0 0 0 0 0 0 
26.982 1 198 41.2611 17.8295 1.5591 -0.281881 2.11781 -0.150099 -0.294175 0.516388 0.108088 0 0 0 0 0 0 0 0 0 
26.982 1 126 4.33547 14.3995 1.42604 -0.685467 0.104171 -2.24572 -0.431119 0.0441966 -0.0483026 0 0 0 0 0 0 0 0 0 
26.982 1 34 36.1871 2.64718 1.23708 1.86726 1.91126 -4.72814 0.0902864 0.199102 0.0709755 0 0 0 0 0 0 0 0 0 
26.982 1 385 25.2202 16.4063 4.87261 0.902138 -5.43132 -0.390498 0.284905 0.20221 -0.0978177 0 0 0 0 0 0 0 0 0 
26.982 1 188 25.2421 18.472 3.15144 -0.782342 6.08535 -1.92405 -0.0580313 -0.512106 -0.909348 0 0 0 0 0 0 0 0 0 
26.982 1 223 22.7547 0.96848 6.66358 1.14957 -3.27666 1.44925 -0.444142 0.0754284 -0.618356 0 0 0 0 0 0 0 0 0 
26.982 1 130 8.39444 15.0939 1.12243 -0.207491 -4.61778 -0.643869 0.0270208 0.326367 0.0941879 0 0 0 0 0 0 0 0 0 
26.982 1 187 27.5707 16.3119 2.81533 -3.02574 -2.27409 4.78135 -0.492646 -0.0297425 0.0960815 0 0 0 0 0 0 0 0 0 
26.982 1 386 27.6508 18.1747 4.95767 1.8935 -3.26531 4.84289 -0.1828 -0.0324898 -0.219386 0 0 0 0 0 0 0 0 0 
26.982 1 192 29.7429 18.1525 2.91497 1.17499 -2.74265 -1.02991 0.061569 0.249845 -0.0853932 0 0 0 0 0 0 0 0 0 
26.982 1 389 29.7219 16.1973 4.86462 2.69976 -0.812667 1.23848 -0.0315358 0.709358 0.0255331 0 0 0 0 0 0 0 0 0 
26.982 1 2435 36.1267 20.1289 10.6731 -6.30597 -0.899471 1.03698 0.088552 -0.600081 0.463905 0 0 0 0 0 0 0 0 0 
26.982 1 114 36.2079 10.5043 1.41836 1.3347 4.33247 -6.11068 0.0547625 -0.355323 -1.0915 0 0 0 0 0 0 0 0 0 
26.982 1 191 31.7865 16.2331 3.09861 -2.94364 -4.25132 1.27122 0.405332 -0.305621 0.0671117 0 0 0 0 0 0 0 0 0 
26.982 1 390 31.9874 18.2338 4.97434 2.00982 -3.03831 -3.59419 -0.2542 -0.456523 0.0784894 0 0 0 0 0 0 0 0 0 
26.982 1 393 34.1303 16.2302 4.96906 2.40695 -1.30968 3.56533 0.0145352 0.285392 -0.4326 0 0 0 0 0 0 0 0 0 
26.982 1 196 34.1513 18.321 3.10259 -2.15501 -3.40828 -0.307142 0.578852 -1.07336 -0.286331 0 0 0 0 0 0 0 0 0 
26.982 1 2425 25.1754 20.1882 8.84676 3.99695 -1.82206 3.37217 0.0883633 0.296256 0.0561319 0 0 0 0 0 0 0 0 0 
26.982 1 1061 20.241 4.78225 20.0935 -0.853814 2.22448 2.9461 0.342767 -0.374176 0.599516 0 0 0 0 0 0 0 0 0 
26.982 1 817 15.9773 0.866547 16.3079 -1.66678 -1.7837 4.73352 -0.289557 -0.164414 -0.214609 0 0 0 0 0 0 0 0 0 
26.982 1 2237 38.7163 20.1789 5.21253 -0.632566 0.624196 0.154569 0.198452 0.661077 -0.538021 0 0 0 0 0 0 0 0 0 
26.982 1 195 36.5749 16.3989 3.16051 1.24917 5.72634 -3.70026 -0.523432 -0.280126 -0.189409 0 0 0 0 0 0 0 0 0 
26.982 1 394 36.4249 18.4697 4.91006 -0.530604 -5.21522 -2.35574 0.0406363 -0.585473 0.789116 0 0 0 0 0 0 0 0 0 
26.982 1 397 38.4124 16.3206 5.13954 -0.954306 -5.23301 -3.10599 0.473847 -0.0103694 0.150361 0 0 0 0 0 0 0 0 0 
26.982 1 200 38.8602 18.471 3.21924 0.819194 1.1033 -0.64032 0.0212828 -0.362309 -0.440402 0 0 0 0 0 0 0 0 0 
26.982 1 164 43.5737 17.227 2.8879 -2.28092 2.92385 0.209984 0.323566 0.00450286 0.145306 0 0 0 0 0 0 0 0 0 
26.982 1 361 -2.94689 14.9949 4.31195 -3.35142 1.41321 1.02622 -0.0662337 -0.289757 -0.248027 0 0 0 0 0 0 0 0 0 
26.982 1 199 41.7095 14.9119 2.63875 -6.88412 1.62952 -2.88341 -0.0557359 0.990406 -0.000877057 0 0 0 0 0 0 0 0 0 
26.982 1 398 41.1803 17.2541 4.25201 0.00835223 3.08214 5.07493 -0.107742 -0.738878 0.620979 0 0 0 0 0 0 0 0 0 
26.982 1 3001 42.8136 19.9388 19.9645 -3.29244 -1.05995 1.4458 0.500649 -0.0508196 -0.103964 0 0 0 0 0 0 0 0 0 
26.982 1 997 38.7455 16.0006 16.2702 -0.79467 -6.79966 3.50917 -0.216995 -0.492678 0.0859468 0 0 0 0 0 0 0 0 0 
26.982 1 243 -0.57278 3.97744 6.85144 -1.67425 -3.70808 3.52453 0.559893 0.605788 -0.204052 0 0 0 0 0 0 0 0 0 
26.982 1 402 1.10338 1.92815 8.28296 -2.70009 -1.96139 6.88564 -0.531595 -0.66093 -0.548068 0 0 0 0 0 0 0 0 0 
26.982 1 443 0.668996 3.61026 10.24 -2.49912 -3.93294 6.46758 -0.235185 0.964151 0.264797 0 0 0 0 0 0 0 0 0 
26.982 1 204 43.7401 3.27475 6.47134 1.68195 -4.11598 1.81129 -0.131666 0.539815 0.00417013 0 0 0 0 0 0 0 0 0 
26.982 1 208 2.96359 2.12024 6.08167 1.99181 -2.8983 0.181496 -0.32589 -0.268279 0.348663 0 0 0 0 0 0 0 0 0 
26.982 1 445 2.36121 4.28435 7.99614 -6.37671 3.15543 -5.34519 -0.0350889 -0.0521932 0.180331 0 0 0 0 0 0 0 0 0 
26.982 1 247 4.15317 4.53687 5.9197 -0.651671 -1.43504 2.70978 0.409173 0.447327 -0.11065 0 0 0 0 0 0 0 0 0 
26.982 1 406 4.73136 2.42174 8.07598 3.65865 -5.36112 -3.59722 0.416029 0.0371222 -0.114959 0 0 0 0 0 0 0 0 0 
26.982 1 408 3.04228 2.12501 10.1603 6.91735 1.42851 -7.16908 -0.268646 -0.0949349 0.274411 0 0 0 0 0 0 0 0 0 
26.982 1 994 36.3414 18.1261 16.3145 -2.64982 -2.22081 -1.62158 -0.35295 -0.548565 0.210973 0 0 0 0 0 0 0 0 0 
26.982 1 449 6.6736 4.8923 7.71459 2.66511 8.96859 3.14812 -0.291882 -0.212736 -0.0901145 0 0 0 0 0 0 0 0 0 
26.982 1 212 6.48863 2.54362 5.77059 1.4676 3.02557 1.68348 -0.0639915 0.251213 0.108237 0 0 0 0 0 0 0 0 0 
26.982 1 251 9.13315 5.21139 6.39603 -4.34466 -0.540242 -8.08117 -0.304361 -0.16158 -0.476274 0 0 0 0 0 0 0 0 0 
26.982 1 410 9.22973 2.9114 8.05571 -4.37102 -2.24345 0.158151 -0.827949 -0.106106 -0.312649 0 0 0 0 0 0 0 0 0 
26.982 1 451 8.93225 4.93443 10.1874 -0.77834 -0.718214 -3.72036 -0.171291 -0.283094 -0.658971 0 0 0 0 0 0 0 0 0 
26.982 1 412 7.01167 2.68371 9.74232 1.955 -1.59195 2.43385 -0.029588 0.203061 0.369534 0 0 0 0 0 0 0 0 0 
26.982 1 453 11.0417 5.25512 8.41943 1.47072 0.666675 -1.57796 0.468155 0.0347294 -0.0918017 0 0 0 0 0 0 0 0 0 
26.982 1 216 11.3156 3.03636 6.22277 2.63957 -4.34082 1.02333 -0.270101 -0.322284 0.208271 0 0 0 0 0 0 0 0 0 
26.982 1 255 13.4533 4.74881 6.25928 1.48796 -3.5412 1.49888 0.250002 -0.392314 -0.182776 0 0 0 0 0 0 0 0 0 
26.982 1 414 13.8231 1.95295 7.64797 6.29066 -4.01893 1.8434 -0.60583 0.7689 0.262945 0 0 0 0 0 0 0 0 0 