ITEM: TIMESTEP
14950
ITEM: NUMBER OF ATOMS
4000
ITEM: BOX BOUNDS pp pp pp
-3.11266 43.6127
0.82331 39.6767
0.811164 39.6888
ITEM: ATOMS mass type id x y z vx vy vz fx fy fz xrad yrad zrad vxrad vyrad vzrad fxrad fyrad fzrad 
26.982 1 43 -0.682591 4.77681 2.53884 5.31699 -0.689113 1.39915 -0.140257 -0.38847 0.00187681 0 0 0 0 0 0 0 0 0 
26.982 1 202 -0.807724 2.83253 4.71803 -2.755 8.77212 -1.1235 -0.140016 0.205084 -0.352023 0 0 0 0 0 0 0 0 0 
26.982 1 245 1.3076 4.61993 4.74141 -1.25422 -0.384769 -0.521263 0.223397 -0.182106 0.167142 0 0 0 0 0 0 0 0 0 
26.982 1 8 1.51859 2.86971 2.55024 6.49418 1.10713 -1.89456 0.0390874 0.00893152 0.428493 0 0 0 0 0 0 0 0 0 
26.982 1 47 3.81527 4.73695 3.01813 1.55153 2.57825 0.549206 -0.182081 -0.0360621 -0.245804 0 0 0 0 0 0 0 0 0 
26.982 1 206 3.73628 2.58848 4.67546 0.0697483 -2.88106 0.409542 -0.135955 -0.0964696 -0.0039685 0 0 0 0 0 0 0 0 0 
26.982 1 149 29.9689 12.4963 0.92565 -2.30793 1.34514 -4.1141 -0.682653 -0.235793 -0.193667 0 0 0 0 0 0 0 0 0 
26.982 1 249 6.10896 4.74595 4.77613 2.84074 -3.2707 -1.08578 0.303351 0.0861914 0.340716 0 0 0 0 0 0 0 0 0 
26.982 1 12 6.01497 2.66751 2.8905 -1.73991 2.1885 0.62854 0.357362 0.249143 0.175328 0 0 0 0 0 0 0 0 0 
26.982 1 51 8.5257 4.5359 2.44948 -1.90609 -0.373548 -2.16513 -0.221734 -0.402452 -0.300158 0 0 0 0 0 0 0 0 0 
26.982 1 210 8.74485 2.97772 4.84304 5.10919 2.69193 0.750251 -0.323298 -0.0656401 0.0696153 0 0 0 0 0 0 0 0 0 
26.982 1 113 34.2053 8.63792 0.911502 2.99032 -1.64387 1.3837 0.305512 -0.0620208 -0.0671313 0 0 0 0 0 0 0 0 0 
26.982 1 253 10.9922 4.54369 4.55688 -4.98731 -1.68696 0.302888 0.238622 0.379792 -0.424026 0 0 0 0 0 0 0 0 0 
26.982 1 16 10.874 2.57049 2.58872 5.10116 0.802025 -4.3344 0.24361 0.0475474 0.267955 0 0 0 0 0 0 0 0 0 
26.982 1 55 13.3996 4.616 2.948 4.11267 1.7242 -0.896353 -0.417109 0.074906 -0.302868 0 0 0 0 0 0 0 0 0 
26.982 1 214 13.3338 2.65335 4.87133 -1.77498 -5.5387 1.4217 -0.287157 0.197378 -0.956999 0 0 0 0 0 0 0 0 0 
26.982 1 20 15.665 2.69522 2.79786 -1.09367 1.57189 4.41722 0.0433468 0.681552 0.112462 0 0 0 0 0 0 0 0 0 
26.982 1 257 15.5796 4.88263 4.5624 5.15602 -4.26054 1.49511 0.0515824 -0.227062 0.796051 0 0 0 0 0 0 0 0 0 
26.982 1 218 17.8783 2.97898 4.53573 -0.465413 4.06102 2.45035 0.240051 -0.690388 -0.217632 0 0 0 0 0 0 0 0 0 
26.982 1 59 17.6863 4.92905 2.70826 0.101531 -1.63514 6.31874 0.832195 0.29189 -0.0662215 0 0 0 0 0 0 0 0 0 
26.982 1 801 -3.15868 0.933315 16.422 -5.33214 -1.08157 3.28595 0.325231 0.17935 0.198128 0 0 0 0 0 0 0 0 0 
26.982 1 24 20.5275 3.02042 2.80547 -6.53092 2.59838 -4.67339 -0.63208 -0.847212 -0.00229205 0 0 0 0 0 0 0 0 0 
26.982 1 261 20.1423 4.86515 4.52424 -3.46636 0.622862 -1.93164 0.0631763 0.236796 0.273595 0 0 0 0 0 0 0 0 0 
26.982 1 2801 43.4934 20.0825 16.2585 -1.5442 -3.07873 -0.222059 -0.446982 0.320201 -0.0940795 0 0 0 0 0 0 0 0 0 
26.982 1 145 24.9893 12.6385 0.840379 4.80181 -5.29839 -2.58973 0.0287316 0.183459 -0.197524 0 0 0 0 0 0 0 0 0 
26.982 1 63 22.7847 4.70104 2.84336 0.0922142 0.712645 -0.371054 -0.380571 0.579926 -0.455672 0 0 0 0 0 0 0 0 0 
26.982 1 222 22.542 2.79265 4.7652 -3.62604 -2.34284 1.73272 0.0845815 -0.499497 -0.059314 0 0 0 0 0 0 0 0 0 
26.982 1 28 24.8298 2.81746 2.88319 2.49331 -2.21573 -0.232954 0.323551 -0.609705 -0.0793147 0 0 0 0 0 0 0 0 0 
26.982 1 265 24.8517 4.72479 4.58073 2.33337 2.46734 -2.58026 0.375863 0.1178 0.671769 0 0 0 0 0 0 0 0 0 
26.982 1 999 41.1834 16.1772 18.5426 -1.26333 2.78241 -3.47844 -0.555162 -0.429882 -0.879667 0 0 0 0 0 0 0 0 0 
26.982 1 7 3.87625 0.816127 2.41663 4.08181 0.351171 -0.945423 -0.320613 0.262502 0.455098 0 0 0 0 0 0 0 0 0 
26.982 1 2835 36.4923 20.1313 18.3863 5.8359 2.04865 0.623808 0.0727326 0.903221 0.288989 0 0 0 0 0 0 0 0 0 
26.982 1 67 27.8281 4.61834 2.6989 -2.39755 2.64373 2.92244 -0.969226 0.221081 0.133479 0 0 0 0 0 0 0 0 0 
26.982 1 226 27.3819 2.85279 4.85124 -0.407449 0.852289 -4.04559 -0.263715 0.134756 -0.276587 0 0 0 0 0 0 0 0 0 
26.982 1 32 29.7869 2.64526 2.83082 -0.0460967 1.98572 1.31414 -0.234105 0.131562 0.0170494 0 0 0 0 0 0 0 0 0 
26.982 1 269 29.6924 4.69665 4.70715 -0.944864 -1.45897 1.79236 0.0824604 -0.0116071 0.53026 0 0 0 0 0 0 0 0 0 
26.982 1 2229 29.5349 20.0591 4.72423 2.00272 3.86453 -0.933898 -0.209354 -0.0762408 -0.313244 0 0 0 0 0 0 0 0 0 
26.982 1 2027 27.3081 20.276 2.46182 -5.15769 5.42951 -0.154501 -0.0475441 -0.518088 -0.0390824 0 0 0 0 0 0 0 0 0 
26.982 1 26 27.2644 2.62284 1.0745 -1.63683 7.3718 1.92457 -0.0406442 -0.154744 -0.221769 0 0 0 0 0 0 0 0 0 
26.982 1 2035 36.4661 20.0781 2.5993 1.64682 6.79608 -6.21893 -0.11125 0.530573 0.215507 0 0 0 0 0 0 0 0 0 
26.982 1 38 41.1963 2.7063 0.905153 0.359719 -2.49791 0.174393 -0.166755 0.345819 -0.505816 0 0 0 0 0 0 0 0 0 
26.982 1 71 31.8797 4.59648 2.974 0.199286 2.17133 -1.88153 0.0271605 0.175238 -0.133985 0 0 0 0 0 0 0 0 0 
26.982 1 230 31.9996 2.49635 5.08614 1.0227 -6.19952 4.26036 -0.272391 0.16026 -0.461594 0 0 0 0 0 0 0 0 0 
26.982 1 273 34.1565 4.95787 4.73173 2.18775 1.96959 1.42845 0.427166 -0.903752 0.14454 0 0 0 0 0 0 0 0 0 
26.982 1 36 34.015 2.82711 2.8192 -3.98278 0.922932 1.06059 0.508109 0.0116508 -0.0524482 0 0 0 0 0 0 0 0 0 
26.982 1 31 31.9396 0.956584 2.77875 -1.99307 -1.74631 0.309379 -0.0910555 -0.228607 -0.224617 0 0 0 0 0 0 0 0 0 
26.982 1 423 22.5634 0.769447 10.4093 -1.15943 -1.90474 2.32488 0.0544671 -0.0503828 0.1546 0 0 0 0 0 0 0 0 0 
26.982 1 10 8.55272 2.30356 0.636664 0.636153 -7.14334 -6.86288 0.0919383 0.065528 -0.0544297 0 0 0 0 0 0 0 0 0 
26.982 1 75 36.4737 4.52315 2.52414 -0.704744 -0.891258 2.34562 0.104664 0.3025 0.782413 0 0 0 0 0 0 0 0 0 
26.982 1 234 36.5038 2.50818 4.54184 -0.820948 4.51628 -1.52363 0.0982892 0.76013 0.210622 0 0 0 0 0 0 0 0 0 
26.982 1 40 38.8076 2.62086 2.76774 1.94207 0.639105 -5.58853 0.0664873 0.246389 -0.0527144 0 0 0 0 0 0 0 0 0 
26.982 1 277 38.6637 4.80644 4.56198 -1.69296 -1.85085 2.64506 0.273149 -0.734221 0.0977764 0 0 0 0 0 0 0 0 0 
26.982 1 998 41.3311 18.0957 16.4356 1.06048 -1.53163 -0.269032 -0.403427 0.177975 -0.0254212 0 0 0 0 0 0 0 0 0 
26.982 1 2827 27.3542 20.2315 18.266 -2.92438 3.79126 4.8962 -0.0820165 -0.0124278 0.0931271 0 0 0 0 0 0 0 0 0 
26.982 1 4 -3.14968 2.75537 2.62516 -3.59734 -3.8578 -3.84323 -0.0191955 -0.0764159 0.663477 0 0 0 0 0 0 0 0 0 
26.982 1 241 43.5033 4.69015 4.73687 0.0644826 -0.848293 0.500401 -0.154981 -0.0568428 -0.22839 0 0 0 0 0 0 0 0 0 
26.982 1 79 41.1178 4.5862 2.77127 -2.53285 -2.39169 -3.97295 -0.0441128 0.197821 0.0273413 0 0 0 0 0 0 0 0 0 
26.982 1 238 41.1477 2.66011 4.64829 0.199214 -4.06768 -4.63334 0.0569176 0.0637142 0.150944 0 0 0 0 0 0 0 0 0 
26.982 1 995 36.2812 16.314 18.3795 0.855662 1.2713 -2.63332 0.494846 -0.347541 -0.376617 0 0 0 0 0 0 0 0 0 
26.982 1 83 -0.721882 8.52366 2.64763 -2.38566 -3.7573 -0.879918 -0.425615 -0.024982 0.308043 0 0 0 0 0 0 0 0 0 
26.982 1 242 -1.01769 6.67763 4.57076 8.75607 0.425466 3.79979 0.470118 -0.394171 0.592225 0 0 0 0 0 0 0 0 0 
26.982 1 44 43.7298 6.37176 2.68351 1.05036 1.77401 0.454006 -0.639234 0.3051 -0.463661 0 0 0 0 0 0 0 0 0 
26.982 1 281 43.4587 8.32779 4.54308 1.81296 -3.71628 3.27833 0.183302 0.574355 -0.478651 0 0 0 0 0 0 0 0 0 
26.982 1 48 1.57197 6.73153 2.95506 -2.71609 2.75468 1.31703 -0.0190142 -0.227321 -0.0777421 0 0 0 0 0 0 0 0 0 
26.982 1 285 1.45904 8.72662 4.66991 1.71936 4.73896 -1.79749 -0.116373 -0.362659 0.126564 0 0 0 0 0 0 0 0 0 
26.982 1 87 3.70355 8.53954 2.65656 -2.19285 -0.0352122 -5.20529 0.230822 -0.101461 0.137844 0 0 0 0 0 0 0 0 0 
26.982 1 246 4.08437 6.76525 4.836 -8.25548 3.63203 -2.44964 -0.62364 0.233302 0.139273 0 0 0 0 0 0 0 0 0 
26.982 1 88 1.30109 10.2975 2.52531 1.11813 -5.63467 -4.88533 0.662071 0.161485 -0.694787 0 0 0 0 0 0 0 0 0 
26.982 1 235 36.4922 0.99691 6.7395 3.56999 -2.45943 1.77841 0.415067 -0.586119 -0.616279 0 0 0 0 0 0 0 0 0 
26.982 1 289 6.29684 8.37023 4.63034 2.22943 -0.0725338 1.162 -0.0343975 -0.472739 0.055913 0 0 0 0 0 0 0 0 0 
26.982 1 52 6.10913 6.52584 2.73726 5.47415 -1.51901 0.777475 0.425732 0.151494 -0.334884 0 0 0 0 0 0 0 0 0 
26.982 1 91 8.45905 8.63867 2.92454 4.79081 -1.01963 -3.25882 0.144295 0.0231716 0.00304013 0 0 0 0 0 0 0 0 0 
26.982 1 250 8.72957 6.2718 4.39222 2.28243 -6.76551 -1.25231 -0.158071 0.528309 0.0753526 0 0 0 0 0 0 0 0 0 
26.982 1 92 6.0387 10.4085 3.05915 -0.264342 5.72523 0.420133 0.145574 0.736751 -0.267755 0 0 0 0 0 0 0 0 0 
26.982 1 290 8.73013 10.6702 4.93677 -1.99365 1.61503 4.71192 -0.168908 -0.178613 -0.480103 0 0 0 0 0 0 0 0 0 
26.982 1 46 4.04847 6.5398 0.839799 4.42502 -5.13273 -1.96456 -0.125528 -0.214918 -0.0137575 0 0 0 0 0 0 0 0 0 
26.982 1 293 10.8522 8.49566 4.75057 0.0677284 0.198415 5.09593 0.146621 0.411755 0.0961418 0 0 0 0 0 0 0 0 0 
26.982 1 56 11.0578 6.89141 2.71809 0.0749271 -4.39324 0.252417 -0.0320092 -0.637984 -0.316408 0 0 0 0 0 0 0 0 0 
26.982 1 95 13.246 8.60317 2.65217 1.66806 0.940243 -1.85959 0.148745 -0.039211 -0.436017 0 0 0 0 0 0 0 0 0 
26.982 1 254 13.3672 6.74374 4.59272 3.3108 0.0598833 -0.764099 -0.043566 -0.033588 0.306433 0 0 0 0 0 0 0 0 0 
26.982 1 54 13.3467 6.56209 0.842747 5.25639 -2.79955 -0.326265 0.081804 -0.0163493 0.536409 0 0 0 0 0 0 0 0 0 
26.982 1 2819 17.8989 20.2626 18.4559 3.68205 1.31991 -4.17263 0.186577 -0.0774111 -0.297477 0 0 0 0 0 0 0 0 0 
26.982 1 60 15.627 6.81396 2.78711 7.67131 7.42518 2.27997 0.0388372 0.317008 -0.276269 0 0 0 0 0 0 0 0 0 
26.982 1 297 15.5751 8.83303 4.68574 5.44177 3.04318 6.38051 0.00812842 -0.42658 0.0499746 0 0 0 0 0 0 0 0 0 
26.982 1 99 17.9312 8.72924 2.66034 4.28238 1.11472 -2.4611 -0.0533486 -0.205469 -0.0941679 0 0 0 0 0 0 0 0 0 
26.982 1 100 15.5254 10.601 2.57062 2.13597 1.59806 -0.526406 -0.0556534 0.0252718 0.382577 0 0 0 0 0 0 0 0 0 
26.982 1 215 13.3558 0.696188 6.55288 -0.0523957 -2.56027 -0.720052 -0.207152 -0.0305832 0.3375 0 0 0 0 0 0 0 0 0 
26.982 1 613 10.8595 0.911617 12.2855 1.661 -3.53776 4.80976 -0.167638 -0.291401 0.29389 0 0 0 0 0 0 0 0 0 
26.982 1 258 18.0105 6.88453 4.73153 10.394 -0.228582 -3.64904 -0.1485 -0.062824 -0.00955525 0 0 0 0 0 0 0 0 0 
26.982 1 64 20.13 6.90613 2.55674 2.45255 5.34476 -1.10425 0.148507 0.267429 0.445798 0 0 0 0 0 0 0 0 0 
26.982 1 301 20.3897 8.68922 4.73472 0.720164 -3.74367 6.01568 -0.375131 -0.635728 -0.558732 0 0 0 0 0 0 0 0 0 
26.982 1 103 22.4292 8.60271 2.76551 1.52852 0.218322 -4.90625 0.350451 -0.194622 -0.398822 0 0 0 0 0 0 0 0 0 
26.982 1 262 22.6339 6.6845 4.75505 -0.791456 0.866837 0.978799 -0.226626 0.0685966 -0.404559 0 0 0 0 0 0 0 0 0 
26.982 1 305 24.7185 8.75955 4.61637 5.29375 5.65585 0.219525 0.182381 0.0439752 0.117761 0 0 0 0 0 0 0 0 0 
26.982 1 68 24.8875 6.80655 2.73933 -0.467031 5.25084 -4.74832 -0.234283 -0.354768 -0.121881 0 0 0 0 0 0 0 0 0 
26.982 1 302 22.5978 10.5028 4.74025 -1.08424 -2.24484 0.103942 -0.100835 0.346 0.111141 0 0 0 0 0 0 0 0 0 
26.982 1 70 31.9167 6.62098 0.775592 1.17906 2.89842 -3.29435 -0.0876505 -0.527612 0.450531 0 0 0 0 0 0 0 0 0 
26.982 1 107 27.1477 8.49809 2.98869 -2.0791 2.70135 -2.09611 0.279404 0.267447 -0.0876611 0 0 0 0 0 0 0 0 0 
26.982 1 266 27.065 6.4325 4.76329 6.03731 -2.15024 0.291696 0.525466 -0.230508 -0.0515889 0 0 0 0 0 0 0 0 0 
26.982 1 72 29.6359 6.64974 2.73499 -5.36455 5.75314 0.671336 0.148381 0.312191 -0.317997 0 0 0 0 0 0 0 0 0 
26.982 1 309 29.6425 8.42872 4.74251 -2.1095 -2.85412 -1.98031 -0.401755 0.483319 0.104217 0 0 0 0 0 0 0 0 0 
26.982 1 111 31.9861 8.70739 2.65253 -3.27114 4.42898 0.98371 -0.242367 -0.426706 0.191145 0 0 0 0 0 0 0 0 0 
26.982 1 270 31.8373 6.86764 4.75592 1.43419 0.154208 0.149795 0.17184 -0.710056 -0.516914 0 0 0 0 0 0 0 0 0 
26.982 1 76 33.9248 6.61346 2.79584 4.26804 -2.62916 0.761111 0.359649 0.439462 -0.335399 0 0 0 0 0 0 0 0 0 
26.982 1 313 34.3623 8.59644 4.54952 -3.20301 2.49383 1.4855 -0.22096 -0.208907 0.115708 0 0 0 0 0 0 0 0 0 
26.982 1 310 31.8166 10.3747 4.70873 2.61926 8.09373 1.3883 0.0278149 0.237797 -0.032297 0 0 0 0 0 0 0 0 0 
26.982 1 603 -0.622943 0.992886 14.6117 -0.230066 0.388459 2.46393 -0.337581 -0.576129 0.308626 0 0 0 0 0 0 0 0 0 
26.982 1 116 34.2236 10.6961 2.90892 -6.26302 2.26764 -0.281768 0.162984 -0.405322 -0.301388 0 0 0 0 0 0 0 0 0 
26.982 1 2627 27.2625 19.9548 14.3735 0.163781 3.0122 -0.45421 -0.156859 0.430655 0.140503 0 0 0 0 0 0 0 0 0 
26.982 1 2625 25.0772 20.135 12.5022 -0.563033 2.14633 -4.17215 -0.177515 0.627916 0.0290484 0 0 0 0 0 0 0 0 0 
26.982 1 115 36.6695 8.59802 2.74725 -1.56012 0.893766 -7.15219 -0.310418 0.305917 -0.040925 0 0 0 0 0 0 0 0 0 
26.982 1 274 36.5852 6.61879 4.61491 -2.89232 -3.68081 -1.19217 -0.440249 -0.472667 -0.142119 0 0 0 0 0 0 0 0 0 
26.982 1 80 38.7489 6.73945 2.76784 2.11335 -2.86495 3.68426 0.303237 -0.268381 0.152553 0 0 0 0 0 0 0 0 0 
26.982 1 317 38.8793 8.69288 4.75575 1.2348 4.58557 2.9496 0.0659709 -0.0870601 -0.158512 0 0 0 0 0 0 0 0 0 
26.982 1 120 38.9807 10.5334 2.55855 -1.69546 3.88149 4.74388 0.0359785 -0.0163514 -0.00363612 0 0 0 0 0 0 0 0 0 
26.982 1 314 36.6953 10.6547 4.61736 3.24425 0.105741 0.646324 -0.191284 -0.0750354 0.332679 0 0 0 0 0 0 0 0 0 
26.982 1 2423 22.3781 20.2787 10.3971 0.038852 2.24679 2.50898 0.18017 -0.159285 -0.0290285 0 0 0 0 0 0 0 0 0 
26.982 1 2237 38.9659 20.1861 4.32931 -1.98494 0.772029 0.979861 0.0346127 0.00413207 0.234003 0 0 0 0 0 0 0 0 0 
26.982 1 119 41.3347 8.60287 2.41005 3.73756 0.941487 2.17614 0.0827801 0.0680246 0.464214 0 0 0 0 0 0 0 0 0 
26.982 1 278 41.1791 6.59669 4.54099 3.60825 -2.58812 -4.47171 -0.219907 -0.0320913 -0.382111 0 0 0 0 0 0 0 0 0 
26.982 1 318 41.2478 10.4301 4.54077 -0.651248 1.43454 -0.10508 0.0785831 0.179197 -0.399783 0 0 0 0 0 0 0 0 0 
26.982 1 2619 17.9672 20.2066 14.6837 0.889311 3.58052 -0.521405 0.0538026 0.0889261 -0.0295884 0 0 0 0 0 0 0 0 0 
26.982 1 433 34.5642 0.776757 8.66589 5.22334 -5.14274 1.91274 -0.920628 -0.0378489 0.106556 0 0 0 0 0 0 0 0 0 
26.982 1 282 -0.767194 10.499 4.75306 -1.4769 -4.93568 -0.737497 -0.518149 -0.291388 -0.0490934 0 0 0 0 0 0 0 0 0 
26.982 1 123 -0.757323 12.3501 2.7198 -1.552 -1.80849 1.73417 -0.17845 -0.0207534 -0.583187 0 0 0 0 0 0 0 0 0 
26.982 1 322 -0.849961 14.1754 4.62966 2.4115 -0.811802 0.195065 0.0235578 -0.0887989 0.602626 0 0 0 0 0 0 0 0 0 
26.982 1 84 -2.97958 10.5359 2.61988 1.00968 4.89229 -0.898352 -0.271687 -0.367174 0.660529 0 0 0 0 0 0 0 0 0 
26.982 1 321 -3.1973 12.4861 4.65333 -3.93417 1.48435 -0.456109 0.0634235 -0.295351 -0.167768 0 0 0 0 0 0 0 0 0 
26.982 1 124 43.392 14.3111 2.6229 0.750524 -4.36057 3.38215 0.459002 -0.00454104 -0.156769 0 0 0 0 0 0 0 0 0 
26.982 1 286 3.75928 10.177 4.76635 1.45 -2.84199 1.725 0.221529 0.209412 -0.301092 0 0 0 0 0 0 0 0 0 
26.982 1 325 1.51609 12.0166 4.50963 -2.04013 -5.61194 0.781665 0.274529 0.547288 0.635721 0 0 0 0 0 0 0 0 0 
26.982 1 128 1.4829 14.2109 2.78994 4.53867 3.88342 0.341162 0.0007095 -0.0492494 -0.199206 0 0 0 0 0 0 0 0 0 
26.982 1 127 3.99278 12.5444 2.88856 0.175893 0.197985 -1.75646 -0.353652 -0.932757 -0.364073 0 0 0 0 0 0 0 0 0 
26.982 1 326 3.72316 14.3818 4.70758 -4.94697 -2.33707 2.80175 0.0906042 0.335874 0.340833 0 0 0 0 0 0 0 0 0 
26.982 1 121 -2.98723 12.296 0.654338 -2.46933 -0.554439 -4.60125 0.0242261 0.288665 0.168984 0 0 0 0 0 0 0 0 0 
26.982 1 329 6.15467 12.7363 4.85755 -0.237183 -1.6699 1.05064 0.0563636 -0.0940494 0.0466581 0 0 0 0 0 0 0 0 0 
26.982 1 132 6.02202 14.3877 2.69856 1.40366 0.0332125 3.86178 0.238481 0.26784 -0.0688912 0 0 0 0 0 0 0 0 0 
26.982 1 131 8.53358 12.4706 2.80057 6.78129 -2.16823 1.50411 -0.0602218 -0.599387 -0.0833966 0 0 0 0 0 0 0 0 0 
26.982 1 330 8.43277 14.371 4.64067 1.9656 2.93926 -1.06311 0.0221243 0.336016 0.0717568 0 0 0 0 0 0 0 0 0 
26.982 1 129 6.24726 12.3091 0.954483 -1.65359 -4.18582 -4.28804 -0.131665 -0.254035 -0.404883 0 0 0 0 0 0 0 0 0 
26.982 1 133 10.8665 12.464 0.88768 0.978911 1.94208 3.08105 -0.242661 -0.0399847 0.157631 0 0 0 0 0 0 0 0 0 
26.982 1 294 13.3044 10.4313 4.51777 -2.55434 3.12758 2.86752 -0.118368 0.496302 0.582852 0 0 0 0 0 0 0 0 0 
26.982 1 96 10.9829 10.4258 2.84519 3.72946 -2.13155 -1.55938 -0.417227 -0.123324 -0.232859 0 0 0 0 0 0 0 0 0 
26.982 1 333 10.8057 12.4029 4.60864 2.97526 2.34823 3.39238 0.252477 0.434434 0.602269 0 0 0 0 0 0 0 0 0 
26.982 1 136 10.6938 14.4686 2.79748 0.928934 -1.52405 2.48414 -0.0856437 0.106331 -0.3684 0 0 0 0 0 0 0 0 0 
26.982 1 135 13.0093 12.5107 2.8741 2.37179 2.97681 3.12363 0.285833 0.189099 -0.140058 0 0 0 0 0 0 0 0 0 
26.982 1 334 12.8895 14.6657 4.60807 -6.41059 -1.86851 4.23657 0.209987 -0.298237 0.226706 0 0 0 0 0 0 0 0 0 
26.982 1 140 15.326 14.2946 2.82125 -0.192643 -3.1954 0.239421 0.120863 0.0996723 0.0764189 0 0 0 0 0 0 0 0 0 
26.982 1 337 15.5081 12.37 4.77673 1.54019 3.29847 0.617299 -0.102713 -0.2732 0.135047 0 0 0 0 0 0 0 0 0 
26.982 1 139 17.7556 12.4063 3.02417 3.85828 -0.868228 2.03245 0.229114 -0.325336 -0.486083 0 0 0 0 0 0 0 0 0 
26.982 1 338 17.7869 14.5517 4.6141 -1.04705 1.23399 0.809451 -0.217329 0.116495 0.252441 0 0 0 0 0 0 0 0 0 
26.982 1 409 6.33798 0.802556 8.42515 0.584829 -1.01292 -2.58066 -0.0921801 0.213738 0.433751 0 0 0 0 0 0 0 0 0 
26.982 1 298 17.899 10.2973 4.78439 1.31446 -4.851 3.891 0.248323 0.881562 0.0346751 0 0 0 0 0 0 0 0 0 
26.982 1 104 20.3367 10.5356 2.63523 -1.46631 -0.572757 -5.07984 -0.369869 0.172686 0.579254 0 0 0 0 0 0 0 0 0 
26.982 1 341 20.1145 12.6371 4.7109 -3.3971 -0.13545 0.0422159 0.218583 -0.656939 -0.0311825 0 0 0 0 0 0 0 0 0 
26.982 1 144 20.273 14.297 2.62988 -4.12709 -0.551789 0.112407 -0.215974 0.134466 -0.123104 0 0 0 0 0 0 0 0 0 
26.982 1 437 38.8773 0.783666 8.5153 4.94854 -1.42528 2.55305 0.287146 0.413224 0.106496 0 0 0 0 0 0 0 0 0 
26.982 1 25 24.8186 0.992282 0.999079 -1.81695 2.91175 4.7451 -0.103467 -0.0936109 -0.308709 0 0 0 0 0 0 0 0 0 
26.982 1 108 25.0237 10.5505 2.53399 -0.949058 7.35842 4.43929 -0.284627 -0.146222 -0.0419851 0 0 0 0 0 0 0 0 0 
26.982 1 143 22.6376 12.4445 2.89427 -1.32695 1.38218 2.91342 -0.0353109 -0.00599241 -0.424898 0 0 0 0 0 0 0 0 0 
26.982 1 342 22.4623 14.479 4.63389 4.79658 -5.17745 -2.04342 0.0838245 0.174873 -0.568088 0 0 0 0 0 0 0 0 0 
26.982 1 148 24.9606 14.442 2.80919 2.45187 2.67804 3.28786 0.0413313 0.386481 -0.245603 0 0 0 0 0 0 0 0 0 
26.982 1 345 25.0534 12.4893 4.48951 -1.45845 -4.01107 1.97057 -0.358531 -0.0940303 0.574629 0 0 0 0 0 0 0 0 0 
26.982 1 306 27.05 10.7384 4.5146 2.57386 -0.463425 -3.18436 0.524837 -0.368653 0.206614 0 0 0 0 0 0 0 0 0 
26.982 1 112 29.4619 10.3013 2.70166 -0.983773 -4.99571 -0.143644 0.236666 0.411617 0.457237 0 0 0 0 0 0 0 0 0 
26.982 1 147 27.4004 12.5166 2.52445 -0.573865 0.17236 -3.5555 0.019524 0.274245 0.435397 0 0 0 0 0 0 0 0 0 
26.982 1 346 27.2627 14.3782 4.85302 0.200223 1.95898 2.5006 -0.0366356 -0.137458 -0.186971 0 0 0 0 0 0 0 0 0 
26.982 1 152 29.654 14.5639 2.78642 -5.85124 3.75312 -4.53541 -0.161501 0.256506 -0.343581 0 0 0 0 0 0 0 0 0 
26.982 1 349 29.6064 12.4821 4.44507 2.04188 0.26768 -2.43745 0.102678 -0.470981 0.211946 0 0 0 0 0 0 0 0 0 
26.982 1 411 8.48689 0.951877 10.4728 -0.744269 -2.18235 -3.51444 -0.0151587 -0.300536 0.356702 0 0 0 0 0 0 0 0 0 
26.982 1 151 32.1235 12.4394 2.7205 0.551106 6.88525 -1.81136 -0.469941 -0.0275679 0.458532 0 0 0 0 0 0 0 0 0 
26.982 1 350 31.6928 14.4769 4.69799 -2.10351 -1.33661 1.17652 0.259586 -0.207789 0.162959 0 0 0 0 0 0 0 0 0 
26.982 1 156 34.1278 14.3119 2.63604 1.56553 -0.849702 4.78406 0.240688 0.200646 -0.175033 0 0 0 0 0 0 0 0 0 
26.982 1 353 34.4045 12.6595 4.6687 2.89969 -0.742506 -0.034698 -0.39408 -0.474152 0.356453 0 0 0 0 0 0 0 0 0 
26.982 1 421 20.1717 0.883564 8.92854 4.5117 -2.27805 0.824329 0.132412 0.257187 -0.740379 0 0 0 0 0 0 0 0 0 
26.982 1 2831 31.9176 20.1201 18.2599 4.57286 -3.1792 -1.83117 -0.0884878 -0.149852 0.0108782 0 0 0 0 0 0 0 0 0 
26.982 1 155 36.6639 12.3621 2.55874 -1.43472 2.97312 -0.554556 -0.14246 0.905243 0.660326 0 0 0 0 0 0 0 0 0 
26.982 1 354 36.3933 14.4084 4.52807 -5.25429 -0.260202 -2.60782 0.392694 0.0229224 0.298721 0 0 0 0 0 0 0 0 0 
26.982 1 160 38.5846 14.4968 2.82879 -3.90594 1.66287 2.91355 0.548372 0.126839 0.454438 0 0 0 0 0 0 0 0 0 
26.982 1 357 39.0234 12.3591 4.71438 -0.790064 5.0098 -2.69089 -0.188521 0.0559082 -0.396974 0 0 0 0 0 0 0 0 0 
26.982 1 159 41.0847 12.7386 2.75578 2.77585 5.30637 -3.41172 -0.14456 -0.941916 -0.0700649 0 0 0 0 0 0 0 0 0 
26.982 1 358 41.1873 14.4085 4.63284 -3.67176 -3.93504 -0.658726 -0.108733 0.437221 0.777071 0 0 0 0 0 0 0 0 0 
26.982 1 2405 1.42905 20.2065 8.57498 -3.4166 -2.31984 5.44883 0.0265616 0.0137369 0.313946 0 0 0 0 0 0 0 0 0 
26.982 1 163 -0.949233 16.127 2.89365 3.69927 2.54768 -4.05129 0.35309 0.476569 -0.539412 0 0 0 0 0 0 0 0 0 
26.982 1 362 -0.625709 18.4293 4.51861 -1.45756 -1.84293 -1.12184 -0.228031 -0.128872 0.285436 0 0 0 0 0 0 0 0 0 
26.982 1 90 8.50799 10.4764 0.794469 5.21532 -0.96477 0.0926274 0.112824 0.107629 0.0433889 0 0 0 0 0 0 0 0 0 
26.982 1 164 -3.00119 18.2538 2.95245 -0.0711117 0.959344 1.84447 -0.182915 -0.377969 -0.479861 0 0 0 0 0 0 0 0 0 
26.982 1 2411 8.73405 20.1287 10.6414 0.453526 2.21298 0.129099 0.279066 -0.00193421 -0.0518979 0 0 0 0 0 0 0 0 0 
26.982 1 994 36.6145 18.3849 16.5494 1.96396 -1.5364 2.69689 -0.0742662 -0.602396 -0.871375 0 0 0 0 0 0 0 0 0 
26.982 1 619 17.8078 0.816245 13.9809 -0.417459 -1.80059 -1.22201 0.153601 0.196761 0.42444 0 0 0 0 0 0 0 0 0 
26.982 1 365 1.5758 16.1939 4.65709 0.801063 2.43156 -0.764554 -0.165762 0.61296 -0.270847 0 0 0 0 0 0 0 0 0 
26.982 1 168 1.5106 18.3627 2.70723 -1.72337 1.38083 -4.53134 -0.120427 -0.135607 -0.106988 0 0 0 0 0 0 0 0 0 
26.982 1 167 3.81825 16.4411 2.77847 1.54025 -3.45683 -4.21489 0.0831469 -0.17742 -0.282851 0 0 0 0 0 0 0 0 0 
26.982 1 366 3.85171 18.0981 4.87897 5.14599 0.0802751 3.62346 0.185039 -0.101468 0.410708 0 0 0 0 0 0 0 0 0 
26.982 1 102 22.5304 10.5348 0.810546 1.23138 -4.4095 -8.38559 0.253241 0.0276959 -0.106519 0 0 0 0 0 0 0 0 0 
26.982 1 2205 1.40879 20.1477 4.85203 -3.55293 1.1751 -3.59477 0.261952 0.0849539 -0.232534 0 0 0 0 0 0 0 0 0 
26.982 1 174 13.0928 18.5661 0.84699 -1.3259 1.65918 -2.12638 -0.181811 -0.454728 -0.418727 0 0 0 0 0 0 0 0 0 
26.982 1 369 6.01383 16.0944 4.81218 4.39522 1.43508 -2.10055 0.199692 0.188726 0.194607 0 0 0 0 0 0 0 0 0 
26.982 1 172 6.31605 18.2812 2.95773 -0.384053 0.0748276 3.80445 -0.53899 0.0337345 0.076097 0 0 0 0 0 0 0 0 0 
26.982 1 171 8.36927 16.4837 2.86622 0.732423 3.90643 -3.52726 0.315971 -0.549493 -0.246843 0 0 0 0 0 0 0 0 0 
26.982 1 370 8.53429 18.3022 4.88208 -2.73022 -1.59271 1.25428 -0.174825 0.395778 -0.0113337 0 0 0 0 0 0 0 0 0 
26.982 1 169 6.09013 16.3746 0.820912 3.59412 -2.97232 -1.19944 -0.118232 0.0786877 0.158827 0 0 0 0 0 0 0 0 0 
26.982 1 176 10.8412 18.3356 2.64365 3.51685 -0.980766 -1.70506 -0.436272 0.000278441 -0.179684 0 0 0 0 0 0 0 0 0 
26.982 1 373 10.7021 16.4356 4.66769 -2.77377 -1.99502 -2.83496 -0.253908 -0.12032 0.215999 0 0 0 0 0 0 0 0 0 
26.982 1 175 13.1981 16.3547 2.39926 0.476864 -0.54518 -0.842347 -0.099087 0.102482 0.363014 0 0 0 0 0 0 0 0 0 
26.982 1 374 12.712 18.2554 4.68103 -3.34985 -0.0839124 0.127356 0.791956 -0.157118 -0.229042 0 0 0 0 0 0 0 0 0 
26.982 1 2213 10.6179 20.2531 4.6361 -5.28177 0.629765 0.834862 -0.0313612 -0.0926013 0.352808 0 0 0 0 0 0 0 0 0 
26.982 1 23 22.3425 0.828373 2.69129 3.34759 -1.41844 1.5721 0.494 0.282355 0.30342 0 0 0 0 0 0 0 0 0 
26.982 1 377 15.2235 16.5035 4.57206 0.902122 1.08481 -2.00224 0.143038 0.456191 -0.299236 0 0 0 0 0 0 0 0 0 
26.982 1 180 15.3451 18.3486 2.61473 0.224568 2.76726 0.921105 0.185826 0.090962 -0.0174868 0 0 0 0 0 0 0 0 0 
26.982 1 179 17.7571 16.3313 2.67353 -4.44503 -0.260244 -2.33202 -0.101285 0.32116 -0.099057 0 0 0 0 0 0 0 0 0 
26.982 1 378 17.7435 18.2634 4.65368 -0.698157 0.72429 -6.70892 -0.0608206 0.211359 -0.451825 0 0 0 0 0 0 0 0 0 
26.982 1 66 27.2598 6.76493 0.934205 -1.06778 0.425409 -1.76924 -0.0334331 -0.352432 -0.00310183 0 0 0 0 0 0 0 0 0 
26.982 1 178 17.6733 18.3639 0.830828 2.13676 1.27479 -1.25705 0.0563116 0.077902 0.212704 0 0 0 0 0 0 0 0 0 
26.982 1 381 20.0994 16.1733 4.54812 -3.26071 1.75933 5.46567 0.0903308 0.682214 0.0964828 0 0 0 0 0 0 0 0 0 
26.982 1 184 19.9997 18.2824 2.67668 0.416139 -1.91843 -2.60401 0.0144747 0.287691 0.294576 0 0 0 0 0 0 0 0 0 
26.982 1 629 29.8899 0.97402 12.6572 -3.00668 1.72865 0.217116 -0.573422 -0.371755 -0.121923 0 0 0 0 0 0 0 0 0 
26.982 1 1194 36.4759 18.2005 20.1734 0.265657 -5.4375 2.04609 -0.103684 0.251178 0.342048 0 0 0 0 0 0 0 0 0 
26.982 1 183 22.3197 16.5777 2.68664 -4.24723 3.98357 -0.0507689 0.324346 0.115533 0.216644 0 0 0 0 0 0 0 0 0 
26.982 1 382 22.5554 18.1632 4.83303 2.78361 1.34381 -3.01489 -0.294887 0.158567 -0.254393 0 0 0 0 0 0 0 0 0 
26.982 1 385 24.912 16.5134 4.42564 -3.99183 0.589373 2.52121 -0.212753 -0.126466 0.193355 0 0 0 0 0 0 0 0 0 
26.982 1 188 25.0128 18.2772 2.40921 -1.41432 -2.83327 -2.03532 -0.16527 -0.210871 0.197951 0 0 0 0 0 0 0 0 0 
26.982 1 997 38.8834 16.2633 16.5018 -0.44182 1.93812 -3.43474 -0.0620137 -0.413084 -0.0932748 0 0 0 0 0 0 0 0 0 
26.982 1 187 27.395 16.3669 2.76578 -1.63899 5.69521 3.88143 -0.211965 -0.0055623 -0.0144169 0 0 0 0 0 0 0 0 0 
26.982 1 386 26.9899 18.5137 4.5095 -0.369574 -2.42869 3.60613 0.583013 -0.254825 -0.0267595 0 0 0 0 0 0 0 0 0 
26.982 1 192 29.6638 18.2438 2.75966 2.96907 -0.800695 1.80356 -0.314151 0.0211505 -0.319562 0 0 0 0 0 0 0 0 0 
26.982 1 389 29.413 16.463 4.88274 -2.74089 -1.00341 3.28194 0.00524288 -0.0444968 0.159364 0 0 0 0 0 0 0 0 0 
26.982 1 1000 38.8253 18.1099 18.3514 4.37991 1.36405 0.286868 0.0687795 0.541033 -0.134729 0 0 0 0 0 0 0 0 0 
26.982 1 1193 34.0252 16.2328 20.195 3.11266 2.92761 -1.741 -0.215516 0.407232 -0.180395 0 0 0 0 0 0 0 0 0 
26.982 1 2219 17.8888 20.2691 6.50373 -1.07577 2.66678 2.71331 -0.309038 -0.368416 0.221927 0 0 0 0 0 0 0 0 0 
26.982 1 2031 31.9488 20.2153 2.94412 -1.85872 1.17445 6.32418 -0.305114 0.0768075 -0.591472 0 0 0 0 0 0 0 0 0 
26.982 1 191 31.8813 16.4292 2.73289 2.45768 -0.220079 -1.12633 -0.0965411 -0.42675 -0.4638 0 0 0 0 0 0 0 0 0 
26.982 1 390 31.7872 18.1964 4.68777 1.07064 -0.0386921 -0.699607 0.00313741 -0.419348 0.111247 0 0 0 0 0 0 0 0 0 
26.982 1 393 33.9807 16.1686 4.60769 -0.734834 0.602218 -1.27583 0.402858 0.286997 0.0503635 0 0 0 0 0 0 0 0 0 
26.982 1 196 34.0417 18.258 2.81209 -1.8344 2.10449 -0.413994 0.411038 0.306592 0.0631747 0 0 0 0 0 0 0 0 0 
26.982 1 109 29.7106 8.62704 0.693839 -4.57705 -0.366774 -2.82536 -0.0171742 -0.171709 0.185236 0 0 0 0 0 0 0 0 0 
26.982 1 195 36.5442 16.5104 2.82852 9.51198 -0.0613571 -3.80533 -0.443538 -0.335034 0.014097 0 0 0 0 0 0 0 0 0 
26.982 1 394 36.3984 18.4406 4.68998 -0.962993 -4.31813 -3.25158 -0.0876546 -0.0396738 0.212725 0 0 0 0 0 0 0 0 0 
26.982 1 397 38.8183 16.6024 4.69031 4.2543 3.12609 -2.83442 0.0575495 -0.716642 0.143802 0 0 0 0 0 0 0 0 0 
26.982 1 200 38.7034 18.2905 2.62723 0.247635 3.99621 0.472224 0.554397 -0.532418 -0.453511 0 0 0 0 0 0 0 0 0 
26.982 1 2833 33.9679 20.1849 16.3065 -4.23698 -2.27465 -3.68248 0.423987 -0.334201 -0.0890966 0 0 0 0 0 0 0 0 0 
26.982 1 361 -3.14324 16.0466 4.64186 -6.44538 -2.17929 3.5535 -0.0882047 0.3089 0.277124 0 0 0 0 0 0 0 0 0 
26.982 1 199 41.0494 16.2593 2.67806 -0.822993 -3.62544 4.33568 0.165047 -0.00358454 -0.293858 0 0 0 0 0 0 0 0 0 
26.982 1 398 41.2267 18.1759 4.56819 -2.60204 -2.11829 4.1945 0.030874 -0.0380599 -0.161565 0 0 0 0 0 0 0 0 0 
26.982 1 2039 41.4095 20.4815 2.89311 -1.03376 8.15947 -0.638125 -0.32599 -0.541302 -0.545752 0 0 0 0 0 0 0 0 0 
26.982 1 243 -1.16635 4.6039 6.73442 0.190762 -6.32525 -0.611395 0.387459 0.343237 0.126058 0 0 0 0 0 0 0 0 0 
26.982 1 402 -0.905863 2.68184 8.74378 0.838375 0.359488 -3.85029 0.00118989 0.0220139 -0.00712908 0 0 0 0 0 0 0 0 0 
26.982 1 443 -1.02723 4.6485 10.6367 1.1387 -1.27546 2.35334 0.0716876 0.38266 -0.163019 0 0 0 0 0 0 0 0 0 
26.982 1 208 1.61408 2.40896 6.7441 -3.62622 -1.50465 2.65341 0.041539 0.643635 -0.122083 0 0 0 0 0 0 0 0 0 
26.982 1 445 1.34761 4.76314 8.49193 5.37142 -8.69033 -0.34541 -0.241128 -0.220753 -0.0932406 0 0 0 0 0 0 0 0 0 
26.982 1 247 3.73013 4.67651 6.65115 -0.667411 1.37548 0.117131 -0.0973189 -0.457789 -0.592199 0 0 0 0 0 0 0 0 0 
26.982 1 406 3.85461 2.66189 8.57562 -2.00776 -2.04891 5.42544 -0.045221 0.340931 -0.124247 0 0 0 0 0 0 0 0 0 
26.982 1 449 6.16592 4.34476 8.28934 4.61395 4.03877 -0.264658 0.179569 0.63541 0.464026 0 0 0 0 0 0 0 0 0 
26.982 1 212 6.08235 2.60139 6.34719 -0.250819 -4.5055 -4.89443 0.337015 -0.309572 -0.233176 0 0 0 0 0 0 0 0 0 
26.982 1 251 8.67224 5.05493 6.74403 -1.61743 2.14816 3.26153 -0.309222 -0.399422 0.299848 0 0 0 0 0 0 0 0 0 
26.982 1 410 8.68235 2.66987 8.36404 -3.78348 3.86206 0.575993 -0.112392 0.373902 -0.265633 0 0 0 0 0 0 0 0 0 
26.982 1 451 8.54207 4.739 10.4328 -3.78852 3.7581 -1.84995 -0.239507 -0.27538 -0.588237 0 0 0 0 0 0 0 0 0 
26.982 1 412 6.0685 2.69858 10.5357 0.938737 5.26433 -2.41801 0.468394 0.248759 -0.169636 0 0 0 0 0 0 0 0 0 
26.982 1 2421 20.1824 20.1426 8.50025 2.82507 -0.308693 -2.93731 -0.108864 0.257123 0.509349 0 0 0 0 0 0 0 0 0 
26.982 1 2425 24.831 20.1693 8.44981 4.57108 -1.35454 -3.69158 -0.230574 0.211404 0.257041 0 0 0 0 0 0 0 0 0 
26.982 1 453 10.9227 4.90448 8.7623 -0.961411 -2.5631 1.57564 -0.251543 -0.0952316 -0.292084 0 0 0 0 0 0 0 0 0 
26.982 1 216 11.1867 2.98045 6.69706 -1.96618 -1.77216 4.88952 -0.488877 -0.50019 0.390289 0 0 0 0 0 0 0 0 0 
26.982 1 255 13.2352 4.75259 6.56765 -4.26235 -0.054829 -1.2255 0.519268 0.135622 -0.0249503 0 0 0 0 0 0 0 0 0 
26.982 1 414 13.4123 2.8469 8.6703 -0.64024 1.1158 2.90782 -0.197738 -0.176824 -0.560983 0 0 0 0 0 0 0 0 0 
26.982 1 455 13.1246 4.81317 10.4692 -3.95811 -3.88174 -2.45409 0.260282 -0.0147132 0.512275 0 0 0 0 0 0 0 0 0 
26.982 1 416 10.9415 2.63497 10.3381 -5.26928 1.4195 -1.42804 -0.127088 0.602004 -0.142703 0 0 0 0 0 0 0 0 0 
26.982 1 417 15.5279 0.810901 8.53269 -1.71656 1.02138 -0.908263 0.158129 0.450768 -0.222532 0 0 0 0 0 0 0 0 0 
26.982 1 457 15.6513 4.60322 8.46747 -0.169503 2.66362 3.05197 0.0315445 0.392065 0.0565202 0 0 0 0 0 0 0 0 0 