ITEM: TIMESTEP
2000
ITEM: NUMBER OF ATOMS
4000
ITEM: BOX BOUNDS pp pp pp
-0.48068 40.9807
0.0733891 40.4266
0.0685253 40.4315
ITEM: ATOMS mass type id x y z vx vy vz fx fy fz xrad yrad zrad vxrad vyrad vzrad fxrad fyrad fzrad 
26.982 1 811 9.96441 0.0984832 18.244 0.592808 -0.0899876 -1.80643 -0.199645 -0.586643 0.263833 0 0 0 0 0 0 0 0 0 
26.982 1 3 1.60851 -0.000158036 1.91262 3.73574 -2.52818 2.81255 0.466463 0.0734194 0.192511 0 0 0 0 0 0 0 0 0 
26.982 1 8 3.58684 2.10029 2.1171 -3.09009 1.09905 -0.564574 0.234889 0.0257324 -0.127867 0 0 0 0 0 0 0 0 0 
26.982 1 807 5.63709 0.00993178 18.2508 -4.28103 3.41261 1.25632 0.189197 0.165222 -0.245985 0 0 0 0 0 0 0 0 0 
26.982 1 43 1.73159 4.08474 2.10715 -0.493366 -2.74607 -6.91939 -0.38704 0.535314 -0.0671542 0 0 0 0 0 0 0 0 0 
26.982 1 202 1.45425 2.13484 4.00044 -7.61711 5.68713 -3.50097 0.4484 -0.130604 0.135258 0 0 0 0 0 0 0 0 0 
26.982 1 241 -0.536676 4.18522 4.03172 4.19031 0.931574 1.42016 0.230922 0.196754 0.0585284 0 0 0 0 0 0 0 0 0 
26.982 1 245 3.68354 4.19428 4.12789 2.01709 -0.643166 3.96974 -0.239711 -0.0952452 0.169363 0 0 0 0 0 0 0 0 0 
26.982 1 2825 24.4935 20.3537 16.4044 -3.53287 5.89599 2.98751 -0.626047 -0.359551 -0.381006 0 0 0 0 0 0 0 0 0 
26.982 1 2819 18.2194 20.1021 18.3123 -2.72075 -0.344635 -2.11615 -0.0201815 0.739307 -0.204939 0 0 0 0 0 0 0 0 0 
26.982 1 12 7.70314 2.05466 1.98489 -1.49825 -3.16231 -0.910985 0.183384 0.0978326 0.390193 0 0 0 0 0 0 0 0 0 
26.982 1 47 5.78762 4.11182 2.22464 -2.27227 -1.75508 1.015 -0.237095 0.374848 -0.899358 0 0 0 0 0 0 0 0 0 
26.982 1 49 7.9112 3.95352 -0.00373385 -1.96465 2.72179 -0.136955 -0.545833 0.415443 0.108796 0 0 0 0 0 0 0 0 0 
26.982 1 206 5.67741 2.09954 3.91965 -5.26379 -1.1633 -1.52976 -0.0438421 -0.154558 0.896883 0 0 0 0 0 0 0 0 0 
26.982 1 209 7.67706 0.13218 4.06729 -0.505972 0.00831702 -1.58488 0.463126 -0.221417 0.0403563 0 0 0 0 0 0 0 0 0 
26.982 1 249 7.63097 4.01886 4.21508 1.99832 2.68232 -0.617535 0.585303 0.019421 0.0571996 0 0 0 0 0 0 0 0 0 
26.982 1 10 10.0382 2.04642 -0.0147518 -3.86724 1.89284 2.22913 -0.392823 0.116558 0.0947707 0 0 0 0 0 0 0 0 0 
26.982 1 16 11.9299 2.21034 2.09259 -2.10298 -1.10715 -1.04394 0.230533 -0.32001 0.074485 0 0 0 0 0 0 0 0 0 
26.982 1 51 9.69347 3.94105 2.04351 1.41355 5.12211 -0.0234574 0.330121 0.3251 0.181973 0 0 0 0 0 0 0 0 0 
26.982 1 53 11.8991 4.06051 -0.00236754 -0.0795093 2.17235 -1.19473 -0.176194 0.539004 0.111724 0 0 0 0 0 0 0 0 0 
26.982 1 210 9.95548 1.98312 4.16078 0.98339 -0.59586 2.04207 -0.586813 -0.125693 -0.120138 0 0 0 0 0 0 0 0 0 
26.982 1 1197 36.8449 16.2921 20.3279 0.390868 -3.97034 -1.6424 -0.244012 -0.356486 -0.248703 0 0 0 0 0 0 0 0 0 
26.982 1 253 11.725 4.1148 4.11511 -0.61495 0.227109 0.961626 0.974357 -0.193335 -0.128305 0 0 0 0 0 0 0 0 0 
26.982 1 20 16.0287 2.27094 2.33536 -2.53544 2.84417 -1.30085 0.387655 -0.834865 -0.766861 0 0 0 0 0 0 0 0 0 
26.982 1 55 14.0378 4.09413 2.14885 1.70443 1.18609 2.66299 -0.490589 0.254117 -0.190774 0 0 0 0 0 0 0 0 0 
26.982 1 57 16.0447 4.05665 0.169086 -0.384456 0.218047 -3.32572 -0.0277415 0.309959 -0.217853 0 0 0 0 0 0 0 0 0 
26.982 1 214 14.0714 2.1994 4.10814 2.15907 0.654779 -0.556375 -0.602858 -0.48692 0.323577 0 0 0 0 0 0 0 0 0 
26.982 1 257 16.1363 4.09431 4.22338 -3.2026 0.43615 0.616428 0.098227 0.502572 -0.108656 0 0 0 0 0 0 0 0 0 
26.982 1 218 18.075 1.99507 4.3916 -3.50108 -1.60775 0.722646 0.464401 0.236802 -0.614154 0 0 0 0 0 0 0 0 0 
26.982 1 18 18.0177 2.0319 0.192011 -3.35895 -0.326245 2.64855 0.219463 -0.133407 0.00819051 0 0 0 0 0 0 0 0 0 
26.982 1 819 18.2838 0.0253826 18.2155 3.75043 5.94211 3.21237 0.0175582 -0.347806 -0.0500128 0 0 0 0 0 0 0 0 0 
26.982 1 2813 12.0056 20.3319 16.0231 5.99685 -1.1142 -4.14298 0.282931 -0.7051 0.970156 0 0 0 0 0 0 0 0 0 
26.982 1 22 22.3611 2.00254 0.0304514 -2.58842 -4.62568 -1.93155 -0.261881 -0.0997711 0.546169 0 0 0 0 0 0 0 0 0 
26.982 1 24 20.0687 1.93674 2.17943 2.08824 5.16907 -4.27851 0.575511 0.231663 0.0959376 0 0 0 0 0 0 0 0 0 
26.982 1 59 18.1756 3.94209 2.10763 2.33633 2.10553 -1.14356 8.16182e-05 0.550656 0.325175 0 0 0 0 0 0 0 0 0 
26.982 1 61 20.2149 4.00143 0.0130378 -1.95945 0.0559962 -2.22527 0.174538 0.208783 0.376773 0 0 0 0 0 0 0 0 0 
26.982 1 63 22.2711 3.97958 2.02847 3.45767 2.38991 2.65802 -0.180258 -0.109693 0.384354 0 0 0 0 0 0 0 0 0 
26.982 1 222 22.3551 2.20876 4.2077 1.12671 -0.690949 1.93894 -0.210012 -0.767079 -0.630023 0 0 0 0 0 0 0 0 0 
26.982 1 261 20.1266 4.0967 4.29354 3.19856 -1.85283 -1.71186 -0.0131156 -0.189143 -0.666403 0 0 0 0 0 0 0 0 0 
26.982 1 25 24.412 0.151956 0.233341 -3.35049 -1.7398 -2.29156 -0.100036 -0.437824 -0.452607 0 0 0 0 0 0 0 0 0 
26.982 1 635 34.6866 0.107769 13.9872 2.52417 -0.986921 -3.21629 -0.0458372 -0.0168789 0.281476 0 0 0 0 0 0 0 0 0 
26.982 1 27 26.4404 0.116059 2.2005 -3.78673 3.20201 0.572024 0.304977 -0.658803 -0.228795 0 0 0 0 0 0 0 0 0 
26.982 1 28 24.5711 1.96783 2.22202 -0.293844 -4.77909 -0.952049 -1.10865 0.721663 0.00167885 0 0 0 0 0 0 0 0 0 
26.982 1 65 24.4219 4.05263 0.262294 1.45919 -2.26812 -0.67335 -0.0567153 0.114376 -0.25519 0 0 0 0 0 0 0 0 0 
26.982 1 67 26.4753 4.07954 2.18303 1.3458 1.39998 -2.57275 -0.029773 0.274481 0.197994 0 0 0 0 0 0 0 0 0 
26.982 1 225 24.2236 0.0388185 4.17723 -2.45511 -3.00727 -2.86851 0.244694 0.00771009 0.160383 0 0 0 0 0 0 0 0 0 
26.982 1 226 26.454 2.06107 4.10442 4.66357 2.44096 8.40166 0.16712 0.283927 0.523409 0 0 0 0 0 0 0 0 0 
26.982 1 265 24.1759 4.25312 4.18728 -0.354661 3.09882 -0.692594 0.684025 -0.488213 0.00456938 0 0 0 0 0 0 0 0 0 
26.982 1 30 30.6096 2.29771 0.0107219 -0.902933 1.25645 -1.2281 0.0439536 -0.342779 0.430503 0 0 0 0 0 0 0 0 0 
26.982 1 32 28.5436 2.01173 1.98763 3.3891 -1.17413 0.87867 0.478263 0.650382 0.815423 0 0 0 0 0 0 0 0 0 
26.982 1 69 28.3542 4.22245 0.177827 -0.0172663 1.3615 1.93342 0.959344 0.116748 0.148629 0 0 0 0 0 0 0 0 0 
26.982 1 71 30.7235 4.20372 2.23612 -3.02096 1.60105 0.502346 -0.520868 -0.114424 -0.376418 0 0 0 0 0 0 0 0 0 
26.982 1 230 30.7047 1.96714 4.07793 3.77398 2.53747 2.6708 -0.352157 0.534312 0.116432 0 0 0 0 0 0 0 0 0 
26.982 1 269 28.4649 4.10412 4.20347 5.56631 -0.323343 2.17392 0.10852 0.0091869 -0.480504 0 0 0 0 0 0 0 0 0 
26.982 1 35 34.7943 0.311258 2.1592 -3.86021 5.76752 2.76488 0.158696 -0.803028 -0.324187 0 0 0 0 0 0 0 0 0 
26.982 1 36 32.6957 2.16185 2.01598 -4.04981 4.79363 0.111174 -0.0547336 -0.0309923 -0.0142931 0 0 0 0 0 0 0 0 0 
26.982 1 73 32.8504 4.28729 0.0975776 1.17055 0.760785 -2.13545 -0.481948 -0.557169 0.0712665 0 0 0 0 0 0 0 0 0 
26.982 1 75 34.7913 4.05651 2.22599 0.419146 -1.28618 -1.32941 0.123044 0.367312 -0.367424 0 0 0 0 0 0 0 0 0 
26.982 1 234 34.7803 2.09561 4.15005 -1.64569 5.36659 -0.808996 0.125732 0.258235 0.178777 0 0 0 0 0 0 0 0 0 
26.982 1 273 32.735 4.10429 4.18634 -2.76172 4.32299 -0.769235 -0.234245 0.213241 -0.0280352 0 0 0 0 0 0 0 0 0 
26.982 1 4 41.1819 2.16386 1.93161 0.293272 -1.85829 -0.622511 -0.310937 0.0402425 0.0599604 0 0 0 0 0 0 0 0 0 
26.982 1 40 36.9319 2.16528 2.06902 1.37197 -2.08264 0.583942 -0.0266212 -0.182914 -0.0872148 0 0 0 0 0 0 0 0 0 
26.982 1 79 38.9303 4.05952 2.02204 1.37894 3.92448 -0.813301 -0.0262113 0.296303 0.212989 0 0 0 0 0 0 0 0 0 
26.982 1 961 -0.271681 16.354 16.3229 2.7434 1.77356 -2.88414 -0.385297 -0.349853 -0.0518532 0 0 0 0 0 0 0 0 0 
26.982 1 238 39.0417 2.12667 4.16478 1.20964 2.30063 6.12918 -0.317234 -0.000170477 -0.439329 0 0 0 0 0 0 0 0 0 
26.982 1 277 36.929 3.98854 4.18369 2.35198 -1.47514 0.965509 -0.16233 0.413587 -0.165683 0 0 0 0 0 0 0 0 0 
26.982 1 631 30.5941 0.246862 14.1566 -3.56876 -0.571856 2.83767 -0.0193643 -0.858023 -0.280735 0 0 0 0 0 0 0 0 0 
26.982 1 48 3.65848 6.1703 2.09444 3.85235 2.85342 -3.09098 0.112448 -0.108536 0.0862399 0 0 0 0 0 0 0 0 0 
26.982 1 627 26.5299 0.0142115 14.0116 -0.630482 4.0737 -0.955345 0.140019 0.379818 0.281985 0 0 0 0 0 0 0 0 0 
26.982 1 83 1.45757 8.10083 2.21456 1.00905 1.801 -3.23713 0.255905 0.334766 -0.48901 0 0 0 0 0 0 0 0 0 
26.982 1 403 1.53816 0.0412025 10.0462 -0.144504 4.04517 -0.865636 0.134404 0.326347 0.281779 0 0 0 0 0 0 0 0 0 
26.982 1 242 1.61142 6.26467 4.11564 4.24292 -3.61925 0.658303 -0.00367079 -0.783842 0.143193 0 0 0 0 0 0 0 0 0 
26.982 1 285 3.57817 8.23625 4.07652 1.54277 4.32446 -0.151326 0.143543 0.00825244 0.276086 0 0 0 0 0 0 0 0 0 
26.982 1 46 5.75778 6.0407 -0.0182034 -0.303916 7.25468 -0.00384604 -0.0804925 0.254556 0.485896 0 0 0 0 0 0 0 0 0 
26.982 1 52 7.83763 6.07181 2.11311 -1.80808 -2.85731 -1.23714 -0.616074 -0.170847 -0.0363175 0 0 0 0 0 0 0 0 0 
26.982 1 87 5.55278 8.20299 2.07777 3.73983 -0.517367 -2.43614 0.774131 -0.299079 0.187321 0 0 0 0 0 0 0 0 0 
26.982 1 603 1.41298 0.077099 14.2839 -5.99138 1.92198 2.97398 0.120597 -0.247968 -0.409055 0 0 0 0 0 0 0 0 0 
26.982 1 246 5.66816 6.08445 4.27189 -0.22194 -3.07269 -6.42663 0.244007 0.392572 -0.239757 0 0 0 0 0 0 0 0 0 
26.982 1 289 7.81648 8.11873 4.01266 -1.09554 -1.4489 4.95415 -0.664807 -0.101252 0.396637 0 0 0 0 0 0 0 0 0 
26.982 1 92 7.8061 10.2088 2.046 0.732 -1.03687 -4.70237 -0.189328 -0.153447 -0.0939335 0 0 0 0 0 0 0 0 0 
26.982 1 286 5.68508 10.3192 4.03435 1.50703 -1.04872 -3.01632 0.12934 -0.663173 0.232299 0 0 0 0 0 0 0 0 0 
26.982 1 1021 20.3491 0.0670022 20.2328 1.58611 2.55291 1.48886 0.0414704 -0.35508 0.0723555 0 0 0 0 0 0 0 0 0 
26.982 1 56 11.8171 5.9696 2.17907 -0.423536 1.83249 -7.56195 0.0391849 0.22092 -0.398282 0 0 0 0 0 0 0 0 0 
26.982 1 91 9.68638 8.04407 2.19342 -4.42031 7.78696 -2.71039 0.657495 0.0176855 -0.491094 0 0 0 0 0 0 0 0 0 
26.982 1 250 9.79152 5.95327 4.17341 4.15301 3.53478 6.47014 -0.131339 0.332715 -0.0992949 0 0 0 0 0 0 0 0 0 
26.982 1 293 11.8679 7.93044 4.21989 3.17699 2.00562 1.2921 0.00444598 0.027197 -0.42322 0 0 0 0 0 0 0 0 0 
26.982 1 54 13.8792 6.21055 0.168377 -4.09579 -4.64968 0.189966 0.0134482 -0.177413 -0.147075 0 0 0 0 0 0 0 0 0 
26.982 1 60 15.9482 6.10427 2.04208 0.712062 2.49366 -1.75693 0.513579 -0.152452 0.0429692 0 0 0 0 0 0 0 0 0 
26.982 1 95 13.9001 8.1327 2.32316 0.260596 -0.29923 0.713154 -0.0714501 -0.135973 -0.491822 0 0 0 0 0 0 0 0 0 
26.982 1 97 16.0268 8.17768 0.118209 7.79352 -2.33434 -0.129986 0.235266 -0.591935 -0.242363 0 0 0 0 0 0 0 0 0 
26.982 1 254 14.008 5.95486 4.22346 -2.69658 0.125865 1.9191 -0.272085 0.358615 -0.371855 0 0 0 0 0 0 0 0 0 
26.982 1 297 15.987 7.96778 4.0172 4.67459 2.84163 0.0199934 0.548276 0.329905 0.349317 0 0 0 0 0 0 0 0 0 
26.982 1 58 18.2959 5.97467 -0.00704811 1.86001 2.70491 -1.13934 -0.78065 0.333199 0.347874 0 0 0 0 0 0 0 0 0 
26.982 1 2639 38.9113 20.2482 14.2661 -0.307973 -1.61529 1.50158 -0.163828 0.072229 -0.246888 0 0 0 0 0 0 0 0 0 
26.982 1 64 20.1399 6.0239 2.07225 -0.796295 0.855158 -3.196 0.090892 -0.102928 0.366369 0 0 0 0 0 0 0 0 0 
26.982 1 99 18.087 8.10188 1.97705 -0.990245 -0.499907 2.12919 0.172156 -0.173327 0.603033 0 0 0 0 0 0 0 0 0 
26.982 1 103 22.207 7.97415 2.24604 3.87908 0.207649 3.01911 0.00482648 0.710645 -0.170486 0 0 0 0 0 0 0 0 0 
26.982 1 258 18.2088 6.03768 4.17878 4.6762 -3.1093 -3.30404 -0.24506 0.480534 -0.320951 0 0 0 0 0 0 0 0 0 
26.982 1 262 22.2057 6.07593 4.16149 -1.2174 3.15391 -3.50867 -0.115247 -0.0743956 0.0701458 0 0 0 0 0 0 0 0 0 
26.982 1 301 20.254 8.14678 4.32292 -2.44505 -7.30446 2.90956 -0.346084 0.167572 -0.357237 0 0 0 0 0 0 0 0 0 
26.982 1 298 18.1237 10.2679 4.21755 3.86123 -5.61407 -0.248142 0.135691 -0.773491 0.0464977 0 0 0 0 0 0 0 0 0 
26.982 1 2637 36.8312 20.31 12.1402 2.92622 2.32184 2.78515 -0.065161 -0.377271 0.0253439 0 0 0 0 0 0 0 0 0 
26.982 1 68 24.3496 6.14489 2.19753 -2.2067 2.37977 -2.68745 0.118073 -0.133352 -0.00966127 0 0 0 0 0 0 0 0 0 
26.982 1 107 26.5823 8.13833 2.12785 -0.822626 -4.20973 -2.63136 -0.521105 0.526752 0.211151 0 0 0 0 0 0 0 0 0 
26.982 1 266 26.3894 6.08754 4.16202 -2.16335 2.11824 0.6584 0.203292 0.288913 0.130037 0 0 0 0 0 0 0 0 0 
26.982 1 305 24.3394 8.19538 4.05635 -0.744837 2.45506 -5.93933 0.22822 0.068686 0.391209 0 0 0 0 0 0 0 0 0 
26.982 1 106 26.4333 10.1235 -0.0454713 -0.367003 -2.26552 1.50478 0.40186 -0.374755 0.710528 0 0 0 0 0 0 0 0 0 
26.982 1 108 24.3258 10.111 2.01012 1.51683 2.31277 -0.647598 0.322198 0.00283082 0.455488 0 0 0 0 0 0 0 0 0 
26.982 1 306 26.4081 10.1448 4.21994 1.23205 -5.41575 4.17491 -0.0124293 -0.0773869 -0.443122 0 0 0 0 0 0 0 0 0 
26.982 1 70 30.7042 6.26622 0.00113444 -2.56437 6.37123 -1.63231 -0.484206 -0.452249 0.299521 0 0 0 0 0 0 0 0 0 
26.982 1 72 28.5986 6.37733 2.02716 -3.21778 -2.22168 -3.48276 0.139661 -1.24525 0.379923 0 0 0 0 0 0 0 0 0 
26.982 1 111 30.586 8.29962 2.08699 4.0619 -2.46626 -2.3352 0.164951 0.0890619 -0.1359 0 0 0 0 0 0 0 0 0 
26.982 1 270 30.6954 6.19428 4.16763 0.173172 4.59755 2.4995 -0.00123919 -0.222492 -0.200673 0 0 0 0 0 0 0 0 0 
26.982 1 309 28.6331 8.02506 4.15082 1.86961 -0.32623 -2.73278 -0.337085 0.751422 0.0859608 0 0 0 0 0 0 0 0 0 
26.982 1 112 28.5194 10.308 2.05064 0.199289 -2.38213 3.93508 0.138312 -0.378666 0.127779 0 0 0 0 0 0 0 0 0 
26.982 1 76 32.6647 6.25157 2.04763 -2.52556 -0.12446 3.01987 0.25573 -0.121773 0.156915 0 0 0 0 0 0 0 0 0 
26.982 1 115 34.8325 8.29588 2.11598 -2.47329 -1.38861 -2.08461 -0.533167 -0.0377947 -0.347024 0 0 0 0 0 0 0 0 0 
26.982 1 274 34.8393 6.205 4.15745 0.27825 -3.54466 -0.511583 -0.184389 0.00240919 -0.625498 0 0 0 0 0 0 0 0 0 
26.982 1 313 32.6873 8.16783 3.95414 -0.479765 2.82188 -2.33795 0.196476 0.477768 0.421315 0 0 0 0 0 0 0 0 0 
26.982 1 114 34.867 10.3098 0.124512 -4.07291 3.72599 2.43502 -0.105731 -0.276843 -0.0982701 0 0 0 0 0 0 0 0 0 
26.982 1 116 32.6562 10.4036 2.03237 -2.56176 1.03541 4.04685 0.573832 -0.984296 0.0311633 0 0 0 0 0 0 0 0 0 
26.982 1 44 40.8773 6.17557 1.92507 1.08933 -1.04656 3.01727 0.314369 -0.0462937 0.324385 0 0 0 0 0 0 0 0 0 
26.982 1 281 40.875 7.88437 4.14209 1.57691 -7.16287 3.08753 -0.127032 0.839095 0.0153603 0 0 0 0 0 0 0 0 0 
26.982 1 2631 30.4687 20.3116 14.2345 6.01123 0.855278 -3.26013 0.616297 0.174061 -0.00406256 0 0 0 0 0 0 0 0 0 
26.982 1 80 36.7719 6.24096 1.97655 -4.30118 -0.843926 -0.880991 0.104372 -0.297426 0.481185 0 0 0 0 0 0 0 0 0 
26.982 1 117 36.9925 8.2773 0.155289 -2.15604 0.26246 2.08517 -0.658135 -0.00272362 -0.177174 0 0 0 0 0 0 0 0 0 
26.982 1 119 38.9555 8.25692 1.97659 0.147056 0.903634 0.882214 0.163675 -0.0268673 0.482339 0 0 0 0 0 0 0 0 0 
26.982 1 278 38.8495 6.13984 3.92321 1.50873 2.52792 0.311945 -0.291048 -0.0302221 0.541481 0 0 0 0 0 0 0 0 0 
26.982 1 317 36.8056 8.25463 3.9663 3.67655 -2.90257 1.18249 0.30094 -0.309869 0.564917 0 0 0 0 0 0 0 0 0 
26.982 1 120 36.8421 10.3041 2.16914 -5.60956 0.993386 0.529132 0.148619 -0.0751943 -0.301819 0 0 0 0 0 0 0 0 0 
26.982 1 318 38.8206 10.0964 4.27263 -0.832356 -0.673476 1.9532 0.389534 0.23931 -0.399133 0 0 0 0 0 0 0 0 0 
26.982 1 88 3.6956 10.2223 2.22428 -0.63043 2.20215 2.1802 -0.277625 0.288776 -0.528903 0 0 0 0 0 0 0 0 0 
26.982 1 2611 9.98971 20.266 14.3359 5.65591 0.0692634 -0.134511 -0.466188 -0.0966119 -0.649101 0 0 0 0 0 0 0 0 0 
26.982 1 123 1.64048 12.1824 2.21947 -1.09214 2.15939 1.49526 0.256986 0.224428 -0.507805 0 0 0 0 0 0 0 0 0 
26.982 1 2609 7.86729 20.2938 12.1762 -4.45049 4.16909 -2.33026 -0.08255 0.36363 -0.0588546 0 0 0 0 0 0 0 0 0 
26.982 1 128 3.82463 14.2232 1.90269 -0.0932254 -4.96019 4.84109 -0.21301 -0.0232806 0.0812356 0 0 0 0 0 0 0 0 0 
26.982 1 282 1.57659 10.2961 4.08441 2.60472 4.15127 1.99866 0.300816 -0.465954 0.503915 0 0 0 0 0 0 0 0 0 
26.982 1 322 1.74173 14.1191 4.02807 -6.39785 -4.44845 2.99352 -0.185366 0.737141 0.129092 0 0 0 0 0 0 0 0 0 
26.982 1 325 3.75308 12.3135 4.30221 4.52493 -1.41251 0.325323 -0.339951 -0.550658 -0.408564 0 0 0 0 0 0 0 0 0 
26.982 1 207 5.6861 0.0112416 6.09799 -8.23031 2.15056 -3.06548 -0.00538465 0.211313 -0.125907 0 0 0 0 0 0 0 0 0 
26.982 1 127 5.74153 12.2254 2.0293 -2.45348 -7.95828 -3.83396 -0.330594 -0.200234 -0.291795 0 0 0 0 0 0 0 0 0 
26.982 1 129 7.74624 12.1015 0.0038371 -1.22276 -0.378314 2.1373 0.242881 0.0127191 -0.118789 0 0 0 0 0 0 0 0 0 
26.982 1 132 7.81276 14.0115 2.08407 0.335864 0.59063 -4.81431 0.21686 0.546825 -0.23221 0 0 0 0 0 0 0 0 0 
26.982 1 326 5.64333 14.133 4.15994 -2.12599 -0.612894 1.75005 0.553112 0.56259 -0.257791 0 0 0 0 0 0 0 0 0 
26.982 1 329 7.73172 12.1205 4.01566 1.93553 -2.71076 -5.07143 0.833263 0.112302 0.115558 0 0 0 0 0 0 0 0 0 
26.982 1 96 11.8869 10.079 2.14274 0.946143 -3.62482 3.43413 0.370427 0.0496931 0.0603813 0 0 0 0 0 0 0 0 0 
26.982 1 407 5.68669 0.135318 10.1823 3.62025 1.7388 3.14727 -0.220869 -0.250836 0.0607292 0 0 0 0 0 0 0 0 0 
26.982 1 131 9.96929 12.2011 1.89775 0.33107 -3.99604 -1.50744 -0.236992 -0.257659 0.401328 0 0 0 0 0 0 0 0 0 
26.982 1 133 12.0745 12.0237 0.0720101 2.98252 3.72201 -2.90164 -0.0355361 0.185793 -0.222653 0 0 0 0 0 0 0 0 0 
26.982 1 136 12.0342 14.0952 1.95365 -0.36143 1.86218 -2.30261 0.209761 -0.0869959 0.201541 0 0 0 0 0 0 0 0 0 
26.982 1 290 9.92186 10.1085 3.9416 2.73272 2.03531 5.30936 -0.427686 0.215582 0.540363 0 0 0 0 0 0 0 0 0 
26.982 1 330 10.0551 13.9972 3.9398 2.87951 1.36512 -2.33032 -0.409579 0.49873 0.278079 0 0 0 0 0 0 0 0 0 
26.982 1 333 11.9799 12.0267 4.06581 1.59906 -2.31429 2.68917 0.182162 0.293993 -0.149676 0 0 0 0 0 0 0 0 0 
26.982 1 100 16.0753 10.1916 2.2004 -4.50638 -3.81946 2.12461 0.339541 -0.411102 0.0864711 0 0 0 0 0 0 0 0 0 
26.982 1 135 14.0767 11.9531 1.95012 -1.35334 5.00057 2.41517 -0.167412 0.743925 0.533965 0 0 0 0 0 0 0 0 0 
26.982 1 140 16.4097 14.1042 2.06831 -1.72305 -2.94622 -0.144136 -0.755859 0.453772 0.190355 0 0 0 0 0 0 0 0 0 
26.982 1 294 14.1235 10.1751 4.16902 -3.56873 -2.90826 3.76432 -0.295079 -0.139125 -0.22661 0 0 0 0 0 0 0 0 0 
26.982 1 334 14.0539 14.1494 3.87006 -3.84457 -4.18985 -2.52068 0.356242 -0.475561 0.657414 0 0 0 0 0 0 0 0 0 
26.982 1 337 16.1657 12.2518 4.26504 -1.18047 -0.55113 -0.986133 -0.273585 -0.115403 -0.206589 0 0 0 0 0 0 0 0 0 
26.982 1 104 20.2249 10.1119 2.15795 5.14983 5.17613 1.08788 0.11522 -0.0817144 0.12546 0 0 0 0 0 0 0 0 0 
26.982 1 139 18.2032 12.1396 2.23463 4.53379 1.17785 3.68477 0.394575 -0.157424 -0.0471509 0 0 0 0 0 0 0 0 0 
26.982 1 143 22.4408 12.1902 2.07308 -1.0441 0.283846 -1.97433 -0.319977 -0.210359 0.161489 0 0 0 0 0 0 0 0 0 
26.982 1 144 20.2567 13.9889 2.14183 3.01351 -3.3607 1.5822 -0.137132 0.419915 -0.017923 0 0 0 0 0 0 0 0 0 
26.982 1 302 22.3339 10.334 4.1923 -0.954 0.00195934 -2.73178 0.326916 -0.675 -0.0384449 0 0 0 0 0 0 0 0 0 
26.982 1 338 18.1679 14.3004 4.24465 -2.19275 -3.20812 0.818216 0.266221 -0.316847 -0.0705056 0 0 0 0 0 0 0 0 0 
26.982 1 341 20.3056 12.0313 4.34092 -3.17333 -0.521009 2.62667 -0.26686 0.584611 -0.375361 0 0 0 0 0 0 0 0 0 
26.982 1 342 22.2293 14.2127 4.00985 -3.54868 0.891549 0.286964 0.221433 -0.0407072 0.462335 0 0 0 0 0 0 0 0 0 
26.982 1 147 26.4618 12.1105 2.03737 2.841 -0.865711 -3.96171 0.201595 0.0011099 0.448532 0 0 0 0 0 0 0 0 0 
26.982 1 148 24.3161 14.1978 2.09521 3.29099 0.0379083 -5.03158 0.172324 0.119842 0.0681721 0 0 0 0 0 0 0 0 0 
26.982 1 345 24.444 12.2635 4.12422 1.60448 -2.09431 -4.22404 -0.0141242 -0.238871 0.252365 0 0 0 0 0 0 0 0 0 
26.982 1 346 26.5294 14.2665 3.9207 2.07881 -1.44435 0.200237 -0.0575489 -0.513271 0.411589 0 0 0 0 0 0 0 0 0 
26.982 1 110 30.653 10.3063 -0.0422854 4.26532 -1.39123 -0.869589 -0.169545 0.0018857 0.459291 0 0 0 0 0 0 0 0 0 
26.982 1 149 28.5022 12.1032 -0.0467449 2.23694 3.26001 -0.873853 0.211491 0.363517 0.26978 0 0 0 0 0 0 0 0 0 
26.982 1 1025 24.3061 0.0423386 20.4495 0.199506 -0.285359 1.73797 0.862431 0.495143 -0.113625 0 0 0 0 0 0 0 0 0 
26.982 1 151 30.8052 12.2171 2.08048 1.2718 7.36034 2.03174 -1.15424 0.007522 -0.314339 0 0 0 0 0 0 0 0 0 
26.982 1 152 28.7436 14.1972 2.10424 -1.06354 5.14147 0.546955 -0.562116 -0.20337 -0.380464 0 0 0 0 0 0 0 0 0 
26.982 1 310 30.5975 10.2625 4.12031 3.15432 0.839455 2.2595 0.184799 -0.155519 -0.0473564 0 0 0 0 0 0 0 0 0 
26.982 1 349 28.5262 12.2473 4.12902 -4.11956 9.30806 -4.97297 0.112224 -0.00537451 -0.141031 0 0 0 0 0 0 0 0 0 
26.982 1 350 30.5814 14.1064 4.10111 3.3672 -0.315428 -0.492371 0.338985 0.597996 0.14122 0 0 0 0 0 0 0 0 0 
26.982 1 203 1.57404 0.272486 6.07055 -0.625312 1.93288 0.261038 -0.0565162 -0.610719 -0.0224159 0 0 0 0 0 0 0 0 0 
26.982 1 155 34.8384 12.3159 2.08893 0.797298 -3.00171 -2.71118 0.062713 -0.0749014 0.179959 0 0 0 0 0 0 0 0 0 
26.982 1 156 32.6644 14.1143 2.02713 0.648973 5.67325 -0.197199 0.301552 0.630891 0.559551 0 0 0 0 0 0 0 0 0 
26.982 1 314 34.7775 10.251 4.2693 -6.4041 0.0091642 -4.31862 -0.338365 0.278563 -0.415139 0 0 0 0 0 0 0 0 0 
26.982 1 353 32.7042 12.2305 4.02271 -1.86826 2.59844 2.47958 0.418457 0.0237443 0.722966 0 0 0 0 0 0 0 0 0 
26.982 1 354 34.9523 14.2182 4.17308 0.440031 -2.7667 -6.11666 -0.455137 -0.108667 0.0768426 0 0 0 0 0 0 0 0 0 
26.982 1 84 -0.416501 10.2388 2.18317 5.28303 4.53526 -2.0276 -0.514158 -0.231504 0.147172 0 0 0 0 0 0 0 0 0 
26.982 1 124 -0.544031 14.0925 2.12556 1.05478 -3.90986 -0.125115 0.548136 0.35961 0.0500709 0 0 0 0 0 0 0 0 0 
26.982 1 321 -0.44054 12.1784 4.20812 2.74753 2.47174 7.26025 -0.444343 0.263347 -0.26536 0 0 0 0 0 0 0 0 0 
26.982 1 158 38.8557 14.1642 0.0800567 -3.85778 4.78855 -1.13034 0.377661 0.463613 -0.210341 0 0 0 0 0 0 0 0 0 
26.982 1 159 38.8507 12.2766 1.98297 -4.37629 -2.24924 -3.85441 0.135919 -0.329648 0.853468 0 0 0 0 0 0 0 0 0 
26.982 1 160 36.8916 14.5145 2.1523 -4.37802 3.76348 -0.542233 0.0468658 -0.908363 -0.0603846 0 0 0 0 0 0 0 0 0 
26.982 1 357 36.8342 12.2233 4.06024 1.12693 -4.46512 0.373991 0.100448 0.210177 0.195125 0 0 0 0 0 0 0 0 0 
26.982 1 358 39.0281 14.3088 4.02155 -1.41136 -1.44162 -1.81377 -0.352099 -0.352791 0.415203 0 0 0 0 0 0 0 0 0 
26.982 1 163 1.65685 16.1419 1.99329 -4.05351 3.41574 -1.54476 0.0387974 0.231178 0.313312 0 0 0 0 0 0 0 0 0 
26.982 1 164 -0.416405 18.1782 2.09212 3.09263 1.09453 4.55947 0.113575 0.477456 -0.0843401 0 0 0 0 0 0 0 0 0 
26.982 1 829 28.4652 0.0227397 16.2943 -2.90941 0.206159 3.68114 0.175948 0.474706 -0.148673 0 0 0 0 0 0 0 0 0 
26.982 1 168 3.76049 18.3184 2.15009 2.70444 0.8497 -3.75495 -0.0579279 -0.000752395 -0.330347 0 0 0 0 0 0 0 0 0 
26.982 1 361 -0.556461 16.3203 3.99719 3.52702 5.77348 0.0911 0.631363 -0.171236 0.401086 0 0 0 0 0 0 0 0 0 
26.982 1 362 1.62063 18.3428 4.11628 -4.80321 -0.266204 -0.122733 -0.0947691 -0.068689 -0.379815 0 0 0 0 0 0 0 0 0 
26.982 1 365 3.80971 16.1729 3.92479 3.10633 3.68677 2.55769 -0.162353 0.151649 0.349068 0 0 0 0 0 0 0 0 0 
26.982 1 964 -0.300177 18.1367 18.4403 0.79086 -1.67592 1.70765 -0.402227 0.537966 -0.575417 0 0 0 0 0 0 0 0 0 
26.982 1 405 3.69258 -0.00643255 8.09564 4.36417 2.67652 -2.09182 -0.251559 0.39831 0.237834 0 0 0 0 0 0 0 0 0 
26.982 1 167 6.00903 16.3649 1.89656 -2.02063 5.00268 -0.475443 -0.66044 -0.388243 0.046341 0 0 0 0 0 0 0 0 0 
26.982 1 2239 39.0239 20.1034 6.10787 2.71398 -5.07634 2.75804 -0.51861 0.795111 0.671705 0 0 0 0 0 0 0 0 0 
26.982 1 172 7.89154 18.2691 1.99572 1.86216 -1.57034 -2.31046 0.212376 -0.118576 -0.0482714 0 0 0 0 0 0 0 0 0 
26.982 1 366 5.85968 18.2677 4.00309 -4.47887 -4.28373 1.72869 -0.126043 -0.0605214 0.191729 0 0 0 0 0 0 0 0 0 
26.982 1 369 7.84129 16.0465 3.90715 -6.1427 -0.763868 0.752775 0.34325 0.328391 0.589344 0 0 0 0 0 0 0 0 0 
26.982 1 170 10.1577 18.2845 0.0389395 0.00100083 0.0174028 -1.13944 -0.684052 -0.357521 0.171571 0 0 0 0 0 0 0 0 0 
26.982 1 171 10.0696 16.2186 2.04523 -3.97685 2.38119 -10.2374 -0.330317 -0.273476 -0.210579 0 0 0 0 0 0 0 0 0 
26.982 1 2427 26.3422 20.2772 10.2141 -0.701658 -1.07772 -3.2127 0.400584 -0.129104 -0.0957775 0 0 0 0 0 0 0 0 0 
26.982 1 176 12.1655 18.1278 2.18162 -0.686848 -2.24497 5.31122 -0.0299523 0.430821 -0.75528 0 0 0 0 0 0 0 0 0 
26.982 1 370 10.0328 18.1281 3.93632 0.581136 -0.7194 0.66432 -0.61764 -0.129894 0.287532 0 0 0 0 0 0 0 0 0 
26.982 1 373 12.2489 16.2148 4.00229 -1.47858 -3.86654 1.05706 -0.542482 -0.754784 0.270208 0 0 0 0 0 0 0 0 0 
26.982 1 997 36.8356 16.3164 16.2201 3.48088 5.66153 -0.464192 0.300623 -0.27092 0.000917662 0 0 0 0 0 0 0 0 0 
26.982 1 998 38.9222 18.3716 16.2184 1.53537 -4.03581 1.09674 -0.0651522 -0.561453 0.130219 0 0 0 0 0 0 0 0 0 
26.982 1 175 14.1663 16.0714 2.03398 -0.269836 -1.35242 1.66777 0.395796 0.372245 -0.108829 0 0 0 0 0 0 0 0 0 
26.982 1 177 16.14 16.0844 -0.0776078 2.96589 0.956142 -1.42526 0.316935 -0.163183 1.0893 0 0 0 0 0 0 0 0 0 
26.982 1 180 16.157 18.1495 2.1196 3.5833 -2.29245 -0.570841 -0.0902823 0.382893 -0.435399 0 0 0 0 0 0 0 0 0 
26.982 1 374 14.1768 18.16 4.08859 4.63145 0.273089 -1.79402 -0.148592 0.113382 -0.276623 0 0 0 0 0 0 0 0 0 
26.982 1 377 16.1198 16.2649 4.22055 -6.98737 1.09678 1.18814 0.13263 -0.37134 -0.266232 0 0 0 0 0 0 0 0 0 
26.982 1 2015 14.0825 20.3791 1.93088 1.72247 -1.58177 1.30304 0.160834 -0.354272 0.698467 0 0 0 0 0 0 0 0 0 
26.982 1 178 18.1496 18.1758 -0.063342 1.7665 -1.88681 3.74191 0.0524359 -0.271719 0.41749 0 0 0 0 0 0 0 0 0 
26.982 1 179 18.1574 16.2722 2.1358 -0.281697 0.748136 -1.57791 0.0929077 -0.268313 -0.389866 0 0 0 0 0 0 0 0 0 
26.982 1 183 22.3817 16.1806 1.83443 1.44668 -0.21081 -4.68708 -0.369217 -0.127182 0.995374 0 0 0 0 0 0 0 0 0 
26.982 1 184 20.3532 18.2234 2.13008 2.52513 -2.18821 0.644941 -0.190968 -0.145198 -0.146094 0 0 0 0 0 0 0 0 0 
26.982 1 378 18.1478 18.372 4.03378 -5.73986 -6.49442 -2.84864 -0.0466382 -0.325767 0.337846 0 0 0 0 0 0 0 0 0 
26.982 1 381 20.1561 16.2311 4.00148 0.651522 1.16897 -5.31895 0.344512 -0.274472 0.342431 0 0 0 0 0 0 0 0 0 
26.982 1 382 22.2667 18.1335 4.15842 -3.9663 4.78387 1.064 -0.056526 0.272101 -0.0287587 0 0 0 0 0 0 0 0 0 
26.982 1 2023 22.2395 20.2417 2.10427 -4.42215 1.40281 -1.9444 -0.0691066 0.0628505 0.46734 0 0 0 0 0 0 0 0 0 
26.982 1 999 39.1304 16.2312 18.2667 0.158619 3.52356 -7.29806 -0.453457 -0.063056 -0.475925 0 0 0 0 0 0 0 0 0 
26.982 1 186 26.47 18.2335 -0.0165075 0.327749 -1.5337 -4.50482 -0.26693 -0.0790271 0.0515403 0 0 0 0 0 0 0 0 0 
26.982 1 187 26.4131 16.1393 2.08457 3.59727 -0.396567 0.235177 0.167266 0.638036 -0.429341 0 0 0 0 0 0 0 0 0 
26.982 1 188 24.3821 18.3771 2.16082 1.66514 3.8272 -1.54421 0.0599901 -0.404622 -0.24625 0 0 0 0 0 0 0 0 0 
26.982 1 385 24.3489 16.2676 4.01482 -1.54471 4.15101 -5.69447 -0.00653227 -0.168646 -0.0107148 0 0 0 0 0 0 0 0 0 
26.982 1 386 26.5472 18.2124 3.90731 -5.94626 -7.85711 0.84884 -0.469506 -0.396513 0.483847 0 0 0 0 0 0 0 0 0 
26.982 1 2225 24.3777 20.1165 4.29825 3.98557 1.6695 -0.303234 -0.163696 0.424511 -0.308649 0 0 0 0 0 0 0 0 0 
26.982 1 191 30.6049 16.3178 2.0491 -2.29117 -0.824938 0.742887 -0.0126456 -0.481778 0.465712 0 0 0 0 0 0 0 0 0 
26.982 1 192 28.5236 18.2359 1.85328 5.68568 -2.75375 3.23028 -0.0219358 -0.288535 0.203391 0 0 0 0 0 0 0 0 0 
26.982 1 389 28.5833 16.2262 3.98535 1.6809 -3.82783 0.751161 0.100318 0.0314719 0.196282 0 0 0 0 0 0 0 0 0 
26.982 1 390 30.6096 18.2242 4.05683 5.08931 2.71516 -0.857546 -0.0835332 0.247735 0.243233 0 0 0 0 0 0 0 0 0 
26.982 1 2425 24.4654 20.2224 8.01003 0.45206 3.02154 1.88592 -0.158364 -0.139316 0.314467 0 0 0 0 0 0 0 0 0 
26.982 1 195 34.8342 16.1064 2.35789 6.18663 1.9208 2.49201 -0.61866 0.748888 -0.639948 0 0 0 0 0 0 0 0 0 
26.982 1 196 32.7454 18.1849 2.15738 0.819005 -1.16482 1.13627 -0.0132262 0.126836 0.159151 0 0 0 0 0 0 0 0 0 
26.982 1 393 32.6582 16.2797 4.16248 0.76944 -0.741762 -0.942303 0.0496794 -0.228433 -0.244933 0 0 0 0 0 0 0 0 0 
26.982 1 394 34.6828 18.304 4.1874 2.82721 3.73351 0.861646 0.378399 -0.0495388 0.0782239 0 0 0 0 0 0 0 0 0 
26.982 1 2035 34.7562 20.1582 2.10379 -1.09009 3.1841 -1.09175 0.218232 0.171873 -0.112876 0 0 0 0 0 0 0 0 0 
26.982 1 199 39.0076 16.1072 2.02633 1.46349 0.444145 -1.1024 -0.161246 0.875667 -0.211421 0 0 0 0 0 0 0 0 0 
26.982 1 200 36.8675 18.1438 2.05551 0.621124 -6.20478 4.28093 0.0420054 0.031219 0.0945367 0 0 0 0 0 0 0 0 0 
26.982 1 397 36.8603 16.3592 4.26511 2.62709 5.26884 3.40695 0.141868 0.134453 -0.125755 0 0 0 0 0 0 0 0 0 
26.982 1 398 38.8823 18.2749 4.08052 0.34493 4.6274 2.83677 0.123696 -0.30453 -0.0316249 0 0 0 0 0 0 0 0 0 
26.982 1 1000 36.8178 18.2123 18.1818 2.3337 0.126048 1.61042 -0.0217666 0.0475504 0.0641715 0 0 0 0 0 0 0 0 0 
26.982 1 208 3.5692 2.09946 6.11014 1.93643 -1.5859 -1.25077 0.532835 0.159969 0.000846948 0 0 0 0 0 0 0 0 0 
26.982 1 243 1.58552 4.00546 6.03264 1.47505 0.260513 1.94908 0.0140982 0.651111 0.0786071 0 0 0 0 0 0 0 0 0 
26.982 1 402 1.67723 2.19363 8.11797 -1.67475 -0.439192 -0.569308 -0.298329 -0.290589 0.145704 0 0 0 0 0 0 0 0 0 
26.982 1 441 41.0731 4.26295 8.07263 -3.88772 2.64793 -0.979757 -0.224115 -0.440087 -0.0317618 0 0 0 0 0 0 0 0 0 
26.982 1 445 3.59884 4.30751 8.22745 1.39644 2.88222 -3.34113 0.27078 -0.339857 -0.641758 0 0 0 0 0 0 0 0 0 
26.982 1 408 3.61927 2.18648 10.1693 1.29287 -5.16242 0.791221 -0.0364426 -0.433154 -0.0885772 0 0 0 0 0 0 0 0 0 
26.982 1 212 7.74418 1.99394 6.14084 1.6266 -5.24886 2.67733 -0.0777326 0.254554 -0.16283 0 0 0 0 0 0 0 0 0 
26.982 1 247 5.57854 4.0418 6.24092 3.31221 -2.74394 1.60446 0.349257 0.133885 0.0457428 0 0 0 0 0 0 0 0 0 
26.982 1 406 5.68517 1.99556 8.16625 1.75085 0.313548 -2.61576 -0.063584 0.293533 -0.235481 0 0 0 0 0 0 0 0 0 
26.982 1 1194 34.7116 18.2134 20.1587 -6.85363 -1.88936 -2.99388 -0.048578 0.0172719 0.110992 0 0 0 0 0 0 0 0 0 
26.982 1 449 7.89298 4.08021 8.24646 -1.5472 2.30678 -4.68454 -0.669754 -0.225023 -0.626726 0 0 0 0 0 0 0 0 0 
26.982 1 412 7.67878 2.16054 10.203 -1.84427 2.45583 -5.31179 0.20545 -0.305136 -0.0761574 0 0 0 0 0 0 0 0 0 
26.982 1 447 5.62883 4.03625 10.1041 -1.74189 -2.56727 -2.38149 0.180673 0.410635 0.169303 0 0 0 0 0 0 0 0 0 
26.982 1 211 9.82074 -0.158986 6.17077 -4.89443 5.23548 -2.40701 0.031554 0.482987 -0.267933 0 0 0 0 0 0 0 0 0 
26.982 1 216 11.9639 2.01276 6.05189 -3.17852 0.833995 1.1044 0.15275 -0.0201628 0.196065 0 0 0 0 0 0 0 0 0 
26.982 1 251 10.0189 3.99346 6.08678 -2.70195 -0.820052 -1.73027 -0.662655 0.215027 0.398692 0 0 0 0 0 0 0 0 0 
26.982 1 410 9.78138 2.11999 7.97114 -2.77807 0.175467 2.43035 0.239289 -0.514658 0.242764 0 0 0 0 0 0 0 0 0 