ITEM: TIMESTEP
10350
ITEM: NUMBER OF ATOMS
4000
ITEM: BOX BOUNDS pp pp pp
-2.17775 42.6778
0.589646 39.9104
0.598088 39.9019
ITEM: ATOMS mass type id x y z vx vy vz fx fy fz xrad yrad zrad vxrad vyrad vzrad fxrad fyrad fzrad 
26.982 1 43 0.00611899 4.43437 2.64881 0.162362 -0.445377 -4.79888 0.38975 0.21539 -0.251579 0 0 0 0 0 0 0 0 0 
26.982 1 202 0.271448 2.58406 4.71844 1.11231 2.14448 0.12589 -0.265577 -0.0544168 -0.106893 0 0 0 0 0 0 0 0 0 
26.982 1 4 -2.17525 2.59506 2.53524 0.24378 -3.62603 2.80502 0.00196553 -0.0646354 0.181776 0 0 0 0 0 0 0 0 0 
26.982 1 8 2.39715 2.69035 2.46775 -0.140756 -5.22704 -3.53567 -0.366864 -0.0116233 0.279544 0 0 0 0 0 0 0 0 0 
26.982 1 961 -2.15934 16.3186 16.3675 -1.25877 -1.81433 -2.6909 -0.160151 0.121668 0.212253 0 0 0 0 0 0 0 0 0 
26.982 1 241 42.7161 4.47533 4.6039 1.31338 0.269173 1.80181 -0.28808 -0.306206 0.105611 0 0 0 0 0 0 0 0 0 
26.982 1 805 2.31807 0.685897 16.3705 3.41459 -2.26943 0.283323 -0.0897585 -0.493766 0.0115025 0 0 0 0 0 0 0 0 0 
26.982 1 3 0.0989616 0.615577 2.58388 -1.469 1.33208 -1.24327 -0.191378 0.178243 0.327839 0 0 0 0 0 0 0 0 0 
26.982 1 3025 24.8441 20.4271 20.4162 2.39492 3.86325 2.45375 0.134275 -0.54388 0.23561 0 0 0 0 0 0 0 0 0 
26.982 1 2821 20.3456 20.0629 16.3647 -1.31152 0.521274 0.796144 -0.0729989 0.210562 -0.577872 0 0 0 0 0 0 0 0 0 
26.982 1 245 2.43696 4.5456 4.56885 0.323618 -6.10284 2.46136 -0.342582 -0.0648857 0.124866 0 0 0 0 0 0 0 0 0 
26.982 1 47 4.48724 4.70427 2.52319 1.4827 3.36487 -2.92125 0.15385 -0.146093 0.21746 0 0 0 0 0 0 0 0 0 
26.982 1 206 4.59757 2.74545 4.55603 -0.149838 0.74673 -3.90203 0.0826242 -0.220311 -0.177462 0 0 0 0 0 0 0 0 0 
26.982 1 12 6.77514 2.65224 2.73166 1.36952 0.400853 1.75752 0.0447716 -0.19931 -0.371003 0 0 0 0 0 0 0 0 0 
26.982 1 2809 6.8111 20.332 16.366 -4.66345 0.8159 -0.364008 -0.258255 0.114493 -0.190199 0 0 0 0 0 0 0 0 0 
26.982 1 1000 38.0294 18.2248 18.3434 -1.16796 0.00868073 -0.513927 0.540378 0.122315 -0.0441614 0 0 0 0 0 0 0 0 0 
26.982 1 49 6.79193 4.55198 0.530549 3.36409 2.51173 2.25311 -0.131641 -0.325576 0.222977 0 0 0 0 0 0 0 0 0 
26.982 1 249 6.82396 4.73338 4.51575 0.114459 1.50788 0.417822 -0.322588 -0.0432197 0.0802847 0 0 0 0 0 0 0 0 0 
26.982 1 998 40.3072 18.2314 16.4039 -2.31538 -3.99974 -1.32033 0.154236 0.0913284 -0.173913 0 0 0 0 0 0 0 0 0 
26.982 1 51 8.96373 4.55875 2.62924 -0.403851 -2.1974 -2.05185 0.0135436 0.18685 -0.194207 0 0 0 0 0 0 0 0 0 
26.982 1 210 9.06062 2.49518 4.57597 -0.530807 -1.97289 -2.20632 -0.0894874 0.0471534 -0.0667041 0 0 0 0 0 0 0 0 0 
26.982 1 2807 4.30182 20.082 18.1267 0.180958 2.8969 -0.935231 0.325104 0.735164 0.421414 0 0 0 0 0 0 0 0 0 
26.982 1 16 11.4159 2.55887 2.31843 0.346443 -0.767078 -1.40465 -0.0157187 0.168951 0.29154 0 0 0 0 0 0 0 0 0 
26.982 1 253 11.1348 4.45632 4.38071 0.091904 -1.08455 -3.11579 0.315405 0.224045 0.260394 0 0 0 0 0 0 0 0 0 
26.982 1 55 13.4075 4.44895 2.54242 5.08799 -2.18365 -2.1428 0.179954 0.106927 -0.402834 0 0 0 0 0 0 0 0 0 
26.982 1 214 13.6955 2.59438 4.61072 1.6071 3.11067 -0.716255 -0.351147 -0.591818 -0.428895 0 0 0 0 0 0 0 0 0 
26.982 1 14 13.666 2.43978 0.443245 1.69384 3.23618 0.761751 -0.10442 0.521188 0.479209 0 0 0 0 0 0 0 0 0 
26.982 1 217 16.0159 0.576519 4.33233 2.28975 0.924409 0.257302 -0.576396 0.123569 0.338612 0 0 0 0 0 0 0 0 0 
26.982 1 999 40.3969 16.4184 18.3634 0.453404 0.936585 1.93145 0.186667 -0.208804 0.128795 0 0 0 0 0 0 0 0 0 
26.982 1 257 15.6302 4.53155 4.31212 -6.83025 1.40444 3.63897 0.398929 -0.226359 0.606878 0 0 0 0 0 0 0 0 0 
26.982 1 20 15.8741 2.49168 2.45949 3.53344 1.38365 -0.290268 -0.216283 0.13914 -0.0859262 0 0 0 0 0 0 0 0 0 
26.982 1 218 18.1891 2.42956 4.4794 1.0688 -2.4688 2.47274 -0.21538 0.200591 -0.0689012 0 0 0 0 0 0 0 0 0 
26.982 1 59 18.0528 4.44733 2.51186 -1.32545 3.61553 5.96653 -0.0439486 -0.0666993 -0.0720511 0 0 0 0 0 0 0 0 0 
26.982 1 18 18.0265 2.46416 0.535187 1.59707 6.3059 0.371301 0.074319 -0.142014 -0.0717544 0 0 0 0 0 0 0 0 0 
26.982 1 24 20.2152 2.41419 2.47101 -0.532712 -2.47195 -2.39342 0.177837 0.062854 0.431769 0 0 0 0 0 0 0 0 0 
26.982 1 261 20.2787 4.4784 4.5516 4.25326 1.63952 2.42518 -0.108207 -0.22392 -0.39519 0 0 0 0 0 0 0 0 0 
26.982 1 63 22.3753 4.19098 2.5044 4.918 3.63953 -2.09977 0.289296 0.421422 0.0728185 0 0 0 0 0 0 0 0 0 
26.982 1 222 22.7689 2.32555 4.5527 -3.2299 0.105595 0.736938 -0.414367 0.128596 -0.0758966 0 0 0 0 0 0 0 0 0 
26.982 1 28 24.7924 2.36513 2.50456 -1.19931 0.568307 1.47838 0.338979 0.150068 -0.308399 0 0 0 0 0 0 0 0 0 
26.982 1 997 38.121 16.3902 16.4099 -1.33191 0.728415 -2.71273 -0.00355553 -0.349543 -0.123753 0 0 0 0 0 0 0 0 0 
26.982 1 265 24.7717 4.35233 4.32858 0.816027 1.97729 -3.42814 0.251191 0.195546 0.301189 0 0 0 0 0 0 0 0 0 
26.982 1 67 27.1371 4.532 2.51553 2.85002 -1.00471 3.86986 -0.415473 0.100359 0.12016 0 0 0 0 0 0 0 0 0 
26.982 1 226 27.1499 2.34826 4.35694 4.34402 0.118687 0.0607662 -0.236108 0.514949 0.296494 0 0 0 0 0 0 0 0 0 
26.982 1 2803 -0.153516 20.1848 18.3904 1.01254 -5.88274 -0.0967107 0.386332 0.628381 -0.356178 0 0 0 0 0 0 0 0 0 
26.982 1 32 29.3869 2.57029 2.61018 2.7426 -0.240451 3.00077 -0.155938 -0.611669 -0.181365 0 0 0 0 0 0 0 0 0 
26.982 1 269 29.2856 4.46495 4.36151 6.39942 0.0283006 0.493995 -0.216921 0.432121 0.512297 0 0 0 0 0 0 0 0 0 
26.982 1 71 31.7407 4.37398 2.62432 -3.27374 -2.84516 -4.47642 -0.590057 0.62097 0.00475343 0 0 0 0 0 0 0 0 0 
26.982 1 230 31.3608 2.61512 4.61222 1.0802 5.60007 0.420935 0.313687 -0.301776 0.34432 0 0 0 0 0 0 0 0 0 
26.982 1 273 33.6184 4.70549 4.80539 -0.687916 1.44705 -1.20587 0.0757464 -0.641819 -0.392553 0 0 0 0 0 0 0 0 0 
26.982 1 31 31.6117 0.545945 2.65374 -2.82052 -2.57564 -3.79263 -0.41724 -0.0293659 -0.199327 0 0 0 0 0 0 0 0 0 
26.982 1 36 33.7347 2.59845 2.901 0.352346 -3.97352 -3.33764 -0.124724 -0.28816 -0.520564 0 0 0 0 0 0 0 0 0 
26.982 1 233 33.5925 0.415735 4.55448 4.68866 -3.20983 0.83082 0.608437 0.0334561 -0.133244 0 0 0 0 0 0 0 0 0 
26.982 1 73 33.7463 4.38089 0.588638 2.35478 -1.36262 3.04887 0.172904 -0.144082 0.0839604 0 0 0 0 0 0 0 0 0 
26.982 1 75 35.9531 4.28474 2.47028 -3.21907 4.09222 -4.34946 0.141499 1.08676 -0.427229 0 0 0 0 0 0 0 0 0 
26.982 1 234 35.9684 2.6482 4.32896 0.823549 2.73883 1.08182 0.486208 -0.651208 1.25416 0 0 0 0 0 0 0 0 0 
26.982 1 77 38.3033 4.59836 0.500138 4.00555 -0.350181 3.53677 0.100315 -0.50964 0.152374 0 0 0 0 0 0 0 0 0 
26.982 1 277 38.3638 4.50762 4.5419 -4.84965 -4.04311 -0.261233 -0.486779 -0.159223 0.00561085 0 0 0 0 0 0 0 0 0 
26.982 1 34 36.2026 2.35855 0.595298 -2.47258 -2.92041 -0.466399 -0.48468 0.108801 0.0972278 0 0 0 0 0 0 0 0 0 
26.982 1 40 38.3622 2.61779 2.48089 -5.48655 0.285649 -0.840322 -0.0370542 -0.17993 0.232139 0 0 0 0 0 0 0 0 0 
26.982 1 237 38.2607 0.543221 4.50884 -0.908603 0.974189 -1.13984 0.0675112 0.205119 -0.355728 0 0 0 0 0 0 0 0 0 
26.982 1 79 40.4455 4.70105 2.61057 2.46479 2.84499 -2.40608 0.0174396 -0.472019 0.242702 0 0 0 0 0 0 0 0 0 
26.982 1 238 40.4298 2.53273 4.58461 3.05237 -5.87454 0.256284 0.0669587 -0.0687048 -0.150283 0 0 0 0 0 0 0 0 0 
26.982 1 637 38.0838 0.467368 12.5687 -5.23362 -0.544588 5.92822 -0.29882 0.0795402 -0.37926 0 0 0 0 0 0 0 0 0 
26.982 1 83 0.189015 8.34616 2.68325 2.51146 -7.62901 5.97704 -0.433248 0.326377 0.126186 0 0 0 0 0 0 0 0 0 
26.982 1 242 -0.0546631 6.34231 4.59313 -4.65722 6.52848 3.82149 0.510002 0.358802 -0.0593043 0 0 0 0 0 0 0 0 0 
26.982 1 84 42.3998 10.2024 2.59207 6.66586 1.81822 3.40192 0.57555 0.161532 0.0336885 0 0 0 0 0 0 0 0 0 
26.982 1 281 42.6517 8.38731 4.6952 0.440387 -5.34948 -1.29185 -0.0114089 -0.178043 -0.405396 0 0 0 0 0 0 0 0 0 
26.982 1 44 -2.25195 6.43245 2.56766 4.0727 -3.2578 2.58011 0.148918 0.530545 0.905628 0 0 0 0 0 0 0 0 0 
26.982 1 439 40.436 0.844041 10.6766 3.05653 -1.69727 0.897346 -0.137277 -0.670731 -0.454623 0 0 0 0 0 0 0 0 0 
26.982 1 285 2.40028 8.51798 4.51948 1.28764 -2.92236 -2.38195 -0.289908 0.14876 0.613519 0 0 0 0 0 0 0 0 0 
26.982 1 85 2.39052 8.41291 0.668106 0.76242 1.12699 -4.76895 -0.597117 -0.379853 0.252953 0 0 0 0 0 0 0 0 0 
26.982 1 48 2.28808 6.52057 2.74462 -4.89572 1.37999 -2.48516 -0.283356 -0.446506 -0.587692 0 0 0 0 0 0 0 0 0 
26.982 1 87 4.41324 8.36313 2.56535 1.19976 0.162901 -1.71309 0.644564 0.219503 0.185764 0 0 0 0 0 0 0 0 0 
26.982 1 246 4.55862 6.65365 4.69004 -2.6463 0.650567 2.91613 0.211552 -0.535706 -0.149802 0 0 0 0 0 0 0 0 0 
26.982 1 88 2.407 10.4435 2.63928 0.117278 -2.26387 0.640453 -0.251723 -0.237215 0.0423639 0 0 0 0 0 0 0 0 0 
26.982 1 627 27.0746 0.644864 14.2315 5.62403 -4.96297 4.73683 -0.196283 -0.189667 0.21723 0 0 0 0 0 0 0 0 0 
26.982 1 289 6.92591 8.42747 4.5298 -1.6225 -4.35598 0.949672 -0.452826 -0.196227 0.24059 0 0 0 0 0 0 0 0 0 
26.982 1 423 22.524 0.480721 10.4878 -0.72769 0.863245 0.130806 -0.0915193 0.527923 0.141273 0 0 0 0 0 0 0 0 0 
26.982 1 52 6.7262 6.4785 2.4395 1.19415 -1.35667 4.95034 0.027816 0.290955 0.159024 0 0 0 0 0 0 0 0 0 
26.982 1 91 9.15174 8.64695 2.64765 0.0423649 -1.98455 -0.542718 0.0134672 0.0847314 -0.0354785 0 0 0 0 0 0 0 0 0 
26.982 1 250 9.06058 6.66698 4.5232 3.27986 -0.38793 -2.11631 0.0733134 -0.79972 -0.308765 0 0 0 0 0 0 0 0 0 
26.982 1 290 9.06875 10.6916 4.65368 -5.87165 6.41856 3.81499 0.208577 -0.4416 -0.0899924 0 0 0 0 0 0 0 0 0 
26.982 1 90 9.06064 10.2705 0.407431 0.942607 1.66272 -2.70118 0.032623 0.297811 0.506162 0 0 0 0 0 0 0 0 0 
26.982 1 293 11.1296 8.65958 4.80322 -0.594164 0.673156 -3.31861 0.657642 -0.193184 -0.603896 0 0 0 0 0 0 0 0 0 
26.982 1 56 11.1664 6.58704 2.62069 0.851803 4.26482 -2.26137 0.241183 -0.00969712 -0.0628279 0 0 0 0 0 0 0 0 0 
26.982 1 95 13.5316 8.37267 2.42117 3.3398 -0.797284 -4.35665 -0.080222 0.219596 0.273608 0 0 0 0 0 0 0 0 0 
26.982 1 254 13.4932 6.50773 4.36139 -1.28634 4.31444 -1.5915 -0.14869 -0.0964404 0.357175 0 0 0 0 0 0 0 0 0 
26.982 1 294 13.3958 10.6425 4.55992 -1.19894 1.28648 -3.65803 0.00935094 -0.688035 -0.0256119 0 0 0 0 0 0 0 0 0 
26.982 1 100 15.6018 10.3407 2.61356 -0.892954 5.62421 -0.189756 0.0732387 0.315396 -0.266553 0 0 0 0 0 0 0 0 0 
26.982 1 93 11.3899 8.45273 0.569198 -0.259497 1.11238 1.17361 -0.3935 -0.315838 0.156063 0 0 0 0 0 0 0 0 0 
26.982 1 60 15.9628 6.43006 2.55503 -0.601966 5.57533 2.76807 -0.362751 0.0508979 -0.404278 0 0 0 0 0 0 0 0 0 
26.982 1 297 15.6483 8.4065 4.43782 3.37018 -1.05378 3.23741 0.187604 -0.210628 0.0353002 0 0 0 0 0 0 0 0 0 
26.982 1 99 18.1117 8.33323 2.34437 2.92297 -2.48486 1.55391 0.142109 -0.231739 0.164359 0 0 0 0 0 0 0 0 0 
26.982 1 258 18.0334 6.39687 4.43304 1.48188 -2.20555 -1.33741 0.139834 0.0786685 0.15671 0 0 0 0 0 0 0 0 0 
26.982 1 64 20.3106 6.33367 2.35124 -1.26165 -1.82377 -5.86469 -0.0259212 0.165326 0.423148 0 0 0 0 0 0 0 0 0 
26.982 1 104 20.3617 10.2565 2.25322 -0.0872537 -2.65801 2.81671 -0.17572 0.461762 -0.0737743 0 0 0 0 0 0 0 0 0 
26.982 1 301 20.1695 8.4736 4.41608 1.85348 0.52616 -2.30642 0.194553 -0.507591 -0.326699 0 0 0 0 0 0 0 0 0 
26.982 1 103 22.5325 8.47274 2.41791 2.41767 -3.87043 1.42312 -0.119403 -0.33209 0.457291 0 0 0 0 0 0 0 0 0 
26.982 1 262 22.5207 6.32847 4.41882 2.46064 -1.21084 6.19308 -0.17152 0.144251 -0.409603 0 0 0 0 0 0 0 0 0 
26.982 1 621 20.3065 0.499189 12.4096 1.65506 -0.53254 -0.221648 -0.114327 0.213193 -0.204565 0 0 0 0 0 0 0 0 0 
26.982 1 305 24.6624 8.26857 4.48721 -2.17331 1.3893 -0.782899 0.0376284 0.207975 -0.226227 0 0 0 0 0 0 0 0 0 
26.982 1 68 24.6214 6.36592 2.37578 3.3575 -6.07176 -0.198736 0.440034 0.189053 0.632061 0 0 0 0 0 0 0 0 0 
26.982 1 107 27.0208 8.36082 2.40948 -0.282018 -4.71241 3.05036 -0.0588973 -0.276391 0.390353 0 0 0 0 0 0 0 0 0 
26.982 1 266 26.8272 6.53412 4.53475 -2.15588 -2.40235 -0.436203 0.33265 -0.5806 -0.443689 0 0 0 0 0 0 0 0 0 
26.982 1 306 27.1948 10.3443 4.50911 1.35812 3.09336 -2.03619 -0.381112 0.0732567 -0.313469 0 0 0 0 0 0 0 0 0 
26.982 1 72 29.2766 6.54128 2.43742 -2.20467 9.43772 1.29908 -0.204415 -0.541782 0.452266 0 0 0 0 0 0 0 0 0 
26.982 1 309 29.2718 8.47403 4.50623 1.26253 -0.45017 -3.46752 -0.264156 -0.545592 0.162381 0 0 0 0 0 0 0 0 0 
26.982 1 112 29.2096 10.3697 2.61821 -3.54817 -2.94574 -1.3013 0.477961 0.416329 0.115184 0 0 0 0 0 0 0 0 0 
26.982 1 111 31.4391 8.22973 2.76174 -2.24652 0.108515 -0.284938 0.589382 0.549703 -0.255672 0 0 0 0 0 0 0 0 0 
26.982 1 270 31.3143 6.43982 4.80974 -0.578559 -1.41924 2.11005 0.164081 -0.127705 -0.724565 0 0 0 0 0 0 0 0 0 
26.982 1 623 22.4541 0.56276 14.511 -1.94556 4.50823 -3.95782 0.438397 0.135124 -0.122288 0 0 0 0 0 0 0 0 0 
26.982 1 313 33.8521 8.46535 4.74225 -5.88809 -1.2736 -2.81542 -0.279947 -0.174884 -0.23851 0 0 0 0 0 0 0 0 0 
26.982 1 76 33.7589 6.38625 2.69504 3.81117 -3.58565 -1.92716 0.0291837 0.38287 -0.423251 0 0 0 0 0 0 0 0 0 
26.982 1 116 33.6388 10.2638 2.58111 -2.58411 0.307439 3.5546 -0.0633015 0.122491 -0.0694954 0 0 0 0 0 0 0 0 0 
26.982 1 115 36.0076 8.39629 2.66154 6.6587 -2.52619 0.781787 -0.487148 -0.395452 -0.0990715 0 0 0 0 0 0 0 0 0 
26.982 1 274 35.8769 6.38115 4.55785 1.3011 -3.66197 4.60635 0.345765 0.257115 -0.0881232 0 0 0 0 0 0 0 0 0 
26.982 1 314 35.8707 10.5415 4.41231 1.28708 5.89946 -1.57599 -0.279631 -0.894975 0.229955 0 0 0 0 0 0 0 0 0 
26.982 1 80 38.0764 6.37229 2.63451 0.742293 -0.205884 -1.69478 0.0564432 -0.0403579 -0.152848 0 0 0 0 0 0 0 0 0 
26.982 1 411 8.97189 0.669572 10.3029 1.68204 -2.51464 -0.649257 0.221753 0.0229115 0.218872 0 0 0 0 0 0 0 0 0 
26.982 1 114 35.9672 10.3347 0.733054 1.75716 2.63995 3.59506 -0.289854 -0.188918 -0.488556 0 0 0 0 0 0 0 0 0 
26.982 1 317 38.2948 8.35221 4.48982 3.47205 -5.43302 1.384 -0.596346 0.0920023 0.484838 0 0 0 0 0 0 0 0 0 
26.982 1 119 40.2866 8.33431 2.50492 3.93345 -0.707291 0.835981 0.237952 -0.120122 0.306939 0 0 0 0 0 0 0 0 0 
26.982 1 278 40.3863 6.58527 4.7751 -3.99726 -1.85721 -1.82941 0.517395 -0.409598 -0.555598 0 0 0 0 0 0 0 0 0 
26.982 1 118 40.4385 10.3566 0.678549 0.876573 3.68329 0.759872 -0.278333 0.175627 -0.502502 0 0 0 0 0 0 0 0 0 
26.982 1 81 -2.17674 8.25206 0.633983 3.68951 -0.791088 -0.873395 -0.193206 0.994821 0.171286 0 0 0 0 0 0 0 0 0 
26.982 1 282 -0.00822655 10.5059 4.47136 -0.626312 -2.81465 -2.0118 0.208822 -0.682406 0.219838 0 0 0 0 0 0 0 0 0 
26.982 1 123 -0.0614373 12.3497 2.73159 -1.01553 3.02587 -4.5755 0.00170103 0.156305 -0.638093 0 0 0 0 0 0 0 0 0 
26.982 1 322 0.464159 14.1933 4.5227 -1.53567 0.345203 -2.60551 -1.42716 0.206133 1.08497 0 0 0 0 0 0 0 0 0 
26.982 1 124 -2.18252 14.2341 2.86389 1.02991 2.09462 -4.17403 0.0302741 0.268812 -0.569253 0 0 0 0 0 0 0 0 0 
26.982 1 325 2.45051 12.3704 4.53988 0.617391 -2.98488 -0.821184 0.00818982 -0.271182 0.25754 0 0 0 0 0 0 0 0 0 
26.982 1 82 -0.11666 10.38 0.779353 -2.11038 0.755567 5.9497 0.264672 -0.182263 -0.0258456 0 0 0 0 0 0 0 0 0 
26.982 1 603 -0.0307 0.565147 14.4749 -0.0800314 -0.0854497 5.17153 0.130508 0.084742 -0.18719 0 0 0 0 0 0 0 0 0 
26.982 1 126 4.82523 14.1769 0.705779 -0.29743 -5.03904 1.47981 -0.637516 0.292648 -0.170852 0 0 0 0 0 0 0 0 0 
26.982 1 128 2.20907 14.3459 2.63094 -3.47144 -1.76431 -1.74742 0.727361 -0.241082 -0.778938 0 0 0 0 0 0 0 0 0 
26.982 1 286 4.81737 10.5264 4.61938 0.0873477 1.36777 -3.59177 -0.647859 -0.623911 -0.44578 0 0 0 0 0 0 0 0 0 
26.982 1 127 4.55192 12.3802 2.63299 0.728994 1.24106 5.58558 -0.00717447 -0.132902 -0.0725254 0 0 0 0 0 0 0 0 0 
26.982 1 326 4.58235 14.4256 4.469 -2.30698 -4.05241 -5.03006 -0.148712 0.00580857 0.0241637 0 0 0 0 0 0 0 0 0 
26.982 1 329 6.87797 12.3092 4.46596 -0.270544 -1.00084 2.79038 -0.121697 0.207743 0.234588 0 0 0 0 0 0 0 0 0 
26.982 1 132 6.95023 14.1973 2.6431 0.0845489 -3.47561 0.0551879 -0.438944 0.62238 -0.297003 0 0 0 0 0 0 0 0 0 
26.982 1 129 6.75231 12.2617 0.652722 0.952299 4.98904 -3.5877 0.29868 -0.390004 -0.030806 0 0 0 0 0 0 0 0 0 
26.982 1 92 6.79706 10.2854 2.7128 1.00038 0.425651 -2.41037 -0.0560964 0.840561 -0.17102 0 0 0 0 0 0 0 0 0 
26.982 1 131 9.03336 12.2294 2.40961 2.25354 -5.69126 -1.88681 0.137405 -0.214999 0.0317709 0 0 0 0 0 0 0 0 0 
26.982 1 330 9.0168 14.2194 4.36822 -2.96363 -0.0272381 0.855983 0.26589 0.129883 0.433342 0 0 0 0 0 0 0 0 0 
26.982 1 2601 -2.20175 20.2431 12.3458 7.55484 -0.497338 -8.13994 -0.428758 -0.600501 -0.174577 0 0 0 0 0 0 0 0 0 
26.982 1 96 11.3741 10.4814 2.60419 -3.60578 0.300824 -0.124892 -0.263497 -0.391174 -0.161972 0 0 0 0 0 0 0 0 0 
26.982 1 2431 31.4244 20.1474 10.492 0.658685 -1.1115 -2.01764 0.260601 -0.173046 -0.216946 0 0 0 0 0 0 0 0 0 
26.982 1 2629 29.1312 20.3279 12.262 -1.47368 -0.892684 -4.28334 -0.100962 0.000320509 0.443128 0 0 0 0 0 0 0 0 0 
26.982 1 333 11.2739 12.5278 4.40854 -2.91211 5.62236 3.88097 -0.117909 -0.0921546 0.431185 0 0 0 0 0 0 0 0 0 
26.982 1 136 11.2529 14.2769 2.36075 -2.72235 -4.00953 -2.05199 0.237387 0.183504 0.187071 0 0 0 0 0 0 0 0 0 
26.982 1 135 13.4851 12.3165 2.40686 7.07941 -1.63418 1.87314 -0.00173408 0.28409 0.195473 0 0 0 0 0 0 0 0 0 
26.982 1 334 13.5012 14.2275 4.58149 -3.82388 4.25024 2.40275 -0.187651 0.372057 -0.13839 0 0 0 0 0 0 0 0 0 
26.982 1 337 15.5548 12.4082 4.46673 -2.51661 -3.11054 -4.86363 0.539776 -0.0180309 0.205756 0 0 0 0 0 0 0 0 0 
26.982 1 298 18.0663 10.3409 4.11547 3.89396 2.99975 -3.69984 -0.250155 0.0905644 0.729152 0 0 0 0 0 0 0 0 0 
26.982 1 140 15.5202 14.3198 2.57189 5.63072 -4.9155 -3.55406 0.295862 0.148519 -0.0733047 0 0 0 0 0 0 0 0 0 
26.982 1 139 17.6715 12.3843 2.45354 3.34175 -5.00733 1.05837 0.367314 0.22758 0.292397 0 0 0 0 0 0 0 0 0 
26.982 1 338 17.9053 14.2426 4.55644 -4.04498 0.202512 0.688686 -0.0198777 0.287502 -0.332816 0 0 0 0 0 0 0 0 0 
26.982 1 302 22.3967 10.3574 4.4272 -3.50369 -1.81237 -0.107806 0.525813 -0.000497446 -0.159624 0 0 0 0 0 0 0 0 0 
26.982 1 142 22.6223 14.2714 0.551172 1.60831 -3.38142 -0.0536787 -0.0699554 0.70965 0.539088 0 0 0 0 0 0 0 0 0 
26.982 1 341 20.2422 12.1284 4.23839 3.47985 -2.98558 -4.47734 -0.297117 0.629435 0.207624 0 0 0 0 0 0 0 0 0 
26.982 1 144 20.2327 14.4966 2.83631 -1.29183 7.59089 3.65643 -0.144958 -0.349515 -0.11202 0 0 0 0 0 0 0 0 0 
26.982 1 143 22.4503 12.4687 2.51366 2.34325 1.23957 -1.74572 -0.125307 -0.226676 0.142562 0 0 0 0 0 0 0 0 0 
26.982 1 342 22.6097 14.1622 4.58505 0.550785 1.38902 -0.582545 -0.197614 0.595705 -0.174696 0 0 0 0 0 0 0 0 0 
26.982 1 148 24.9129 14.434 2.53579 -0.632753 -0.206618 -2.73932 -0.238926 0.34957 0.138252 0 0 0 0 0 0 0 0 0 
26.982 1 345 24.8132 12.3744 4.42852 -4.58068 -4.43624 0.66304 -0.223777 0.0333481 0.155379 0 0 0 0 0 0 0 0 0 
26.982 1 108 24.938 10.3584 2.66507 -4.94957 -2.05625 -2.09923 -0.331436 -0.140305 0.181158 0 0 0 0 0 0 0 0 0 
26.982 1 147 26.9604 12.4449 2.61657 4.25814 -1.87467 2.02844 0.337897 0.117926 0.288355 0 0 0 0 0 0 0 0 0 
26.982 1 346 27.0471 14.2745 4.66316 -9.49648 -2.6677 -2.7688 -0.141318 0.132413 -0.411308 0 0 0 0 0 0 0 0 0 
26.982 1 152 29.2522 14.4057 2.36653 4.07095 1.35429 5.76438 0.112521 -0.353746 0.343624 0 0 0 0 0 0 0 0 0 
26.982 1 2627 27.0497 20.3423 14.4012 1.18466 2.3014 -1.48105 -0.242124 -0.506921 -0.0459965 0 0 0 0 0 0 0 0 0 
26.982 1 310 31.4197 10.37 4.61772 5.34022 -0.145261 -5.67056 0.325603 -0.0298112 -0.0528924 0 0 0 0 0 0 0 0 0 
26.982 1 349 29.3442 12.4805 4.41252 -0.216516 -0.307623 -0.976407 -0.339449 -0.0907635 0.359714 0 0 0 0 0 0 0 0 0 
26.982 1 151 31.4935 12.2806 2.7053 -0.103951 -1.52757 0.0497494 0.0684904 0.115417 -0.529873 0 0 0 0 0 0 0 0 0 
26.982 1 350 31.5238 14.3908 4.50097 -0.955169 0.851329 -0.385884 -0.0174654 -0.0625506 -0.212637 0 0 0 0 0 0 0 0 0 
26.982 1 353 33.92 12.4086 4.515 -2.39588 -1.70853 0.0092542 -0.600906 -0.293262 0.37339 0 0 0 0 0 0 0 0 0 
26.982 1 2423 22.6153 20.3979 10.4112 2.07685 -0.220612 -4.49279 -0.0326788 -0.149955 0.113074 0 0 0 0 0 0 0 0 0 
26.982 1 156 33.6886 14.177 2.66886 2.21651 -1.03852 -0.724532 -0.0898326 0.557134 -0.980236 0 0 0 0 0 0 0 0 0 
26.982 1 155 35.7765 12.4235 2.29719 -1.30804 -1.70694 0.198855 0.303447 0.0587929 0.499793 0 0 0 0 0 0 0 0 0 
26.982 1 354 36.0058 14.332 4.53 -2.18957 0.656219 6.24043 -0.112531 -0.23102 -0.0702953 0 0 0 0 0 0 0 0 0 
26.982 1 153 33.5539 12.4241 0.487594 0.593704 1.78342 -1.74447 0.342785 -0.26327 0.383718 0 0 0 0 0 0 0 0 0 
26.982 1 318 40.3214 10.2277 4.54784 -0.708166 0.203428 2.78866 0.184122 0.203838 0.0404135 0 0 0 0 0 0 0 0 0 
26.982 1 321 -2.36031 12.1994 4.511 0.927472 2.9331 -0.98362 0.240372 0.0212968 -0.0819562 0 0 0 0 0 0 0 0 0 
26.982 1 357 37.9618 12.0283 4.45933 0.447094 0.751615 0.429921 0.692825 1.14584 0.21131 0 0 0 0 0 0 0 0 0 
26.982 1 120 38.0891 10.2579 2.57172 -2.27024 -1.97309 -1.52113 0.234628 0.138263 -0.321126 0 0 0 0 0 0 0 0 0 
26.982 1 160 38.1779 14.3594 2.75917 -1.46947 -4.04853 -3.35567 0.00975667 -0.608887 -0.654788 0 0 0 0 0 0 0 0 0 
26.982 1 159 40.2743 12.2727 2.61628 -6.38254 -1.5813 -0.394224 0.103369 0.0853297 0.22625 0 0 0 0 0 0 0 0 0 
26.982 1 358 40.4584 14.4291 4.44492 -2.5757 -3.6108 -2.75422 -0.250226 -0.0213994 0.0856158 0 0 0 0 0 0 0 0 0 
26.982 1 163 -0.170507 16.1001 2.69843 0.575911 0.892591 -2.92691 0.256443 0.368061 -0.186472 0 0 0 0 0 0 0 0 0 
26.982 1 362 0.0250703 18.3615 4.35956 4.37835 -4.01561 1.02205 -0.590929 -0.19702 0.0582056 0 0 0 0 0 0 0 0 0 
26.982 1 365 2.23181 16.3221 4.3526 -1.53252 0.951833 -1.98646 0.319184 0.162088 0.213219 0 0 0 0 0 0 0 0 0 
26.982 1 361 -2.26096 16.3141 4.51386 -4.46157 2.58419 1.60713 -0.0800978 0.323969 0.473033 0 0 0 0 0 0 0 0 0 
26.982 1 168 2.27645 18.2601 2.46322 0.561116 1.90263 -0.244141 -0.101609 0.261095 0.367916 0 0 0 0 0 0 0 0 0 
26.982 1 2617 15.7058 20.4086 12.2766 2.80961 -0.243463 -2.64132 0.345102 -0.66244 0.299539 0 0 0 0 0 0 0 0 0 
26.982 1 165 2.06168 16.2291 0.708186 -0.35603 0.581022 3.9452 0.414069 -0.0848848 -0.198799 0 0 0 0 0 0 0 0 0 
26.982 1 2609 6.6938 20.2431 12.4732 -0.427577 -2.0297 0.414572 0.0517596 0.355739 -0.273428 0 0 0 0 0 0 0 0 0 
26.982 1 166 4.48124 18.189 0.586305 -2.99074 1.20923 0.640647 -0.0816581 0.357406 -0.413677 0 0 0 0 0 0 0 0 0 
26.982 1 167 4.56757 16.2893 2.29379 -2.67406 -1.15584 -1.13663 -0.274375 -0.446362 0.979161 0 0 0 0 0 0 0 0 0 
26.982 1 366 4.52131 18.1745 4.54662 -0.446518 -0.755172 3.81899 0.0287105 -0.0115818 -0.300458 0 0 0 0 0 0 0 0 0 
26.982 1 369 6.77241 16.2983 4.49577 1.84396 4.1604 -4.41099 0.0771721 -0.0187555 -0.0929503 0 0 0 0 0 0 0 0 0 
26.982 1 172 6.72738 18.1204 2.50812 -0.239822 -2.25787 -0.266294 0.242214 0.297495 0.110221 0 0 0 0 0 0 0 0 0 
26.982 1 169 6.82037 16.1996 0.534242 -0.804596 0.142941 -1.94679 0.081697 -0.1459 0.189166 0 0 0 0 0 0 0 0 0 
26.982 1 171 9.14569 16.254 2.47472 -1.27414 -3.95377 -4.3687 -0.448823 0.0688055 0.51333 0 0 0 0 0 0 0 0 0 
26.982 1 370 9.04663 18.1887 4.55727 2.0584 -2.18137 3.23728 -0.0677722 0.209054 0.00291422 0 0 0 0 0 0 0 0 0 
26.982 1 176 11.3318 18.2805 2.70175 5.27178 3.73672 -6.4698 -0.0168439 0.299292 0.0366621 0 0 0 0 0 0 0 0 0 
26.982 1 2607 4.24977 20.2648 14.351 -1.53013 0.289297 2.95423 0.339031 0.184493 -0.150936 0 0 0 0 0 0 0 0 0 
26.982 1 173 11.2525 16.4108 0.686362 2.38034 0.667051 -1.99961 0.303504 -0.347488 -0.43325 0 0 0 0 0 0 0 0 0 
26.982 1 373 11.1441 16.1305 4.62428 -0.339186 2.96464 2.07235 0.324554 0.0342193 -0.364938 0 0 0 0 0 0 0 0 0 
26.982 1 175 13.4272 16.2172 2.56545 4.11155 0.644955 1.79721 -0.00872327 0.152265 0.0391036 0 0 0 0 0 0 0 0 0 
26.982 1 374 13.5903 18.2784 4.63345 -2.96909 -2.87382 0.755257 -0.386208 0.0321394 -0.261603 0 0 0 0 0 0 0 0 0 
26.982 1 180 15.8548 18.3711 2.35703 -1.89841 1.39677 -2.42027 -0.26059 -0.172236 0.566506 0 0 0 0 0 0 0 0 0 
26.982 1 174 13.5425 18.2851 0.684055 -1.18428 1.75099 -5.55016 -0.234563 0.037168 0.173808 0 0 0 0 0 0 0 0 0 
26.982 1 377 15.6357 16.3709 4.43957 -0.375243 6.7354 3.07193 0.208066 -0.184638 0.165594 0 0 0 0 0 0 0 0 0 
26.982 1 178 18.1735 18.2313 0.750221 2.1773 -0.794756 -4.96082 -0.258644 -0.0795948 -0.599928 0 0 0 0 0 0 0 0 0 
26.982 1 179 17.9444 16.4794 2.74941 1.41792 1.54734 -5.5382 0.0876877 -0.749109 0.000129809 0 0 0 0 0 0 0 0 0 
26.982 1 378 18.0549 18.3889 4.53569 -3.55831 1.09151 -1.40668 -0.00900649 -0.0257934 0.0793004 0 0 0 0 0 0 0 0 0 
26.982 1 184 20.3638 18.1698 2.73184 -0.694413 1.99666 3.03716 -0.115395 -0.0170123 -0.265712 0 0 0 0 0 0 0 0 0 
26.982 1 994 35.8661 18.2506 16.4875 -2.44065 -0.955782 1.72584 0.194481 0.183458 -0.343434 0 0 0 0 0 0 0 0 0 
26.982 1 181 20.2634 16.147 0.701096 5.62409 -0.797834 3.1148 -0.206373 0.0300004 -0.24162 0 0 0 0 0 0 0 0 0 
26.982 1 381 20.4684 16.5064 4.73625 0.423711 -5.88148 -0.225452 -0.132541 -0.338545 -0.15902 0 0 0 0 0 0 0 0 0 
26.982 1 183 22.4656 16.2329 2.63995 -1.16768 -5.9059 0.708026 0.34543 -0.231659 0.0250143 0 0 0 0 0 0 0 0 0 
26.982 1 382 22.6588 18.4528 4.41827 -1.24997 -0.472803 -2.69538 -0.191783 -0.408008 0.283776 0 0 0 0 0 0 0 0 0 
26.982 1 385 24.626 16.3219 4.55357 6.52651 1.076 3.76605 0.36039 -0.456935 0.2244 0 0 0 0 0 0 0 0 0 
26.982 1 188 24.9469 18.0475 2.60591 -1.47278 -3.59572 -2.67576 -0.48014 0.639442 -0.273227 0 0 0 0 0 0 0 0 0 
26.982 1 2403 -0.224795 20.1196 10.3447 2.20387 -2.10795 -0.273778 0.398776 0.0465961 -0.10862 0 0 0 0 0 0 0 0 0 
26.982 1 187 27.2249 16.3581 2.38561 3.06781 -1.93161 -4.08632 -0.382615 -0.508925 0.152308 0 0 0 0 0 0 0 0 0 
26.982 1 386 26.9581 18.1238 4.42663 0.890972 2.40277 -2.85811 0.23248 0.0511148 0.696939 0 0 0 0 0 0 0 0 0 
26.982 1 192 29.2442 18.1819 2.51782 1.40795 -0.185525 -9.3201 0.032982 0.299617 0.0509749 0 0 0 0 0 0 0 0 0 
26.982 1 389 29.3098 16.2104 4.40151 2.48495 -3.92303 4.01066 -0.239325 -0.0139695 0.197739 0 0 0 0 0 0 0 0 0 
26.982 1 995 35.7441 16.2742 18.3871 4.12896 0.789228 1.18701 0.327865 -0.0660819 -0.0342284 0 0 0 0 0 0 0 0 0 
26.982 1 239 40.4712 0.418641 6.61651 3.10045 -3.02633 1.43708 -0.426725 0.198891 -0.211562 0 0 0 0 0 0 0 0 0 
26.982 1 186 27.0997 18.3355 0.494692 3.84381 0.134498 3.55928 -0.183279 0.300726 0.191247 0 0 0 0 0 0 0 0 0 
26.982 1 2229 29.198 20.2748 4.49638 3.77175 -5.6215 2.04326 -0.0681487 -0.500139 0.298627 0 0 0 0 0 0 0 0 0 
26.982 1 191 31.5649 16.2515 2.39345 0.621987 3.42891 1.52483 0.02032 -0.0410398 0.205634 0 0 0 0 0 0 0 0 0 
26.982 1 390 31.5119 18.1222 4.43297 -1.48351 6.44929 1.28763 -0.151643 0.307975 0.0100173 0 0 0 0 0 0 0 0 0 
26.982 1 190 31.302 18.2674 0.573009 -5.97456 -0.840978 -0.136533 0.328227 0.116026 -0.339567 0 0 0 0 0 0 0 0 0 
26.982 1 2835 35.9971 20.2125 18.4107 0.900629 1.6311 -0.508144 -0.310297 0.53415 -0.588735 0 0 0 0 0 0 0 0 0 
26.982 1 196 33.6293 18.3021 2.51777 -1.26837 1.35417 2.83716 0.21708 -0.160622 -0.0732615 0 0 0 0 0 0 0 0 0 
26.982 1 235 35.9366 0.682163 6.46704 -0.47965 0.0175711 -7.2564 0.0458119 -0.346327 0.177139 0 0 0 0 0 0 0 0 0 
26.982 1 393 33.7567 16.1646 4.41186 2.90498 -3.16477 -1.74757 0.110427 0.399222 0.0683112 0 0 0 0 0 0 0 0 0 
26.982 1 195 36.0883 16.2288 2.46832 1.67283 0.283339 -3.24465 -0.415506 0.496706 0.403887 0 0 0 0 0 0 0 0 0 
26.982 1 394 35.9844 18.2462 4.58563 1.71493 -1.0004 2.55899 -0.135144 -0.0982461 -0.744073 0 0 0 0 0 0 0 0 0 
26.982 1 397 38.1581 16.2977 4.49147 0.431779 1.78691 6.62681 0.0629719 0.538671 0.369918 0 0 0 0 0 0 0 0 0 
26.982 1 200 38.2617 18.3975 2.54701 3.91514 1.89882 -0.158348 -0.527704 -0.177931 0.0277939 0 0 0 0 0 0 0 0 0 
26.982 1 1197 38.338 16.1814 20.2157 -2.85973 1.45018 -2.63855 -0.398323 0.721304 0.190405 0 0 0 0 0 0 0 0 0 
26.982 1 1190 31.3971 18.2017 20.2921 -0.422918 1.11329 -3.05227 0.318736 0.186425 -0.0920549 0 0 0 0 0 0 0 0 0 
26.982 1 2033 33.5354 20.3265 0.613252 1.64156 -0.982468 0.0645445 0.140886 -0.310582 -0.384155 0 0 0 0 0 0 0 0 0 
26.982 1 431 31.4781 0.410871 10.3397 0.0557461 1.48889 0.909967 -0.204813 0.58882 0.0501228 0 0 0 0 0 0 0 0 0 
26.982 1 164 -2.4167 18.1267 2.60538 -4.38179 -0.735982 -4.13246 0.312607 0.731599 -0.317605 0 0 0 0 0 0 0 0 0 
26.982 1 2237 38.1362 20.2842 4.54894 -5.36228 -2.33438 0.291069 0.12169 -0.100261 -0.0265346 0 0 0 0 0 0 0 0 0 
26.982 1 199 40.2385 16.4082 2.43285 -0.922146 -2.36117 -4.32461 0.115588 -0.280641 0.425846 0 0 0 0 0 0 0 0 0 
26.982 1 398 40.375 18.2723 4.62625 -6.12098 -3.78073 2.53648 0.0334623 0.0307085 -0.231162 0 0 0 0 0 0 0 0 0 
26.982 1 198 40.3055 18.2705 0.560359 6.40355 -0.604534 -2.95611 0.113001 0.079823 -0.0478645 0 0 0 0 0 0 0 0 0 
26.982 1 425 24.6019 0.432407 8.50138 4.05485 4.7199 3.21634 0.623877 0.247853 0.0218222 0 0 0 0 0 0 0 0 0 
26.982 1 243 0.154326 4.59585 6.67693 1.87227 1.57046 -2.25002 -0.000390029 -0.104336 -0.555326 0 0 0 0 0 0 0 0 0 
26.982 1 402 -0.0419103 2.68447 8.39211 1.96913 -0.579834 1.04213 0.150077 -0.86733 -0.0180556 0 0 0 0 0 0 0 0 0 
26.982 1 204 -2.33925 2.2575 6.46072 -4.63813 0.77704 2.42486 0.337304 1.02822 0.656337 0 0 0 0 0 0 0 0 0 
26.982 1 445 2.32228 4.53774 8.52313 1.39841 -1.79354 1.57423 0.0544605 -0.319635 -0.1214 0 0 0 0 0 0 0 0 0 
26.982 1 408 2.41646 2.50852 10.3789 1.22174 4.73529 3.39787 -0.119888 -0.000330199 -0.0358308 0 0 0 0 0 0 0 0 0 
26.982 1 208 2.48351 2.46123 6.55758 4.16045 1.27341 -1.06638 -0.453333 0.255929 0.172803 0 0 0 0 0 0 0 0 0 
26.982 1 992 29.3885 18.1198 18.2859 -2.29094 1.03027 3.03903 -0.236278 0.471301 -0.156907 0 0 0 0 0 0 0 0 0 
26.982 1 247 4.36572 4.57653 6.64255 -0.31877 -0.34898 1.13391 0.591196 0.33728 -0.0328855 0 0 0 0 0 0 0 0 0 
26.982 1 406 4.63656 2.5467 8.47922 -0.702622 -5.42935 3.82771 -0.0639927 -0.193517 0.190517 0 0 0 0 0 0 0 0 0 
26.982 1 990 31.4583 18.2638 16.2276 4.28094 0.63165 1.1813 -0.00224697 0.664945 0.363953 0 0 0 0 0 0 0 0 0 
26.982 1 447 4.55267 4.60462 10.4814 -2.46775 -0.586124 1.66559 0.0687682 -0.389524 0.0188367 0 0 0 0 0 0 0 0 0 
26.982 1 449 6.78215 4.38859 8.56977 3.14932 -2.61949 0.145933 -0.17823 0.410041 -0.0734746 0 0 0 0 0 0 0 0 0 
26.982 1 212 6.69136 2.72377 6.43764 -3.79047 -0.634131 -2.68473 0.16921 -0.322832 -0.175492 0 0 0 0 0 0 0 0 0 
26.982 1 251 8.9082 4.61704 6.38171 2.16778 -4.84204 0.75646 0.309223 0.0614517 0.136581 0 0 0 0 0 0 0 0 0 
26.982 1 410 9.05625 2.74831 8.36257 -4.98467 -2.29739 2.41964 0.000921585 -0.455107 0.18587 0 0 0 0 0 0 0 0 0 
26.982 1 453 11.1852 4.62892 8.41763 1.6828 -2.90125 4.95123 0.174833 -0.226672 0.282903 0 0 0 0 0 0 0 0 0 