ITEM: TIMESTEP
15700
ITEM: NUMBER OF ATOMS
4000
ITEM: BOX BOUNDS pp pp pp
-3.26509 43.7651
0.837863 39.6621
0.93698 39.563
ITEM: ATOMS mass type id x y z vx vy vz fx fy fz xrad yrad zrad vxrad vyrad vzrad fxrad fyrad fzrad 
26.982 1 43 -2.12841 5.35361 2.72837 -3.04058 1.41543 -0.917279 -0.0696462 0.187667 0.368897 0 0 0 0 0 0 0 0 0 
26.982 1 202 -1.39283 3.6339 4.73309 4.31086 -1.0695 3.5252 -0.861403 -0.0764793 -0.427992 0 0 0 0 0 0 0 0 0 
26.982 1 964 42.8091 18.0775 18.033 4.49725 -3.1659 3.32275 -0.095158 -0.139719 -0.0330403 0 0 0 0 0 0 0 0 0 
26.982 1 961 42.5358 16.0332 15.8651 0.682826 -0.603737 3.8658 0.998803 -0.20884 0.865593 0 0 0 0 0 0 0 0 0 
26.982 1 5 -0.147887 1.20809 1.32782 4.00227 -0.469709 -1.64137 -0.0133262 0.271566 0.168939 0 0 0 0 0 0 0 0 0 
26.982 1 245 1.18306 4.24983 5.14534 1.70283 4.19237 2.13522 0.870996 -0.549648 0.214553 0 0 0 0 0 0 0 0 0 
26.982 1 8 0.592749 3.80077 2.48673 -0.876887 -2.21349 -8.79856 0.165496 -0.265156 -0.127635 0 0 0 0 0 0 0 0 0 
26.982 1 47 3.45668 5.3347 3.17039 9.13441 1.02346 -3.49754 -0.074704 -0.722682 0.337826 0 0 0 0 0 0 0 0 0 
26.982 1 206 3.15976 2.53524 3.95259 4.41105 2.80806 -4.77098 0.000344084 0.111527 -0.625401 0 0 0 0 0 0 0 0 0 
26.982 1 19 18.5282 0.874041 2.62038 -2.64929 -2.82097 1.04501 -0.169324 0.484801 0.225177 0 0 0 0 0 0 0 0 0 
26.982 1 205 0.435553 1.57248 4.2463 0.236404 -3.62007 -1.98534 0.239036 0.0910232 0.0318303 0 0 0 0 0 0 0 0 0 
26.982 1 249 6.65468 5.35355 4.85979 1.25071 -1.37151 -4.8376 0.0147609 0.103063 0.31755 0 0 0 0 0 0 0 0 0 
26.982 1 12 5.7537 3.34806 3.29669 -3.19053 -0.4026 -5.08782 0.0935535 -0.249138 -0.468336 0 0 0 0 0 0 0 0 0 
26.982 1 51 7.92406 4.42162 1.31988 5.81454 -1.70061 5.88584 0.590259 0.122916 0.192116 0 0 0 0 0 0 0 0 0 
26.982 1 210 8.98106 3.00099 3.51408 2.15826 -1.44195 3.87122 0.0331712 -0.190623 0.156953 0 0 0 0 0 0 0 0 0 
26.982 1 113 34.1463 8.60865 0.956074 0.609464 -5.03999 0.0119741 -0.0999991 -0.315425 0.915094 0 0 0 0 0 0 0 0 0 
26.982 1 253 11.5642 4.3436 3.61887 -5.09763 2.81802 -1.04459 0.0110319 0.206785 0.0377788 0 0 0 0 0 0 0 0 0 
26.982 1 16 11.5114 2.5595 1.68225 -1.85015 -0.628758 -0.163521 0.118236 -0.372411 1.09142 0 0 0 0 0 0 0 0 0 
26.982 1 55 14.223 5.33093 2.54068 -5.32904 1.28873 2.04308 -0.0836396 -0.215646 0.545149 0 0 0 0 0 0 0 0 0 
26.982 1 214 13.7905 2.31127 3.71408 -4.51883 -1.99735 -4.36618 -0.0790666 0.0129517 -0.139575 0 0 0 0 0 0 0 0 0 
26.982 1 70 31.9323 6.66104 1.15099 -1.77619 -0.185739 -1.02487 0.261568 -0.0163096 -0.707996 0 0 0 0 0 0 0 0 0 
26.982 1 811 9.49465 1.03263 18.25 4.14942 1.21842 -2.60014 0.514119 0.0521613 -0.292926 0 0 0 0 0 0 0 0 0 
26.982 1 20 16.395 3.18377 2.93225 -3.25554 -6.47975 1.70426 -0.0299197 -0.497356 -0.0071264 0 0 0 0 0 0 0 0 0 
26.982 1 257 16.2463 5.09585 4.91997 0.855463 -3.97108 0.945724 0.0822878 -0.356647 0.0909031 0 0 0 0 0 0 0 0 0 
26.982 1 218 18.5398 2.82074 4.74701 0.319234 1.9117 3.6973 -0.0854523 0.044329 -0.109143 0 0 0 0 0 0 0 0 0 
26.982 1 110 31.7525 10.2762 1.01687 5.05325 -0.11049 0.532216 0.381915 0.529737 0.0166837 0 0 0 0 0 0 0 0 0 
26.982 1 2835 36.4478 20.1194 18.2307 1.2414 -0.293562 -1.92365 -0.253588 -0.00717526 -0.181123 0 0 0 0 0 0 0 0 0 
26.982 1 417 16.2409 1.12827 8.33557 2.14077 0.369339 4.77972 -0.591873 -0.43935 0.479746 0 0 0 0 0 0 0 0 0 
26.982 1 59 18.4694 4.99258 2.84611 -2.86325 -3.00939 -7.13101 0.429237 -0.0292403 0.326278 0 0 0 0 0 0 0 0 0 
26.982 1 24 20.7503 2.75616 2.96827 -2.0425 4.42481 -1.3372 -0.14665 0.312304 -0.386582 0 0 0 0 0 0 0 0 0 
26.982 1 261 20.7016 4.94112 4.64779 -1.37709 -1.53879 0.999875 -0.136079 -0.128604 0.511001 0 0 0 0 0 0 0 0 0 
26.982 1 154 36.2376 14.6378 1.12231 0.913404 -1.54972 -3.85973 0.228433 -0.353839 -0.0296808 0 0 0 0 0 0 0 0 0 
26.982 1 63 22.7933 4.79656 2.91396 -5.46413 3.65142 -0.165933 0.879467 -0.0493868 -0.422944 0 0 0 0 0 0 0 0 0 
26.982 1 222 23.0432 2.95444 4.81251 -0.00697678 -0.489885 9.1748 -0.28446 -0.508683 -0.0697994 0 0 0 0 0 0 0 0 0 
26.982 1 28 25.055 2.6955 2.78719 3.64479 3.90001 2.15894 -0.147058 0.0145752 0.17058 0 0 0 0 0 0 0 0 0 
26.982 1 265 25.1517 4.76167 4.70781 -0.969357 -0.9401 1.94143 -0.475985 -0.481118 0.371171 0 0 0 0 0 0 0 0 0 
26.982 1 813 11.7823 1.05305 16.0374 3.25316 0.135457 -1.85465 -0.168772 0.482074 0.265311 0 0 0 0 0 0 0 0 0 
26.982 1 2225 25.327 20.3912 4.83644 1.32537 6.02477 1.18735 -0.235303 -0.765055 0.439229 0 0 0 0 0 0 0 0 0 
26.982 1 998 40.6458 18.038 16.2462 -3.72021 3.13364 3.81856 -0.267213 0.188915 0.249209 0 0 0 0 0 0 0 0 0 
26.982 1 2227 27.4732 20.2127 6.71384 1.30618 -2.38755 0.883092 0.108803 -0.36929 0.371382 0 0 0 0 0 0 0 0 0 
26.982 1 67 27.1802 4.7397 2.93513 -4.67049 3.47955 3.22924 0.51172 0.155116 0.0273277 0 0 0 0 0 0 0 0 0 
26.982 1 226 27.16 2.67261 4.83973 1.9222 3.34363 0.436057 0.267419 0.0358849 0.272338 0 0 0 0 0 0 0 0 0 
26.982 1 32 29.547 2.77204 3.10054 -0.205164 2.74115 -1.75377 -0.298963 -0.438957 -0.667903 0 0 0 0 0 0 0 0 0 
26.982 1 269 29.5018 4.82529 4.78454 6.64786 2.29711 -1.06949 -0.100192 -0.49514 -0.306801 0 0 0 0 0 0 0 0 0 
26.982 1 419 18.3936 0.715995 10.136 -4.62952 -3.37009 -3.02152 -0.0386793 0.353044 0.10663 0 0 0 0 0 0 0 0 0 
26.982 1 2839 40.7483 20.16 18.0503 0.221551 2.65095 3.19238 -0.0552386 -0.349846 0.157893 0 0 0 0 0 0 0 0 0 
26.982 1 809 7.57454 0.821122 16.3285 1.36002 -0.271395 -2.18544 -0.193704 -0.0197154 -0.24528 0 0 0 0 0 0 0 0 0 
26.982 1 2625 25.1435 20.0764 12.6043 -0.597129 3.31052 -1.40558 0.665752 0.0976339 0.0864562 0 0 0 0 0 0 0 0 0 
26.982 1 71 31.8181 4.7181 2.95203 2.49291 -3.56218 2.66765 0.223267 -0.0585173 0.178507 0 0 0 0 0 0 0 0 0 
26.982 1 230 31.6214 2.70754 4.75157 5.69944 3.30221 -4.33275 0.60524 -0.226109 0.177175 0 0 0 0 0 0 0 0 0 
26.982 1 273 34.1541 4.53002 5.01783 3.39169 -0.176127 -3.52215 -0.500645 -0.0181318 -0.127967 0 0 0 0 0 0 0 0 0 
26.982 1 36 34.1964 2.68634 2.97348 -7.76132 1.61703 3.53387 -0.601076 0.0223028 0.526952 0 0 0 0 0 0 0 0 0 
26.982 1 203 -1.47835 1.35882 6.36159 -3.75043 -1.38047 1.58595 -0.317984 -0.00859931 -0.30091 0 0 0 0 0 0 0 0 0 
26.982 1 999 40.8186 15.8467 18.35 0.00978847 -3.08253 -5.07863 0.228129 0.532755 -0.284978 0 0 0 0 0 0 0 0 0 
26.982 1 75 36.4434 4.63102 3.16321 2.24722 4.26175 -4.15406 -0.355338 0.563918 0.350522 0 0 0 0 0 0 0 0 0 
26.982 1 234 36.1442 2.71744 5.1687 0.195242 -0.865678 6.95252 0.54223 -0.540398 -0.416566 0 0 0 0 0 0 0 0 0 
26.982 1 40 38.5403 2.75418 3.20109 -4.9702 0.663691 -3.76958 -0.122219 0.307142 -0.16491 0 0 0 0 0 0 0 0 0 
26.982 1 277 38.5441 4.71219 5.33954 3.69853 -4.52112 6.76285 -0.0081161 -0.202501 -0.501068 0 0 0 0 0 0 0 0 0 
26.982 1 2827 27.4306 20.0535 18.5952 2.28506 5.19303 3.62592 0.190671 0.558749 -0.325157 0 0 0 0 0 0 0 0 0 
26.982 1 41 42.6471 5.09578 1.11066 3.78667 0.846698 -1.18272 0.15301 -0.537279 -0.139068 0 0 0 0 0 0 0 0 0 
26.982 1 4 42.7583 3.0251 3.34436 3.11692 3.98972 1.63869 0.287053 -0.48733 -0.382597 0 0 0 0 0 0 0 0 0 
26.982 1 241 42.7888 5.05355 4.96759 1.96812 2.71753 -1.80453 0.0370716 0.594547 0.128136 0 0 0 0 0 0 0 0 0 
26.982 1 79 40.4961 4.77762 3.1561 4.08402 2.82362 4.69474 0.0482289 0.0655426 0.0925537 0 0 0 0 0 0 0 0 0 
26.982 1 238 40.4907 2.60652 5.34539 -6.29299 4.64246 -3.12058 0.24679 0.121639 -0.456156 0 0 0 0 0 0 0 0 0 
26.982 1 213 11.4265 0.754843 4.14798 -0.555942 -5.29246 1.21986 0.0808347 -0.0476008 -0.184305 0 0 0 0 0 0 0 0 0 
26.982 1 83 -1.98215 8.6401 3.11916 -0.606975 4.04997 -2.06111 -0.0136261 0.183039 0.206264 0 0 0 0 0 0 0 0 0 
26.982 1 242 -1.93034 6.57873 5.23597 4.43537 5.98981 1.06136 0.137414 -0.477787 -0.278318 0 0 0 0 0 0 0 0 0 
26.982 1 281 43.0881 8.36172 5.4673 -1.7511 -1.8528 2.28515 -0.367212 0.129939 0.107309 0 0 0 0 0 0 0 0 0 
26.982 1 282 -1.98526 10.7325 5.14134 -3.70868 -1.42811 -4.64989 -0.190526 -0.20575 -0.139842 0 0 0 0 0 0 0 0 0 
26.982 1 2817 16.7741 19.868 16.6145 3.40942 -5.37064 -3.54796 0.29166 -0.238681 -0.856783 0 0 0 0 0 0 0 0 0 
26.982 1 48 0.507439 6.4222 3.58957 3.981 1.68488 3.26104 -0.182107 0.247278 -0.3175 0 0 0 0 0 0 0 0 0 
26.982 1 285 0.256362 9.02425 4.71486 -2.49863 -0.961805 1.04172 0.0766433 -0.519158 0.198198 0 0 0 0 0 0 0 0 0 
26.982 1 87 4.04306 7.86003 2.52474 6.18512 -5.54008 -4.14701 0.0977212 0.318049 -1.13046 0 0 0 0 0 0 0 0 0 
26.982 1 246 2.8765 7.33647 4.80301 1.2346 -4.29292 0.813782 -0.186188 0.0937189 0.891719 0 0 0 0 0 0 0 0 0 
26.982 1 88 1.86419 9.81238 2.50196 0.641086 1.44423 3.3797 0.0746395 -0.53796 -0.459836 0 0 0 0 0 0 0 0 0 
26.982 1 286 4.48988 9.97022 4.15089 -0.918063 -0.755603 5.95316 -0.367344 -0.0872882 0.278676 0 0 0 0 0 0 0 0 0 
26.982 1 289 6.62493 8.15031 3.8835 0.0563141 -4.22662 4.89673 0.20617 0.25533 0.57893 0 0 0 0 0 0 0 0 0 
26.982 1 52 6.21734 6.16903 2.20816 -1.73793 3.2488 -2.50326 -0.439782 0.0709855 -0.525458 0 0 0 0 0 0 0 0 0 
26.982 1 91 9.46811 9.09922 3.02556 -2.1057 -2.23794 -3.9938 0.417947 -0.673545 0.0972304 0 0 0 0 0 0 0 0 0 
26.982 1 250 9.03942 6.39145 3.7945 1.74206 -2.01347 0.496985 0.17557 -0.47467 -0.090792 0 0 0 0 0 0 0 0 0 
26.982 1 290 9.52636 10.8547 5.04677 -6.2697 0.998562 -1.81704 0.355713 0.674216 -0.0758251 0 0 0 0 0 0 0 0 0 
26.982 1 50 9.78957 7.09741 1.09477 0.493663 1.65656 1.17727 -0.194065 -0.294028 -0.0839136 0 0 0 0 0 0 0 0 0 
26.982 1 89 7.56419 8.77943 0.972994 -1.49995 3.09673 -5.05889 -0.405099 -0.191191 0.863181 0 0 0 0 0 0 0 0 0 
26.982 1 293 11.7936 9.22039 4.62791 4.44973 1.93813 5.76558 0.0141801 -0.453785 0.451576 0 0 0 0 0 0 0 0 0 
26.982 1 56 11.9815 7.19135 2.71075 -1.64585 -7.44349 -2.29811 -0.0414705 0.0142173 0.525512 0 0 0 0 0 0 0 0 0 
26.982 1 95 13.8672 9.45494 2.64932 0.480317 6.65941 0.308885 -0.289742 -0.148957 -0.624959 0 0 0 0 0 0 0 0 0 
26.982 1 254 13.926 6.95785 4.78425 2.44873 6.50585 2.74199 0.130032 0.104009 -0.0964104 0 0 0 0 0 0 0 0 0 
26.982 1 635 36.4652 1.28509 15.4528 -0.679126 1.22177 0.4426 0.0696126 -0.250332 -0.76518 0 0 0 0 0 0 0 0 0 
26.982 1 294 13.7131 11.3285 4.66976 1.45927 0.0146239 -1.05481 0.177141 -0.195145 -0.12883 0 0 0 0 0 0 0 0 0 
26.982 1 633 34.5582 1.841 13.3457 2.49039 -3.32895 -0.796745 0.0665418 -0.56227 -0.19476 0 0 0 0 0 0 0 0 0 
26.982 1 60 16.2386 7.01588 3.06376 5.825 -0.344571 0.17179 0.451421 0.57738 -0.213311 0 0 0 0 0 0 0 0 0 
26.982 1 297 15.9107 9.65483 4.25666 -4.39366 5.27741 -1.61182 0.236756 -0.278235 -0.0101539 0 0 0 0 0 0 0 0 0 
26.982 1 99 18.6818 9.18648 2.75709 -3.56467 0.799143 1.98035 0.117933 -0.353129 0.537132 0 0 0 0 0 0 0 0 0 
26.982 1 100 15.9401 11.5686 2.14932 0.383002 4.11032 4.40364 -0.373849 0.101915 -0.0153986 0 0 0 0 0 0 0 0 0 
26.982 1 258 18.7095 6.98036 4.69235 6.47665 -0.122717 0.688957 -0.116366 -0.0157143 -0.262649 0 0 0 0 0 0 0 0 0 
26.982 1 64 20.9305 6.87172 2.60142 5.74935 0.95489 -0.0103594 -0.0927976 0.485865 0.791372 0 0 0 0 0 0 0 0 0 
26.982 1 301 20.9045 8.72099 4.76658 3.60402 2.11569 -4.5822 -0.196621 -0.259244 -0.353634 0 0 0 0 0 0 0 0 0 
26.982 1 104 20.9019 10.9239 2.6627 3.97329 2.46718 -5.90269 -0.777262 -0.443648 0.438063 0 0 0 0 0 0 0 0 0 
26.982 1 103 23.1054 8.69458 2.90606 -0.257058 1.60925 1.75704 -0.675939 0.336187 -0.264478 0 0 0 0 0 0 0 0 0 
26.982 1 262 22.9714 6.65201 4.89307 4.80496 1.17748 -2.62029 -0.423011 0.304903 -0.159942 0 0 0 0 0 0 0 0 0 
26.982 1 305 25.2098 8.63991 4.78778 1.77366 -4.2788 -0.807115 0.11332 0.440675 0.618651 0 0 0 0 0 0 0 0 0 
26.982 1 68 25.0729 6.90072 2.93147 -0.132998 -4.54905 0.323227 0.489481 -1.12154 -0.373763 0 0 0 0 0 0 0 0 0 
26.982 1 302 22.8268 10.7046 4.71493 1.12668 7.25182 1.08191 0.338759 -0.062752 0.62246 0 0 0 0 0 0 0 0 0 
26.982 1 2433 34.1441 20.1867 8.73929 2.27927 7.33514 -3.84289 -0.789683 0.324657 0.389875 0 0 0 0 0 0 0 0 0 
26.982 1 107 27.5866 8.40013 2.76143 -3.31966 -3.16439 -0.0928446 -0.485807 0.766958 0.637733 0 0 0 0 0 0 0 0 0 
26.982 1 266 27.1393 6.49303 4.97289 1.4471 0.0406089 -2.85445 0.646363 1.02148 -0.410833 0 0 0 0 0 0 0 0 0 
26.982 1 72 29.7511 6.76125 2.74902 -6.4976 7.46628 -1.24606 -0.217977 -0.422454 0.64297 0 0 0 0 0 0 0 0 0 
26.982 1 309 29.4393 8.5803 4.84681 3.22131 3.96243 -2.11012 0.379486 -0.0654057 -0.0550705 0 0 0 0 0 0 0 0 0 
26.982 1 112 29.4034 10.4891 2.85448 0.987501 -1.89952 1.40747 0.331793 -0.290686 0.452959 0 0 0 0 0 0 0 0 0 
26.982 1 78 40.603 6.79638 1.14816 1.92783 -1.99333 -2.65864 -0.383934 0.0425735 -0.248776 0 0 0 0 0 0 0 0 0 
26.982 1 2435 36.1488 20.123 10.6533 1.16606 3.91957 -0.312042 0.559896 -0.390028 0.052042 0 0 0 0 0 0 0 0 0 
26.982 1 2627 27.5379 20.0399 14.3534 -1.81568 2.5645 -0.497861 -0.240568 0.519485 0.43678 0 0 0 0 0 0 0 0 0 
26.982 1 111 31.8752 8.59618 3.0423 -3.61686 -0.308704 -3.47639 0.0102681 -0.120574 0.491832 0 0 0 0 0 0 0 0 0 
26.982 1 270 31.9841 6.46319 4.98198 -5.82916 -2.21952 0.540125 -0.286907 0.381798 -0.250367 0 0 0 0 0 0 0 0 0 
26.982 1 76 34.1358 6.67676 3.25233 4.01124 -5.2434 -1.25284 0.117024 -0.592489 -0.995401 0 0 0 0 0 0 0 0 0 
26.982 1 313 34.1254 8.50312 5.03674 0.772676 -2.60728 -3.97756 -0.110804 0.14522 0.429756 0 0 0 0 0 0 0 0 0 
26.982 1 116 33.94 10.4569 3.16979 -2.79799 6.18204 5.1896 0.221189 0.000855387 -0.55049 0 0 0 0 0 0 0 0 0 
26.982 1 115 36.2683 8.55925 3.07887 -3.24482 1.66367 3.86764 -0.21009 0.377029 0.178923 0 0 0 0 0 0 0 0 0 
26.982 1 274 36.3455 6.57264 5.23473 -0.328172 -5.49005 -4.53484 -0.117644 -0.167547 -0.225454 0 0 0 0 0 0 0 0 0 
26.982 1 80 38.2796 6.73442 3.1808 0.263138 1.21574 7.06717 0.551841 -0.354324 0.0188577 0 0 0 0 0 0 0 0 0 
26.982 1 317 38.2971 8.53008 5.11755 -1.95522 9.49058 -2.11225 0.334653 0.254426 -0.191289 0 0 0 0 0 0 0 0 0 
26.982 1 120 38.3157 10.6425 2.96616 -1.87321 2.64827 -2.47944 -0.130702 -0.181177 -0.106264 0 0 0 0 0 0 0 0 0 
26.982 1 2819 18.9379 19.8202 18.5143 4.38557 2.68263 -5.00469 -0.353669 0.039986 -0.11489 0 0 0 0 0 0 0 0 0 
26.982 1 14 14.3412 3.19495 1.00418 -0.00373899 0.372444 -4.31087 0.0290678 -0.356168 -0.0608164 0 0 0 0 0 0 0 0 0 
26.982 1 44 42.6739 7.13912 2.98236 1.90937 -6.07476 3.25829 0.262334 -0.17174 0.393753 0 0 0 0 0 0 0 0 0 
26.982 1 119 40.4404 8.78208 3.09437 1.04436 -2.86797 -2.93498 -0.223045 -0.0306337 -0.0798561 0 0 0 0 0 0 0 0 0 
26.982 1 278 40.7141 6.86121 5.00011 5.60464 0.59652 -2.18922 -0.441088 -0.210045 0.434314 0 0 0 0 0 0 0 0 0 
26.982 1 84 42.6578 10.3159 3.36695 1.51473 3.45047 -2.51241 0.321864 0.129871 0.040037 0 0 0 0 0 0 0 0 0 
26.982 1 2633 34.0908 20.2094 12.8149 0.346582 1.49437 -2.06002 0.204841 -0.0133403 -0.679519 0 0 0 0 0 0 0 0 0 
26.982 1 123 -0.774406 11.1235 2.5229 8.1099 -2.63923 -5.36744 0.0139366 0.272046 0.221895 0 0 0 0 0 0 0 0 0 
26.982 1 322 -0.626992 13.3747 4.27941 1.94787 -4.2775 2.65714 0.0831056 -0.0974914 -0.10091 0 0 0 0 0 0 0 0 0 
26.982 1 124 -2.51758 13.3703 2.19869 0.884223 -2.19437 -2.05366 -0.290796 0.296365 0.315108 0 0 0 0 0 0 0 0 0 
26.982 1 122 0.169868 14.1833 1.32028 2.6149 0.434122 -0.98072 -0.337399 -0.0610656 0.365227 0 0 0 0 0 0 0 0 0 
26.982 1 325 1.64721 11.3762 4.50124 -2.79526 -2.19042 4.86149 -0.138403 0.542918 -0.004908 0 0 0 0 0 0 0 0 0 
26.982 1 128 2.11434 14.2267 3.70225 5.58041 -2.16065 -2.80095 0.384536 -0.141873 -0.621709 0 0 0 0 0 0 0 0 0 
26.982 1 127 5.1851 12.6363 3.50629 1.04356 6.16745 -0.0398409 -0.0300357 -0.0171154 -0.175893 0 0 0 0 0 0 0 0 0 
26.982 1 326 5.25568 14.2196 5.65958 1.26965 -0.324502 -2.50418 0.0217537 0.356585 0.188648 0 0 0 0 0 0 0 0 0 
26.982 1 125 2.98473 12.2423 1.67455 3.06053 0.517042 6.36779 -0.205914 0.359573 0.852689 0 0 0 0 0 0 0 0 0 
26.982 1 86 5.1715 10.4642 1.49378 1.36893 2.11972 1.9352 0.103463 -0.196532 -0.188791 0 0 0 0 0 0 0 0 0 
26.982 1 92 7.38601 10.793 3.17596 -2.06463 1.90925 2.21804 -0.331004 0.201284 0.280098 0 0 0 0 0 0 0 0 0 
26.982 1 329 7.59438 12.83 5.23526 -2.96113 -4.18734 3.60982 0.0189717 -0.0957955 0.221159 0 0 0 0 0 0 0 0 0 
26.982 1 132 7.15316 14.8189 3.23436 -2.24836 -3.28373 1.14228 -0.577241 -0.445056 0.828256 0 0 0 0 0 0 0 0 0 
26.982 1 131 9.42951 13.1593 3.15187 -2.78252 -6.68059 4.27844 -0.0812969 -0.195218 0.0070549 0 0 0 0 0 0 0 0 0 
26.982 1 330 9.53204 15.1876 5.10546 0.190157 -2.16188 3.00884 -0.366784 -0.0986111 0.532668 0 0 0 0 0 0 0 0 0 
26.982 1 77 38.3632 4.98585 1.12621 3.0634 -1.1441 -7.26132 0.357701 -0.680557 -0.0829486 0 0 0 0 0 0 0 0 0 
26.982 1 2803 -2.19169 20.1947 17.8539 -1.01208 -2.91329 0.762962 -0.217191 -0.290997 -0.36159 0 0 0 0 0 0 0 0 0 
26.982 1 613 11.5753 1.21406 11.9717 2.89314 -3.27917 -3.76147 -0.16058 -0.100407 0.0793178 0 0 0 0 0 0 0 0 0 
26.982 1 96 11.5701 11.3942 2.70108 -0.079624 -0.0861364 5.39082 0.219387 -0.241206 0.336548 0 0 0 0 0 0 0 0 0 
26.982 1 333 11.7978 13.1802 4.86784 4.85064 0.126265 1.53456 -0.5174 0.369014 -0.0565099 0 0 0 0 0 0 0 0 0 
26.982 1 136 11.1976 15.4511 3.01347 -1.04664 2.46014 2.00582 0.551508 -0.561034 0.0256127 0 0 0 0 0 0 0 0 0 
26.982 1 135 13.5671 13.4976 2.72498 2.89475 7.41172 5.44378 -0.323242 -0.101061 -0.311919 0 0 0 0 0 0 0 0 0 
26.982 1 334 13.8489 15.4916 4.79357 -1.91915 2.11828 0.530489 -0.121184 0.0536996 -0.0501859 0 0 0 0 0 0 0 0 0 
26.982 1 140 15.5555 15.3036 2.57533 -3.36601 -1.31686 3.64137 0.391732 0.284326 -0.0840155 0 0 0 0 0 0 0 0 0 
26.982 1 337 15.7027 13.2556 4.57004 -3.7258 7.93126 -0.700963 0.560548 -0.0405687 -0.0860942 0 0 0 0 0 0 0 0 0 
26.982 1 139 17.9951 13.6447 1.5727 -1.60391 1.12077 -0.719886 0.0412321 0.325601 0.332544 0 0 0 0 0 0 0 0 0 
26.982 1 338 18.514 14.6117 4.38049 0.12131 4.55526 3.23468 -0.983518 0.454219 -0.184956 0 0 0 0 0 0 0 0 0 
26.982 1 298 18.0801 11.7956 3.77088 1.51901 -0.330807 -0.101282 0.29711 -0.26395 -0.0942046 0 0 0 0 0 0 0 0 0 
26.982 1 341 20.5963 13.0948 4.54463 6.52325 -2.02226 0.698987 0.729068 -0.760201 -0.479711 0 0 0 0 0 0 0 0 0 
26.982 1 144 20.4906 14.9445 2.4091 6.28964 0.76615 6.54452 0.323958 -0.473063 -0.222889 0 0 0 0 0 0 0 0 0 
26.982 1 225 24.9922 0.699593 4.77528 2.11322 -0.997201 2.62917 0.217779 0.881851 0.0774906 0 0 0 0 0 0 0 0 0 
26.982 1 2431 31.7513 20.2896 10.7142 3.43469 -1.43728 2.92506 0.388151 -0.188491 0.038629 0 0 0 0 0 0 0 0 0 
26.982 1 108 25.1079 10.6181 3.09106 -5.57549 -1.31286 -2.0101 0.369525 0.375038 -0.441163 0 0 0 0 0 0 0 0 0 
26.982 1 143 22.9226 12.5185 2.83586 -1.13567 5.71957 -2.00489 0.335117 0.93661 -0.3568 0 0 0 0 0 0 0 0 0 
26.982 1 342 23.0774 14.6623 4.47407 -0.141049 4.50894 -2.29116 -0.677972 0.230581 0.0634376 0 0 0 0 0 0 0 0 0 
26.982 1 148 25.2655 14.5931 2.73694 -4.04724 0.39954 0.514957 -0.383294 -0.963233 -0.0264206 0 0 0 0 0 0 0 0 0 
26.982 1 345 25.0519 12.7261 4.83649 0.396151 -7.60544 2.85862 0.0750046 -0.260816 -0.0258232 0 0 0 0 0 0 0 0 0 
26.982 1 306 27.3107 10.8569 5.01012 -1.46138 1.20182 -3.37183 -0.180456 -0.486857 -0.13628 0 0 0 0 0 0 0 0 0 
26.982 1 147 27.4162 12.4876 2.91731 5.43038 5.86391 0.625752 -0.116545 0.169606 0.0490908 0 0 0 0 0 0 0 0 0 
26.982 1 346 27.4203 14.419 4.76728 3.39234 -4.76416 4.14043 0.025164 -0.0867145 -0.439922 0 0 0 0 0 0 0 0 0 
26.982 1 152 29.7684 14.3421 2.92607 -6.07166 -0.623277 3.46193 -0.462584 -0.00443182 -0.204256 0 0 0 0 0 0 0 0 0 
26.982 1 349 29.6076 12.4547 4.93911 2.1216 -0.840081 2.0982 -0.0244501 -0.143071 -0.23041 0 0 0 0 0 0 0 0 0 
26.982 1 310 31.7185 10.6184 5.00647 -4.04332 -1.80655 -0.0724893 -0.0129506 -0.27815 -0.0902034 0 0 0 0 0 0 0 0 0 
26.982 1 151 31.8693 12.3205 2.76267 2.83994 1.67945 2.85242 -0.210844 0.290224 0.439439 0 0 0 0 0 0 0 0 0 
26.982 1 350 31.8791 14.1418 4.961 0.475543 0.895139 1.15499 -0.0986292 0.115861 0.164132 0 0 0 0 0 0 0 0 0 
26.982 1 156 33.9315 14.4424 3.01191 -1.22153 0.241023 -5.06525 0.118784 0.22147 0.130791 0 0 0 0 0 0 0 0 0 
26.982 1 353 34.0012 12.3943 5.06601 -2.1358 -1.98445 1.58954 -0.0355488 0.311344 -0.310367 0 0 0 0 0 0 0 0 0 
26.982 1 117 38.5261 8.57546 1.10879 1.26019 0.353117 -0.484421 -0.496874 0.125724 0.0306385 0 0 0 0 0 0 0 0 0 
26.982 1 314 36.1093 10.5195 5.06773 -5.65101 -0.403635 10.6734 0.480848 -0.401952 -0.207838 0 0 0 0 0 0 0 0 0 
26.982 1 155 36.1375 12.5276 2.96865 5.11646 -0.869091 5.58038 0.468617 -0.214903 0.203092 0 0 0 0 0 0 0 0 0 
26.982 1 354 36.0889 14.3984 4.85329 -0.507212 0.595579 -1.23482 0.458122 0.205692 0.225247 0 0 0 0 0 0 0 0 0 
26.982 1 160 38.504 14.4061 2.99014 3.96715 0.15615 2.27834 -0.426597 -0.0835418 0.353886 0 0 0 0 0 0 0 0 0 
26.982 1 357 38.3853 12.2838 4.98872 1.44329 -5.21298 -1.21022 0.113153 0.369752 0.30043 0 0 0 0 0 0 0 0 0 
26.982 1 170 7.88671 19.1019 1.14329 -2.07367 2.1688 -5.29453 0.679831 -0.0573728 0.251691 0 0 0 0 0 0 0 0 0 
26.982 1 318 40.5536 10.5263 5.16222 -4.16212 3.64361 -2.56852 -0.28475 -0.298168 0.0874628 0 0 0 0 0 0 0 0 0 
26.982 1 321 42.7336 12.5936 4.91781 -3.07813 -1.34978 -3.40756 0.0549154 0.164713 -0.258241 0 0 0 0 0 0 0 0 0 
26.982 1 159 40.503 12.4864 3.02244 -2.85284 4.91865 -1.78338 0.236461 -0.237461 -0.166414 0 0 0 0 0 0 0 0 0 
26.982 1 358 40.6852 14.4631 4.83028 5.25915 0.026974 1.10519 -0.0195514 0.194074 0.379319 0 0 0 0 0 0 0 0 0 
26.982 1 163 0.0213717 16.2156 3.47904 -2.00584 5.12201 3.63556 -0.189929 -0.119239 0.112815 0 0 0 0 0 0 0 0 0 
26.982 1 362 0.00361047 18.0906 5.79848 1.84098 -3.26083 2.30759 -0.160999 -0.451116 -0.3447 0 0 0 0 0 0 0 0 0 
26.982 1 173 10.8095 17.4334 1.25557 -0.810635 3.61021 2.05122 -0.330845 0.439561 -0.26549 0 0 0 0 0 0 0 0 0 
26.982 1 166 3.92555 18.385 1.70397 3.43417 -3.01933 2.18001 0.232464 -0.393615 -0.440971 0 0 0 0 0 0 0 0 0 
26.982 1 165 2.09874 16.1413 1.44523 3.34692 5.18924 2.49454 0.335545 0.237946 0.161772 0 0 0 0 0 0 0 0 0 
26.982 1 365 2.64185 15.9931 5.74809 -0.720307 0.467308 3.71275 0.288456 0.405775 -0.4811 0 0 0 0 0 0 0 0 0 
26.982 1 168 2.0252 18.1815 3.72294 1.26311 1.21308 0.380384 -0.31933 -0.241998 -0.349266 0 0 0 0 0 0 0 0 0 
26.982 1 167 4.75494 16.1509 3.76672 -4.01111 0.348193 -5.99652 -0.417618 0.0593282 -0.299372 0 0 0 0 0 0 0 0 0 
26.982 1 366 4.23294 18.3649 5.25428 -1.80234 4.5149 -0.177351 0.483218 0.0598453 0.668621 0 0 0 0 0 0 0 0 0 
26.982 1 2205 1.95352 20.1043 5.76029 -3.02167 0.680522 -4.21974 -0.042277 -0.0345348 0.0683017 0 0 0 0 0 0 0 0 0 
26.982 1 1000 38.5519 18.089 18.2325 4.13237 2.69541 4.60187 0.347436 0.0028672 0.153542 0 0 0 0 0 0 0 0 0 
26.982 1 369 7.02695 16.639 5.53307 -4.03714 -0.66186 5.55213 0.356965 0.292818 -0.369508 0 0 0 0 0 0 0 0 0 
26.982 1 172 6.35478 18.7264 3.46961 3.81453 0.319453 3.5549 -0.041004 -0.111634 0.0264415 0 0 0 0 0 0 0 0 0 
26.982 1 171 8.73708 17.1161 3.18106 -4.1501 -2.60907 -1.59534 0.0576566 0.803021 0.40186 0 0 0 0 0 0 0 0 0 
26.982 1 370 8.50931 19.3208 5.36012 -3.34846 7.84483 1.96681 0.544677 -0.555069 -0.386161 0 0 0 0 0 0 0 0 0 
26.982 1 169 6.36998 16.6155 1.3589 -4.41531 1.07453 -0.41627 -0.228157 0.693048 -0.186555 0 0 0 0 0 0 0 0 0 
26.982 1 74 36.2253 6.7323 1.12429 2.22079 1.30724 -0.359661 -0.204456 -0.557431 0.00664705 0 0 0 0 0 0 0 0 0 
26.982 1 176 10.6292 19.5048 3.09076 -6.31952 2.72406 -1.24948 -0.319543 -0.140972 -0.396573 0 0 0 0 0 0 0 0 0 
26.982 1 373 11.2117 17.5495 4.84469 -2.88426 -1.27364 -2.25889 -0.175391 -0.273465 0.362523 0 0 0 0 0 0 0 0 0 
26.982 1 175 13.2372 17.5227 2.88722 -4.91503 -1.82246 -7.4815 -0.153127 0.0342954 -0.273196 0 0 0 0 0 0 0 0 0 
26.982 1 374 13.1561 19.6763 4.49556 -2.12549 -0.586673 3.90868 -0.183371 0.457316 -0.030085 0 0 0 0 0 0 0 0 0 
26.982 1 2 -2.12034 3.17655 1.20933 -0.478075 -6.47539 -9.03671 -0.131356 -0.0921292 0.0556078 0 0 0 0 0 0 0 0 0 
26.982 1 377 15.6788 17.5381 4.1273 -8.86983 1.82157 -1.47079 -0.027153 0.275694 0.332072 0 0 0 0 0 0 0 0 0 
26.982 1 180 15.0928 20.1862 2.04526 -1.51499 -0.185605 2.39773 -0.130391 -0.20582 0.36314 0 0 0 0 0 0 0 0 0 
26.982 1 179 18.0046 16.8043 2.64979 -4.06538 5.23127 1.67215 0.148526 -0.279777 0.17771 0 0 0 0 0 0 0 0 0 
26.982 1 378 18.3337 18.639 4.7207 0.511866 -2.04494 -3.88463 0.203822 -0.4903 -0.492617 0 0 0 0 0 0 0 0 0 
26.982 1 3 -2.30832 0.808187 3.41513 5.56831 0.485443 0.969759 0.843394 0.373023 -0.415453 0 0 0 0 0 0 0 0 0 
26.982 1 381 20.5776 16.565 4.56625 -2.67406 -0.407017 2.95729 0.0195341 0.00636401 0.406449 0 0 0 0 0 0 0 0 0 
26.982 1 184 20.5686 18.6506 2.77865 0.966425 0.717973 3.48642 -0.0478762 0.328138 -5.062e-05 0 0 0 0 0 0 0 0 0 
26.982 1 183 22.6735 16.8226 2.68884 1.11327 -2.72048 -3.66018 0.376182 -0.83053 0.0147399 0 0 0 0 0 0 0 0 0 
26.982 1 382 22.8773 18.3868 4.75797 0.534014 -4.35157 -4.44246 0.0797327 -0.397605 0.415867 0 0 0 0 0 0 0 0 0 
26.982 1 198 41.1747 17.9395 1.46074 -6.04214 1.04707 -1.74207 0.490231 -0.428657 -0.30679 0 0 0 0 0 0 0 0 0 
26.982 1 126 4.65704 14.4884 1.50518 0.710229 -1.49441 -2.16083 -0.26621 -0.0556605 -0.0594113 0 0 0 0 0 0 0 0 0 
26.982 1 34 36.2774 2.78136 1.36107 -2.38788 4.35456 3.46728 0.480037 -0.448368 -1.11571 0 0 0 0 0 0 0 0 0 
26.982 1 385 25.19 16.404 4.538 2.91177 -1.2186 1.99529 -0.0793381 0.476306 0.516856 0 0 0 0 0 0 0 0 0 
26.982 1 188 25.2967 18.4908 2.92727 1.77544 -0.985814 -1.38406 -0.183782 -0.515852 -0.020613 0 0 0 0 0 0 0 0 0 
26.982 1 2229 29.7003 20.0908 4.94948 1.97251 -1.58479 0.995103 -0.0859603 -0.115393 -0.337515 0 0 0 0 0 0 0 0 0 
26.982 1 130 8.80981 15.2447 1.31598 -2.63125 3.26776 1.11272 0.586643 -0.444839 -1.02257 0 0 0 0 0 0 0 0 0 
26.982 1 187 27.3814 16.2847 2.7203 -1.70009 2.13004 -1.33681 0.419535 0.348112 0.257058 0 0 0 0 0 0 0 0 0 
26.982 1 386 27.4995 18.1969 4.87763 -0.116542 6.07 -1.81619 -0.0250564 0.206994 -0.406471 0 0 0 0 0 0 0 0 0 
26.982 1 192 29.5412 18.3231 2.84091 0.62421 -0.247049 3.41233 0.472087 -0.264215 0.0770167 0 0 0 0 0 0 0 0 0 
26.982 1 389 29.6224 16.2072 4.88624 -0.243023 2.11184 1.21909 0.167904 0.170187 -0.283703 0 0 0 0 0 0 0 0 0 
26.982 1 2233 33.924 20.1729 4.83988 -1.20796 -3.1052 3.38765 0.364831 -0.294479 0.469275 0 0 0 0 0 0 0 0 0 
26.982 1 114 36.2632 10.5344 1.08744 -4.24365 0.599202 -2.60211 -0.224567 -0.0109973 0.274411 0 0 0 0 0 0 0 0 0 
26.982 1 191 31.8356 16.2028 3.12503 -4.17443 -2.23372 0.831575 -0.0673863 0.547548 -0.478445 0 0 0 0 0 0 0 0 0 
26.982 1 390 31.7609 18.2059 4.92763 -6.4682 -4.02692 2.28895 0.0934657 -0.0307638 -0.171208 0 0 0 0 0 0 0 0 0 
26.982 1 393 33.9222 16.3768 5.02545 1.05972 -2.29925 -3.37359 0.16081 -0.467635 -0.157392 0 0 0 0 0 0 0 0 0 
26.982 1 196 34.1785 18.2105 3.08547 -0.327444 -3.79375 1.01688 -0.205602 0.157541 -0.217899 0 0 0 0 0 0 0 0 0 
26.982 1 2801 42.5762 20.1399 15.9955 -2.00254 -2.58671 3.30637 0.968159 -0.185615 0.169132 0 0 0 0 0 0 0 0 0 
26.982 1 615 13.9199 1.1041 14.0867 -0.336305 -3.31668 -0.72275 -0.127013 -0.115471 0.254504 0 0 0 0 0 0 0 0 0 
26.982 1 2035 36.513 20.0076 3.04523 -3.9006 4.86789 0.105269 -0.158548 -0.133633 0.0346888 0 0 0 0 0 0 0 0 0 
26.982 1 2237 38.5814 20.0182 5.19073 5.15274 0.164696 -2.13027 -0.208179 -0.43984 -0.226781 0 0 0 0 0 0 0 0 0 
26.982 1 195 36.3066 16.438 3.08719 -4.30167 0.52551 -3.42473 0.058548 -0.354998 0.413636 0 0 0 0 0 0 0 0 0 
26.982 1 394 36.2441 18.1967 5.16725 -2.04473 -3.66794 -1.69166 0.326196 0.20656 -0.189351 0 0 0 0 0 0 0 0 0 
26.982 1 397 38.5743 16.3619 4.89152 -4.04203 2.08376 -1.94425 -0.457747 -0.0825517 0.400136 0 0 0 0 0 0 0 0 0 
26.982 1 200 38.9002 18.0659 2.91534 2.0324 -1.07031 -3.2939 -0.430917 0.14642 0.189967 0 0 0 0 0 0 0 0 0 
26.982 1 164 -2.78608 17.1595 2.30219 -2.41486 -0.138534 -0.586791 -0.667885 -0.0882011 0.670395 0 0 0 0 0 0 0 0 0 
26.982 1 361 -3.13452 15.1522 4.43073 5.33728 -2.42089 3.02374 0.121148 -0.396932 -0.174208 0 0 0 0 0 0 0 0 0 
26.982 1 199 41.8786 15.1817 2.33584 -5.22313 -2.80867 -4.81794 0.153937 0.0273228 -0.381762 0 0 0 0 0 0 0 0 0 
26.982 1 398 41.7788 17.1766 4.15775 -2.37701 -2.57891 -6.56736 -0.000414999 0.0317981 -0.121164 0 0 0 0 0 0 0 0 0 
26.982 1 3001 42.7132 20.092 20.114 -2.74238 -0.29356 1.97017 0.597641 -0.49752 -0.671921 0 0 0 0 0 0 0 0 0 
26.982 1 997 38.5297 16.1163 16.3943 4.82697 2.52459 -3.36044 -0.0578645 -0.10763 0.0789229 0 0 0 0 0 0 0 0 0 
26.982 1 243 -1.08515 4.09106 7.3513 1.38651 -2.62226 0.543786 -0.104969 0.171747 0.422224 0 0 0 0 0 0 0 0 0 
26.982 1 402 0.411807 1.57 8.3082 1.32354 -2.61327 -3.97458 0.138434 0.411351 0.503141 0 0 0 0 0 0 0 0 0 
26.982 1 443 -0.186202 3.96877 10.3477 6.13558 -3.71988 -0.672153 0.0592954 -0.354755 0.0925183 0 0 0 0 0 0 0 0 0 
26.982 1 204 42.9712 2.99227 6.57418 1.22077 -1.66055 -1.36258 0.687074 -0.172787 0.174316 0 0 0 0 0 0 0 0 0 
26.982 1 208 2.6863 2.08164 6.50244 2.33894 3.55865 5.71276 -0.471813 -0.567379 -0.00122674 0 0 0 0 0 0 0 0 0 
26.982 1 445 1.71377 4.02115 8.17025 5.36139 1.10906 -1.06189 -0.0641017 0.216554 -0.0338319 0 0 0 0 0 0 0 0 0 
26.982 1 247 4.09869 4.30776 5.92442 1.4 2.2243 -0.458902 -0.0337129 0.118375 -0.569748 0 0 0 0 0 0 0 0 0 
26.982 1 406 4.77807 2.23494 8.31086 -1.49696 0.973867 6.74157 -0.391118 0.334353 -0.35246 0 0 0 0 0 0 0 0 0 
26.982 1 408 2.40725 1.88305 10.2864 3.71208 6.57942 -2.64987 0.337141 0.438911 -0.38271 0 0 0 0 0 0 0 0 0 
26.982 1 994 36.1589 18.0959 16.4198 1.75931 0.593465 2.4219 0.363766 -0.0617028 -0.128509 0 0 0 0 0 0 0 0 0 
26.982 1 449 6.10593 4.79901 7.57468 2.74847 2.75728 6.04473 0.336428 -0.328795 0.351343 0 0 0 0 0 0 0 0 0 
26.982 1 212 6.70231 2.4487 6.1 4.65078 7.7729 2.14722 -0.224824 0.59943 -0.233183 0 0 0 0 0 0 0 0 0 
26.982 1 251 8.75328 5.83778 6.69518 11.4543 3.5128 3.45489 -0.464667 -0.370892 -0.151716 0 0 0 0 0 0 0 0 0 
26.982 1 410 8.82103 3.06805 7.75652 -1.21207 5.02332 -4.21339 -0.218921 -0.213256 -0.0234546 0 0 0 0 0 0 0 0 0 
26.982 1 451 8.2618 5.00411 9.68398 0.436048 1.64333 -2.70121 0.263895 0.098334 -0.0398129 0 0 0 0 0 0 0 0 0 
26.982 1 412 6.87658 2.40304 9.87158 0.43446 0.313112 1.58878 0.414183 0.929789 0.392575 0 0 0 0 0 0 0 0 0 
26.982 1 453 10.7989 5.13827 8.24679 -1.39414 -0.795005 -1.13078 0.392395 0.167452 0.386907 0 0 0 0 0 0 0 0 0 
26.982 1 216 11.0911 2.99759 6.18073 -3.73139 0.350291 -0.766185 -0.10241 -0.136167 -0.0860397 0 0 0 0 0 0 0 0 0 
26.982 1 255 13.6123 4.11653 5.57743 5.22267 1.32731 -2.40878 0.0611869 0.73797 0.366007 0 0 0 0 0 0 0 0 0 
26.982 1 414 13.5592 2.28448 7.68868 -9.1101 0.420239 -1.30717 -0.0637448 -0.0888046 0.245815 0 0 0 0 0 0 0 0 0 