ITEM: TIMESTEP
5200
ITEM: NUMBER OF ATOMS
4000
ITEM: BOX BOUNDS pp pp pp
-1.13105 41.6311
0.282711 40.2173
0.285748 40.2143
ITEM: ATOMS mass type id x y z vx vy vz fx fy fz xrad yrad zrad vxrad vyrad vzrad fxrad fyrad fzrad 
26.982 1 3 1.07322 0.421062 2.38337 5.68308 -2.29639 -0.0432078 -0.228968 -0.428752 -0.761917 0 0 0 0 0 0 0 0 0 
26.982 1 8 3.07964 2.37695 2.3544 -4.48804 0.487238 1.07731 0.554452 -0.724211 -0.61362 0 0 0 0 0 0 0 0 0 
26.982 1 43 1.016 4.21687 2.28227 -3.88601 -5.23484 0.143869 0.184938 0.252739 -0.400733 0 0 0 0 0 0 0 0 0 
26.982 1 202 1.03257 2.25517 4.17203 -1.76497 0.459328 -8.51289 -0.15307 0.213843 0.572067 0 0 0 0 0 0 0 0 0 
26.982 1 205 3.10224 0.251747 4.37341 3.47945 -2.62611 1.80581 0.163037 -0.12676 -0.303179 0 0 0 0 0 0 0 0 0 
26.982 1 201 -1.17885 0.271823 4.27377 0.657413 0.545289 -1.27285 -0.0619558 0.232058 -0.0849217 0 0 0 0 0 0 0 0 0 
26.982 1 245 3.22697 4.14862 4.23522 -0.900588 -0.296699 3.36844 -0.00182479 0.400989 0.209705 0 0 0 0 0 0 0 0 0 
26.982 1 47 5.3277 4.12975 2.24519 1.16766 -0.887681 -0.824812 -0.107849 0.038624 0.177264 0 0 0 0 0 0 0 0 0 
26.982 1 206 5.19979 2.25116 4.35016 0.848336 3.7587 -0.425772 0.315426 -0.212809 -0.172857 0 0 0 0 0 0 0 0 0 
26.982 1 49 7.33257 4.33891 0.460048 -0.0877965 1.76045 4.04986 0.685366 -0.390922 -0.0298847 0 0 0 0 0 0 0 0 0 
26.982 1 12 7.45272 2.17649 2.39705 1.69321 1.25787 -1.13655 -0.212479 0.241824 -0.386992 0 0 0 0 0 0 0 0 0 
26.982 1 249 7.43396 4.27949 4.26686 3.04535 5.56341 0.848638 -0.197681 0.356707 -0.160397 0 0 0 0 0 0 0 0 0 
26.982 1 51 9.66583 4.34217 2.4004 2.44793 3.84972 -3.74619 -0.287019 -0.113565 -0.0596964 0 0 0 0 0 0 0 0 0 
26.982 1 210 9.45124 2.3899 4.55659 5.31351 4.16744 -1.38238 0.496436 -0.128206 -0.191998 0 0 0 0 0 0 0 0 0 
26.982 1 11 9.62398 0.510594 2.52467 -2.5169 1.01754 -2.02599 -0.240917 -0.712555 -0.351824 0 0 0 0 0 0 0 0 0 
26.982 1 10 9.57655 2.36804 0.407098 1.74661 -3.67664 -2.55093 -0.246558 0.0520102 -0.02137 0 0 0 0 0 0 0 0 0 
26.982 1 9 7.43894 0.276888 0.139277 -5.52503 -0.339989 2.73793 -0.0379799 0.488461 0.709528 0 0 0 0 0 0 0 0 0 
26.982 1 209 7.4706 0.3453 4.38509 -1.05914 -0.388339 -0.471969 -0.29695 -0.196219 0.254859 0 0 0 0 0 0 0 0 0 
26.982 1 16 11.6259 2.25303 2.4611 -2.46445 2.30235 3.65453 0.480134 0.421027 -0.00567485 0 0 0 0 0 0 0 0 0 
26.982 1 253 11.875 4.35514 4.36985 4.83891 2.80768 -3.06358 -0.637748 -0.398548 -0.0673676 0 0 0 0 0 0 0 0 0 
26.982 1 55 13.7878 4.33042 2.26205 -1.25116 1.86217 -2.51595 0.515581 -0.356887 0.090509 0 0 0 0 0 0 0 0 0 
26.982 1 214 14.0463 2.34278 4.28098 5.60947 -4.06299 4.64891 -0.558941 -0.373906 -0.105611 0 0 0 0 0 0 0 0 0 
26.982 1 20 15.923 2.08679 2.14717 3.27123 -2.09557 -0.55076 -0.0567546 0.574269 0.269054 0 0 0 0 0 0 0 0 0 
26.982 1 257 15.9937 4.25969 4.33005 2.78295 2.01776 0.673394 0.134939 0.278191 -0.361021 0 0 0 0 0 0 0 0 0 
26.982 1 218 18.0069 2.22574 4.25652 -0.647695 -0.895311 2.6314 0.175832 0.0850451 0.0467385 0 0 0 0 0 0 0 0 0 
26.982 1 18 18.2229 2.35191 0.390904 1.90661 -1.68396 -2.74734 -0.300649 0.128601 0.0641805 0 0 0 0 0 0 0 0 0 
26.982 1 59 18.2334 4.38354 2.43011 -2.00677 -0.502151 3.9633 -0.507823 -0.385341 -0.28701 0 0 0 0 0 0 0 0 0 
26.982 1 261 20.2864 4.49313 4.31354 -4.79468 1.20555 -1.7188 0.0393267 -0.401262 0.185547 0 0 0 0 0 0 0 0 0 
26.982 1 221 20.1629 0.322998 4.29647 -0.441891 0.103955 0.342156 0.341405 -0.271271 0.132424 0 0 0 0 0 0 0 0 0 
26.982 1 24 20.2791 2.35786 2.5682 -2.39533 -6.5397 4.80485 -0.0661185 0.014155 -0.735788 0 0 0 0 0 0 0 0 0 
26.982 1 63 22.2815 4.32258 2.21514 -0.99206 1.34881 0.292897 0.173613 -0.159505 -0.225343 0 0 0 0 0 0 0 0 0 
26.982 1 222 22.5249 2.44181 4.24039 1.45466 1.18191 3.43023 -0.393992 0.0586418 0.629745 0 0 0 0 0 0 0 0 0 
26.982 1 23 22.4281 0.461206 2.38572 -3.07817 -5.89751 1.05192 -0.192371 -0.413596 -0.222924 0 0 0 0 0 0 0 0 0 
26.982 1 28 24.5582 2.41442 2.3422 -1.2887 5.8239 -0.542729 0.119807 0.07197 -0.576255 0 0 0 0 0 0 0 0 0 
26.982 1 265 24.5876 4.348 4.17814 -3.49731 -3.36257 -4.27842 0.237329 0.0166633 0.369953 0 0 0 0 0 0 0 0 0 
26.982 1 67 26.7608 4.40784 2.27744 0.391725 -2.32909 1.31454 -0.164477 -0.207666 -0.697591 0 0 0 0 0 0 0 0 0 
26.982 1 226 26.8008 2.49981 4.13615 -0.809176 1.85763 4.19648 0.174802 -0.337886 0.441368 0 0 0 0 0 0 0 0 0 
26.982 1 32 28.9137 2.36145 2.01946 -6.09971 1.10901 -0.113101 -0.320204 -0.0925624 0.331934 0 0 0 0 0 0 0 0 0 
26.982 1 269 28.9386 4.31828 4.13281 4.45734 0.476416 1.13297 -0.0556361 -0.224658 0.284741 0 0 0 0 0 0 0 0 0 
26.982 1 225 24.5173 0.50147 4.18698 -1.15376 -0.758044 -1.47057 0.220764 -0.665224 0.528838 0 0 0 0 0 0 0 0 0 
26.982 1 71 30.908 4.33579 2.11189 0.78611 -5.97492 1.66095 0.181743 -0.194279 0.208626 0 0 0 0 0 0 0 0 0 
26.982 1 230 31.1397 2.52189 4.15495 -3.45494 4.98545 -1.08102 -0.493165 -0.297519 0.16317 0 0 0 0 0 0 0 0 0 
26.982 1 233 33.0956 0.595693 4.24128 1.48106 4.61221 1.15669 0.0380567 -0.633744 -0.026069 0 0 0 0 0 0 0 0 0 
26.982 1 30 30.8698 2.17196 0.0230088 -2.34321 -3.34926 -0.541355 0.130065 0.544031 0.159203 0 0 0 0 0 0 0 0 0 
26.982 1 273 33.2491 4.20511 4.37301 -3.03196 -3.48895 6.21727 -0.104285 0.56263 -0.433029 0 0 0 0 0 0 0 0 0 
26.982 1 36 32.8649 2.13906 1.91695 -0.488164 -1.2784 2.41782 0.392874 0.614157 0.899122 0 0 0 0 0 0 0 0 0 
26.982 1 35 35.1905 0.363818 2.47367 -7.10072 2.79431 -0.904891 -0.151604 -0.564502 -0.965028 0 0 0 0 0 0 0 0 0 
26.982 1 75 35.2305 4.37655 2.19601 1.31656 1.62446 -0.62005 -0.185829 -0.0552605 0.746311 0 0 0 0 0 0 0 0 0 
26.982 1 234 35.2432 2.36321 4.1774 2.96043 2.62863 -1.0125 0.0209492 0.259961 0.177989 0 0 0 0 0 0 0 0 0 
26.982 1 277 37.3841 4.42407 4.19743 -2.79669 2.94778 -6.5285 -0.250881 -0.101341 0.615913 0 0 0 0 0 0 0 0 0 
26.982 1 77 37.4108 4.26463 0.253159 -1.80858 -3.98828 -2.03926 -0.225853 0.162659 0.101597 0 0 0 0 0 0 0 0 0 
26.982 1 40 37.3787 2.39129 2.37887 -0.747713 -0.152714 0.941509 -0.369991 -0.468412 -0.118239 0 0 0 0 0 0 0 0 0 
26.982 1 41 41.6719 4.23449 0.499695 -4.24523 -3.38479 3.34438 -0.21503 0.40971 -0.665245 0 0 0 0 0 0 0 0 0 
26.982 1 241 41.7227 4.38292 3.95088 -2.87295 5.80987 -3.00632 -0.575935 -0.10606 0.436614 0 0 0 0 0 0 0 0 0 
26.982 1 4 41.5828 2.30563 2.26053 2.34893 -0.176717 -0.0782797 -0.0371317 -0.668666 -0.061107 0 0 0 0 0 0 0 0 0 
26.982 1 79 39.2672 4.3771 2.28724 -1.03562 -6.43886 0.357354 0.988928 -0.102566 -0.166157 0 0 0 0 0 0 0 0 0 
26.982 1 238 39.5231 2.28574 4.22807 3.62307 -0.336955 2.23358 0.0238965 -0.0489572 0.0108012 0 0 0 0 0 0 0 0 0 
26.982 1 83 1.00902 8.38845 2.04871 4.83965 0.492001 -3.69925 0.0874065 -0.0668972 0.66696 0 0 0 0 0 0 0 0 0 
26.982 1 242 1.00212 6.31232 4.13726 2.52672 0.104069 2.99226 0.0530992 0.554337 -0.185193 0 0 0 0 0 0 0 0 0 
26.982 1 285 3.12919 8.27066 4.12158 -1.74605 0.811296 4.33875 -0.113028 -0.036181 0.0918038 0 0 0 0 0 0 0 0 0 
26.982 1 42 0.999427 6.35402 0.238052 0.361819 5.35705 -2.25225 0.0139706 -0.22109 -0.105239 0 0 0 0 0 0 0 0 0 
26.982 1 48 3.06382 6.13021 2.27096 0.37019 1.18041 -3.52151 0.0256186 0.254391 -0.195815 0 0 0 0 0 0 0 0 0 
26.982 1 85 3.19255 8.3702 0.451941 1.79216 -1.04767 -1.78099 -0.536206 -0.108075 -0.691004 0 0 0 0 0 0 0 0 0 
26.982 1 44 -1.23622 6.5177 2.18898 0.787821 3.54636 0.0955545 0.354628 -0.595845 -0.127339 0 0 0 0 0 0 0 0 0 
26.982 1 87 5.15667 8.19948 2.13894 2.22208 -2.59723 3.43305 0.547159 0.2802 0.603655 0 0 0 0 0 0 0 0 0 
26.982 1 246 5.17728 6.19026 4.0575 -5.00093 0.844849 4.13319 0.418182 0.21087 0.543505 0 0 0 0 0 0 0 0 0 
26.982 1 52 7.4476 6.43616 2.27951 5.12591 -1.04983 3.47168 0.14204 -0.332308 0.126129 0 0 0 0 0 0 0 0 0 
26.982 1 289 7.58075 8.29946 4.25017 -3.18469 -4.39501 4.80765 -0.423841 0.202982 0.0974363 0 0 0 0 0 0 0 0 0 
26.982 1 89 7.45579 8.10976 0.154559 1.52792 -2.93296 -0.198067 0.205924 0.299195 0.0587002 0 0 0 0 0 0 0 0 0 
26.982 1 286 5.23546 10.2198 4.18071 -3.69641 -0.923909 2.24008 0.286771 0.14785 0.18274 0 0 0 0 0 0 0 0 0 
26.982 1 88 3.1181 10.5587 2.29013 -2.65875 5.93977 -4.19806 0.0123078 -0.715112 -0.214426 0 0 0 0 0 0 0 0 0 
26.982 1 92 7.38114 10.041 2.22859 -3.95462 2.21197 3.1061 0.140843 0.390082 0.000125163 0 0 0 0 0 0 0 0 0 
26.982 1 91 9.7753 8.19901 2.11081 -0.538961 -3.63005 1.38844 -0.558864 0.203551 0.201384 0 0 0 0 0 0 0 0 0 
26.982 1 250 9.61032 6.33212 4.28039 1.88252 1.56195 -4.41182 -0.0887494 -0.261153 0.0396503 0 0 0 0 0 0 0 0 0 
26.982 1 50 9.65527 6.08837 0.145353 2.51986 -6.11411 -2.82614 -0.233812 0.524484 0.808256 0 0 0 0 0 0 0 0 0 
26.982 1 290 9.61726 10.4374 4.09738 -2.06909 -3.04565 3.40591 -0.00145482 -1.09255 0.381925 0 0 0 0 0 0 0 0 0 
26.982 1 93 11.7299 8.27822 0.197659 1.7947 -3.49123 -0.245878 0.206883 -0.0349466 0.399571 0 0 0 0 0 0 0 0 0 
26.982 1 56 11.7258 6.31403 2.32968 -0.416272 1.8205 0.316444 0.240596 -0.0703201 -0.174941 0 0 0 0 0 0 0 0 0 
26.982 1 293 11.6538 8.25124 4.23083 -4.12712 -0.679482 1.8814 0.146243 0.267232 -0.0426043 0 0 0 0 0 0 0 0 0 
26.982 1 95 14.0531 8.38113 2.42289 -2.50412 -0.909396 0.525283 -0.665017 -0.280384 -0.260347 0 0 0 0 0 0 0 0 0 
26.982 1 254 13.8874 6.16476 4.39351 0.582379 2.90818 -0.593144 0.0342256 0.403029 -0.409988 0 0 0 0 0 0 0 0 0 
26.982 1 60 16.0252 6.24536 2.39311 -2.42365 -1.48632 0.286728 -0.401105 -0.271722 -0.392457 0 0 0 0 0 0 0 0 0 
26.982 1 297 15.988 8.41434 4.32826 -0.073207 -0.620956 -3.16619 -0.0232274 -0.231933 0.367714 0 0 0 0 0 0 0 0 0 
26.982 1 294 13.7704 10.2872 4.31023 0.972118 0.433279 0.24208 0.086123 0.0956004 0.230665 0 0 0 0 0 0 0 0 0 
26.982 1 94 13.8664 10.3812 0.256013 2.3362 4.63807 0.320251 -0.00309365 -0.534983 -0.1203 0 0 0 0 0 0 0 0 0 
26.982 1 99 18.029 8.09022 2.22917 -3.26024 2.29709 0.397228 0.479231 0.408785 0.126887 0 0 0 0 0 0 0 0 0 
26.982 1 258 17.9803 6.36431 4.30298 0.197609 1.74889 -2.81695 0.385955 -0.194305 0.431161 0 0 0 0 0 0 0 0 0 
26.982 1 301 20.2999 8.24542 4.37229 -1.29404 3.27431 -0.818099 0.112043 -0.216076 -0.0756538 0 0 0 0 0 0 0 0 0 
26.982 1 101 20.1852 8.21479 0.198423 2.97391 2.04094 -1.31417 0.177314 0.0399846 0.322059 0 0 0 0 0 0 0 0 0 
26.982 1 64 20.2388 6.23271 2.21888 -3.30548 6.54275 1.63153 0.209935 0.518734 0.0777617 0 0 0 0 0 0 0 0 0 
26.982 1 103 22.452 8.32898 2.42425 -1.3885 -2.08357 -1.44782 -0.379929 -0.102791 0.00809389 0 0 0 0 0 0 0 0 0 
26.982 1 262 22.5186 6.0904 4.32093 1.37459 3.74501 0.0753925 -0.377272 0.694398 0.00928724 0 0 0 0 0 0 0 0 0 
26.982 1 305 24.7188 8.23685 4.26071 1.12131 3.86009 -0.650527 -0.444965 0.0131904 0.153362 0 0 0 0 0 0 0 0 0 
26.982 1 302 22.5611 10.4638 4.34431 1.05845 -2.43852 5.84009 -0.641904 -0.642487 0.00275769 0 0 0 0 0 0 0 0 0 
26.982 1 102 22.3531 10.2101 0.353884 0.586096 -0.540152 -1.29274 -0.280632 -0.0595755 -0.203085 0 0 0 0 0 0 0 0 0 
26.982 1 68 24.3453 6.29496 2.191 -1.29603 -0.785238 -6.50358 0.426639 -0.0410784 0.19945 0 0 0 0 0 0 0 0 0 
26.982 1 107 26.5123 8.2868 2.28238 0.950413 -2.28062 2.85227 0.480982 -0.00657325 0.328226 0 0 0 0 0 0 0 0 0 
26.982 1 266 26.8344 6.18508 4.21839 2.37449 2.0414 2.36776 -0.297039 0.69735 0.311088 0 0 0 0 0 0 0 0 0 
26.982 1 108 24.4841 10.3237 2.29565 2.20215 -0.947768 -5.17816 -0.0788646 -0.316061 0.1111 0 0 0 0 0 0 0 0 0 
26.982 1 309 28.9334 8.43103 4.28076 -2.84024 0.479181 3.72272 -0.730112 -0.794422 0.153649 0 0 0 0 0 0 0 0 0 
26.982 1 72 28.8198 6.36078 2.2167 -3.60475 -0.411486 -1.43341 0.0225981 -0.0932478 0.139493 0 0 0 0 0 0 0 0 0 
26.982 1 111 30.8805 8.17787 2.41269 0.151754 -1.14424 0.783482 0.200908 -0.104331 -0.420977 0 0 0 0 0 0 0 0 0 
26.982 1 270 30.9942 6.07533 4.39808 -1.51263 -2.30474 3.07156 0.289814 0.342998 -0.120196 0 0 0 0 0 0 0 0 0 
26.982 1 112 28.6289 10.255 2.33804 -0.847764 6.25051 -4.60737 0.394653 0.1569 -0.26925 0 0 0 0 0 0 0 0 0 
26.982 1 310 30.9815 10.1365 4.27532 4.70989 -2.79515 3.75065 0.0633359 0.501555 0.490467 0 0 0 0 0 0 0 0 0 
26.982 1 313 33.1311 8.13573 4.53888 -0.0662447 -0.531482 0.0221639 -0.196703 0.347764 -0.325215 0 0 0 0 0 0 0 0 0 
26.982 1 116 32.9248 10.1054 2.36361 -0.90583 -1.05664 1.11542 0.508581 0.37442 0.015245 0 0 0 0 0 0 0 0 0 
26.982 1 76 33.0844 6.42309 2.42625 0.509393 2.10304 1.85815 -0.0396287 -0.755981 -0.0233496 0 0 0 0 0 0 0 0 0 
26.982 1 115 35.1687 8.25071 2.42026 -1.01086 -0.19471 1.71196 0.231097 0.231184 -0.212001 0 0 0 0 0 0 0 0 0 
26.982 1 274 35.3191 6.33105 4.37985 1.98994 -1.2387 -0.0565838 -0.170656 -0.326507 -0.151644 0 0 0 0 0 0 0 0 0 
26.982 1 117 37.3164 8.36227 0.416511 3.89936 1.29671 -1.17588 -0.0107363 -0.270481 -0.0803711 0 0 0 0 0 0 0 0 0 
26.982 1 80 37.412 6.33487 2.2335 -4.20848 -2.98245 -2.30958 -0.354211 0.246865 0.0695582 0 0 0 0 0 0 0 0 0 
26.982 1 317 37.335 8.37395 4.34017 -2.87315 8.28492 1.09646 0.192816 0.0263564 -0.251453 0 0 0 0 0 0 0 0 0 
26.982 1 314 35.077 10.3169 4.29094 2.7502 -5.17391 -1.10824 0.487915 -0.112941 -0.0465246 0 0 0 0 0 0 0 0 0 
26.982 1 74 35.2137 6.24069 0.372625 5.25603 -0.864395 0.997255 0.0698651 0.494733 -0.17948 0 0 0 0 0 0 0 0 0 
26.982 1 281 41.6581 8.35625 4.10058 0.175241 -1.3457 -1.87196 0.167034 0.117106 0.44782 0 0 0 0 0 0 0 0 0 
26.982 1 119 39.4789 8.28336 2.22983 -0.441856 -3.15881 3.84183 -0.275252 0.127889 0.252636 0 0 0 0 0 0 0 0 0 
26.982 1 278 39.4727 6.30237 4.2385 -3.71679 -1.12596 1.53587 -0.0706773 0.227216 0.0342252 0 0 0 0 0 0 0 0 0 
26.982 1 318 39.651 10.3772 4.16763 2.07694 0.65234 1.80297 -0.353236 -0.333124 0.373217 0 0 0 0 0 0 0 0 0 
26.982 1 123 1.00486 12.3211 2.28676 -4.69179 -0.83145 -4.94882 -0.306778 -0.37668 -0.494505 0 0 0 0 0 0 0 0 0 
26.982 1 282 1.04884 10.3146 4.3346 4.9769 -4.36504 -2.46094 -0.331264 -0.254672 -0.300489 0 0 0 0 0 0 0 0 0 
26.982 1 322 1.01543 14.2121 4.21714 1.86815 2.48404 -2.37843 -0.330132 0.349676 0.549849 0 0 0 0 0 0 0 0 0 
26.982 1 124 -1.10363 14.1365 2.4336 1.02654 -5.73379 -4.96954 -0.336127 0.207034 -0.894897 0 0 0 0 0 0 0 0 0 
26.982 1 82 0.909272 10.308 0.0858408 -0.0517124 3.80603 -1.15911 0.3527 -0.135667 0.829169 0 0 0 0 0 0 0 0 0 
26.982 1 321 -1.12256 12.3057 4.30112 -2.57828 4.5978 1.20172 0.0727956 -0.261342 0.430765 0 0 0 0 0 0 0 0 0 
26.982 1 128 3.09554 14.1909 2.21613 -1.96546 -0.937762 -3.75701 0.0590509 -0.118072 0.104184 0 0 0 0 0 0 0 0 0 
26.982 1 86 5.378 10.2201 0.273293 -1.80885 4.70742 2.63402 -0.195651 0.291263 -0.146475 0 0 0 0 0 0 0 0 0 
26.982 1 125 3.22841 12.2693 0.166107 -5.23802 1.45417 -2.05834 -0.00921927 0.183622 0.0624736 0 0 0 0 0 0 0 0 0 
26.982 1 325 2.87184 12.3096 4.30611 -3.17533 0.891835 -1.02181 1.04341 0.146974 0.331177 0 0 0 0 0 0 0 0 0 
26.982 1 127 5.27704 12.3171 2.34288 -0.376388 1.62189 1.16629 0.287564 -0.0502401 -0.050097 0 0 0 0 0 0 0 0 0 
26.982 1 326 5.09714 14.4353 4.20811 5.64421 2.8992 0.752725 0.277388 -0.813149 0.29949 0 0 0 0 0 0 0 0 0 
26.982 1 126 5.33916 14.3585 0.365405 2.73044 -2.3921 2.29826 -0.38383 -0.662587 0.00019418 0 0 0 0 0 0 0 0 0 
26.982 1 132 7.50379 14.1973 2.44504 1.06621 -2.38131 -5.49759 -0.576328 -0.166931 -0.149358 0 0 0 0 0 0 0 0 0 
26.982 1 130 9.36659 14.1285 0.417446 2.16806 0.415865 -2.02972 0.633626 0.46757 -0.098549 0 0 0 0 0 0 0 0 0 
26.982 1 329 7.47373 12.1695 4.32412 -0.132128 0.605787 10.1445 -0.579899 0.154901 -0.125946 0 0 0 0 0 0 0 0 0 
26.982 1 131 9.67936 12.2882 2.36094 1.54217 0.362595 -0.764472 -0.174146 0.299076 -0.480802 0 0 0 0 0 0 0 0 0 
26.982 1 330 9.51325 14.2283 4.36308 -1.53496 0.64456 0.0284754 0.085964 0.0809063 -0.0182678 0 0 0 0 0 0 0 0 0 
26.982 1 333 11.8169 12.2685 4.26582 0.869551 1.112 -0.462343 -0.198096 0.0767707 -0.0387984 0 0 0 0 0 0 0 0 0 
26.982 1 96 11.7996 10.3908 2.1685 4.96859 3.524 5.00794 0.0299017 -0.470792 0.265988 0 0 0 0 0 0 0 0 0 
26.982 1 136 11.7595 14.324 2.24002 1.17613 -1.62592 -0.319021 -0.50106 -0.336272 -0.145517 0 0 0 0 0 0 0 0 0 
26.982 1 135 13.9826 12.3001 2.15197 1.99088 0.429011 -1.33411 -0.333051 -0.55553 0.930929 0 0 0 0 0 0 0 0 0 
26.982 1 334 13.7358 14.2177 4.16876 -0.535132 4.32567 -2.25543 0.290546 0.238469 0.333907 0 0 0 0 0 0 0 0 0 
26.982 1 100 16.1504 10.2756 2.3368 -2.82201 1.39639 0.444785 -0.345523 0.151557 -0.0997425 0 0 0 0 0 0 0 0 0 
26.982 1 337 15.8388 12.1056 4.40807 -7.07287 -3.2689 -3.10474 0.272901 0.311168 -0.283179 0 0 0 0 0 0 0 0 0 
26.982 1 134 13.9739 14.0987 0.32156 3.26482 -0.49002 4.23589 -0.36904 0.924656 -0.604814 0 0 0 0 0 0 0 0 0 
26.982 1 298 18.1775 10.2315 4.34103 3.1064 0.299441 -2.89757 -0.247791 -0.102319 0.173361 0 0 0 0 0 0 0 0 0 
26.982 1 140 15.9062 14.2395 2.35572 1.52354 0.15951 4.18986 0.295975 0.0197187 -0.0921726 0 0 0 0 0 0 0 0 0 
26.982 1 139 18.0557 12.2511 2.30131 2.76045 -0.604126 0.890293 -0.176634 -0.0273029 0.141467 0 0 0 0 0 0 0 0 0 
26.982 1 144 20.05 14.1632 2.16139 2.17236 -5.31424 -2.2309 0.30608 0.274893 0.277804 0 0 0 0 0 0 0 0 0 
26.982 1 338 18.0397 14.2212 4.28857 -1.90087 -1.53437 -0.972705 0.199255 0.0697727 -0.0460195 0 0 0 0 0 0 0 0 0 
26.982 1 341 20.1801 12.2026 4.32174 1.16403 0.158697 -3.32772 0.19006 0.454048 -0.113016 0 0 0 0 0 0 0 0 0 
26.982 1 142 22.2928 14.2307 0.349867 3.62962 -0.508135 1.8778 -0.162874 -0.150954 -0.133457 0 0 0 0 0 0 0 0 0 
26.982 1 104 20.116 10.1937 2.41017 5.62333 -1.94938 3.48208 0.361519 -0.237679 -0.33526 0 0 0 0 0 0 0 0 0 
26.982 1 143 22.226 12.1457 2.2681 -0.615388 -2.774 1.62085 -0.138592 0.528645 0.255165 0 0 0 0 0 0 0 0 0 
26.982 1 342 22.1581 14.3768 4.19652 3.74181 -1.26409 -2.52634 0.779766 -1.22547 0.0327467 0 0 0 0 0 0 0 0 0 
26.982 1 106 26.714 10.2047 0.319114 -1.06766 -1.29513 -2.08776 -0.404213 0.232448 -0.126896 0 0 0 0 0 0 0 0 0 
26.982 1 148 24.4605 14.3741 2.16374 2.54428 -4.05119 0.488365 -0.00893216 -0.161723 0.451893 0 0 0 0 0 0 0 0 0 
26.982 1 345 24.4561 12.3398 4.26751 -2.16142 -4.14379 -0.704247 0.0871869 0.594975 -0.0732026 0 0 0 0 0 0 0 0 0 
26.982 1 306 26.5358 10.3391 4.17186 -1.97988 -0.0412698 -0.149911 0.362098 -0.288879 0.637008 0 0 0 0 0 0 0 0 0 
26.982 1 147 26.5426 12.196 2.2781 -7.2156 -1.0004 -2.42622 0.158966 0.660801 -0.112746 0 0 0 0 0 0 0 0 0 
26.982 1 346 26.5212 14.4198 4.18424 -1.41226 0.272437 1.24745 0.483855 -0.451363 0.0142169 0 0 0 0 0 0 0 0 0 
26.982 1 145 24.284 12.2492 0.493356 1.34963 -1.25801 -2.35895 0.313792 0.114431 -0.874987 0 0 0 0 0 0 0 0 0 
26.982 1 110 30.9734 10.234 0.400659 -5.72088 3.95628 0.352932 -0.255419 0.00707098 -0.34385 0 0 0 0 0 0 0 0 0 
26.982 1 152 28.7882 14.0209 2.12369 -1.69083 2.30573 -1.72081 -0.249513 0.755463 0.267932 0 0 0 0 0 0 0 0 0 
26.982 1 349 29.0093 12.2523 4.20076 -2.49089 0.144229 1.20305 -0.954862 -0.264376 0.740495 0 0 0 0 0 0 0 0 0 
26.982 1 151 30.8632 12.1229 2.30922 -2.68871 5.28965 -3.13013 0.535563 0.275041 -0.517116 0 0 0 0 0 0 0 0 0 
26.982 1 350 30.9351 14.1455 4.17769 0.808934 2.08474 2.3336 0.378082 0.219533 0.37671 0 0 0 0 0 0 0 0 0 
26.982 1 353 33.0499 12.1257 4.38223 -0.81952 3.86914 0.724903 -0.104889 0.492037 -0.488662 0 0 0 0 0 0 0 0 0 
26.982 1 150 30.9159 14.2891 0.218168 -2.3501 0.0111522 3.79895 -0.309032 -0.17755 0.133607 0 0 0 0 0 0 0 0 0 
26.982 1 155 35.2281 12.3718 2.28272 -1.49762 1.74038 0.872004 -0.596554 -0.659417 0.217768 0 0 0 0 0 0 0 0 0 
26.982 1 156 33.1515 14.2408 2.29562 -4.50234 -4.23083 -0.532307 -0.483332 -0.0210059 0.304605 0 0 0 0 0 0 0 0 0 
26.982 1 354 35.2205 14.0578 4.42204 6.00595 2.35372 1.33168 0.0777612 0.213321 0.0862396 0 0 0 0 0 0 0 0 0 
26.982 1 157 37.1744 12.3603 0.400569 -3.50614 -5.9988 0.649764 0.493202 -0.411344 -0.830804 0 0 0 0 0 0 0 0 0 
26.982 1 114 35.0653 10.2427 0.277974 1.26215 2.60786 1.29628 0.304267 0.269697 0.0684812 0 0 0 0 0 0 0 0 0 
26.982 1 154 35.2308 14.3643 0.305899 2.18563 -3.14294 -1.35597 -0.199813 -0.084003 -0.198225 0 0 0 0 0 0 0 0 0 
26.982 1 120 37.2253 10.389 2.37706 -3.54495 -2.29533 1.42111 0.0664685 -0.21339 0.0505505 0 0 0 0 0 0 0 0 0 
26.982 1 84 41.7006 10.2481 2.16558 -1.52822 -0.728909 -3.73924 -0.0199244 0.427312 0.29452 0 0 0 0 0 0 0 0 0 
26.982 1 160 37.2387 14.1507 2.36546 -5.87654 0.996023 -5.19579 0.538659 0.56662 0.345995 0 0 0 0 0 0 0 0 0 
26.982 1 357 37.5483 12.2827 4.48976 0.8763 -1.18098 0.884339 -0.510455 -0.225648 -0.0614999 0 0 0 0 0 0 0 0 0 
26.982 1 159 39.3841 12.254 2.27354 0.318524 -1.18276 -1.08982 0.244905 0.520137 -0.0483623 0 0 0 0 0 0 0 0 0 
26.982 1 358 39.4903 14.2633 4.37515 -0.381427 0.823651 0.765105 -0.156841 -0.204555 0.0472284 0 0 0 0 0 0 0 0 0 
26.982 1 163 0.846264 16.1069 2.13296 -2.88292 3.17413 -4.30289 0.249978 0.545138 0.364438 0 0 0 0 0 0 0 0 0 
26.982 1 361 -1.29762 16.1068 4.19722 -0.280671 -2.55548 -5.02296 0.522414 0.439741 0.671113 0 0 0 0 0 0 0 0 0 
26.982 1 362 0.879034 18.1908 4.18959 -0.498222 0.268466 0.668647 -0.0537319 -0.227554 0.38294 0 0 0 0 0 0 0 0 0 
26.982 1 2003 1.01107 20.1701 2.35406 -2.11691 -1.82547 0.872766 -0.158901 0.391252 -0.233124 0 0 0 0 0 0 0 0 0 
26.982 1 2201 -1.23174 20.3527 4.35922 -1.35863 2.31306 -1.7849 -0.196891 -0.17564 -0.180045 0 0 0 0 0 0 0 0 0 
26.982 1 164 -1.30333 18.2391 2.3971 -3.64127 -0.698101 6.83809 0.317094 0.056143 -0.298047 0 0 0 0 0 0 0 0 0 
26.982 1 168 3.22305 18.3875 2.40801 -3.74196 -1.36484 -1.25071 -0.641052 -0.330212 -0.546626 0 0 0 0 0 0 0 0 0 
26.982 1 365 2.98396 16.2298 4.19147 1.47394 -3.41799 3.78718 -0.188834 0.15172 0.167647 0 0 0 0 0 0 0 0 0 
26.982 1 2205 2.94576 20.1586 4.4079 -1.06948 3.04933 4.23016 0.399437 0.365591 -0.0173428 0 0 0 0 0 0 0 0 0 
26.982 1 167 5.08908 16.3394 2.3016 -4.02765 1.96753 2.20027 0.473529 -0.349306 0.111099 0 0 0 0 0 0 0 0 0 
26.982 1 366 5.0827 18.2124 4.27946 4.29937 1.71532 -0.572629 0.589002 0.307358 0.161866 0 0 0 0 0 0 0 0 0 
26.982 1 2007 5.42678 20.3562 2.2674 -0.115541 -2.41087 -3.29991 -0.609539 -0.555446 0.259829 0 0 0 0 0 0 0 0 0 
26.982 1 169 7.35866 16.0931 0.429412 0.682371 0.178886 9.37992 0.155733 0.563054 -0.307004 0 0 0 0 0 0 0 0 0 
26.982 1 166 5.20669 18.2212 0.465983 2.06248 -1.11819 0.993688 0.127609 0.240811 -0.619638 0 0 0 0 0 0 0 0 0 
26.982 1 172 7.35125 18.25 2.17424 -5.76331 1.40358 5.5278 -0.0156572 -0.203592 0.67196 0 0 0 0 0 0 0 0 0 
26.982 1 369 7.30549 16.167 4.36902 -0.765193 -0.396107 1.14784 0.0287471 0.27982 -0.461331 0 0 0 0 0 0 0 0 0 
26.982 1 171 9.36542 16.2775 2.4564 -1.00071 -0.0292205 0.972583 0.418051 -0.328758 -0.410228 0 0 0 0 0 0 0 0 0 
26.982 1 370 9.47807 18.311 4.18132 -6.59676 -4.28474 6.55961 0.0242892 -0.00352995 0.548304 0 0 0 0 0 0 0 0 0 
26.982 1 176 11.6139 18.2203 2.22822 0.268874 -1.80149 0.0382764 0.127586 -0.176251 0.19719 0 0 0 0 0 0 0 0 0 
26.982 1 2217 15.975 20.3004 4.11247 3.22502 -6.3861 -1.90439 0.115269 0.0239361 0.477762 0 0 0 0 0 0 0 0 0 
26.982 1 373 11.6017 16.1641 4.21972 2.42799 1.79497 -0.255461 0.100601 0.48727 0.18723 0 0 0 0 0 0 0 0 0 
26.982 1 175 13.7651 16.1825 2.20978 6.7756 6.5803 0.0169488 0.0849385 0.30976 0.158747 0 0 0 0 0 0 0 0 0 
26.982 1 374 13.7373 18.3632 4.18686 -0.641435 0.912412 0.0757196 -0.00403798 -0.245556 0.345619 0 0 0 0 0 0 0 0 0 
26.982 1 377 15.9284 16.3327 4.20129 -8.73643 -3.99914 -1.89478 -0.230328 0.122498 0.436723 0 0 0 0 0 0 0 0 0 
26.982 1 174 13.735 18.1304 0.270388 1.62052 3.96084 2.73274 0.0997958 0.258095 -0.214184 0 0 0 0 0 0 0 0 0 
26.982 1 180 15.9151 18.2292 2.34392 2.40759 1.855 -3.07708 0.197831 0.205695 -0.373359 0 0 0 0 0 0 0 0 0 
26.982 1 179 17.963 16.1751 2.42226 -1.59213 -1.3333 -3.18599 0.470975 -0.00959443 -0.959907 0 0 0 0 0 0 0 0 0 
26.982 1 184 20.5047 18.3482 2.19018 -0.304933 -1.27528 -4.62013 -0.42146 0.212924 0.0622678 0 0 0 0 0 0 0 0 0 
26.982 1 378 18.2865 18.2734 4.00402 -0.0680275 2.02399 5.03682 -0.213937 0.189657 0.565432 0 0 0 0 0 0 0 0 0 
26.982 1 178 18.1161 18.2966 0.284313 1.2004 -0.0563696 3.53304 0.232361 -0.469897 0.0927437 0 0 0 0 0 0 0 0 0 
26.982 1 177 15.8844 16.4516 0.278619 -0.821217 -1.99636 -1.48465 0.228418 -0.652487 -0.127891 0 0 0 0 0 0 0 0 0 
26.982 1 381 20.3635 16.2102 4.21168 -1.6661 -2.19456 -0.200513 -1.01535 0.215224 -0.235744 0 0 0 0 0 0 0 0 0 
26.982 1 181 20.3891 16.3368 0.366118 1.30499 0.0674671 1.01209 -0.602194 -0.0528801 -0.16223 0 0 0 0 0 0 0 0 0 
26.982 1 2221 20.2716 20.4789 4.25592 7.39351 -0.00937651 4.33271 0.119242 -0.709891 -0.0968424 0 0 0 0 0 0 0 0 0 
26.982 1 183 22.3626 16.2428 2.30897 -6.71681 3.56787 6.02339 0.17434 0.221597 -0.481138 0 0 0 0 0 0 0 0 0 
26.982 1 382 22.3204 18.3223 4.22922 1.94051 -0.834005 -2.4496 0.297195 0.286174 -0.230582 0 0 0 0 0 0 0 0 0 
26.982 1 188 24.4874 18.1483 2.21572 -1.84236 1.25877 -1.80592 -0.114996 0.47622 -0.210669 0 0 0 0 0 0 0 0 0 
26.982 1 182 22.5082 18.323 0.153727 -1.56627 -4.09157 -3.69431 -0.090318 -0.288178 0.209646 0 0 0 0 0 0 0 0 0 
26.982 1 2025 24.5669 20.1803 0.146447 -4.65043 2.22865 -2.42343 -0.00288002 -0.0398842 0.172656 0 0 0 0 0 0 0 0 0 
26.982 1 385 24.509 16.2568 4.19311 -4.88257 -1.96568 3.02194 0.0681565 -0.0766647 0.121376 0 0 0 0 0 0 0 0 0 
26.982 1 187 26.5797 16.4546 2.17528 1.53744 -4.4564 2.26641 0.277368 -0.900729 0.374222 0 0 0 0 0 0 0 0 0 
26.982 1 386 26.7918 18.2503 4.27247 3.44755 1.9328 0.54176 -0.491099 -0.639141 -0.32478 0 0 0 0 0 0 0 0 0 
26.982 1 2027 26.7166 20.314 2.32874 3.07186 1.74807 7.8504 -0.163905 -0.919871 -0.128227 0 0 0 0 0 0 0 0 0 
26.982 1 192 28.8057 18.2481 2.24141 -1.61183 5.95447 -1.4503 0.0373185 -0.228564 0.309653 0 0 0 0 0 0 0 0 0 
26.982 1 389 28.9663 16.1254 4.24801 1.13082 -3.8557 4.18464 -0.671652 0.0147847 0.0888408 0 0 0 0 0 0 0 0 0 
26.982 1 2229 28.7607 20.1331 4.31715 0.602995 -1.27521 -0.824369 0.491174 0.621627 -0.443316 0 0 0 0 0 0 0 0 0 
26.982 1 189 28.6359 16.3265 0.224175 -4.36433 0.966911 -0.289725 0.324935 -0.509652 0.180126 0 0 0 0 0 0 0 0 0 
26.982 1 191 30.7986 16.1783 2.25948 0.812076 -1.38507 0.690751 0.25294 0.0519459 -0.0796799 0 0 0 0 0 0 0 0 0 
26.982 1 390 30.8828 18.1882 4.3662 -0.549989 2.08697 2.93318 0.246628 0.0235505 -0.262615 0 0 0 0 0 0 0 0 0 
26.982 1 393 33.0613 16.1842 4.38882 -2.92024 -0.359274 -4.22866 -0.211394 -0.177877 -0.303807 0 0 0 0 0 0 0 0 0 
26.982 1 190 30.8539 18.1582 0.250946 2.35304 0.838595 -0.489125 0.00962651 -0.192697 0.400139 0 0 0 0 0 0 0 0 0 
26.982 1 2233 33.0291 20.1486 4.32886 2.66984 1.55045 2.4589 -0.276135 -0.050775 -0.265076 0 0 0 0 0 0 0 0 0 
26.982 1 196 33.1143 17.9771 2.35226 2.45739 -1.41277 1.56595 -0.377603 0.632502 -0.0326872 0 0 0 0 0 0 0 0 0 
26.982 1 195 35.1357 16.1852 2.43518 -0.068164 -1.75522 3.7806 0.423421 0.0101219 -0.228953 0 0 0 0 0 0 0 0 0 
26.982 1 394 35.0785 18.2095 4.40068 3.40903 0.366545 8.49301 0.189537 -0.0546579 -0.0209944 0 0 0 0 0 0 0 0 0 
26.982 1 200 37.4079 18.1924 2.42289 1.68818 1.52255 -0.445082 -0.418753 -0.175271 -0.344023 0 0 0 0 0 0 0 0 0 
26.982 1 397 37.1637 16.1762 4.45355 -5.86854 0.144725 2.59078 0.224823 0.117709 -0.168718 0 0 0 0 0 0 0 0 0 
26.982 1 199 39.4068 16.1608 2.36806 -1.69793 -1.14285 3.18661 -0.238835 -0.137016 -0.272768 0 0 0 0 0 0 0 0 0 
26.982 1 398 39.4696 18.1969 4.17772 -6.56725 0.75563 -1.07674 -0.208818 0.44761 0.792075 0 0 0 0 0 0 0 0 0 
26.982 1 197 37.3481 16.0876 0.343591 2.27205 -2.52925 2.60521 -0.107952 0.483296 0.170396 0 0 0 0 0 0 0 0 0 
26.982 1 243 1.08655 4.36043 5.9201 -1.39308 -4.63806 -0.169447 -0.363868 -0.536585 0.61719 0 0 0 0 0 0 0 0 0 
26.982 1 402 0.967275 2.34883 8.31828 -2.58212 -0.276307 -0.218967 0.0945278 -0.0457359 -0.581195 0 0 0 0 0 0 0 0 0 
26.982 1 408 3.15357 2.29057 10.2663 -2.0723 4.86467 2.52149 0.113645 -0.038602 -0.358998 0 0 0 0 0 0 0 0 0 
26.982 1 404 -1.16837 2.26257 10.1731 4.76993 2.55249 -1.39396 0.0622465 0.330103 0.113295 0 0 0 0 0 0 0 0 0 
26.982 1 405 3.01252 0.186377 8.11233 -0.318953 1.72663 -2.56183 0.122516 -0.036839 0.318282 0 0 0 0 0 0 0 0 0 
26.982 1 208 3.09959 2.1872 6.27677 1.28176 0.691659 -5.70004 -0.00437107 0.268804 0.0681408 0 0 0 0 0 0 0 0 0 
26.982 1 445 3.07289 4.18955 8.16583 3.34891 -2.8994 -1.08011 0.163324 0.135114 0.169989 0 0 0 0 0 0 0 0 0 
26.982 1 247 5.16783 4.26319 6.35953 0.0999368 7.00755 -6.75442 0.271678 -0.0964756 -0.418291 0 0 0 0 0 0 0 0 0 
26.982 1 406 5.24573 2.17737 8.33071 3.8978 1.92023 3.31005 -0.243069 0.102288 -0.223376 0 0 0 0 0 0 0 0 0 
26.982 1 449 7.09173 4.24626 8.43386 -2.96035 -3.54257 -1.81582 0.776341 0.113004 -0.255244 0 0 0 0 0 0 0 0 0 
26.982 1 207 5.20697 0.155055 6.27608 3.0982 -2.47035 4.60406 0.117759 0.135954 0.0898336 0 0 0 0 0 0 0 0 0 
26.982 1 212 7.27755 2.46514 6.29756 -1.38786 -0.323981 -4.73225 0.04729 -0.577522 0.300305 0 0 0 0 0 0 0 0 0 
26.982 1 251 9.52362 4.34871 6.38458 3.30735 4.33973 7.62806 -0.131003 0.00416491 0.0307213 0 0 0 0 0 0 0 0 0 
26.982 1 410 9.399 2.11326 8.19856 -4.45141 2.34787 -1.34427 -0.103024 0.654451 0.227118 0 0 0 0 0 0 0 0 0 
26.982 1 453 11.6811 4.25 8.19981 -1.74919 1.05246 2.43331 -0.0902799 -0.115911 0.332297 0 0 0 0 0 0 0 0 0 
26.982 1 211 9.46159 0.160939 6.3695 1.97463 2.38866 0.470805 0.155453 0.0803006 -0.413988 0 0 0 0 0 0 0 0 0 
26.982 1 417 15.9775 0.288534 8.29352 -1.82846 -3.60306 1.12958 0.395082 0.179352 0.255701 0 0 0 0 0 0 0 0 0 
26.982 1 413 11.4715 0.265724 8.35897 3.29995 0.548431 -4.44427 0.425263 -0.156596 -0.20485 0 0 0 0 0 0 0 0 0 
26.982 1 216 11.7945 2.26762 6.35045 2.50289 -4.92433 -0.447747 -0.216646 -0.195046 -0.0289055 0 0 0 0 0 0 0 0 0 
26.982 1 255 13.8123 4.13476 6.3368 4.92425 0.442962 -3.87767 0.240683 0.270089 0.388444 0 0 0 0 0 0 0 0 0 
26.982 1 414 13.8066 2.19788 8.58329 0.0745151 -2.79095 4.2224 0.0662958 1.09889 -0.941965 0 0 0 0 0 0 0 0 0 
26.982 1 415 13.6386 0.348167 10.1716 -4.41134 -4.51261 2.61686 0.343382 -0.982407 1.05637 0 0 0 0 0 0 0 0 0 
26.982 1 416 11.5061 2.3075 10.2434 1.86538 1.81687 2.02948 0.192201 -0.0190055 0.17642 0 0 0 0 0 0 0 0 0 
26.982 1 457 15.9549 4.21281 8.35862 5.23598 -5.57616 -6.75695 0.0811123 0.529369 -0.110435 0 0 0 0 0 0 0 0 0 
26.982 1 420 16.1268 2.30882 10.3482 0.412473 -0.868714 -1.84503 -0.199559 -0.338624 0.0459252 0 0 0 0 0 0 0 0 0 
26.982 1 419 18.1907 0.150238 10.2939 4.00402 1.52811 -0.0689949 -0.0252699 0.810272 -0.163301 0 0 0 0 0 0 0 0 0 
26.982 1 220 16.033 2.46758 6.2992 1.34438 -0.633925 2.59365 0.0212584 -0.764574 0.245568 0 0 0 0 0 0 0 0 0 
26.982 1 259 18.2185 4.15037 6.16534 -2.80536 2.11781 1.0851 -0.169848 0.567197 0.234923 0 0 0 0 0 0 0 0 0 