ITEM: TIMESTEP
450
ITEM: NUMBER OF ATOMS
4000
ITEM: BOX BOUNDS pp pp pp
-0.165655 40.6657
-0.0419933 40.542
-0.0370837 40.5371
ITEM: ATOMS mass type id x y z vx vy vz fx fy fz xrad yrad zrad vxrad vyrad vzrad fxrad fyrad fzrad 
26.982 1 2 1.88378 1.91389 0.00899193 0.245394 -1.98722 -1.64601 0.0370045 -0.334909 -0.390161 0 0 0 0 0 0 0 0 0 
26.982 1 3 2.02741 -0.056131 2.08531 -1.50314 4.86839 0.336676 -0.624913 0.092191 -0.406576 0 0 0 0 0 0 0 0 0 
26.982 1 8 4.04563 1.78185 1.95465 0.472769 4.49512 -0.493056 -0.639369 1.27169 -0.11641 0 0 0 0 0 0 0 0 0 
26.982 1 41 -0.274744 3.87471 -0.121392 -2.72417 4.95901 4.65575 0.159272 0.551476 -0.112263 0 0 0 0 0 0 0 0 0 
26.982 1 43 1.87852 3.96991 1.75079 -0.377624 4.77016 0.633283 0.132231 -0.172249 0.758731 0 0 0 0 0 0 0 0 0 
26.982 1 202 1.87955 2.06959 3.96818 1.64254 2.23907 -1.49563 0.0443055 -0.167498 -0.166357 0 0 0 0 0 0 0 0 0 
26.982 1 241 -0.189796 3.86111 3.83993 -0.0352137 1.30768 -0.0126327 -0.11909 0.561904 0.266502 0 0 0 0 0 0 0 0 0 
26.982 1 245 3.95898 3.85521 4.10428 -1.08304 -1.99482 -1.57535 0.206036 0.310962 -0.479258 0 0 0 0 0 0 0 0 0 
26.982 1 6 5.92331 1.94835 -0.34219 -0.358686 -7.23578 -2.94312 -0.0813495 0.616027 0.825012 0 0 0 0 0 0 0 0 0 
26.982 1 9 8.13311 0.196013 0.0281617 -2.55223 -4.53849 -0.546481 0.0274292 -0.330647 -0.0297321 0 0 0 0 0 0 0 0 0 
26.982 1 12 8.22677 2.14026 1.92285 -1.32882 1.83057 -4.19785 -0.377969 -0.113974 0.124316 0 0 0 0 0 0 0 0 0 
26.982 1 47 5.9538 3.94944 1.90926 -3.58441 0.472949 -1.89029 -0.0418942 -0.27397 -0.201588 0 0 0 0 0 0 0 0 0 
26.982 1 49 7.97678 4.03915 -0.182379 -2.72615 4.37718 2.91538 0.233662 -0.278227 0.0932536 0 0 0 0 0 0 0 0 0 
26.982 1 206 6.15097 1.93674 3.85835 -0.08027 0.276456 -1.08614 -0.27763 0.0247263 0.352995 0 0 0 0 0 0 0 0 0 
26.982 1 209 8.06588 -0.179227 4.04418 -5.07371 -2.90345 2.10423 -0.135545 0.478014 0.00568785 0 0 0 0 0 0 0 0 0 
26.982 1 249 7.93861 4.05373 3.95138 -1.54755 2.81465 -2.56898 0.448081 0.124268 -0.118632 0 0 0 0 0 0 0 0 0 
26.982 1 10 10.2219 2.22134 0.0248842 0.393036 -0.859082 2.65531 -0.0214634 -0.436487 -0.244141 0 0 0 0 0 0 0 0 0 
26.982 1 16 12.2592 1.943 2.03063 -2.49488 2.11384 1.32851 -0.1101 0.457186 0.1064 0 0 0 0 0 0 0 0 0 
26.982 1 51 10.3754 4.07904 2.03078 1.7023 0.457076 -0.152884 -0.450872 0.160315 -0.0962797 0 0 0 0 0 0 0 0 0 
26.982 1 53 12.1621 4.17085 -0.150291 4.73018 1.59072 -0.232809 -0.189385 -0.435762 0.222858 0 0 0 0 0 0 0 0 0 
26.982 1 210 10.1228 2.09087 3.99501 1.51265 0.13032 0.568953 0.0244091 -0.215262 0.0278864 0 0 0 0 0 0 0 0 0 
26.982 1 213 12.2162 -0.0553876 3.99852 -3.72433 3.04367 -3.30687 -0.388115 -0.150739 0.436587 0 0 0 0 0 0 0 0 0 
26.982 1 253 12.2768 3.9312 4.06234 -2.62611 -1.36574 -3.00081 -0.362202 0.373075 -0.168234 0 0 0 0 0 0 0 0 0 
26.982 1 20 16.2218 1.95139 1.99641 -2.79786 -5.77071 3.2917 -0.49043 -0.122871 0.039505 0 0 0 0 0 0 0 0 0 
26.982 1 55 14.2041 3.97272 2.02909 4.33543 3.46299 -1.03417 -0.506405 -0.0405731 -0.0423059 0 0 0 0 0 0 0 0 0 
26.982 1 57 16.0565 3.99775 0.0399249 -5.0676 1.32853 2.3806 0.13751 -0.0614628 -0.488322 0 0 0 0 0 0 0 0 0 
26.982 1 214 14.1807 1.83444 4.31578 -2.21507 -0.325793 2.57655 0.0702273 0.75357 -0.744614 0 0 0 0 0 0 0 0 0 
26.982 1 257 16.039 4.06906 4.03275 -1.22161 -0.320294 -6.50713 0.350143 -0.0191312 0.147631 0 0 0 0 0 0 0 0 0 
26.982 1 218 18.0122 2.05942 4.01463 0.983006 -2.66703 1.44753 0.599669 -0.124853 0.515779 0 0 0 0 0 0 0 0 0 
26.982 1 18 18.3343 1.9434 -0.0494053 -1.01845 9.76069 -2.8439 -0.362623 0.0418322 0.0259587 0 0 0 0 0 0 0 0 0 
26.982 1 19 18.1241 -0.048636 2.10276 -2.40144 -0.661423 -4.34392 0.375014 0.059605 -0.171952 0 0 0 0 0 0 0 0 0 
26.982 1 21 20.3335 0.0225651 -0.175033 -3.07165 5.20073 -4.63999 -0.39485 -0.299407 0.472326 0 0 0 0 0 0 0 0 0 
26.982 1 22 22.3044 1.91237 -0.0771186 -3.22639 3.30622 4.39304 0.00292366 0.213367 0.0238196 0 0 0 0 0 0 0 0 0 
26.982 1 24 20.2284 2.03368 2.04718 1.9152 -1.60694 -2.43808 0.12094 -0.423807 -0.237279 0 0 0 0 0 0 0 0 0 
26.982 1 59 18.024 3.94164 1.98289 -0.357289 0.701777 -0.359344 0.492629 0.417404 0.0692044 0 0 0 0 0 0 0 0 0 
26.982 1 61 20.1153 4.06772 0.0235016 5.29948 -1.59378 -0.907723 0.370877 -0.111519 -0.295646 0 0 0 0 0 0 0 0 0 
26.982 1 63 22.3344 4.00454 1.86178 2.67243 1.33484 2.56038 -0.289728 0.0891349 0.289048 0 0 0 0 0 0 0 0 0 
26.982 1 222 22.4174 2.13965 4.0243 -2.62689 -2.3965 2.14596 -0.683204 -0.96053 -0.258477 0 0 0 0 0 0 0 0 0 
26.982 1 261 20.2318 3.93361 3.92801 -2.8259 4.85617 -0.0991001 -0.0374101 0.38046 0.108619 0 0 0 0 0 0 0 0 0 
26.982 1 25 24.3916 -0.0813754 0.215141 -2.32756 -1.8872 -2.04487 -0.342119 0.212222 -0.765836 0 0 0 0 0 0 0 0 0 
26.982 1 26 26.4551 1.94079 0.0857041 -6.63658 -5.44033 5.57163 -0.228478 0.260572 -0.335748 0 0 0 0 0 0 0 0 0 
26.982 1 27 26.4326 -0.0539029 1.97647 -0.66523 1.03835 0.0385569 0.149034 -0.127828 0.331475 0 0 0 0 0 0 0 0 0 
26.982 1 28 24.3222 2.03672 1.99062 0.492558 -0.13873 1.03786 -0.330716 -0.610356 -0.0785749 0 0 0 0 0 0 0 0 0 
26.982 1 65 24.3178 4.01179 -0.0408166 2.06421 -1.71346 -1.02845 0.317197 -0.153846 -0.0840257 0 0 0 0 0 0 0 0 0 
26.982 1 67 26.2154 3.87161 2.13313 -4.07901 1.67585 -0.106991 0.694234 0.605338 -0.08602 0 0 0 0 0 0 0 0 0 
26.982 1 225 24.2508 -0.0470706 4.06358 -2.43742 -1.9086 -3.66669 -0.279749 0.145285 -0.226459 0 0 0 0 0 0 0 0 0 
26.982 1 226 26.2983 1.7431 4.00234 0.0996028 0.230173 3.99905 0.375632 0.560677 0.401033 0 0 0 0 0 0 0 0 0 
26.982 1 265 24.3151 3.85828 4.07669 -1.90584 -2.61305 -0.223689 0.48103 0.901257 0.0662989 0 0 0 0 0 0 0 0 0 
26.982 1 30 30.4267 2.00779 -0.0310164 1.93971 7.3758 -4.9918 0.0298616 -0.0274984 -0.0928025 0 0 0 0 0 0 0 0 0 
26.982 1 32 28.4424 1.98288 2.06713 0.868449 3.35567 2.70063 -0.145528 -0.0379324 -0.0768261 0 0 0 0 0 0 0 0 0 
26.982 1 69 28.2986 4.02741 0.0640368 -0.533718 0.850889 -0.0103082 0.460019 -0.403769 -0.220373 0 0 0 0 0 0 0 0 0 
26.982 1 71 30.4355 4.00863 1.91631 1.35757 -1.77952 -2.10926 0.0342027 0.0528731 0.263093 0 0 0 0 0 0 0 0 0 
26.982 1 230 30.4418 1.90165 3.96305 6.11842 2.08688 8.03613 0.227316 0.549586 0.284993 0 0 0 0 0 0 0 0 0 
26.982 1 269 28.4956 3.92743 4.13627 4.40132 3.75934 -0.566593 -0.37293 0.243053 -0.493381 0 0 0 0 0 0 0 0 0 
26.982 1 35 34.529 -0.0547875 1.85837 5.39532 4.76389 -4.56941 -0.0177248 -0.132406 0.0950319 0 0 0 0 0 0 0 0 0 
26.982 1 36 32.4629 2.06868 1.84335 0.107978 3.86687 0.510556 0.236365 0.0548554 0.25614 0 0 0 0 0 0 0 0 0 
26.982 1 73 32.4575 4.06517 -0.0735923 4.34557 2.15465 -2.64693 0.125622 -0.127521 -0.00214565 0 0 0 0 0 0 0 0 0 
26.982 1 75 34.4277 4.07706 1.88102 -2.17655 5.57425 -0.468427 -0.128991 -0.422645 0.28331 0 0 0 0 0 0 0 0 0 
26.982 1 234 34.5933 2.03331 3.8819 0.394587 -1.75336 0.0686784 -0.336827 -0.118139 0.209267 0 0 0 0 0 0 0 0 0 
26.982 1 273 32.458 4.06844 4.07345 -3.56306 0.491444 -3.38036 0.0673149 -0.263 -0.365062 0 0 0 0 0 0 0 0 0 
26.982 1 4 40.5741 1.95323 1.82461 2.11385 0.958017 -1.77347 0.206901 -0.264493 0.10891 0 0 0 0 0 0 0 0 0 
26.982 1 40 36.5008 2.01075 1.80956 -1.71648 -1.73494 -4.05787 0.169593 -0.122201 0.0607313 0 0 0 0 0 0 0 0 0 
26.982 1 79 38.4027 4.0512 1.90066 -6.50471 1.21937 -0.436064 0.602227 -0.102945 0.062639 0 0 0 0 0 0 0 0 0 
26.982 1 237 36.5186 -0.0158293 3.87521 4.36726 -2.77972 -0.852422 0.167839 -0.150552 0.089696 0 0 0 0 0 0 0 0 0 
26.982 1 238 38.6842 1.95577 3.82792 -3.04336 1.94893 -2.59019 -0.326708 0.0748702 0.228699 0 0 0 0 0 0 0 0 0 
26.982 1 277 36.5914 3.95389 3.98079 -0.720782 1.01421 3.61665 -0.0687029 0.0357047 0.0906582 0 0 0 0 0 0 0 0 0 
26.982 1 42 1.82887 6.02374 0.0406035 -2.2685 -2.10371 0.827394 -0.112335 0.0730937 -0.434058 0 0 0 0 0 0 0 0 0 
26.982 1 48 4.03506 5.87519 2.00322 3.57109 3.28571 -5.30934 -0.572519 0.240535 -0.172982 0 0 0 0 0 0 0 0 0 
26.982 1 81 -0.140388 8.15585 -0.173448 3.55035 0.286615 3.95307 -0.172441 -0.530051 0.285853 0 0 0 0 0 0 0 0 0 
26.982 1 83 1.60687 7.91766 2.08139 -5.00856 -1.97233 -1.80153 0.777167 -0.405166 -0.226408 0 0 0 0 0 0 0 0 0 
26.982 1 85 3.76721 7.93266 -0.0854891 -1.20691 -0.385612 -2.95859 0.575326 0.0368496 0.285037 0 0 0 0 0 0 0 0 0 
26.982 1 242 1.96575 5.77522 4.11263 0.0757113 -0.888074 4.57461 -0.198498 0.380617 -0.631559 0 0 0 0 0 0 0 0 0 
26.982 1 285 3.85386 7.93125 4.02019 5.42122 0.742011 3.53567 0.0399084 0.0670985 -0.0769892 0 0 0 0 0 0 0 0 0 
26.982 1 46 6.0047 5.98752 -0.17274 0.727565 3.99411 6.89859 -0.399877 0.285258 -0.0386914 0 0 0 0 0 0 0 0 0 
26.982 1 52 8.01529 5.87099 1.75667 0.701039 -4.2268 1.80091 0.182909 0.486061 0.675133 0 0 0 0 0 0 0 0 0 
26.982 1 87 5.96802 7.9744 1.98056 1.18398 -0.204782 1.75937 -0.136075 0.175188 -0.155306 0 0 0 0 0 0 0 0 0 
26.982 1 89 7.92517 8.07396 -0.104509 -4.98779 1.52434 3.85999 0.0886019 -0.163807 0.131718 0 0 0 0 0 0 0 0 0 
26.982 1 246 5.94345 6.07334 3.92193 -0.0196147 2.40645 -0.0693693 0.257855 -0.0793287 0.310501 0 0 0 0 0 0 0 0 0 
26.982 1 289 8.00292 8.28412 4.22159 0.252931 -1.83587 3.00469 0.0734406 -0.801036 -0.675758 0 0 0 0 0 0 0 0 0 
26.982 1 92 7.87544 10.0083 2.05898 2.4168 -0.360671 -3.60635 -0.0518505 0.209119 -0.135917 0 0 0 0 0 0 0 0 0 
26.982 1 286 5.85544 9.99687 4.0856 1.59978 -7.84093 -2.9068 -0.133206 0.317935 -0.553399 0 0 0 0 0 0 0 0 0 
26.982 1 50 10.0172 6.05308 -0.195274 5.73727 -7.32946 -0.889687 0.218577 0.128952 0.145003 0 0 0 0 0 0 0 0 0 
26.982 1 56 12.0256 6.30501 1.94174 -1.28001 -1.55377 -1.35206 -0.177088 -0.550274 0.00485722 0 0 0 0 0 0 0 0 0 
26.982 1 91 9.89246 8.18932 1.94692 1.46615 -8.30108 1.63399 0.145831 -0.547581 0.10172 0 0 0 0 0 0 0 0 0 
26.982 1 250 9.98569 6.02102 4.00004 -0.429069 3.91433 1.44353 0.0709238 0.226704 -0.156803 0 0 0 0 0 0 0 0 0 
26.982 1 293 12.0388 8.22482 3.95891 -2.99991 0.429019 -0.866809 0.134455 -0.756614 -0.0460572 0 0 0 0 0 0 0 0 0 
26.982 1 54 14.0579 5.97418 -0.0376995 0.486944 -1.45302 4.12024 0.217523 0.326441 -0.233754 0 0 0 0 0 0 0 0 0 
26.982 1 60 16.0897 6.03102 1.96738 2.63356 6.7375 1.16685 0.232684 -0.0671281 0.169185 0 0 0 0 0 0 0 0 0 
26.982 1 95 14.1432 8.03228 1.77781 -1.51003 2.28324 -1.0863 -0.335326 0.371493 0.581619 0 0 0 0 0 0 0 0 0 
26.982 1 97 16.2268 7.99704 0.0836332 -5.45886 -0.633536 1.78202 -0.13508 0.313074 -0.66662 0 0 0 0 0 0 0 0 0 
26.982 1 254 13.9895 6.16397 3.86401 -0.654073 -0.00293774 0.281165 0.157766 -0.00204078 0.380436 0 0 0 0 0 0 0 0 0 
26.982 1 297 16.1313 8.06454 3.92641 0.0227714 -8.97346 2.55767 -0.20408 0.0421497 0.195565 0 0 0 0 0 0 0 0 0 
26.982 1 58 18.1159 6.01612 -0.0584863 1.31354 -0.578656 3.0096 0.261536 0.263597 0.289521 0 0 0 0 0 0 0 0 0 
26.982 1 62 22.4141 5.95751 -0.15096 1.46938 2.19513 -1.29346 -0.431047 0.397533 0.261843 0 0 0 0 0 0 0 0 0 
26.982 1 64 20.2486 6.02035 1.93585 2.40289 -4.81507 -4.44442 -0.0500493 0.112376 -0.0573547 0 0 0 0 0 0 0 0 0 
26.982 1 99 18.1254 8.14403 2.08465 -1.04754 -1.40945 2.20358 0.594931 -0.261001 -0.394575 0 0 0 0 0 0 0 0 0 
26.982 1 103 22.3007 8.11152 2.0027 0.533526 0.446532 -6.75366 0.0505394 -0.156652 -0.527123 0 0 0 0 0 0 0 0 0 
26.982 1 258 18.2282 6.03251 3.93608 3.33522 -2.76658 5.17565 -0.0484474 -0.0988661 -0.111831 0 0 0 0 0 0 0 0 0 
26.982 1 262 22.2797 6.04322 3.99034 0.0241711 2.92817 1.47162 0.26613 -0.201728 -0.183765 0 0 0 0 0 0 0 0 0 
26.982 1 301 20.3182 8.08427 3.8652 0.970389 -6.34568 4.55829 -0.230378 0.0309334 0.417955 0 0 0 0 0 0 0 0 0 
26.982 1 298 18.4836 10.1348 4.07119 -2.55349 1.79338 -3.99358 -0.847047 -0.0576242 -0.0691845 0 0 0 0 0 0 0 0 0 
26.982 1 66 26.4942 5.96139 -0.0664373 4.5975 -7.17977 6.76908 -0.443335 0.426373 0.56298 0 0 0 0 0 0 0 0 0 
26.982 1 68 24.3293 6.02806 2.05292 -0.343215 0.509939 -3.95901 0.105348 -0.0385644 -0.242602 0 0 0 0 0 0 0 0 0 
26.982 1 107 26.3925 8.13037 2.05575 -1.72678 2.4909 -1.75696 -0.168686 -0.0995497 -0.499675 0 0 0 0 0 0 0 0 0 
26.982 1 266 26.2612 6.10359 4.11498 -5.92645 0.685806 4.52857 0.336082 -0.345132 -0.169184 0 0 0 0 0 0 0 0 0 
26.982 1 305 24.2359 8.11218 3.89766 -0.0236982 3.9299 1.33727 0.248597 0.225596 0.526662 0 0 0 0 0 0 0 0 0 
26.982 1 106 26.5202 10.1131 -0.202864 4.2109 -2.10969 -0.947691 -0.276844 -0.00930049 0.879764 0 0 0 0 0 0 0 0 0 
26.982 1 108 24.2789 10.1793 1.88169 -2.23823 -1.70723 9.05364 0.354883 -0.122084 0.230996 0 0 0 0 0 0 0 0 0 
26.982 1 306 26.2816 10.1647 4.06677 -3.44943 -2.12879 -2.50774 0.238732 0.137951 -0.155515 0 0 0 0 0 0 0 0 0 
26.982 1 70 30.5037 6.06754 -0.078921 -3.20808 8.79078 -0.505846 -0.177341 -0.319563 0.509003 0 0 0 0 0 0 0 0 0 
26.982 1 72 28.3299 5.87487 2.04177 -4.82632 1.44986 1.27471 -0.248325 0.315775 0.0933245 0 0 0 0 0 0 0 0 0 
26.982 1 111 30.1747 8.05764 1.93718 0.266406 1.75795 2.10457 0.671937 0.0210367 -0.0371536 0 0 0 0 0 0 0 0 0 
26.982 1 270 30.3487 6.07713 3.87721 -8.17062 1.26113 -3.1226 -0.113539 -0.220394 0.608417 0 0 0 0 0 0 0 0 0 
26.982 1 309 28.309 8.12361 3.97265 -0.408428 1.36305 1.80462 -0.0259853 -0.252912 0.392404 0 0 0 0 0 0 0 0 0 
26.982 1 112 28.4124 10.1491 1.95475 2.71715 -0.253719 -0.498202 -0.388254 0.147105 -0.0857746 0 0 0 0 0 0 0 0 0 
26.982 1 76 32.3914 6.07558 2.18376 1.33953 6.15872 -2.14469 0.193555 -0.220254 -0.827248 0 0 0 0 0 0 0 0 0 
26.982 1 115 34.4231 8.03117 1.95675 -3.26208 -0.92643 -0.235081 0.1701 0.178342 0.111473 0 0 0 0 0 0 0 0 0 
26.982 1 274 34.5395 6.18785 4.03098 0.460675 0.843996 1.14923 -0.394487 -0.507535 -0.0170594 0 0 0 0 0 0 0 0 0 
26.982 1 313 32.2304 8.12296 3.85163 -0.641906 0.287823 2.35727 0.505162 -0.0487567 0.45339 0 0 0 0 0 0 0 0 0 
26.982 1 114 34.4258 10.1271 0.0915184 -2.56111 -3.94115 6.97867 0.421557 -0.297891 -0.0477724 0 0 0 0 0 0 0 0 0 
26.982 1 116 32.3951 10.1542 1.99272 -0.285219 -1.90753 -0.693302 0.0396335 -0.368363 -0.112334 0 0 0 0 0 0 0 0 0 
26.982 1 44 40.5237 5.86415 1.84585 5.6512 0.557799 1.23999 0.121465 0.297109 0.338271 0 0 0 0 0 0 0 0 0 
26.982 1 281 40.5745 7.99701 3.93198 4.12902 -1.79744 5.10386 -0.358339 -0.390154 0.3966 0 0 0 0 0 0 0 0 0 
26.982 1 78 38.622 6.13247 -0.191121 -6.43529 -3.80267 -1.01643 0.159309 -0.478749 0.247359 0 0 0 0 0 0 0 0 0 
26.982 1 80 36.3571 5.8412 1.94303 -6.23456 0.44376 4.85174 0.612752 0.801318 0.173539 0 0 0 0 0 0 0 0 0 
26.982 1 117 36.647 7.99963 0.0352864 -0.801641 -1.62252 2.6985 -0.540403 0.426843 0.109308 0 0 0 0 0 0 0 0 0 
26.982 1 119 38.4699 7.92243 1.97894 1.24778 -0.220787 -2.37101 0.410964 0.319148 -0.0659636 0 0 0 0 0 0 0 0 0 
26.982 1 278 38.5208 6.11042 4.00526 -3.50783 -0.385126 5.74125 0.334068 -0.76649 -0.10802 0 0 0 0 0 0 0 0 0 
26.982 1 317 36.5792 8.00555 4.05447 1.55072 0.210126 5.76216 -0.283363 0.628395 -0.0469493 0 0 0 0 0 0 0 0 0 
26.982 1 120 36.5117 10.0258 2.05022 -1.7648 2.20788 -3.78448 0.309039 0.304871 -0.111466 0 0 0 0 0 0 0 0 0 
26.982 1 318 38.6449 10.087 4.00414 1.62346 2.74552 1.06071 -0.347527 -0.0638725 -0.0153056 0 0 0 0 0 0 0 0 0 
26.982 1 88 3.66412 9.82754 1.97962 7.90205 -1.60154 -0.710413 0.904278 0.377081 0.534693 0 0 0 0 0 0 0 0 0 
26.982 1 122 1.89864 14.0886 -0.0996089 -3.09344 0.388516 3.86708 0.13844 -0.217029 -0.0374174 0 0 0 0 0 0 0 0 0 
26.982 1 123 1.8678 12.019 1.94305 0.0233146 -3.81354 1.89541 0.084527 -0.0162892 0.290936 0 0 0 0 0 0 0 0 0 
26.982 1 125 3.84833 11.9598 -0.01538 2.82816 -2.11445 -5.02389 0.146696 0.50087 0.0266052 0 0 0 0 0 0 0 0 0 
26.982 1 128 3.90658 14.0508 2.11345 6.57528 1.0208 0.407419 -0.422048 -0.0453197 -0.531499 0 0 0 0 0 0 0 0 0 
26.982 1 282 1.60782 9.93784 4.04597 -1.53314 -3.80227 0.89542 0.847308 0.389485 -0.161153 0 0 0 0 0 0 0 0 0 
26.982 1 322 1.72369 14.1039 4.04723 -1.33186 -4.75973 0.675846 -0.277768 -0.398314 -0.0810497 0 0 0 0 0 0 0 0 0 
26.982 1 325 3.92869 12.0524 4.0412 6.89273 0.525331 3.64163 -0.402207 -0.471249 -0.411874 0 0 0 0 0 0 0 0 0 
26.982 1 126 5.70689 14.2101 -0.111327 4.19813 0.351769 -0.75964 0.545433 -0.261152 0.0568845 0 0 0 0 0 0 0 0 0 
26.982 1 127 6.03937 12.2482 1.87528 -1.68242 1.47688 -1.55578 -0.443137 -0.553787 0.416041 0 0 0 0 0 0 0 0 0 
26.982 1 129 7.82665 12.2059 -0.0925058 0.0194357 -1.3113 -0.0445033 0.284717 0.0242211 -0.0808884 0 0 0 0 0 0 0 0 0 
26.982 1 132 8.01215 14.1625 2.08743 1.81184 2.88427 1.15608 -0.313793 -0.0709003 -0.605766 0 0 0 0 0 0 0 0 0 
26.982 1 326 5.82811 14.0269 3.99273 2.20553 2.97808 -0.980194 0.378086 0.26681 0.421568 0 0 0 0 0 0 0 0 0 
26.982 1 329 7.97196 12.0884 4.00514 -0.720199 2.47553 5.88146 -0.271082 -0.135507 -0.0543454 0 0 0 0 0 0 0 0 0 
26.982 1 96 12.0053 10.2098 1.95531 -1.34026 -1.40028 6.32354 0.32388 -0.219624 -0.0254337 0 0 0 0 0 0 0 0 0 
26.982 1 130 9.97138 14.1795 0.0800944 1.14173 -4.63745 1.90853 0.0889734 -0.118942 -0.268899 0 0 0 0 0 0 0 0 0 
26.982 1 131 9.7354 12.0132 1.8457 -2.13432 -2.34096 2.03037 0.666167 0.255884 0.45103 0 0 0 0 0 0 0 0 0 
26.982 1 133 12.0804 12.0961 -0.0228054 0.53489 0.193339 5.04566 -0.104252 0.413086 0.0439968 0 0 0 0 0 0 0 0 0 
26.982 1 136 12.0241 14.1533 2.01469 -1.64732 2.52158 -0.686901 -0.168056 -0.45178 -0.289566 0 0 0 0 0 0 0 0 0 
26.982 1 290 10.1741 10.0497 4.01131 5.54345 2.38369 4.19417 -0.800254 0.417975 0.153001 0 0 0 0 0 0 0 0 0 
26.982 1 330 9.99551 14.1296 3.93796 0.0147519 -4.58783 -2.12141 0.151571 -0.50409 0.0649269 0 0 0 0 0 0 0 0 0 
26.982 1 333 12.0832 12.022 4.00743 -4.02908 2.16378 -2.62277 -0.0938454 0.308737 0.0758118 0 0 0 0 0 0 0 0 0 
26.982 1 100 16.1077 9.99413 2.06105 -1.59134 1.08598 -3.41504 0.0861387 0.746833 -0.0768285 0 0 0 0 0 0 0 0 0 
26.982 1 135 14.091 12.2855 2.00936 1.26486 0.684124 2.05098 0.310664 -0.377715 0.0161907 0 0 0 0 0 0 0 0 0 
26.982 1 140 16.2719 14.1574 1.95871 -1.22931 -1.15337 -2.11837 -0.442514 0.154159 0.0347248 0 0 0 0 0 0 0 0 0 
26.982 1 294 14.0729 9.99317 4.03384 0.0406665 1.38958 2.85199 0.234031 0.45904 -0.135774 0 0 0 0 0 0 0 0 0 
26.982 1 334 14.0958 14.2523 4.00534 1.24527 4.07453 -0.51692 0.195407 -0.544786 0.056475 0 0 0 0 0 0 0 0 0 
26.982 1 337 16.2399 12.0481 4.14361 -0.657506 -1.44345 0.509587 -0.130855 -0.168005 -0.638165 0 0 0 0 0 0 0 0 0 
26.982 1 104 20.3444 10.0425 1.91013 -3.39676 0.992589 4.6226 -0.18437 0.115224 -0.257227 0 0 0 0 0 0 0 0 0 
26.982 1 139 18.1468 12.0846 2.01049 1.15945 3.24478 -0.220068 0.310767 -0.0940141 -0.0374518 0 0 0 0 0 0 0 0 0 
26.982 1 143 22.2089 12.1074 1.89266 2.25636 2.56972 2.94331 0.592449 -0.455426 0.329559 0 0 0 0 0 0 0 0 0 
26.982 1 144 20.3862 14.0872 1.94225 -1.79838 4.19498 2.19435 -0.445333 0.423581 0.0380426 0 0 0 0 0 0 0 0 0 
26.982 1 302 22.2854 10.2865 4.04988 -0.654535 0.240337 -2.38767 0.0748486 -0.180034 -0.175346 0 0 0 0 0 0 0 0 0 
26.982 1 338 18.2128 14.1888 3.93176 -4.95677 -0.697829 0.898063 0.24243 -0.0103597 0.085139 0 0 0 0 0 0 0 0 0 
26.982 1 341 20.2023 12.2012 3.89195 -2.4437 2.15636 2.84902 0.310851 -0.0781256 0.227003 0 0 0 0 0 0 0 0 0 
26.982 1 342 22.499 14.0316 3.87255 -3.35531 0.168418 -2.19808 -0.806172 0.709996 0.366664 0 0 0 0 0 0 0 0 0 
26.982 1 147 26.3953 12.2117 1.96507 -2.15003 -0.841854 -0.163381 0.223494 -0.321801 0.099739 0 0 0 0 0 0 0 0 0 
26.982 1 148 24.384 14.0367 1.92768 0.270654 1.12176 -7.73429 -0.170542 0.490132 0.0290125 0 0 0 0 0 0 0 0 0 
26.982 1 345 24.3666 12.246 4.02505 1.4711 1.67924 -4.91872 0.521227 -0.396038 -0.098209 0 0 0 0 0 0 0 0 0 
26.982 1 346 26.3754 14.4337 4.00892 1.43763 -0.678912 1.57183 0.0718802 -0.990708 0.460914 0 0 0 0 0 0 0 0 0 
26.982 1 110 30.3879 10.093 -0.152422 0.348699 -0.538381 -4.33417 0.177278 -0.0301264 0.0404547 0 0 0 0 0 0 0 0 0 
26.982 1 149 28.4959 12.1363 -0.0670252 -0.617547 2.90842 0.657326 -0.120182 -0.0309969 0.0806486 0 0 0 0 0 0 0 0 0 
26.982 1 150 30.4418 14.1347 0.0177144 -0.420957 -1.96869 4.28216 0.14205 -0.22062 0.0451449 0 0 0 0 0 0 0 0 0 
26.982 1 151 30.509 12.0752 1.97897 3.23183 -3.52687 4.46525 -0.324367 0.385228 -0.123915 0 0 0 0 0 0 0 0 0 
26.982 1 152 28.4008 14.3488 1.89436 0.198971 -1.3808 5.47875 0.111739 -0.773986 0.306178 0 0 0 0 0 0 0 0 0 
26.982 1 310 30.3099 10.03 3.95125 -0.429868 -4.77764 -3.16429 0.0675827 0.234495 0.116692 0 0 0 0 0 0 0 0 0 
26.982 1 349 28.4305 12.2266 3.94716 2.08228 -0.0968853 -1.14872 -0.44698 -0.0656411 -0.00669388 0 0 0 0 0 0 0 0 0 
26.982 1 350 30.4368 14.1022 3.96623 0.175115 -2.00339 3.7243 0.204862 0.41586 -0.1601 0 0 0 0 0 0 0 0 0 
26.982 1 153 32.4784 12.0444 -0.0257163 -0.0582055 0.251733 -0.542441 -0.635354 0.329382 0.225824 0 0 0 0 0 0 0 0 0 
26.982 1 155 34.6038 12.1381 2.10606 -0.355593 -1.64893 1.43233 -0.0817322 0.0619534 -0.0782284 0 0 0 0 0 0 0 0 0 
26.982 1 156 32.5598 14.1525 2.02689 -0.524166 -1.12852 -0.397844 -0.53903 -0.228684 0.305838 0 0 0 0 0 0 0 0 0 
26.982 1 314 34.4552 10.0819 3.92207 -0.520034 -4.70452 -1.40051 0.175623 -0.0472018 0.229644 0 0 0 0 0 0 0 0 0 
26.982 1 353 32.3899 12.069 4.06537 0.823077 -2.09886 0.196316 0.34066 0.40224 -0.311794 0 0 0 0 0 0 0 0 0 
26.982 1 354 34.6039 14.1434 4.0839 4.75013 3.15972 0.396543 -0.107182 0.0404851 -0.0207613 0 0 0 0 0 0 0 0 0 
26.982 1 84 40.6516 9.96186 1.90806 -4.46307 -6.92458 0.146472 -0.53285 0.394383 0.111637 0 0 0 0 0 0 0 0 0 
26.982 1 124 40.8025 14.0215 1.90496 3.67599 2.81015 -0.518105 -0.495986 0.243227 0.466008 0 0 0 0 0 0 0 0 0 
26.982 1 321 40.7245 11.9668 4.03802 3.55053 3.54667 0.0491486 -0.462038 0.692025 -0.240142 0 0 0 0 0 0 0 0 0 
26.982 1 158 38.8158 13.9993 -0.00309547 -2.99332 -4.07735 -10.4692 -0.507347 0.75864 0.274224 0 0 0 0 0 0 0 0 0 
26.982 1 159 38.5491 12.2458 2.09933 -1.70441 1.74632 3.91583 0.0655648 -0.555014 -0.0627775 0 0 0 0 0 0 0 0 0 
26.982 1 160 36.6157 14.2164 1.92218 -4.61198 -0.182784 0.535426 -0.156058 -0.151481 0.14596 0 0 0 0 0 0 0 0 0 
26.982 1 357 36.5697 12.1776 4.25764 -6.73686 -0.781936 1.73954 0.267872 -0.0343379 -0.731805 0 0 0 0 0 0 0 0 0 
26.982 1 358 38.6469 14.2788 4.14589 -3.49034 -1.23863 -0.782858 0.059211 -0.363456 -0.417045 0 0 0 0 0 0 0 0 0 
26.982 1 163 1.86476 16.1062 1.84567 -4.60317 5.26529 2.29129 -0.0911813 0.22624 0.432165 0 0 0 0 0 0 0 0 0 
26.982 1 164 -0.164905 18.2238 2.05911 -1.10274 3.18597 1.5511 -0.01157 0.139013 -0.425781 0 0 0 0 0 0 0 0 0 
26.982 1 165 3.85893 16.2056 -0.000771565 -2.66485 5.04022 4.60288 -0.0753387 0.102883 -0.303143 0 0 0 0 0 0 0 0 0 
26.982 1 168 3.85225 18.1466 1.93743 2.63548 1.68679 1.68537 0.209214 -0.0608308 0.418782 0 0 0 0 0 0 0 0 0 
26.982 1 361 -0.213704 16.286 3.98043 -0.433519 -0.237823 -5.99269 0.242432 -0.603026 0.178322 0 0 0 0 0 0 0 0 0 
26.982 1 362 1.73342 18.2362 4.07368 -0.252829 -3.19997 -0.155449 0.0583239 -0.0997643 -0.117885 0 0 0 0 0 0 0 0 0 
26.982 1 365 3.48502 16.0245 4.0096 2.09664 3.26499 -0.529617 1.19487 0.48113 -0.122706 0 0 0 0 0 0 0 0 0 
26.982 1 2201 -0.40125 20.2892 4.05271 -0.709529 -0.59347 -3.37736 0.57763 -0.305278 0.0332534 0 0 0 0 0 0 0 0 0 
26.982 1 166 5.97088 18.1423 0.0666057 -6.05504 -1.16584 -1.20136 -0.0927728 0.0519259 -0.481441 0 0 0 0 0 0 0 0 0 
26.982 1 167 5.88064 16.0311 2.08996 2.686 3.48102 -2.96819 -0.187735 0.194271 -0.274733 0 0 0 0 0 0 0 0 0 
26.982 1 169 8.01723 16.1703 -0.048702 0.498029 -4.6346 1.71161 -0.395534 -0.168176 0.154185 0 0 0 0 0 0 0 0 0 
26.982 1 172 7.8458 18.1252 2.00774 -2.57626 0.48585 -0.855251 0.485115 0.203068 -0.0808636 0 0 0 0 0 0 0 0 0 
26.982 1 366 5.93303 18.1114 3.96965 -4.73664 4.03425 -0.0272935 -0.346743 -0.0240164 0.303836 0 0 0 0 0 0 0 0 0 
26.982 1 369 7.94825 16.1229 3.90074 -1.46798 2.41966 1.36325 -0.265966 0.253008 0.724371 0 0 0 0 0 0 0 0 0 
26.982 1 170 9.88673 18.1759 -0.123736 -0.358307 -2.97054 -3.99566 0.22563 -0.0463256 0.533024 0 0 0 0 0 0 0 0 0 
26.982 1 171 10.0223 16.1791 2.15467 -6.27974 -2.11001 4.13677 -0.155536 0.263383 -0.708658 0 0 0 0 0 0 0 0 0 
26.982 1 173 11.9218 16.2703 0.0106166 -1.7213 -4.93611 1.42222 0.0603208 -0.240632 -0.143111 0 0 0 0 0 0 0 0 0 
26.982 1 176 11.9842 18.2688 1.96929 -0.971493 -0.209717 5.96403 0.044978 -0.225942 0.295867 0 0 0 0 0 0 0 0 0 
26.982 1 370 9.9802 18.217 4.00558 -0.519034 2.97644 0.951759 -0.156823 -0.076337 -0.0246252 0 0 0 0 0 0 0 0 0 
26.982 1 373 12.0889 16.1168 3.86045 2.58487 -3.1557 0.670808 0.033442 0.545802 0.808098 0 0 0 0 0 0 0 0 0 
26.982 1 2013 12.0781 20.269 0.186994 2.22385 -2.75995 -1.15921 -0.269707 -0.0401879 -0.652865 0 0 0 0 0 0 0 0 0 
26.982 1 2213 11.8743 20.2235 4.04072 4.07457 -2.72999 3.5063 0.899804 -0.225118 -0.0420118 0 0 0 0 0 0 0 0 0 
26.982 1 175 13.9974 16.0939 1.97012 3.21771 3.24569 3.42528 0.585122 0.406946 -0.0603145 0 0 0 0 0 0 0 0 0 
26.982 1 177 16.0596 16.236 -0.124508 0.486164 4.15417 1.98921 0.199285 -0.164532 0.615299 0 0 0 0 0 0 0 0 0 
26.982 1 180 16.1638 18.0917 2.12159 3.32679 -3.09762 1.81884 -0.155065 0.24048 -0.260143 0 0 0 0 0 0 0 0 0 
26.982 1 374 14.1656 18.2262 4.00698 3.54594 1.63136 0.803458 -0.284698 -0.214675 0.0902631 0 0 0 0 0 0 0 0 0 
26.982 1 377 16.1907 16.0362 4.07985 -5.82497 4.65107 -6.14508 0.0365496 0.510997 -0.293721 0 0 0 0 0 0 0 0 0 
26.982 1 2015 14.1745 20.1292 1.9192 -3.98416 2.30564 -0.994585 -0.473637 0.131413 0.600647 0 0 0 0 0 0 0 0 0 
26.982 1 178 18.1141 18.1538 0.019284 2.57779 0.411424 2.0966 -0.0011042 0.146484 -0.0419237 0 0 0 0 0 0 0 0 0 
26.982 1 179 18.2392 16.3169 2.00015 3.19207 -0.992454 4.71447 -0.0953223 -0.631492 0.0320291 0 0 0 0 0 0 0 0 0 
26.982 1 183 22.1983 16.3224 2.02683 1.87582 -1.25366 5.18229 0.414508 -0.317564 -0.202791 0 0 0 0 0 0 0 0 0 
26.982 1 184 20.1114 18.3447 2.06052 -0.844832 1.312 -8.55082 0.558708 0.0199109 -0.278763 0 0 0 0 0 0 0 0 0 
26.982 1 378 18.2288 18.2079 4.07862 -0.20032 0.0408893 5.89177 -0.252282 0.170281 -0.216935 0 0 0 0 0 0 0 0 0 
26.982 1 381 20.3043 16.1577 3.93815 -0.825448 0.661419 -2.73476 -0.128085 -0.0966444 0.251313 0 0 0 0 0 0 0 0 0 
26.982 1 382 22.1936 18.2401 4.1265 2.35725 3.50101 2.9103 0.430427 -0.0128135 -0.53604 0 0 0 0 0 0 0 0 0 
26.982 1 2023 22.3664 20.3448 2.043 5.0953 -6.35676 0.21065 -0.327099 -0.628044 -0.160623 0 0 0 0 0 0 0 0 0 
26.982 1 2221 20.2919 20.2101 4.17578 4.33465 -2.56093 -3.48038 -0.224966 0.250682 -0.311754 0 0 0 0 0 0 0 0 0 
26.982 1 186 26.3571 18.2636 -0.108673 5.30375 2.1406 0.894746 -0.137271 -0.250161 0.265143 0 0 0 0 0 0 0 0 0 
26.982 1 187 26.3067 16.1102 2.01461 3.43437 -1.63962 -1.85262 -0.131745 0.628394 -0.438983 0 0 0 0 0 0 0 0 0 
26.982 1 188 24.3804 18.1519 2.0258 4.21537 1.2792 2.44543 -0.276293 -0.160124 -0.146794 0 0 0 0 0 0 0 0 0 
26.982 1 385 24.2308 16.1545 4.0964 -1.05536 1.90459 -2.85539 0.201914 0.0807019 -0.224066 0 0 0 0 0 0 0 0 0 
26.982 1 386 26.364 18.2077 4.01008 0.564458 -2.88945 -6.83714 0.0685876 -0.389793 0.0444945 0 0 0 0 0 0 0 0 0 
26.982 1 2225 24.3966 20.1655 3.93428 0.836791 -2.2344 0.963161 -0.476347 0.185083 0.469553 0 0 0 0 0 0 0 0 0 
26.982 1 191 30.4849 16.3192 1.8459 -4.80895 -4.12412 2.63973 -0.0301649 -0.678618 0.777333 0 0 0 0 0 0 0 0 0 
26.982 1 192 28.3876 18.218 2.07413 -2.526 -5.09795 0.216221 0.00668081 0.171958 -0.363487 0 0 0 0 0 0 0 0 0 
26.982 1 389 28.534 16.1174 4.0214 0.927292 0.639202 -0.0933775 -0.0124227 0.512246 0.0822323 0 0 0 0 0 0 0 0 0 
26.982 1 390 30.5596 18.1842 3.911 1.95475 -3.85148 0.671292 -0.212643 -0.298112 0.4154 0 0 0 0 0 0 0 0 0 
26.982 1 193 32.4297 16.1377 -0.024569 1.16303 2.8322 -3.93431 0.216269 0.247322 -0.240457 0 0 0 0 0 0 0 0 0 
26.982 1 195 34.4184 16.1797 1.94241 -2.76391 -0.984949 4.53183 0.461104 0.0448397 0.107489 0 0 0 0 0 0 0 0 0 
26.982 1 196 32.5907 18.229 2.02099 3.13864 -2.31975 0.0330768 0.0564782 0.037724 0.0604944 0 0 0 0 0 0 0 0 0 
26.982 1 393 32.5672 16.0793 4.03188 -3.98315 0.158171 4.3809 -0.26858 0.147573 -0.106381 0 0 0 0 0 0 0 0 0 
26.982 1 394 34.6174 18.3363 4.13064 -2.94901 0.949165 4.17912 -0.173268 -0.269676 -0.390489 0 0 0 0 0 0 0 0 0 
26.982 1 2035 34.6649 20.2045 1.95107 4.60625 5.39635 0.731679 -0.649444 -0.219804 0.432712 0 0 0 0 0 0 0 0 0 
26.982 1 199 38.5702 16.3211 2.03663 2.43992 1.51448 -4.93241 0.321026 -0.551986 -0.163374 0 0 0 0 0 0 0 0 0 
26.982 1 200 36.4905 18.1345 2.03651 -1.96633 0.57434 -0.101885 0.133514 0.356314 -0.132999 0 0 0 0 0 0 0 0 0 
26.982 1 397 36.5115 16.1782 3.98056 2.06046 3.52392 -0.493665 0.208799 -0.0101223 0.389973 0 0 0 0 0 0 0 0 0 
26.982 1 398 38.584 18.2329 4.0424 2.62188 2.11676 -0.188845 -0.128102 -0.0594636 0.240445 0 0 0 0 0 0 0 0 0 
26.982 1 2237 36.6246 20.3333 4.06878 5.02652 4.30566 -5.08366 -0.288984 -0.487717 -0.178428 0 0 0 0 0 0 0 0 0 
26.982 1 208 3.93002 1.99217 6.04153 2.17738 -2.16604 -3.6048 -0.011713 0.168186 0.167126 0 0 0 0 0 0 0 0 0 
26.982 1 243 1.84651 3.98206 6.0777 -1.00577 -3.58718 -0.166924 0.240128 -0.144431 0.112464 0 0 0 0 0 0 0 0 0 
26.982 1 402 1.88948 1.91147 7.98196 0.362579 -3.88758 0.572876 -0.0995547 0.193271 0.250586 0 0 0 0 0 0 0 0 0 
26.982 1 441 -0.114322 4.01133 7.99122 0.262241 2.99909 0.624724 -0.202105 -0.233261 0.241991 0 0 0 0 0 0 0 0 0 
26.982 1 445 3.87914 4.10181 8.18907 3.92229 0.641223 3.61732 0.184941 -0.420161 -0.124086 0 0 0 0 0 0 0 0 0 
26.982 1 408 3.82052 1.97131 10.2109 -3.0816 0.54795 3.53284 0.314681 -0.0135924 -0.436594 0 0 0 0 0 0 0 0 0 
26.982 1 212 8.10404 2.0218 5.89294 4.85062 -1.41156 -1.65463 -0.207179 -0.0719449 0.178463 0 0 0 0 0 0 0 0 0 
26.982 1 247 6.07634 4.10476 5.97045 5.21909 -0.0342901 1.06253 -0.319806 -0.301922 0.139615 0 0 0 0 0 0 0 0 0 
26.982 1 406 6.0454 2.05462 7.88321 4.14904 -0.26517 1.05261 -0.433784 0.53798 0.840474 0 0 0 0 0 0 0 0 0 
26.982 1 409 7.95136 0.125779 8.01553 -3.33783 4.56682 -3.09853 0.358998 -0.500442 0.0306772 0 0 0 0 0 0 0 0 0 
26.982 1 449 7.9421 4.11685 8.11638 4.29522 0.312097 -1.27124 0.18205 -0.248842 -1.13134 0 0 0 0 0 0 0 0 0 
26.982 1 412 8.09568 2.2893 9.96003 -1.89997 1.60595 -7.39342 -0.253744 -0.967935 0.397214 0 0 0 0 0 0 0 0 0 
26.982 1 447 6.06225 3.97498 10.1939 -1.01092 -4.42423 -5.33167 -0.681237 -0.163083 -0.272449 0 0 0 0 0 0 0 0 0 
26.982 1 211 10.1173 -0.0605489 6.02049 -0.99344 1.00886 -7.38869 -0.046352 -0.0655413 -0.102224 0 0 0 0 0 0 0 0 0 
26.982 1 216 12.156 1.9587 6.02037 -4.41944 -2.95092 0.277233 -0.305495 -0.0317785 0.37415 0 0 0 0 0 0 0 0 0 
26.982 1 251 10.0476 3.94378 6.0284 4.91399 1.3479 1.22813 0.0648466 0.389921 -0.0802601 0 0 0 0 0 0 0 0 0 