ITEM: TIMESTEP
13800
ITEM: NUMBER OF ATOMS
4000
ITEM: BOX BOUNDS pp pp pp
-2.87894 43.3789
0.756806 39.7432
0.775688 39.7243
ITEM: ATOMS mass type id x y z vx vy vz fx fy fz xrad yrad zrad vxrad vyrad vzrad fxrad fyrad fzrad 
26.982 1 43 -0.539733 4.55157 2.68372 3.86087 -0.224392 5.14844 -0.0127432 -0.0309402 0.431749 0 0 0 0 0 0 0 0 0 
26.982 1 202 -0.565153 2.51508 4.72227 -1.04336 -1.92426 2.78383 -0.140598 0.367471 -0.42657 0 0 0 0 0 0 0 0 0 
26.982 1 961 -3.04486 16.4039 16.2264 -2.87649 3.0197 -2.98604 0.282138 -0.259259 0.584143 0 0 0 0 0 0 0 0 0 
26.982 1 41 43.3998 4.45062 0.563488 -3.07355 0.041059 0.15644 -0.0179979 0.205917 0.0382196 0 0 0 0 0 0 0 0 0 
26.982 1 2839 40.948 20.1742 18.2686 2.37427 -6.38839 1.11512 0.379491 0.116838 0.00111109 0 0 0 0 0 0 0 0 0 
26.982 1 245 1.85666 4.37187 4.57295 4.08163 1.66743 -3.69118 -0.0849782 0.255435 0.0603462 0 0 0 0 0 0 0 0 0 
26.982 1 8 2.0459 2.49919 2.55318 -2.86694 -2.11447 -0.215046 -0.926937 0.66951 0.222969 0 0 0 0 0 0 0 0 0 
26.982 1 47 4.15108 4.58848 2.69589 -3.82554 -0.662625 -1.95002 0.0107532 -0.222207 0.0406594 0 0 0 0 0 0 0 0 0 
26.982 1 206 4.00543 2.48629 4.69551 -1.99818 5.3043 -2.29636 0.271475 0.657698 0.214651 0 0 0 0 0 0 0 0 0 
26.982 1 998 41.0312 18.2969 16.1973 -0.569321 -1.13726 -0.873681 0.213367 -0.0405946 0.230862 0 0 0 0 0 0 0 0 0 
26.982 1 2837 38.8456 20.1665 16.2352 1.52369 -3.03161 -10.7449 -0.304822 -0.011164 0.174797 0 0 0 0 0 0 0 0 0 
26.982 1 7 4.09977 0.848726 2.65567 -2.6605 9.08016 0.47256 0.390027 -1.04065 0.140126 0 0 0 0 0 0 0 0 0 
26.982 1 249 6.55775 4.68802 4.64042 8.37221 1.67702 2.69098 -0.922572 -0.107582 -0.108663 0 0 0 0 0 0 0 0 0 
26.982 1 12 6.38678 2.76918 2.53423 -5.94106 -1.21339 1.99075 0.0778248 -0.0121709 0.68453 0 0 0 0 0 0 0 0 0 
26.982 1 51 8.72059 4.84053 2.68373 0.554763 -4.17712 -2.59817 0.14047 -0.399962 -0.121834 0 0 0 0 0 0 0 0 0 
26.982 1 210 8.53101 2.89149 4.65078 -1.20115 -0.916089 -2.06836 0.272707 -0.638018 -0.541442 0 0 0 0 0 0 0 0 0 
26.982 1 2835 36.4583 20.1711 18.2809 -0.403447 2.69969 -1.13463 -0.0402739 -0.430985 -0.0972614 0 0 0 0 0 0 0 0 0 
26.982 1 2821 20.2143 20.3006 16.2443 1.635 1.60364 8.21087 0.495373 -0.104191 0.282108 0 0 0 0 0 0 0 0 0 
26.982 1 253 10.984 4.53339 4.82968 0.314107 0.745779 -0.142473 0.404473 0.128336 -0.075847 0 0 0 0 0 0 0 0 0 
26.982 1 16 10.8525 2.69132 2.72412 -5.11777 -0.0657346 -0.972792 0.442682 0.870379 -0.2693 0 0 0 0 0 0 0 0 0 
26.982 1 55 13.4637 4.6535 2.89327 -4.23948 3.51795 -3.00921 -0.0602773 -0.706818 0.224409 0 0 0 0 0 0 0 0 0 
26.982 1 214 13.2768 2.43486 4.81488 -0.113852 -1.0956 0.117499 -0.0445635 0.916541 -0.551059 0 0 0 0 0 0 0 0 0 
26.982 1 14 13.3435 2.97264 0.783981 0.996496 -2.50318 2.29848 -0.00106405 -0.748753 0.509155 0 0 0 0 0 0 0 0 0 
26.982 1 999 40.9112 16.2484 18.2771 -1.46818 -5.86966 -2.2851 0.289886 -0.359923 -0.829714 0 0 0 0 0 0 0 0 0 
26.982 1 20 15.7878 2.77736 2.60975 5.68031 4.89731 0.104539 -0.222829 -0.201863 0.103661 0 0 0 0 0 0 0 0 0 
26.982 1 257 15.8834 4.56027 4.63316 -1.45337 0.371901 -2.32524 -0.429112 0.572691 0.150148 0 0 0 0 0 0 0 0 0 
26.982 1 218 17.9272 2.74594 4.73053 -0.723265 -0.0236339 2.39175 0.429777 0.026128 -0.410148 0 0 0 0 0 0 0 0 0 
26.982 1 59 18.0966 4.68203 2.66179 1.60919 2.06075 -5.46127 -0.212191 0.000653379 0.510529 0 0 0 0 0 0 0 0 0 
26.982 1 24 20.3694 2.8881 2.85778 2.37703 -2.25967 -4.59356 -0.10907 -0.536079 -0.323446 0 0 0 0 0 0 0 0 0 
26.982 1 261 20.3293 4.71154 4.76229 -2.74514 -0.400332 -0.643122 -0.18366 0.0906234 0.297334 0 0 0 0 0 0 0 0 0 
26.982 1 63 22.5335 4.72027 2.51662 -3.97177 -3.01984 -4.92714 0.397631 0.125751 0.260533 0 0 0 0 0 0 0 0 0 
26.982 1 222 22.5742 3.04799 4.65724 2.74 0.702986 1.3461 0.193999 -0.866806 0.125782 0 0 0 0 0 0 0 0 0 
26.982 1 28 24.7995 2.84471 2.75723 -2.60105 1.83314 -1.91864 0.195268 -0.199058 -0.129975 0 0 0 0 0 0 0 0 0 
26.982 1 265 24.9293 4.79665 4.67688 -0.59936 -2.61754 -3.94068 0.0560474 0.0878992 -0.114825 0 0 0 0 0 0 0 0 0 
26.982 1 2813 11.1529 20.2625 16.5537 -1.5541 -1.63396 2.87429 -0.0559639 -0.0900773 -0.382652 0 0 0 0 0 0 0 0 0 
26.982 1 23 22.5971 0.718477 2.70035 -6.46504 -3.45198 -6.94742 0.185317 0.350956 0.660662 0 0 0 0 0 0 0 0 0 
26.982 1 2811 8.59483 20.3752 18.1329 0.536137 -1.90377 0.791703 0.281178 0.109958 0.552758 0 0 0 0 0 0 0 0 0 
26.982 1 67 27.409 4.80797 2.48349 -0.878178 -1.92449 -0.573513 -0.551316 -0.703131 0.46893 0 0 0 0 0 0 0 0 0 
26.982 1 226 27.143 2.79747 4.54332 -3.85543 -1.48688 -5.66344 0.215639 0.0678034 -0.02159 0 0 0 0 0 0 0 0 0 
26.982 1 32 29.6473 2.64241 2.84769 8.05547 5.23934 -1.98111 -0.218064 0.0856655 -0.804501 0 0 0 0 0 0 0 0 0 
26.982 1 269 29.5436 4.45956 4.7888 3.55709 4.29094 -0.0950705 0.0249784 0.660434 -0.256169 0 0 0 0 0 0 0 0 0 
26.982 1 2805 1.7785 20.3768 16.3214 0.273957 -0.312676 -5.96457 -0.229213 0.104969 -0.194632 0 0 0 0 0 0 0 0 0 
26.982 1 71 32.0683 4.72331 2.62288 -1.81232 -2.01777 -0.0234738 -0.291018 0.166452 -0.322684 0 0 0 0 0 0 0 0 0 
26.982 1 230 32.0385 2.75935 4.37092 -4.69932 1.67184 4.99531 -0.218145 -0.215752 0.888061 0 0 0 0 0 0 0 0 0 
26.982 1 273 34.1952 4.73786 4.50498 0.709692 -1.07163 5.66167 0.100383 0.276602 0.67051 0 0 0 0 0 0 0 0 0 
26.982 1 36 34.3 2.72307 2.67409 -8.21671 -3.80399 -1.91142 -0.119806 -0.210749 -0.026227 0 0 0 0 0 0 0 0 0 
26.982 1 233 34.2358 0.784766 4.66725 -0.717299 0.552361 2.24331 -0.224408 0.318465 0.157362 0 0 0 0 0 0 0 0 0 
26.982 1 75 36.4592 4.66396 2.89629 2.82368 -3.80611 3.87851 0.226548 -0.214257 -0.853953 0 0 0 0 0 0 0 0 0 
26.982 1 234 36.5775 2.75036 4.79395 2.59706 2.88668 0.368148 -0.378273 -0.0369626 0.0187814 0 0 0 0 0 0 0 0 0 
26.982 1 40 38.768 2.74178 2.59725 3.82287 0.868964 3.8133 -0.00612481 -0.374598 -0.321126 0 0 0 0 0 0 0 0 0 
26.982 1 277 38.7996 4.57135 4.52362 4.91049 -5.4687 5.63679 0.179821 -0.0289934 0.623532 0 0 0 0 0 0 0 0 0 
26.982 1 2803 -0.519648 20.3734 18.4572 6.25369 -2.00996 -1.39967 0.114254 -0.696954 0.185021 0 0 0 0 0 0 0 0 0 
26.982 1 237 38.8555 0.88964 4.7306 -0.0690048 -0.471928 1.45098 -0.174214 0.0301575 -0.206635 0 0 0 0 0 0 0 0 0 
26.982 1 4 43.2046 2.70429 2.72093 5.63213 -0.236056 0.217575 0.81505 0.251887 0.143669 0 0 0 0 0 0 0 0 0 
26.982 1 241 -2.73726 4.65323 4.78167 1.72921 1.1661 -1.09091 0.0224109 0.330624 -0.239557 0 0 0 0 0 0 0 0 0 
26.982 1 79 41.1479 4.6634 2.50718 0.213791 0.911397 -1.88982 -0.0745364 -0.216932 0.280899 0 0 0 0 0 0 0 0 0 
26.982 1 238 41.0141 2.7849 4.53914 -0.455722 -0.247278 0.951673 0.115262 0.268861 0.231654 0 0 0 0 0 0 0 0 0 
26.982 1 1000 38.8676 18.2775 18.2796 -0.554483 -4.19342 -7.28122 -0.683624 -0.244117 -0.585674 0 0 0 0 0 0 0 0 0 
26.982 1 997 38.8451 16.2066 16.2835 4.92862 4.02301 -3.3912 -0.185844 0.563257 0.543244 0 0 0 0 0 0 0 0 0 
26.982 1 38 41.176 2.33778 0.794169 -1.23997 -0.083449 -2.14458 -0.21473 0.491073 -0.761724 0 0 0 0 0 0 0 0 0 
26.982 1 83 -0.607741 8.2937 2.72437 4.30154 -4.38011 -1.60198 0.684075 0.084293 -0.440442 0 0 0 0 0 0 0 0 0 
26.982 1 242 -0.351062 6.51396 4.86514 -3.74827 5.82346 -5.8775 -0.185791 0.252908 -1.00587 0 0 0 0 0 0 0 0 0 
26.982 1 44 43.5166 6.54976 2.50396 1.51491 -1.3196 3.25034 -0.418422 -0.462751 0.10207 0 0 0 0 0 0 0 0 0 
26.982 1 637 38.923 0.781595 12.4144 3.97694 0.124364 1.516 -0.335449 -0.0706478 -0.255605 0 0 0 0 0 0 0 0 0 
26.982 1 48 1.95317 6.40511 2.71819 1.39225 3.50469 -0.708422 -0.381343 0.240905 -0.0577349 0 0 0 0 0 0 0 0 0 
26.982 1 285 2.09457 8.56012 4.47229 -5.39673 1.42879 -2.8429 -0.243675 0.0826681 -0.0372279 0 0 0 0 0 0 0 0 0 
26.982 1 87 4.39526 8.51149 2.69157 1.71192 -4.18587 -0.703414 -0.46358 0.403853 -0.0892834 0 0 0 0 0 0 0 0 0 
26.982 1 246 4.13005 6.54021 4.65301 2.08436 0.542641 1.40187 0.27763 -0.231796 0.0793792 0 0 0 0 0 0 0 0 0 
26.982 1 88 1.8523 10.5255 2.60173 -5.27674 1.20991 -3.14478 0.208611 -0.017744 -0.252545 0 0 0 0 0 0 0 0 0 
26.982 1 286 4.2626 10.6864 4.64608 0.307953 0.993871 3.7606 0.333983 -0.779247 0.420016 0 0 0 0 0 0 0 0 0 
26.982 1 629 29.5896 0.761683 12.4751 -3.90994 -0.251209 -2.31673 -0.238895 0.00792623 -0.150416 0 0 0 0 0 0 0 0 0 
26.982 1 289 6.6281 8.4153 4.90813 2.88674 -6.70221 1.5285 -0.0988219 0.0296242 -0.520042 0 0 0 0 0 0 0 0 0 
26.982 1 52 6.22392 6.52794 2.62379 -0.393203 0.626981 0.389518 0.558183 0.320174 0.643351 0 0 0 0 0 0 0 0 0 
26.982 1 91 8.79439 8.29662 2.80827 1.5887 0.995193 -1.07472 0.00872252 -0.370998 0.286031 0 0 0 0 0 0 0 0 0 
26.982 1 250 8.73484 6.32028 4.89458 3.83243 3.31067 -0.655488 0.284874 0.983854 -0.159761 0 0 0 0 0 0 0 0 0 
26.982 1 92 6.61909 10.2949 2.7365 -7.73621 -0.0473376 0.365167 -0.276054 0.233001 0.443611 0 0 0 0 0 0 0 0 0 
26.982 1 290 8.9055 10.569 4.5623 -1.38025 -3.94291 -1.31689 -0.0629795 -0.0639811 0.00751928 0 0 0 0 0 0 0 0 0 
26.982 1 625 24.8544 0.695803 12.505 -0.887359 3.63798 -1.47425 0.0529724 0.254622 -0.101608 0 0 0 0 0 0 0 0 0 
26.982 1 293 11.1332 8.50143 4.59495 2.42808 0.29687 0.151668 -0.0344482 0.0238162 -0.0517668 0 0 0 0 0 0 0 0 0 
26.982 1 56 11.052 6.46792 2.83405 -0.546595 -0.639961 3.72137 -0.100023 -0.188158 0.049843 0 0 0 0 0 0 0 0 0 
26.982 1 95 13.2887 8.49869 2.68572 0.281595 0.900068 8.48908 0.499966 0.190386 -0.00374659 0 0 0 0 0 0 0 0 0 
26.982 1 254 13.3762 6.58389 4.64669 -0.778461 -0.280314 -0.223731 0.137096 -0.207393 0.155297 0 0 0 0 0 0 0 0 0 
26.982 1 60 15.6489 6.65233 2.63453 -1.37704 6.19554 -3.87662 0.235989 0.0981302 0.284656 0 0 0 0 0 0 0 0 0 
26.982 1 297 15.6959 8.56329 4.65301 -7.16922 2.05006 -0.588888 0.11354 -0.443736 0.334913 0 0 0 0 0 0 0 0 0 
26.982 1 99 17.8495 8.62532 2.71748 -0.483675 -2.42702 -0.362815 0.162967 -0.375659 -0.26008 0 0 0 0 0 0 0 0 0 
26.982 1 258 18.215 6.66365 4.56791 -2.73608 1.02143 -1.41909 -0.39443 -0.118885 0.197828 0 0 0 0 0 0 0 0 0 
26.982 1 298 18.0878 10.2813 4.80719 -2.80327 2.62917 1.40985 -0.635744 0.686621 -0.635529 0 0 0 0 0 0 0 0 0 
26.982 1 621 20.3255 0.945351 12.3906 -2.29502 -3.34448 1.51722 -0.388636 -0.290493 0.19671 0 0 0 0 0 0 0 0 0 
26.982 1 64 20.3833 6.41522 2.63144 -1.20435 1.65211 0.453421 -0.298247 0.517216 -0.083951 0 0 0 0 0 0 0 0 0 
26.982 1 301 20.3783 8.48315 4.55748 1.47704 0.548727 -0.130661 0.000373125 0.172037 -0.280799 0 0 0 0 0 0 0 0 0 
26.982 1 104 20.1594 10.7532 2.82335 0.14215 4.27517 -1.96568 0.253353 -0.385188 -0.158198 0 0 0 0 0 0 0 0 0 
26.982 1 103 22.6511 8.59183 2.70228 3.46792 0.292478 0.435828 -0.228371 0.130958 0.485727 0 0 0 0 0 0 0 0 0 
26.982 1 262 22.6299 6.58831 4.67401 -0.675279 -4.22525 2.34463 0.093832 -0.0673473 -0.495138 0 0 0 0 0 0 0 0 0 
26.982 1 305 24.9783 8.48834 4.55301 -1.87706 2.39893 1.34613 -0.160616 0.199897 0.692209 0 0 0 0 0 0 0 0 0 
26.982 1 68 24.8707 6.68707 2.60773 2.5097 -4.80155 -1.51894 0.0968335 -0.498803 -0.0320246 0 0 0 0 0 0 0 0 0 
26.982 1 102 22.6231 10.6612 0.944824 -1.97953 0.167683 1.9982 -0.270276 -0.376472 -0.274911 0 0 0 0 0 0 0 0 0 
26.982 1 108 24.9536 10.4591 2.79142 1.69734 -2.43447 1.76549 -0.114387 0.292221 -0.377543 0 0 0 0 0 0 0 0 0 
26.982 1 107 27.1965 8.57381 2.68412 -0.899082 -0.782944 1.89153 -0.303026 0.0332393 -0.369308 0 0 0 0 0 0 0 0 0 
26.982 1 266 27.2357 6.63939 4.49123 -1.58531 1.46325 -4.37623 -0.0726714 -0.399302 0.442979 0 0 0 0 0 0 0 0 0 
26.982 1 72 29.6666 6.34529 2.79238 -1.24269 -0.0915483 0.385143 0.252864 0.640677 -0.0028759 0 0 0 0 0 0 0 0 0 
26.982 1 309 29.3737 8.56551 4.41234 -0.629825 2.31268 1.58426 0.462218 -0.353963 0.726125 0 0 0 0 0 0 0 0 0 
26.982 1 306 27.1944 10.5479 4.54669 0.786513 5.48208 -1.91327 -0.150778 0.262397 0.637114 0 0 0 0 0 0 0 0 0 
26.982 1 112 29.2995 10.525 2.73149 0.433604 3.1482 -0.148765 0.34468 0.256349 -0.100635 0 0 0 0 0 0 0 0 0 
26.982 1 109 29.3236 8.6198 0.860504 -0.751613 2.05431 -3.17349 0.4153 -0.474493 0.00227161 0 0 0 0 0 0 0 0 0 
26.982 1 111 31.9578 8.46675 2.7525 -2.68868 -1.82802 0.857726 -0.506139 -0.212387 0.139888 0 0 0 0 0 0 0 0 0 
26.982 1 270 31.834 6.42658 4.72409 -1.73977 1.54888 2.62356 -0.0130754 0.0233872 -0.249465 0 0 0 0 0 0 0 0 0 
26.982 1 76 34.3776 6.60442 2.48455 -3.7255 0.874434 2.71561 -0.201394 -0.109595 -0.00837831 0 0 0 0 0 0 0 0 0 
26.982 1 313 34.2625 8.2158 4.54581 -0.271877 -3.07789 -3.28108 -0.172923 0.183992 0.527467 0 0 0 0 0 0 0 0 0 
26.982 1 310 31.6912 10.3724 4.77381 1.63867 2.41809 3.80454 -0.0322318 0.0379651 0.120007 0 0 0 0 0 0 0 0 0 
26.982 1 615 13.1693 0.618312 14.6244 0.183037 -6.48522 0.0207018 0.105335 -0.247751 -0.748922 0 0 0 0 0 0 0 0 0 
26.982 1 70 31.9322 6.67042 0.693069 -2.73247 1.88819 2.24109 -0.0490267 -0.148692 0.0325368 0 0 0 0 0 0 0 0 0 
26.982 1 609 6.2772 0.795326 12.6526 -0.808562 0.352839 -2.01102 0.410697 -0.356433 -0.355898 0 0 0 0 0 0 0 0 0 
26.982 1 115 36.3759 8.52788 2.47098 5.09671 -4.87716 -1.49238 0.40492 0.115909 0.382148 0 0 0 0 0 0 0 0 0 
26.982 1 274 36.6665 6.68795 4.57391 0.4638 -2.99723 2.90799 -0.208425 0.194014 0.161464 0 0 0 0 0 0 0 0 0 
26.982 1 80 38.9414 6.58071 2.856 5.94703 2.47693 1.63821 -0.185845 0.0474876 -0.483474 0 0 0 0 0 0 0 0 0 
26.982 1 317 38.7629 8.63025 4.55817 3.98703 -0.0429041 -0.0742069 -0.0879203 0.316364 -0.251383 0 0 0 0 0 0 0 0 0 
26.982 1 120 38.8882 10.5681 2.60381 3.61398 -3.73625 0.768479 -0.27038 0.316196 0.17474 0 0 0 0 0 0 0 0 0 
26.982 1 314 36.4277 10.3221 4.6653 -2.62274 2.44043 -1.26143 0.0549541 -0.233689 0.0988395 0 0 0 0 0 0 0 0 0 
26.982 1 281 43.6512 8.35614 4.49949 -2.98322 -0.562119 5.64267 -0.480349 0.419198 0.472506 0 0 0 0 0 0 0 0 0 
26.982 1 119 40.9968 8.42315 2.83819 -1.35262 -1.93067 -5.02927 0.377085 0.364813 -0.621258 0 0 0 0 0 0 0 0 0 
26.982 1 278 41.2949 6.56384 4.64908 5.88551 3.40204 3.0606 0.284056 -0.370131 -0.172529 0 0 0 0 0 0 0 0 0 
26.982 1 318 41.3662 10.5608 4.43038 1.3034 0.314333 3.86898 -0.243072 -0.30727 0.273994 0 0 0 0 0 0 0 0 0 
26.982 1 118 41.0281 10.5566 0.931776 -1.14271 3.95184 2.84325 0.15677 0.206515 0.000407076 0 0 0 0 0 0 0 0 0 
26.982 1 282 -0.318759 10.4663 4.30644 5.33962 -3.5834 -5.31026 -0.0750182 0.145654 0.408462 0 0 0 0 0 0 0 0 0 
26.982 1 123 -0.194809 12.692 2.58702 0.959238 5.98651 -1.65576 -0.440989 -0.49497 0.440988 0 0 0 0 0 0 0 0 0 
26.982 1 322 -0.417586 14.3871 4.7327 -2.50286 5.93877 0.01434 -0.150195 -0.311545 -0.0809684 0 0 0 0 0 0 0 0 0 
26.982 1 325 2.07087 12.2677 4.70573 -2.45153 -2.39956 0.790655 -0.48103 0.528115 -0.348126 0 0 0 0 0 0 0 0 0 
26.982 1 128 2.14299 14.1935 2.70619 1.99577 0.419364 0.478026 -0.478661 -0.107687 0.103328 0 0 0 0 0 0 0 0 0 
26.982 1 127 4.15059 12.2193 2.52999 -0.917007 3.74173 -0.175429 0.0826844 0.740278 0.383097 0 0 0 0 0 0 0 0 0 
26.982 1 326 4.3213 14.1548 4.68281 0.548934 0.000519711 -1.63255 -0.116196 -0.0518229 -0.032767 0 0 0 0 0 0 0 0 0 
26.982 1 813 10.7397 0.786062 16.3539 -0.299119 -0.684486 -2.85774 0.372809 -0.11922 0.194767 0 0 0 0 0 0 0 0 0 
26.982 1 611 8.68376 0.770704 14.4308 1.4154 2.14941 2.56754 -0.221605 -0.00913565 0.0268429 0 0 0 0 0 0 0 0 0 
26.982 1 329 6.54673 12.4167 4.58228 -1.04844 -0.299585 -5.65893 0.0661395 -0.289176 -0.000411516 0 0 0 0 0 0 0 0 0 
26.982 1 132 6.52752 14.4385 2.68305 2.04625 1.50638 -6.39832 -0.247235 -0.0806745 -0.362063 0 0 0 0 0 0 0 0 0 
26.982 1 131 8.80722 12.5697 2.74883 0.624618 -2.2857 -3.1278 -0.0781194 -0.154168 -0.423477 0 0 0 0 0 0 0 0 0 
26.982 1 330 8.99867 14.2333 4.86659 -2.08292 3.37828 1.6784 -0.0915143 0.375333 -0.687698 0 0 0 0 0 0 0 0 0 
26.982 1 407 4.19165 0.715668 10.7476 -0.715995 -5.42849 -2.93086 -0.268849 0.0438463 -0.276915 0 0 0 0 0 0 0 0 0 
26.982 1 817 15.5836 0.633407 16.1346 -5.04751 1.22511 0.715728 -0.262543 0.199161 0.422472 0 0 0 0 0 0 0 0 0 
26.982 1 294 13.3265 10.4396 4.49837 -0.445292 -3.29809 2.34888 0.0412345 -0.0714706 0.385097 0 0 0 0 0 0 0 0 0 
26.982 1 96 11.132 10.5574 2.70016 -2.96731 0.95744 4.50292 0.0103309 -0.17547 -0.14724 0 0 0 0 0 0 0 0 0 
26.982 1 333 11.1782 12.3714 4.66653 -0.332094 1.29862 -1.25442 -0.202633 -0.013765 -0.102735 0 0 0 0 0 0 0 0 0 
26.982 1 136 11.1202 14.4541 2.76553 2.57616 0.212239 2.12236 -0.189906 -0.205296 0.332846 0 0 0 0 0 0 0 0 0 
26.982 1 135 13.3711 12.5562 2.69178 -1.47024 -0.551568 2.22066 -0.16443 -0.346024 -0.322804 0 0 0 0 0 0 0 0 0 
26.982 1 334 13.5089 14.2947 4.64362 -1.89525 -2.65282 0.311965 -0.133385 0.63077 0.170217 0 0 0 0 0 0 0 0 0 
26.982 1 134 13.3989 14.4739 0.787791 1.15756 2.11556 -0.290628 0.0406619 -0.319743 0.000425624 0 0 0 0 0 0 0 0 0 
26.982 1 100 15.5014 10.4337 2.77348 0.383105 0.000226022 0.446484 0.42747 -0.416307 -0.846657 0 0 0 0 0 0 0 0 0 
26.982 1 140 15.6137 14.5025 2.67789 -0.503819 -2.06831 2.53544 0.077914 -0.187888 -0.0323882 0 0 0 0 0 0 0 0 0 
26.982 1 337 15.5574 12.3387 4.44578 1.94253 -1.5298 6.86957 0.591752 0.567165 0.815979 0 0 0 0 0 0 0 0 0 
26.982 1 139 18.0171 12.5399 2.76854 1.43979 -6.14088 2.64198 -0.402209 -0.548027 0.49969 0 0 0 0 0 0 0 0 0 
26.982 1 338 17.8189 14.5058 4.75019 4.57563 -1.39973 4.23234 0.44619 -0.266491 0.0971757 0 0 0 0 0 0 0 0 0 
26.982 1 138 17.8929 14.3219 0.861176 0.00273593 1.58299 3.25446 0.101861 0.304363 0.124041 0 0 0 0 0 0 0 0 0 
26.982 1 341 20.4291 12.5368 4.82985 3.97376 5.66818 3.4557 -0.207006 -0.230349 0.434017 0 0 0 0 0 0 0 0 0 
26.982 1 144 20.2905 14.2197 2.78352 -0.296792 -2.09249 4.25475 -0.105111 0.560976 -0.0950104 0 0 0 0 0 0 0 0 0 
26.982 1 141 20.1366 12.5171 0.655108 1.71848 -2.65076 3.38622 0.206936 -0.124034 0.153214 0 0 0 0 0 0 0 0 0 
26.982 1 145 24.7544 12.5468 0.939416 -6.63331 -3.56558 -0.895699 0.381945 -0.66032 -0.179274 0 0 0 0 0 0 0 0 0 
26.982 1 302 22.7965 10.6722 4.63026 0.233775 -0.811878 2.00066 -0.29101 -0.544824 -0.27661 0 0 0 0 0 0 0 0 0 
26.982 1 143 22.5401 12.6125 2.75728 -1.28014 -0.466529 0.745932 0.101152 0.0594869 0.23364 0 0 0 0 0 0 0 0 0 
26.982 1 342 22.7156 14.3657 4.87175 0.249388 0.277849 -2.06678 -0.368543 0.150261 -0.195407 0 0 0 0 0 0 0 0 0 
26.982 1 148 25.0988 14.5892 2.54279 3.61718 3.89074 -4.68939 -0.16969 0.226318 0.713922 0 0 0 0 0 0 0 0 0 
26.982 1 345 24.9505 12.6078 4.67549 -2.83669 -3.15951 -3.55223 0.246589 -0.0991143 -0.31216 0 0 0 0 0 0 0 0 0 
26.982 1 603 -0.390375 0.604303 14.6768 2.4016 -0.152296 -0.9634 -0.306285 -0.479308 -0.657011 0 0 0 0 0 0 0 0 0 
26.982 1 147 26.9598 12.5274 2.62803 5.49097 -2.2867 0.334392 0.582274 -0.16703 0.410922 0 0 0 0 0 0 0 0 0 
26.982 1 346 27.2224 14.6178 4.66943 1.85872 -0.738736 1.91417 -0.213622 -0.380484 0.150075 0 0 0 0 0 0 0 0 0 
26.982 1 152 29.4879 14.584 2.88558 -1.31842 -1.16043 -0.0421668 0.116795 -0.0116994 -0.808942 0 0 0 0 0 0 0 0 0 
26.982 1 349 29.4917 12.559 4.50569 -1.7348 -7.84584 2.1693 -0.141365 -0.38013 0.459294 0 0 0 0 0 0 0 0 0 
26.982 1 2639 41.1587 20.2974 14.1506 -1.7486 3.19924 3.12103 0.0699099 -0.0382985 0.54855 0 0 0 0 0 0 0 0 0 
26.982 1 2633 34.1405 20.3691 12.1569 -3.00661 6.15954 -4.92615 0.397204 0.0310097 0.838276 0 0 0 0 0 0 0 0 0 
26.982 1 116 34.0017 10.3267 2.98385 3.51023 -0.919058 -2.81556 0.132946 0.70393 -0.212888 0 0 0 0 0 0 0 0 0 
26.982 1 151 31.8163 12.3686 2.78695 5.83063 3.06072 0.701807 -0.0912081 0.188069 0.250029 0 0 0 0 0 0 0 0 0 
26.982 1 350 31.9427 14.4115 4.70795 -6.15682 -1.35927 -1.8663 -0.25255 0.167179 -0.303665 0 0 0 0 0 0 0 0 0 
26.982 1 156 34.1336 14.3754 2.89028 4.76489 -1.25203 0.712561 -0.111019 0.118997 0.0444788 0 0 0 0 0 0 0 0 0 
26.982 1 353 33.9531 12.3325 4.73197 3.73443 0.779813 -0.10198 0.233939 0.11163 0.336289 0 0 0 0 0 0 0 0 0 
26.982 1 155 36.537 12.4096 2.95986 1.72135 5.5636 -2.3213 -0.00674375 -0.0678563 -0.0664392 0 0 0 0 0 0 0 0 0 
26.982 1 354 36.597 14.4652 4.58507 7.80734 -0.594597 4.03149 -0.256573 0.396406 -0.0079173 0 0 0 0 0 0 0 0 0 
26.982 1 160 38.867 14.4107 2.82363 -3.96496 4.12454 3.54765 0.0367965 -0.128703 0.280883 0 0 0 0 0 0 0 0 0 
26.982 1 357 38.7975 12.4103 4.90615 -5.67356 4.88813 -1.32529 0.419338 -0.267651 -1.02286 0 0 0 0 0 0 0 0 0 
26.982 1 84 43.702 10.6221 2.57483 8.02914 -0.920003 6.53341 -0.0863835 -0.194716 0.978511 0 0 0 0 0 0 0 0 0 
26.982 1 321 -2.61514 12.3246 4.80116 0.905526 -1.00367 3.41615 0.0902024 0.84368 -0.636824 0 0 0 0 0 0 0 0 0 
26.982 1 124 -2.74485 14.4874 2.77656 -0.649217 3.79378 4.9016 0.395617 -0.326384 0.103317 0 0 0 0 0 0 0 0 0 
26.982 1 159 41.4999 12.7083 2.8303 0.880852 -1.28273 4.09432 -0.493804 -0.697284 0.255765 0 0 0 0 0 0 0 0 0 
26.982 1 358 41.094 14.5858 4.72784 -3.38188 -1.76394 1.5509 0.039095 -0.593748 -0.453303 0 0 0 0 0 0 0 0 0 
26.982 1 158 41.0799 14.2518 0.831223 -1.36329 -1.79171 -5.444 -0.0091253 0.453609 -0.387747 0 0 0 0 0 0 0 0 0 
26.982 1 163 -0.331827 16.1461 2.6718 -0.195184 -2.10431 0.663346 -0.165337 -0.211698 0.182251 0 0 0 0 0 0 0 0 0 
26.982 1 362 -0.616771 18.2812 4.53933 1.35343 -4.60442 0.95799 -0.0918652 -0.441674 -0.118339 0 0 0 0 0 0 0 0 0 
26.982 1 361 -2.9319 16.4102 4.6776 1.37929 6.37256 -3.96746 -0.045627 -0.180814 -0.343523 0 0 0 0 0 0 0 0 0 
26.982 1 2003 -0.574381 20.2408 2.6967 -0.352277 -3.5962 -1.76762 -0.118421 0.013883 -0.131894 0 0 0 0 0 0 0 0 0 
26.982 1 2629 29.642 20.2887 12.5511 -2.32439 -1.02248 0.620855 -0.381632 -0.0231029 -0.0364076 0 0 0 0 0 0 0 0 0 
26.982 1 365 1.86253 16.1582 4.5792 -0.381269 -2.99949 -5.54399 -0.14779 0.455139 0.0878039 0 0 0 0 0 0 0 0 0 
26.982 1 168 1.73658 18.2137 2.61333 5.09651 -0.000213064 2.83159 -0.104107 -0.291173 0.109432 0 0 0 0 0 0 0 0 0 
26.982 1 167 3.96063 16.157 2.70209 2.01724 -1.99485 2.7181 0.455398 0.810443 0.411003 0 0 0 0 0 0 0 0 0 
26.982 1 366 3.92801 18.3947 4.60346 2.44943 -1.37055 -2.94912 -0.070625 -0.208274 -0.0487217 0 0 0 0 0 0 0 0 0 
26.982 1 369 6.44029 16.1528 4.70982 0.297908 -4.32985 2.83967 -0.164279 -0.136022 -0.0680348 0 0 0 0 0 0 0 0 0 
26.982 1 172 6.06542 18.1247 2.85019 -1.25217 -3.2869 -3.52296 0.066493 -0.497865 0.14499 0 0 0 0 0 0 0 0 0 
26.982 1 171 8.60358 16.4684 2.93943 2.44399 2.33793 -0.923695 0.285432 -0.387388 0.158602 0 0 0 0 0 0 0 0 0 
26.982 1 370 8.85008 18.549 4.70212 4.47501 -2.47216 -6.16653 -0.128709 -0.477701 -0.483321 0 0 0 0 0 0 0 0 0 
26.982 1 2209 6.49777 20.2062 4.31751 -1.21589 1.59075 0.509718 -0.307301 0.166815 0.440423 0 0 0 0 0 0 0 0 0 
26.982 1 170 8.90287 18.1481 0.893911 -0.383702 -4.86849 5.55612 -0.045588 0.282724 0.021999 0 0 0 0 0 0 0 0 0 
26.982 1 2619 18.0097 20.3545 14.4283 -1.73793 -3.31531 0.32268 0.0316173 0.0620268 -0.196135 0 0 0 0 0 0 0 0 0 
26.982 1 176 11.0938 18.3654 2.64687 4.71633 2.13422 0.909403 -0.178858 -0.135959 0.610546 0 0 0 0 0 0 0 0 0 
26.982 1 373 11.0424 16.4532 4.72142 -2.62466 0.796094 4.39557 0.0533947 -0.288252 -0.168735 0 0 0 0 0 0 0 0 0 
26.982 1 175 13.2874 16.3895 2.75728 1.96908 -5.58613 1.97955 0.324172 -0.0792917 0.115659 0 0 0 0 0 0 0 0 0 
26.982 1 374 13.2208 18.2437 4.70086 3.34929 -4.02287 -1.6212 0.339225 0.356035 0.173467 0 0 0 0 0 0 0 0 0 
26.982 1 2611 8.94306 20.1235 14.4517 -5.64818 -2.35325 -2.27346 -0.527501 0.175207 0.382983 0 0 0 0 0 0 0 0 0 
26.982 1 377 15.6462 16.3437 4.72849 -3.53032 -0.13577 2.74949 -0.185627 0.271966 -0.122033 0 0 0 0 0 0 0 0 0 
26.982 1 180 15.5857 18.4203 2.76132 1.66871 -5.57864 -0.466507 -0.193053 -0.0199704 0.222035 0 0 0 0 0 0 0 0 0 
26.982 1 179 17.8512 16.4338 2.84638 1.02072 -3.14289 1.02094 0.24171 -0.426603 -0.844789 0 0 0 0 0 0 0 0 0 
26.982 1 378 17.8896 18.1663 4.6846 -2.97747 3.88 1.12967 0.139494 0.608583 0.732727 0 0 0 0 0 0 0 0 0 
26.982 1 994 36.3657 18.254 16.2128 4.79226 1.45956 -2.93263 0.326455 0.322068 0.441728 0 0 0 0 0 0 0 0 0 
26.982 1 177 15.7747 16.5363 0.880817 -2.34552 -6.53937 0.99982 -0.496671 -0.417528 -0.22385 0 0 0 0 0 0 0 0 0 
26.982 1 381 20.2537 16.3739 4.62582 1.53139 -5.64213 3.51012 -0.0829164 -0.497191 -0.145154 0 0 0 0 0 0 0 0 0 
26.982 1 184 20.1252 18.3996 2.65015 -3.50739 5.87362 4.02613 0.0927518 -0.0678831 0.0861306 0 0 0 0 0 0 0 0 0 
26.982 1 995 36.4968 16.2756 18.1941 -3.04134 3.60238 -5.23397 -0.0569165 0.288957 0.162822 0 0 0 0 0 0 0 0 0 
26.982 1 2605 1.89465 20.1319 12.56 1.61446 1.9409 1.67105 -0.403769 0.433777 -1.13715 0 0 0 0 0 0 0 0 0 
26.982 1 183 22.6795 16.0572 2.79198 1.43646 0.842272 2.54405 -0.207663 0.67645 0.0475127 0 0 0 0 0 0 0 0 0 
26.982 1 382 22.3972 18.2377 4.72496 -0.480432 2.26376 -1.41097 0.267218 0.302681 -1.10548 0 0 0 0 0 0 0 0 0 
26.982 1 385 24.9027 16.5255 4.74381 -2.39048 -2.23409 1.44389 0.301921 -0.290221 -0.589024 0 0 0 0 0 0 0 0 0 
26.982 1 188 24.8912 18.3086 2.62191 2.01526 -1.20741 -0.371924 0.10447 0.023388 1.05327 0 0 0 0 0 0 0 0 0 
26.982 1 1021 20.1541 0.641078 20.2687 3.68338 2.97004 -2.90662 -0.045485 0.11395 -0.0907398 0 0 0 0 0 0 0 0 0 
26.982 1 990 31.7314 18.406 16.1784 -2.3472 -1.98363 -7.85238 0.096187 -0.077765 0.606627 0 0 0 0 0 0 0 0 0 
26.982 1 2601 -2.6299 20.0932 12.4115 -1.2313 -0.471291 -4.08559 -0.566091 0.688104 0.21902 0 0 0 0 0 0 0 0 0 
26.982 1 239 41.127 0.831926 6.41046 5.68036 5.32706 -2.84151 -0.0448267 -0.28935 0.332793 0 0 0 0 0 0 0 0 0 
26.982 1 187 27.2966 16.5028 2.80284 -0.523462 2.56702 -3.15733 -0.064 0.179298 -0.385645 0 0 0 0 0 0 0 0 0 
26.982 1 386 27.2698 18.578 4.69401 -0.592115 -6.25094 1.41573 -0.10167 -0.503972 0.0650615 0 0 0 0 0 0 0 0 0 
26.982 1 192 29.4808 18.5266 2.54925 -3.54368 0.305293 -6.8421 0.128652 -0.275274 0.609759 0 0 0 0 0 0 0 0 0 
26.982 1 389 29.4811 16.3591 4.84066 -0.23347 -3.07118 -2.56793 0.191927 0.897308 -0.4676 0 0 0 0 0 0 0 0 0 
26.982 1 991 31.7408 16.3954 18.2681 -2.27577 3.61442 -1.1949 0.144488 0.126109 -0.119675 0 0 0 0 0 0 0 0 0 
26.982 1 189 29.5211 16.5394 0.647791 0.472358 3.8161 -1.32662 0.0429813 -0.432473 0.371317 0 0 0 0 0 0 0 0 0 
26.982 1 191 31.6315 16.4018 2.75988 0.56903 -1.99612 -4.18177 0.240101 -0.119505 -0.138878 0 0 0 0 0 0 0 0 0 
26.982 1 390 31.7677 18.3986 4.61106 3.5962 -2.31701 -1.04492 -0.0885651 0.00281972 0.344779 0 0 0 0 0 0 0 0 0 
26.982 1 427 27.1836 0.66427 10.5006 -0.829751 -1.96569 5.12877 0.162073 0.384574 0.0670413 0 0 0 0 0 0 0 0 0 
26.982 1 393 34.1278 16.6028 4.60675 -5.07905 -4.22163 -0.599373 -0.298926 -0.492161 0.0987926 0 0 0 0 0 0 0 0 0 
26.982 1 196 34.0458 18.4875 2.8096 1.67893 -1.07853 2.3818 -0.117878 0.106187 -0.475219 0 0 0 0 0 0 0 0 0 
26.982 1 996 34.1304 18.2048 18.1759 2.58924 2.04174 -2.90226 -0.0518461 0.0540391 0.467163 0 0 0 0 0 0 0 0 0 
26.982 1 993 34.245 16.3141 16.2996 0.459787 5.85295 -1.38359 -0.351312 -0.0495561 -0.0227192 0 0 0 0 0 0 0 0 0 
26.982 1 423 22.6572 0.893773 10.6465 -1.01526 -2.43777 -0.268665 0.055661 0.217061 -0.0950488 0 0 0 0 0 0 0 0 0 
26.982 1 195 36.2645 16.3967 2.56766 2.54447 -1.58444 6.2333 0.499474 0.354111 0.629159 0 0 0 0 0 0 0 0 0 
26.982 1 394 36.3915 18.5567 4.57769 -1.20024 3.14669 1.06527 0.214063 -0.18642 -0.1759 0 0 0 0 0 0 0 0 0 
26.982 1 2237 38.9294 20.2882 4.57213 -4.30362 -1.99338 1.24905 -0.0240431 -0.335304 -0.0418384 0 0 0 0 0 0 0 0 0 
26.982 1 397 38.6292 16.6501 4.55025 2.42007 0.067833 1.1641 0.101936 -0.190078 -0.132003 0 0 0 0 0 0 0 0 0 
26.982 1 200 38.7807 18.3371 2.43498 6.41622 -1.95057 5.46223 -0.211845 0.114976 0.391423 0 0 0 0 0 0 0 0 0 
26.982 1 2035 36.2442 20.1059 2.43114 3.31239 -1.02042 -1.63878 0.340045 0.879084 0.644235 0 0 0 0 0 0 0 0 0 
26.982 1 164 -2.96396 18.3593 2.75366 -2.01783 -1.5076 0.4063 0.159057 0.108816 -0.289161 0 0 0 0 0 0 0 0 0 
26.982 1 199 41.0721 16.3438 2.59641 -0.637919 1.32031 -5.85354 0.0500609 0.189223 -0.0597839 0 0 0 0 0 0 0 0 0 
26.982 1 398 41.0452 18.3317 4.61175 1.25781 -5.07235 1.3642 -0.0110306 -0.0517027 0.217049 0 0 0 0 0 0 0 0 0 
26.982 1 161 -2.75363 16.2921 0.825459 0.861679 8.97702 2.08942 -0.214122 0.0355872 -0.10227 0 0 0 0 0 0 0 0 0 
26.982 1 198 40.968 18.4144 0.635674 -2.44837 2.01739 -2.36041 0.11565 0.173422 0.315364 0 0 0 0 0 0 0 0 0 
26.982 1 243 -0.340799 4.63704 6.54531 2.50752 1.03783 -0.0989132 -0.163537 -0.295719 0.193771 0 0 0 0 0 0 0 0 0 
26.982 1 402 -0.638192 2.9804 8.5202 6.06451 5.17841 -1.96759 0.150412 -0.522969 -0.21447 0 0 0 0 0 0 0 0 0 
26.982 1 204 43.4102 2.55463 6.50877 1.41524 -1.66339 2.16283 0.10178 0.249559 -0.413773 0 0 0 0 0 0 0 0 0 
26.982 1 404 -2.91228 2.70802 10.3711 -2.0938 3.00362 -0.823871 0.137267 0.660496 0.298463 0 0 0 0 0 0 0 0 0 
26.982 1 417 15.5997 0.684813 8.64785 -0.868268 0.330749 -1.21913 -0.159739 0.581715 -0.0989927 0 0 0 0 0 0 0 0 0 
26.982 1 208 1.84482 2.72996 6.74512 -4.59851 -1.37237 -6.631 -0.115339 -0.253679 -0.0735618 0 0 0 0 0 0 0 0 0 
26.982 1 445 1.82798 4.67498 8.64382 2.743 1.25281 -0.658786 -0.0867626 0.379139 -0.552529 0 0 0 0 0 0 0 0 0 
26.982 1 247 4.09561 4.5935 6.72174 3.41125 -1.51248 2.4669 0.12331 0.0963025 -0.322538 0 0 0 0 0 0 0 0 0 
26.982 1 406 4.09109 2.59828 8.60079 1.44664 0.447435 0.00683275 0.151653 -0.00259813 0.359878 0 0 0 0 0 0 0 0 0 
26.982 1 408 1.70793 2.83423 10.5527 3.23925 -2.02114 1.37302 0.078755 -0.397071 0.0523517 0 0 0 0 0 0 0 0 0 
26.982 1 447 3.91493 4.7178 10.4723 -0.999633 -0.289206 0.325207 0.437384 -0.291827 0.145362 0 0 0 0 0 0 0 0 0 
26.982 1 449 6.47446 4.56363 8.66327 5.63406 -4.21716 2.67818 -0.247426 0.0270681 0.00711434 0 0 0 0 0 0 0 0 0 
26.982 1 212 6.24792 2.65445 6.59411 -0.499424 0.681609 -0.28733 0.134792 0.0722559 0.0586239 0 0 0 0 0 0 0 0 0 
26.982 1 251 8.70874 4.44713 6.69807 -1.52374 -1.47324 4.32079 -0.00581839 0.202649 0.337474 0 0 0 0 0 0 0 0 0 
26.982 1 410 8.58843 2.66678 8.57482 -6.18713 -1.25109 1.11702 0.447288 -0.40474 0.317137 0 0 0 0 0 0 0 0 0 
26.982 1 451 8.66642 4.57307 10.5894 -0.241872 -1.81282 -4.12028 0.196102 0.304404 -0.355038 0 0 0 0 0 0 0 0 0 
26.982 1 453 11.1134 4.55313 8.2706 -1.46427 1.95837 0.0795299 -0.146488 0.104274 0.535245 0 0 0 0 0 0 0 0 0 
26.982 1 216 10.9358 2.47703 6.60781 0.177695 -0.504031 -0.0388033 -0.00339389 0.221301 0.522081 0 0 0 0 0 0 0 0 0 
26.982 1 255 13.421 4.5269 6.59312 2.24312 -0.0959764 -0.445328 0.277252 0.381585 -0.341307 0 0 0 0 0 0 0 0 0 
26.982 1 414 13.2086 2.60137 8.40192 -2.36416 -5.66348 -4.42343 0.268221 0.0243881 0.306632 0 0 0 0 0 0 0 0 0 
26.982 1 455 13.2104 4.46905 10.4631 0.378618 0.822187 -0.860514 0.295914 -0.106528 -0.00251458 0 0 0 0 0 0 0 0 0 
26.982 1 419 17.8905 0.477084 10.583 -0.368059 -1.61044 0.0326218 -0.294335 1.04409 0.200596 0 0 0 0 0 0 0 0 0 