ITEM: TIMESTEP
20000
ITEM: NUMBER OF ATOMS
4000
ITEM: BOX BOUNDS pp pp pp
-4.13904 44.639
1.48628 39.0137
1.4018 39.0982
ITEM: ATOMS mass type id x y z vx vy vz fx fy fz xrad yrad zrad vxrad vyrad vzrad fxrad fyrad fzrad 
26.982 1 202 -0.84067 3.66424 5.39545 -3.60491 0.864412 5.17872 0.0437171 -0.120057 0.545181 0 0 0 0 0 0 0 0 0 
26.982 1 825 24.7444 1.33969 16.2636 -1.16244 2.2117 -3.129 -0.457766 0.986132 0.747826 0 0 0 0 0 0 0 0 0 
26.982 1 4 -3.15535 3.29647 3.77252 -4.68456 -1.20244 0.682762 0.322717 -0.49597 -0.173153 0 0 0 0 0 0 0 0 0 
26.982 1 241 -2.92656 5.48089 5.52627 -3.72959 2.03505 -4.05552 0.172542 0.303894 -0.0489341 0 0 0 0 0 0 0 0 0 
26.982 1 41 -3.38152 5.20628 1.72698 5.2846 0.320046 -1.51305 0.0769737 0.0838905 -0.448646 0 0 0 0 0 0 0 0 0 
26.982 1 43 -1.06761 5.55728 3.51464 3.54608 -0.438552 1.12827 -0.171578 0.213103 -0.153856 0 0 0 0 0 0 0 0 0 
26.982 1 998 41.2643 18.2004 15.2576 -2.53202 0.178822 2.66795 -0.0229266 -0.0507207 0.458287 0 0 0 0 0 0 0 0 0 
26.982 1 29 30.9071 1.75136 2.51449 -0.716178 6.04288 -7.74737 0.741818 0.0998877 0.0949419 0 0 0 0 0 0 0 0 0 
26.982 1 205 1.26894 1.8901 5.47204 -5.71266 -0.609584 4.39965 0.417311 0.101485 -0.161518 0 0 0 0 0 0 0 0 0 
26.982 1 245 2.88155 4.25756 5.69025 1.09435 -5.95444 -5.07394 -0.189779 0.438058 -0.406646 0 0 0 0 0 0 0 0 0 
26.982 1 8 1.09728 3.79713 3.42545 -4.66526 -3.62473 5.58777 0.161438 0.17079 -0.154892 0 0 0 0 0 0 0 0 0 
26.982 1 47 4.93145 4.53359 3.51908 -3.61495 -3.85768 -0.692335 -0.332638 0.0379916 -0.506749 0 0 0 0 0 0 0 0 0 
26.982 1 6 3.09169 1.89411 3.41869 -0.863973 1.4522 -4.42965 -0.06549 0.601659 -0.225243 0 0 0 0 0 0 0 0 0 
26.982 1 206 4.91894 2.59397 5.34689 2.77388 -0.586622 3.03804 0.725862 -0.857056 0.397242 0 0 0 0 0 0 0 0 0 
26.982 1 249 6.97448 4.52878 5.38147 -0.97468 -3.39443 1.37506 0.449821 0.219383 0.589255 0 0 0 0 0 0 0 0 0 
26.982 1 12 7.22047 2.61552 3.37663 -3.36977 2.46851 -2.60615 0.0954577 -0.0606649 -0.37449 0 0 0 0 0 0 0 0 0 
26.982 1 51 9.10985 4.66302 3.45363 6.74316 -0.879243 3.77826 -0.00602929 0.21415 -0.164377 0 0 0 0 0 0 0 0 0 
26.982 1 210 9.53146 2.39952 5.35784 -1.03312 -1.02901 -2.81944 -0.406587 0.697311 -0.256267 0 0 0 0 0 0 0 0 0 
26.982 1 253 11.3621 5.01653 4.98853 -2.74638 -2.3401 6.46523 0.111073 -0.424744 0.45917 0 0 0 0 0 0 0 0 0 
26.982 1 16 11.363 2.97526 3.1122 0.51838 8.47026 1.42492 0.168993 -0.253021 0.170735 0 0 0 0 0 0 0 0 0 
26.982 1 214 13.4902 2.87229 5.25392 2.02027 -6.22241 0.574929 -0.0565297 0.393554 -0.286357 0 0 0 0 0 0 0 0 0 
26.982 1 55 13.506 4.94299 2.93756 -1.08989 1.23856 -6.58831 -0.646786 0.0500177 0.546855 0 0 0 0 0 0 0 0 0 
26.982 1 20 15.5476 2.95582 3.15809 4.23973 -7.66258 -2.74115 -0.200578 0.28177 -0.131127 0 0 0 0 0 0 0 0 0 
26.982 1 257 15.5579 5.29636 4.75515 0.0614355 0.874209 -2.51937 -0.279745 -0.170562 0.196842 0 0 0 0 0 0 0 0 0 
26.982 1 218 17.6176 3.12752 4.92101 5.10763 3.21508 5.87277 -0.0662356 0.192319 0.102781 0 0 0 0 0 0 0 0 0 
26.982 1 59 17.6807 5.07658 2.90941 -2.9206 0.20775 1.48151 0.0526463 0.414512 0.313251 0 0 0 0 0 0 0 0 0 
26.982 1 24 19.708 3.18589 3.19149 -0.748639 4.89169 2.52209 0.418894 0.457234 -0.244645 0 0 0 0 0 0 0 0 0 
26.982 1 261 19.9398 5.45689 5.22231 -0.140511 3.67538 1.45049 -0.386264 -0.0839863 -0.172641 0 0 0 0 0 0 0 0 0 
26.982 1 63 21.9015 5.04805 3.1264 1.49218 -5.07246 -1.76232 0.178601 0.536787 0.261318 0 0 0 0 0 0 0 0 0 
26.982 1 222 21.926 3.60668 5.44594 3.71662 0.208918 6.74594 0.100225 -0.182851 -0.0159295 0 0 0 0 0 0 0 0 0 
26.982 1 162 -1.67857 18.5938 1.70789 -1.51628 2.96601 -0.620681 0.196731 -0.0162715 0.429902 0 0 0 0 0 0 0 0 0 
26.982 1 28 24.4202 3.03846 2.92289 1.79666 0.339108 -3.28449 -0.093423 -0.147185 0.216601 0 0 0 0 0 0 0 0 0 
26.982 1 265 24.4102 4.88628 4.7986 3.96994 1.67052 -3.92215 0.00102393 0.345627 0.0327559 0 0 0 0 0 0 0 0 0 
26.982 1 67 26.4204 5.37127 2.8183 -3.87268 5.02665 -6.86825 -0.189442 -0.75049 -0.201404 0 0 0 0 0 0 0 0 0 
26.982 1 225 24.3481 1.94801 5.76576 4.61683 1.46739 1.92961 -0.0357052 1.31039 -0.15606 0 0 0 0 0 0 0 0 0 
26.982 1 226 26.9622 2.94024 4.61225 3.63309 -0.9277 -3.40146 -0.635602 -0.0624085 0.424462 0 0 0 0 0 0 0 0 0 
26.982 1 32 30.4876 5.61666 2.6063 -1.45718 -0.252171 -5.49734 0.0444749 0.278654 -0.310611 0 0 0 0 0 0 0 0 0 
26.982 1 269 28.6425 5.31014 4.62768 2.42969 3.40701 -2.5121 0.00477433 0.602581 -0.117854 0 0 0 0 0 0 0 0 0 
26.982 1 27 28.588 3.33937 2.64373 -2.32357 1.91694 3.69154 0.311 0.192968 -0.45028 0 0 0 0 0 0 0 0 0 
26.982 1 230 30.852 3.70136 4.5224 -4.50942 9.37615 -3.83851 0.22623 -0.424202 -0.250242 0 0 0 0 0 0 0 0 0 
26.982 1 964 43.3898 18.3231 17.1991 1.52575 -6.77511 -4.48548 0.393839 -0.194443 0.187642 0 0 0 0 0 0 0 0 0 
26.982 1 273 32.7805 5.80929 4.27521 1.049 -0.601151 -3.06003 -0.0364913 0.345719 0.310179 0 0 0 0 0 0 0 0 0 
26.982 1 36 34.9678 3.99117 4.07764 4.44037 0.14457 1.84304 1.1931 -0.0934129 0.398596 0 0 0 0 0 0 0 0 0 
26.982 1 30 32.9313 3.71792 2.51795 4.48189 0.00433611 0.289569 -0.619219 0.186846 -0.859993 0 0 0 0 0 0 0 0 0 
26.982 1 73 34.7674 5.97947 2.16492 4.86091 6.67821 -1.63026 -0.28648 0.0732736 -0.267273 0 0 0 0 0 0 0 0 0 
26.982 1 33 35.3272 1.9013 2.14035 3.82176 -0.848054 4.98716 -0.131759 0.449297 0.00928977 0 0 0 0 0 0 0 0 0 
26.982 1 276 35.0501 5.82834 6.19444 1.52045 -4.30794 -1.51062 -0.0491543 -0.00489805 -0.140177 0 0 0 0 0 0 0 0 0 
26.982 1 34 37.0729 4.14922 1.98442 0.959938 4.44517 -0.609155 -0.228729 -0.226966 0.447428 0 0 0 0 0 0 0 0 0 
26.982 1 35 37.5672 2.0778 4.13019 1.84701 -4.20858 3.11294 -0.506551 0.337268 -0.336352 0 0 0 0 0 0 0 0 0 
26.982 1 75 37.0962 5.86761 4.11221 -1.06194 -1.81518 1.64754 0.0106936 -0.0327616 -0.098584 0 0 0 0 0 0 0 0 0 
26.982 1 234 37.2954 3.90513 6.19335 -4.65502 -7.37651 -3.31314 0.234408 0.355311 -0.308245 0 0 0 0 0 0 0 0 0 
26.982 1 40 39.3387 4.15131 4.06598 -4.84592 1.271 1.43836 0.133882 0.137099 0.0829098 0 0 0 0 0 0 0 0 0 
26.982 1 237 39.5538 2.13512 5.96307 -2.71071 -4.16148 -1.11521 0.329299 0.439689 0.351536 0 0 0 0 0 0 0 0 0 
26.982 1 37 39.4255 2.50334 1.85063 -0.139708 -1.42324 -2.31857 -0.36339 -0.940771 0.467182 0 0 0 0 0 0 0 0 0 
26.982 1 1 43.4497 3.03298 1.72114 0.820082 1.09136 2.45385 0.775779 -0.579763 -0.245981 0 0 0 0 0 0 0 0 0 
26.982 1 79 43.5503 5.02334 3.88984 3.96449 -3.21172 -6.64766 -0.190347 -0.222026 -0.0481365 0 0 0 0 0 0 0 0 0 
26.982 1 39 41.8427 2.34633 3.8813 -2.83429 0.36861 1.30761 -1.11621 0.454791 -0.0243584 0 0 0 0 0 0 0 0 0 
26.982 1 38 41.2526 4.30019 2.01115 0.303317 -1.48019 -0.496781 -0.122304 0.881554 -0.277272 0 0 0 0 0 0 0 0 0 
26.982 1 277 41.1046 4.36802 6.35147 -3.42573 -2.13304 4.04394 0.0703689 0.0432631 -1.17439 0 0 0 0 0 0 0 0 0 
26.982 1 238 43.5113 3.10212 5.72114 -1.8022 4.42888 2.43269 0.733135 -0.882901 0.845882 0 0 0 0 0 0 0 0 0 
26.982 1 83 0.190523 8.01889 3.60544 7.52961 -2.66982 -4.11007 0.0334793 0.27566 -0.199437 0 0 0 0 0 0 0 0 0 
26.982 1 44 -2.94896 7.62037 3.31799 -1.07777 2.21165 -1.24056 -0.191862 0.0170811 0.107049 0 0 0 0 0 0 0 0 0 
26.982 1 2607 1.94181 20.1216 13.3771 -4.92289 1.17006 -2.65914 -0.150806 -0.264526 -0.386537 0 0 0 0 0 0 0 0 0 
26.982 1 48 2.5344 6.27404 3.59535 11.482 -2.23486 -0.928602 0.2249 -0.0378026 -0.0272966 0 0 0 0 0 0 0 0 0 
26.982 1 87 4.46136 8.49567 3.49626 3.50423 -1.92688 -3.17533 -0.014727 -0.327521 -0.129377 0 0 0 0 0 0 0 0 0 
26.982 1 246 4.70658 6.44727 5.43449 4.90275 0.0372863 4.05631 0.037954 0.0448262 0.521201 0 0 0 0 0 0 0 0 0 
26.982 1 88 2.24585 10.2337 3.48505 7.44788 -4.00918 -0.325973 0.112362 -0.283957 0.0360589 0 0 0 0 0 0 0 0 0 
26.982 1 286 4.3815 10.5292 5.70632 -1.41415 -5.33335 -3.06189 -0.266016 -0.225931 -0.174746 0 0 0 0 0 0 0 0 0 
26.982 1 1190 33.5587 17.465 20.1167 -2.92247 0.383898 4.13979 -0.457121 0.160653 -0.374636 0 0 0 0 0 0 0 0 0 
26.982 1 52 6.80923 6.5937 3.41445 0.125038 2.30213 -1.79238 -0.0305628 0.111832 -0.240772 0 0 0 0 0 0 0 0 0 
26.982 1 289 6.4667 8.54631 5.47321 2.89264 -1.14337 0.132397 0.47511 0.0345735 -0.0489574 0 0 0 0 0 0 0 0 0 
26.982 1 250 8.90246 6.81456 5.39451 -1.12219 -1.65419 -2.35326 -0.0768061 -0.214647 -0.187996 0 0 0 0 0 0 0 0 0 
26.982 1 91 8.51301 8.7606 3.34186 -1.97886 -1.57162 -1.21657 0.0519321 0.12633 -0.0318847 0 0 0 0 0 0 0 0 0 
26.982 1 290 8.51171 10.8902 5.12675 7.34394 -5.22442 -3.28813 -0.55608 -0.2236 0.714281 0 0 0 0 0 0 0 0 0 
26.982 1 92 6.20739 10.6255 3.50544 4.72544 -2.50283 -6.21635 0.456814 -0.253078 -0.475095 0 0 0 0 0 0 0 0 0 
26.982 1 231 31.6022 1.76163 6.52068 -6.60071 -0.74032 0.126864 -0.241135 -0.397683 -0.197379 0 0 0 0 0 0 0 0 0 
26.982 1 293 10.6557 9.21568 5.18007 0.493577 3.3821 1.39197 0.0276098 -0.874536 0.0176304 0 0 0 0 0 0 0 0 0 
26.982 1 56 10.8995 7.00891 3.17222 -2.56287 0.997418 1.57632 -0.227625 0.358576 -0.121322 0 0 0 0 0 0 0 0 0 
26.982 1 95 12.6065 9.277 2.99062 4.75346 -2.59553 -4.21418 -0.33896 -0.376363 -0.181317 0 0 0 0 0 0 0 0 0 
26.982 1 254 13.1832 7.18822 4.89827 -4.5386 1.30252 -1.41131 -0.247908 -0.0867126 0.0335818 0 0 0 0 0 0 0 0 0 
26.982 1 60 15.0038 7.30589 2.63548 -1.56341 1.54278 -1.08314 0.350887 0.260507 0.108843 0 0 0 0 0 0 0 0 0 
26.982 1 297 14.8063 9.43022 4.61604 0.659001 5.02508 -1.58758 -0.470255 -0.134059 0.435805 0 0 0 0 0 0 0 0 0 
26.982 1 99 16.8684 9.44373 2.94652 4.7773 -2.27594 -1.43817 0.699202 -0.595537 -0.627625 0 0 0 0 0 0 0 0 0 
26.982 1 258 17.541 7.28023 4.83343 -7.48546 2.11156 -1.68744 0.238455 0.13719 -0.332691 0 0 0 0 0 0 0 0 0 
26.982 1 2 -1.04529 3.52547 1.53254 -7.58099 2.13898 -5.89101 -0.565238 0.310575 -0.0581404 0 0 0 0 0 0 0 0 0 
26.982 1 64 19.8344 7.21949 2.9982 -1.25492 2.95353 -2.62792 -0.260608 -0.0960319 0.00946688 0 0 0 0 0 0 0 0 0 
26.982 1 301 19.5256 9.43797 5.05592 1.55468 3.12272 -0.00172176 -0.172889 0.111981 -0.243905 0 0 0 0 0 0 0 0 0 
26.982 1 103 21.7571 9.22127 2.93954 4.50994 3.12634 4.58771 -0.430895 -0.372761 -0.116774 0 0 0 0 0 0 0 0 0 
26.982 1 262 21.8411 7.47563 5.02674 3.85416 3.92782 6.11448 -0.0548966 -0.539996 -0.338789 0 0 0 0 0 0 0 0 0 
26.982 1 305 23.897 9.15479 4.86793 -6.4844 6.98605 -1.80693 0.226691 0.275767 0.0404496 0 0 0 0 0 0 0 0 0 
26.982 1 68 23.9856 7.05278 2.92395 5.8863 1.65029 3.25652 -0.217018 0.31992 0.541429 0 0 0 0 0 0 0 0 0 
26.982 1 107 25.8714 9.20919 2.80206 1.66444 5.42428 -0.542064 0.43827 0.36237 0.209374 0 0 0 0 0 0 0 0 0 
26.982 1 266 26.2686 7.12908 4.74117 0.543989 -2.23676 0.536662 0.0182331 0.328998 0.072693 0 0 0 0 0 0 0 0 0 
26.982 1 72 28.264 7.45289 2.48263 -1.52488 -2.89912 6.07082 -0.0780264 -0.344767 0.535291 0 0 0 0 0 0 0 0 0 
26.982 1 309 28.081 9.35684 4.55056 7.33135 -2.2473 -1.08107 0.329218 0.134834 -0.337584 0 0 0 0 0 0 0 0 0 
26.982 1 111 30.2237 9.31513 2.60629 2.03031 4.74555 -3.05068 -0.0249086 0.629 -0.412905 0 0 0 0 0 0 0 0 0 
26.982 1 270 30.5897 7.66591 4.71333 -2.38679 -1.60076 -1.0281 -0.291147 -0.748763 -0.365849 0 0 0 0 0 0 0 0 0 
26.982 1 71 32.3648 7.70808 2.27694 -3.11403 5.93076 1.83146 0.252526 -0.210834 0.290167 0 0 0 0 0 0 0 0 0 
26.982 1 76 34.9628 7.74375 4.17536 -0.927461 -0.589281 5.61073 -0.580422 0.0774745 0.203975 0 0 0 0 0 0 0 0 0 
26.982 1 116 34.3135 9.54361 2.2883 2.25556 -4.835 1.73959 0.335671 0.693602 -0.477636 0 0 0 0 0 0 0 0 0 
26.982 1 310 32.4605 9.63122 4.43188 -3.5833 -1.71928 1.22921 0.131345 0.352768 -0.400912 0 0 0 0 0 0 0 0 0 
26.982 1 77 39.0621 6.1168 1.91399 0.401924 1.98701 0.978297 -0.170171 0.120782 0.0605492 0 0 0 0 0 0 0 0 0 
26.982 1 115 38.8102 8.17358 3.74258 1.90787 -2.82462 -3.55019 0.0194191 -0.00410254 0.470828 0 0 0 0 0 0 0 0 0 
26.982 1 74 36.7737 7.88483 2.02382 0.750635 1.64397 -5.19177 -0.302338 0.246256 -0.170215 0 0 0 0 0 0 0 0 0 
26.982 1 155 36.5658 10.0196 3.85973 3.84333 0.623061 -2.0144 0.129262 -0.21499 0.0297009 0 0 0 0 0 0 0 0 0 
26.982 1 314 36.9915 7.84106 5.96761 0.135512 3.51365 2.17665 0.255452 0.561371 0.381292 0 0 0 0 0 0 0 0 0 
26.982 1 274 39.1069 6.11892 6.14226 2.57658 -1.17992 -2.61625 -0.479655 -0.556289 -0.646857 0 0 0 0 0 0 0 0 0 
26.982 1 320 39.0477 10.0284 5.76108 -0.146565 -7.4853 3.16316 -0.729256 -0.365642 0.00364554 0 0 0 0 0 0 0 0 0 
26.982 1 80 41.1169 6.38449 3.92289 2.03114 0.484902 6.26608 -0.0891643 0.213823 0.60195 0 0 0 0 0 0 0 0 0 
26.982 1 317 41.2297 9.51031 4.39743 3.51107 -0.936479 -1.45294 0.195308 -0.561358 0.272465 0 0 0 0 0 0 0 0 0 
26.982 1 78 42.8944 6.55496 1.89185 -2.12585 4.95144 -1.18356 0.23479 0.0308885 -0.709923 0 0 0 0 0 0 0 0 0 
26.982 1 119 43.497 8.95617 2.84274 -1.25423 -0.229449 0.920006 0.250085 -0.0804067 -0.393859 0 0 0 0 0 0 0 0 0 
26.982 1 278 43.768 7.5686 5.05377 3.32123 -4.53009 5.40824 -0.22975 0.514821 -1.24102 0 0 0 0 0 0 0 0 0 
26.982 1 284 43.6919 10.5308 5.21706 -0.0678408 7.88577 5.43543 0.164929 0.172493 0.314083 0 0 0 0 0 0 0 0 0 
26.982 1 117 40.8632 8.41476 2.01857 -2.00706 -0.913444 0.409238 -0.260691 0.44426 -0.900982 0 0 0 0 0 0 0 0 0 
26.982 1 282 -1.75516 10.2324 3.92338 -0.540401 1.10638 -3.09288 -0.113234 -0.358094 0.0765712 0 0 0 0 0 0 0 0 0 
26.982 1 322 -2.19019 13.2271 3.82286 1.02289 5.07198 -3.90418 0.293489 -0.110202 0.0343683 0 0 0 0 0 0 0 0 0 
26.982 1 122 -0.577902 14.0146 1.39757 -3.40324 -2.31825 2.24331 0.123576 -0.398236 0.459085 0 0 0 0 0 0 0 0 0 
26.982 1 325 0.223219 11.8746 3.22129 2.6909 -0.51477 -0.712793 -0.352269 0.386369 0.186767 0 0 0 0 0 0 0 0 0 
26.982 1 328 -0.237772 14.2898 5.2468 -3.40945 7.39309 -3.52354 -0.163311 -0.124052 -0.171339 0 0 0 0 0 0 0 0 0 
26.982 1 2219 17.3405 20.4186 7.18328 -3.02597 7.14825 1.84861 -0.128016 -0.630709 0.0901606 0 0 0 0 0 0 0 0 0 
26.982 1 124 -3.6054 14.1487 1.86922 -5.4396 9.31566 4.24958 -0.0494523 -0.0520318 -0.76262 0 0 0 0 0 0 0 0 0 
26.982 1 128 1.98618 13.9491 3.58225 -5.20232 0.751756 0.273306 -0.142094 0.237828 0.0180329 0 0 0 0 0 0 0 0 0 
26.982 1 127 4.14462 12.2687 3.59116 -1.38328 3.67377 2.39275 -0.391201 0.0286934 -0.530641 0 0 0 0 0 0 0 0 0 
26.982 1 326 4.13973 14.2854 5.3587 -2.99374 0.702742 1.16396 -0.815799 0.49839 0.678838 0 0 0 0 0 0 0 0 0 
26.982 1 1193 35.7897 15.611 19.9426 5.64431 -3.42135 -1.02551 -0.0489761 0.0499532 0.132841 0 0 0 0 0 0 0 0 0 
26.982 1 327 1.93746 12.0064 5.73938 -4.4647 -6.9487 -1.47497 -0.0434774 0.489903 -0.222416 0 0 0 0 0 0 0 0 0 
26.982 1 329 6.21913 12.5977 5.55156 -3.83422 -3.99509 1.67298 0.290518 -0.316997 -0.257671 0 0 0 0 0 0 0 0 0 
26.982 1 132 5.59254 14.6101 3.136 2.43389 4.77248 0.586116 0.640554 -0.108048 0.166424 0 0 0 0 0 0 0 0 0 
26.982 1 131 8.11521 12.8107 3.14453 -2.15074 1.45436 0.826925 -0.795731 0.342858 0.375229 0 0 0 0 0 0 0 0 0 
26.982 1 330 7.74457 14.8582 5.06979 -1.24015 3.96296 4.65919 0.181898 0.204747 0.283934 0 0 0 0 0 0 0 0 0 
26.982 1 294 12.2801 11.2989 4.87909 1.14883 9.9793 -1.92841 0.540895 0.0968163 0.483161 0 0 0 0 0 0 0 0 0 
26.982 1 96 10.2245 11.1846 3.04027 6.7386 -0.334682 -2.62772 0.360777 -0.626861 0.00437296 0 0 0 0 0 0 0 0 0 
26.982 1 333 10.0072 13.1622 5.25482 -7.58352 0.997737 -1.67747 0.4337 0.196839 -0.978201 0 0 0 0 0 0 0 0 0 
26.982 1 135 12.0524 13.2953 3.00125 -6.87621 -4.79926 -0.674387 0.07095 0.476251 -0.120072 0 0 0 0 0 0 0 0 0 
26.982 1 136 9.79676 15.191 3.03242 3.1195 -1.6341 4.24924 -0.117197 0.0178882 0.339849 0 0 0 0 0 0 0 0 0 
26.982 1 334 11.858 15.3937 5.08494 0.3365 0.585012 -1.5666 -0.322561 0.196816 -0.187664 0 0 0 0 0 0 0 0 0 
26.982 1 100 14.3395 11.5674 2.96481 1.84681 -1.87605 -1.18939 0.0449258 0.149476 0.260532 0 0 0 0 0 0 0 0 0 
26.982 1 337 14.1452 13.5697 5.02487 -4.38394 -6.44698 -3.30973 0.0435536 -0.296509 -0.549635 0 0 0 0 0 0 0 0 0 
26.982 1 139 15.7717 14.1394 2.6933 0.41782 2.81347 5.16807 -0.132858 -0.614803 0.225726 0 0 0 0 0 0 0 0 0 
26.982 1 298 16.7234 11.5624 4.52254 2.90657 -0.866841 -1.00877 -0.241351 0.372153 -0.0474637 0 0 0 0 0 0 0 0 0 
26.982 1 338 15.9117 15.5625 5.0076 7.76152 -2.92724 3.47439 0.507918 1.02875 -0.13646 0 0 0 0 0 0 0 0 0 
26.982 1 302 21.7469 11.2033 4.88973 -1.19135 -1.78384 1.59335 0.0101424 -0.410676 -0.237651 0 0 0 0 0 0 0 0 0 
26.982 1 104 19.5414 11.3474 2.9422 -6.68056 -4.4277 4.15452 -0.52727 -0.63499 0.687723 0 0 0 0 0 0 0 0 0 
26.982 1 341 18.1788 13.7454 3.56176 -2.34106 4.53212 5.14927 0.166468 0.0325092 0.593517 0 0 0 0 0 0 0 0 0 
26.982 1 304 18.8977 12.0924 5.9908 2.41915 -5.30372 2.12446 0.467746 -0.137538 -0.233977 0 0 0 0 0 0 0 0 0 
26.982 1 143 20.829 13.7766 4.11155 -1.35178 -0.251448 4.22365 -0.283605 -0.150196 0.429079 0 0 0 0 0 0 0 0 0 
26.982 1 342 20.0122 16.4398 4.14836 -6.22245 2.18917 1.85207 0.0561343 -0.504057 -0.393297 0 0 0 0 0 0 0 0 0 
26.982 1 2816 13.5869 20.2739 19.056 2.55706 0.98462 3.00466 0.248797 -0.439029 0.0843268 0 0 0 0 0 0 0 0 0 
26.982 1 108 23.6775 11.0897 2.94358 4.05305 4.81675 6.18424 0.409975 0.17969 0.0460973 0 0 0 0 0 0 0 0 0 
26.982 1 306 25.8631 11.4041 4.75228 1.80217 -2.39696 -7.4559 0.291678 -0.143425 -0.514658 0 0 0 0 0 0 0 0 0 
26.982 1 148 23.199 16.738 4.52573 -1.74894 -7.38218 -5.80809 0.167197 -0.282602 -0.0439214 0 0 0 0 0 0 0 0 0 
26.982 1 345 23.5557 13.4469 4.3682 1.83632 0.609188 -5.70609 -0.767365 -0.147139 0.162373 0 0 0 0 0 0 0 0 0 
26.982 1 147 25.6224 13.1607 2.6909 -1.74936 -1.27803 -6.53066 0.812147 0.455887 -0.0443006 0 0 0 0 0 0 0 0 0 
26.982 1 385 25.5996 15.0145 4.71062 7.17254 -0.242994 -1.19797 0.315702 0.980315 -0.183405 0 0 0 0 0 0 0 0 0 
26.982 1 112 28.0381 11.3887 2.62774 6.46907 2.26079 0.119477 -0.562467 0.150173 0.0546896 0 0 0 0 0 0 0 0 0 
26.982 1 346 27.9423 13.4704 4.65876 -1.70817 0.276282 0.924008 -0.126227 -0.276034 -0.421257 0 0 0 0 0 0 0 0 0 
26.982 1 152 29.8895 13.5518 2.54903 -3.94184 3.02597 -2.31031 0.0037038 0.0932488 -0.283639 0 0 0 0 0 0 0 0 0 
26.982 1 349 30.1005 11.3755 4.31454 1.41705 -1.37923 0.540336 0.290842 0.150563 0.724065 0 0 0 0 0 0 0 0 0 
26.982 1 187 27.6886 15.41 2.59962 2.316 0.299536 -4.28657 -0.0246416 -0.871572 0.0564664 0 0 0 0 0 0 0 0 0 
26.982 1 151 32.2223 11.6072 2.27646 -5.63886 -1.04127 0.372727 -0.502971 0.238347 0.236731 0 0 0 0 0 0 0 0 0 
26.982 1 350 31.8872 13.8343 4.32516 -2.08781 4.97915 3.25084 0.695501 -0.228233 -0.326527 0 0 0 0 0 0 0 0 0 
26.982 1 156 34.3386 13.9113 2.00506 1.04692 -0.836954 0.16589 -1.24733 -0.0887317 0.0875374 0 0 0 0 0 0 0 0 0 
26.982 1 353 34.139 12.0333 3.99362 -0.314622 3.79473 -0.359294 0.783782 -0.126388 0.590982 0 0 0 0 0 0 0 0 0 
26.982 1 356 34.4548 13.9349 6.3672 2.56761 -6.73448 -0.0619846 0.0289952 -0.692692 -0.517871 0 0 0 0 0 0 0 0 0 
26.982 1 114 36.3507 12.0806 2.04262 -4.48173 -3.13854 5.22017 -0.246642 -0.315206 -0.513631 0 0 0 0 0 0 0 0 0 
26.982 1 354 36.2944 14.009 3.93943 -2.30068 -0.176533 1.36028 -0.993016 -0.383523 1.14157 0 0 0 0 0 0 0 0 0 
26.982 1 160 38.0484 14.8024 2.4541 -0.920697 -3.72947 4.2549 0.759508 0.776972 -0.812859 0 0 0 0 0 0 0 0 0 
26.982 1 357 38.4873 12.1972 3.84728 -0.298565 2.83131 3.37123 -0.39787 -0.234587 0.493162 0 0 0 0 0 0 0 0 0 
26.982 1 360 38.7367 14.2232 5.52393 1.13562 -3.82122 -1.58922 0.0598171 0.269566 -0.165881 0 0 0 0 0 0 0 0 0 
26.982 1 157 40.0347 13.1073 2.06077 2.46671 -1.28549 -2.74208 0.867243 -0.648803 -0.335007 0 0 0 0 0 0 0 0 0 
26.982 1 355 36.6703 11.7839 5.80423 5.02232 3.17564 -4.27055 0.0300282 0.864181 0.664053 0 0 0 0 0 0 0 0 0 
26.982 1 120 42.2127 11.1885 2.46815 -2.31731 -3.59903 -3.08524 -0.65201 0.745886 -0.619427 0 0 0 0 0 0 0 0 0 
26.982 1 84 -3.92794 11.3374 2.89878 1.31032 -3.24736 0.277228 -0.5031 -0.174079 -0.0627945 0 0 0 0 0 0 0 0 0 
26.982 1 318 40.9936 12.2573 4.96562 7.49948 5.02339 3.87272 0.109938 0.365712 -0.0660582 0 0 0 0 0 0 0 0 0 
26.982 1 321 43.5779 13.4123 3.95606 -3.11741 -1.32844 6.28182 -0.436155 0.135544 0.876072 0 0 0 0 0 0 0 0 0 
26.982 1 159 42.2244 14.7669 1.71868 -1.35414 0.151238 -2.30885 0.434488 0.606826 0.0773667 0 0 0 0 0 0 0 0 0 
26.982 1 358 41.1446 15.3314 4.11248 3.84515 5.90348 1.17713 -0.0528326 -0.144328 0.400326 0 0 0 0 0 0 0 0 0 
26.982 1 2639 40.8895 20.2087 13.4929 -2.2835 2.51396 -3.20682 0.0330755 0.381204 -0.160288 0 0 0 0 0 0 0 0 0 
26.982 1 161 -1.894 16.1476 3.02206 3.43655 2.76165 1.29474 0.498737 -0.0124365 -0.231606 0 0 0 0 0 0 0 0 0 
26.982 1 163 44.6039 18.9717 2.96329 -1.48008 -2.71543 1.64736 -0.457695 -0.607317 0.454313 0 0 0 0 0 0 0 0 0 
26.982 1 362 -2.15518 18.8943 4.80568 5.98683 4.12174 -0.43671 0.157116 -0.757297 0.205796 0 0 0 0 0 0 0 0 0 
26.982 1 363 -2.80894 15.8617 5.48063 0.138646 -0.125229 6.00739 0.397692 0.377261 0.311276 0 0 0 0 0 0 0 0 0 
26.982 1 631 30.4912 2.11709 13.9472 2.73355 -6.50299 0.299986 0.365545 -0.712507 0.147262 0 0 0 0 0 0 0 0 0 
26.982 1 125 2.15135 12.1352 1.23765 7.84941 -2.85196 -3.74892 -0.0875854 0.635478 0.495333 0 0 0 0 0 0 0 0 0 
26.982 1 365 1.50262 16.3932 5.1696 -2.60826 7.22298 -6.52204 -0.0186986 -0.0362811 0.327086 0 0 0 0 0 0 0 0 0 
26.982 1 168 0.539522 18.6319 3.80052 -0.785847 -0.161092 4.18273 -0.0207857 -0.11929 0.128028 0 0 0 0 0 0 0 0 0 
26.982 1 167 3.65692 16.4224 3.46184 7.05255 -2.33872 2.98177 -0.255785 0.461451 0.25111 0 0 0 0 0 0 0 0 0 
26.982 1 366 3.10521 18.6348 5.81726 0.141723 -1.328 -3.26644 -0.135581 0.408959 -0.247674 0 0 0 0 0 0 0 0 0 
26.982 1 98 16.8603 11.799 1.68395 -0.0513825 2.25565 1.6877 0.349567 0.155382 -0.468919 0 0 0 0 0 0 0 0 0 
26.982 1 369 5.5823 16.8653 5.45093 -0.0449273 -5.90637 -2.43714 -0.0242229 -0.18799 -0.00767748 0 0 0 0 0 0 0 0 0 
26.982 1 172 4.96419 18.9825 3.39182 4.15973 3.23274 2.61377 -0.287425 -0.575683 0.085927 0 0 0 0 0 0 0 0 0 
26.982 1 171 7.32656 16.8665 3.30217 -2.4207 -7.01688 -6.90401 0.0835611 0.393487 -0.421672 0 0 0 0 0 0 0 0 0 
26.982 1 370 7.11593 19.0801 5.14701 -0.531557 -2.60158 -5.34552 0.170241 0.186501 0.187095 0 0 0 0 0 0 0 0 0 
26.982 1 176 8.97917 19.2639 3.02875 3.292 6.10324 0.885343 0.00431245 -0.0135111 0.362854 0 0 0 0 0 0 0 0 0 
26.982 1 373 9.59773 17.2167 5.3057 -0.887181 0.930429 5.19497 0.274633 0.160457 -0.367673 0 0 0 0 0 0 0 0 0 
26.982 1 175 11.2831 17.5974 3.18568 8.60203 -2.28973 -0.400796 0.0523248 -0.0995652 -0.0074279 0 0 0 0 0 0 0 0 0 
26.982 1 374 11.0544 19.8305 5.21787 0.83414 -0.134422 0.927644 0.428297 -0.805082 -0.632642 0 0 0 0 0 0 0 0 0 
26.982 1 180 13.0551 19.7473 2.99713 -1.82616 1.09237 -5.86591 0.0735623 0.384329 0.537275 0 0 0 0 0 0 0 0 0 
26.982 1 140 13.6652 15.6818 3.05784 9.78361 2.99209 0.0603926 -0.40988 0.355492 0.0630429 0 0 0 0 0 0 0 0 0 
26.982 1 999 41.8016 15.9911 17.3997 4.80404 5.22816 0.946549 0.390164 0.707465 0.0621327 0 0 0 0 0 0 0 0 0 
26.982 1 377 13.3409 17.7291 5.18524 5.87471 6.53247 -2.14288 0.169586 0.383253 -0.305046 0 0 0 0 0 0 0 0 0 
26.982 1 179 17.5273 16.1717 2.53139 5.7924 -4.66479 -3.8536 0.0940269 0.382108 0.379587 0 0 0 0 0 0 0 0 0 
26.982 1 178 15.43 17.9681 3.18562 1.21449 7.80236 -4.43835 -0.321646 0.0129493 -0.270942 0 0 0 0 0 0 0 0 0 
26.982 1 378 19.086 18.5685 2.74814 -0.918231 6.35209 -3.64683 0.301592 0.117823 -0.49072 0 0 0 0 0 0 0 0 0 
26.982 1 381 17.5803 17.8865 4.89233 -6.67149 8.67317 3.10084 -0.235492 -0.0649075 0.470828 0 0 0 0 0 0 0 0 0 
26.982 1 183 21.2793 18.7242 4.70608 3.04509 1.97446 -7.92184 0.155893 0.312922 0.417986 0 0 0 0 0 0 0 0 0 
26.982 1 382 23.3911 19.1364 2.83507 0.797754 3.61901 0.552198 -0.545793 0.193203 -0.363645 0 0 0 0 0 0 0 0 0 
26.982 1 188 25.417 17.3105 2.82109 -6.39576 -2.87293 -1.02885 0.238098 -0.836185 -0.0888498 0 0 0 0 0 0 0 0 0 
26.982 1 2225 25.3951 19.097 4.72052 -0.720852 3.33722 -5.06839 0.0434708 0.278793 -0.077453 0 0 0 0 0 0 0 0 0 
26.982 1 389 29.9289 15.6677 4.45515 -3.60413 -0.300028 -0.843167 0.262692 -0.359806 -0.606875 0 0 0 0 0 0 0 0 0 
26.982 1 2229 29.5868 19.4111 4.48009 1.05742 -4.89892 0.152901 0.497447 0.3054 -0.330489 0 0 0 0 0 0 0 0 0 
26.982 1 386 27.7304 17.1913 4.43931 -1.18872 -0.773321 1.51044 -0.365524 0.905496 0.0668563 0 0 0 0 0 0 0 0 0 
26.982 1 192 29.7588 17.7171 2.35935 0.891993 3.97942 -0.66776 0.00691571 -0.723481 0.570986 0 0 0 0 0 0 0 0 0 
26.982 1 2027 27.3202 19.4043 2.64099 -3.32958 -3.88754 -1.79411 0.590105 -0.348419 -0.0781217 0 0 0 0 0 0 0 0 0 
26.982 1 2031 31.7576 19.6271 2.13654 1.82906 -4.0168 -0.674293 -0.102691 0.363967 0.707678 0 0 0 0 0 0 0 0 0 
26.982 1 191 31.8818 15.7615 2.12498 6.63707 7.6489 -3.94408 -0.173453 -0.14035 0.592079 0 0 0 0 0 0 0 0 0 
26.982 1 390 32.1612 17.6267 4.32757 -4.2022 4.7869 -3.73569 -1.08023 0.281241 0.349024 0 0 0 0 0 0 0 0 0 
26.982 1 393 33.9577 15.6671 4.2145 -6.4977 0.473763 6.05326 0.299427 -0.14775 -0.0285617 0 0 0 0 0 0 0 0 0 
26.982 1 196 33.6567 17.8177 2.24434 -0.00636276 1.89145 3.94859 0.439663 0.278409 -0.585253 0 0 0 0 0 0 0 0 0 
26.982 1 2233 33.9113 19.763 4.14859 -1.8479 -0.499583 -6.55075 0.155964 0.175166 0.0346416 0 0 0 0 0 0 0 0 0 
26.982 1 195 35.7032 16.2223 2.15669 -0.00217232 -0.332311 3.30662 0.556598 -0.181027 -0.2334 0 0 0 0 0 0 0 0 0 
26.982 1 394 36.5861 18.8939 4.88382 -1.63251 7.76551 -1.43537 -0.097254 -0.319369 -0.11445 0 0 0 0 0 0 0 0 0 
26.982 1 397 38.8372 17.0301 4.3634 2.63614 -3.42439 1.429 0.242597 -0.0476844 0.30038 0 0 0 0 0 0 0 0 0 
26.982 1 200 37.6176 18.1697 2.08409 1.87117 2.7076 5.12855 0.43861 0.239255 0.115019 0 0 0 0 0 0 0 0 0 
26.982 1 395 36.3897 16.0789 5.67112 2.93204 5.1512 -0.0979417 -0.170162 0.187662 -0.0835905 0 0 0 0 0 0 0 0 0 
26.982 1 2035 35.8803 20.2572 2.31518 6.64076 -0.249359 -1.21767 -0.228744 -0.337369 -0.393525 0 0 0 0 0 0 0 0 0 
26.982 1 2237 39.024 19.9327 4.17094 1.9068 -0.330111 -4.16473 0.0589632 -0.14999 0.457185 0 0 0 0 0 0 0 0 0 
26.982 1 361 43.9916 16.1615 3.61461 -9.34137 -1.54104 0.572947 -0.514304 0.0578101 0.253248 0 0 0 0 0 0 0 0 0 
26.982 1 164 41.7209 18.1516 3.91958 0.475385 0.337059 -10.5932 -0.512921 -0.941492 0.281969 0 0 0 0 0 0 0 0 0 
26.982 1 398 40.0586 16.8132 1.77778 -0.383272 1.89895 5.72831 0.299465 -0.0937335 0.258208 0 0 0 0 0 0 0 0 0 
26.982 1 364 43.779 18.0679 5.67506 -2.28399 3.11536 -0.0103981 0.375148 -0.00137521 0.0710545 0 0 0 0 0 0 0 0 0 
26.982 1 2239 41.4838 19.9926 6.05819 3.80862 -2.46224 -1.48894 -0.0428856 -0.542539 -0.175415 0 0 0 0 0 0 0 0 0 
26.982 1 1920 38.5057 10.4193 1.93112 -2.36713 -2.46986 2.1944 0.18216 -0.341106 -0.340696 0 0 0 0 0 0 0 0 0 
26.982 1 203 -0.484831 1.62358 7.52636 -1.06269 -1.87893 2.15437 -1.18978 0.272297 0.219133 0 0 0 0 0 0 0 0 0 
26.982 1 401 -3.08183 2.07607 10.1788 1.65023 -5.23848 6.07867 0.197051 -0.269584 0.299611 0 0 0 0 0 0 0 0 0 
26.982 1 441 -0.869805 3.63275 9.90104 -0.702525 -0.832122 -3.81749 -0.135137 -0.0811209 0.00943997 0 0 0 0 0 0 0 0 0 
26.982 1 204 -2.61944 3.51147 7.51562 -1.62838 -1.31108 4.55189 -0.492901 -0.539311 0.131168 0 0 0 0 0 0 0 0 0 
26.982 1 243 1.03628 3.9833 7.74235 -5.22254 -6.30908 1.29176 -0.147821 0.0552844 -0.0666904 0 0 0 0 0 0 0 0 0 
26.982 1 402 1.1113 1.69143 9.68496 -0.998216 -6.21329 -4.6306 0.58619 0.442796 0.256515 0 0 0 0 0 0 0 0 0 
26.982 1 208 3.27811 2.36075 7.63522 8.84857 -0.769187 6.91262 0.145495 -0.469394 0.403887 0 0 0 0 0 0 0 0 0 
26.982 1 445 3.10153 4.39447 9.76198 -2.38123 2.79646 0.481998 -0.0534255 -0.807122 -0.164701 0 0 0 0 0 0 0 0 0 
26.982 1 247 5.15563 4.51749 7.652 -1.79156 -7.14931 2.86233 -0.0773465 -0.377261 -0.528894 0 0 0 0 0 0 0 0 0 
26.982 1 406 5.50695 2.37304 9.66547 3.99518 5.64349 0.432751 -0.823707 -0.135097 -0.597886 0 0 0 0 0 0 0 0 0 
26.982 1 212 7.29306 2.35158 7.36491 5.24103 -0.0856303 0.223793 0.200864 0.510853 0.086769 0 0 0 0 0 0 0 0 0 
26.982 1 449 7.44962 4.43688 9.27982 3.27703 -0.46517 6.22263 -0.0979888 0.313263 0.51708 0 0 0 0 0 0 0 0 0 
26.982 1 251 9.3317 4.69153 7.33913 -1.29722 -0.541496 1.40238 -0.0371049 -0.511033 -0.573153 0 0 0 0 0 0 0 0 0 
26.982 1 410 9.46152 2.41314 9.32307 2.64462 -0.455033 8.83066 0.138148 0.383148 -0.414332 0 0 0 0 0 0 0 0 0 
26.982 1 453 11.6264 4.85616 9.07235 -0.00957779 -6.93527 8.4436 -0.275199 -0.422731 0.152854 0 0 0 0 0 0 0 0 0 
26.982 1 216 11.4462 2.60249 7.27857 2.10391 -0.555245 3.9671 0.0897165 0.358839 -0.0384614 0 0 0 0 0 0 0 0 0 
26.982 1 255 13.5718 5.17712 6.97488 4.13093 -4.3136 -1.27918 -0.125906 -0.534175 -0.356868 0 0 0 0 0 0 0 0 0 
26.982 1 414 13.835 2.94059 9.00639 1.07631 3.36691 4.87401 -0.327731 0.382392 -0.243595 0 0 0 0 0 0 0 0 0 
26.982 1 457 15.7403 5.36404 8.73663 -0.0134699 2.70531 -1.19253 -0.391157 -0.625761 0.22662 0 0 0 0 0 0 0 0 0 
26.982 1 220 15.774 3.02492 6.95084 2.90749 5.16505 -4.73456 -0.651014 0.34567 -0.327293 0 0 0 0 0 0 0 0 0 
26.982 1 418 17.6199 3.11336 8.80157 -0.612839 -0.635333 -1.13603 0.253026 0.622239 0.592954 0 0 0 0 0 0 0 0 0 
26.982 1 259 17.5444 5.32367 6.7099 4.12886 1.60488 0.105603 0.100622 -0.0753629 0.182018 0 0 0 0 0 0 0 0 0 
26.982 1 224 19.4158 3.25684 6.92457 5.15378 -2.15107 -2.43124 0.991441 0.247307 -0.248097 0 0 0 0 0 0 0 0 0 
26.982 1 461 19.581 5.48899 8.76533 2.97074 -0.596471 -2.3316 -0.145111 -0.594123 -0.154201 0 0 0 0 0 0 0 0 0 
26.982 1 422 21.7838 3.52255 8.67488 -1.22036 -3.79392 1.98441 -0.20622 0.0131213 -0.169839 0 0 0 0 0 0 0 0 0 
26.982 1 463 21.7674 5.49767 10.6683 5.50752 -0.850192 -3.95568 -0.217118 -0.434801 -0.305596 0 0 0 0 0 0 0 0 0 
26.982 1 424 19.9598 3.26059 10.7405 -2.73336 -2.20476 -5.76196 0.324603 0.749838 0.0774035 0 0 0 0 0 0 0 0 0 
26.982 1 263 21.8652 6.09516 7.38442 -4.73001 0.51895 1.74224 0.319123 -0.177677 0.232299 0 0 0 0 0 0 0 0 0 
26.982 1 228 24.0508 4.40128 7.38545 -2.91977 -1.70263 -0.441469 0.422561 -0.371157 0.503058 0 0 0 0 0 0 0 0 0 
26.982 1 465 24.2438 6.1473 9.63923 3.02692 -0.0508357 3.63738 -0.0135018 0.0947917 -0.779859 0 0 0 0 0 0 0 0 0 
26.982 1 227 26.4989 2.33374 7.61363 11.5885 0.803363 0.121134 0.0130828 0.706673 -0.623197 0 0 0 0 0 0 0 0 0 
26.982 1 426 26.4956 4.39056 9.37231 -0.253271 0.401244 -5.8837 -0.818991 0.29714 -0.165082 0 0 0 0 0 0 0 0 0 
26.982 1 428 23.8634 3.37345 10.5817 2.62463 2.79967 -0.34876 0.261255 0.588388 -0.0925615 0 0 0 0 0 0 0 0 0 
26.982 1 427 26.2566 1.6842 10.3845 0.0631267 6.18278 5.24254 -0.607208 -0.0739849 0.169594 0 0 0 0 0 0 0 0 0 
26.982 1 429 28.5271 2.66976 9.40379 -7.02886 2.6661 3.84376 1.02887 -0.230414 0.205463 0 0 0 0 0 0 0 0 0 