ITEM: TIMESTEP
13250
ITEM: NUMBER OF ATOMS
4000
ITEM: BOX BOUNDS pp pp pp
-2.76715 43.2672
0.765131 39.7349
0.72693 39.7731
ITEM: ATOMS mass type id x y z vx vy vz fx fy fz xrad yrad zrad vxrad vyrad vzrad fxrad fyrad fzrad 
26.982 1 43 -0.454736 4.77999 2.72131 -1.38484 -1.01014 5.12886 -0.34507 -0.393256 0.097776 0 0 0 0 0 0 0 0 0 
26.982 1 202 -0.512655 2.67814 4.78269 2.26563 -4.03241 -1.33695 -0.668406 0.719613 -1.00649 0 0 0 0 0 0 0 0 0 
26.982 1 3 -0.516036 0.712898 2.60081 -2.79909 0.687228 -1.19506 -0.0996592 0.364648 0.378024 0 0 0 0 0 0 0 0 0 
26.982 1 41 -2.75751 4.65353 0.580894 3.9907 5.13382 -0.35919 -0.00161613 0.220055 0.266829 0 0 0 0 0 0 0 0 0 
26.982 1 2 -0.27532 2.78231 0.735093 0.83899 0.360325 -7.05899 -0.605242 0.217054 0.234758 0 0 0 0 0 0 0 0 0 
26.982 1 245 1.79385 4.68725 4.55292 -0.940377 0.524727 2.72689 0.121099 0.335948 0.473353 0 0 0 0 0 0 0 0 0 
26.982 1 8 1.79861 2.83093 2.76888 -4.59831 -1.29788 2.11906 0.000227822 -0.516794 -0.138328 0 0 0 0 0 0 0 0 0 
26.982 1 47 4.22401 4.59925 2.6984 -0.503975 -0.207572 2.00878 -0.217517 0.309804 0.155957 0 0 0 0 0 0 0 0 0 
26.982 1 206 3.99359 2.59521 4.63921 -0.255391 -0.0708625 0.391378 0.0581005 0.137574 0.12347 0 0 0 0 0 0 0 0 0 
26.982 1 205 1.54608 0.748902 4.64456 -0.167138 0.539668 -0.135963 0.654608 0.223063 0.0789379 0 0 0 0 0 0 0 0 0 
26.982 1 45 1.75441 4.82991 0.876274 -0.627944 0.409026 -4.6417 0.348333 -0.140373 -0.497253 0 0 0 0 0 0 0 0 0 
26.982 1 7 4.22014 0.798258 2.70719 0.00458001 4.87678 0.822648 -0.138814 -0.314522 0.114758 0 0 0 0 0 0 0 0 0 
26.982 1 249 6.38784 4.47675 4.68323 1.19526 5.46803 -2.83754 -0.00517761 0.196936 0.216457 0 0 0 0 0 0 0 0 0 
26.982 1 12 6.44074 2.77062 2.61541 1.57716 -3.3922 -1.49597 -0.0668631 0.0590799 -0.252605 0 0 0 0 0 0 0 0 0 
26.982 1 51 8.67748 4.65679 2.64207 0.275367 5.7943 -4.7087 0.217694 0.148984 0.269557 0 0 0 0 0 0 0 0 0 
26.982 1 210 8.72381 2.73767 4.50002 2.41399 -1.32099 -7.58666 0.24982 0.374836 0.509704 0 0 0 0 0 0 0 0 0 
26.982 1 49 6.41803 4.5981 0.62253 1.73191 0.152792 3.89545 -0.178069 0.206933 0.372528 0 0 0 0 0 0 0 0 0 
26.982 1 10 8.70762 2.74419 0.763862 -6.70269 1.15653 1.82334 0.085584 -0.137251 -0.408165 0 0 0 0 0 0 0 0 0 
26.982 1 253 10.9552 4.73426 4.71899 5.99377 -6.35259 -2.45362 -0.195838 -0.0162223 -0.463133 0 0 0 0 0 0 0 0 0 
26.982 1 16 11.0946 2.58191 2.77762 -5.92554 -0.441753 3.59894 0.157201 0.553161 -0.27535 0 0 0 0 0 0 0 0 0 
26.982 1 55 13.445 4.57791 2.62792 3.7641 2.2362 5.14986 -0.240273 -0.172833 -0.156438 0 0 0 0 0 0 0 0 0 
26.982 1 214 13.5646 2.58982 4.55678 -0.743252 -0.58719 -0.0471668 -0.462711 0.30045 0.00847794 0 0 0 0 0 0 0 0 0 
26.982 1 14 13.4583 2.68608 0.719841 -0.479228 -1.12878 4.7243 -0.156823 -0.573784 0.264263 0 0 0 0 0 0 0 0 0 
26.982 1 15 13.4172 0.698932 2.64147 -5.34461 -3.27606 -1.89636 0.0659529 -0.0976218 -0.149332 0 0 0 0 0 0 0 0 0 
26.982 1 20 15.6936 2.5899 2.79409 5.92387 1.46996 1.30003 0.168365 0.0846751 -0.788151 0 0 0 0 0 0 0 0 0 
26.982 1 257 15.5278 4.51213 4.64867 1.60913 1.38015 -0.998565 0.279516 0.40631 -0.104747 0 0 0 0 0 0 0 0 0 
26.982 1 218 18.0464 2.57762 4.81503 6.64205 -4.84697 -1.61885 0.0111648 0.467403 -0.52536 0 0 0 0 0 0 0 0 0 
26.982 1 59 17.8184 4.48875 2.88184 -4.09802 1.13743 -4.99703 0.300661 0.270976 -0.132121 0 0 0 0 0 0 0 0 0 
26.982 1 24 20.4041 2.70854 2.79178 -2.04669 -1.74734 5.69908 -0.32514 0.014368 0.224415 0 0 0 0 0 0 0 0 0 
26.982 1 261 20.3395 4.72215 4.89219 -1.92845 -0.280332 0.66297 -0.104517 0.100006 -1.16003 0 0 0 0 0 0 0 0 0 
26.982 1 63 22.4848 4.67639 2.61273 1.87061 1.68366 2.79405 0.158125 0.0190885 0.279408 0 0 0 0 0 0 0 0 0 
26.982 1 222 22.7983 2.77234 4.50166 -3.48541 4.15279 -2.22201 -0.654346 -0.812006 0.144879 0 0 0 0 0 0 0 0 0 
26.982 1 28 24.9722 2.79543 2.74086 3.79128 -0.0783048 2.2212 -0.148428 -0.202234 -0.428773 0 0 0 0 0 0 0 0 0 
26.982 1 265 24.695 4.57494 4.67741 -0.961238 0.173633 -1.74465 0.661236 0.678913 -0.200082 0 0 0 0 0 0 0 0 0 
26.982 1 225 25.0706 0.623732 4.53579 -5.64397 0.500176 0.456459 -0.678507 0.109373 -0.0520758 0 0 0 0 0 0 0 0 0 
26.982 1 23 22.6202 0.714343 2.73584 1.55413 -0.838827 -2.61993 0.2093 0.0262805 -0.127318 0 0 0 0 0 0 0 0 0 
26.982 1 22 22.5684 2.60892 0.805758 -2.23882 -4.82239 3.62871 0.221001 0.256887 -0.0732135 0 0 0 0 0 0 0 0 0 
26.982 1 67 27.0162 4.80858 2.70811 -0.730181 -4.78773 3.37193 0.230349 -0.242133 0.216308 0 0 0 0 0 0 0 0 0 
26.982 1 226 27.0704 2.65347 4.55731 1.26214 2.64161 -6.46132 0.348889 1.01881 0.0366979 0 0 0 0 0 0 0 0 0 
26.982 1 32 29.401 2.55014 2.71068 -0.0920699 -0.900828 3.17824 0.113046 0.115263 0.248194 0 0 0 0 0 0 0 0 0 
26.982 1 269 29.3966 4.81676 4.44324 -0.697922 -0.670961 1.82348 -0.27534 -0.57775 0.45651 0 0 0 0 0 0 0 0 0 
26.982 1 26 27.2725 2.71951 0.730426 0.360513 2.82055 0.547936 -0.300344 -0.0710887 0.0890407 0 0 0 0 0 0 0 0 0 
26.982 1 71 31.6922 4.72523 2.82077 -0.991338 0.795527 -0.738181 0.107942 -0.17257 -0.447036 0 0 0 0 0 0 0 0 0 
26.982 1 230 31.6819 2.83362 4.73098 0.72456 4.62258 -4.36027 0.164355 -0.274952 -0.0623069 0 0 0 0 0 0 0 0 0 
26.982 1 273 33.8624 4.82026 4.62732 -5.78367 0.99153 0.129344 0.446505 -0.0905077 0.253436 0 0 0 0 0 0 0 0 0 
26.982 1 36 34.1917 2.84155 2.77098 -1.21999 3.50036 2.29296 -0.392927 -0.475737 0.15742 0 0 0 0 0 0 0 0 0 
26.982 1 233 34.1462 0.530499 4.8292 5.05768 0.0889731 -1.87828 -0.0167831 0.498757 -0.298335 0 0 0 0 0 0 0 0 0 
26.982 1 75 36.3804 4.54383 2.81526 0.904522 -0.979922 3.73864 0.12063 0.143996 -0.0564045 0 0 0 0 0 0 0 0 0 
26.982 1 234 36.3693 2.55219 4.72861 -3.58543 -2.60184 4.20547 -0.0133117 0.0991159 0.280617 0 0 0 0 0 0 0 0 0 
26.982 1 40 38.8276 2.73858 2.69567 -1.57656 1.50965 2.15685 -0.492389 0.141992 0.318749 0 0 0 0 0 0 0 0 0 
26.982 1 277 38.6324 4.82973 4.58525 1.4181 -4.41236 2.83346 0.171097 -0.575904 0.43894 0 0 0 0 0 0 0 0 0 
26.982 1 35 36.3733 0.876753 2.66721 -2.05319 1.29317 -5.45258 0.237272 -0.263808 0.153559 0 0 0 0 0 0 0 0 0 
26.982 1 237 38.6609 0.75468 4.85179 1.95708 0.906656 -2.13998 0.175329 0.5255 -0.475369 0 0 0 0 0 0 0 0 0 
26.982 1 4 43.1523 2.79005 2.6968 -0.453511 -4.01675 -2.56657 0.488281 0.0713983 0.178719 0 0 0 0 0 0 0 0 0 
26.982 1 241 43.2717 4.69044 4.83323 2.39451 0.736235 -1.86488 0.0825067 -0.112751 -0.168597 0 0 0 0 0 0 0 0 0 
26.982 1 79 40.9905 4.72138 2.77776 -0.0777439 -3.17643 0.927989 -0.0855409 -0.0659616 0.246688 0 0 0 0 0 0 0 0 0 
26.982 1 238 40.8655 2.88503 4.85937 -1.07354 -1.01413 0.773762 -0.0043304 -0.455667 -0.46877 0 0 0 0 0 0 0 0 0 
26.982 1 201 43.2575 0.684435 4.65322 -2.61122 2.22347 -2.35587 0.25118 0.712397 0.363117 0 0 0 0 0 0 0 0 0 
26.982 1 39 41.0126 0.938425 2.7392 3.45161 -1.98881 -2.18865 -0.139563 -0.373605 0.260824 0 0 0 0 0 0 0 0 0 
26.982 1 38 40.8931 2.81768 0.815743 2.81433 -2.376 -4.58583 0.268704 0.0104903 -0.481863 0 0 0 0 0 0 0 0 0 
26.982 1 83 -0.54474 8.53754 2.62721 -1.58486 -1.64683 7.64714 0.0475805 -0.0367926 -0.118856 0 0 0 0 0 0 0 0 0 
26.982 1 242 -0.291416 6.71587 4.70804 0.402629 0.410733 0.909105 -0.848984 -0.202503 0.103987 0 0 0 0 0 0 0 0 0 
26.982 1 44 -2.76377 6.51837 2.7666 3.07579 -0.0473489 0.0241631 0.0505491 -0.224111 -0.272909 0 0 0 0 0 0 0 0 0 
26.982 1 82 -0.638088 10.5775 0.765397 6.046 0.879708 -0.68522 0.197891 -0.309088 -0.0529021 0 0 0 0 0 0 0 0 0 
26.982 1 48 1.65557 6.72137 2.73934 -10.4977 2.758 -0.95649 0.314246 0.164221 -0.232806 0 0 0 0 0 0 0 0 0 
26.982 1 285 1.67925 8.66467 4.62944 0.147038 1.90835 -1.67884 0.158221 0.0421221 0.236046 0 0 0 0 0 0 0 0 0 
26.982 1 87 3.99322 8.57191 2.69209 -2.51973 -2.36743 0.107535 0.117448 0.223122 0.271705 0 0 0 0 0 0 0 0 0 
26.982 1 246 3.86131 6.63727 4.64818 -2.54997 5.22446 1.68476 0.354464 0.0617791 0.185379 0 0 0 0 0 0 0 0 0 
26.982 1 88 1.69163 10.4201 2.65801 -0.612508 0.0165149 -4.53245 0.0625117 0.385253 0.180564 0 0 0 0 0 0 0 0 0 
26.982 1 286 3.98527 10.4544 4.76999 -1.11086 0.136103 1.92482 0.0956616 0.252906 -0.605455 0 0 0 0 0 0 0 0 0 
26.982 1 86 3.95753 10.4143 0.619527 2.33888 -0.693881 -1.9522 0.158035 -0.0329591 0.411355 0 0 0 0 0 0 0 0 0 
26.982 1 289 6.23604 8.528 4.69653 0.73 1.4414 3.09453 -0.0845519 0.370847 0.0349399 0 0 0 0 0 0 0 0 0 
26.982 1 52 6.34417 6.52535 2.86707 3.84769 5.04663 0.481925 -0.196423 0.0189315 -0.539475 0 0 0 0 0 0 0 0 0 
26.982 1 91 8.55815 8.51794 2.86421 -0.458801 -5.45905 -0.626702 0.103112 0.157181 -0.411967 0 0 0 0 0 0 0 0 0 
26.982 1 250 8.48665 6.51493 4.69875 -1.58504 -0.629733 0.864688 0.392889 0.0488072 0.304677 0 0 0 0 0 0 0 0 0 
26.982 1 92 6.35233 10.4228 2.57096 3.95398 2.06893 -0.212769 -0.293037 0.466958 0.526112 0 0 0 0 0 0 0 0 0 
26.982 1 290 8.41832 10.6335 4.77245 2.14849 1.6583 -1.50973 0.533074 -0.508794 -0.032796 0 0 0 0 0 0 0 0 0 
26.982 1 89 6.17168 8.48668 0.750145 -1.1902 -1.22638 1.6877 0.547832 -0.262984 -0.0214556 0 0 0 0 0 0 0 0 0 
26.982 1 293 10.9415 8.61564 4.63403 0.923357 0.701684 0.234796 -0.319293 0.169311 1.13623 0 0 0 0 0 0 0 0 0 
26.982 1 56 10.8962 6.70415 2.88529 0.0671506 -1.64634 -0.115895 -0.218555 -0.672758 -0.496085 0 0 0 0 0 0 0 0 0 
26.982 1 95 13.1397 8.49076 2.95806 -4.66291 2.48902 2.82894 0.332166 0.113637 -0.590682 0 0 0 0 0 0 0 0 0 
26.982 1 254 13.2939 6.40741 4.58766 -4.9811 0.932312 -6.081 -0.0857632 0.589188 0.1367 0 0 0 0 0 0 0 0 0 
26.982 1 60 15.5411 6.55584 2.86027 5.27756 0.48825 1.8032 0.212276 -0.41647 -0.60226 0 0 0 0 0 0 0 0 0 
26.982 1 297 15.5703 8.44202 4.6135 0.688943 6.01021 0.355115 0.109764 0.882521 0.119297 0 0 0 0 0 0 0 0 0 
26.982 1 99 18.0572 8.72704 2.64863 2.30602 0.981254 -1.89846 -0.301273 -0.826367 -0.0590883 0 0 0 0 0 0 0 0 0 
26.982 1 258 18.0252 6.59015 4.47657 5.36492 1.39219 0.764646 -0.0408404 0.0635862 0.167624 0 0 0 0 0 0 0 0 0 
26.982 1 298 17.9538 10.6634 4.57627 3.87079 -1.08541 2.00736 -0.0456675 -0.284179 0.502934 0 0 0 0 0 0 0 0 0 
26.982 1 98 17.8248 10.5032 0.647342 -1.25468 2.53288 -0.996589 0.336107 0.0366684 0.13343 0 0 0 0 0 0 0 0 0 
26.982 1 64 20.2386 6.52703 2.60837 -2.99358 -3.29511 -0.61543 0.103459 0.0459693 -0.0245184 0 0 0 0 0 0 0 0 0 
26.982 1 301 20.2141 8.47343 4.45933 -0.371767 0.206734 1.69281 0.206405 -0.0222762 0.42164 0 0 0 0 0 0 0 0 0 
26.982 1 104 19.9875 10.5684 2.69356 -5.01662 -1.42639 -2.18699 0.920278 -0.0688106 -0.210237 0 0 0 0 0 0 0 0 0 
26.982 1 103 22.5544 8.64586 2.58197 -0.497818 -3.01415 2.78098 0.0321875 0.679383 -0.222771 0 0 0 0 0 0 0 0 0 
26.982 1 262 22.7348 6.79869 4.3718 1.27822 3.50119 1.02492 -0.501644 -0.72152 0.618423 0 0 0 0 0 0 0 0 0 
26.982 1 305 24.8664 8.58678 4.584 -2.19381 3.95954 -1.35555 0.109154 -0.339443 0.221936 0 0 0 0 0 0 0 0 0 
26.982 1 68 24.8642 6.60572 2.6277 6.95362 -5.475 1.17359 0.124803 -0.12468 0.348839 0 0 0 0 0 0 0 0 0 
26.982 1 102 22.5775 10.6558 0.595841 -0.181169 -0.530829 -2.21198 0.131991 0.0951376 -0.034278 0 0 0 0 0 0 0 0 0 
26.982 1 108 24.9518 10.4823 2.75224 -4.23397 4.55099 5.2909 -0.290535 0.369116 -0.292984 0 0 0 0 0 0 0 0 0 
26.982 1 107 27.106 8.50496 2.78337 2.91809 5.21844 -1.76182 0.253043 -0.277001 -0.438252 0 0 0 0 0 0 0 0 0 
26.982 1 266 27.2757 6.65825 4.78945 -1.22098 -3.98964 3.35013 -0.239595 -0.0416208 -0.0274703 0 0 0 0 0 0 0 0 0 
26.982 1 72 29.5794 6.8695 2.75192 -1.9407 2.95509 2.37409 -0.284999 -0.170985 -0.373659 0 0 0 0 0 0 0 0 0 
26.982 1 309 29.5224 8.67947 4.72908 -6.62856 -3.28549 1.40373 -0.03779 0.142603 0.213352 0 0 0 0 0 0 0 0 0 
26.982 1 306 27.2029 10.3956 4.62221 3.42869 -1.63479 -6.99909 0.0364314 0.456887 0.224614 0 0 0 0 0 0 0 0 0 
26.982 1 112 29.5274 10.4299 2.53532 -4.23348 -0.39853 -2.76112 -0.0678539 0.263859 0.325691 0 0 0 0 0 0 0 0 0 
26.982 1 109 29.3614 8.59559 0.634095 -2.48744 -3.50716 -2.17679 0.203846 -0.267107 0.0272208 0 0 0 0 0 0 0 0 0 
26.982 1 111 31.757 8.6498 2.51842 -1.75564 -2.49121 -2.37842 0.215082 -0.0635665 0.117679 0 0 0 0 0 0 0 0 0 
26.982 1 270 31.6908 6.55806 4.72885 1.9192 2.19374 1.147 0.0798059 0.618415 0.130437 0 0 0 0 0 0 0 0 0 
26.982 1 76 34.0299 6.76653 2.64996 1.46108 3.51435 -1.02738 -0.0244561 -0.522144 -0.363053 0 0 0 0 0 0 0 0 0 
26.982 1 313 33.9381 8.39988 4.641 -5.79178 -4.6995 1.04487 0.0173924 0.513668 0.210861 0 0 0 0 0 0 0 0 0 
26.982 1 310 31.8177 10.5507 4.58224 -1.75474 3.0755 -4.27637 -0.116701 -0.196954 -0.0739629 0 0 0 0 0 0 0 0 0 
26.982 1 113 34.1079 8.50837 0.636978 4.45905 6.70302 -1.6361 -0.165924 0.147274 -0.250441 0 0 0 0 0 0 0 0 0 
26.982 1 70 31.6185 6.45986 0.765633 -3.58212 -1.76835 -0.907217 0.280734 0.266275 -0.138324 0 0 0 0 0 0 0 0 0 
26.982 1 110 31.6593 10.6199 0.439094 6.44979 4.25522 -3.91153 0.324674 -0.322973 0.340189 0 0 0 0 0 0 0 0 0 
26.982 1 115 36.4647 8.74891 2.77937 -1.98008 5.97376 0.729941 -0.119213 -0.275743 -0.512789 0 0 0 0 0 0 0 0 0 
26.982 1 274 36.2964 6.65553 4.39503 1.06245 -1.55667 -2.96022 -0.0333406 -0.0505783 0.745513 0 0 0 0 0 0 0 0 0 
26.982 1 80 38.6475 6.65769 2.73917 -2.25095 3.65662 4.51428 0.281293 0.12624 -0.157372 0 0 0 0 0 0 0 0 0 
26.982 1 317 38.6839 8.58863 4.80209 1.25534 0.737569 -0.408981 -0.0498486 -0.0966737 -0.421465 0 0 0 0 0 0 0 0 0 
26.982 1 120 38.5987 10.5339 2.72243 -1.01104 1.82413 -3.6532 0.578958 -0.343283 0.180936 0 0 0 0 0 0 0 0 0 
26.982 1 314 36.2591 10.5035 4.7234 0.33291 2.07006 0.558995 -0.119056 0.436017 -0.0295755 0 0 0 0 0 0 0 0 0 
26.982 1 281 43.2976 8.55533 4.4417 1.05133 3.54687 0.122844 -0.123587 -0.325212 0.919466 0 0 0 0 0 0 0 0 0 
26.982 1 119 41.0132 8.61297 2.55981 3.78386 -3.09173 3.44894 -0.306668 0.171621 0.428772 0 0 0 0 0 0 0 0 0 
26.982 1 278 40.9639 6.78492 4.72423 0.417105 0.3069 4.59432 -0.0305772 -0.312768 -0.030137 0 0 0 0 0 0 0 0 0 
26.982 1 318 40.9416 10.3543 4.7608 -2.40735 6.08576 -1.34677 -0.0622132 -0.0513917 -0.0834654 0 0 0 0 0 0 0 0 0 
26.982 1 118 40.8901 10.5887 0.632916 0.765173 4.20542 -2.49776 0.208516 0.0982278 0.398182 0 0 0 0 0 0 0 0 0 
26.982 1 282 -0.59547 10.3407 4.78377 -2.04613 -2.38976 1.5348 0.202825 0.471507 -0.313176 0 0 0 0 0 0 0 0 0 
26.982 1 123 -0.510532 12.4059 2.83607 -4.14658 -2.9358 0.406721 -0.0714591 0.00916052 0.244686 0 0 0 0 0 0 0 0 0 
26.982 1 322 -0.354728 14.6007 4.63021 -5.73154 -5.79157 -3.85995 -0.48142 0.0495661 0.147532 0 0 0 0 0 0 0 0 0 
26.982 1 325 1.76816 12.4757 4.69694 0.71078 3.86539 0.122326 -0.0247811 -0.456084 -0.0538931 0 0 0 0 0 0 0 0 0 
26.982 1 128 1.67934 14.3282 2.77148 -1.58723 6.04778 2.45615 0.173804 0.166919 -0.802339 0 0 0 0 0 0 0 0 0 
26.982 1 127 4.02191 12.3636 2.59118 6.50177 2.75221 -2.68251 0.116073 -0.149923 0.266853 0 0 0 0 0 0 0 0 0 
26.982 1 326 3.93861 14.3625 4.61243 -2.56202 -2.08747 3.66268 0.0991591 -0.0722726 0.142344 0 0 0 0 0 0 0 0 0 
26.982 1 126 4.00054 14.3433 0.671498 -1.66168 5.0691 -0.393925 0.0354073 -0.433849 -0.199699 0 0 0 0 0 0 0 0 0 
26.982 1 125 1.7824 12.239 0.656951 5.41383 1.81047 2.63304 0.0794013 0.417599 0.407129 0 0 0 0 0 0 0 0 0 
26.982 1 329 6.45839 12.4675 4.73896 0.509135 2.36911 -0.546567 -0.639548 -0.63041 -0.208427 0 0 0 0 0 0 0 0 0 
26.982 1 132 6.17919 14.2572 2.83128 3.90142 -0.765412 0.900846 0.29287 -0.0450937 -0.886347 0 0 0 0 0 0 0 0 0 
26.982 1 131 8.69965 12.3003 2.57493 3.25107 -5.03169 -2.78627 -0.0717254 0.322411 0.103174 0 0 0 0 0 0 0 0 0 
26.982 1 330 8.54857 14.2927 4.6154 4.97233 -2.44504 2.60028 0.431773 0.207647 -0.626929 0 0 0 0 0 0 0 0 0 
26.982 1 130 8.62144 14.4372 0.743875 0.18782 -2.16292 -0.380259 0.132467 0.344042 0.183369 0 0 0 0 0 0 0 0 0 
26.982 1 129 6.4424 12.4831 0.593038 4.92364 -2.46427 -3.69733 -0.419803 -0.0247913 0.333097 0 0 0 0 0 0 0 0 0 
26.982 1 294 13.4037 10.3729 4.73988 -0.89611 -2.32484 5.83293 -0.272044 0.68596 0.0533673 0 0 0 0 0 0 0 0 0 
26.982 1 96 10.8789 10.4441 2.76952 1.87302 -1.01245 -2.75032 0.0154495 0.390796 -0.227656 0 0 0 0 0 0 0 0 0 
26.982 1 333 10.9197 12.3161 4.77685 1.70022 2.01193 -4.9927 0.0197182 -0.189506 -0.675247 0 0 0 0 0 0 0 0 0 
26.982 1 136 11.0555 14.3431 2.69426 0.492173 -0.61073 8.57239 -0.254399 0.017968 0.373821 0 0 0 0 0 0 0 0 0 
26.982 1 135 13.3371 12.2649 2.76484 -0.949076 6.89528 1.01582 -0.230818 0.145961 -0.380571 0 0 0 0 0 0 0 0 0 
26.982 1 334 13.3888 14.1916 4.66676 -2.15313 0.358391 5.11241 -0.248277 0.108016 0.107553 0 0 0 0 0 0 0 0 0 
26.982 1 134 13.2953 14.4014 0.755572 -0.665278 2.90469 -0.763871 0.108116 -0.13737 0.231586 0 0 0 0 0 0 0 0 0 
26.982 1 100 15.6861 10.276 2.61993 -1.79211 2.65243 -1.76565 -0.306124 0.024377 -0.305833 0 0 0 0 0 0 0 0 0 
26.982 1 140 15.859 14.494 2.52473 -1.71786 0.718025 2.66073 -0.502815 0.251394 0.426291 0 0 0 0 0 0 0 0 0 
26.982 1 337 15.6393 12.2204 4.29933 -1.6815 7.01554 -1.60746 0.0556328 0.864805 0.822935 0 0 0 0 0 0 0 0 0 
26.982 1 139 18.0209 12.4318 2.62729 -0.512425 -5.7688 -4.32625 -0.327 0.337487 -0.00135255 0 0 0 0 0 0 0 0 0 
26.982 1 338 17.9463 14.4816 4.5173 1.6564 -3.75409 -0.206782 -0.037451 0.0220176 -0.12925 0 0 0 0 0 0 0 0 0 
26.982 1 138 17.8939 14.3509 0.69003 7.42193 0.395023 3.05993 0.0984222 0.260284 -0.480747 0 0 0 0 0 0 0 0 0 
26.982 1 341 20.2706 12.5086 4.69167 0.65073 -0.350606 -4.89889 -0.303103 0.0592455 0.11606 0 0 0 0 0 0 0 0 0 
26.982 1 144 20.2752 14.3888 2.47098 0.999728 -1.38899 0.959367 0.0857908 -0.0086865 -0.0135969 0 0 0 0 0 0 0 0 0 
26.982 1 141 20.0247 12.3702 0.628142 1.13779 -1.27885 -3.65879 0.491397 -0.126336 -0.126632 0 0 0 0 0 0 0 0 0 
26.982 1 145 25.1331 12.3666 0.625281 -4.13948 1.07596 -2.25799 -0.946964 0.320991 0.361722 0 0 0 0 0 0 0 0 0 
26.982 1 302 22.5144 10.2411 4.8461 0.083989 2.87054 -2.19467 0.154664 0.291464 -0.623881 0 0 0 0 0 0 0 0 0 
26.982 1 143 22.4166 12.1924 2.87031 1.25704 1.19199 -8.2883 0.21354 0.137301 -0.147382 0 0 0 0 0 0 0 0 0 
26.982 1 342 22.4283 14.3212 4.73992 -6.70204 -0.718577 0.436482 0.280168 0.126694 -0.271306 0 0 0 0 0 0 0 0 0 
26.982 1 148 24.7979 14.2988 2.71327 1.65891 0.584332 2.87293 4.68272e-05 -0.235708 0.00569975 0 0 0 0 0 0 0 0 0 
26.982 1 345 24.7586 12.3888 4.693 1.06394 2.78932 -6.14169 0.0309438 -0.249981 -0.226769 0 0 0 0 0 0 0 0 0 
26.982 1 142 22.7015 14.0378 0.735021 -3.59419 -3.04555 -1.18177 -0.0993647 0.19578 0.218218 0 0 0 0 0 0 0 0 0 
26.982 1 147 27.1653 12.4652 2.6081 -4.22583 4.52402 3.46826 0.186967 0.0218509 0.336017 0 0 0 0 0 0 0 0 0 
26.982 1 346 27.1523 14.4928 4.51359 -2.0074 -0.617082 -2.7313 0.129365 -0.0656596 0.222411 0 0 0 0 0 0 0 0 0 
26.982 1 152 29.6138 14.407 2.54978 -1.65845 6.80166 -1.25406 -0.170682 -0.607969 -0.447661 0 0 0 0 0 0 0 0 0 
26.982 1 349 29.4126 12.4038 4.47591 5.47541 -0.563969 0.816255 0.134113 0.00795904 -0.0550245 0 0 0 0 0 0 0 0 0 
26.982 1 146 27.1082 14.3822 0.665128 3.65037 0.113504 0.65453 0.260713 0.298386 0.11656 0 0 0 0 0 0 0 0 0 
26.982 1 149 29.3848 12.3468 0.550716 4.28438 -3.41284 1.39222 0.220895 -0.0019085 0.413386 0 0 0 0 0 0 0 0 0 
26.982 1 116 34.1587 10.4238 2.54325 5.43086 -1.3838 -0.000857906 -0.0602505 -0.0673097 0.767488 0 0 0 0 0 0 0 0 0 
26.982 1 151 32.0477 12.4331 2.65224 -3.21913 0.539357 -0.827469 -0.583686 -0.199533 0.276902 0 0 0 0 0 0 0 0 0 
26.982 1 350 31.6511 14.4959 4.78794 -2.48044 2.12406 -4.60889 0.462557 -0.48439 -0.393724 0 0 0 0 0 0 0 0 0 
26.982 1 156 34.2131 14.1936 2.82158 -3.05777 -0.638364 -4.99713 -0.109435 0.608223 -0.448026 0 0 0 0 0 0 0 0 0 
26.982 1 353 33.8071 12.5397 4.87894 2.49209 -2.22637 -5.432 0.640531 -0.333463 -0.324025 0 0 0 0 0 0 0 0 0 
26.982 1 155 36.478 12.3761 2.798 0.979855 2.84416 3.22153 -0.163999 -0.389931 -0.245974 0 0 0 0 0 0 0 0 0 
26.982 1 354 36.3315 14.271 4.62485 -8.32822 -2.40717 0.470392 -0.121862 0.604753 0.12152 0 0 0 0 0 0 0 0 0 
26.982 1 160 38.6542 14.5127 2.82103 0.932666 0.297578 3.06133 0.283352 -0.672507 -0.217733 0 0 0 0 0 0 0 0 0 
26.982 1 357 38.7404 12.2616 4.86163 2.95212 -1.00567 3.96129 -0.0979514 0.17001 -0.716193 0 0 0 0 0 0 0 0 0 
26.982 1 84 43.3141 10.5238 2.7233 -1.76955 4.77456 -1.59374 -0.185776 0.34158 -0.452453 0 0 0 0 0 0 0 0 0 
26.982 1 321 43.005 12.397 4.61097 0.293793 -1.28208 -1.61366 0.722049 0.0847772 0.606655 0 0 0 0 0 0 0 0 0 
26.982 1 124 43.1913 14.517 2.72483 -1.16939 -0.265257 1.1919 0.154215 -0.687119 -0.333773 0 0 0 0 0 0 0 0 0 
26.982 1 159 41.112 12.3989 2.76673 2.36626 1.52162 -2.67993 -0.638575 0.0477721 -0.597513 0 0 0 0 0 0 0 0 0 
26.982 1 358 40.872 14.1925 4.84049 -2.5897 0.555851 5.44273 0.179957 0.00654875 -0.618512 0 0 0 0 0 0 0 0 0 
26.982 1 158 40.8734 14.3602 0.699926 2.67454 -0.687622 -0.684724 0.0347113 -0.155649 -0.16636 0 0 0 0 0 0 0 0 0 
26.982 1 163 -0.602406 16.4384 2.58742 -2.99698 -3.73655 -3.48037 0.427808 0.0453027 0.0386381 0 0 0 0 0 0 0 0 0 
26.982 1 362 -0.449923 18.2713 4.69863 3.34002 0.766879 -0.188913 0.03675 -0.234026 -0.513422 0 0 0 0 0 0 0 0 0 
26.982 1 361 -2.98583 16.3873 4.54683 3.58477 3.64354 4.86448 0.433964 -0.409412 0.596992 0 0 0 0 0 0 0 0 0 
26.982 1 2003 -0.389256 20.1843 2.62214 2.84572 6.44461 1.93965 -0.0669912 -0.145807 0.340313 0 0 0 0 0 0 0 0 0 
26.982 1 162 -0.570547 18.4177 0.573975 0.43348 -0.434922 -7.47831 0.10116 0.0393545 0.28567 0 0 0 0 0 0 0 0 0 
26.982 1 365 1.79124 16.3701 4.66008 0.248255 -4.13833 1.33926 -0.0125513 0.243468 -0.0316402 0 0 0 0 0 0 0 0 0 
26.982 1 168 1.95338 18.1887 2.60176 0.472856 0.0382265 -2.76184 -0.349159 0.104883 0.10427 0 0 0 0 0 0 0 0 0 
26.982 1 167 4.02021 16.1548 2.57764 -4.56997 -1.6875 3.2796 -0.053546 0.590487 0.222045 0 0 0 0 0 0 0 0 0 
26.982 1 366 4.12267 18.4176 4.51784 0.93965 0.35865 -2.19473 -0.0518477 -0.218629 0.00901392 0 0 0 0 0 0 0 0 0 
26.982 1 369 6.23663 16.2911 4.48519 1.06781 3.29379 -2.75461 0.193929 0.456556 0.182232 0 0 0 0 0 0 0 0 0 
26.982 1 172 6.36149 18.3369 2.59764 -6.81854 1.61923 -0.151034 0.299232 -0.203826 0.0887485 0 0 0 0 0 0 0 0 0 
26.982 1 171 8.65591 16.3477 2.68842 2.03168 1.87542 4.14262 0.0309217 0.0491718 0.0688676 0 0 0 0 0 0 0 0 0 
26.982 1 370 8.80402 18.3028 4.71527 2.96229 -1.92705 -3.40673 -0.152296 0.448882 -0.13016 0 0 0 0 0 0 0 0 0 
26.982 1 2209 6.29323 20.4035 4.42929 0.95543 -1.36266 -2.41851 0.329778 -0.151213 0.379424 0 0 0 0 0 0 0 0 0 
26.982 1 170 8.53158 18.3152 0.556343 -1.56661 -2.88174 1.06233 0.384863 -0.179201 0.502766 0 0 0 0 0 0 0 0 0 
26.982 1 169 6.30533 16.3533 0.735991 -3.3494 2.91411 4.47578 0.197927 -0.353203 0.113869 0 0 0 0 0 0 0 0 0 
26.982 1 176 10.919 18.2591 2.49027 -1.02676 2.5312 -1.6316 -0.0309888 0.323828 1.03083 0 0 0 0 0 0 0 0 0 
26.982 1 373 11.1795 16.4333 4.69565 1.99713 -2.50341 -0.243701 -0.545681 -0.34683 -0.0957231 0 0 0 0 0 0 0 0 0 
26.982 1 175 13.1931 16.2139 2.78114 1.43182 0.488312 3.16292 0.423503 0.0716082 -0.302864 0 0 0 0 0 0 0 0 0 
26.982 1 374 13.2682 18.3769 4.37265 -2.72434 -2.8595 -2.51979 0.11237 0.141308 0.0499053 0 0 0 0 0 0 0 0 0 
26.982 1 173 11.0426 16.4507 0.766047 -1.02748 0.634597 -1.38788 -0.267065 -0.619512 -0.771907 0 0 0 0 0 0 0 0 0 
26.982 1 377 15.3605 16.1641 4.72141 -6.97628 -0.969196 2.60256 0.515922 0.381987 -0.584928 0 0 0 0 0 0 0 0 0 
26.982 1 180 15.698 18.1943 2.60583 1.14181 -2.25936 -2.84817 -0.415636 0.105466 0.208065 0 0 0 0 0 0 0 0 0 
26.982 1 179 17.894 16.5118 2.34593 0.846141 -1.58304 -4.42388 0.271542 -0.26571 0.239011 0 0 0 0 0 0 0 0 0 
26.982 1 378 17.7014 18.1101 4.58064 0.699224 2.76502 2.20843 0.20773 -0.200205 0.316767 0 0 0 0 0 0 0 0 0 
26.982 1 2019 17.9975 20.2443 2.93502 -0.114199 -1.77926 -0.125181 -0.116893 0.579637 0.0732339 0 0 0 0 0 0 0 0 0 
26.982 1 177 15.4469 16.4692 0.540127 1.6619 -2.95246 -0.788801 0.330035 -0.487472 0.137919 0 0 0 0 0 0 0 0 0 
26.982 1 381 20.2236 16.2401 4.45089 3.86433 -3.28073 1.52547 -0.0975488 0.109153 0.333529 0 0 0 0 0 0 0 0 0 
26.982 1 184 20.2917 18.3609 2.69494 0.492765 -6.46314 -0.499776 -0.387067 -0.147466 -0.0276668 0 0 0 0 0 0 0 0 0 
26.982 1 2221 20.3377 20.3056 4.67602 -2.69774 3.17251 1.76615 -0.319494 -0.0283421 -0.0547289 0 0 0 0 0 0 0 0 0 
26.982 1 181 20.1559 16.5588 0.531204 -0.0678849 3.81659 7.99112 0.0929049 -0.146787 0.45081 0 0 0 0 0 0 0 0 0 
26.982 1 183 22.5953 16.22 2.46685 2.29522 -2.39537 -3.30311 -0.199477 -0.102617 0.234872 0 0 0 0 0 0 0 0 0 
26.982 1 382 22.5214 18.2184 4.42409 -3.21362 -0.903278 1.81571 0.0782421 0.0149626 -0.104794 0 0 0 0 0 0 0 0 0 
26.982 1 385 24.77 16.2448 4.674 3.07846 2.85535 1.7947 0.251126 0.131404 -0.432783 0 0 0 0 0 0 0 0 0 
26.982 1 188 24.932 18.1691 2.67742 -3.46556 2.21229 0.182422 -0.0593495 -0.072764 -0.0986913 0 0 0 0 0 0 0 0 0 
26.982 1 2023 22.4667 20.1917 2.61332 -0.74483 -0.334519 -0.263281 0.247988 0.844858 0.270448 0 0 0 0 0 0 0 0 0 
26.982 1 2225 24.8602 20.1197 4.58585 -4.05185 2.20886 -3.10436 -0.114994 0.103523 0.0529134 0 0 0 0 0 0 0 0 0 
26.982 1 185 24.8354 16.2175 0.724367 -2.21875 -0.133031 -1.51745 0.123864 0.237811 -0.178739 0 0 0 0 0 0 0 0 0 
26.982 1 182 22.3791 18.3749 0.795378 -4.30475 -2.6119 2.94215 0.303131 -0.463245 -0.591949 0 0 0 0 0 0 0 0 0 
26.982 1 187 27.0533 16.2133 2.51401 -0.642334 2.87517 -5.09361 0.292179 0.250964 0.188633 0 0 0 0 0 0 0 0 0 
26.982 1 386 27.2758 18.091 4.44264 3.02644 7.36953 0.597928 -0.128586 -0.308048 0.364699 0 0 0 0 0 0 0 0 0 
26.982 1 192 29.6665 18.2802 2.69695 -0.588414 2.86975 2.59719 -0.167255 -0.976161 -0.402613 0 0 0 0 0 0 0 0 0 
26.982 1 389 29.5642 16.1594 4.46213 0.400286 1.28218 1.5957 -0.464356 0.668504 0.507803 0 0 0 0 0 0 0 0 0 
26.982 1 2229 29.5025 20.133 4.40333 -3.67505 -2.00261 -4.01364 -0.0626792 0.61159 0.981546 0 0 0 0 0 0 0 0 0 
26.982 1 189 29.4799 16.4209 0.650913 -3.85905 0.834851 0.0443532 0.170314 -0.207611 0.0144769 0 0 0 0 0 0 0 0 0 
26.982 1 191 31.8282 16.2286 2.54425 5.13894 0.439298 -5.18043 0.0397906 0.134979 0.279585 0 0 0 0 0 0 0 0 0 
26.982 1 390 31.7672 18.2643 4.56602 3.81793 -0.27953 2.70781 0.0700673 -0.165796 0.201703 0 0 0 0 0 0 0 0 0 
26.982 1 190 31.9867 18.2985 0.661861 1.0657 1.75057 5.38936 -0.032619 -0.45682 -0.751781 0 0 0 0 0 0 0 0 0 
26.982 1 393 33.9877 16.3858 4.74246 1.11289 2.95583 -1.74052 -0.000967294 -0.607549 -0.547064 0 0 0 0 0 0 0 0 0 
26.982 1 196 34.2742 18.2365 2.61877 3.21159 -4.98389 1.28699 -0.641457 0.310367 0.171471 0 0 0 0 0 0 0 0 0 
26.982 1 2233 33.9401 20.1027 4.57301 0.706293 -1.04858 1.38867 0.165789 0.230133 0.191295 0 0 0 0 0 0 0 0 0 
26.982 1 2031 31.8183 20.0667 2.45077 1.88272 -1.67941 -3.27761 0.213009 1.00017 0.572384 0 0 0 0 0 0 0 0 0 
26.982 1 2033 34.2639 20.2418 0.675854 2.74022 1.03037 -1.89913 -0.634997 -0.233302 -0.0733041 0 0 0 0 0 0 0 0 0 
26.982 1 195 36.2466 16.4345 2.50393 1.12953 -4.81337 -1.32627 0.476029 -0.342096 0.627918 0 0 0 0 0 0 0 0 0 
26.982 1 394 36.2261 18.2503 4.6564 4.50304 1.1716 3.56865 0.173975 -0.283399 -0.0177355 0 0 0 0 0 0 0 0 0 
26.982 1 2237 38.7179 20.2123 4.54468 6.9433 0.697891 -3.91997 -0.182852 0.620587 -0.147286 0 0 0 0 0 0 0 0 0 
26.982 1 397 38.3742 16.4077 4.57202 0.46857 -2.3402 -5.1177 0.0984896 0.176473 0.134571 0 0 0 0 0 0 0 0 0 
26.982 1 200 38.7583 18.357 2.68581 2.77331 3.3774 1.77768 0.0137792 -0.243429 -0.192671 0 0 0 0 0 0 0 0 0 
26.982 1 2035 36.3843 20.0642 2.66401 0.252859 3.52522 -4.39853 0.00626716 0.606471 0.362068 0 0 0 0 0 0 0 0 0 
26.982 1 164 43.2642 18.1937 2.69914 -1.61646 -2.85352 -2.68615 0.183229 0.754735 -0.535924 0 0 0 0 0 0 0 0 0 
26.982 1 199 40.9961 16.2285 2.62355 -3.52489 0.680221 -2.94801 -0.429837 0.16849 0.283523 0 0 0 0 0 0 0 0 0 
26.982 1 398 41.0178 18.2915 4.5591 -0.671321 -3.15347 -0.310914 -0.291428 0.264141 -0.089407 0 0 0 0 0 0 0 0 0 
26.982 1 161 43.3157 16.4176 0.618472 -3.01302 1.16444 -2.10504 -0.408909 -0.186506 0.00923075 0 0 0 0 0 0 0 0 0 
26.982 1 198 41.0571 18.3218 0.808516 -3.16742 2.49732 4.45505 -0.10442 0.125054 -0.159927 0 0 0 0 0 0 0 0 0 
26.982 1 243 -0.473328 4.66761 6.77076 -0.419916 6.47675 1.04364 -0.240873 -0.0538351 -0.630154 0 0 0 0 0 0 0 0 0 
26.982 1 402 -0.417127 2.65212 8.64079 -5.56742 1.07119 -0.106904 -0.0772381 0.273156 0.150761 0 0 0 0 0 0 0 0 0 
26.982 1 204 -3.01088 2.63976 6.71816 -3.32822 -0.0597858 -0.743496 0.462148 0.0906508 -0.0572286 0 0 0 0 0 0 0 0 0 
26.982 1 404 -2.63524 2.59092 10.8197 1.95186 0.0644374 -0.59283 -0.022728 0.461129 -0.228294 0 0 0 0 0 0 0 0 0 
26.982 1 203 -0.436311 0.888723 6.58845 2.42437 2.79062 1.06186 -0.217702 -0.740437 0.646977 0 0 0 0 0 0 0 0 0 
26.982 1 208 1.6097 2.81477 6.48264 3.09429 -1.03863 -0.380377 0.695063 -0.237229 0.515445 0 0 0 0 0 0 0 0 0 
26.982 1 445 1.7053 4.66909 8.58581 -0.795004 -2.56321 -6.84016 0.187333 0.131841 0.160771 0 0 0 0 0 0 0 0 0 
26.982 1 247 4.14684 4.54655 6.52753 -1.50784 2.75483 -9.45887 -0.202258 0.296039 -0.023544 0 0 0 0 0 0 0 0 0 
26.982 1 406 3.85532 2.83114 8.62045 -1.34021 -1.51381 0.307748 0.283588 -0.0121001 0.00457971 0 0 0 0 0 0 0 0 0 
26.982 1 408 1.73122 2.61829 10.6945 -1.31864 6.04321 1.68819 0.272238 0.466879 -0.339018 0 0 0 0 0 0 0 0 0 
26.982 1 447 4.04671 4.68678 10.5972 -5.47225 4.3627 2.3849 -0.245325 0.150976 0.0121019 0 0 0 0 0 0 0 0 0 
26.982 1 449 6.33049 4.85184 8.60949 1.37594 -1.91535 -1.15132 -0.314714 -0.61003 0.0498491 0 0 0 0 0 0 0 0 0 
26.982 1 212 6.32645 2.68414 6.72437 -6.47859 -1.35866 1.27957 0.267791 0.404904 -0.104796 0 0 0 0 0 0 0 0 0 
26.982 1 251 8.75854 4.52611 6.64305 -1.78548 5.73878 2.37635 -0.150883 -0.163988 -0.347689 0 0 0 0 0 0 0 0 0 
26.982 1 410 8.64162 2.58748 8.59066 2.15806 -3.19741 1.83845 -0.0896345 0.288574 -0.0806172 0 0 0 0 0 0 0 0 0 
26.982 1 451 8.51156 4.67014 10.578 -0.315871 1.57775 -5.02291 0.17555 -0.147082 0.234569 0 0 0 0 0 0 0 0 0 
26.982 1 453 10.897 4.34669 8.49772 2.5727 -2.60453 3.28636 0.157482 0.153064 0.0195286 0 0 0 0 0 0 0 0 0 
26.982 1 216 11.2115 2.59217 6.21431 0.442021 3.18598 1.17925 -0.35946 0.0484152 0.646177 0 0 0 0 0 0 0 0 0 
26.982 1 255 13.1297 4.73166 6.52775 1.37469 3.12629 1.33104 0.405506 -0.410926 0.58381 0 0 0 0 0 0 0 0 0 
26.982 1 414 13.2608 2.61622 8.33561 1.97788 8.20062 2.87337 0.124471 0.360313 -0.1913 0 0 0 0 0 0 0 0 0 
26.982 1 455 13.4981 4.49169 10.231 6.02502 2.52541 5.05478 -0.549177 0.023477 0.594334 0 0 0 0 0 0 0 0 0 
26.982 1 419 17.8869 0.684596 10.2482 0.971437 -2.07497 1.86004 0.342081 0.442661 0.46466 0 0 0 0 0 0 0 0 0 
26.982 1 457 15.5685 4.69878 8.52985 -4.16658 0.0917043 2.17592 -0.034051 -0.190699 -0.642159 0 0 0 0 0 0 0 0 0 