ITEM: TIMESTEP
2800
ITEM: NUMBER OF ATOMS
4000
ITEM: BOX BOUNDS pp pp pp
-0.643274 41.1433
0.121161 40.3788
0.124853 40.3751
ITEM: ATOMS mass type id x y z vx vy vz fx fy fz xrad yrad zrad vxrad vyrad vzrad fxrad fyrad fzrad 
26.982 1 3 1.57187 0.0487636 2.29415 0.0210496 7.50594 3.67413 -0.249775 -0.00673615 -0.261816 0 0 0 0 0 0 0 0 0 
26.982 1 8 3.60372 1.95291 2.11423 -3.63077 -3.91562 -0.28262 -0.116893 0.482536 0.0691659 0 0 0 0 0 0 0 0 0 
26.982 1 43 1.43752 4.25421 1.97748 4.8106 0.0927335 -1.8899 -0.00475738 -0.0815886 0.472692 0 0 0 0 0 0 0 0 0 
26.982 1 202 1.56586 2.24524 3.96814 3.28003 0.842985 3.78923 -0.0819264 -0.352805 0.376201 0 0 0 0 0 0 0 0 0 
26.982 1 241 -0.436973 4.07617 4.16613 -0.820893 2.49892 -4.68091 -0.565348 0.216077 -0.359611 0 0 0 0 0 0 0 0 0 
26.982 1 201 -0.639885 0.125631 4.15372 1.87424 0.585736 3.09518 0.266865 -0.128128 -0.151177 0 0 0 0 0 0 0 0 0 
26.982 1 245 3.50347 4.26122 3.97122 -5.06514 0.71934 2.4359 0.266642 -0.616848 0.513229 0 0 0 0 0 0 0 0 0 
26.982 1 47 5.61487 4.03414 2.12713 0.0279397 0.338266 2.1467 0.083114 0.323838 -0.189689 0 0 0 0 0 0 0 0 0 
26.982 1 206 5.45345 2.12915 4.11917 -2.9032 -3.72074 2.16945 0.207055 -0.0782244 0.013146 0 0 0 0 0 0 0 0 0 
26.982 1 6 5.70311 2.08887 0.091237 0.614331 3.62546 0.197484 -0.271967 -0.109826 -0.195682 0 0 0 0 0 0 0 0 0 
26.982 1 12 7.70611 2.23502 2.05317 -1.46845 -1.33753 4.26134 0.0110822 -0.270479 0.405728 0 0 0 0 0 0 0 0 0 
26.982 1 249 7.61867 4.11951 4.17806 -0.0935443 -1.37536 0.746487 0.297602 0.141536 -0.374217 0 0 0 0 0 0 0 0 0 
26.982 1 10 9.81748 2.08081 0.162885 -1.98844 -6.90044 2.79254 0.305073 0.182163 -0.278955 0 0 0 0 0 0 0 0 0 
26.982 1 16 11.7985 2.10805 2.05021 0.18283 -4.52422 2.29263 0.33477 0.0489192 0.433249 0 0 0 0 0 0 0 0 0 
26.982 1 51 9.87219 4.25282 2.16476 0.0971882 1.35517 -1.29815 -0.132834 -0.218104 0.179005 0 0 0 0 0 0 0 0 0 
26.982 1 53 12.0069 4.26886 0.318578 -1.13926 -8.30458 0.634257 -0.538315 -0.659551 -0.594 0 0 0 0 0 0 0 0 0 
26.982 1 210 9.70215 2.08864 4.14317 0.766616 6.28457 -0.0673078 0.506689 0.283596 0.168028 0 0 0 0 0 0 0 0 0 
26.982 1 13 12.0378 -0.0787008 0.295875 2.62793 1.19094 -1.02743 -0.644138 0.901947 -0.630928 0 0 0 0 0 0 0 0 0 
26.982 1 253 12.0987 4.10998 4.20344 -0.779889 0.511301 -1.15137 -0.856879 0.162018 -0.530332 0 0 0 0 0 0 0 0 0 
26.982 1 20 16.0438 2.06896 2.12879 4.95967 -2.20484 6.0044 -0.160609 0.146591 -0.222523 0 0 0 0 0 0 0 0 0 
26.982 1 55 14.0228 4.20294 2.14234 -1.38554 -0.637893 -1.28223 -0.0768236 -0.236756 0.291299 0 0 0 0 0 0 0 0 0 
26.982 1 57 15.9843 4.05679 0.165486 -6.52646 -5.59304 -1.93743 0.120679 0.304878 -0.118779 0 0 0 0 0 0 0 0 0 
26.982 1 214 13.9259 2.1194 4.1421 0.510901 -7.29359 -0.986195 0.192614 0.0766136 -0.0358796 0 0 0 0 0 0 0 0 0 
26.982 1 257 16.1203 4.07503 4.05274 -3.87829 1.72034 -1.19612 -0.214027 0.144479 0.0899172 0 0 0 0 0 0 0 0 0 
26.982 1 213 11.9874 0.020393 4.23391 5.18757 -1.44297 -2.14276 -0.762638 0.27298 -0.376713 0 0 0 0 0 0 0 0 0 
26.982 1 15 13.972 0.131218 2.20725 -3.04638 0.88988 -0.626513 0.0527369 -0.0306552 -0.124453 0 0 0 0 0 0 0 0 0 
26.982 1 217 16.1118 0.217112 4.15632 2.9052 -2.69442 -1.56117 -0.0995158 -0.500773 0.204879 0 0 0 0 0 0 0 0 0 
26.982 1 14 13.9846 2.109 0.100005 1.78706 0.227177 2.53239 0.0825037 -0.142687 0.273862 0 0 0 0 0 0 0 0 0 
26.982 1 218 18.1445 2.08167 3.97928 -3.9655 2.72121 2.92456 0.149604 0.110873 0.461719 0 0 0 0 0 0 0 0 0 
26.982 1 18 18.0183 2.2077 0.04614 -1.12853 4.85239 -2.83998 0.197212 -0.55107 0.0578105 0 0 0 0 0 0 0 0 0 
26.982 1 59 18.1787 4.13573 2.08001 1.29631 -1.69586 -0.0984909 -0.106746 -0.00248535 0.297304 0 0 0 0 0 0 0 0 0 
26.982 1 19 18.0482 0.0915794 2.04821 7.01275 -0.338104 -0.75159 0.167036 -0.21097 0.103453 0 0 0 0 0 0 0 0 0 
26.982 1 22 22.3069 2.14802 0.0926072 -1.15666 6.06945 3.36329 -0.0756782 0.0148036 0.227488 0 0 0 0 0 0 0 0 0 
26.982 1 24 20.3454 2.16853 2.30631 3.23411 -3.06766 -0.609872 -0.207123 -0.249359 -0.605148 0 0 0 0 0 0 0 0 0 
26.982 1 63 22.351 4.08481 2.18309 -1.06644 -3.50723 0.520012 0.528024 -0.257797 -0.379357 0 0 0 0 0 0 0 0 0 
26.982 1 222 22.2931 1.99382 4.27703 -1.93839 -1.20629 6.11116 0.768646 0.161137 -0.480185 0 0 0 0 0 0 0 0 0 
26.982 1 261 20.4195 4.19195 4.10474 0.999807 2.062 0.372232 -0.634368 -0.215628 0.588753 0 0 0 0 0 0 0 0 0 
26.982 1 28 24.5198 1.97017 2.10576 -2.33921 3.28248 0.566581 -0.166648 0.518346 0.490739 0 0 0 0 0 0 0 0 0 
26.982 1 27 26.5843 0.19181 2.06702 7.91186 0.119179 2.24882 0.229966 -0.317242 0.294867 0 0 0 0 0 0 0 0 0 
26.982 1 67 26.585 4.08851 2.08576 -1.11657 2.09908 -2.33018 -0.0856813 0.0916812 -0.025196 0 0 0 0 0 0 0 0 0 
26.982 1 226 26.8028 2.14377 4.25971 -1.65405 -5.30729 -2.9788 -0.523304 -0.303795 -0.156154 0 0 0 0 0 0 0 0 0 
26.982 1 265 24.6171 4.01471 4.10715 0.703985 0.302213 -2.35404 -0.289517 -0.0405574 0.104911 0 0 0 0 0 0 0 0 0 
26.982 1 26 26.7426 2.07319 0.166466 2.30399 4.00382 2.21215 -0.496229 0.313456 -0.389956 0 0 0 0 0 0 0 0 0 
26.982 1 30 30.8379 2.12659 0.0494928 -1.36692 0.22997 1.16072 -0.0494969 0.060154 0.0224436 0 0 0 0 0 0 0 0 0 
26.982 1 32 28.7105 2.1702 2.11681 -1.94516 -6.35191 0.110666 0.354084 -0.269435 0.153867 0 0 0 0 0 0 0 0 0 
26.982 1 71 30.694 4.16217 2.0564 3.68092 1.49017 4.16136 -0.0613591 -0.139271 0.709708 0 0 0 0 0 0 0 0 0 
26.982 1 230 30.9116 2.01681 4.2535 -2.21404 0.556091 -3.8346 -0.883376 0.188619 -0.111931 0 0 0 0 0 0 0 0 0 
26.982 1 269 28.5926 4.21426 4.2066 0.948397 3.52008 7.31934 0.637584 -0.164502 -0.0216275 0 0 0 0 0 0 0 0 0 
26.982 1 36 32.7481 2.05728 2.23796 2.81706 -1.01921 5.50254 0.240825 0.430238 -0.716113 0 0 0 0 0 0 0 0 0 
26.982 1 73 32.7651 4.29562 0.222329 2.38089 5.59292 0.474344 0.529766 -0.470483 0.0108854 0 0 0 0 0 0 0 0 0 
26.982 1 273 32.8379 3.98356 4.1604 -4.49651 -2.42848 2.39875 0.0186835 0.773837 -0.350981 0 0 0 0 0 0 0 0 0 
26.982 1 229 28.7552 0.068207 4.22663 2.08968 -4.33996 -0.166098 -0.132114 0.141934 -0.185449 0 0 0 0 0 0 0 0 0 
26.982 1 31 30.8076 0.0231799 2.00643 -0.782173 0.622475 1.91978 -0.465875 0.394784 0.348417 0 0 0 0 0 0 0 0 0 
26.982 1 29 28.806 0.21605 -0.190376 -0.885402 -3.59967 2.28108 -0.510016 -0.196593 0.908468 0 0 0 0 0 0 0 0 0 
26.982 1 33 32.8429 0.246438 0.0317495 4.48523 1.47259 -1.56157 0.0718786 -0.463049 -0.136226 0 0 0 0 0 0 0 0 0 
26.982 1 35 34.8052 0.0812366 2.08969 0.296557 0.146087 -0.267677 0.329746 -0.0506037 0.0973777 0 0 0 0 0 0 0 0 0 
26.982 1 75 34.9607 4.01394 2.06896 3.78292 -1.59839 -2.80715 -0.445425 0.400527 0.342987 0 0 0 0 0 0 0 0 0 
26.982 1 234 34.9996 2.11947 4.1061 1.8433 2.17643 0.111518 0.0790776 -0.430715 -0.0414437 0 0 0 0 0 0 0 0 0 
26.982 1 34 34.8811 2.06665 0.123815 1.37309 2.26117 1.38035 0.116899 0.206834 -0.20054 0 0 0 0 0 0 0 0 0 
26.982 1 233 32.8128 0.0829877 4.03375 1.80775 -0.787683 -0.641312 0.24384 -0.481337 0.597164 0 0 0 0 0 0 0 0 0 
26.982 1 237 37.1078 0.0916827 4.21449 -1.09752 -3.14508 -1.0228 -0.297493 0.271429 -0.350927 0 0 0 0 0 0 0 0 0 
26.982 1 4 41.3443 2.01153 1.96477 1.21049 1.30371 -3.31288 -0.6942 0.318072 0.660984 0 0 0 0 0 0 0 0 0 
26.982 1 40 37.0648 2.04385 2.09216 -0.56388 8.18716 1.48787 0.0963141 0.171652 0.161033 0 0 0 0 0 0 0 0 0 
26.982 1 79 39.1683 4.23936 1.93604 -0.632194 1.64615 -1.82292 0.00398682 -0.636379 0.566629 0 0 0 0 0 0 0 0 0 
26.982 1 238 39.2181 2.1089 4.07905 2.76668 3.12196 -2.48354 -0.244962 0.278701 -0.222369 0 0 0 0 0 0 0 0 0 
26.982 1 277 37.0334 4.17014 4.10869 -1.37038 -4.33236 -1.46117 0.272742 -0.536449 0.0625362 0 0 0 0 0 0 0 0 0 
26.982 1 37 36.9266 0.0547208 0.198401 -1.35238 2.5746 -0.446463 0.0897931 -0.0173037 -0.424993 0 0 0 0 0 0 0 0 0 
26.982 1 38 39.1359 2.00673 0.0659748 -1.6017 2.50495 3.02143 -0.48035 0.368988 0.311896 0 0 0 0 0 0 0 0 0 
26.982 1 41 41.2543 4.07825 0.0186916 -3.90126 -1.32405 2.43324 -0.435911 0.100614 0.172057 0 0 0 0 0 0 0 0 0 
26.982 1 83 1.53252 7.9544 2.17664 0.175096 0.304987 2.00861 -0.0921791 0.609124 0.0626605 0 0 0 0 0 0 0 0 0 
26.982 1 242 1.63725 6.10939 4.21127 -2.06851 2.30031 3.26975 -0.513905 0.337897 -0.0127467 0 0 0 0 0 0 0 0 0 
26.982 1 44 -0.552554 6.18292 2.15083 3.77696 0.684838 0.499333 -0.339415 -0.405679 0.218658 0 0 0 0 0 0 0 0 0 
26.982 1 281 -0.745127 8.16579 4.12177 -2.04755 0.090947 -6.99503 0.252741 0.0667757 0.208438 0 0 0 0 0 0 0 0 0 
26.982 1 48 3.71094 6.07802 2.02588 -7.02642 -1.28297 4.34146 -0.205135 0.441285 -0.182428 0 0 0 0 0 0 0 0 0 
26.982 1 285 3.62587 8.21092 3.9931 -0.756647 0.198634 3.6187 -0.383848 0.0724113 0.327016 0 0 0 0 0 0 0 0 0 
26.982 1 46 5.76859 6.15051 -0.042115 1.47862 -2.5267 -3.98975 -0.283028 0.28205 0.613879 0 0 0 0 0 0 0 0 0 
26.982 1 52 7.73397 6.1645 2.142 -4.55629 -3.15958 -4.26887 -0.0636651 -0.0705799 -0.0882134 0 0 0 0 0 0 0 0 0 
26.982 1 87 5.61046 8.16412 2.06765 7.79644 -0.314275 -0.253904 0.18494 0.00820862 0.00771957 0 0 0 0 0 0 0 0 0 
26.982 1 86 5.61506 10.0626 0.149187 1.51266 -0.781612 2.56673 0.196812 -0.0508939 -0.646999 0 0 0 0 0 0 0 0 0 
26.982 1 246 5.66741 6.16947 4.07637 -1.57486 -2.99403 -0.0194455 -0.195318 0.0536778 -0.0693338 0 0 0 0 0 0 0 0 0 
26.982 1 289 7.84884 8.29602 3.99385 5.3702 -0.177776 0.472616 -0.512346 -0.577953 0.282519 0 0 0 0 0 0 0 0 0 
26.982 1 286 5.59602 10.3449 4.11853 -1.08413 -4.37749 3.81325 -0.19226 -0.674365 -0.0175158 0 0 0 0 0 0 0 0 0 
26.982 1 56 11.8299 6.32361 2.10085 -2.77527 -2.5322 -2.56045 0.121127 -0.634129 0.247917 0 0 0 0 0 0 0 0 0 
26.982 1 91 9.82195 8.26274 1.96025 1.21494 -1.32766 0.182773 -0.118852 -0.0716276 0.348706 0 0 0 0 0 0 0 0 0 
26.982 1 250 9.79658 6.31746 4.13449 1.92975 -0.356756 -1.09766 -0.0641754 -0.475701 -0.104416 0 0 0 0 0 0 0 0 0 
26.982 1 293 11.8151 8.1764 4.0224 0.820225 -0.884807 0.942166 0.377398 0.279964 0.485166 0 0 0 0 0 0 0 0 0 
26.982 1 50 9.78954 6.21493 0.113016 -0.761917 0.122436 -2.88326 -0.132998 -0.531427 -0.097854 0 0 0 0 0 0 0 0 0 
26.982 1 95 13.88 8.10538 1.95779 -0.24185 -4.18441 -5.36997 0.199259 0.452792 0.0649628 0 0 0 0 0 0 0 0 0 
26.982 1 254 14.0204 6.35309 4.08987 1.93134 6.39466 -1.54954 -0.467808 -0.793735 0.174361 0 0 0 0 0 0 0 0 0 
26.982 1 94 13.8881 10.2789 0.0940836 1.81042 0.799171 0.437133 0.338191 -0.726542 -0.307641 0 0 0 0 0 0 0 0 0 
26.982 1 96 11.9895 10.2641 2.03432 0.511473 -2.05105 2.00335 -0.473648 -0.40046 0.219838 0 0 0 0 0 0 0 0 0 
26.982 1 100 16.0996 10.0092 2.13098 2.61208 -0.653161 7.37048 -0.0239492 0.296002 -0.0103311 0 0 0 0 0 0 0 0 0 
26.982 1 294 14.0107 10.1376 4.02484 4.01952 3.63966 4.13342 -0.248921 -0.368674 0.465842 0 0 0 0 0 0 0 0 0 
26.982 1 98 18.0963 10.3106 0.115985 -0.838817 1.98598 -0.517679 0.2241 -0.522918 0.182734 0 0 0 0 0 0 0 0 0 
26.982 1 60 15.9441 6.24212 2.20813 -2.45329 4.91802 0.963338 0.579268 -0.181253 -0.406151 0 0 0 0 0 0 0 0 0 
26.982 1 297 15.9707 8.17444 4.18467 -2.56131 3.48423 3.25032 0.556265 0.133131 0.186873 0 0 0 0 0 0 0 0 0 
26.982 1 99 18.1931 8.11414 2.11334 1.90155 -2.7597 -5.85569 -0.245412 -0.143555 0.0790777 0 0 0 0 0 0 0 0 0 
26.982 1 258 18.0918 6.06123 4.24295 3.85536 -0.969557 -2.30735 0.543916 0.267231 -0.421545 0 0 0 0 0 0 0 0 0 
26.982 1 301 20.1096 8.15423 4.10313 -1.19285 -1.71334 -0.708332 0.380101 -0.68744 0.507842 0 0 0 0 0 0 0 0 0 
26.982 1 298 18.1904 10.2182 4.0982 -0.351274 1.70091 -4.50318 -0.170066 -0.177045 0.267692 0 0 0 0 0 0 0 0 0 
26.982 1 101 20.0889 8.20167 0.0398705 2.65809 -0.940225 -0.945221 0.223401 -0.337954 0.20894 0 0 0 0 0 0 0 0 0 
26.982 1 64 20.3514 5.96037 2.10581 0.362515 5.35878 0.223474 -0.334243 0.750178 -0.265457 0 0 0 0 0 0 0 0 0 
26.982 1 103 22.3886 8.13107 2.10337 -6.45035 0.0773566 2.04294 0.0822317 -0.228232 -0.0653361 0 0 0 0 0 0 0 0 0 
26.982 1 262 22.4187 6.04691 4.06859 0.184972 2.61464 3.84875 0.0113958 0.277997 0.0413415 0 0 0 0 0 0 0 0 0 
26.982 1 105 24.4249 8.18632 0.143795 -2.31828 -4.21495 -0.398975 -0.0951042 -0.00446217 0.056803 0 0 0 0 0 0 0 0 0 
26.982 1 302 22.469 10.0111 4.25464 1.20936 4.13237 1.37537 -0.256742 0.41379 -0.149004 0 0 0 0 0 0 0 0 0 
26.982 1 102 22.0944 10.0753 -0.0989643 -5.10973 -1.08301 1.17808 0.241777 0.138971 0.679945 0 0 0 0 0 0 0 0 0 
26.982 1 68 24.5554 6.09049 2.10536 0.790642 2.94377 -2.94955 -0.0185019 0.0151195 0.0182999 0 0 0 0 0 0 0 0 0 
26.982 1 107 26.6315 8.2971 2.00753 -2.71105 0.480375 -3.31817 -0.308142 -0.0271997 0.203324 0 0 0 0 0 0 0 0 0 
26.982 1 266 26.678 6.09697 4.37561 -2.31437 2.96488 3.77026 -0.703975 0.00229521 -0.419868 0 0 0 0 0 0 0 0 0 
26.982 1 305 24.5657 8.10248 4.06397 2.24816 -2.52612 -0.780905 -0.200756 0.0568785 0.019204 0 0 0 0 0 0 0 0 0 
26.982 1 106 26.2142 10.5128 0.0210622 4.16106 1.31258 0.841759 0.590075 -0.531312 0.408921 0 0 0 0 0 0 0 0 0 
26.982 1 306 26.4982 10.1996 4.11226 0.496668 1.10652 1.72045 0.0210738 -0.0844708 0.0168559 0 0 0 0 0 0 0 0 0 
26.982 1 72 28.5104 6.12394 2.10246 -0.111834 0.79819 3.91987 0.457231 0.228855 0.0232196 0 0 0 0 0 0 0 0 0 
26.982 1 70 30.8467 6.2139 0.274144 4.54913 -2.51229 4.82798 -0.560695 0.409715 -0.534378 0 0 0 0 0 0 0 0 0 
26.982 1 111 30.5411 8.28566 2.06851 0.395706 -1.61545 -0.204442 0.430261 -1.02563 0.566929 0 0 0 0 0 0 0 0 0 
26.982 1 270 30.7514 6.30454 4.21932 -3.012 2.21014 6.13493 -0.288049 -0.176912 -0.386396 0 0 0 0 0 0 0 0 0 
26.982 1 309 28.4397 8.20203 4.23447 3.96097 -6.00977 1.56322 0.327045 0.0050582 -0.135367 0 0 0 0 0 0 0 0 0 
26.982 1 112 28.7322 10.1623 2.06476 -3.36698 5.67355 1.1584 -1.12766 0.651157 0.325494 0 0 0 0 0 0 0 0 0 
26.982 1 76 32.7456 6.2381 2.29322 2.50865 -1.18929 -1.71575 0.385723 -0.0385845 -0.0318763 0 0 0 0 0 0 0 0 0 
26.982 1 113 32.7284 8.30279 0.135199 -0.479195 4.36154 -2.26446 0.354835 -0.33955 0.186314 0 0 0 0 0 0 0 0 0 
26.982 1 74 34.8481 6.22004 0.129869 0.318139 -1.35699 4.20635 0.124379 0.0889316 0.426388 0 0 0 0 0 0 0 0 0 
26.982 1 115 34.8835 8.19956 2.15303 -0.512776 -4.20307 -1.26772 -0.113991 -0.0957253 0.170909 0 0 0 0 0 0 0 0 0 
26.982 1 274 34.9488 6.118 4.2208 -2.62679 -0.517776 -1.55575 -0.481775 0.439349 -0.269432 0 0 0 0 0 0 0 0 0 
26.982 1 313 32.7549 8.3668 4.18987 1.48619 -2.83622 -0.284314 0.134189 -0.249741 0.0750446 0 0 0 0 0 0 0 0 0 
26.982 1 117 36.8678 8.235 0.209468 4.04578 2.38558 -2.96494 0.0950533 -0.0777852 -0.00179719 0 0 0 0 0 0 0 0 0 
26.982 1 120 36.9192 10.2758 2.19956 -0.122227 1.19289 -0.543266 -0.0935416 -0.362423 0.092455 0 0 0 0 0 0 0 0 0 
26.982 1 80 36.9505 6.12217 2.34194 -2.31504 2.48001 -6.73129 0.0325776 0.458676 -0.654814 0 0 0 0 0 0 0 0 0 
26.982 1 119 38.98 8.11371 2.1052 2.92182 2.4315 -2.26903 -0.0493448 -0.05829 0.463646 0 0 0 0 0 0 0 0 0 
26.982 1 278 39.1338 6.10064 4.16414 4.87463 0.42984 0.346476 -0.0103703 -0.0488385 0.0976676 0 0 0 0 0 0 0 0 0 
26.982 1 317 37.0359 8.24076 4.3762 -0.0603217 6.74 -5.21533 -0.316115 -0.520537 -0.576906 0 0 0 0 0 0 0 0 0 
26.982 1 81 41.1187 8.01987 0.209692 1.2238 -2.08353 2.73874 -0.0646897 0.375285 -0.297641 0 0 0 0 0 0 0 0 0 
26.982 1 78 38.9242 6.11493 0.061213 4.08092 -0.196455 2.34892 0.346896 0.0777176 0.386807 0 0 0 0 0 0 0 0 0 
26.982 1 88 3.46565 10.251 2.00592 5.12964 -0.349736 0.32285 -0.159553 -0.404438 0.522171 0 0 0 0 0 0 0 0 0 
26.982 1 123 1.38424 12.2679 2.02844 -0.308327 -1.8857 2.56263 -0.0872707 -0.196452 0.160495 0 0 0 0 0 0 0 0 0 
26.982 1 128 3.6096 14.0859 1.91837 -3.0961 2.77193 3.50266 0.112958 0.232888 0.529089 0 0 0 0 0 0 0 0 0 
26.982 1 282 1.35508 10.207 4.12143 3.03796 -0.832103 0.223061 0.14676 -0.245243 -0.251441 0 0 0 0 0 0 0 0 0 
26.982 1 322 1.27185 14.1357 4.16192 -2.75383 6.28216 -0.222362 0.107116 0.381162 -0.305903 0 0 0 0 0 0 0 0 0 
26.982 1 84 -0.722529 10.1487 2.12682 1.8857 5.67625 1.93049 0.249849 0.0088787 0.299908 0 0 0 0 0 0 0 0 0 
26.982 1 124 -0.738192 14.2853 2.06199 0.622707 4.23756 -3.58659 0.175675 -0.357946 0.247628 0 0 0 0 0 0 0 0 0 
26.982 1 321 -0.706891 12.3052 4.18575 3.77973 -0.034182 -4.08542 -0.443443 -0.370309 -0.332481 0 0 0 0 0 0 0 0 0 
26.982 1 122 1.42418 14.0905 -0.0794011 0.394038 -2.23616 4.85051 0.0549968 0.405999 0.413676 0 0 0 0 0 0 0 0 0 
26.982 1 125 3.64112 12.134 0.145339 5.09745 3.39218 -2.16284 -0.350909 -0.108362 -0.580755 0 0 0 0 0 0 0 0 0 
26.982 1 325 3.55214 12.3019 4.04282 3.81087 0.693959 -0.698699 -0.177649 -0.325348 -0.216338 0 0 0 0 0 0 0 0 0 
26.982 1 127 5.71279 11.9552 2.05637 3.21397 0.109569 4.92119 -0.0933049 1.0479 -0.0513114 0 0 0 0 0 0 0 0 0 
26.982 1 326 5.57096 14.3444 4.20469 0.617416 -1.91314 -0.787172 0.231298 -0.113146 -0.283638 0 0 0 0 0 0 0 0 0 
26.982 1 126 5.71818 14.2064 0.0681404 -2.27548 0.969653 -1.79071 -0.340737 -0.28561 -0.0524945 0 0 0 0 0 0 0 0 0 
26.982 1 92 7.75806 10.1863 2.17075 1.40552 -1.56725 -0.279 0.13786 0.162682 -0.415376 0 0 0 0 0 0 0 0 0 
26.982 1 129 7.80103 12.1323 0.0796213 -0.859736 3.131 4.55124 -0.387475 -0.243862 0.0279484 0 0 0 0 0 0 0 0 0 
26.982 1 132 7.52875 14.222 2.11846 1.40059 4.47877 -1.51941 0.471969 -0.0586008 0.273472 0 0 0 0 0 0 0 0 0 
26.982 1 329 7.66338 12.2458 4.20971 2.60281 0.715658 -1.70324 0.402558 0.142763 -0.329887 0 0 0 0 0 0 0 0 0 
26.982 1 131 9.86472 12.2131 2.18173 1.43821 0.16684 0.615112 -0.514403 -0.111251 -0.297797 0 0 0 0 0 0 0 0 0 
26.982 1 290 9.90555 10.0896 4.09327 2.58223 2.92091 -6.25078 -0.127689 0.442414 0.112467 0 0 0 0 0 0 0 0 0 
26.982 1 330 9.69997 14.1643 4.26017 -2.97678 -0.67209 0.0448173 0.0329895 0.310033 -0.305669 0 0 0 0 0 0 0 0 0 
26.982 1 134 13.704 14.2441 -0.0554836 -1.28631 4.69021 -4.90261 0.733206 0.0400735 0.660249 0 0 0 0 0 0 0 0 0 
26.982 1 136 11.6992 14.252 1.99984 1.13622 5.63357 1.91487 0.461239 -0.0248649 0.230738 0 0 0 0 0 0 0 0 0 
26.982 1 333 11.8414 12.2647 4.01522 0.905447 3.85485 0.256341 0.262839 -0.0743511 0.419265 0 0 0 0 0 0 0 0 0 
26.982 1 135 14.0487 12.0633 2.16355 -0.540547 -1.90536 4.65418 -0.0470617 0.879574 -0.148095 0 0 0 0 0 0 0 0 0 
26.982 1 140 16.054 14.2657 2.06594 -5.59494 2.58945 0.527944 -0.578406 -0.13814 -0.115492 0 0 0 0 0 0 0 0 0 
26.982 1 334 13.8059 14.217 4.0779 -5.62537 -2.67121 -3.56936 0.274042 -0.0389584 -0.196877 0 0 0 0 0 0 0 0 0 
26.982 1 337 16.0748 12.1111 4.15005 -4.3781 1.55319 -5.34884 0.142713 0.0416115 -0.377863 0 0 0 0 0 0 0 0 0 
26.982 1 141 20.2178 12.098 0.129898 -1.29123 -6.39849 3.62727 0.186178 0.127952 0.152666 0 0 0 0 0 0 0 0 0 
26.982 1 139 18.2314 12.1217 2.11538 -8.05243 -3.11886 1.79056 -0.200687 0.0687578 0.232682 0 0 0 0 0 0 0 0 0 
26.982 1 144 20.2013 14.1553 2.02746 1.79826 -2.35911 -1.61297 -0.0535948 0.216302 0.210632 0 0 0 0 0 0 0 0 0 
26.982 1 338 18.0728 14.339 3.89349 2.26866 0.712251 -1.9043 0.109788 -0.48846 0.731458 0 0 0 0 0 0 0 0 0 
26.982 1 138 18.0259 14.0573 0.0965323 -0.548562 5.58985 -2.27867 0.21529 0.479329 0.111676 0 0 0 0 0 0 0 0 0 
26.982 1 142 22.1723 14.301 0.105897 -0.21879 -4.84919 0.350894 0.305769 -0.296921 0.104683 0 0 0 0 0 0 0 0 0 
26.982 1 104 20.3648 9.92252 2.20334 -0.666663 0.99248 4.18468 -0.199302 0.955117 -0.399547 0 0 0 0 0 0 0 0 0 
26.982 1 143 22.2337 12.1526 2.35362 -0.92879 1.16463 -5.13807 0.207344 -0.117939 -0.508303 0 0 0 0 0 0 0 0 0 
26.982 1 341 20.2389 12.212 4.15877 2.43035 0.598335 3.45722 -0.164899 -0.168257 0.0933469 0 0 0 0 0 0 0 0 0 
26.982 1 342 22.2797 14.2447 4.1199 -2.31318 0.255794 -3.78093 0.0748396 0.19061 -0.0122198 0 0 0 0 0 0 0 0 0 
26.982 1 108 24.3737 10.322 2.10897 0.68647 0.958471 1.88503 -0.0468698 -0.545854 0.213244 0 0 0 0 0 0 0 0 0 
26.982 1 147 26.5422 12.2236 2.1352 5.7329 5.18932 4.09951 0.104846 0.0614561 0.057762 0 0 0 0 0 0 0 0 0 
26.982 1 148 24.3593 14.2309 2.14533 4.51031 -5.68314 -3.15935 -0.046404 0.028952 -0.167373 0 0 0 0 0 0 0 0 0 
26.982 1 345 24.6083 12.2382 4.15866 -6.52558 -1.70445 0.743441 -0.677393 -0.128235 0.00758848 0 0 0 0 0 0 0 0 0 
26.982 1 346 26.358 14.358 4.22994 -1.76239 1.82273 -2.8623 0.27681 -0.158707 -0.0381618 0 0 0 0 0 0 0 0 0 
26.982 1 152 28.5056 14.2415 2.30377 2.13566 -4.95195 3.219 0.173398 -0.102271 -0.296377 0 0 0 0 0 0 0 0 0 
26.982 1 116 32.684 10.2646 2.14753 0.517946 -2.80709 -3.06187 0.361554 0.081795 0.291429 0 0 0 0 0 0 0 0 0 
26.982 1 110 30.708 10.2004 0.298729 -2.72721 4.65064 2.03046 0.101237 0.596533 -0.953 0 0 0 0 0 0 0 0 0 
26.982 1 149 28.7357 12.2956 0.162147 0.189872 0.0794109 2.33137 -0.594569 -0.29108 0.196188 0 0 0 0 0 0 0 0 0 
26.982 1 151 30.7285 12.2544 2.23291 -0.622664 -2.29587 -3.33207 -0.0941159 0.166728 0.123073 0 0 0 0 0 0 0 0 0 
26.982 1 310 30.5104 10.1092 4.139 -3.08778 0.0172771 -1.03811 0.405441 0.373315 0.322101 0 0 0 0 0 0 0 0 0 
26.982 1 349 28.6077 12.1741 4.22425 0.613644 0.447365 -1.40793 -0.0932441 0.173571 -0.22431 0 0 0 0 0 0 0 0 0 
26.982 1 350 30.6868 14.2202 4.19687 0.831602 4.53941 -3.40979 -0.18966 -0.0306513 -0.0111183 0 0 0 0 0 0 0 0 0 
26.982 1 155 34.7819 12.2485 2.2003 0.0658182 -1.02949 -5.29043 0.08677 0.0330983 0.00362675 0 0 0 0 0 0 0 0 0 
26.982 1 156 32.8525 14.3278 2.31809 -1.96763 -3.10053 -8.48319 -0.279502 -0.228442 -0.768976 0 0 0 0 0 0 0 0 0 
26.982 1 314 34.8658 10.2043 4.07408 8.32904 2.85268 -0.962845 -0.139394 0.0841122 0.457171 0 0 0 0 0 0 0 0 0 
26.982 1 353 32.7002 12.2451 4.36158 -1.23284 4.20127 -3.37929 -0.277982 -0.180481 -0.580101 0 0 0 0 0 0 0 0 0 
26.982 1 354 34.7504 14.258 4.20691 -1.58827 1.94184 3.83989 0.319313 0.17251 0.165974 0 0 0 0 0 0 0 0 0 
26.982 1 154 35.0304 14.2314 0.273433 2.39378 1.17355 0.782224 -0.558802 0.149626 -0.166135 0 0 0 0 0 0 0 0 0 
26.982 1 318 38.8746 10.2569 4.2839 -3.54346 -0.241039 1.87202 0.492366 -0.157135 -0.249199 0 0 0 0 0 0 0 0 0 
26.982 1 159 39.0521 12.0649 2.18143 2.77058 -0.0932778 1.13928 0.111266 0.494434 -0.00515025 0 0 0 0 0 0 0 0 0 
26.982 1 160 37.2189 14.1769 2.16311 4.30204 -1.02354 1.96547 -0.653465 0.196603 -0.102798 0 0 0 0 0 0 0 0 0 
26.982 1 357 36.8687 12.3491 4.24001 1.9891 -5.91563 2.10635 -0.0443684 -0.26528 0.0503595 0 0 0 0 0 0 0 0 0 
26.982 1 358 38.9793 14.2311 4.27933 -2.1255 1.00636 2.40291 0.326854 -0.0235031 -0.101528 0 0 0 0 0 0 0 0 0 
26.982 1 118 39.0519 10.0598 0.242872 -1.34573 3.45052 -0.29048 -0.12497 0.32185 -0.423236 0 0 0 0 0 0 0 0 0 
26.982 1 163 1.66915 16.019 2.05406 0.677677 5.28695 -3.34196 -0.794473 0.167644 -0.271522 0 0 0 0 0 0 0 0 0 
26.982 1 164 -0.779947 18.0365 1.89428 -2.63267 -3.43199 -1.47569 0.641576 0.739144 0.811967 0 0 0 0 0 0 0 0 0 
26.982 1 168 3.40274 18.226 2.1759 -3.37505 -3.37798 4.22788 0.206579 0.0966159 -0.607416 0 0 0 0 0 0 0 0 0 
26.982 1 361 -0.628296 16.3235 4.0397 -6.04676 4.48954 -3.43275 0.252478 -0.419967 0.39908 0 0 0 0 0 0 0 0 0 
26.982 1 362 1.56285 18.0885 4.06254 4.62357 -0.0152146 1.78229 -0.653372 0.444021 0.14055 0 0 0 0 0 0 0 0 0 
26.982 1 365 3.51828 16.1117 4.02669 1.62727 -5.09866 -5.12386 0.260603 0.122452 0.208676 0 0 0 0 0 0 0 0 0 
26.982 1 2003 1.16935 20.2069 2.15176 -0.737287 0.0167721 1.92637 0.443712 -0.116371 -0.160081 0 0 0 0 0 0 0 0 0 
26.982 1 2205 3.42425 20.3169 4.04415 -2.80063 -0.266171 -3.36136 -0.108815 0.0490988 0.415296 0 0 0 0 0 0 0 0 0 
26.982 1 167 5.59941 16.3073 2.04863 1.7605 -0.62347 0.107555 -0.145916 -0.161684 0.554648 0 0 0 0 0 0 0 0 0 
26.982 1 366 5.54483 18.341 3.98251 -4.26752 -4.3802 5.8802 -0.0405439 -0.29966 0.484122 0 0 0 0 0 0 0 0 0 
26.982 1 369 7.6803 16.3269 4.20051 -1.52842 -4.47751 -3.72454 0.0646456 -0.367067 -0.350841 0 0 0 0 0 0 0 0 0 
26.982 1 2007 5.4686 20.2851 2.21538 1.60327 -0.863797 -2.79632 0.288933 0.525933 -0.151138 0 0 0 0 0 0 0 0 0 
26.982 1 165 3.64562 16.1647 0.060822 4.76441 1.4449 2.20656 -0.401401 0.232753 -0.204511 0 0 0 0 0 0 0 0 0 
26.982 1 172 7.8901 18.3724 2.23478 3.9032 -1.99471 -0.53854 -0.503348 -0.639361 0.0463966 0 0 0 0 0 0 0 0 0 
26.982 1 171 9.77239 16.2338 2.22164 0.738637 1.26379 -0.791772 -0.282093 -0.05261 -0.154894 0 0 0 0 0 0 0 0 0 
26.982 1 370 9.80359 18.3465 4.26577 -3.33699 -0.914586 -0.348066 0.0722223 -0.253008 0.136012 0 0 0 0 0 0 0 0 0 
26.982 1 2209 7.62269 20.2974 4.20513 0.315987 2.94912 0.211344 0.177341 0.154807 -0.190292 0 0 0 0 0 0 0 0 0 
26.982 1 176 11.7784 18.2783 2.17434 -2.63712 -2.24743 2.37665 -0.0279517 -0.179202 -0.522573 0 0 0 0 0 0 0 0 0 
26.982 1 373 11.8899 16.3 4.12741 -4.03989 1.91064 1.08875 -0.234294 -0.233084 0.0297863 0 0 0 0 0 0 0 0 0 
26.982 1 175 13.9078 16.314 2.05079 2.59916 -1.71092 1.40483 0.0475696 -0.181242 -0.119967 0 0 0 0 0 0 0 0 0 
26.982 1 374 13.833 18.35 4.26382 -6.43287 -2.0429 5.91643 0.313225 -0.624397 -0.474118 0 0 0 0 0 0 0 0 0 
26.982 1 377 16.0817 16.3383 3.99936 0.933635 -4.73902 4.69987 -0.431705 -0.486518 0.237418 0 0 0 0 0 0 0 0 0 
26.982 1 2015 13.8644 20.1853 2.04559 0.685329 -0.485032 -0.324254 0.139491 0.194364 -0.17651 0 0 0 0 0 0 0 0 0 
26.982 1 174 13.9365 18.2745 -0.0790975 -1.22007 7.56005 0.1889 -0.464021 0.0931325 0.586238 0 0 0 0 0 0 0 0 0 
26.982 1 2221 20.2754 20.2429 4.17119 -0.391987 -0.13386 0.459475 -0.523792 -0.165404 -0.377751 0 0 0 0 0 0 0 0 0 
26.982 1 177 16.0728 16.2738 -0.136619 -2.16829 0.0183231 -7.48419 -0.302966 -0.332983 0.819603 0 0 0 0 0 0 0 0 0 
26.982 1 180 15.9333 18.3409 2.08867 0.603284 2.21595 0.305692 0.126076 0.0297417 -0.342303 0 0 0 0 0 0 0 0 0 
26.982 1 178 18.0674 18.2801 0.0759988 -3.37179 -1.91538 -1.03731 0.00748076 0.287663 0.0805389 0 0 0 0 0 0 0 0 0 
26.982 1 179 18.1015 16.2651 1.97746 -0.961958 2.71032 -7.33066 -0.0799228 0.0748614 -0.106507 0 0 0 0 0 0 0 0 0 
26.982 1 184 20.1621 18.1793 2.0854 -4.13348 -2.20519 1.33841 -0.265337 0.438458 0.0913548 0 0 0 0 0 0 0 0 0 
26.982 1 378 17.9321 18.3314 4.04473 2.3221 -4.97009 -0.516859 0.608762 0.271184 0.0357837 0 0 0 0 0 0 0 0 0 
26.982 1 2017 16.0383 20.449 -0.00883537 0.942602 -3.09911 -2.23289 0.324659 -0.398847 0.383923 0 0 0 0 0 0 0 0 0 
26.982 1 2019 18.2075 20.3765 2.04771 3.86418 2.00931 0.789314 -0.562226 -0.282658 0.377271 0 0 0 0 0 0 0 0 0 
26.982 1 2217 15.7271 20.305 4.18787 -5.57868 -3.19322 2.64402 0.61807 0.290097 -0.0878075 0 0 0 0 0 0 0 0 0 
26.982 1 183 22.1742 16.3154 2.11017 4.6368 0.452804 -0.643624 0.31996 -0.323969 -0.145132 0 0 0 0 0 0 0 0 0 
26.982 1 381 20.0802 16.2539 4.06881 0.153805 1.22151 -4.14086 0.235591 0.0244937 0.142513 0 0 0 0 0 0 0 0 0 
26.982 1 382 22.1997 18.2214 4.08424 -3.05078 -0.941813 -3.06874 0.132302 0.16887 0.305896 0 0 0 0 0 0 0 0 0 
26.982 1 2023 22.344 20.3074 2.07756 4.30515 1.44161 -1.59334 -0.16134 -0.230947 0.097124 0 0 0 0 0 0 0 0 0 
26.982 1 188 24.3496 18.3091 2.10951 0.695821 0.366395 2.57498 -0.197703 0.0631345 -0.198054 0 0 0 0 0 0 0 0 0 
26.982 1 385 24.3455 16.3168 4.07274 -2.34319 -1.13477 -1.07128 -0.228504 -0.400868 0.173105 0 0 0 0 0 0 0 0 0 
26.982 1 187 26.4673 16.2408 2.03277 4.82803 1.42809 -0.417861 -0.17608 -0.31042 0.265258 0 0 0 0 0 0 0 0 0 
26.982 1 386 26.3217 18.1844 4.18646 2.33896 4.58335 4.06428 0.41515 0.0578704 -0.162696 0 0 0 0 0 0 0 0 0 
26.982 1 2027 26.5533 20.204 2.01266 -2.39034 -1.97009 -3.76261 -0.588584 -0.205363 0.0571253 0 0 0 0 0 0 0 0 0 
26.982 1 191 30.6174 16.2426 2.22428 -5.16801 1.33843 -0.00496139 -0.0619812 -0.0286861 0.0312717 0 0 0 0 0 0 0 0 0 
26.982 1 192 28.5209 18.117 2.22672 6.679 9.84508 -0.875122 0.117735 0.317224 -0.408189 0 0 0 0 0 0 0 0 0 
26.982 1 389 28.367 16.2464 4.13734 -4.84641 -0.973388 3.17766 0.50818 0.0114092 0.602717 0 0 0 0 0 0 0 0 0 
26.982 1 390 30.7323 18.2698 4.22796 1.13936 1.35265 -1.67509 -0.358901 0.11922 -0.242186 0 0 0 0 0 0 0 0 0 
26.982 1 2229 28.4131 20.1976 4.01943 2.85699 -4.17543 -4.75045 0.391415 0.0834342 0.428579 0 0 0 0 0 0 0 0 0 
26.982 1 194 34.871 18.2485 0.165197 -1.75298 -1.34904 -4.31266 -0.047606 0.0153922 -0.077925 0 0 0 0 0 0 0 0 0 
26.982 1 195 34.9154 16.408 2.22768 2.27606 1.17997 -4.45712 0.127277 -0.752324 -0.248795 0 0 0 0 0 0 0 0 0 
26.982 1 196 32.8202 18.1884 2.22947 -3.65857 5.56164 0.346152 -0.475343 0.689935 -0.0668996 0 0 0 0 0 0 0 0 0 
26.982 1 393 32.7149 16.2273 4.16401 0.563475 -1.45568 6.16987 0.0944732 0.157208 0.386287 0 0 0 0 0 0 0 0 0 
26.982 1 394 34.7547 18.2896 4.15738 -0.144075 -2.67648 -2.23284 0.320146 -0.0794668 0.427952 0 0 0 0 0 0 0 0 0 
26.982 1 2233 32.6982 20.3881 4.2824 5.73089 8.56003 0.570097 -0.365626 -0.504326 -0.667384 0 0 0 0 0 0 0 0 0 
26.982 1 2237 37.0462 20.1195 4.07326 7.65262 -0.961032 -1.92704 -0.828604 0.253154 0.634096 0 0 0 0 0 0 0 0 0 
26.982 1 199 39.0353 16.2164 2.27215 -1.46576 4.07612 1.02194 -0.311613 -0.0892539 -0.376749 0 0 0 0 0 0 0 0 0 
26.982 1 200 36.9866 18.2102 2.18055 4.06626 3.33653 2.31999 0.0628896 -0.445104 -0.138191 0 0 0 0 0 0 0 0 0 
26.982 1 397 36.8407 16.2258 4.25211 -3.85048 -0.333837 -1.04119 0.181949 0.179651 -0.440108 0 0 0 0 0 0 0 0 0 
26.982 1 398 39.1281 18.2504 4.16005 -3.21031 -0.749363 -2.62452 -0.025387 -0.0565959 0.123268 0 0 0 0 0 0 0 0 0 
26.982 1 197 36.9393 16.1584 -0.0416541 0.739108 3.4653 -5.35116 0.207878 0.171761 0.50784 0 0 0 0 0 0 0 0 0 
26.982 1 2039 39.0257 20.2019 2.35201 -3.2745 0.621712 -3.02175 0.578191 0.188049 -1.08439 0 0 0 0 0 0 0 0 0 
26.982 1 208 3.47119 2.14089 6.13129 4.09737 3.8335 2.04591 0.0728129 -0.0891617 0.0908288 0 0 0 0 0 0 0 0 0 
26.982 1 243 1.43905 4.09128 6.23118 -5.70427 -1.03765 1.05193 0.374466 -0.00900139 -0.0436085 0 0 0 0 0 0 0 0 0 
26.982 1 402 1.38552 1.99834 8.17379 1.87454 -4.63955 -3.04856 0.114463 0.181751 0.245077 0 0 0 0 0 0 0 0 0 
26.982 1 441 -0.656922 4.24273 8.15445 -1.6307 2.07416 -5.64281 0.0134473 -0.62076 -0.00126761 0 0 0 0 0 0 0 0 0 
26.982 1 401 -0.75821 0.087836 8.18269 -5.86141 -3.9222 1.75732 0.443056 0.0031609 -0.0221664 0 0 0 0 0 0 0 0 0 
26.982 1 204 -0.625003 2.15892 6.1991 3.37718 2.90243 -0.853946 0.0290595 -0.258094 -0.00804261 0 0 0 0 0 0 0 0 0 
26.982 1 445 3.55976 4.04225 8.37372 3.38612 1.47032 0.263128 -0.187453 0.515445 -0.721014 0 0 0 0 0 0 0 0 0 
26.982 1 408 3.7171 2.26761 10.2555 -5.53527 1.37442 -2.63775 -0.322043 -1.09796 0.212439 0 0 0 0 0 0 0 0 0 
26.982 1 212 7.64344 2.12923 5.99028 -1.51296 -2.69383 6.07367 0.163781 0.0981921 0.402 0 0 0 0 0 0 0 0 0 
26.982 1 247 5.48893 4.0435 6.07002 -1.13042 -5.35464 1.6443 0.178079 0.375076 0.331208 0 0 0 0 0 0 0 0 0 
26.982 1 406 5.66201 2.14418 8.09418 -0.0462617 -7.3863 -1.26444 0.0299632 0.00445436 0.342171 0 0 0 0 0 0 0 0 0 