ITEM: TIMESTEP
14900
ITEM: NUMBER OF ATOMS
4000
ITEM: BOX BOUNDS pp pp pp
-3.1025 43.6025
0.811387 39.6886
0.811842 39.6882
ITEM: ATOMS mass type id x y z vx vy vz fx fy fz xrad yrad zrad vxrad vyrad vzrad fxrad fyrad fzrad 
26.982 1 43 -0.923456 4.66438 2.52011 3.69385 2.69866 -1.69831 0.191095 0.212605 0.360378 0 0 0 0 0 0 0 0 0 
26.982 1 202 -0.721063 2.60829 4.75888 -0.0923071 -0.646449 -3.28801 -0.229387 0.428205 0.469601 0 0 0 0 0 0 0 0 0 
26.982 1 245 1.37442 4.57259 4.80472 0.368069 0.947391 -0.552568 -0.252231 0.120268 -0.301886 0 0 0 0 0 0 0 0 0 
26.982 1 8 1.29191 2.83295 2.70563 2.00749 -0.203002 -1.50592 0.337029 0.0657131 -0.420103 0 0 0 0 0 0 0 0 0 
26.982 1 47 3.72742 4.64677 2.8913 0.764008 -0.139993 2.72988 0.253336 0.204546 0.298082 0 0 0 0 0 0 0 0 0 
26.982 1 206 3.75125 2.59596 4.67185 -1.77637 2.83845 -0.210017 0.273215 -0.289939 0.0419307 0 0 0 0 0 0 0 0 0 
26.982 1 807 3.90784 0.729371 18.4497 -3.09366 -2.34611 0.00711333 0.40721 0.238441 -0.0914006 0 0 0 0 0 0 0 0 0 
26.982 1 249 6.16579 4.82549 4.86343 -4.32875 0.352026 0.106342 0.105159 -0.124779 -0.399458 0 0 0 0 0 0 0 0 0 
26.982 1 12 6.21322 2.69051 2.93558 -4.44271 -2.77941 -2.1795 -0.138458 0.0294461 0.0830373 0 0 0 0 0 0 0 0 0 
26.982 1 51 8.48454 4.58311 2.5781 3.26558 -4.90174 -4.58361 -0.0361069 0.461537 0.104824 0 0 0 0 0 0 0 0 0 
26.982 1 210 8.45819 2.86559 4.77883 4.55802 0.959959 3.31413 0.388896 0.0350532 -0.316557 0 0 0 0 0 0 0 0 0 
26.982 1 2839 41.0264 20.2605 18.2356 1.91886 0.946664 2.20615 0.16285 0.0200634 0.499644 0 0 0 0 0 0 0 0 0 
26.982 1 253 11.1154 4.7837 4.4714 3.42671 -6.30227 -0.481214 -0.721075 -0.221093 0.514294 0 0 0 0 0 0 0 0 0 
26.982 1 16 10.832 2.52557 2.87007 -3.49506 -0.523281 -5.06094 0.293376 0.36735 -0.369712 0 0 0 0 0 0 0 0 0 
26.982 1 55 13.1487 4.65698 2.75787 2.26485 -4.71031 7.55588 0.718353 0.244188 0.207224 0 0 0 0 0 0 0 0 0 
26.982 1 214 13.3579 2.75809 4.55697 -0.100731 3.05073 6.84367 0.0063373 -0.408422 0.247763 0 0 0 0 0 0 0 0 0 
26.982 1 20 15.6917 2.83904 2.7497 1.40462 -4.93583 -1.65163 -0.31378 -0.10594 0.024844 0 0 0 0 0 0 0 0 0 
26.982 1 257 15.4819 4.85937 4.75489 -1.8822 4.29223 -4.53946 0.341807 -0.253197 -0.524323 0 0 0 0 0 0 0 0 0 
26.982 1 218 17.98 2.84856 4.40108 -3.27632 -3.70062 1.06848 0.0803885 0.56648 0.319778 0 0 0 0 0 0 0 0 0 
26.982 1 59 17.878 5.01447 2.52713 -3.32111 -0.0634214 -0.992029 -0.42745 -0.372768 0.567427 0 0 0 0 0 0 0 0 0 
26.982 1 801 -2.92753 1.01489 16.3838 0.0588884 -0.346011 -0.793376 -0.751819 -0.450814 -0.031173 0 0 0 0 0 0 0 0 0 
26.982 1 24 20.5176 2.75227 2.89406 6.53933 3.64087 1.82937 -0.435438 0.308151 -0.30176 0 0 0 0 0 0 0 0 0 
26.982 1 261 20.267 4.79428 4.62768 -1.02491 3.85203 -1.02539 -0.14502 -0.250336 -0.0330065 0 0 0 0 0 0 0 0 0 
26.982 1 221 20.1388 0.649133 4.58368 -0.0895957 6.02647 1.44937 0.0794575 0.0849279 0.0084938 0 0 0 0 0 0 0 0 0 
26.982 1 145 24.8204 12.6826 0.84821 0.765553 6.34612 1.02804 0.342424 -0.69296 0.157513 0 0 0 0 0 0 0 0 0 
26.982 1 63 22.6279 4.78625 2.62316 5.41529 -0.393878 7.77471 -0.182443 -0.56806 -0.0747269 0 0 0 0 0 0 0 0 0 
26.982 1 222 22.7036 2.70264 4.7583 -2.02508 2.63079 -1.67516 -0.21255 0.272346 0.031228 0 0 0 0 0 0 0 0 0 
26.982 1 28 24.8686 2.63612 2.81472 -3.55866 6.1766 1.87185 0.192189 0.105364 0.143439 0 0 0 0 0 0 0 0 0 
26.982 1 265 24.8856 4.65421 4.82303 -2.23757 0.341064 -2.00317 -0.0710869 0.0260445 -0.646149 0 0 0 0 0 0 0 0 0 
26.982 1 999 41.0569 16.0667 18.4686 3.52 -1.52825 4.2174 0.226151 0.487479 -0.198088 0 0 0 0 0 0 0 0 0 
26.982 1 7 3.60527 0.876762 2.58608 4.62289 -2.68528 -3.45847 0.432604 0.092069 -0.264349 0 0 0 0 0 0 0 0 0 
26.982 1 19 17.8564 0.717432 2.94293 4.16205 -0.18894 5.96408 0.0203294 -0.25424 -0.6163 0 0 0 0 0 0 0 0 0 
26.982 1 67 27.5471 4.53626 2.66205 10.6425 1.18678 -1.44643 -0.149484 -0.0734837 0.159143 0 0 0 0 0 0 0 0 0 
26.982 1 226 27.2972 2.87 4.88049 2.89913 -2.00543 2.77026 -0.0350345 0.108785 -0.251659 0 0 0 0 0 0 0 0 0 
26.982 1 32 29.6671 2.62558 2.72492 4.51392 -1.47694 2.9297 -0.162148 0.0541431 0.0555268 0 0 0 0 0 0 0 0 0 
26.982 1 269 29.676 4.68147 4.80747 2.82632 1.65044 -3.0112 -0.310465 -0.0159962 -0.30117 0 0 0 0 0 0 0 0 0 
26.982 1 225 24.7836 0.737071 4.91744 1.41475 0.542247 -2.35742 0.040252 0.0959951 -0.312952 0 0 0 0 0 0 0 0 0 
26.982 1 237 39.1281 0.72529 4.91555 0.622989 -1.4809 -2.97161 -0.198273 -0.277644 -0.460452 0 0 0 0 0 0 0 0 0 
26.982 1 26 27.3202 2.36742 0.887538 -0.762652 -0.0899297 5.05034 -0.0728995 0.60543 0.0567854 0 0 0 0 0 0 0 0 0 
26.982 1 130 8.48427 14.5849 0.73013 0.0790408 -4.94574 2.43431 -0.544987 -0.592569 0.181112 0 0 0 0 0 0 0 0 0 
26.982 1 233 34.2251 0.789167 4.78958 -0.527859 -0.786368 -5.8354 -0.082452 -0.127525 -0.282903 0 0 0 0 0 0 0 0 0 
26.982 1 71 31.9271 4.5252 2.92657 -2.82638 0.616111 4.85719 0.186741 0.0455591 -0.44178 0 0 0 0 0 0 0 0 0 
26.982 1 230 31.8706 2.76553 4.83878 2.44122 -2.53157 2.56947 0.169704 -0.567924 0.493438 0 0 0 0 0 0 0 0 0 
26.982 1 273 34.2596 4.65322 4.71002 -5.22618 5.47176 0.0569395 -0.0154552 0.435996 -0.106115 0 0 0 0 0 0 0 0 0 
26.982 1 36 34.3587 2.69804 2.73969 -7.88103 5.09009 2.33911 -0.197724 -0.315544 -0.0813474 0 0 0 0 0 0 0 0 0 
26.982 1 31 31.9825 0.849804 2.78802 0.20503 4.81781 -1.79881 -0.133209 0.0118645 0.0827863 0 0 0 0 0 0 0 0 0 
26.982 1 39 41.374 0.785254 2.84462 -4.08521 -4.97184 -5.48151 -0.106228 0.602771 0.188066 0 0 0 0 0 0 0 0 0 
26.982 1 35 36.6161 0.597577 2.56632 -0.90672 0.451729 0.350147 -0.310774 0.0352582 0.827647 0 0 0 0 0 0 0 0 0 
26.982 1 75 36.543 4.65221 2.73648 -1.53053 -4.17917 -7.18227 -0.0567556 0.0910575 -0.273363 0 0 0 0 0 0 0 0 0 
26.982 1 234 36.5366 2.60374 4.57317 -0.0750875 -6.08498 1.34292 -0.0790587 -0.0524485 -0.05725 0 0 0 0 0 0 0 0 0 
26.982 1 40 38.814 2.63748 2.92217 -3.56354 0.227719 0.350745 0.381224 -0.345096 -0.290023 0 0 0 0 0 0 0 0 0 
26.982 1 277 38.8367 4.71144 4.49193 -5.00386 1.4217 -0.275229 0.0750495 0.427253 0.224857 0 0 0 0 0 0 0 0 0 
26.982 1 998 41.073 18.243 16.524 7.97304 -3.24972 -3.91965 -0.0797537 -0.257695 0.0519756 0 0 0 0 0 0 0 0 0 
26.982 1 2807 3.70416 20.4804 18.425 -0.0747253 0.740986 -0.496555 -0.416617 0.12015 0.52079 0 0 0 0 0 0 0 0 0 
26.982 1 4 43.6683 2.82771 2.89866 0.857006 1.83852 -3.45866 -0.439565 -0.437412 -0.436298 0 0 0 0 0 0 0 0 0 
26.982 1 241 -3.2954 4.72193 4.73444 3.04909 -1.85922 -2.12788 -0.0792231 0.212517 0.280491 0 0 0 0 0 0 0 0 0 
26.982 1 79 41.2099 4.69669 2.89967 -1.27804 -0.391933 -0.854509 -0.101761 -0.373111 -0.049555 0 0 0 0 0 0 0 0 0 
26.982 1 238 41.1824 2.77253 4.90661 -2.54694 0.139046 -4.72503 0.2342 -0.276228 -0.164549 0 0 0 0 0 0 0 0 0 
26.982 1 995 36.3661 16.2131 18.3621 -2.58873 -0.0116178 2.18377 -0.085842 0.420762 -0.0531574 0 0 0 0 0 0 0 0 0 
26.982 1 83 -0.715807 8.6704 2.77316 1.18592 -1.69271 -2.82923 -0.0549445 -0.283372 -0.134687 0 0 0 0 0 0 0 0 0 
26.982 1 242 -1.16768 6.56816 4.60909 -1.54084 2.03593 -1.96275 0.327646 0.0957743 -0.417001 0 0 0 0 0 0 0 0 0 
26.982 1 44 43.3879 6.44122 2.50587 9.33288 -5.65312 2.99024 0.205751 0.525004 0.597428 0 0 0 0 0 0 0 0 0 
26.982 1 281 -3.31233 8.55779 4.40464 0.530081 0.268556 -2.84678 0.139939 -1.02687 0.924678 0 0 0 0 0 0 0 0 0 
26.982 1 48 1.65611 6.55892 2.90692 0.50683 2.64829 -0.144642 -0.290198 0.134201 0.128303 0 0 0 0 0 0 0 0 0 
26.982 1 285 1.36072 8.47568 4.70493 1.78712 1.93452 1.9806 0.142895 0.555315 -0.338666 0 0 0 0 0 0 0 0 0 
26.982 1 87 3.84137 8.49525 2.86654 -2.10919 1.79204 -0.918352 -0.0659245 -0.118217 -0.530444 0 0 0 0 0 0 0 0 0 
26.982 1 246 4.07618 6.67549 4.97027 8.29217 0.293525 -1.12804 -0.395653 0.0593081 -0.442252 0 0 0 0 0 0 0 0 0 
26.982 1 88 1.48482 10.5324 2.552 -5.9365 -2.14993 -0.188528 -0.0484048 -0.529262 0.475836 0 0 0 0 0 0 0 0 0 
26.982 1 126 3.6783 14.3212 0.829379 -2.2177 -1.06553 -5.93802 0.167275 -0.209101 0.459467 0 0 0 0 0 0 0 0 0 
26.982 1 289 6.20105 8.31769 4.72791 1.93619 -0.20659 -4.33146 -0.0451773 0.0681851 -0.0565635 0 0 0 0 0 0 0 0 0 
26.982 1 52 6.05858 6.53111 2.58684 -2.81958 2.80722 2.81763 0.316386 -0.366095 0.34519 0 0 0 0 0 0 0 0 0 
26.982 1 91 8.32336 8.71009 2.99223 1.26264 -2.24797 1.2568 0.0453487 0.0310939 -0.132658 0 0 0 0 0 0 0 0 0 
26.982 1 250 8.60437 6.57383 4.46239 1.8711 -1.27816 -1.49504 0.149725 -0.719706 0.0225262 0 0 0 0 0 0 0 0 0 
26.982 1 92 6.10314 10.5068 2.9524 -1.63742 -7.15261 2.38457 -0.0476677 -0.00579284 0.119247 0 0 0 0 0 0 0 0 0 
26.982 1 290 8.68211 10.5776 4.71463 3.92949 -0.346212 -0.130182 -0.159685 0.448417 0.836565 0 0 0 0 0 0 0 0 0 
26.982 1 2225 24.8143 20.3328 4.63247 2.10841 -0.708683 -1.46801 0.0343341 -0.550323 0.23673 0 0 0 0 0 0 0 0 0 
26.982 1 293 10.9091 8.60697 4.66782 -1.99281 -2.37579 -0.674966 0.0394 -0.272551 -0.14132 0 0 0 0 0 0 0 0 0 
26.982 1 56 10.9649 6.82209 2.58186 4.78145 3.13028 2.25555 -0.363132 0.449306 0.459563 0 0 0 0 0 0 0 0 0 
26.982 1 95 13.1908 8.61727 2.58141 1.69559 -3.73033 2.20901 -0.148867 0.436313 0.198152 0 0 0 0 0 0 0 0 0 
26.982 1 254 13.154 6.68409 4.68486 5.0635 1.39268 -0.933935 0.0584155 0.151447 -0.244352 0 0 0 0 0 0 0 0 0 
26.982 1 425 24.8242 0.666055 8.4421 -4.07706 0.0673819 -0.364409 -0.111671 0.037281 -0.0798416 0 0 0 0 0 0 0 0 0 
26.982 1 2609 6.45563 20.6796 12.9756 0.909654 -2.00684 -1.03535 -0.447123 -0.332391 -0.541403 0 0 0 0 0 0 0 0 0 
26.982 1 60 15.324 6.69849 2.62381 3.45209 -1.16778 1.56642 0.36077 -0.152747 0.36681 0 0 0 0 0 0 0 0 0 
26.982 1 297 15.4124 8.56304 4.50374 1.02415 4.50582 -0.434244 0.095853 0.497767 0.49628 0 0 0 0 0 0 0 0 0 
26.982 1 99 17.7468 8.60861 2.74048 2.2801 2.02308 -1.46591 0.235027 0.179134 0.0500407 0 0 0 0 0 0 0 0 0 
26.982 1 100 15.4364 10.588 2.6355 0.97967 -1.4313 -0.886333 0.105071 0.0833255 0.0529066 0 0 0 0 0 0 0 0 0 
26.982 1 97 15.72 8.67278 0.783834 2.95424 -1.23583 -3.00498 -0.318862 0.118544 0.0449635 0 0 0 0 0 0 0 0 0 
26.982 1 239 41.2038 0.634438 6.86617 4.0267 1.63737 2.66226 0.407816 0.580214 -0.469985 0 0 0 0 0 0 0 0 0 
26.982 1 258 17.5708 6.76074 4.79987 4.8867 5.42559 1.85845 0.646494 -0.221544 -0.305571 0 0 0 0 0 0 0 0 0 
26.982 1 64 20.0736 6.77788 2.71938 -0.221498 0.985558 -1.61098 0.161954 -0.0570393 -0.59629 0 0 0 0 0 0 0 0 0 
26.982 1 301 20.1488 8.61049 4.55392 7.92775 3.69679 -3.41831 -0.113752 0.275994 0.803379 0 0 0 0 0 0 0 0 0 
26.982 1 103 22.486 8.5607 2.77568 -2.50075 -1.37487 2.92266 -0.0584016 0.51357 0.0821956 0 0 0 0 0 0 0 0 0 
26.982 1 262 22.5008 6.60232 4.58061 5.9412 2.49462 3.60311 -0.182206 -0.0237374 0.281145 0 0 0 0 0 0 0 0 0 
26.982 1 305 24.6203 8.59136 4.65768 -2.26437 0.696595 -1.07676 0.418867 0.128734 -0.145354 0 0 0 0 0 0 0 0 0 
26.982 1 68 24.8715 6.51532 2.81052 -0.41307 2.9645 1.31406 0.148748 0.680848 0.0501809 0 0 0 0 0 0 0 0 0 
26.982 1 302 22.576 10.7012 4.75146 2.11253 -2.97024 0.728711 -0.112604 -0.537016 -0.248158 0 0 0 0 0 0 0 0 0 
26.982 1 231 31.9248 0.425157 6.84182 0.017327 -6.85091 -2.48561 -0.396485 -0.0651973 -0.500996 0 0 0 0 0 0 0 0 0 
26.982 1 107 27.3471 8.50978 3.01633 -4.55449 -2.47925 1.95442 -0.200833 0.0169522 -0.389414 0 0 0 0 0 0 0 0 0 
26.982 1 266 26.9984 6.37819 4.73415 -2.91207 2.9318 1.17851 0.368006 0.0731698 -0.172408 0 0 0 0 0 0 0 0 0 
26.982 1 72 29.8219 6.56965 2.6918 1.1575 -1.84849 -1.56147 -0.836218 0.00177368 0.442489 0 0 0 0 0 0 0 0 0 
26.982 1 309 29.5631 8.57772 4.68284 3.58167 0.358439 5.68388 0.0751664 -0.554946 -0.246155 0 0 0 0 0 0 0 0 0 
26.982 1 111 31.9801 8.52344 2.64103 2.64439 -1.13656 0.0755139 0.0444492 0.635201 0.0341837 0 0 0 0 0 0 0 0 0 
26.982 1 270 31.8192 6.69015 4.6131 -0.647263 2.8403 2.86086 0.13219 0.328906 0.224626 0 0 0 0 0 0 0 0 0 
26.982 1 76 33.9962 6.67172 2.67436 -8.88781 3.55205 2.30461 0.690246 -0.481922 0.276445 0 0 0 0 0 0 0 0 0 
26.982 1 313 34.3688 8.46607 4.58802 2.70887 0.510403 -3.09059 -0.248737 0.388556 0.0347814 0 0 0 0 0 0 0 0 0 
26.982 1 310 31.8307 10.2217 4.69863 -4.97739 -1.79029 -2.05225 0.468619 0.161116 0.373017 0 0 0 0 0 0 0 0 0 
26.982 1 223 22.4451 0.700996 6.63625 1.37314 0.316662 -0.865522 0.250082 -0.270873 -0.0485559 0 0 0 0 0 0 0 0 0 
26.982 1 116 34.4875 10.511 2.78011 -2.47651 2.56689 4.75666 -0.519775 0.347802 -0.0355047 0 0 0 0 0 0 0 0 0 
26.982 1 86 3.65308 10.3048 0.587928 0.190046 1.0356 -0.0794709 0.541871 0.118264 0.465354 0 0 0 0 0 0 0 0 0 
26.982 1 114 36.4453 10.4958 0.668998 0.833195 -0.411749 -3.60038 0.32791 0.515614 0.515512 0 0 0 0 0 0 0 0 0 
26.982 1 115 36.6104 8.66094 2.85119 2.22825 -1.33067 4.21007 0.0778654 -0.344018 -0.464235 0 0 0 0 0 0 0 0 0 
26.982 1 274 36.5399 6.51643 4.65803 3.33553 3.66798 -1.33305 -0.100774 0.605066 0.0776248 0 0 0 0 0 0 0 0 0 
26.982 1 80 38.7738 6.76107 2.61805 -2.27273 0.254105 3.02654 -0.0303281 0.0525595 0.00123675 0 0 0 0 0 0 0 0 0 
26.982 1 317 38.863 8.52653 4.63365 -0.213583 0.576326 1.04815 -0.151813 0.308043 0.13212 0 0 0 0 0 0 0 0 0 
26.982 1 120 39.0011 10.4099 2.43125 1.48307 0.089427 -1.21981 -0.233562 0.185447 0.42309 0 0 0 0 0 0 0 0 0 
26.982 1 314 36.5428 10.6418 4.72358 1.20872 0.300197 -2.90987 0.243562 -0.165893 -0.273005 0 0 0 0 0 0 0 0 0 
26.982 1 117 38.7578 8.63603 0.513602 0.555547 -1.43314 6.35398 0.132929 -0.898064 0.281815 0 0 0 0 0 0 0 0 0 
26.982 1 81 -3.04985 8.68657 0.754795 1.74559 -0.265443 -3.92712 -0.319298 -0.158657 0.0110452 0 0 0 0 0 0 0 0 0 
26.982 1 119 41.2077 8.48105 2.46354 1.11228 4.12149 -2.64821 0.057598 -0.00395067 -0.00548588 0 0 0 0 0 0 0 0 0 
26.982 1 278 40.9722 6.75173 4.65818 2.33856 -4.11756 -2.21951 0.380941 -0.0433725 0.174305 0 0 0 0 0 0 0 0 0 
26.982 1 318 41.2966 10.3871 4.49636 -0.812055 1.84742 -1.46636 -0.186196 -0.33496 0.572237 0 0 0 0 0 0 0 0 0 
26.982 1 118 41.4292 10.6486 0.776185 -2.6993 3.1659 2.41738 0.00141743 0.152961 0.0715762 0 0 0 0 0 0 0 0 0 
26.982 1 433 34.1197 0.868328 8.55142 7.54336 1.79193 2.93703 0.559326 -0.228345 -0.0183366 0 0 0 0 0 0 0 0 0 
26.982 1 282 -0.806905 10.5442 4.71627 1.14966 2.11818 2.91359 0.144195 -0.043275 -0.137644 0 0 0 0 0 0 0 0 0 
26.982 1 123 -0.80317 12.3393 2.50559 3.54744 3.19174 3.07079 -0.073114 -0.325758 0.51664 0 0 0 0 0 0 0 0 0 
26.982 1 322 -0.875072 14.1245 4.83395 -1.68249 1.60764 -4.50907 0.235604 0.139444 -0.443107 0 0 0 0 0 0 0 0 0 
26.982 1 84 -3.06876 10.3785 2.79116 1.77149 -4.23215 -0.837409 0.0887671 1.00337 -0.710681 0 0 0 0 0 0 0 0 0 
26.982 1 321 -3.08309 12.3742 4.58884 1.12246 0.668167 2.6496 -0.360281 0.411212 0.00546098 0 0 0 0 0 0 0 0 0 
26.982 1 124 43.456 14.4492 2.49921 -2.4419 -0.804658 -0.387827 0.0512292 -0.20765 0.426456 0 0 0 0 0 0 0 0 0 
26.982 1 286 3.71995 10.3412 4.62675 1.56241 -2.76937 1.48064 -0.136198 -0.180083 0.4301 0 0 0 0 0 0 0 0 0 
26.982 1 325 1.65485 12.4094 4.74175 -1.21853 -6.63647 -6.99348 -0.293616 -0.601776 -0.334887 0 0 0 0 0 0 0 0 0 
26.982 1 128 1.33409 14.1197 2.7906 1.14028 -1.85561 -1.81482 0.19617 0.345866 0.166204 0 0 0 0 0 0 0 0 0 
26.982 1 127 3.86503 12.2503 2.78882 4.28576 6.24378 5.59977 -0.0578027 0.553358 -0.349715 0 0 0 0 0 0 0 0 0 
26.982 1 326 3.87596 14.4833 4.70949 0.507491 0.866445 -1.40317 -0.311721 -0.387512 -0.0146652 0 0 0 0 0 0 0 0 0 
26.982 1 121 43.79 12.3384 0.83124 1.36101 0.238213 -0.587882 -0.412376 -0.154579 -0.489823 0 0 0 0 0 0 0 0 0 
26.982 1 329 6.15217 12.6958 4.79228 1.08963 3.41592 2.13264 -0.10478 -0.188041 -0.100946 0 0 0 0 0 0 0 0 0 
26.982 1 132 6.02067 14.5099 2.58702 -0.574711 -3.10922 -0.405486 0.10302 -0.239565 0.270932 0 0 0 0 0 0 0 0 0 
26.982 1 131 8.27016 12.423 2.71586 2.48173 0.243631 1.07354 0.391713 0.495733 0.110848 0 0 0 0 0 0 0 0 0 
26.982 1 330 8.42206 14.3335 4.76241 -1.86836 0.147075 -3.71397 0.188597 -0.0962606 0.032328 0 0 0 0 0 0 0 0 0 
26.982 1 129 6.18693 12.3586 0.854458 5.21434 0.484505 8.37962 -0.413815 0.118636 -0.379114 0 0 0 0 0 0 0 0 0 
26.982 1 133 10.742 12.3928 0.829821 3.17917 0.42367 -0.0493242 0.0612901 0.129096 -0.0158971 0 0 0 0 0 0 0 0 0 
26.982 1 294 13.2973 10.4856 4.63394 3.08885 -2.38939 -5.58978 -0.144488 -0.399656 0.0280975 0 0 0 0 0 0 0 0 0 
26.982 1 96 10.7042 10.4339 2.69938 5.5823 0.0848886 6.24577 0.205922 0.174084 0.093698 0 0 0 0 0 0 0 0 0 
26.982 1 333 10.7694 12.5595 4.66037 -0.0476435 -6.44409 -2.04032 -0.120298 -0.234257 -0.389834 0 0 0 0 0 0 0 0 0 
26.982 1 136 10.6611 14.4978 2.67481 -0.674751 2.44371 -1.00183 0.25968 -0.49975 0.629087 0 0 0 0 0 0 0 0 0 
26.982 1 135 12.9923 12.4121 2.81106 -0.271742 1.68384 -2.87657 -0.0760466 -0.00765772 0.460589 0 0 0 0 0 0 0 0 0 
26.982 1 334 13.1569 14.5796 4.532 -2.45311 4.35728 -1.18207 -0.35058 -0.0271082 0.214538 0 0 0 0 0 0 0 0 0 
26.982 1 140 15.4213 14.3863 2.87149 -3.81407 0.201931 -3.03251 0.166723 -0.175398 0.30201 0 0 0 0 0 0 0 0 0 
26.982 1 337 15.4085 12.2712 4.79444 1.57575 -2.19282 -0.745064 0.197558 0.519214 0.0119864 0 0 0 0 0 0 0 0 0 
26.982 1 139 17.6873 12.4074 2.73041 -1.09146 -1.76891 8.27576 0.275976 0.314205 0.056085 0 0 0 0 0 0 0 0 0 
26.982 1 338 17.7549 14.4497 4.6731 1.41678 4.36243 -1.27429 0.090733 -0.393965 -0.253658 0 0 0 0 0 0 0 0 0 
26.982 1 2437 38.9136 20.2695 8.45904 4.41252 0.930729 -2.31458 -0.411693 -0.172252 0.393517 0 0 0 0 0 0 0 0 0 
26.982 1 298 17.9285 10.6412 4.66521 -1.8936 -3.01642 2.07588 0.0392639 -0.921634 -0.302885 0 0 0 0 0 0 0 0 0 
26.982 1 104 20.2234 10.6825 2.85879 4.668 -4.58673 0.452154 0.000739707 -0.210749 -0.741416 0 0 0 0 0 0 0 0 0 
26.982 1 341 20.3009 12.4789 4.77483 -2.65447 2.81688 -2.92128 -0.253539 0.416758 0.0626467 0 0 0 0 0 0 0 0 0 
26.982 1 144 20.2835 14.3181 2.64785 4.2131 0.228 -2.39959 -0.408583 -0.134754 0.275388 0 0 0 0 0 0 0 0 0 
26.982 1 141 20.2163 12.5129 0.758228 2.30199 3.65833 -0.260258 0.037952 -0.786888 -0.10788 0 0 0 0 0 0 0 0 0 
26.982 1 122 -0.755307 14.3035 0.640115 1.19313 -1.62466 1.04761 -0.292171 0.184465 0.114913 0 0 0 0 0 0 0 0 0 
26.982 1 108 25.0049 10.3544 2.49153 0.392431 -3.2789 -5.69699 0.0912038 0.842814 0.767212 0 0 0 0 0 0 0 0 0 
26.982 1 143 22.697 12.4952 2.78455 -0.818096 -4.35385 -0.899063 -0.14403 0.162026 0.218685 0 0 0 0 0 0 0 0 0 
26.982 1 342 22.3877 14.6219 4.53787 -2.95907 0.397583 2.55867 0.400197 -0.168403 0.298591 0 0 0 0 0 0 0 0 0 
26.982 1 148 24.8632 14.5392 2.69902 1.24015 -2.90476 -0.901402 0.0835136 -0.721701 0.319724 0 0 0 0 0 0 0 0 0 
26.982 1 345 24.9614 12.6019 4.55347 4.22931 -1.18912 -2.39024 -0.104769 -0.0214457 0.00686533 0 0 0 0 0 0 0 0 0 
26.982 1 306 27.0967 10.6564 4.66342 -3.3263 1.43341 -0.54236 0.1498 0.2042 -0.418774 0 0 0 0 0 0 0 0 0 
26.982 1 112 29.574 10.5361 2.83203 -2.56694 -1.13569 -2.38998 -0.064118 -0.547818 -0.333679 0 0 0 0 0 0 0 0 0 
26.982 1 147 27.3826 12.5964 2.6981 2.02826 -1.93956 -0.414031 -0.252136 -0.23816 -0.499958 0 0 0 0 0 0 0 0 0 
26.982 1 346 27.2515 14.3061 4.69443 -0.028413 -1.12396 2.56259 -0.00445905 0.425783 0.242054 0 0 0 0 0 0 0 0 0 
26.982 1 152 29.7711 14.4117 2.86518 1.705 4.4676 -0.903223 -0.385307 -0.343204 0.268442 0 0 0 0 0 0 0 0 0 
26.982 1 349 29.5672 12.3479 4.66804 -0.449556 1.25638 -5.94186 0.0412817 0.535848 0.0327469 0 0 0 0 0 0 0 0 0 
26.982 1 146 27.5628 14.4889 0.636292 2.52245 4.14016 2.16 -0.317127 -0.479333 0.379337 0 0 0 0 0 0 0 0 0 
26.982 1 151 32.004 12.1764 2.93809 2.28219 1.66104 -3.75306 0.0808351 0.581706 -0.513274 0 0 0 0 0 0 0 0 0 
26.982 1 350 31.9184 14.4434 4.69425 -6.35666 1.58932 -0.072613 -0.0200829 0.0538591 -0.08599 0 0 0 0 0 0 0 0 0 
26.982 1 156 34.1223 14.4056 2.48411 -0.404103 -1.97776 -1.41278 -0.0949018 -0.169937 0.679788 0 0 0 0 0 0 0 0 0 
26.982 1 353 34.1438 12.5718 4.71015 5.61228 2.71178 -0.277047 0.215361 -0.0469705 -0.0833628 0 0 0 0 0 0 0 0 0 
26.982 1 153 34.3858 12.4775 0.66371 -1.13651 -0.996124 1.27186 -0.329309 -0.431587 0.0564122 0 0 0 0 0 0 0 0 0 
26.982 1 2831 31.7621 20.2262 18.2425 0.0343078 -1.71765 3.73851 0.349313 0.00693575 -0.251317 0 0 0 0 0 0 0 0 0 
26.982 1 155 36.6856 12.4746 2.73565 0.135096 -4.22374 -3.76783 -0.112717 -0.105278 -0.160807 0 0 0 0 0 0 0 0 0 
26.982 1 354 36.6996 14.3517 4.74935 -4.56294 2.59271 -4.50754 -0.49151 -0.00689346 -0.285077 0 0 0 0 0 0 0 0 0 
26.982 1 160 38.8885 14.519 2.87746 -6.83215 -1.52665 -1.90445 -0.0607949 -0.189187 -0.387404 0 0 0 0 0 0 0 0 0 
26.982 1 357 38.9288 12.2482 4.67309 4.43471 -1.54206 3.35967 -0.178694 0.349037 -0.127218 0 0 0 0 0 0 0 0 0 
26.982 1 159 41.0191 12.3813 2.89067 -2.7629 2.67165 -0.912908 0.529849 0.927543 -0.385891 0 0 0 0 0 0 0 0 0 
26.982 1 358 41.3117 14.6304 4.77637 -1.67335 -1.76971 -0.81429 -0.10548 -0.590344 -0.517035 0 0 0 0 0 0 0 0 0 
26.982 1 158 41.3303 14.3157 0.64611 3.69033 -2.01507 0.251407 0.130424 -0.190271 -0.0941757 0 0 0 0 0 0 0 0 0 
26.982 1 163 -0.874977 16.196 2.78109 -5.66255 -3.27868 6.19388 0.118843 -0.0743514 0.0857174 0 0 0 0 0 0 0 0 0 
26.982 1 362 -0.656236 18.444 4.6088 2.46605 1.45524 -0.724458 -0.0719781 -0.216914 -0.260316 0 0 0 0 0 0 0 0 0 
26.982 1 2003 -0.953003 20.5409 2.53367 0.684534 2.75422 -1.61952 0.239298 -0.809875 -0.410464 0 0 0 0 0 0 0 0 0 
26.982 1 164 -2.99833 18.2056 2.76367 0.0306978 -1.01142 2.97972 -0.0973238 0.220629 0.352297 0 0 0 0 0 0 0 0 0 
26.982 1 2411 8.77102 20.1692 10.5937 0.134875 -4.26876 1.57565 -0.281258 0.190638 0.00275544 0 0 0 0 0 0 0 0 0 
26.982 1 994 36.5007 18.3157 16.2417 1.78076 0.672484 4.09339 0.0809579 0.418662 0.713446 0 0 0 0 0 0 0 0 0 
26.982 1 27 27.2343 0.778877 2.97828 -1.30316 -0.663745 0.589953 -0.0161716 -0.290918 0.316488 0 0 0 0 0 0 0 0 0 
26.982 1 365 1.4825 16.1925 4.58378 2.61568 0.0351511 2.67662 0.0523242 -0.135145 0.0836842 0 0 0 0 0 0 0 0 0 
26.982 1 168 1.50132 18.2578 2.79966 2.45238 1.645 1.30525 -0.128006 0.200085 -0.24179 0 0 0 0 0 0 0 0 0 
26.982 1 167 3.77136 16.4525 2.72307 1.25114 3.37011 5.61725 -0.122795 -0.34925 -0.0925497 0 0 0 0 0 0 0 0 0 
26.982 1 366 3.78172 18.0984 4.88338 -2.9708 -0.41268 0.159425 0.389184 -0.051593 -0.589297 0 0 0 0 0 0 0 0 0 
26.982 1 2417 15.4346 20.6058 8.49381 -0.640421 0.721138 -0.295968 0.243901 -0.808827 -0.27361 0 0 0 0 0 0 0 0 0 
26.982 1 2205 1.65177 20.1531 4.86513 -4.47093 -2.05611 3.10394 -0.160257 0.218063 -0.237064 0 0 0 0 0 0 0 0 0 
26.982 1 2829 29.5684 20.3096 16.4045 -0.550705 1.64152 -0.476822 0.0747154 -0.311613 -0.470497 0 0 0 0 0 0 0 0 0 
26.982 1 369 6.00945 16.1677 4.88576 -5.00341 -4.29544 0.769959 0.455215 0.0391026 -0.287711 0 0 0 0 0 0 0 0 0 
26.982 1 172 6.16768 18.1708 2.88051 4.82409 5.25122 -1.57085 0.00564714 -0.20664 0.328301 0 0 0 0 0 0 0 0 0 
26.982 1 171 8.40735 16.2479 2.91026 -0.563021 1.47386 1.57028 -0.131219 0.618957 -0.157291 0 0 0 0 0 0 0 0 0 
26.982 1 370 8.5401 18.3567 4.86827 3.26996 3.02495 -1.3748 -0.338238 -0.686927 0.152387 0 0 0 0 0 0 0 0 0 
26.982 1 169 5.95828 16.5494 0.858141 0.359605 -3.52996 1.77923 0.411207 -0.124052 -0.473922 0 0 0 0 0 0 0 0 0 
26.982 1 176 10.6277 18.3585 2.66829 2.35263 0.729439 -0.280301 0.440757 -0.202376 0.098431 0 0 0 0 0 0 0 0 0 
26.982 1 373 10.7593 16.4277 4.83702 -0.425032 2.02981 -2.1317 0.0419221 -0.11255 -0.352297 0 0 0 0 0 0 0 0 0 
26.982 1 175 13.1026 16.3847 2.51657 3.70801 0.152147 -2.70072 -0.166545 -0.180751 -0.00308456 0 0 0 0 0 0 0 0 0 
26.982 1 374 13.1146 18.2585 4.55833 -8.93511 -1.61642 4.13748 -0.352182 0.301307 -0.00730141 0 0 0 0 0 0 0 0 0 
26.982 1 2213 10.8692 20.2304 4.72888 -4.41241 -0.108398 -2.38168 -0.108375 0.0167948 -0.300655 0 0 0 0 0 0 0 0 0 
26.982 1 23 22.4511 0.905057 2.67399 -7.29924 0.114682 0.417202 0.289727 -0.293431 -0.0243495 0 0 0 0 0 0 0 0 0 
26.982 1 377 15.3212 16.6237 4.59638 -5.44336 -2.05302 -1.78961 0.347964 -0.637519 0.429383 0 0 0 0 0 0 0 0 0 
26.982 1 180 15.3917 18.2561 2.63001 -0.796862 0.392997 -1.5341 -0.170129 0.254955 0.0200597 0 0 0 0 0 0 0 0 0 
26.982 1 179 17.906 16.3657 2.71782 -1.33903 1.26359 0.000128767 -0.126231 -0.445316 -0.00383312 0 0 0 0 0 0 0 0 0 
26.982 1 378 17.6838 18.2834 4.65087 3.11181 -0.633246 5.78604 0.00435849 -0.0219655 -0.123644 0 0 0 0 0 0 0 0 0 
26.982 1 66 27.3082 6.65221 1.0126 -1.32086 1.36817 -1.033 0.0770104 0.332441 -0.10906 0 0 0 0 0 0 0 0 0 
26.982 1 217 15.5049 0.617018 4.74453 0.130222 0.224956 -1.84351 0.083109 0.708388 -0.107542 0 0 0 0 0 0 0 0 0 
26.982 1 381 20.2223 16.3271 4.37693 -0.641643 -5.3729 0.295721 -0.179798 -0.167281 0.43555 0 0 0 0 0 0 0 0 0 
26.982 1 184 20.0036 18.4518 2.82937 -0.488625 -3.22648 -0.341536 -0.0054978 -0.164826 -0.597242 0 0 0 0 0 0 0 0 0 
26.982 1 1013 10.9844 0.848066 20.3048 2.19672 -2.67257 3.61532 -0.0029523 0.227862 0.185014 0 0 0 0 0 0 0 0 0 
26.982 1 205 1.48462 0.734658 4.4902 0.887827 0.696204 -2.53021 -0.230056 0.122437 0.625303 0 0 0 0 0 0 0 0 0 
26.982 1 183 22.6665 16.5408 2.66207 -8.26499 -2.60286 3.33578 -0.184741 0.210958 -0.297086 0 0 0 0 0 0 0 0 0 
26.982 1 382 22.3857 18.2174 4.85723 1.85015 -3.9584 1.98764 0.35164 0.232004 -0.217411 0 0 0 0 0 0 0 0 0 
26.982 1 385 25.0137 16.4243 4.40455 -0.784921 1.14548 -2.46059 -0.0518554 0.387337 0.412862 0 0 0 0 0 0 0 0 0 
26.982 1 188 25.0037 18.4043 2.51774 1.29249 -3.89844 -1.58702 -0.00167357 0.230449 -0.00421255 0 0 0 0 0 0 0 0 0 
26.982 1 997 38.8774 16.1645 16.545 0.34264 -0.925441 1.53456 -0.061327 0.422355 -0.0867241 0 0 0 0 0 0 0 0 0 
26.982 1 187 27.3875 16.1815 2.66989 1.37803 0.890472 -1.0805 -0.0547028 0.25417 0.252357 0 0 0 0 0 0 0 0 0 
26.982 1 386 27.1531 18.3948 4.50055 -3.39167 7.58116 -5.14802 -0.227838 -0.329188 0.466331 0 0 0 0 0 0 0 0 0 
26.982 1 192 29.4917 18.2898 2.63494 0.849983 -0.323446 1.22605 0.529424 -0.161503 0.234936 0 0 0 0 0 0 0 0 0 
26.982 1 389 29.4883 16.4753 4.77245 0.0176795 0.797308 2.63773 -0.113552 -0.151411 -0.278928 0 0 0 0 0 0 0 0 0 
26.982 1 1000 38.6507 18.3178 18.2367 2.93089 -8.34133 4.47931 -0.115506 0.0699006 -0.0984249 0 0 0 0 0 0 0 0 0 
26.982 1 3 -1.02334 0.784433 2.81308 1.25691 -3.36434 1.46725 0.346836 0.0189865 0.145957 0 0 0 0 0 0 0 0 0 
26.982 1 2219 17.8288 20.1925 6.52441 2.57931 -2.64973 -2.53122 -0.0499451 0.459164 -0.0495297 0 0 0 0 0 0 0 0 0 
26.982 1 2031 31.9141 20.2066 2.60393 2.49477 -0.971238 2.56872 -0.162993 0.0117961 0.805259 0 0 0 0 0 0 0 0 0 
26.982 1 191 31.8233 16.3098 2.68059 -2.12256 2.88038 0.225788 0.403166 0.198117 0.411601 0 0 0 0 0 0 0 0 0 
26.982 1 390 31.771 18.1702 4.75196 -1.07074 -1.61444 -0.553291 0.13091 0.42178 -0.249946 0 0 0 0 0 0 0 0 0 
26.982 1 393 34.1024 16.2453 4.66201 -1.65057 -2.42047 -1.68322 -0.428465 -0.0761631 0.255736 0 0 0 0 0 0 0 0 0 
26.982 1 196 34.1662 18.3028 2.85468 -0.380233 -3.80781 -0.375166 -0.465001 0.202858 -0.185361 0 0 0 0 0 0 0 0 0 
26.982 1 109 29.8379 8.58466 0.867597 0.660588 1.11944 -2.6417 -0.45743 0.0326492 -0.29359 0 0 0 0 0 0 0 0 0 
26.982 1 195 36.0901 16.3887 2.97234 3.26059 3.89375 -0.470014 1.13087 -0.11034 -0.453142 0 0 0 0 0 0 0 0 0 
26.982 1 394 36.3858 18.4188 4.81369 0.45656 6.48245 1.96117 0.142159 -0.280881 -0.744954 0 0 0 0 0 0 0 0 0 
26.982 1 397 38.6854 16.2566 4.78547 0.0509142 4.71815 -0.118401 0.303178 1.08381 -0.163137 0 0 0 0 0 0 0 0 0 
26.982 1 200 38.8742 17.9454 2.54009 -4.99866 6.82907 0.440626 -0.126595 0.363324 0.347555 0 0 0 0 0 0 0 0 0 
26.982 1 2833 34.2488 20.0856 16.3714 -4.90478 5.2473 0.929343 -0.257375 -0.0190397 -0.0803567 0 0 0 0 0 0 0 0 0 
26.982 1 361 43.7209 16.1815 4.63812 0.578935 -1.51947 -1.62528 -0.172676 -0.223728 -0.175963 0 0 0 0 0 0 0 0 0 
26.982 1 199 41.1405 16.3015 2.49334 -3.56332 3.36967 0.38619 0.278844 -0.380219 0.502063 0 0 0 0 0 0 0 0 0 
26.982 1 398 41.3196 18.1722 4.46967 -1.28788 3.21347 -2.37879 -0.0553403 -0.214878 0.403663 0 0 0 0 0 0 0 0 0 
26.982 1 2039 41.3608 20.17 2.73289 1.94831 -0.768438 4.62451 -0.117369 0.839886 0.228545 0 0 0 0 0 0 0 0 0 
26.982 1 243 -1.04526 4.89469 6.71272 -3.29321 -2.93823 2.56297 -0.0422798 -0.526234 -0.145332 0 0 0 0 0 0 0 0 0 
26.982 1 402 -0.896402 2.71486 8.79057 -1.24942 -2.96241 3.05725 0.105127 0.225061 -0.35333 0 0 0 0 0 0 0 0 0 
26.982 1 443 -1.06972 4.80629 10.6061 1.54588 -2.411 -3.34571 -0.0651992 -0.489946 0.490388 0 0 0 0 0 0 0 0 0 
26.982 1 208 1.67432 2.64149 6.63687 3.64523 -4.77624 -0.195042 -0.576601 -0.418405 0.464782 0 0 0 0 0 0 0 0 0 
26.982 1 445 1.05743 4.93473 8.5125 4.70103 2.31794 -0.749608 0.327953 -0.517365 0.0116906 0 0 0 0 0 0 0 0 0 
26.982 1 247 3.72404 4.55392 6.48272 -0.00500843 0.839888 3.91149 0.251159 0.166667 0.278577 0 0 0 0 0 0 0 0 0 
26.982 1 406 3.88986 2.72303 8.39322 0.642266 2.09039 1.23154 0.00701549 -0.475286 0.17762 0 0 0 0 0 0 0 0 0 
26.982 1 449 6.10452 4.47604 8.561 -1.99137 -6.43697 -7.91721 0.237337 -0.328327 -0.20814 0 0 0 0 0 0 0 0 0 
26.982 1 212 6.20012 2.57296 6.40987 -2.5838 3.61321 0.0568732 -0.186477 0.0545471 0.282215 0 0 0 0 0 0 0 0 0 
26.982 1 251 8.61734 4.82837 6.70237 3.04536 4.1487 -0.742518 -0.0263503 0.301338 0.0699008 0 0 0 0 0 0 0 0 0 
26.982 1 410 8.80349 2.66889 8.32982 -0.344374 -3.23575 -1.55376 -0.2735 -0.0100344 0.36559 0 0 0 0 0 0 0 0 0 
26.982 1 451 8.59171 4.48648 10.3303 1.86083 4.7363 3.78692 -0.181906 0.191472 0.129117 0 0 0 0 0 0 0 0 0 
26.982 1 412 6.2403 2.56053 10.619 -5.93295 -0.883433 -2.32347 -0.0146275 0.444807 0.146498 0 0 0 0 0 0 0 0 0 
26.982 1 2421 20.0085 20.1814 8.67282 2.72109 -0.527679 -0.507787 0.339095 -0.0548399 -0.582352 0 0 0 0 0 0 0 0 0 
26.982 1 2425 24.6148 20.2754 8.61741 1.97608 -1.9249 -1.13711 0.366211 -0.112377 -0.320594 0 0 0 0 0 0 0 0 0 
26.982 1 453 10.9111 4.90761 8.63099 0.403275 1.56784 2.94551 0.0903134 0.0472214 -0.0908141 0 0 0 0 0 0 0 0 0 
26.982 1 216 11.1088 2.89942 6.6377 3.59803 1.73255 -0.465125 -0.0308814 0.297344 -0.130068 0 0 0 0 0 0 0 0 0 
26.982 1 255 13.511 4.81387 6.6124 -2.7828 -0.776587 -0.281047 -0.686696 -0.419023 -0.0737134 0 0 0 0 0 0 0 0 0 
26.982 1 414 13.3761 2.77259 8.46133 1.21854 0.0626896 2.07664 0.108068 0.293598 0.537511 0 0 0 0 0 0 0 0 0 
26.982 1 455 13.3744 4.83795 10.68 -4.06302 2.56531 -2.52461 -0.321695 -0.100939 -0.51058 0 0 0 0 0 0 0 0 0 
26.982 1 416 11.1506 2.79911 10.2525 -3.11986 -4.78746 3.71057 -0.0787421 -0.387779 0.123591 0 0 0 0 0 0 0 0 0 
26.982 1 417 15.6505 0.837317 8.49184 -2.21367 -0.604327 1.93473 -0.150745 -0.122013 -0.00103499 0 0 0 0 0 0 0 0 0 
26.982 1 457 15.6516 4.66142 8.45771 0.723916 -4.79098 -4.20962 -0.111011 0.158298 0.452356 0 0 0 0 0 0 0 0 0 