ITEM: TIMESTEP
1700
ITEM: NUMBER OF ATOMS
4000
ITEM: BOX BOUNDS pp pp pp
-0.419707 40.9197
0.0493759 40.4506
0.0412798 40.4587
ITEM: ATOMS mass type id x y z vx vy vz fx fy fz xrad yrad zrad vxrad vyrad vzrad fxrad fyrad fzrad 
26.982 1 811 10.1216 -0.0666764 18.3018 -0.608787 -2.62518 -0.328354 -0.199037 0.538182 -0.0418973 0 0 0 0 0 0 0 0 0 
26.982 1 3 1.48416 -0.0221186 2.20696 -0.297373 -0.428708 0.608481 0.162946 0.185701 -0.254165 0 0 0 0 0 0 0 0 0 
26.982 1 8 3.58139 2.0772 2.10338 -1.65796 0.11561 2.34832 0.0184138 -0.0287457 -0.264583 0 0 0 0 0 0 0 0 0 
26.982 1 807 5.82086 0.121206 18.1997 2.02759 -1.09878 2.20098 0.109697 -0.326902 0.18446 0 0 0 0 0 0 0 0 0 
26.982 1 43 1.52433 4.055 1.9742 -0.44281 -0.706203 1.54928 0.611952 0.372742 0.247535 0 0 0 0 0 0 0 0 0 
26.982 1 202 1.69267 2.24758 4.06518 -0.0835044 2.59518 -0.421996 -0.194013 -0.495488 0.232092 0 0 0 0 0 0 0 0 0 
26.982 1 241 -0.341302 4.17712 4.01797 2.35858 -0.275264 -1.29255 -0.367009 -0.234771 0.358155 0 0 0 0 0 0 0 0 0 
26.982 1 245 3.60879 4.20654 4.0824 -3.35486 -1.49157 -1.19029 0.368104 -0.0728125 -0.377067 0 0 0 0 0 0 0 0 0 
26.982 1 2825 24.2945 20.2137 16.2245 1.4879 -5.45625 1.53811 0.467898 0.0685543 -0.383915 0 0 0 0 0 0 0 0 0 
26.982 1 2819 18.0905 20.3022 18.3336 4.19172 -2.09025 -4.58997 -0.282747 -0.440974 0.18883 0 0 0 0 0 0 0 0 0 
26.982 1 12 7.76308 2.06112 2.19585 -1.24616 -0.993488 -0.85414 0.16945 -0.0874967 -0.49516 0 0 0 0 0 0 0 0 0 
26.982 1 47 5.7044 4.02407 1.97758 2.60932 5.04752 2.65172 0.0794906 0.405301 0.0903567 0 0 0 0 0 0 0 0 0 
26.982 1 49 7.84543 4.10761 0.0447177 -4.4526 -5.16386 -0.842152 0.023785 -0.00351424 -0.221789 0 0 0 0 0 0 0 0 0 
26.982 1 206 5.69391 2.11568 3.96328 1.34431 -0.266293 1.59721 -0.00219859 -0.151457 0.794265 0 0 0 0 0 0 0 0 0 
26.982 1 209 7.83879 -0.053011 4.02367 2.67449 2.4529 1.94697 -0.578227 0.392271 0.456395 0 0 0 0 0 0 0 0 0 
26.982 1 249 7.66238 4.10512 3.99278 -2.42332 -0.399511 2.31197 0.565117 -0.0618499 0.164997 0 0 0 0 0 0 0 0 0 
26.982 1 10 9.75552 2.12156 0.143463 3.15294 0.301749 2.38348 0.570898 -0.191086 -0.14255 0 0 0 0 0 0 0 0 0 
26.982 1 16 12.009 2.07288 2.09035 3.4085 2.90309 2.99981 -0.0723742 0.354327 -0.041999 0 0 0 0 0 0 0 0 0 
26.982 1 51 10.0286 4.04434 2.13827 -1.79363 -2.24862 1.02421 -0.381835 -0.616108 0.150402 0 0 0 0 0 0 0 0 0 
26.982 1 53 12.1562 4.2262 0.000630456 0.503257 -1.27762 -2.29441 0.0697765 -0.530034 0.00383878 0 0 0 0 0 0 0 0 0 
26.982 1 210 9.86628 1.99391 4.15773 2.25715 -0.670073 -7.11838 0.114454 0.432968 -0.359861 0 0 0 0 0 0 0 0 0 
26.982 1 1197 36.8896 16.3383 20.2336 3.24502 5.87733 -1.25021 -0.218952 -0.14528 0.00596764 0 0 0 0 0 0 0 0 0 
26.982 1 253 11.9571 4.10574 4.3101 -3.13664 -1.78231 1.53811 0.197294 -0.399769 -0.556979 0 0 0 0 0 0 0 0 0 
26.982 1 20 16.3585 2.14571 1.90815 -0.204239 -0.869987 0.05526 -0.973085 -0.307663 0.370377 0 0 0 0 0 0 0 0 0 
26.982 1 55 14.2034 4.26347 1.97937 1.51806 1.36106 -3.2943 -0.0177127 -0.398896 0.174347 0 0 0 0 0 0 0 0 0 
26.982 1 57 16.3264 4.00716 -0.244765 0.432576 -0.768041 1.4107 -0.449923 0.244066 0.447918 0 0 0 0 0 0 0 0 0 
26.982 1 214 14.0886 2.09102 4.1462 -3.75824 3.73998 0.43844 0.0616521 0.365316 -0.262186 0 0 0 0 0 0 0 0 0 
26.982 1 257 16.1425 4.17289 4.08612 5.14681 -0.29886 3.27436 -0.379986 -0.223901 -0.166784 0 0 0 0 0 0 0 0 0 
26.982 1 218 18.1525 2.08133 4.05127 3.48094 1.43198 4.22097 -0.105602 -0.258512 0.0568314 0 0 0 0 0 0 0 0 0 
26.982 1 18 18.2258 1.94671 -0.0580446 -1.08633 -0.408051 3.12438 0.0887948 0.171391 0.00128349 0 0 0 0 0 0 0 0 0 
26.982 1 819 18.287 0.028222 18.0717 -5.69337 -3.21408 -1.19948 -0.196305 0.239761 0.3791 0 0 0 0 0 0 0 0 0 
26.982 1 2813 12.0416 20.1915 16.276 -3.46312 2.65583 -0.422489 -0.487341 -0.0252385 -0.180921 0 0 0 0 0 0 0 0 0 
26.982 1 22 22.3619 2.01751 0.0853096 -3.66246 0.741032 3.18728 -0.212279 -0.159049 -0.378697 0 0 0 0 0 0 0 0 0 
26.982 1 24 20.2383 2.10583 1.92184 4.25869 -2.67691 1.24192 -0.17755 -0.521629 -0.193899 0 0 0 0 0 0 0 0 0 
26.982 1 59 18.1568 4.08111 2.05646 4.4965 3.72562 3.07254 0.0266138 0.303504 -0.40093 0 0 0 0 0 0 0 0 0 
26.982 1 61 20.2362 4.07332 -0.0794846 3.68394 -2.23042 0.425626 0.033909 0.0888184 0.150044 0 0 0 0 0 0 0 0 0 
26.982 1 63 22.2828 3.99603 2.16247 1.60669 0.294597 -2.71215 -0.025843 0.13154 -0.550209 0 0 0 0 0 0 0 0 0 
26.982 1 222 22.1691 2.07707 4.03212 -3.62817 2.24131 -0.256411 0.640245 -0.33965 0.224233 0 0 0 0 0 0 0 0 0 
26.982 1 261 20.1815 3.93021 3.93138 -3.3572 -0.454833 6.33237 0.085178 0.449141 0.657507 0 0 0 0 0 0 0 0 0 
26.982 1 25 24.4982 -0.190662 0.330066 3.54478 -1.53815 0.220882 -0.0985381 0.406585 -0.574387 0 0 0 0 0 0 0 0 0 
26.982 1 635 34.6372 -0.10986 14.2086 -3.66981 -2.07964 0.180362 0.104617 0.557697 0.108919 0 0 0 0 0 0 0 0 0 
26.982 1 27 26.668 -0.146857 2.12135 0.839842 0.362653 1.75501 -0.619834 0.659272 0.142707 0 0 0 0 0 0 0 0 0 
26.982 1 28 24.2824 1.97913 2.05065 0.972864 -1.35534 -3.75116 0.52751 0.031833 0.0961364 0 0 0 0 0 0 0 0 0 
26.982 1 65 24.2576 4.06678 -0.0271005 5.02656 -1.7201 0.796389 0.382763 0.00148221 0.0937254 0 0 0 0 0 0 0 0 0 
26.982 1 67 26.2616 4.02754 2.23142 -0.945506 -1.11491 0.455688 0.508004 -0.111477 -0.743077 0 0 0 0 0 0 0 0 0 
26.982 1 225 24.4262 -0.145069 3.97734 -3.03335 2.6258 0.736199 -0.265501 0.301888 -0.026869 0 0 0 0 0 0 0 0 0 
26.982 1 226 26.4099 1.87805 4.21738 1.74602 0.230205 -6.06001 0.439787 -0.0337822 -0.219396 0 0 0 0 0 0 0 0 0 
26.982 1 265 24.5336 3.76963 4.17031 8.5859 0.389794 3.58469 -0.658704 0.783105 -0.0497231 0 0 0 0 0 0 0 0 0 
26.982 1 30 30.5868 2.10968 0.119604 -0.160295 5.01636 2.21523 0.0279261 0.374591 -0.280754 0 0 0 0 0 0 0 0 0 
26.982 1 32 28.3307 2.14903 2.07747 2.50481 2.84527 4.38585 0.532029 -0.109813 0.307482 0 0 0 0 0 0 0 0 0 
26.982 1 69 28.5384 4.17755 0.0732208 -1.66772 -0.0842597 0.653512 -0.294184 -0.827592 -0.179085 0 0 0 0 0 0 0 0 0 
26.982 1 71 30.6125 4.04179 2.19403 3.08822 0.36585 -3.95302 -0.0976823 0.0245942 -0.502465 0 0 0 0 0 0 0 0 0 
26.982 1 230 30.6405 2.07709 4.07273 -3.02491 1.39834 -2.056 -0.0566145 -0.271068 0.360337 0 0 0 0 0 0 0 0 0 
26.982 1 269 28.6046 3.9214 4.21636 -1.98781 1.79248 -0.597211 -0.508039 0.534285 -0.09386 0 0 0 0 0 0 0 0 0 
26.982 1 35 34.8147 0.0349521 1.90209 1.43108 5.07655 -4.15578 -0.366076 0.212155 0.403658 0 0 0 0 0 0 0 0 0 
26.982 1 36 32.7625 1.96097 2.21028 2.13532 0.921623 -3.30393 0.273682 0.425059 -0.267196 0 0 0 0 0 0 0 0 0 
26.982 1 73 32.6366 4.01454 -0.0322006 -2.03341 -3.82886 -6.80082 -0.494626 0.268301 0.482948 0 0 0 0 0 0 0 0 0 
26.982 1 75 34.6221 4.20531 2.04389 -1.43292 0.259785 -1.5526 -0.144137 -0.372525 0.20462 0 0 0 0 0 0 0 0 0 
26.982 1 234 34.856 1.92571 4.26231 3.6376 -3.07125 -0.798111 -0.584198 0.1352 -0.181953 0 0 0 0 0 0 0 0 0 
26.982 1 273 32.7213 4.07371 4.07939 0.742166 1.02821 -1.91822 0.0509341 -0.406496 0.081489 0 0 0 0 0 0 0 0 0 
26.982 1 4 40.8423 2.30074 2.02456 -0.144717 4.39968 -1.39323 -0.290887 -0.619134 -0.019282 0 0 0 0 0 0 0 0 0 
26.982 1 40 36.6277 2.06453 2.27125 -0.00742986 -0.925688 -0.59672 0.32738 0.16236 -0.858881 0 0 0 0 0 0 0 0 0 
26.982 1 79 38.7423 4.10069 1.98608 -0.274287 -3.40211 -1.25952 -0.0235733 0.162999 -0.118643 0 0 0 0 0 0 0 0 0 
26.982 1 961 -0.480282 16.2275 16.2684 -0.572077 2.23661 -1.36508 0.37554 0.239355 -0.183365 0 0 0 0 0 0 0 0 0 
26.982 1 238 38.8047 2.22823 4.08752 3.76178 2.99398 3.37539 0.149738 -0.282323 -0.0263235 0 0 0 0 0 0 0 0 0 
26.982 1 277 36.7823 4.15938 3.96306 4.90372 3.98588 3.24445 -0.227043 -0.0559527 0.503715 0 0 0 0 0 0 0 0 0 
26.982 1 631 30.54 0.0423244 14.0986 3.58729 -1.52837 -1.68546 -0.0943869 -0.106635 0.0464847 0 0 0 0 0 0 0 0 0 
26.982 1 48 3.61368 6.08841 2.08625 2.37547 -2.6047 -1.47741 0.2485 0.351403 -0.000854636 0 0 0 0 0 0 0 0 0 
26.982 1 627 26.4735 0.0299451 13.9438 -5.05215 -0.529308 -4.83042 -0.109552 0.100793 0.593934 0 0 0 0 0 0 0 0 0 
26.982 1 83 1.59279 8.07622 1.98512 2.02077 -0.688646 -3.27697 0.273439 0.204674 0.342961 0 0 0 0 0 0 0 0 0 
26.982 1 403 1.73055 0.085731 10.093 2.39175 0.604591 2.58913 -0.185044 -0.0452262 0.17896 0 0 0 0 0 0 0 0 0 
26.982 1 242 1.56495 6.21874 4.13316 -0.553869 -2.84231 -3.28032 0.175637 0.0723433 -0.241146 0 0 0 0 0 0 0 0 0 
26.982 1 285 3.83912 8.02598 4.13053 4.94584 -4.18181 -4.7804 -0.494163 0.406099 -0.132703 0 0 0 0 0 0 0 0 0 
26.982 1 46 5.77866 6.23857 -0.118295 -1.3653 -3.60056 -0.663074 -0.0550284 -0.438824 0.242468 0 0 0 0 0 0 0 0 0 
26.982 1 52 7.80386 6.00868 1.99704 -0.827061 0.689254 3.35904 0.0566318 0.317965 0.121021 0 0 0 0 0 0 0 0 0 
26.982 1 87 5.88192 8.20089 2.02736 0.0679627 1.1726 -2.05144 -0.239795 -0.257759 0.128209 0 0 0 0 0 0 0 0 0 
26.982 1 603 1.7312 -0.0611001 14.0897 0.842547 0.318845 -2.45508 0.357231 0.440302 -0.314657 0 0 0 0 0 0 0 0 0 
26.982 1 246 5.79961 6.10688 3.98356 0.954329 -1.60823 2.71848 -0.0167746 0.146168 0.00115587 0 0 0 0 0 0 0 0 0 
26.982 1 289 7.89754 8.26126 4.08763 2.26542 -2.11266 -1.51567 0.0695237 -0.670951 -0.237207 0 0 0 0 0 0 0 0 0 
26.982 1 92 7.78249 10.2449 2.12006 -0.185767 -4.03016 -0.791019 0.217602 -0.306659 -0.462056 0 0 0 0 0 0 0 0 0 
26.982 1 286 5.81454 10.2109 4.10871 -1.20557 -7.51513 0.266843 -0.355872 -0.176921 -0.37891 0 0 0 0 0 0 0 0 0 
26.982 1 1021 20.3369 0.0964038 20.283 7.36067 0.452087 3.86014 -0.259082 0.19491 -0.41754 0 0 0 0 0 0 0 0 0 
26.982 1 56 11.9468 5.99972 2.19999 -2.83735 1.62639 3.05036 0.561472 0.447962 0.129785 0 0 0 0 0 0 0 0 0 
26.982 1 91 9.88852 8.08776 2.03223 3.41817 2.03781 2.50375 0.0591349 -0.119591 0.162407 0 0 0 0 0 0 0 0 0 
26.982 1 250 9.85303 5.99102 4.0031 -5.96678 1.06541 1.86517 -0.0903152 0.566121 0.483475 0 0 0 0 0 0 0 0 0 
26.982 1 293 11.9604 8.29767 4.12841 2.51957 1.30816 3.05265 -0.0883315 -0.614094 0.122221 0 0 0 0 0 0 0 0 0 
26.982 1 54 14.1101 6.24327 -0.136235 2.58705 2.47469 3.70604 0.208219 -0.16376 0.198202 0 0 0 0 0 0 0 0 0 
26.982 1 60 16.1543 6.2572 2.04903 -0.66605 -2.40362 -2.40064 0.0131859 -0.44675 0.102914 0 0 0 0 0 0 0 0 0 
26.982 1 95 14.1015 8.05768 2.21118 4.39957 -1.63091 1.48295 -0.219331 0.0863507 -0.226993 0 0 0 0 0 0 0 0 0 
26.982 1 97 16.1639 8.15435 0.0871131 -1.0523 -4.97796 1.06492 -0.187857 0.124496 -0.272706 0 0 0 0 0 0 0 0 0 
26.982 1 254 13.9725 6.14734 4.16712 6.22579 -2.98675 -1.46625 0.237511 -0.15505 0.109599 0 0 0 0 0 0 0 0 0 
26.982 1 297 16.1395 8.18572 4.28185 1.58377 -4.8673 2.57242 -0.288091 -0.288454 -0.436465 0 0 0 0 0 0 0 0 0 
26.982 1 58 18.1258 6.13141 -0.0623076 0.849659 1.05431 -2.15319 0.280629 -0.320722 0.118681 0 0 0 0 0 0 0 0 0 
26.982 1 2639 38.9167 20.2622 14.1786 2.76141 -1.58407 3.15554 0.0317001 0.0608098 -0.13706 0 0 0 0 0 0 0 0 0 
26.982 1 64 20.1278 6.01633 2.05346 -1.09662 0.447852 -3.44476 0.360082 0.230022 -0.319885 0 0 0 0 0 0 0 0 0 
26.982 1 99 18.1809 8.12309 2.11015 2.3036 -0.124336 1.32773 0.0537271 -0.0380521 -0.0277399 0 0 0 0 0 0 0 0 0 
26.982 1 103 22.4051 8.21167 1.87124 -2.87849 1.86233 -2.47714 -0.359226 -0.591581 0.596055 0 0 0 0 0 0 0 0 0 
26.982 1 258 18.2155 6.01448 4.13243 0.322959 1.24283 -0.564386 -0.199516 0.199599 -0.143011 0 0 0 0 0 0 0 0 0 
26.982 1 262 22.2682 5.97422 4.05866 -3.24628 -4.49252 2.14401 0.142359 0.106895 0.0379396 0 0 0 0 0 0 0 0 0 
26.982 1 301 20.2242 7.96222 4.04077 0.961198 2.72854 -0.037416 0.335238 0.366001 -0.113986 0 0 0 0 0 0 0 0 0 
26.982 1 298 18.2152 10.0927 4.08915 -3.78893 -5.73802 3.00667 -0.0605638 0.390661 -0.126041 0 0 0 0 0 0 0 0 0 
26.982 1 2637 36.7763 19.904 11.9906 0.797996 4.0153 -3.55235 -0.201714 0.818004 0.523761 0 0 0 0 0 0 0 0 0 
26.982 1 68 24.1787 5.888 2.03184 0.82048 -3.31304 4.63377 0.579476 0.657564 0.123932 0 0 0 0 0 0 0 0 0 
26.982 1 107 26.3577 8.10796 2.29616 -0.115062 -0.793242 -1.5529 -0.32431 -0.0990254 -0.789743 0 0 0 0 0 0 0 0 0 
26.982 1 266 26.454 6.04904 4.01715 2.83095 -0.956769 3.13406 -0.233675 -0.159041 0.673387 0 0 0 0 0 0 0 0 0 
26.982 1 305 24.2713 8.04879 4.11292 -1.34993 4.27663 -2.49337 0.187028 -0.288683 -0.0898375 0 0 0 0 0 0 0 0 0 
26.982 1 106 26.3099 10.327 0.233106 4.01866 0.321327 -3.49952 0.382557 -0.371825 -0.234589 0 0 0 0 0 0 0 0 0 
26.982 1 108 24.2565 10.2274 2.33373 -2.23762 -1.91836 3.09731 0.508397 -0.225853 -0.47764 0 0 0 0 0 0 0 0 0 
26.982 1 306 26.5201 10.0811 4.24374 -0.36491 -1.54533 -0.542888 -0.673848 0.424621 -0.296169 0 0 0 0 0 0 0 0 0 
26.982 1 70 30.3978 6.006 0.0632644 3.06032 -2.90779 4.25126 0.698394 0.451095 -0.0458687 0 0 0 0 0 0 0 0 0 
26.982 1 72 28.4129 6.00744 2.16225 1.18879 -2.00991 0.190566 0.448709 0.0705727 0.244939 0 0 0 0 0 0 0 0 0 
26.982 1 111 30.5615 8.0935 2.14317 -4.69794 -0.0146048 1.24768 -0.0565949 -0.306295 -0.106782 0 0 0 0 0 0 0 0 0 
26.982 1 270 30.638 5.99855 4.15405 -3.51723 -2.15708 3.38673 -0.682599 0.30742 -0.0943594 0 0 0 0 0 0 0 0 0 
26.982 1 309 28.4506 8.23438 4.05455 6.37995 3.29777 7.22927 0.624615 -0.875147 0.526262 0 0 0 0 0 0 0 0 0 
26.982 1 112 28.3267 10.012 2.1226 1.35136 0.784245 -1.18697 0.56735 0.904903 -0.272149 0 0 0 0 0 0 0 0 0 
26.982 1 76 32.5562 6.14569 2.09917 5.19321 4.38483 -0.300767 0.0850985 -0.156735 -0.251761 0 0 0 0 0 0 0 0 0 
26.982 1 115 34.6852 8.08921 2.0162 -4.91427 -1.65999 2.14332 -0.107831 -0.0860859 0.0911984 0 0 0 0 0 0 0 0 0 
26.982 1 274 34.633 6.10263 4.36769 -0.393896 5.04084 0.352981 -0.188904 -0.187805 -1.20834 0 0 0 0 0 0 0 0 0 
26.982 1 313 32.6042 8.05074 4.12987 4.16475 2.21902 3.36883 0.211316 0.116114 -0.178855 0 0 0 0 0 0 0 0 0 
26.982 1 114 34.6744 10.1339 0.053263 -6.34431 -1.68321 -0.0481866 0.285389 -0.126192 -0.0957623 0 0 0 0 0 0 0 0 0 
26.982 1 116 32.4724 10.145 2.04053 -0.172125 -2.59758 -3.6949 0.349238 -0.0577956 0.0769039 0 0 0 0 0 0 0 0 0 
26.982 1 44 40.878 5.99485 1.96766 0.451135 2.48996 2.44751 -0.0940186 0.333177 0.0654198 0 0 0 0 0 0 0 0 0 
26.982 1 281 40.7869 8.04206 3.97818 0.785031 1.96771 -2.78063 0.367858 0.00846676 0.260535 0 0 0 0 0 0 0 0 0 
26.982 1 2631 30.7583 20.2294 14.1672 5.08309 1.56452 1.39863 -0.285249 -0.0695189 -0.130923 0 0 0 0 0 0 0 0 0 
26.982 1 80 36.538 6.10592 2.0524 6.41384 4.09741 4.34389 0.563369 0.121654 0.0321213 0 0 0 0 0 0 0 0 0 
26.982 1 117 36.9151 7.97086 -0.0167864 -1.62631 -5.32042 2.01904 -0.55295 0.418032 0.057957 0 0 0 0 0 0 0 0 0 
26.982 1 119 38.7975 7.94678 2.01847 -1.03811 1.90696 -1.87395 -0.122212 0.0555806 -0.0138413 0 0 0 0 0 0 0 0 0 
26.982 1 278 38.7877 6.12126 4.10081 -4.39548 -1.8123 -2.16898 0.0329129 -0.193107 -0.197077 0 0 0 0 0 0 0 0 0 
26.982 1 317 36.71 7.98656 4.1931 -3.73972 4.77657 2.58082 0.124886 0.503031 -0.711212 0 0 0 0 0 0 0 0 0 
26.982 1 120 36.758 10.0525 1.99588 2.58234 -0.00590407 -0.613036 0.0409649 0.028204 0.0129736 0 0 0 0 0 0 0 0 0 
26.982 1 318 38.7927 10.0905 3.86823 3.78972 -0.354406 0.792933 -0.0254094 -0.32511 0.392342 0 0 0 0 0 0 0 0 0 
26.982 1 88 3.78322 10.1445 2.22785 -2.46427 1.86488 0.274564 -0.0881858 -0.61777 -0.722183 0 0 0 0 0 0 0 0 0 
26.982 1 2611 10.01 20.2601 14.2139 1.7569 0.535135 1.58311 -0.194049 0.0643013 0.173277 0 0 0 0 0 0 0 0 0 
26.982 1 123 1.75169 12.017 1.97276 4.39132 1.31132 2.90452 -0.348182 0.0712926 0.696806 0 0 0 0 0 0 0 0 0 
26.982 1 2609 7.88519 20.3129 12.2983 2.06717 -3.07622 -1.33427 0.298543 0.190427 -0.509794 0 0 0 0 0 0 0 0 0 
26.982 1 128 3.67207 14.118 2.03053 0.160476 -1.78942 -2.52767 -0.284152 -0.0378023 -0.3575 0 0 0 0 0 0 0 0 0 
26.982 1 282 1.6772 10.0635 4.13627 0.598113 -5.48205 -4.22764 -0.00590894 0.0463741 -0.127919 0 0 0 0 0 0 0 0 0 
26.982 1 322 1.67676 14.2257 4.10308 3.24495 4.07698 4.64364 0.162152 -0.548054 -0.148629 0 0 0 0 0 0 0 0 0 
26.982 1 325 3.8289 12.1657 3.83016 1.25261 2.2163 5.60172 -0.374347 0.325517 0.957185 0 0 0 0 0 0 0 0 0 
26.982 1 207 5.60559 -0.0522438 6.03282 2.26871 1.66098 -3.93098 0.43948 0.655712 0.376977 0 0 0 0 0 0 0 0 0 
26.982 1 127 5.88296 12.407 1.97026 -3.24499 -0.695878 1.06336 0.00524673 -0.43443 0.247211 0 0 0 0 0 0 0 0 0 
26.982 1 129 7.7744 12.1282 -0.0345767 0.599139 -1.84454 -0.0688877 0.565976 0.343416 -0.0586141 0 0 0 0 0 0 0 0 0 
26.982 1 132 7.98759 14.2965 2.06355 -1.88261 2.18407 3.93429 -0.549049 -0.184832 -0.291256 0 0 0 0 0 0 0 0 0 
26.982 1 326 5.84052 14.278 3.98274 -0.431419 1.16547 -0.0800715 -0.0423488 -0.235539 0.182792 0 0 0 0 0 0 0 0 0 
26.982 1 329 7.67153 12.1749 4.01341 4.57266 1.89554 -1.99473 0.558676 0.677546 0.150978 0 0 0 0 0 0 0 0 0 
26.982 1 96 12.0383 10.0174 1.9773 1.84874 1.75305 1.66956 -0.133422 0.499468 0.579382 0 0 0 0 0 0 0 0 0 
26.982 1 407 6.04512 0.0433112 10.0803 -1.06994 -2.22494 1.64632 -0.360366 -0.00956658 -0.219345 0 0 0 0 0 0 0 0 0 
26.982 1 131 9.73483 12.285 2.11901 2.70972 -2.07013 -1.15203 0.729719 -0.277772 -0.423067 0 0 0 0 0 0 0 0 0 
26.982 1 133 11.9849 12.1288 0.100669 -0.903453 1.78845 0.473313 -0.179243 -0.0805362 -0.117948 0 0 0 0 0 0 0 0 0 
26.982 1 136 12.0733 14.1352 1.97289 1.90823 -3.23219 0.797924 -0.311263 0.317145 0.381715 0 0 0 0 0 0 0 0 0 
26.982 1 290 9.90086 10.1929 3.90242 2.30685 -0.00766679 -6.05512 0.201748 0.0540616 0.282724 0 0 0 0 0 0 0 0 0 
26.982 1 330 9.88801 14.2387 4.05175 -1.36405 -0.389293 -0.983848 0.213934 -0.0634108 0.185676 0 0 0 0 0 0 0 0 0 
26.982 1 333 12.0404 12.163 4.03496 -3.9901 4.17482 -3.32598 -0.195727 0.426639 -0.263656 0 0 0 0 0 0 0 0 0 
26.982 1 100 16.0825 10.0478 2.05223 3.97752 -1.16545 -1.25492 0.141036 0.523885 0.24836 0 0 0 0 0 0 0 0 0 
26.982 1 135 14.2322 12.3107 2.03104 1.1238 -3.11666 -3.79414 -0.397144 -0.656994 0.227058 0 0 0 0 0 0 0 0 0 
26.982 1 140 15.9629 14.3147 2.12974 0.53569 -1.24238 1.03317 0.527187 -0.021077 -0.380039 0 0 0 0 0 0 0 0 0 
26.982 1 294 13.9905 10.221 4.05385 6.77454 0.564305 -0.82102 0.224973 -0.262627 0.0172748 0 0 0 0 0 0 0 0 0 
26.982 1 334 14.1801 14.3301 4.13326 2.81528 0.925203 -0.701372 -0.792686 -0.287653 -0.0541532 0 0 0 0 0 0 0 0 0 
26.982 1 337 16.0828 12.0831 4.28421 -4.12468 -3.53651 0.746625 0.0367004 0.38274 -0.955367 0 0 0 0 0 0 0 0 0 
26.982 1 104 20.2515 10.1497 2.11047 -2.96799 3.33684 2.93025 -0.0618661 -0.00370371 0.00197467 0 0 0 0 0 0 0 0 0 
26.982 1 139 18.2102 12.1849 2.11525 6.39337 -1.43703 0.985932 -0.569311 -0.00481464 -0.0137003 0 0 0 0 0 0 0 0 0 
26.982 1 143 22.2385 12.2403 2.08436 0.0420015 -1.53451 -3.17157 -0.212912 -0.0819389 -0.0974371 0 0 0 0 0 0 0 0 0 
26.982 1 144 20.1522 14.3727 1.94637 -2.36847 -0.295459 -4.26199 0.0245591 -0.0709496 0.107378 0 0 0 0 0 0 0 0 0 
26.982 1 302 22.2741 10.1005 4.12194 1.50685 -2.92598 7.56837 -0.339065 0.0208804 -0.0649163 0 0 0 0 0 0 0 0 0 
26.982 1 338 18.0598 14.3352 4.00803 4.28784 -5.85233 -0.177632 0.0765964 -0.168479 0.167795 0 0 0 0 0 0 0 0 0 
26.982 1 341 20.1795 12.3224 3.95986 0.476198 -9.09608 -0.280056 -0.207537 -0.570612 0.399708 0 0 0 0 0 0 0 0 0 
26.982 1 342 22.0454 14.2011 4.0566 2.30298 -0.482639 -1.36608 0.831113 0.366938 -0.163504 0 0 0 0 0 0 0 0 0 
26.982 1 147 26.4387 12.2441 2.21226 1.96593 3.03094 -0.427555 -0.267174 -0.120606 -0.319157 0 0 0 0 0 0 0 0 0 
26.982 1 148 24.3688 14.1845 2.01609 -5.2226 2.98339 0.67764 -0.0572409 0.292198 0.172779 0 0 0 0 0 0 0 0 0 
26.982 1 345 24.2247 12.3108 4.06928 0.600438 0.83316 2.56722 0.295666 -0.194953 0.0320624 0 0 0 0 0 0 0 0 0 
26.982 1 346 26.3715 14.2717 4.07384 -4.06054 -5.17531 3.17705 0.346416 -0.231686 0.0273532 0 0 0 0 0 0 0 0 0 
26.982 1 110 30.5053 9.95042 0.0327968 -3.37916 3.71251 -0.490874 -0.0323888 0.996885 0.325918 0 0 0 0 0 0 0 0 0 
26.982 1 149 28.4863 12.2839 0.0691685 0.696281 -2.03359 0.621707 0.16998 -0.387546 0.210243 0 0 0 0 0 0 0 0 0 
26.982 1 1025 24.4039 0.0674446 20.3875 2.78799 3.93657 3.06058 -0.00293898 -0.321755 -0.712545 0 0 0 0 0 0 0 0 0 
26.982 1 151 30.5768 12.2074 2.04822 -5.57093 2.49898 0.17037 -0.0367192 -0.373078 -0.0334064 0 0 0 0 0 0 0 0 0 
26.982 1 152 28.5428 14.1708 2.19981 3.06729 7.13558 3.70099 -0.199715 0.111848 -0.507677 0 0 0 0 0 0 0 0 0 
26.982 1 310 30.69 10.0133 4.09366 2.5883 -0.864663 -0.967356 -0.595931 0.487595 0.121533 0 0 0 0 0 0 0 0 0 
26.982 1 349 28.4556 12.1019 3.95704 4.02281 0.313258 1.40978 0.38607 -0.0162081 0.581624 0 0 0 0 0 0 0 0 0 
26.982 1 350 30.5955 14.06 4.06687 0.257591 1.47138 2.07007 -0.169414 0.0592911 0.357769 0 0 0 0 0 0 0 0 0 
26.982 1 203 1.62868 0.0523964 6.32889 -5.59866 -0.750671 2.17118 0.0352381 0.345421 -0.399897 0 0 0 0 0 0 0 0 0 
26.982 1 155 34.6958 12.091 2.05638 2.1328 3.10957 0.979739 0.0797244 0.446901 0.130068 0 0 0 0 0 0 0 0 0 
26.982 1 156 32.6764 14.3294 2.34845 -1.38836 -0.39575 -0.65606 -0.125682 -0.605073 -0.917814 0 0 0 0 0 0 0 0 0 
26.982 1 314 34.6928 10.0474 3.79494 2.961 1.28647 4.12417 0.0069088 0.207119 0.959214 0 0 0 0 0 0 0 0 0 
26.982 1 353 32.6442 12.0659 4.23722 -3.47636 1.70028 2.21184 0.103569 0.141109 -0.357595 0 0 0 0 0 0 0 0 0 
26.982 1 354 34.6094 14.1776 4.19075 -3.03945 -0.638741 -0.581594 0.551796 -0.389858 -0.404622 0 0 0 0 0 0 0 0 0 
26.982 1 84 -0.496883 9.90181 1.97239 -1.77747 2.6573 -1.27988 0.275488 0.513589 0.388913 0 0 0 0 0 0 0 0 0 
26.982 1 124 -0.399939 14.1034 2.09482 -8.35262 1.08454 -2.92272 -0.282909 -0.146979 0.273991 0 0 0 0 0 0 0 0 0 
26.982 1 321 -0.406534 11.9661 4.05863 -7.17166 0.735063 -2.18646 0.359763 0.487035 -0.30741 0 0 0 0 0 0 0 0 0 
26.982 1 158 38.8267 14.0948 0.0615544 4.83879 2.25294 -4.31698 0.25479 -0.234188 -0.244415 0 0 0 0 0 0 0 0 0 
26.982 1 159 38.9162 12.1634 2.0443 1.14523 0.973736 5.07621 -0.0740226 -0.0642425 -0.0873204 0 0 0 0 0 0 0 0 0 
26.982 1 160 36.7698 14.095 2.03376 -0.628244 -5.88804 -0.0913175 -0.016615 0.265755 0.23797 0 0 0 0 0 0 0 0 0 
26.982 1 357 36.9557 12.1127 4.06637 -1.30614 -0.367662 -5.05297 -0.931017 -0.0686657 -0.0814741 0 0 0 0 0 0 0 0 0 
26.982 1 358 38.7934 14.0805 4.17832 3.86269 5.39721 1.05468 0.24807 0.560851 -0.479955 0 0 0 0 0 0 0 0 0 
26.982 1 163 1.51534 16.0579 1.96599 -0.631787 -3.01721 1.69748 0.116718 0.315176 0.227517 0 0 0 0 0 0 0 0 0 
26.982 1 164 -0.567379 18.1283 2.05504 -5.17004 -1.29702 1.67042 0.369984 0.194601 -0.337337 0 0 0 0 0 0 0 0 0 
26.982 1 829 28.4222 -0.0281735 16.2187 0.250132 2.82873 -1.37745 0.121309 0.226247 -0.361276 0 0 0 0 0 0 0 0 0 
26.982 1 168 3.62839 18.2283 2.07972 1.57324 1.38942 0.487685 0.425027 -0.16445 -0.266347 0 0 0 0 0 0 0 0 0 
26.982 1 361 -0.395089 16.2071 4.12199 -6.80632 3.51063 -1.45596 -0.180175 -0.343117 -0.69588 0 0 0 0 0 0 0 0 0 
26.982 1 362 1.68405 18.0771 3.90107 2.31576 0.419619 -3.21064 -0.0857428 0.200064 0.536451 0 0 0 0 0 0 0 0 0 
26.982 1 365 3.81237 16.0628 3.90919 -0.894104 -2.28925 -2.96046 -0.841591 0.607148 0.728315 0 0 0 0 0 0 0 0 0 
26.982 1 964 -0.17307 18.4303 18.1486 2.50152 3.86139 -4.25673 -0.684403 -0.248357 0.298142 0 0 0 0 0 0 0 0 0 
26.982 1 405 3.71384 0.208467 8.24915 -1.08934 0.515827 -1.23176 0.267207 -0.222872 -0.679016 0 0 0 0 0 0 0 0 0 
26.982 1 167 5.47787 16.0446 1.93283 3.3441 3.76936 -7.36629 1.21386 0.456291 -0.296865 0 0 0 0 0 0 0 0 0 
26.982 1 2239 38.8559 20.2171 6.2053 0.85065 6.19818 0.638262 -0.10523 -0.24694 -1.02535 0 0 0 0 0 0 0 0 0 
26.982 1 172 7.6399 18.1399 2.19442 0.792681 -4.11371 -5.50595 0.541216 0.637988 -0.85406 0 0 0 0 0 0 0 0 0 
26.982 1 366 5.82364 18.367 4.12525 4.70694 -3.98131 -1.17847 -0.496567 -0.371276 -0.591444 0 0 0 0 0 0 0 0 0 
26.982 1 369 7.80663 16.2699 3.95329 -1.7219 2.13843 -6.64595 0.168412 -0.252394 0.412405 0 0 0 0 0 0 0 0 0 
26.982 1 170 9.80909 18.2298 0.105772 2.65171 -1.29478 1.96714 -0.0785027 0.50411 0.0892468 0 0 0 0 0 0 0 0 0 
26.982 1 171 9.91879 16.2532 1.96814 1.3469 -2.58604 -0.803018 0.166503 0.0690019 0.312123 0 0 0 0 0 0 0 0 0 
26.982 1 2427 26.3804 20.4054 10.2866 4.25609 -2.08381 -1.30618 0.592838 -0.384331 -0.178457 0 0 0 0 0 0 0 0 0 
26.982 1 176 11.9905 18.4251 2.07398 -2.33748 -1.45344 -1.94279 -0.348289 -0.219495 0.052265 0 0 0 0 0 0 0 0 0 
26.982 1 370 10.0388 18.3097 4.07946 -0.150373 -1.92003 0.517835 -0.528016 -0.306872 -0.124226 0 0 0 0 0 0 0 0 0 
26.982 1 373 11.8492 16.2341 3.95514 1.17629 -1.40987 -0.64525 0.402859 -0.172087 0.338531 0 0 0 0 0 0 0 0 0 
26.982 1 997 36.9949 16.0165 16.1971 3.90603 3.23191 -5.788 -0.473642 0.568446 -0.0485669 0 0 0 0 0 0 0 0 0 
26.982 1 998 38.9163 18.2737 16.2419 0.68966 3.56527 0.864066 0.229284 0.176923 -0.298871 0 0 0 0 0 0 0 0 0 
26.982 1 175 13.897 16.3334 2.06577 1.30088 3.065 2.42694 0.295809 -0.346077 -0.228957 0 0 0 0 0 0 0 0 0 
26.982 1 177 16.0556 16.1568 -0.0893781 -1.07904 -5.64348 1.83652 -0.698459 -0.0483856 -0.00150525 0 0 0 0 0 0 0 0 0 
26.982 1 180 15.9958 18.2309 2.06004 -4.58985 3.04981 2.18592 0.263066 -0.0799246 -0.361137 0 0 0 0 0 0 0 0 0 
26.982 1 374 14.0353 18.2467 4.05769 0.240725 -5.79158 4.86297 -0.237718 -0.00187631 0.315765 0 0 0 0 0 0 0 0 0 
26.982 1 377 16.1149 16.3813 4.11104 -0.365576 2.75874 2.63185 0.0322033 -0.311713 -0.0530085 0 0 0 0 0 0 0 0 0 
26.982 1 2015 14.0381 20.2114 2.05811 -5.1636 2.08673 2.70457 0.00888818 0.624595 0.0327588 0 0 0 0 0 0 0 0 0 
26.982 1 178 17.9718 18.1183 -0.087838 5.70455 -4.76779 3.03762 0.341583 0.684612 -0.0605215 0 0 0 0 0 0 0 0 0 
26.982 1 179 18.053 16.2759 1.75684 -1.47849 1.12482 -0.365341 0.0459639 -0.215326 1.04832 0 0 0 0 0 0 0 0 0 
26.982 1 183 22.2225 16.3381 2.1486 -1.7258 -3.31113 -0.0242651 0.236235 -0.413428 -0.256837 0 0 0 0 0 0 0 0 0 
26.982 1 184 20.054 18.1572 1.75514 -1.41325 -0.362468 1.84913 0.148586 0.458186 0.865613 0 0 0 0 0 0 0 0 0 
26.982 1 378 18.172 18.2672 4.07479 5.01046 5.64312 6.69204 -0.094016 -0.0536657 -0.141596 0 0 0 0 0 0 0 0 0 
26.982 1 381 20.1342 16.3077 4.04305 1.97293 0.10141 -4.39764 -0.241498 -0.27855 -0.253502 0 0 0 0 0 0 0 0 0 
26.982 1 382 22.1476 18.2025 4.09534 -1.28009 0.619593 0.511812 0.332108 0.66884 -0.500693 0 0 0 0 0 0 0 0 0 
26.982 1 2023 22.2871 20.175 2.00959 7.17445 -0.627332 1.88735 0.102875 -0.217301 0.328783 0 0 0 0 0 0 0 0 0 
26.982 1 999 38.9586 16.3732 18.1993 -2.90971 6.53318 -5.5981 -0.0602525 -0.352649 0.303156 0 0 0 0 0 0 0 0 0 
26.982 1 186 26.398 18.3156 0.121166 0.00691373 -0.174342 1.23598 0.528065 0.0490617 -0.233565 0 0 0 0 0 0 0 0 0 
26.982 1 187 26.5193 16.3174 2.12287 1.19015 -0.662163 -0.504881 0.0179681 -0.172526 -0.15894 0 0 0 0 0 0 0 0 0 
26.982 1 188 24.4445 18.1886 1.95564 0.8349 -3.67332 1.1523 -0.511701 0.21915 0.554183 0 0 0 0 0 0 0 0 0 
26.982 1 385 24.4588 16.1918 4.01895 0.736363 -0.435129 0.890629 -0.665666 0.166012 -0.120157 0 0 0 0 0 0 0 0 0 
26.982 1 386 26.387 18.2466 4.13764 0.433679 3.9353 3.51075 0.673836 0.129087 -0.188646 0 0 0 0 0 0 0 0 0 
26.982 1 2225 24.535 20.2603 4.05125 -2.91155 0.799328 3.75781 -0.720784 0.395709 0.0455376 0 0 0 0 0 0 0 0 0 
26.982 1 191 30.4366 16.1321 2.19863 1.39153 -2.0792 -5.66249 0.779236 0.314035 -0.289561 0 0 0 0 0 0 0 0 0 
26.982 1 192 28.5551 18.4931 2.19632 -2.17008 -1.67667 0.959617 -0.0223626 -0.480968 -0.21294 0 0 0 0 0 0 0 0 0 
26.982 1 389 28.5202 16.2351 4.07053 -0.844128 -0.263958 5.12033 -0.260037 0.118666 0.36475 0 0 0 0 0 0 0 0 0 
26.982 1 390 30.5368 18.1008 4.15245 -5.04076 -2.37891 1.53294 0.192333 0.331072 0.168727 0 0 0 0 0 0 0 0 0 
26.982 1 2425 24.4659 20.2332 8.16833 2.46871 -3.69482 3.23442 -0.267171 0.461113 -0.557589 0 0 0 0 0 0 0 0 0 
26.982 1 195 34.6588 16.2709 2.15283 -2.57781 -2.34678 -4.04926 0.22689 -0.203537 -0.0719348 0 0 0 0 0 0 0 0 0 
26.982 1 196 32.6553 18.2956 2.21697 -4.94921 1.57354 2.44087 -0.346357 -0.416996 -0.2564 0 0 0 0 0 0 0 0 0 
26.982 1 393 32.5885 16.1302 4.32199 -1.5263 1.54389 2.61794 0.0432021 0.558809 -0.510676 0 0 0 0 0 0 0 0 0 
26.982 1 394 34.7278 18.3105 4.04987 -2.29949 0.0675232 2.26227 -0.0356438 -0.0949316 0.275739 0 0 0 0 0 0 0 0 0 
26.982 1 2035 34.5538 20.3424 2.07896 -0.630061 5.52695 1.03596 0.653544 -0.258122 0.351054 0 0 0 0 0 0 0 0 0 
26.982 1 199 38.8702 16.2297 1.9515 -0.94827 3.6537 -2.83268 -0.341074 -0.398124 0.535535 0 0 0 0 0 0 0 0 0 
26.982 1 200 36.8638 18.3247 2.02362 -1.40376 -4.45507 0.786578 -0.219921 -0.271373 0.24166 0 0 0 0 0 0 0 0 0 
26.982 1 397 36.6187 16.2843 4.00203 -3.08196 -3.02451 -0.700058 0.641379 -0.260844 -0.0271044 0 0 0 0 0 0 0 0 0 
26.982 1 398 38.8428 18.2321 4.02263 -1.9444 -1.72566 2.56819 -0.109704 0.130368 0.073026 0 0 0 0 0 0 0 0 0 
26.982 1 1000 36.8938 18.1617 18.0691 -0.981099 -1.47094 -3.53351 -0.244342 0.50779 0.277334 0 0 0 0 0 0 0 0 0 
26.982 1 208 3.76535 2.23987 6.01683 -1.94549 0.430257 -4.71064 -0.0446734 -0.548382 0.262077 0 0 0 0 0 0 0 0 0 
26.982 1 243 1.71773 4.18915 6.06181 4.4227 -0.868055 -1.36277 -0.367135 -0.255937 0.30357 0 0 0 0 0 0 0 0 0 
26.982 1 402 1.66105 2.22286 8.11796 1.06416 -1.03605 -2.6964 0.308425 -0.107622 0.148791 0 0 0 0 0 0 0 0 0 
26.982 1 441 40.9542 4.01433 8.216 -0.160624 2.33784 4.32536 0.146261 0.169877 -0.312591 0 0 0 0 0 0 0 0 0 
26.982 1 445 3.91871 4.17544 8.02858 4.89344 5.04354 3.81657 -0.552242 -0.121629 0.263581 0 0 0 0 0 0 0 0 0 
26.982 1 408 3.8739 2.12874 10.1258 0.677753 1.48305 -2.58368 -0.327491 -0.0819442 0.0499074 0 0 0 0 0 0 0 0 0 
26.982 1 212 7.91688 2.06866 6.10481 -5.40704 1.0196 -0.54375 -0.675297 -0.393058 -0.119843 0 0 0 0 0 0 0 0 0 
26.982 1 247 5.83121 4.15611 6.02842 0.688931 2.81142 4.321 -0.0573182 -0.189193 0.00332991 0 0 0 0 0 0 0 0 0 
26.982 1 406 5.85164 2.16488 8.11066 -2.45028 -4.26783 2.66288 0.0439839 -0.643024 -0.341518 0 0 0 0 0 0 0 0 0 
26.982 1 1194 34.7762 18.4001 20.2753 8.02532 1.68634 2.41606 -0.0645742 -0.367248 -0.211287 0 0 0 0 0 0 0 0 0 
26.982 1 449 7.83354 4.06481 8.07979 -1.39562 3.45591 -5.78014 0.351349 0.207613 0.157485 0 0 0 0 0 0 0 0 0 
26.982 1 412 7.97552 2.0487 10.148 -0.743181 -3.14755 1.90001 -0.0563908 0.2861 -0.307252 0 0 0 0 0 0 0 0 0 
26.982 1 447 5.7842 4.02731 10.0856 5.4994 0.897448 -0.362248 0.329585 0.692064 0.0736883 0 0 0 0 0 0 0 0 0 
26.982 1 211 9.83797 -0.0358315 5.91487 -6.75808 -2.37153 8.18034 0.201616 0.225115 0.554909 0 0 0 0 0 0 0 0 0 
26.982 1 216 12.0258 2.06274 6.18946 3.71509 -0.955439 -5.98829 -0.169528 -0.0867494 -0.257168 0 0 0 0 0 0 0 0 0 
26.982 1 251 9.7645 3.98414 6.02423 5.16041 2.05716 2.25805 0.40347 0.563547 0.427009 0 0 0 0 0 0 0 0 0 
26.982 1 410 10.0681 1.97355 8.11333 -2.92732 -0.632705 -1.49878 -0.491158 0.772955 -0.300271 0 0 0 0 0 0 0 0 0 