ITEM: TIMESTEP
7400
ITEM: NUMBER OF ATOMS
4000
ITEM: BOX BOUNDS pp pp pp
-1.57819 42.0782
0.434263 40.0657
0.430426 40.0696
ITEM: ATOMS mass type id x y z vx vy vz fx fy fz xrad yrad zrad vxrad vyrad vzrad fxrad fyrad fzrad 
26.982 1 43 0.673651 4.43013 2.69319 -8.38496 0.0681567 -5.14908 -0.430216 -0.235798 -0.944663 0 0 0 0 0 0 0 0 0 
26.982 1 202 0.526442 2.43105 4.3964 -1.18379 1.72816 2.63667 0.271368 -0.631031 0.366107 0 0 0 0 0 0 0 0 0 
26.982 1 4 -1.41472 2.27409 2.51025 0.770693 0.598086 -0.410379 -0.34957 0.357438 0.374876 0 0 0 0 0 0 0 0 0 
26.982 1 2 0.572747 2.47611 0.501678 -5.78412 0.321789 1.28293 0.520877 -0.24271 0.203675 0 0 0 0 0 0 0 0 0 
26.982 1 8 2.75506 2.50002 2.55083 4.11365 7.09264 0.618545 -0.111914 -0.806582 -0.167796 0 0 0 0 0 0 0 0 0 
26.982 1 205 2.75987 0.450298 4.56809 1.15412 -2.61578 -0.757757 0.310413 0.13592 -0.351296 0 0 0 0 0 0 0 0 0 
26.982 1 1 -1.45162 0.561916 0.507683 -4.80092 -4.69532 -2.04403 -0.180944 -0.404374 -0.269911 0 0 0 0 0 0 0 0 0 
26.982 1 41 -1.45583 4.27458 0.579348 -0.544555 -1.36867 1.99105 -0.372018 0.313913 -0.18789 0 0 0 0 0 0 0 0 0 
26.982 1 245 2.80806 4.32209 4.54253 -0.634006 6.52358 -4.71244 0.0213833 0.0391824 0.208929 0 0 0 0 0 0 0 0 0 
26.982 1 47 4.82407 4.40705 2.49429 0.519871 -0.606726 1.12614 0.686147 0.178934 0.0646394 0 0 0 0 0 0 0 0 0 
26.982 1 206 4.9403 2.37978 4.3239 4.05035 4.24589 -2.30504 0.118389 0.142424 0.540288 0 0 0 0 0 0 0 0 0 
26.982 1 12 7.1052 2.53479 2.34863 0.428398 6.97004 -0.450908 0.0788676 -0.264235 0.262704 0 0 0 0 0 0 0 0 0 
26.982 1 249 7.20889 4.34472 4.43086 4.14203 1.46428 0.642392 -0.336485 -0.0138284 -0.0338468 0 0 0 0 0 0 0 0 0 
26.982 1 209 7.13888 0.522426 4.46205 3.14814 1.23525 4.08573 0.159642 0.0584382 -0.304233 0 0 0 0 0 0 0 0 0 
26.982 1 7 4.89586 0.496265 2.3975 -0.279573 -6.02069 1.84052 0.347171 -0.200132 0.106256 0 0 0 0 0 0 0 0 0 
26.982 1 5 3.00512 0.542742 0.376937 0.578731 -0.998141 -3.17418 -0.650361 -0.215624 0.356845 0 0 0 0 0 0 0 0 0 
26.982 1 9 7.25024 0.533255 0.406212 0.634313 -0.606808 -2.22971 -0.0661572 0.175445 0.237723 0 0 0 0 0 0 0 0 0 
26.982 1 51 9.39802 4.48025 2.24982 0.388056 -0.310453 -2.20709 -0.0937409 -0.277723 0.529763 0 0 0 0 0 0 0 0 0 
26.982 1 210 9.4155 2.58028 4.36495 4.2883 0.812377 2.24915 -0.377319 -0.142118 -0.22162 0 0 0 0 0 0 0 0 0 
26.982 1 16 11.4393 2.27135 2.46386 1.4538 4.89544 -0.238744 0.142042 0.678796 -0.541082 0 0 0 0 0 0 0 0 0 
26.982 1 213 11.5241 0.452086 4.44405 1.59265 -1.2464 -1.58032 -0.0604231 -0.239816 0.316645 0 0 0 0 0 0 0 0 0 
26.982 1 13 11.4128 0.452085 0.360766 -1.67949 -0.0522596 -2.73985 0.478562 0.166607 0.312194 0 0 0 0 0 0 0 0 0 
26.982 1 253 11.5143 4.38632 4.41915 -2.85372 -0.563358 -2.15665 -0.0186238 0.234007 -0.624753 0 0 0 0 0 0 0 0 0 
26.982 1 55 13.9646 4.47136 2.33263 -1.3024 -1.17289 2.24931 -0.844822 0.150692 0.456872 0 0 0 0 0 0 0 0 0 
26.982 1 214 13.6271 2.44872 4.4334 -3.30802 2.08532 1.37278 0.268223 0.234509 -0.371587 0 0 0 0 0 0 0 0 0 
26.982 1 20 15.8738 2.52117 2.42303 -1.1207 1.77612 -1.98456 0.380967 0.0222979 0.210127 0 0 0 0 0 0 0 0 0 
26.982 1 257 15.9141 4.51826 4.43685 0.0261526 0.348416 -2.71262 -0.0145447 -0.833865 0.352377 0 0 0 0 0 0 0 0 0 
26.982 1 218 17.9586 2.34055 4.37262 1.19776 -4.71691 -0.0160191 0.236091 0.198098 0.156246 0 0 0 0 0 0 0 0 0 
26.982 1 59 17.9856 4.47696 2.48427 2.44457 0.430021 2.00188 0.289475 -0.128867 0.308052 0 0 0 0 0 0 0 0 0 
26.982 1 24 20.1243 2.38116 2.58227 -0.854382 -5.10645 4.17635 0.675789 0.812383 -0.579898 0 0 0 0 0 0 0 0 0 
26.982 1 19 18.1973 0.627213 2.15703 2.5972 -2.05805 2.46696 -0.474999 -0.415347 0.20718 0 0 0 0 0 0 0 0 0 
26.982 1 18 18.2266 2.65027 0.431193 -3.84672 5.6407 -1.66881 -0.409283 -0.00454184 -0.0823443 0 0 0 0 0 0 0 0 0 
26.982 1 221 20.2601 0.487203 4.31523 -5.75327 -0.129082 -0.908783 0.0821475 -0.644306 0.478487 0 0 0 0 0 0 0 0 0 
26.982 1 261 20.3058 4.62385 4.40766 -3.93285 -1.09699 -1.28101 -0.0163793 -0.316084 -0.58691 0 0 0 0 0 0 0 0 0 
26.982 1 63 22.5208 4.44499 2.48645 1.56528 -4.23799 0.354656 -0.373736 0.00688248 0.10158 0 0 0 0 0 0 0 0 0 
26.982 1 222 22.4042 2.46476 4.43027 -0.597161 -0.528974 -1.05307 0.00252147 -0.458428 -0.198916 0 0 0 0 0 0 0 0 0 
26.982 1 28 24.544 2.39876 2.49178 3.39624 -0.183401 0.246356 0.314662 -0.115192 0.0179686 0 0 0 0 0 0 0 0 0 
26.982 1 265 24.5615 4.23852 4.65198 4.25221 -1.43674 2.31001 0.330906 0.486838 -0.570249 0 0 0 0 0 0 0 0 0 
26.982 1 23 22.4138 0.464935 2.40749 -3.02628 -2.993 1.15186 -0.0300296 -0.129084 0.204602 0 0 0 0 0 0 0 0 0 
26.982 1 61 20.2812 4.53236 0.729645 -0.0959257 -1.97769 0.147878 0.187909 -0.66109 -0.166225 0 0 0 0 0 0 0 0 0 
26.982 1 22 22.4255 2.36375 0.482505 1.67855 2.18305 -4.36159 0.14621 0.400326 -0.0516431 0 0 0 0 0 0 0 0 0 
26.982 1 67 26.7014 4.46991 2.45281 -1.94211 -0.493983 -5.1439 -0.0971263 -0.120946 0.196191 0 0 0 0 0 0 0 0 0 
26.982 1 226 26.8114 2.40677 4.43498 7.4081 -1.22331 1.61821 -0.0171924 -0.117088 -0.66857 0 0 0 0 0 0 0 0 0 
26.982 1 269 28.9894 4.39749 4.20852 2.04015 3.25575 5.58696 -0.142037 -0.446654 0.732195 0 0 0 0 0 0 0 0 0 
26.982 1 229 29.012 0.364966 4.39403 3.64541 -3.89024 -2.72052 0.0561034 0.0386162 0.018675 0 0 0 0 0 0 0 0 0 
26.982 1 65 24.5648 4.26937 0.528353 -7.08392 3.04323 -0.603183 0.0147414 0.466335 -0.142821 0 0 0 0 0 0 0 0 0 
26.982 1 69 28.7837 4.33663 0.511672 1.1751 2.54617 -3.28651 0.418451 -0.0965387 0.369834 0 0 0 0 0 0 0 0 0 
26.982 1 26 26.8276 2.31417 0.492084 0.731436 5.86614 0.106447 -0.167776 0.0520535 -0.0738942 0 0 0 0 0 0 0 0 0 
26.982 1 32 29.0819 2.26135 2.40034 -3.64094 -2.75894 -0.880374 -0.278778 0.124883 -0.0818274 0 0 0 0 0 0 0 0 0 
26.982 1 71 31.1673 4.31153 2.5135 -2.01636 -2.84664 0.863148 0.123019 -0.216057 0.0852813 0 0 0 0 0 0 0 0 0 
26.982 1 230 31.1261 2.25665 4.38538 -5.07647 1.70899 -5.08528 0.193174 0.395611 0.122585 0 0 0 0 0 0 0 0 0 
26.982 1 36 33.4228 2.32629 2.29323 2.58316 -1.82599 -0.0443735 -0.136801 0.0147996 0.37457 0 0 0 0 0 0 0 0 0 
26.982 1 73 33.3846 4.35163 0.492955 3.24836 -1.8187 -0.230986 0.0208715 -0.0728004 -0.254712 0 0 0 0 0 0 0 0 0 
26.982 1 30 31.272 2.39015 0.437842 -2.17586 0.496815 0.845457 -0.156033 -0.221288 0.0835287 0 0 0 0 0 0 0 0 0 
26.982 1 273 33.4295 4.45429 4.2683 -3.68069 -0.759493 3.07771 -0.214194 -0.506172 0.131831 0 0 0 0 0 0 0 0 0 
26.982 1 75 35.599 4.27429 2.39406 -2.91664 2.53879 1.25298 0.0989651 0.26114 0.560275 0 0 0 0 0 0 0 0 0 
26.982 1 234 35.4988 2.22281 4.3452 0.421894 -2.05032 2.20199 0.157808 0.276576 -0.0218762 0 0 0 0 0 0 0 0 0 
26.982 1 40 37.781 2.39452 2.31347 2.3124 -0.468732 -5.1634 -0.198266 0.133565 0.252109 0 0 0 0 0 0 0 0 0 
26.982 1 277 37.6165 4.38422 4.48031 -0.728864 0.911758 -2.33915 0.101735 -0.0204611 -0.499955 0 0 0 0 0 0 0 0 0 
26.982 1 241 41.9754 4.33586 4.58326 3.29482 3.40559 -0.0778752 0.0970686 0.21728 -0.775282 0 0 0 0 0 0 0 0 0 
26.982 1 79 39.9581 4.29878 2.60201 3.76086 1.31818 3.62364 0.114551 -0.294142 -0.561432 0 0 0 0 0 0 0 0 0 
26.982 1 238 39.8048 2.22477 4.48843 -0.128194 -6.7219 -3.05473 0.131299 0.431885 0.0189011 0 0 0 0 0 0 0 0 0 
26.982 1 39 39.9502 0.650973 2.31619 -1.9869 0.555591 2.17506 0.0819791 -0.370992 0.241447 0 0 0 0 0 0 0 0 0 
26.982 1 83 0.528864 8.32298 2.35754 1.48606 3.80844 -2.28181 0.271075 0.155439 0.645579 0 0 0 0 0 0 0 0 0 
26.982 1 242 0.633601 6.26382 4.46452 1.84463 3.11346 0.0654693 -0.303581 0.859738 0.45538 0 0 0 0 0 0 0 0 0 
26.982 1 285 2.72135 8.54215 4.50346 1.50761 2.3258 -6.48503 -0.350738 -0.14597 0.061329 0 0 0 0 0 0 0 0 0 
26.982 1 48 2.70388 6.32249 2.60804 2.71263 -0.944585 -2.2299 0.254395 0.485089 -0.316905 0 0 0 0 0 0 0 0 0 
26.982 1 84 -1.50674 10.3053 2.4563 1.18881 1.34245 -1.85628 -0.176875 0.247526 -0.0014123 0 0 0 0 0 0 0 0 0 
26.982 1 44 -1.58795 6.42803 2.44398 -2.63943 -1.99907 3.32404 0.552753 -0.920837 -0.0989949 0 0 0 0 0 0 0 0 0 
26.982 1 42 0.649898 6.29642 0.488011 -1.3277 4.0632 1.60264 -0.0568103 -0.38538 0.318861 0 0 0 0 0 0 0 0 0 
26.982 1 87 4.89252 8.56729 2.69703 -5.14975 -4.65454 0.712223 0.149071 -0.602938 -0.788035 0 0 0 0 0 0 0 0 0 
26.982 1 246 4.80515 6.56219 4.49068 -0.0860701 -1.33785 1.61133 0.470118 -0.653121 -0.1429 0 0 0 0 0 0 0 0 0 
26.982 1 289 7.20194 8.44391 4.49678 2.10329 -1.30363 -3.35912 -0.225909 0.00986039 -0.0771133 0 0 0 0 0 0 0 0 0 
26.982 1 85 2.62355 8.17517 0.444446 -8.1635 1.75153 -0.524641 0.835086 0.425511 0.701613 0 0 0 0 0 0 0 0 0 
26.982 1 89 7.0955 8.52594 0.539449 -0.368041 2.87961 2.32328 -0.139133 -0.178375 0.149576 0 0 0 0 0 0 0 0 0 
26.982 1 46 4.99482 6.40642 0.58792 -0.535155 -2.70115 0.353678 -0.182784 0.229483 0.0306542 0 0 0 0 0 0 0 0 0 
26.982 1 52 7.23844 6.34965 2.48232 -1.47981 -1.66573 -6.12676 -0.450801 0.186762 -0.0368271 0 0 0 0 0 0 0 0 0 
26.982 1 91 9.23485 8.42399 2.45835 1.21069 -8.73809 4.84788 0.222748 0.0422608 0.22445 0 0 0 0 0 0 0 0 0 
26.982 1 250 9.20338 6.28546 4.517 -3.07543 -0.0143469 -3.23173 0.464121 0.30479 -0.494214 0 0 0 0 0 0 0 0 0 
26.982 1 56 11.4732 6.41037 2.37628 3.50804 5.13218 1.42203 -0.0129176 0.0221258 0.690418 0 0 0 0 0 0 0 0 0 
26.982 1 50 9.33574 6.39445 0.386398 1.11526 -3.21084 -1.2973 -0.162812 0.207096 -0.0576336 0 0 0 0 0 0 0 0 0 
26.982 1 93 11.3153 8.37693 0.53007 1.46172 -1.26171 1.4855 0.260524 0.539596 -0.44548 0 0 0 0 0 0 0 0 0 
26.982 1 293 11.6575 8.4885 4.44792 0.723973 2.28046 2.27365 -0.567393 -0.173586 -0.0409497 0 0 0 0 0 0 0 0 0 
26.982 1 95 13.7033 8.27326 2.51754 1.62462 2.1922 -3.09234 0.0774346 0.550838 0.144606 0 0 0 0 0 0 0 0 0 
26.982 1 254 13.6222 6.31445 4.49497 0.355941 0.719073 -1.14558 0.080441 0.330192 -0.390164 0 0 0 0 0 0 0 0 0 
26.982 1 297 15.8443 8.5294 4.54108 1.96948 -3.36753 -6.64637 0.166729 -0.674017 -0.293439 0 0 0 0 0 0 0 0 0 
26.982 1 60 15.9068 6.41759 2.66008 1.35931 0.0665357 -0.836139 -0.0758542 0.396804 -0.444795 0 0 0 0 0 0 0 0 0 
26.982 1 99 18.0204 8.30477 2.39839 -1.98221 -1.04133 -0.121755 0.246907 0.299082 0.123818 0 0 0 0 0 0 0 0 0 
26.982 1 258 18.1258 6.53065 4.46304 -2.10228 2.13995 -3.55863 -0.0334433 -0.0502218 0.156913 0 0 0 0 0 0 0 0 0 
26.982 1 298 18.1476 10.2017 4.44394 -1.45116 -0.633755 3.89942 -0.110495 0.259904 0.155155 0 0 0 0 0 0 0 0 0 
26.982 1 100 15.9901 10.2967 2.44278 1.46376 -1.638 2.35387 -0.322314 0.117749 -0.0645931 0 0 0 0 0 0 0 0 0 
26.982 1 98 18.0368 10.37 0.419916 -0.762004 9.3605 -1.03794 0.0294538 0.209774 0.211266 0 0 0 0 0 0 0 0 0 
26.982 1 97 15.9317 8.25292 0.574619 -1.99558 2.28973 0.840758 -0.312996 0.327893 -0.329662 0 0 0 0 0 0 0 0 0 
26.982 1 58 18.0495 6.28912 0.507831 -2.58432 2.82495 -0.316041 0.118798 0.323384 -0.322598 0 0 0 0 0 0 0 0 0 
26.982 1 301 20.5249 8.20705 4.33303 -3.87864 1.78972 5.67013 -0.318079 0.937206 0.854415 0 0 0 0 0 0 0 0 0 
26.982 1 64 20.3116 6.57621 2.44364 -4.58478 1.91252 5.52719 0.0811539 -0.640918 -0.323789 0 0 0 0 0 0 0 0 0 
26.982 1 103 22.476 8.57422 2.33396 -0.66285 0.569459 4.49475 0.0661892 -0.489587 0.294332 0 0 0 0 0 0 0 0 0 
26.982 1 262 22.6453 6.43559 4.72275 -1.33481 2.93737 3.76378 -0.268049 0.106004 -0.668288 0 0 0 0 0 0 0 0 0 
26.982 1 305 24.7049 8.414 4.38657 2.23315 -5.61665 -4.27447 -0.320176 0.158622 0.33814 0 0 0 0 0 0 0 0 0 
26.982 1 68 24.4275 6.39623 2.70614 -1.99158 2.10155 -6.39114 0.572761 -0.16967 -0.928604 0 0 0 0 0 0 0 0 0 
26.982 1 107 26.7152 8.45626 2.32453 -1.73841 -0.651765 -5.25129 0.259795 -0.692368 0.362863 0 0 0 0 0 0 0 0 0 
26.982 1 266 26.787 6.46596 4.53725 -2.07755 -7.6285 0.981621 -0.114583 -0.174959 -0.415991 0 0 0 0 0 0 0 0 0 
26.982 1 66 26.6947 6.41633 0.450839 1.44784 4.51129 -1.19839 -0.031157 -0.0528213 0.406264 0 0 0 0 0 0 0 0 0 
26.982 1 72 28.9232 6.43258 2.53103 -2.69826 2.20922 -1.73633 -0.21644 -0.151506 -0.0737853 0 0 0 0 0 0 0 0 0 
26.982 1 306 26.7297 10.3042 4.30722 -1.10268 3.39022 1.90844 0.246527 0.217187 0.343318 0 0 0 0 0 0 0 0 0 
26.982 1 309 29.0793 8.50403 4.35009 -6.20689 0.101081 2.87366 -0.476059 -0.234568 -0.233833 0 0 0 0 0 0 0 0 0 
26.982 1 109 28.9816 8.2521 0.655268 -2.57964 0.578652 0.201306 -0.0588992 0.143156 -0.594028 0 0 0 0 0 0 0 0 0 
26.982 1 111 31.2186 8.31796 2.40581 10.1134 5.04073 6.28635 -0.249837 0.0811785 0.116086 0 0 0 0 0 0 0 0 0 
26.982 1 270 31.0624 6.44903 4.39646 -3.74206 -2.02783 -0.176723 0.596083 -0.152926 0.00165675 0 0 0 0 0 0 0 0 0 
26.982 1 113 33.187 8.28138 0.577731 -0.639184 -4.31371 1.67183 0.555448 0.16219 -0.623644 0 0 0 0 0 0 0 0 0 
26.982 1 116 33.33 10.3684 2.39392 0.544836 2.72183 -1.66838 0.0669494 -0.105965 -0.11538 0 0 0 0 0 0 0 0 0 
26.982 1 110 31.1019 10.2716 0.37179 -5.02303 -1.63497 -2.52029 -0.117596 0.0648363 0.326736 0 0 0 0 0 0 0 0 0 
26.982 1 70 31.0259 6.08672 0.598883 -1.97701 2.02656 3.61527 0.143888 0.590285 -0.510829 0 0 0 0 0 0 0 0 0 
26.982 1 313 33.4421 8.41255 4.24417 -1.12016 -1.24735 -2.81512 -0.477679 -0.526019 0.345016 0 0 0 0 0 0 0 0 0 
26.982 1 76 33.3493 6.32863 2.34175 -3.76198 7.68064 2.08899 -0.0500306 0.0153781 0.521605 0 0 0 0 0 0 0 0 0 
26.982 1 115 35.6362 8.25832 2.46149 -2.75095 -1.06098 -4.38404 -0.195479 0.169151 -0.0168964 0 0 0 0 0 0 0 0 0 
26.982 1 274 35.5107 6.35407 4.57075 -1.14337 -2.48992 1.81821 -0.0435395 -0.260643 -0.750611 0 0 0 0 0 0 0 0 0 
26.982 1 317 37.5542 8.16049 4.43799 -1.38702 0.0690452 -4.15723 0.568849 0.426776 -0.132427 0 0 0 0 0 0 0 0 0 
26.982 1 114 35.6382 10.2576 0.55981 4.95297 2.94304 -4.04045 -0.668382 -0.367361 -0.204465 0 0 0 0 0 0 0 0 0 
26.982 1 314 35.4158 10.3132 4.34945 -0.601874 1.59887 -2.83461 0.226549 0.201198 -0.15211 0 0 0 0 0 0 0 0 0 
26.982 1 281 41.9758 8.21074 4.42591 -0.560615 1.91834 -2.25257 0.321953 0.524647 0.164595 0 0 0 0 0 0 0 0 0 
26.982 1 80 37.8364 6.28963 2.2082 3.40309 5.28111 1.70269 -0.0375046 0.101403 0.572252 0 0 0 0 0 0 0 0 0 
26.982 1 119 40.0803 8.11605 2.25076 0.757171 1.17746 -4.71686 -0.613328 1.07837 0.2079 0 0 0 0 0 0 0 0 0 
26.982 1 278 39.8092 6.39429 4.25765 1.76873 4.71376 -5.86933 -0.0883531 -0.146734 0.555543 0 0 0 0 0 0 0 0 0 
26.982 1 318 39.8876 10.2032 4.22162 -1.62007 -0.426151 -0.590451 -0.104422 0.242824 0.378907 0 0 0 0 0 0 0 0 0 
26.982 1 118 39.9746 10.348 0.497814 -0.0812622 0.688857 -4.79279 -0.103134 -0.0190015 -0.0329609 0 0 0 0 0 0 0 0 0 
26.982 1 123 0.637719 12.273 2.23437 0.339675 1.41032 -5.23471 -0.151963 -0.610735 0.469279 0 0 0 0 0 0 0 0 0 
26.982 1 282 0.46595 10.4479 4.5364 0.304046 -0.63504 2.67324 0.331759 -0.0216221 -0.552591 0 0 0 0 0 0 0 0 0 
26.982 1 322 0.595018 14.0461 4.26736 0.0543045 -2.25825 0.113524 -0.22427 1.09293 0.0217646 0 0 0 0 0 0 0 0 0 
26.982 1 325 2.66875 12.4077 4.35164 2.90268 -2.84611 2.97201 0.267532 -0.491451 0.128831 0 0 0 0 0 0 0 0 0 
26.982 1 128 2.80003 14.2475 2.37656 0.508647 4.70193 -0.661346 0.0186817 0.22413 -0.423283 0 0 0 0 0 0 0 0 0 
26.982 1 82 0.577299 10.2232 0.345609 2.79226 -5.04723 -3.69925 0.102498 0.259147 0.432653 0 0 0 0 0 0 0 0 0 
26.982 1 88 2.81631 10.402 2.3732 -1.32224 -1.98288 -4.71432 -0.321279 -0.143846 -0.0960996 0 0 0 0 0 0 0 0 0 
26.982 1 286 4.80515 10.5493 4.45576 -0.505011 -3.48927 -3.38238 0.204441 0.0224652 0.284755 0 0 0 0 0 0 0 0 0 
26.982 1 92 7.03496 10.4608 2.55749 1.87569 -0.23639 -0.633829 0.414007 -0.219742 -0.305208 0 0 0 0 0 0 0 0 0 
26.982 1 127 5.00477 12.439 2.36095 0.248058 -0.247781 -2.57925 -0.256688 -0.0185841 0.366442 0 0 0 0 0 0 0 0 0 
26.982 1 326 4.75759 14.3569 4.42021 2.39051 0.0409756 1.23312 0.336492 -0.0598139 -0.241233 0 0 0 0 0 0 0 0 0 
26.982 1 329 6.99365 12.2959 4.44717 4.78333 -1.69824 1.15696 0.524382 0.409456 0.328842 0 0 0 0 0 0 0 0 0 
26.982 1 86 4.99003 10.4456 0.5114 0.104342 1.16689 1.86829 -0.215438 -0.575182 -0.0680336 0 0 0 0 0 0 0 0 0 
26.982 1 290 9.40104 10.5592 4.46112 -1.49461 3.39534 -0.542521 -0.11825 -0.286004 -0.0426025 0 0 0 0 0 0 0 0 0 
26.982 1 132 7.24243 14.2274 2.45006 1.55062 2.3196 -2.73366 -0.263904 0.207463 -0.0230051 0 0 0 0 0 0 0 0 0 
26.982 1 129 7.06327 12.3236 0.379763 -5.00081 1.18291 -1.99164 0.41291 0.184887 0.109065 0 0 0 0 0 0 0 0 0 
26.982 1 131 9.33839 12.4516 2.51455 -4.97417 -3.54182 -5.02114 0.130973 -0.0754489 0.0364625 0 0 0 0 0 0 0 0 0 
26.982 1 330 9.20552 14.444 4.41609 -3.05789 0.0663384 -1.05324 0.231882 -0.152017 -0.0274768 0 0 0 0 0 0 0 0 0 
26.982 1 90 9.36252 10.6214 0.55912 1.39113 -1.53554 -1.4268 -0.00749243 -0.372451 -0.245762 0 0 0 0 0 0 0 0 0 
26.982 1 96 11.5618 10.4277 2.47668 4.33854 -0.59617 4.69536 -0.139368 0.0102352 -0.192864 0 0 0 0 0 0 0 0 0 
26.982 1 130 9.42615 14.3503 0.4709 -3.32344 -0.595739 -0.158894 -0.393517 -0.295508 -0.25328 0 0 0 0 0 0 0 0 0 
26.982 1 333 11.7377 12.6176 4.3647 -0.138274 0.0762506 -4.61344 -0.497622 -0.434873 0.221566 0 0 0 0 0 0 0 0 0 
26.982 1 294 13.6692 10.4469 4.3486 -1.94061 -2.60921 0.609647 0.0977561 0.0111647 0.352994 0 0 0 0 0 0 0 0 0 
26.982 1 136 11.5532 14.4182 2.37689 -1.40877 4.24902 0.0626414 0.106595 0.215625 0.499059 0 0 0 0 0 0 0 0 0 
26.982 1 135 13.6665 12.4283 2.45901 -0.504839 2.56607 1.20026 0.109642 0.0976795 -0.477565 0 0 0 0 0 0 0 0 0 
26.982 1 334 13.7447 14.6205 4.49746 -3.95331 -0.03212 3.46263 -0.0361917 -0.847856 -0.550813 0 0 0 0 0 0 0 0 0 
26.982 1 133 11.5923 12.5342 0.518118 -2.77212 0.623016 -0.312805 -0.129169 -0.436846 -0.328647 0 0 0 0 0 0 0 0 0 
26.982 1 337 15.7141 12.422 4.18004 -2.28053 -0.151114 3.22178 0.398078 -0.214769 0.761395 0 0 0 0 0 0 0 0 0 
26.982 1 140 15.9007 14.4148 2.36914 -9.68025 2.20036 -5.11951 -0.246655 -0.090291 -0.237325 0 0 0 0 0 0 0 0 0 
26.982 1 139 18.0923 12.2754 2.44155 0.651202 2.23009 2.28626 -0.334228 0.0453297 -0.176669 0 0 0 0 0 0 0 0 0 
26.982 1 338 17.9648 14.2723 4.34919 4.69893 1.02187 5.99997 0.0849389 0.358876 0.306401 0 0 0 0 0 0 0 0 0 
26.982 1 341 20.1478 12.3973 4.47233 1.89417 -0.565244 -3.01781 0.186273 -0.0527667 -0.210143 0 0 0 0 0 0 0 0 0 
26.982 1 144 20.0722 14.2096 2.48928 -0.867709 -2.094 2.50515 0.486972 0.245041 -0.419696 0 0 0 0 0 0 0 0 0 
26.982 1 104 20.1737 10.4225 2.43828 -2.82464 -3.24291 -1.68718 0.0964126 -0.160174 -0.127735 0 0 0 0 0 0 0 0 0 
26.982 1 302 22.3407 10.5888 4.3752 0.612585 1.6935 -0.0537067 0.261742 -0.515077 0.0695025 0 0 0 0 0 0 0 0 0 
26.982 1 143 22.3349 12.396 2.31524 -2.89488 -3.54086 -1.98278 -0.0242796 -0.01814 0.11475 0 0 0 0 0 0 0 0 0 
26.982 1 342 22.4253 14.3476 4.36621 3.32784 -3.34611 0.267284 -0.295849 0.108001 0.0518129 0 0 0 0 0 0 0 0 0 
26.982 1 148 24.512 14.4704 2.33143 1.70716 -3.72346 3.47039 0.0515124 -0.0972909 -0.204228 0 0 0 0 0 0 0 0 0 
26.982 1 345 24.4531 12.4954 4.26813 -1.53576 1.72921 -0.810874 0.187693 -0.337673 0.127404 0 0 0 0 0 0 0 0 0 
26.982 1 145 24.5931 12.3804 0.539418 2.19252 0.507844 -6.05991 -0.0407042 0.0677537 -0.567636 0 0 0 0 0 0 0 0 0 
26.982 1 108 24.7307 10.3556 2.29551 -3.44288 0.398836 -0.598821 -0.648076 0.0560695 0.328723 0 0 0 0 0 0 0 0 0 
26.982 1 112 28.8729 10.4488 2.3021 2.28549 -2.69365 -3.41285 0.0923202 -0.284854 -0.0458077 0 0 0 0 0 0 0 0 0 
26.982 1 147 26.6482 12.4021 2.44309 -8.50091 1.56231 3.21061 0.0336057 0.0499789 -0.194242 0 0 0 0 0 0 0 0 0 
26.982 1 346 26.6195 14.3054 4.45916 -2.33301 0.354349 0.11395 0.56372 0.106532 -0.534504 0 0 0 0 0 0 0 0 0 
26.982 1 152 28.8615 14.2234 2.26897 3.93427 -0.144596 -0.668938 0.0696944 -0.0272716 0.492646 0 0 0 0 0 0 0 0 0 
26.982 1 349 28.7784 12.2816 4.25372 -3.28895 -1.37 0.0982164 0.299593 0.131631 0.382656 0 0 0 0 0 0 0 0 0 
26.982 1 310 31.101 10.3736 4.30158 -1.42387 -1.02319 -4.54496 0.169349 0.164986 0.0978786 0 0 0 0 0 0 0 0 0 
26.982 1 151 31.0632 12.2205 2.2297 -3.2642 0.505523 3.66211 0.0766051 0.402127 0.306022 0 0 0 0 0 0 0 0 0 
26.982 1 350 30.9061 14.2012 4.35639 6.198 3.68061 -2.00309 0.670089 0.380733 -0.713692 0 0 0 0 0 0 0 0 0 
26.982 1 156 33.3533 14.3192 2.34403 0.4514 -1.86004 4.21367 -0.34848 0.0787031 0.0480075 0 0 0 0 0 0 0 0 0 
26.982 1 353 33.3559 12.3182 4.30268 -0.236398 6.51415 -3.37293 -0.323054 0.217915 0.0882116 0 0 0 0 0 0 0 0 0 
26.982 1 120 37.7347 10.1985 2.44839 3.40048 -8.88798 -5.4184 0.131979 -0.00792703 0.232694 0 0 0 0 0 0 0 0 0 
26.982 1 155 35.5086 12.3686 2.35377 0.699727 -2.55389 3.60967 -0.547688 -0.370038 -0.0914259 0 0 0 0 0 0 0 0 0 
26.982 1 354 35.4369 14.3738 4.24684 -1.89385 0.73824 -4.58586 -0.0795609 0.304682 0.335324 0 0 0 0 0 0 0 0 0 
26.982 1 160 37.4533 14.306 2.3838 2.40058 1.421 2.06406 0.870345 -0.0412879 -0.171078 0 0 0 0 0 0 0 0 0 
26.982 1 357 37.4718 12.286 4.19613 7.81845 1.23501 -2.17987 0.691 0.0820912 0.437405 0 0 0 0 0 0 0 0 0 
26.982 1 157 37.5201 12.1303 0.511398 4.56093 1.55407 -2.48896 0.759042 0.588672 -0.313177 0 0 0 0 0 0 0 0 0 
26.982 1 124 42.0662 14.2625 2.37158 0.586673 3.37102 -3.51421 -0.215519 -0.092557 0.130714 0 0 0 0 0 0 0 0 0 
26.982 1 321 42.1275 12.4186 4.60114 4.68515 -6.92592 -0.700936 -0.772402 -0.56554 -0.733736 0 0 0 0 0 0 0 0 0 
26.982 1 159 39.8193 12.3925 2.35877 -0.114803 -1.46551 -0.708766 0.150921 -0.0797533 0.35026 0 0 0 0 0 0 0 0 0 
26.982 1 358 39.7869 14.1954 4.57071 5.08073 0.44525 1.66962 -0.092669 -0.410279 -0.729995 0 0 0 0 0 0 0 0 0 
26.982 1 163 0.517729 16.2386 2.29202 6.05185 -0.0353462 -3.52607 0.126867 0.0863019 0.126134 0 0 0 0 0 0 0 0 0 
26.982 1 362 0.549651 18.1313 4.35128 1.46897 -7.47596 -2.59979 0.314782 0.570441 -0.409192 0 0 0 0 0 0 0 0 0 
26.982 1 164 -1.61184 18.0161 2.49219 -4.14389 -4.51669 -2.94695 -0.00937257 0.678111 -0.520596 0 0 0 0 0 0 0 0 0 
26.982 1 365 2.5422 16.1692 4.24731 4.25378 0.897505 -2.67153 0.31461 0.106977 0.283352 0 0 0 0 0 0 0 0 0 
26.982 1 2205 2.76324 20.1008 4.34097 2.72626 0.0649252 -3.73692 -0.142219 0.364709 -0.795117 0 0 0 0 0 0 0 0 0 
26.982 1 168 2.95649 18.1308 2.21961 -2.59318 4.87729 -7.24261 -0.459553 0.301066 0.381119 0 0 0 0 0 0 0 0 0 
26.982 1 167 5.04855 16.2017 2.4751 -1.77454 6.7061 -1.29212 -0.359136 -0.00439972 -0.262251 0 0 0 0 0 0 0 0 0 
26.982 1 366 4.97452 18.3166 4.34057 -3.83351 1.09092 2.89891 -0.0919199 -0.0579532 -0.374531 0 0 0 0 0 0 0 0 0 
26.982 1 172 7.03795 18.3095 2.38421 1.20556 2.56331 -1.7061 0.316451 -0.135051 -0.16877 0 0 0 0 0 0 0 0 0 
26.982 1 369 7.07607 16.4064 4.27592 1.76473 -2.0893 -0.389913 0.350931 -0.375299 0.38825 0 0 0 0 0 0 0 0 0 
26.982 1 2007 4.96868 20.2493 2.34759 1.65363 1.2151 -0.884158 -0.306813 0.128377 -0.143434 0 0 0 0 0 0 0 0 0 
26.982 1 169 7.29622 16.3348 0.637803 2.13749 -1.56866 3.37055 -0.274527 -0.186086 -0.587678 0 0 0 0 0 0 0 0 0 
26.982 1 171 9.41283 16.2913 2.41397 3.47011 0.419742 -2.92581 -0.0266782 0.193824 0.0460134 0 0 0 0 0 0 0 0 0 
26.982 1 370 9.40163 18.145 4.37255 -2.50853 0.992254 4.35759 -0.179962 0.286913 -0.0247159 0 0 0 0 0 0 0 0 0 
26.982 1 2011 9.33379 20.17 2.43121 2.37884 1.93361 1.13509 0.150442 0.364481 -0.099305 0 0 0 0 0 0 0 0 0 
26.982 1 176 11.4613 18.3532 2.33583 0.287991 -0.345144 -2.26972 0.303792 -0.0813114 -0.156181 0 0 0 0 0 0 0 0 0 
26.982 1 170 9.33202 18.3816 0.412272 2.57292 3.17962 -1.09713 0.307852 -0.303006 -0.077874 0 0 0 0 0 0 0 0 0 
26.982 1 2213 11.5002 20.2367 4.38625 2.65223 3.91461 1.99351 0.0991694 0.0916459 -0.0125939 0 0 0 0 0 0 0 0 0 
26.982 1 2009 7.22409 20.1654 0.425193 0.224498 1.18932 -1.52457 -0.286438 0.359292 0.101593 0 0 0 0 0 0 0 0 0 
26.982 1 373 11.6959 16.3883 4.44596 -0.0174323 -4.76131 -2.3966 -0.303732 0.318386 -0.569533 0 0 0 0 0 0 0 0 0 
26.982 1 175 13.6655 16.4149 2.27625 -2.92416 0.252615 2.92141 0.0892823 0.00201084 0.137439 0 0 0 0 0 0 0 0 0 
26.982 1 374 13.8815 18.356 4.2205 -2.13222 -2.92461 -0.0235935 -0.486458 -0.284943 0.551157 0 0 0 0 0 0 0 0 0 
26.982 1 377 15.8011 16.3116 4.3013 0.545298 -2.552 -1.22984 0.69626 0.493189 0.0586574 0 0 0 0 0 0 0 0 0 
26.982 1 180 15.9323 18.3964 2.34951 -2.74634 0.902846 -4.30723 0.119073 -0.340149 -0.0862968 0 0 0 0 0 0 0 0 0 
26.982 1 179 18.1271 16.145 2.26461 2.01469 -0.780493 -2.19234 -0.316534 0.605786 0.28912 0 0 0 0 0 0 0 0 0 
26.982 1 378 18.037 18.2864 4.32272 3.69341 6.7492 9.09034 0.134111 0.027701 -0.182644 0 0 0 0 0 0 0 0 0 
26.982 1 184 20.1357 18.3741 2.15411 -1.05392 0.0770563 1.20253 0.252791 -0.379283 0.57686 0 0 0 0 0 0 0 0 0 
26.982 1 381 20.2453 16.3415 4.34837 7.32146 2.5744 5.34115 0.00780044 -0.203831 -0.187471 0 0 0 0 0 0 0 0 0 
26.982 1 183 22.4921 16.4152 2.424 7.75866 5.03197 -3.20864 -0.407482 -0.07637 -0.153935 0 0 0 0 0 0 0 0 0 
26.982 1 382 22.6061 18.2862 4.45981 1.06898 3.89336 -1.53914 -0.200264 -0.0806907 -0.0718647 0 0 0 0 0 0 0 0 0 
26.982 1 2221 20.3054 20.2914 4.13693 0.404437 1.40431 6.36099 -0.129667 -0.295301 0.627088 0 0 0 0 0 0 0 0 0 
26.982 1 188 24.5575 18.2304 2.22256 -5.99981 7.47912 -5.47937 0.141224 -0.036285 1.00261 0 0 0 0 0 0 0 0 0 
26.982 1 385 24.8669 16.3426 4.27688 1.63505 3.49122 -2.36897 -0.841918 0.0964372 0.301883 0 0 0 0 0 0 0 0 0 
26.982 1 187 26.8146 16.2398 2.37635 5.6954 0.598956 -3.56757 -0.0349623 -0.199497 -0.0717259 0 0 0 0 0 0 0 0 0 
26.982 1 386 26.7855 18.2925 4.28746 -0.171125 -1.6375 1.8382 0.12589 0.0823646 0.203327 0 0 0 0 0 0 0 0 0 
26.982 1 192 28.7921 18.0936 2.27762 2.13599 5.7036 2.73076 0.474601 0.519655 0.0152007 0 0 0 0 0 0 0 0 0 
26.982 1 2229 28.9506 20.2983 4.34266 3.12652 3.92984 0.298284 -0.0793267 -0.27367 -0.270009 0 0 0 0 0 0 0 0 0 
26.982 1 2029 28.9583 20.2236 0.586994 1.25954 1.88461 -0.531792 0.307444 -0.0339222 -0.599113 0 0 0 0 0 0 0 0 0 
26.982 1 389 29.0669 16.4023 4.30275 -1.95135 -2.15382 -0.635315 -0.417811 -0.256187 0.275819 0 0 0 0 0 0 0 0 0 
26.982 1 191 30.9989 16.1425 2.33482 6.27712 0.630199 4.14955 0.709518 -0.124562 0.408119 0 0 0 0 0 0 0 0 0 
26.982 1 390 31.1066 18.3343 4.34646 0.076007 3.27074 -2.3842 0.039372 -0.0359022 -0.0940373 0 0 0 0 0 0 0 0 0 
26.982 1 393 33.2656 16.335 4.46613 5.98174 -2.3421 3.03758 0.0225544 -0.221783 -0.661965 0 0 0 0 0 0 0 0 0 
26.982 1 196 33.1982 18.0788 2.3371 3.80452 0.485441 2.96139 0.413456 0.329559 0.445631 0 0 0 0 0 0 0 0 0 
26.982 1 195 35.6085 16.2963 2.23476 1.05688 -1.49565 1.32542 -0.532615 0.124929 0.28607 0 0 0 0 0 0 0 0 0 
26.982 1 394 35.5184 18.1917 4.30523 -3.73995 1.85342 -1.62746 -0.214678 0.0975082 0.07737 0 0 0 0 0 0 0 0 0 
26.982 1 397 37.6953 16.3334 4.34783 1.73412 -4.88781 -2.45928 0.171362 -0.150687 0.0613056 0 0 0 0 0 0 0 0 0 
26.982 1 200 37.6581 18.2802 2.30224 0.488602 0.0839012 -2.18601 0.197343 -0.19137 0.162089 0 0 0 0 0 0 0 0 0 
26.982 1 361 42.0203 16.2714 4.41413 1.06598 -3.36876 0.920556 -0.0437809 -0.602962 -0.0678831 0 0 0 0 0 0 0 0 0 
26.982 1 199 39.9192 16.1084 2.46161 0.312385 0.975558 3.15173 -0.33342 0.0469765 0.00726243 0 0 0 0 0 0 0 0 0 
26.982 1 398 39.9896 18.2286 4.53332 -0.121755 2.56856 -0.899342 -0.234865 -0.522332 -0.336892 0 0 0 0 0 0 0 0 0 
26.982 1 2039 40.0313 20.0448 2.21998 1.68446 3.41997 1.04591 -0.260095 0.183912 0.516585 0 0 0 0 0 0 0 0 0 
26.982 1 2237 38.0253 20.1027 4.252 6.16393 -0.916507 -0.968316 -0.753082 0.569216 -0.291609 0 0 0 0 0 0 0 0 0 
26.982 1 243 0.576919 4.31822 6.38003 3.27174 1.55904 2.07683 0.095133 0.00866624 0.146644 0 0 0 0 0 0 0 0 0 
26.982 1 402 0.542573 2.40928 8.38143 1.76538 6.26475 1.94651 0.100695 0.12317 0.0715814 0 0 0 0 0 0 0 0 0 
26.982 1 404 -1.53601 2.3754 10.3648 -3.31096 -2.62945 0.037717 -0.0292751 0.182214 -0.452808 0 0 0 0 0 0 0 0 0 
26.982 1 203 0.707557 0.333782 6.2858 -0.0209561 -6.52409 0.00439953 -0.475466 0.545431 0.478785 0 0 0 0 0 0 0 0 0 
26.982 1 208 2.78777 2.49657 6.70885 1.18587 3.74138 -0.770281 0.0748574 0.0185082 -0.801364 0 0 0 0 0 0 0 0 0 
26.982 1 407 4.95581 0.486859 10.2473 -4.06804 0.579274 -0.59566 0.0366128 -0.0753393 0.416165 0 0 0 0 0 0 0 0 0 
26.982 1 207 5.12935 0.492802 6.3851 3.95474 0.621671 -4.23832 -0.407226 -0.162101 0.28054 0 0 0 0 0 0 0 0 0 
26.982 1 445 2.90903 4.53821 8.51085 -4.79055 0.197 -2.68724 -0.356993 -0.0871106 0.121252 0 0 0 0 0 0 0 0 0 
26.982 1 247 4.95246 4.39129 6.34408 2.08427 2.40912 2.07489 0.220769 -0.0313757 -0.0862508 0 0 0 0 0 0 0 0 0 
26.982 1 406 5.06002 2.48689 8.44736 4.57273 -1.62048 2.06232 -0.229604 -0.0574739 0.034456 0 0 0 0 0 0 0 0 0 
26.982 1 212 7.11828 2.44506 6.56475 5.26845 -1.06639 -0.591731 0.0975573 -0.106781 -0.611302 0 0 0 0 0 0 0 0 0 
26.982 1 408 2.77605 2.47019 10.2609 -0.874829 -1.20851 4.38344 -0.0916092 -0.0637029 0.00769693 0 0 0 0 0 0 0 0 0 
26.982 1 411 9.31105 0.581304 10.2997 -5.6387 1.81109 4.81138 0.116401 -0.0541275 0.301023 0 0 0 0 0 0 0 0 0 
26.982 1 211 9.39482 0.768389 6.34273 4.03091 -1.22272 -2.38557 -0.225676 -0.845005 0.119688 0 0 0 0 0 0 0 0 0 
26.982 1 449 7.05221 4.32031 8.4366 -2.58582 -3.49862 -2.81649 0.295166 0.442909 -0.0950314 0 0 0 0 0 0 0 0 0 
26.982 1 251 9.3647 4.36476 6.50764 -3.12751 -2.36461 -0.428382 -0.131222 0.0893638 -0.342946 0 0 0 0 0 0 0 0 0 
26.982 1 410 9.28607 2.54294 8.3997 3.31731 -3.37493 -0.490162 0.21089 -0.532697 -0.0266061 0 0 0 0 0 0 0 0 0 
26.982 1 413 11.4136 0.517498 8.19816 1.33747 0.629263 -2.62332 0.27387 -0.43135 0.305025 0 0 0 0 0 0 0 0 0 
26.982 1 216 11.5621 2.60682 6.4512 1.39083 0.593259 -1.18573 -0.0979923 -0.465337 -0.0188353 0 0 0 0 0 0 0 0 0 
26.982 1 215 13.6381 0.452881 6.23874 5.16105 -2.19814 0.715145 0.291083 -0.32943 0.232245 0 0 0 0 0 0 0 0 0 
26.982 1 415 13.6386 0.442617 10.4151 0.449338 -0.106045 3.42519 0.588196 0.010947 -0.545138 0 0 0 0 0 0 0 0 0 
26.982 1 453 11.621 4.50781 8.41057 2.18132 -0.658511 5.72544 -0.222121 -0.54841 -0.18613 0 0 0 0 0 0 0 0 0 
26.982 1 255 13.6087 4.40146 6.3329 -3.27998 2.89222 4.61031 0.446695 -0.031985 0.315393 0 0 0 0 0 0 0 0 0 
26.982 1 414 13.8821 2.34082 8.26805 -0.443961 1.05531 0.230887 -0.617039 0.0234124 0.0911128 0 0 0 0 0 0 0 0 0 
26.982 1 455 13.752 4.27098 10.2413 1.03789 -0.974913 -1.94372 0.204379 0.41917 0.25142 0 0 0 0 0 0 0 0 0 
26.982 1 220 15.8299 2.27745 6.32648 3.33381 -1.02816 1.55488 0.289646 0.128265 -0.369672 0 0 0 0 0 0 0 0 0 
26.982 1 416 11.7677 2.35843 10.3297 3.55156 -4.49924 -0.708251 -0.707928 0.243452 -0.21501 0 0 0 0 0 0 0 0 0 
26.982 1 420 15.9288 2.39911 10.2123 4.69072 -4.06773 0.251541 -0.0373975 0.400996 0.147035 0 0 0 0 0 0 0 0 0 
26.982 1 457 15.948 4.36098 8.11475 -4.22051 -1.35802 -0.913095 -0.0612956 -0.120665 0.339009 0 0 0 0 0 0 0 0 0 