ITEM: TIMESTEP
5900
ITEM: NUMBER OF ATOMS
4000
ITEM: BOX BOUNDS pp pp pp
-1.27332 41.7733
0.319512 40.1805
0.340352 40.1596
ITEM: ATOMS mass type id x y z vx vy vz fx fy fz xrad yrad zrad vxrad vyrad vzrad fxrad fyrad fzrad 
26.982 1 3 0.810123 0.339659 2.32546 -1.63223 -3.85129 -1.50748 0.116758 -0.288154 -0.00907551 0 0 0 0 0 0 0 0 0 
26.982 1 8 2.90492 2.21668 2.17116 2.18673 5.16209 -3.624 0.480484 0.160867 0.556808 0 0 0 0 0 0 0 0 0 
26.982 1 43 0.930712 4.34523 2.28418 -3.22187 -1.79772 1.38156 -0.158556 -0.117391 -0.038108 0 0 0 0 0 0 0 0 0 
26.982 1 202 0.745406 2.48793 4.2937 -1.08751 -1.0876 -0.641777 0.16072 -0.139772 0.0683243 0 0 0 0 0 0 0 0 0 
26.982 1 201 -1.45227 0.24614 4.22746 5.09983 -1.8426 -1.46802 0.224136 0.119549 -0.0174795 0 0 0 0 0 0 0 0 0 
26.982 1 245 3.14595 4.32332 4.21296 0.757369 1.08039 1.69634 -0.26706 0.0438181 -0.607629 0 0 0 0 0 0 0 0 0 
26.982 1 241 -1.24899 4.51545 4.26055 1.40723 -2.2135 -3.72727 -0.221491 -0.353369 0.079553 0 0 0 0 0 0 0 0 0 
26.982 1 205 2.84631 0.378371 4.4016 0.877788 4.03914 2.12446 0.174972 0.0346823 -0.568975 0 0 0 0 0 0 0 0 0 
26.982 1 47 5.08002 4.25861 2.16664 2.15175 -4.84639 0.406363 0.447722 -0.138776 0.202452 0 0 0 0 0 0 0 0 0 
26.982 1 206 5.35842 2.12584 4.22385 -2.62334 -2.43948 -3.17792 -0.741948 0.657348 0.0579958 0 0 0 0 0 0 0 0 0 
26.982 1 249 7.37443 4.09385 4.37704 -1.14756 -4.25475 -2.86037 -0.341703 0.774701 -0.165668 0 0 0 0 0 0 0 0 0 
26.982 1 209 7.32102 0.265255 4.28725 0.771571 0.673267 0.0962082 -0.0745317 0.0607913 -0.285932 0 0 0 0 0 0 0 0 0 
26.982 1 7 5.18119 0.360056 2.28858 2.04965 -3.43215 -1.66009 -0.176379 -0.167293 -0.326541 0 0 0 0 0 0 0 0 0 
26.982 1 6 5.18326 2.24179 0.15859 -0.838046 1.38686 5.23272 -0.0396939 -0.233366 0.278606 0 0 0 0 0 0 0 0 0 
26.982 1 49 7.27508 4.12281 0.11255 -1.00596 -0.399913 4.77553 0.261186 0.355003 0.625022 0 0 0 0 0 0 0 0 0 
26.982 1 12 7.438 2.35647 2.25209 2.44025 -2.27963 -0.499892 -0.345974 -0.213921 -0.187052 0 0 0 0 0 0 0 0 0 
26.982 1 51 9.42298 4.36115 2.31704 4.79874 -1.25259 4.37626 0.0520243 -0.354908 -0.255211 0 0 0 0 0 0 0 0 0 
26.982 1 210 9.38012 2.33643 4.32466 -1.5835 4.24835 -1.3504 0.422285 -0.0939037 -0.0867068 0 0 0 0 0 0 0 0 0 
26.982 1 11 9.42102 0.248738 2.38172 1.1973 -8.08603 0.444716 -0.0366856 0.0317429 0.121637 0 0 0 0 0 0 0 0 0 
26.982 1 16 11.5777 2.1738 2.32651 -1.17741 1.62731 2.14658 0.406638 0.570624 0.212135 0 0 0 0 0 0 0 0 0 
26.982 1 253 11.4796 4.39428 4.29408 -4.2338 -2.61581 2.04091 0.528104 -0.257533 -0.099757 0 0 0 0 0 0 0 0 0 
26.982 1 55 13.7659 4.37916 2.42127 -1.61899 -3.8026 2.78989 -0.155674 -0.117886 -0.24628 0 0 0 0 0 0 0 0 0 
26.982 1 214 13.7889 2.30621 4.33362 -1.00823 3.55513 0.372581 -0.0936664 -0.0249103 -0.58162 0 0 0 0 0 0 0 0 0 
26.982 1 257 15.8619 4.24209 4.3123 -0.336068 0.0165032 6.59678 0.343079 -0.295765 0.0316581 0 0 0 0 0 0 0 0 0 
26.982 1 213 11.5777 0.475445 4.39896 4.85847 -0.119847 0.850202 -0.130796 -0.505098 -0.12416 0 0 0 0 0 0 0 0 0 
26.982 1 20 15.885 2.16134 2.11712 1.82862 2.69955 1.03582 -0.132335 0.639174 0.522705 0 0 0 0 0 0 0 0 0 
26.982 1 218 18.1261 2.1076 4.11473 2.22504 -0.122592 -1.25833 -0.215868 0.563888 0.606309 0 0 0 0 0 0 0 0 0 
26.982 1 59 17.9658 4.28404 2.36064 1.59655 -0.763436 -0.765723 0.277676 -0.393345 -0.0286263 0 0 0 0 0 0 0 0 0 
26.982 1 217 15.9137 0.332495 4.37765 -0.985392 -3.36187 -3.3191 -0.0516992 -0.230169 -0.290562 0 0 0 0 0 0 0 0 0 
26.982 1 19 18.1795 0.238883 2.281 -3.67243 5.47679 1.08584 -0.341282 -0.0948427 0.248103 0 0 0 0 0 0 0 0 0 
26.982 1 57 15.6645 4.37783 0.166093 0.605101 -0.136809 1.96202 0.393942 -0.126414 0.783534 0 0 0 0 0 0 0 0 0 
26.982 1 21 20.1298 0.110434 0.298094 -0.304379 3.5337 0.665279 0.599374 0.63382 0.0870619 0 0 0 0 0 0 0 0 0 
26.982 1 261 20.2992 4.3417 4.30661 -5.781 2.35604 -5.84603 -0.296014 -0.503599 -0.0594861 0 0 0 0 0 0 0 0 0 
26.982 1 24 20.2384 2.24784 2.23657 4.05737 -1.01097 -0.464127 -0.0527715 -0.150012 0.350265 0 0 0 0 0 0 0 0 0 
26.982 1 63 22.2145 4.56916 2.21456 -2.48376 4.00863 -1.17632 0.854452 -1.07872 0.463366 0 0 0 0 0 0 0 0 0 
26.982 1 222 22.3928 2.37953 4.18639 -1.78284 -5.21437 0.9561 -0.0447477 0.208742 0.299043 0 0 0 0 0 0 0 0 0 
26.982 1 28 24.4946 2.32694 2.32269 -6.27513 -0.726523 -1.09478 -0.0534792 0.355293 -0.181504 0 0 0 0 0 0 0 0 0 
26.982 1 61 20.2149 4.13068 0.43602 -0.804503 -2.88649 0.153071 -0.592162 0.526811 -0.713327 0 0 0 0 0 0 0 0 0 
26.982 1 22 22.28 2.3826 0.32045 -2.74396 -0.750278 1.45964 0.430463 -0.611408 0.208656 0 0 0 0 0 0 0 0 0 
26.982 1 265 24.6093 4.37219 4.39369 -4.03779 -1.5375 1.12896 -0.719145 -0.00910629 -0.501732 0 0 0 0 0 0 0 0 0 
26.982 1 67 26.7363 4.40834 2.5198 5.8939 -3.94509 -4.8739 -0.255387 0.29125 -0.735177 0 0 0 0 0 0 0 0 0 
26.982 1 226 26.7011 2.42662 4.20286 3.3631 1.14397 -1.6515 0.0550986 -0.952158 0.0906554 0 0 0 0 0 0 0 0 0 
26.982 1 32 28.8734 2.3347 2.21038 0.13748 -0.745485 0.195419 0.105236 0.137475 0.679514 0 0 0 0 0 0 0 0 0 
26.982 1 269 28.8217 4.28991 4.27411 -1.15669 0.0511632 1.13035 0.329075 0.585444 0.119069 0 0 0 0 0 0 0 0 0 
26.982 1 27 26.5279 0.228766 2.3779 -0.0728638 -0.831833 3.48344 0.574314 0.220863 -0.0458942 0 0 0 0 0 0 0 0 0 
26.982 1 26 26.7464 2.30504 0.502589 -3.05242 1.00443 -4.01235 -0.208462 0.0647609 -0.392554 0 0 0 0 0 0 0 0 0 
26.982 1 71 31.0057 4.58462 2.39813 1.98131 -2.66598 4.8618 0.0343371 -0.664931 -0.0372052 0 0 0 0 0 0 0 0 0 
26.982 1 230 30.9439 2.3809 4.32482 -0.783293 1.64846 2.4401 0.0490526 -0.00647958 -0.0979257 0 0 0 0 0 0 0 0 0 
26.982 1 233 33.0897 0.425654 4.27937 -8.60818 0.473623 -2.24819 0.170085 -0.115344 -0.156161 0 0 0 0 0 0 0 0 0 
26.982 1 273 33.1639 4.41818 4.35756 0.481052 -0.266902 -1.20143 -0.0709343 -0.0470251 0.103387 0 0 0 0 0 0 0 0 0 
26.982 1 229 28.7318 0.203158 4.37356 1.50138 -0.843817 5.43811 0.249736 0.865855 -0.603483 0 0 0 0 0 0 0 0 0 
26.982 1 29 28.9443 0.363903 0.446469 3.50318 3.83547 -1.80577 -0.450181 -0.236381 -0.0146567 0 0 0 0 0 0 0 0 0 
26.982 1 73 33.0598 4.44018 0.204474 5.62448 -1.55359 -0.676747 0.403877 -0.380237 0.247232 0 0 0 0 0 0 0 0 0 
26.982 1 36 33.1338 2.46916 2.32669 2.21736 2.13445 -3.57881 -0.0638502 0.0126321 -0.0839364 0 0 0 0 0 0 0 0 0 
26.982 1 75 35.313 4.37631 2.43402 -1.01971 2.20933 -0.848194 0.135749 -0.123167 -0.529589 0 0 0 0 0 0 0 0 0 
26.982 1 234 35.3235 2.39842 4.30529 2.80397 6.02589 4.92168 0.119991 -0.236169 -0.0924075 0 0 0 0 0 0 0 0 0 
26.982 1 40 37.5732 2.13793 2.12194 1.93175 -1.38911 -0.0214408 -0.17648 0.37712 -0.100052 0 0 0 0 0 0 0 0 0 
26.982 1 37 37.377 0.340911 0.0627949 5.01174 -1.96315 -5.78979 0.326035 0.0537562 0.360177 0 0 0 0 0 0 0 0 0 
26.982 1 34 35.3259 2.39768 0.244309 -2.82126 1.34286 -0.96054 -0.251039 0.128029 0.180294 0 0 0 0 0 0 0 0 0 
26.982 1 277 37.598 4.11906 4.14838 6.78523 -2.29408 0.0896289 -0.330694 0.412781 0.0172206 0 0 0 0 0 0 0 0 0 
26.982 1 4 41.8194 2.39176 2.32845 -0.629111 7.09217 -5.23927 -0.0825513 -0.131182 -0.362787 0 0 0 0 0 0 0 0 0 
26.982 1 79 39.664 4.23232 2.10026 3.53642 -1.98069 3.63462 0.00301497 0.20436 0.280368 0 0 0 0 0 0 0 0 0 
26.982 1 238 39.6813 2.28514 4.07001 -1.57428 3.12985 -1.28443 -0.00554446 0.0208875 0.527893 0 0 0 0 0 0 0 0 0 
26.982 1 1 41.8482 0.258199 0.326657 -4.82375 -0.955379 0.603751 -0.384936 0.105357 -0.194877 0 0 0 0 0 0 0 0 0 
26.982 1 39 39.6057 0.17579 2.23644 -0.522132 -0.309298 -0.338708 0.169552 0.309611 -0.416616 0 0 0 0 0 0 0 0 0 
26.982 1 38 39.693 2.43864 0.0376584 1.84838 -1.11341 -1.48104 -0.164105 -0.567984 0.349597 0 0 0 0 0 0 0 0 0 
26.982 1 83 0.79587 8.23224 2.38275 -4.05649 -3.14637 -2.50188 0.428172 0.595746 -0.411392 0 0 0 0 0 0 0 0 0 
26.982 1 242 0.930654 6.31437 4.20062 0.153673 -1.46592 -1.75444 0.163729 -0.5593 0.190605 0 0 0 0 0 0 0 0 0 
26.982 1 285 3.13406 8.44363 4.22949 1.5934 -3.65089 0.862249 0.405786 -0.413889 -0.353185 0 0 0 0 0 0 0 0 0 
26.982 1 42 0.85192 6.20472 0.2925 8.17273 2.89278 1.60129 0.265705 0.400075 -0.347677 0 0 0 0 0 0 0 0 0 
26.982 1 281 -1.14312 8.27098 4.37137 0.917097 0.863807 1.13304 -0.503619 0.373137 -0.506164 0 0 0 0 0 0 0 0 0 
26.982 1 84 -1.29684 10.4301 2.4244 1.79911 -0.342996 1.31079 0.240114 -0.380067 0.0403717 0 0 0 0 0 0 0 0 0 
26.982 1 48 3.05233 6.2824 2.30234 0.763459 -1.39759 0.842521 0.107929 0.205528 -0.089209 0 0 0 0 0 0 0 0 0 
26.982 1 87 5.33809 8.28356 2.20956 -5.81299 1.31996 1.2169 -0.50586 -0.0927593 0.466655 0 0 0 0 0 0 0 0 0 
26.982 1 246 5.30145 6.27102 4.25053 -2.99109 -5.8701 0.608886 -0.18155 0.127723 -0.135913 0 0 0 0 0 0 0 0 0 
26.982 1 52 7.35782 6.24728 2.35971 -0.810562 0.763732 -0.0410786 -0.0596811 -0.232934 -0.357123 0 0 0 0 0 0 0 0 0 
26.982 1 289 7.38594 8.20687 4.32406 5.65503 2.34016 1.31535 0.0973369 0.171517 -0.195206 0 0 0 0 0 0 0 0 0 
26.982 1 92 7.26942 10.3797 2.16431 -1.7529 1.37796 -1.13792 0.325115 -0.0313224 0.804867 0 0 0 0 0 0 0 0 0 
26.982 1 91 9.51739 8.27603 2.36082 0.146228 5.72017 -5.9935 -0.0809629 0.158046 0.175337 0 0 0 0 0 0 0 0 0 
26.982 1 250 9.41277 6.15204 4.41455 -6.98087 1.15792 0.219734 -0.0492252 0.510144 -0.126384 0 0 0 0 0 0 0 0 0 
26.982 1 50 9.51425 6.29174 0.31838 2.77097 -0.0349536 5.18532 -0.228279 0.15884 -0.081493 0 0 0 0 0 0 0 0 0 
26.982 1 290 9.44783 10.2901 4.41555 3.61246 1.40843 5.51534 0.0721675 -0.0881719 -0.086483 0 0 0 0 0 0 0 0 0 
26.982 1 93 11.8115 8.36776 0.30362 0.75324 0.662361 -1.18595 -0.448295 -0.197574 0.583669 0 0 0 0 0 0 0 0 0 
26.982 1 56 11.4359 6.31706 2.38435 -3.17704 -1.74162 -4.77277 0.704534 0.118242 -0.0867534 0 0 0 0 0 0 0 0 0 
26.982 1 293 11.6551 8.29653 4.43662 -1.45092 -4.07303 -1.46861 -0.0934367 -0.398296 -0.195167 0 0 0 0 0 0 0 0 0 
26.982 1 95 13.8095 8.11946 2.43195 -0.680627 -1.43435 0.273557 0.050788 0.108878 -0.193082 0 0 0 0 0 0 0 0 0 
26.982 1 254 13.9064 6.31869 4.46019 0.925471 3.51896 -5.73466 -0.587469 0.138083 -0.0753604 0 0 0 0 0 0 0 0 0 
26.982 1 297 15.9581 8.32219 4.51212 -5.1958 -3.78428 -3.44478 0.202317 -0.582294 -0.499139 0 0 0 0 0 0 0 0 0 
26.982 1 294 13.8577 10.217 4.18002 -1.28833 -0.182078 2.17883 -0.181448 -0.00505787 0.453742 0 0 0 0 0 0 0 0 0 
26.982 1 94 13.9668 10.152 0.384495 -4.02623 3.20391 -3.82746 -0.0189502 0.291322 0.201462 0 0 0 0 0 0 0 0 0 
26.982 1 96 11.7196 10.3553 2.39041 6.25114 1.95363 3.94018 -0.101677 -0.69372 0.315879 0 0 0 0 0 0 0 0 0 
26.982 1 54 13.7503 6.33005 0.358925 2.05066 -1.0177 3.83538 0.190964 -0.191279 0.294302 0 0 0 0 0 0 0 0 0 
26.982 1 60 16.1392 6.28167 2.53111 0.092289 1.20548 -0.932047 -0.477919 0.362248 -0.418343 0 0 0 0 0 0 0 0 0 
26.982 1 99 18.3832 8.41521 2.36837 -1.2654 1.62404 1.1172 -0.737395 -0.273711 -0.106577 0 0 0 0 0 0 0 0 0 
26.982 1 258 17.973 6.18174 4.5835 -2.61236 0.515559 0.0196735 0.0859949 0.583549 -0.808448 0 0 0 0 0 0 0 0 0 
26.982 1 298 18.1549 10.2109 4.44848 -2.4789 1.10163 -1.46698 -0.0487756 0.0663134 -0.186211 0 0 0 0 0 0 0 0 0 
26.982 1 301 20.1556 8.26507 4.43578 2.41003 -5.50816 0.15935 0.462116 -0.0167116 -0.478616 0 0 0 0 0 0 0 0 0 
26.982 1 64 20.1807 6.25643 2.38432 -2.50029 1.8514 1.92068 -0.671756 0.389313 -0.132528 0 0 0 0 0 0 0 0 0 
26.982 1 103 22.3314 8.27912 2.16084 -2.81891 0.845418 0.97253 -0.106496 0.161108 0.376941 0 0 0 0 0 0 0 0 0 
26.982 1 262 22.199 6.32121 4.28307 1.56497 4.14148 0.63236 0.471555 0.19123 0.179472 0 0 0 0 0 0 0 0 0 
26.982 1 102 22.4073 10.315 0.189429 1.77091 -4.87453 5.24299 -0.120898 -0.15833 0.137414 0 0 0 0 0 0 0 0 0 
26.982 1 108 24.6064 10.2672 2.28654 0.352592 0.0165919 -0.315786 -0.0889314 0.253046 -0.0230831 0 0 0 0 0 0 0 0 0 
26.982 1 62 22.1049 6.28561 0.259598 0.683382 -3.00701 -2.12627 0.775476 0.055598 -0.478804 0 0 0 0 0 0 0 0 0 
26.982 1 305 24.3956 8.38429 4.19993 3.86285 2.82281 -3.04295 0.220036 -0.0978433 0.110628 0 0 0 0 0 0 0 0 0 
26.982 1 68 24.3657 6.38333 2.30396 0.29188 3.87984 0.555524 0.388745 -0.401167 0.129107 0 0 0 0 0 0 0 0 0 
26.982 1 107 26.6832 8.28404 2.31942 -3.63767 -0.984392 -0.694046 -0.0220105 0.254507 0.0324504 0 0 0 0 0 0 0 0 0 
26.982 1 266 26.595 6.46344 4.42929 0.0993388 -4.06808 0.135005 -0.000671695 -0.414504 -0.417061 0 0 0 0 0 0 0 0 0 
26.982 1 72 28.8548 6.34389 2.42752 -2.95476 -3.12279 1.00187 0.0229223 0.201866 -0.0649986 0 0 0 0 0 0 0 0 0 
26.982 1 112 28.9992 10.3725 2.51078 -4.86807 5.0254 0.680812 -0.703817 -0.139889 -0.212383 0 0 0 0 0 0 0 0 0 
26.982 1 306 26.7406 10.4423 4.38541 6.84406 -2.18202 6.45544 -0.40237 -0.369653 -0.0729117 0 0 0 0 0 0 0 0 0 
26.982 1 309 28.6393 8.29969 4.49292 2.25237 -1.39255 0.548433 0.598369 0.183833 -0.52619 0 0 0 0 0 0 0 0 0 
26.982 1 111 30.971 8.41995 2.35956 -3.4308 -1.11494 2.82304 0.0975542 -0.544647 0.324995 0 0 0 0 0 0 0 0 0 
26.982 1 270 31.0817 6.33273 4.57832 3.37115 -4.80487 3.74652 -0.489123 0.164589 -0.561906 0 0 0 0 0 0 0 0 0 
26.982 1 70 31.0875 6.31246 0.329909 -0.197865 -1.34719 -0.485121 -0.375598 0.408221 -0.113895 0 0 0 0 0 0 0 0 0 
26.982 1 313 32.9938 8.25291 4.31413 2.19149 -2.48307 -4.71447 0.180074 0.241555 0.0342541 0 0 0 0 0 0 0 0 0 
26.982 1 76 33.2773 6.30177 2.25079 6.41804 -0.2899 0.790067 -0.503394 0.14975 0.3137 0 0 0 0 0 0 0 0 0 
26.982 1 115 35.2564 8.37048 2.27604 0.863054 1.27907 -0.288568 0.14605 -0.155434 -0.00161277 0 0 0 0 0 0 0 0 0 
26.982 1 274 35.1699 6.46991 4.35247 3.43187 0.335426 2.23882 0.0935228 -0.428733 -0.264176 0 0 0 0 0 0 0 0 0 
26.982 1 317 37.2549 8.23174 4.26715 0.973728 -1.92731 3.18157 0.703622 0.14704 0.405695 0 0 0 0 0 0 0 0 0 
26.982 1 74 35.2083 6.4516 0.367284 4.68839 1.32219 0.88155 0.619145 -0.688196 -0.493367 0 0 0 0 0 0 0 0 0 
26.982 1 114 35.3363 10.2978 0.351998 -5.17503 -0.634409 2.32356 0.194293 0.178393 -0.0340069 0 0 0 0 0 0 0 0 0 
26.982 1 113 33.2272 8.27699 0.219397 -1.2606 0.899731 -4.23273 -0.459444 0.366364 0.290718 0 0 0 0 0 0 0 0 0 
26.982 1 44 41.7899 6.36646 2.18056 -0.824709 4.13689 6.76485 -0.0737025 -0.253933 0.294372 0 0 0 0 0 0 0 0 0 
26.982 1 117 37.4323 8.21474 0.157316 -3.65989 4.74646 1.40064 0.109173 -0.0462503 0.129649 0 0 0 0 0 0 0 0 0 
26.982 1 80 37.451 6.27277 2.30428 0.827138 -0.362654 0.923578 -0.190147 0.0324132 -0.153521 0 0 0 0 0 0 0 0 0 
26.982 1 119 39.7092 8.19789 2.26815 -3.9657 3.97167 -2.55167 -0.0796018 0.675603 0.510129 0 0 0 0 0 0 0 0 0 
26.982 1 278 39.4875 6.28922 4.21677 -4.39039 -0.272528 1.73447 0.277301 0.0114827 0.130852 0 0 0 0 0 0 0 0 0 
26.982 1 123 1.02086 12.2632 2.13281 -3.35447 2.78262 -3.12371 -0.203193 -0.045401 0.428067 0 0 0 0 0 0 0 0 0 
26.982 1 282 1.00527 10.3088 4.3289 -0.304801 2.64972 -0.590136 -0.523078 -0.0426605 -0.207468 0 0 0 0 0 0 0 0 0 
26.982 1 322 0.895706 14.2704 4.1734 0.804695 7.91929 0.9102 0.103295 -0.213404 0.324738 0 0 0 0 0 0 0 0 0 
26.982 1 124 -1.23328 14.0126 2.42855 7.53777 -3.89845 1.91872 -0.0889753 0.315573 -0.179318 0 0 0 0 0 0 0 0 0 
26.982 1 321 -1.41503 12.1712 4.54898 2.2139 3.14936 0.829616 0.416531 0.00957552 -0.323107 0 0 0 0 0 0 0 0 0 
26.982 1 325 2.97126 12.1654 4.28051 -2.68554 -2.04749 -1.21981 0.401138 0.377691 0.0443069 0 0 0 0 0 0 0 0 0 
26.982 1 122 1.00025 14.301 0.250403 -0.143696 -0.297749 -2.62687 -0.200183 -0.129081 -0.323523 0 0 0 0 0 0 0 0 0 
26.982 1 286 5.37852 10.2161 4.19704 -2.62919 -2.16418 4.04661 -0.475625 0.239304 0.248268 0 0 0 0 0 0 0 0 0 
26.982 1 88 3.04726 10.3518 2.2054 -5.32028 -0.522379 3.81368 0.130358 -0.149246 0.110446 0 0 0 0 0 0 0 0 0 
26.982 1 128 3.06923 14.2602 2.2057 1.15966 1.75875 3.09057 0.121062 0.0890025 0.0305146 0 0 0 0 0 0 0 0 0 
26.982 1 125 3.01229 12.1828 0.128123 3.07678 0.188876 -1.77745 0.196968 0.0288236 0.326895 0 0 0 0 0 0 0 0 0 
26.982 1 127 5.18445 12.4765 2.45552 -2.37693 -7.84883 -3.49582 -0.180328 -0.421257 -0.600137 0 0 0 0 0 0 0 0 0 
26.982 1 326 5.1549 14.4988 4.30321 -3.77982 -5.39352 -2.70103 0.051651 -0.504181 -0.203331 0 0 0 0 0 0 0 0 0 
26.982 1 126 5.32905 14.1613 0.132686 1.20014 3.4555 -1.4679 -0.460605 0.24706 0.412288 0 0 0 0 0 0 0 0 0 
26.982 1 132 7.35331 14.3654 2.10633 -0.946051 -3.68266 1.88523 0.080916 -0.0426801 0.607731 0 0 0 0 0 0 0 0 0 
26.982 1 329 7.15207 12.3429 4.31318 -0.068688 -2.55333 0.745725 0.471464 0.0851468 0.179951 0 0 0 0 0 0 0 0 0 
26.982 1 131 9.4653 12.3019 2.52177 -1.91845 0.158523 -2.1459 0.0284637 0.197425 -0.36876 0 0 0 0 0 0 0 0 0 
26.982 1 330 9.34223 14.2367 4.52141 -6.17184 1.31085 2.75675 0.240528 -0.0125123 -0.261512 0 0 0 0 0 0 0 0 0 
26.982 1 333 11.6785 12.1702 4.46925 -0.0297657 -5.08045 1.72325 -0.357827 0.672777 -0.402909 0 0 0 0 0 0 0 0 0 
26.982 1 136 11.7251 14.2514 2.44306 -0.281337 2.07408 -3.25409 -0.515726 -0.268991 0.16537 0 0 0 0 0 0 0 0 0 
26.982 1 135 13.8451 12.3155 2.35004 -0.219129 1.79919 2.59524 0.262846 -0.261455 0.110565 0 0 0 0 0 0 0 0 0 
26.982 1 334 13.7942 14.2442 4.49309 5.08333 0.540653 0.59893 0.196105 -0.290312 -0.0768182 0 0 0 0 0 0 0 0 0 
26.982 1 134 13.7251 14.2695 0.514151 -1.42639 3.34625 -1.83901 0.50046 -0.0530257 -0.841423 0 0 0 0 0 0 0 0 0 
26.982 1 140 16.1387 14.0371 2.19957 -2.19942 4.04428 -2.69454 -0.493075 0.302622 0.289054 0 0 0 0 0 0 0 0 0 
26.982 1 100 15.96 10.1786 2.41869 3.7941 0.634344 0.695485 0.248038 -0.0302751 -0.463015 0 0 0 0 0 0 0 0 0 
26.982 1 337 15.8926 12.219 4.35278 -0.0535818 4.07069 1.00757 0.17621 0.179098 0.199356 0 0 0 0 0 0 0 0 0 
26.982 1 139 18.1073 12.0363 2.39936 -1.59233 1.24953 5.48195 0.217655 -0.134636 -0.455045 0 0 0 0 0 0 0 0 0 
26.982 1 338 18.1796 14.0761 4.13889 3.28468 4.67492 -2.14242 0.125369 0.502574 0.477595 0 0 0 0 0 0 0 0 0 
26.982 1 341 20.4568 12.2006 4.38208 0.422374 3.08109 3.97647 -0.634691 0.0717757 -0.0984857 0 0 0 0 0 0 0 0 0 
26.982 1 104 20.4134 10.3429 2.29537 2.08867 -1.58759 -1.96954 -0.273452 -0.285784 0.00368703 0 0 0 0 0 0 0 0 0 
26.982 1 137 16.1461 12.269 0.101563 -1.0864 2.16963 -0.699503 -0.631096 -0.369573 0.500034 0 0 0 0 0 0 0 0 0 
26.982 1 138 18.1158 14.2157 0.30587 -4.80504 -0.731971 -0.167646 0.331101 -0.031926 0.0192316 0 0 0 0 0 0 0 0 0 
26.982 1 302 22.3622 10.2612 4.36578 4.13048 2.74689 0.977943 0.0235964 -0.298284 -0.455376 0 0 0 0 0 0 0 0 0 
26.982 1 144 20.3202 14.0611 2.19724 0.903432 -3.80226 -2.06624 -0.50896 0.468264 0.485436 0 0 0 0 0 0 0 0 0 
26.982 1 142 22.3249 14.3104 0.366227 -3.29284 -7.67775 1.11668 0.295078 -0.508591 -0.726385 0 0 0 0 0 0 0 0 0 
26.982 1 143 22.377 12.2789 2.33919 2.59481 1.68414 -2.3068 0.467906 -0.254153 -0.138366 0 0 0 0 0 0 0 0 0 
26.982 1 342 22.4113 14.1855 4.32092 0.0234477 4.25267 -2.00502 -0.0442227 0.433222 0.153127 0 0 0 0 0 0 0 0 0 
26.982 1 345 24.5548 12.3475 4.40546 -2.32122 2.14184 1.32814 -0.0634579 -0.28931 -0.504971 0 0 0 0 0 0 0 0 0 
26.982 1 145 24.3908 12.2692 0.340316 -4.33504 4.281 0.206733 0.321384 -0.144509 -0.253005 0 0 0 0 0 0 0 0 0 
26.982 1 148 24.5372 14.2273 2.14142 2.20519 2.56853 -1.96041 0.0390384 -0.0886754 0.806491 0 0 0 0 0 0 0 0 0 
26.982 1 147 26.7011 12.3057 2.37849 -1.87383 -0.782868 4.80352 -0.0305498 -0.091963 -0.250667 0 0 0 0 0 0 0 0 0 
26.982 1 346 26.6397 14.2708 4.35951 0.159462 7.00584 0.307815 0.147275 -0.0385629 -0.0954444 0 0 0 0 0 0 0 0 0 
26.982 1 152 28.9675 14.1449 2.46437 1.31966 1.40877 -2.0351 -0.276863 0.541351 -0.0773041 0 0 0 0 0 0 0 0 0 
26.982 1 146 26.6638 14.2948 0.316518 5.32751 -0.0948334 -0.459961 0.305892 -0.569996 0.41587 0 0 0 0 0 0 0 0 0 
26.982 1 310 30.8729 10.4954 4.50769 -9.4 0.553413 -0.29475 0.202696 -0.648515 0.212061 0 0 0 0 0 0 0 0 0 
26.982 1 349 28.8061 12.3749 4.58071 3.60159 1.0749 -4.61559 0.0155069 -0.112014 -0.323666 0 0 0 0 0 0 0 0 0 
26.982 1 151 31.018 12.1944 2.52953 -1.84089 -4.83851 -2.37994 -0.0683365 0.2197 -0.842984 0 0 0 0 0 0 0 0 0 
26.982 1 350 31.0705 14.2118 4.31107 -4.16328 2.39333 -2.7217 -0.256846 0.376847 0.127846 0 0 0 0 0 0 0 0 0 
26.982 1 353 33.0229 12.3667 4.28423 -2.57045 -6.81193 -1.63568 0.805484 -0.418863 0.345771 0 0 0 0 0 0 0 0 0 
26.982 1 150 31.1618 14.1529 0.482254 -2.99494 -0.644878 6.11653 -0.376066 0.428263 0.0995022 0 0 0 0 0 0 0 0 0 
26.982 1 153 33.2927 12.2121 0.535557 -3.47332 5.83035 3.90024 -0.00503684 -0.128002 -0.580946 0 0 0 0 0 0 0 0 0 
26.982 1 116 33.0942 10.2726 2.32624 -3.00921 1.84318 -1.00154 0.0821283 -0.233284 0.212706 0 0 0 0 0 0 0 0 0 
26.982 1 314 35.0803 10.1007 4.32428 0.450183 0.347608 -0.285485 0.231566 0.527874 0.0937924 0 0 0 0 0 0 0 0 0 
26.982 1 155 35.4261 12.1432 2.45651 -1.67425 4.37834 1.86888 -0.115227 0.31169 -0.100665 0 0 0 0 0 0 0 0 0 
26.982 1 156 33.2297 14.197 2.26639 1.58641 -2.50613 -3.31119 0.334936 0.501389 0.328943 0 0 0 0 0 0 0 0 0 
26.982 1 354 35.3087 14.359 4.45475 2.0557 -1.25802 4.23413 -0.0960901 0.202603 -0.520818 0 0 0 0 0 0 0 0 0 
26.982 1 154 35.6011 14.2378 0.314719 2.10403 -0.343662 -4.49758 -0.636026 -0.40074 0.403696 0 0 0 0 0 0 0 0 0 
26.982 1 318 39.5606 10.1678 4.46925 2.9133 4.02338 -1.93874 -0.129715 -0.209744 -0.278014 0 0 0 0 0 0 0 0 0 
26.982 1 120 37.5603 10.0808 2.35007 1.52967 1.186 -1.29152 -0.122175 0.524254 -0.11119 0 0 0 0 0 0 0 0 0 
26.982 1 160 37.4067 14.33 2.41805 -0.786411 -3.205 -0.225957 -0.126124 -0.208889 0.00778848 0 0 0 0 0 0 0 0 0 
26.982 1 357 37.4153 12.3168 4.33734 -4.00182 0.571957 -1.81339 0.119315 -0.293498 -0.168626 0 0 0 0 0 0 0 0 0 
26.982 1 159 39.656 12.2775 2.51501 -1.09886 3.19899 0.528536 -0.210367 -0.0468115 -0.228198 0 0 0 0 0 0 0 0 0 
26.982 1 358 39.5062 14.2793 4.42806 -0.259049 0.613063 -2.83531 0.197866 -0.201726 0.0989629 0 0 0 0 0 0 0 0 0 
26.982 1 121 41.8861 12.233 0.329436 -2.78382 -1.91031 2.75452 -0.128684 0.222711 -0.19633 0 0 0 0 0 0 0 0 0 
26.982 1 163 0.649451 16.1826 2.09922 5.58188 -3.3117 0.411964 0.481568 0.28195 0.537572 0 0 0 0 0 0 0 0 0 
26.982 1 362 0.792701 18.2299 4.28801 5.1743 5.00335 -2.80016 0.139881 0.105667 -0.0800675 0 0 0 0 0 0 0 0 0 
26.982 1 164 -1.42277 18.1201 2.257 2.47108 -3.01463 2.70224 0.278445 -0.033205 -0.0641812 0 0 0 0 0 0 0 0 0 
26.982 1 168 2.99629 18.4144 2.33652 5.89815 2.72073 0.173419 0.0640969 -0.00128384 0.215573 0 0 0 0 0 0 0 0 0 
26.982 1 365 2.96372 16.2828 4.17773 -4.85838 -0.744296 -1.95504 -0.0170655 0.203754 0.0853559 0 0 0 0 0 0 0 0 0 
26.982 1 161 -1.34859 16.2606 0.21901 3.55911 -2.09263 3.49695 0.304332 -0.0707734 0.20915 0 0 0 0 0 0 0 0 0 
26.982 1 167 5.33279 16.3067 2.10488 -1.02124 1.57386 0.154953 -0.38116 -0.257736 0.447809 0 0 0 0 0 0 0 0 0 
26.982 1 366 5.23135 18.1851 4.05442 -1.32535 -2.91226 0.0277911 -0.185747 0.553937 0.685675 0 0 0 0 0 0 0 0 0 
26.982 1 2007 5.36846 20.4332 2.24782 0.691369 -4.51071 7.30538 -0.268823 0.0140766 0.642608 0 0 0 0 0 0 0 0 0 
26.982 1 169 7.28524 16.5422 0.327275 4.74158 -2.27512 -1.449 0.715868 -0.0990941 -0.256329 0 0 0 0 0 0 0 0 0 
26.982 1 172 7.43988 18.425 2.38854 -2.40021 -0.465538 6.08989 0.199915 -0.344782 -0.0163725 0 0 0 0 0 0 0 0 0 
26.982 1 369 7.28526 16.3392 4.38577 -4.38462 -0.0520077 4.90106 0.0960298 -0.139551 -0.351706 0 0 0 0 0 0 0 0 0 
26.982 1 171 9.46356 16.2079 2.56719 0.747834 2.82051 1.31617 0.0950079 0.187713 -0.496758 0 0 0 0 0 0 0 0 0 
26.982 1 370 9.51072 18.3035 4.34739 0.421551 -3.87256 2.73662 -0.0912962 0.0415602 -0.236212 0 0 0 0 0 0 0 0 0 
26.982 1 2209 7.56137 20.4496 4.25577 -3.65594 3.80706 2.56525 -0.346687 -0.555251 0.109858 0 0 0 0 0 0 0 0 0 
26.982 1 2011 9.63059 20.4362 2.34361 -0.463623 2.0202 -3.09435 0.124858 -0.46683 -0.0622903 0 0 0 0 0 0 0 0 0 
26.982 1 176 11.6374 18.2189 2.21651 -7.79183 6.62484 -2.43841 0.323361 0.0252558 0.582613 0 0 0 0 0 0 0 0 0 
26.982 1 2217 15.9921 20.2617 4.27647 -8.10202 5.17418 1.22413 -0.0580541 0.0445616 0.175692 0 0 0 0 0 0 0 0 0 
26.982 1 373 11.6785 16.1402 4.329 -1.98624 -4.66656 1.60206 -0.306303 0.0194865 -0.233794 0 0 0 0 0 0 0 0 0 
26.982 1 175 13.8899 16.0999 2.42866 -0.214345 0.776194 0.132019 -0.0772215 0.327377 -0.194198 0 0 0 0 0 0 0 0 0 
26.982 1 374 13.7501 18.1892 4.1624 5.5759 -0.47743 1.71769 0.0837214 0.40475 0.255401 0 0 0 0 0 0 0 0 0 
26.982 1 377 16.0006 16.1118 4.28529 -6.74724 -0.650856 -2.87719 0.147019 -0.169569 0.0354849 0 0 0 0 0 0 0 0 0 
26.982 1 174 13.9245 18.4046 0.393516 -1.16927 1.81591 0.251977 -0.34302 -0.785223 -0.331985 0 0 0 0 0 0 0 0 0 
26.982 1 2015 13.9649 20.2027 2.30404 0.273908 7.89877 -0.495197 -0.378388 0.435415 0.293091 0 0 0 0 0 0 0 0 0 
26.982 1 180 15.9918 18.1351 2.43178 -2.09323 1.02053 -6.47215 0.0632794 0.354447 -0.0102264 0 0 0 0 0 0 0 0 0 
26.982 1 179 18.1125 16.1907 2.30788 -4.14604 -3.69878 3.50346 0.366065 -0.0884624 0.245056 0 0 0 0 0 0 0 0 0 
26.982 1 378 18.0901 18.3233 4.37138 0.67551 -0.370286 2.18999 0.144994 -0.0854196 -0.0986622 0 0 0 0 0 0 0 0 0 
26.982 1 178 18.1701 18.1734 0.405396 0.0525603 2.23103 -2.08695 0.0995603 0.106548 -0.347224 0 0 0 0 0 0 0 0 0 
26.982 1 2019 17.9936 20.2748 2.2742 -1.09387 -3.12436 -5.10639 0.56916 -0.0681281 0.281014 0 0 0 0 0 0 0 0 0 
26.982 1 184 20.2194 18.1843 2.38324 -2.87512 -5.39703 0.724392 -0.0292597 0.154776 -0.488703 0 0 0 0 0 0 0 0 0 
26.982 1 381 20.2833 16.3294 4.34822 4.37092 1.90955 -2.02416 0.0378503 -0.540395 0.025576 0 0 0 0 0 0 0 0 0 
26.982 1 181 20.3535 16.2296 0.273377 -0.431873 -0.741836 0.474873 -0.458466 0.170078 0.140007 0 0 0 0 0 0 0 0 0 
26.982 1 183 22.3444 16.1444 2.2413 0.577267 -3.41288 -2.00519 -0.0105034 0.384732 0.482477 0 0 0 0 0 0 0 0 0 
26.982 1 382 22.3808 18.2162 4.26628 -0.308541 -5.82029 -0.362534 0.0212842 -0.18239 0.299691 0 0 0 0 0 0 0 0 0 
26.982 1 188 24.5346 18.0336 2.44422 -2.98224 -1.50442 0.969796 0.293511 0.382104 -0.525009 0 0 0 0 0 0 0 0 0 
26.982 1 182 22.3391 18.2126 0.248547 0.270262 0.67375 -3.4098 0.221525 -0.110964 -0.0257092 0 0 0 0 0 0 0 0 0 
26.982 1 385 24.4377 16.1601 4.23649 2.58202 1.06089 0.425884 0.289658 -0.210789 0.296872 0 0 0 0 0 0 0 0 0 
26.982 1 185 24.5874 16.1957 0.366252 -3.07088 -6.31048 -2.43353 -0.206482 0.405465 -0.19079 0 0 0 0 0 0 0 0 0 
26.982 1 187 26.8526 16.1049 2.43179 2.88259 -0.364405 -1.32545 -0.267566 0.308951 -0.284823 0 0 0 0 0 0 0 0 0 
26.982 1 386 26.8462 18.3215 4.28059 0.249761 1.26996 -0.589847 -0.902926 -0.46152 0.380618 0 0 0 0 0 0 0 0 0 
26.982 1 389 28.7453 16.3231 4.53157 -5.15942 -0.670075 3.15719 0.244549 -0.320232 -0.687517 0 0 0 0 0 0 0 0 0 
26.982 1 189 28.9667 16.3374 0.349356 -5.46447 2.3155 -8.94514 -0.0592306 -0.551908 0.325616 0 0 0 0 0 0 0 0 0 
26.982 1 186 26.806 18.1295 0.321591 1.458 0.974095 1.45582 -0.201935 0.268657 0.270428 0 0 0 0 0 0 0 0 0 
26.982 1 192 28.7546 18.2488 2.40318 2.99985 0.663158 0.597574 0.599997 -0.0430252 -0.227743 0 0 0 0 0 0 0 0 0 
26.982 1 191 30.9301 16.2511 2.37901 -2.30318 -6.40117 -2.25153 -0.0166583 -0.0265069 -0.110513 0 0 0 0 0 0 0 0 0 
26.982 1 390 30.9339 18.1611 4.40532 1.06677 5.50315 0.507541 -0.0486353 0.171014 -0.13519 0 0 0 0 0 0 0 0 0 
26.982 1 190 31.0742 18.2537 0.29164 -2.50295 3.3269 1.45175 0.213172 0.0423737 0.487783 0 0 0 0 0 0 0 0 0 
26.982 1 393 33.0613 16.3059 4.24779 -2.25698 -4.33392 -1.86294 0.226289 -0.605157 0.552397 0 0 0 0 0 0 0 0 0 
26.982 1 196 33.0921 18.1286 2.38473 -0.055921 -1.61449 -2.40989 -0.272256 0.975482 -0.245149 0 0 0 0 0 0 0 0 0 
26.982 1 195 35.2155 16.3743 2.30789 -0.483386 3.21538 -0.443126 0.277529 -0.740501 0.258075 0 0 0 0 0 0 0 0 0 
26.982 1 394 35.1343 18.2653 4.43147 -1.20667 -2.78 0.466988 0.350104 0.401556 -0.283272 0 0 0 0 0 0 0 0 0 
26.982 1 197 37.5817 16.0516 0.26464 -1.01457 -3.34976 2.60975 0.128607 0.58865 0.0651641 0 0 0 0 0 0 0 0 0 
26.982 1 193 33.2683 16.2764 0.356299 6.22657 1.85875 -1.0513 -0.400255 -0.199621 -0.0732254 0 0 0 0 0 0 0 0 0 
26.982 1 361 41.7877 16.1994 4.29869 -5.91195 -1.96887 0.306833 -0.0504443 -0.0176908 -0.10853 0 0 0 0 0 0 0 0 0 
26.982 1 200 37.354 18.0477 2.29026 0.8006 1.9384 -3.85908 0.470738 0.470415 0.079983 0 0 0 0 0 0 0 0 0 
26.982 1 397 37.474 16.2778 4.37203 3.23708 0.503667 -1.46269 -0.224139 0.1751 0.201798 0 0 0 0 0 0 0 0 0 
26.982 1 199 39.6067 15.9406 2.34771 -3.92107 -3.67728 0.685561 0.213557 0.794722 -0.0073642 0 0 0 0 0 0 0 0 0 
26.982 1 398 39.7044 18.2212 4.1791 -1.07777 -8.1455 -0.8252 -0.66118 -0.292608 0.479958 0 0 0 0 0 0 0 0 0 
26.982 1 198 39.6585 18.0564 0.227066 -1.30425 -2.87697 -1.96217 -0.4432 0.400375 0.361022 0 0 0 0 0 0 0 0 0 
26.982 1 243 0.840829 4.4528 6.45823 3.45171 -0.385277 -3.25322 -0.191264 -0.0599567 -0.572386 0 0 0 0 0 0 0 0 0 
26.982 1 402 0.932217 2.44956 8.27138 0.341391 -2.2768 -1.44762 -0.219874 -0.497004 0.0864181 0 0 0 0 0 0 0 0 0 
26.982 1 208 2.94183 2.54374 6.0428 -1.80487 -3.88325 2.05701 0.0339733 -0.682084 0.857683 0 0 0 0 0 0 0 0 0 
26.982 1 445 3.03695 4.31506 8.23128 -3.24198 1.91506 1.36905 -0.134691 0.213872 0.454336 0 0 0 0 0 0 0 0 0 
26.982 1 441 -1.4437 4.31539 8.25758 3.52188 -0.271203 1.313 0.234055 0.158556 -0.217706 0 0 0 0 0 0 0 0 0 
26.982 1 403 0.844066 0.442009 10.3349 0.118401 3.33545 -5.6811 -0.156762 -0.443919 -0.206486 0 0 0 0 0 0 0 0 0 
26.982 1 443 0.642691 4.53553 10.0887 2.50551 1.58878 0.800865 0.576014 -0.890604 0.571891 0 0 0 0 0 0 0 0 0 
26.982 1 408 2.99143 2.2236 10.4159 -2.77073 0.181989 5.84513 -0.255166 0.577988 -0.403234 0 0 0 0 0 0 0 0 0 
26.982 1 247 5.11681 4.30991 6.14186 1.34345 1.5426 -1.25252 0.484808 -0.410681 0.371076 0 0 0 0 0 0 0 0 0 
26.982 1 406 4.95318 2.31393 8.3262 -1.29716 -1.26296 -0.49102 0.299875 0.104814 -0.230893 0 0 0 0 0 0 0 0 0 
26.982 1 207 4.93681 0.393216 6.32034 -2.86257 1.23894 0.707152 0.420172 -0.123689 -0.132835 0 0 0 0 0 0 0 0 0 
26.982 1 449 7.17466 4.21515 8.27726 -3.48864 0.00249246 -3.49322 0.0852564 -0.147515 -0.00945408 0 0 0 0 0 0 0 0 0 
26.982 1 212 7.26365 2.18567 6.29378 4.49343 2.00014 0.974191 -0.250138 0.343683 0.0930669 0 0 0 0 0 0 0 0 0 
26.982 1 251 9.5202 4.28274 6.42447 -4.33542 -2.08169 2.16911 -0.689414 -0.432608 -0.315306 0 0 0 0 0 0 0 0 0 
26.982 1 410 9.24168 2.21273 8.31455 1.27437 -2.58631 -2.81683 0.586462 0.313514 0.114346 0 0 0 0 0 0 0 0 0 
26.982 1 216 11.5346 2.51651 6.23486 -0.450814 -6.21964 -0.72345 0.10127 -0.468224 0.337135 0 0 0 0 0 0 0 0 0 
26.982 1 412 7.22805 2.14643 10.3332 -0.935398 -5.76164 -5.4458 -0.0599309 0.312286 0.00128567 0 0 0 0 0 0 0 0 0 
26.982 1 411 9.62096 0.216477 10.317 1.8897 -0.829775 -4.05111 -0.540928 0.172724 0.158625 0 0 0 0 0 0 0 0 0 