ITEM: TIMESTEP
16550
ITEM: NUMBER OF ATOMS
4000
ITEM: BOX BOUNDS pp pp pp
-3.43785 43.9379
0.895632 39.6044
1.09312 39.4069
ITEM: ATOMS mass type id x y z vx vy vz fx fy fz xrad yrad zrad vxrad vyrad vzrad fxrad fyrad fzrad 
26.982 1 43 -1.64148 6.14084 3.15451 3.52281 -0.0374771 3.27901 0.261189 -0.0557128 0.473641 0 0 0 0 0 0 0 0 0 
26.982 1 202 -1.4126 3.60948 4.65975 2.44559 6.42429 -0.643391 0.45868 -0.0713981 0.208611 0 0 0 0 0 0 0 0 0 
26.982 1 235 36.4873 0.907816 6.89954 3.08365 1.10452 -0.861984 -0.594642 0.330619 0.764347 0 0 0 0 0 0 0 0 0 
26.982 1 205 0.866387 1.64021 4.43669 0.604423 -1.10576 -4.44093 -0.104348 -0.311257 0.222328 0 0 0 0 0 0 0 0 0 
26.982 1 2 -1.64595 2.95903 1.72123 1.85097 -8.61816 -1.05921 0.047925 0.128944 0.139561 0 0 0 0 0 0 0 0 0 
26.982 1 245 2.20903 3.9486 4.80147 -0.697714 -3.276 -3.42866 0.158595 -0.138639 0.26768 0 0 0 0 0 0 0 0 0 
26.982 1 8 1.43371 3.09063 2.10732 1.67614 -5.70204 -6.72331 0.327902 0.828185 -0.29212 0 0 0 0 0 0 0 0 0 
26.982 1 47 4.65065 4.56611 3.44868 -2.78786 -4.29503 1.63468 -0.511038 0.0429545 0.434524 0 0 0 0 0 0 0 0 0 
26.982 1 206 4.34157 1.91451 4.29396 1.79288 -0.685185 5.64055 0.313307 0.44722 0.255043 0 0 0 0 0 0 0 0 0 
26.982 1 249 6.98654 5.08948 5.24123 3.58936 0.0317849 -0.974515 -0.488132 -0.0453822 0.167112 0 0 0 0 0 0 0 0 0 
26.982 1 12 6.92654 2.93946 3.404 2.87747 2.43464 3.73399 -0.212587 -0.00238183 -0.289597 0 0 0 0 0 0 0 0 0 
26.982 1 51 9.20035 4.22701 2.42367 10.4021 3.27968 -3.99114 0.150343 -0.527755 -0.454151 0 0 0 0 0 0 0 0 0 
26.982 1 210 9.45388 2.31765 4.55085 3.48007 2.67769 9.27695 -0.0226852 -0.203176 0.205453 0 0 0 0 0 0 0 0 0 
26.982 1 212 7.03236 2.2307 6.13523 3.0347 0.517597 3.36427 -0.0713931 0.0876496 -0.0943168 0 0 0 0 0 0 0 0 0 
26.982 1 253 11.3464 4.41882 4.28805 5.41174 -4.47833 -0.876826 0.212897 -0.194264 -0.0635227 0 0 0 0 0 0 0 0 0 
26.982 1 16 11.5469 2.46112 2.48585 3.39608 0.645235 -3.76734 -0.152117 -0.319154 -0.221389 0 0 0 0 0 0 0 0 0 
26.982 1 214 13.6999 2.23335 4.41008 7.27583 -0.246591 -1.1335 -0.367459 0.420894 -0.572985 0 0 0 0 0 0 0 0 0 
26.982 1 19 18.5986 1.00452 3.1353 -0.926463 -4.01904 -0.912249 -0.126803 0.165461 -0.322579 0 0 0 0 0 0 0 0 0 
26.982 1 55 14.1407 4.96666 3.47272 2.76013 2.28012 -2.10282 -0.103775 0.305273 -0.0173031 0 0 0 0 0 0 0 0 0 
26.982 1 20 16.1825 2.94802 3.3626 4.4599 5.74391 3.1549 0.41597 -0.0534795 -0.379971 0 0 0 0 0 0 0 0 0 
26.982 1 257 16.3347 5.02251 5.2725 2.97161 -3.39902 -0.131124 -0.185559 -0.00437043 0.0388213 0 0 0 0 0 0 0 0 0 
26.982 1 57 16.3046 5.15101 1.5619 3.60228 2.40136 -0.326804 0.0297707 -0.495406 -0.394008 0 0 0 0 0 0 0 0 0 
26.982 1 14 14.1333 3.20897 1.45486 4.71028 3.36318 -0.754091 0.00233013 -0.583381 0.439629 0 0 0 0 0 0 0 0 0 
26.982 1 819 18.0922 0.873484 18.2195 2.51411 -3.42936 -4.05012 0.25528 -0.00839843 0.402766 0 0 0 0 0 0 0 0 0 
26.982 1 218 18.3209 2.84046 5.10603 -3.76782 -13.4401 3.44721 0.132671 0.41381 0.120235 0 0 0 0 0 0 0 0 0 
26.982 1 59 18.4254 4.90405 3.31758 4.45971 3.60533 2.85107 0.256346 -0.179698 -0.223751 0 0 0 0 0 0 0 0 0 
26.982 1 24 20.8726 2.87803 2.97729 1.05828 -1.67283 -1.93505 -0.985474 -0.250355 -0.166743 0 0 0 0 0 0 0 0 0 
26.982 1 261 20.6898 4.82896 4.90597 -3.54106 0.635979 2.83436 0.196736 0.0746759 -0.208263 0 0 0 0 0 0 0 0 0 
26.982 1 1198 41.0905 17.9731 19.9888 -1.20488 -2.8757 1.88542 -0.0867933 -0.058668 -0.103834 0 0 0 0 0 0 0 0 0 
26.982 1 18 18.5518 2.9716 1.15624 3.69272 -0.47011 -2.12761 -0.10795 -0.0824161 0.209623 0 0 0 0 0 0 0 0 0 
26.982 1 63 22.8571 4.60625 2.84545 -5.22055 -4.7473 6.03547 0.235049 1.0093 0.413026 0 0 0 0 0 0 0 0 0 
26.982 1 222 22.5869 2.66616 4.99264 -0.692218 3.41061 2.72468 0.554398 0.242164 0.0714454 0 0 0 0 0 0 0 0 0 
26.982 1 28 24.7411 2.61511 2.97362 -0.316783 1.09917 2.6866 -0.0469721 0.136517 0.381711 0 0 0 0 0 0 0 0 0 
26.982 1 265 25.1056 4.45034 4.88607 -3.83093 8.1371 0.519992 -0.0692601 0.734663 -0.0545814 0 0 0 0 0 0 0 0 0 
26.982 1 1161 43.5056 15.9011 19.5185 2.41007 -6.2169 0.517493 0.0510466 -0.0969497 0.0520285 0 0 0 0 0 0 0 0 0 
26.982 1 34 36.3405 2.91571 1.18027 -0.810745 -4.07057 0.519004 -0.0641567 0.219734 0.353404 0 0 0 0 0 0 0 0 0 
26.982 1 67 27.2538 4.429 2.92092 -3.53395 2.1735 -7.8088 -0.175465 0.125337 0.331014 0 0 0 0 0 0 0 0 0 
26.982 1 226 27.1329 2.37116 4.91807 1.53841 -3.1106 -2.39965 0.0879656 0.439512 0.172952 0 0 0 0 0 0 0 0 0 
26.982 1 32 29.5642 2.92315 2.69015 -5.13124 2.57924 -5.34717 0.231889 0.28197 0.225204 0 0 0 0 0 0 0 0 0 
26.982 1 269 29.5184 4.35332 5.02767 2.47605 -2.20287 3.10299 -0.0541982 -0.218586 -0.348975 0 0 0 0 0 0 0 0 0 
26.982 1 2427 27.5341 19.915 10.8765 0.0946171 -1.96717 -0.948375 -0.259983 0.0199694 0.0662005 0 0 0 0 0 0 0 0 0 
26.982 1 71 31.9318 4.88498 2.88376 -2.06341 -2.8951 -1.95048 -0.112787 -0.704673 0.363882 0 0 0 0 0 0 0 0 0 
26.982 1 230 31.8314 2.60777 4.87796 3.16549 -3.96134 1.44906 -0.146603 0.359986 0.175689 0 0 0 0 0 0 0 0 0 
26.982 1 273 34.0148 4.69703 4.91991 -2.14263 0.944057 -1.65293 -0.722475 0.191217 -0.38942 0 0 0 0 0 0 0 0 0 
26.982 1 36 34.1611 2.67327 3.25954 -0.439517 -3.98737 -2.307 -0.0445941 0.231684 -0.673069 0 0 0 0 0 0 0 0 0 
26.982 1 833 33.4858 1.20568 16.0411 -0.449735 -2.19297 5.49566 0.185647 -0.0991671 -0.129487 0 0 0 0 0 0 0 0 0 
26.982 1 2823 23.4476 19.9737 18.2381 -3.95887 -4.04604 -0.330054 -0.157403 0.331688 0.73585 0 0 0 0 0 0 0 0 0 
26.982 1 75 36.1028 5.07761 2.97732 -4.34121 -2.93263 -2.93777 0.0550786 -0.568358 -0.149594 0 0 0 0 0 0 0 0 0 
26.982 1 234 36.4406 3.07419 5.02564 1.23429 4.03897 0.759251 -0.396944 0.22153 -0.127605 0 0 0 0 0 0 0 0 0 
26.982 1 40 38.4826 3.19634 2.98833 -0.744716 1.68952 -0.145424 0.0789743 -0.0751859 0.0982816 0 0 0 0 0 0 0 0 0 
26.982 1 277 38.9017 4.15741 6.00129 1.7403 2.9943 -1.51991 0.240175 0.188096 -0.418656 0 0 0 0 0 0 0 0 0 
26.982 1 182 23.0886 18.3524 1.01746 1.28433 -1.55058 2.36669 0.0952079 0.545514 0.48136 0 0 0 0 0 0 0 0 0 
26.982 1 35 36.4885 0.838994 3.07875 1.21218 0.238202 -0.553129 -0.171286 0.437738 0.205554 0 0 0 0 0 0 0 0 0 
26.982 1 237 38.3632 1.21793 5.02933 0.813351 0.150751 2.6836 1.00628 0.138889 -0.293593 0 0 0 0 0 0 0 0 0 
26.982 1 37 38.5835 1.00897 1.21118 -3.6175 4.47891 -1.55367 0.187445 0.559746 0.183306 0 0 0 0 0 0 0 0 0 
26.982 1 41 43.5036 5.12513 1.70352 -0.177216 1.91257 -0.746163 -0.0440125 -0.374284 0.10205 0 0 0 0 0 0 0 0 0 
26.982 1 4 43.5961 2.63784 3.76029 -0.0136318 -4.50758 1.56242 -0.0924997 0.0418856 -0.224167 0 0 0 0 0 0 0 0 0 
26.982 1 241 43.6646 5.37918 4.74275 1.15568 0.965336 0.569323 0.43799 0.010997 0.0478538 0 0 0 0 0 0 0 0 0 
26.982 1 79 41.2822 4.31945 3.67736 -5.50075 -2.08774 1.13663 -0.31121 0.196999 -0.321826 0 0 0 0 0 0 0 0 0 
26.982 1 238 41.4542 2.51793 5.61915 -0.0128365 8.73526 -3.34631 -0.319498 -0.418436 1.04309 0 0 0 0 0 0 0 0 0 
26.982 1 142 22.6199 14.5895 1.18233 -0.245108 3.47565 2.50239 -0.0771654 0.313862 0.501859 0 0 0 0 0 0 0 0 0 
26.982 1 39 40.8967 1.47048 3.31065 -3.77906 3.27514 4.14052 -0.450676 0.0945872 -0.654931 0 0 0 0 0 0 0 0 0 
26.982 1 38 40.6384 3.59266 1.09801 0.942824 2.54524 4.41259 0.00358283 -0.138064 0.27552 0 0 0 0 0 0 0 0 0 
26.982 1 83 -1.26462 9.28686 2.83349 -2.50078 1.24252 3.43607 0.131843 -0.10961 0.482698 0 0 0 0 0 0 0 0 0 
26.982 1 242 -0.177496 6.08369 5.53611 -1.85672 -4.16168 2.97141 -0.2151 -0.40014 -0.28764 0 0 0 0 0 0 0 0 0 
26.982 1 281 -2.16194 8.03482 5.31067 9.85185 -1.79223 -4.29999 -0.225533 0.282205 0.27092 0 0 0 0 0 0 0 0 0 
26.982 1 282 -1.80162 11.3307 4.79798 1.41918 -3.06566 1.49572 0.250592 -0.117954 0.0634162 0 0 0 0 0 0 0 0 0 
26.982 1 48 1.88338 6.19731 3.33121 8.87459 1.83194 0.632148 -0.244591 -0.0821583 -0.373758 0 0 0 0 0 0 0 0 0 
26.982 1 285 1.62255 8.15618 5.33008 -3.53226 2.90613 -7.96039 0.119271 0.578661 0.148572 0 0 0 0 0 0 0 0 0 
26.982 1 87 4.34163 7.22752 2.67062 -3.66885 8.53312 4.48717 -0.0528865 0.543863 0.167522 0 0 0 0 0 0 0 0 0 
26.982 1 246 4.21453 6.57265 5.53252 1.72118 -1.39297 -3.67279 0.642648 0.275496 -0.596001 0 0 0 0 0 0 0 0 0 
26.982 1 88 2.10486 9.07848 2.57188 2.44111 3.78042 2.29566 -0.259255 -0.308734 0.35162 0 0 0 0 0 0 0 0 0 
26.982 1 286 4.38343 9.42964 4.63783 4.68475 -2.04478 0.436108 -0.576922 0.129115 0.199643 0 0 0 0 0 0 0 0 0 
26.982 1 86 4.6367 10.0029 1.76781 -1.9872 -5.46847 0.338712 -0.0388362 0.12767 0.248146 0 0 0 0 0 0 0 0 0 
26.982 1 289 6.63271 7.9455 4.53257 -0.516011 -2.71248 3.43753 0.169505 -0.556552 0.335621 0 0 0 0 0 0 0 0 0 
26.982 1 52 6.7149 5.96492 2.53144 1.4713 -4.40284 0.66889 0.698734 -0.318941 -0.251922 0 0 0 0 0 0 0 0 0 
26.982 1 91 9.12896 8.93881 3.32835 -6.8515 -3.45656 2.75338 0.487022 -0.149659 0.0196981 0 0 0 0 0 0 0 0 0 
26.982 1 250 9.06224 6.34046 4.09022 5.25683 -2.59044 -5.43084 0.351614 0.0575867 1.05527 0 0 0 0 0 0 0 0 0 
26.982 1 89 7.14899 8.67965 1.63545 -2.87455 1.05734 4.65037 -0.561927 -0.539801 -0.34245 0 0 0 0 0 0 0 0 0 
26.982 1 50 9.39572 6.77175 1.55011 -0.697363 -1.00142 -0.325557 0.243267 0.729014 -0.157713 0 0 0 0 0 0 0 0 0 
26.982 1 293 11.4183 9.14809 5.05741 -1.45387 3.75595 -2.08218 0.111769 -0.229591 -0.322512 0 0 0 0 0 0 0 0 0 
26.982 1 56 11.9678 7.04336 3.32384 -3.23659 -3.33379 2.3003 -0.132602 0.0772397 -0.319291 0 0 0 0 0 0 0 0 0 
26.982 1 95 13.3889 9.36923 2.80952 -2.17267 -1.40217 -1.49675 0.233948 -0.110431 0.171472 0 0 0 0 0 0 0 0 0 
26.982 1 145 25.1952 12.3773 1.13431 -1.59167 2.57346 0.845958 -0.303 0.460458 -0.063309 0 0 0 0 0 0 0 0 0 
26.982 1 254 14.1454 7.21826 5.04542 -2.11016 -1.42273 -1.42922 -0.211391 -0.237122 -0.306898 0 0 0 0 0 0 0 0 0 
26.982 1 60 16.4321 7.06886 3.32077 -3.02934 -0.945336 -1.00553 0.00931606 0.223269 0.38006 0 0 0 0 0 0 0 0 0 
26.982 1 297 15.7212 9.52688 4.59452 3.8536 -0.765069 -2.804 -0.0291839 -0.186354 -0.254637 0 0 0 0 0 0 0 0 0 
26.982 1 2825 25.5286 20.0651 16.4854 0.463199 -1.17017 1.45454 -0.182959 -0.336586 0.177953 0 0 0 0 0 0 0 0 0 
26.982 1 97 16.405 9.17951 1.62294 -7.43342 -0.318255 -4.15716 -0.487763 -0.186398 0.0523809 0 0 0 0 0 0 0 0 0 
26.982 1 99 18.6054 9.23598 3.49764 -2.46983 -0.243211 -3.96379 -0.29526 -0.17623 -0.509379 0 0 0 0 0 0 0 0 0 
26.982 1 258 18.6777 7.0489 5.03947 -4.10357 4.64408 -0.459447 0.0303206 0.141214 0.15533 0 0 0 0 0 0 0 0 0 
26.982 1 64 20.9112 6.87943 3.2578 -4.81835 -0.0181741 -2.75918 -0.23516 -0.204216 -0.112116 0 0 0 0 0 0 0 0 0 
26.982 1 301 20.8297 8.99283 5.10567 -1.06577 2.79132 -1.2681 -0.25564 0.0348257 -0.418582 0 0 0 0 0 0 0 0 0 
26.982 1 103 22.862 8.76037 3.02869 -2.90077 3.41529 -0.836137 0.494426 -0.0930426 0.419541 0 0 0 0 0 0 0 0 0 
26.982 1 262 23.2213 6.82087 4.97631 7.02003 0.0703742 1.89697 -0.602882 -0.964741 -0.874623 0 0 0 0 0 0 0 0 0 
26.982 1 305 25.2261 8.57112 4.92202 -2.2965 -5.48901 -4.55205 0.178526 -0.0211896 -0.0258147 0 0 0 0 0 0 0 0 0 
26.982 1 68 25.1364 6.6861 2.85496 -1.77641 -1.33428 -2.03023 -0.226887 -0.695361 0.420883 0 0 0 0 0 0 0 0 0 
26.982 1 431 32.0492 1.74897 12.1091 0.997717 4.44228 -2.4889 -0.31718 -0.389804 -0.737689 0 0 0 0 0 0 0 0 0 
26.982 1 193 34.1269 16.2985 1.45818 -4.29458 5.20628 1.67951 0.0126712 0.384118 -0.668001 0 0 0 0 0 0 0 0 0 
26.982 1 107 27.376 8.40402 3.08723 -0.0179892 1.54938 3.04197 -0.0327702 0.481115 -0.76714 0 0 0 0 0 0 0 0 0 
26.982 1 266 27.3022 6.55733 4.8694 -2.58711 2.86226 -3.77155 -0.187192 -0.90754 0.386982 0 0 0 0 0 0 0 0 0 
26.982 1 72 29.4718 6.30085 2.99055 -2.2533 -0.0927129 -3.25094 -0.0994289 -0.186052 0.0442296 0 0 0 0 0 0 0 0 0 
26.982 1 309 29.4973 8.31242 4.91283 2.8002 0.416691 -3.29705 -0.0890782 -0.0705428 0.560542 0 0 0 0 0 0 0 0 0 
26.982 1 112 29.6027 10.2387 2.99183 2.35148 -3.05575 1.01585 -0.647558 -0.0148189 -0.078651 0 0 0 0 0 0 0 0 0 
26.982 1 66 27.2821 6.42576 0.948303 -5.40167 0.582437 -3.4639 -0.171138 -0.0185572 0.139555 0 0 0 0 0 0 0 0 0 
26.982 1 2031 32.1237 20.0792 3.12283 6.40758 -3.44479 -1.92104 -0.481936 0.0907549 -0.0474245 0 0 0 0 0 0 0 0 0 
26.982 1 3 -1.75004 0.64198 3.78939 1.30693 -4.88053 1.03273 0.0651125 0.254015 -0.0613014 0 0 0 0 0 0 0 0 0 
26.982 1 111 31.5696 8.21622 3.07194 -1.86111 -5.83792 -2.11036 0.249553 -0.42177 0.059187 0 0 0 0 0 0 0 0 0 
26.982 1 270 31.4703 6.29791 5.15569 -2.95731 0.700865 -3.74142 0.579016 0.212366 -0.00927314 0 0 0 0 0 0 0 0 0 
26.982 1 76 33.9915 6.80443 2.80995 1.30697 0.559855 2.20471 -0.0747033 0.00335813 0.202759 0 0 0 0 0 0 0 0 0 
26.982 1 313 34.0513 7.79671 5.42926 4.56682 -6.9329 -1.63878 -0.0426695 -0.160116 -0.167495 0 0 0 0 0 0 0 0 0 
26.982 1 116 33.9953 9.66667 3.39734 -0.393201 -0.110497 7.49986 0.103095 0.1231 0.00152087 0 0 0 0 0 0 0 0 0 
26.982 1 310 31.7305 9.90894 5.13742 3.67431 5.49128 -3.92519 0.055731 0.605619 -0.504633 0 0 0 0 0 0 0 0 0 
26.982 1 221 20.4533 0.969034 5.21043 -0.731735 1.02777 -1.56927 0.0068753 -0.0267512 -0.347542 0 0 0 0 0 0 0 0 0 
26.982 1 115 36.7 7.8391 3.52888 9.90972 -0.174055 -0.803088 -0.0359432 0.493267 0.50697 0 0 0 0 0 0 0 0 0 
26.982 1 274 36.2496 5.89697 5.61835 6.56602 1.60253 0.549067 0.832292 0.493638 0.154818 0 0 0 0 0 0 0 0 0 
26.982 1 80 38.6664 5.76393 3.87451 1.42396 -0.96906 -1.47186 0.40224 0.743165 0.0477603 0 0 0 0 0 0 0 0 0 
26.982 1 317 39.1852 8.69059 4.7543 -1.78237 3.33547 1.33849 -0.486977 -0.253876 0.216015 0 0 0 0 0 0 0 0 0 
26.982 1 117 38.6391 8.29525 1.39322 3.06197 -2.67636 2.08335 0.0944145 0.124339 -0.0647081 0 0 0 0 0 0 0 0 0 
26.982 1 314 36.5427 9.01623 6.16354 2.26601 -0.370249 0.103913 0.180345 -0.305751 -0.0160913 0 0 0 0 0 0 0 0 0 
26.982 1 421 20.3207 0.787705 8.56141 -1.26954 -4.17932 -0.485581 -0.106594 0.256147 -0.00258293 0 0 0 0 0 0 0 0 0 
26.982 1 114 36.3448 10.3778 1.42342 1.93165 -7.13944 1.8138 -0.0262128 -0.145043 0.174672 0 0 0 0 0 0 0 0 0 
26.982 1 78 41.1123 6.5589 1.59861 -0.883762 -0.924201 1.92395 -0.383976 -0.120324 0.0912926 0 0 0 0 0 0 0 0 0 
26.982 1 44 43.2811 7.8656 3.22345 -0.354834 -3.59944 3.88666 1.50174 0.122972 -0.386097 0 0 0 0 0 0 0 0 0 
26.982 1 119 41.0035 9.08431 2.70474 -3.96187 2.17365 -1.40173 -0.521893 0.23377 -0.169677 0 0 0 0 0 0 0 0 0 
26.982 1 278 41.3631 6.91025 4.49875 5.14899 0.396304 -6.94624 -1.06601 -0.306779 0.395766 0 0 0 0 0 0 0 0 0 
26.982 1 84 43.3722 11.0409 3.04084 2.35365 5.41513 -6.12617 -0.0646827 -0.0468236 0.130495 0 0 0 0 0 0 0 0 0 
26.982 1 318 41.1354 10.7948 4.76771 -2.085 3.68199 -1.77672 -0.170934 0.376257 -0.511921 0 0 0 0 0 0 0 0 0 
26.982 1 123 -1.38048 12.1027 2.00294 3.25468 -7.66138 -2.23742 0.0703855 0.48874 0.30703 0 0 0 0 0 0 0 0 0 
26.982 1 322 -1.33199 14.0588 3.87989 -3.67681 -2.44012 -4.11513 0.0915533 -0.361718 -0.506284 0 0 0 0 0 0 0 0 0 
26.982 1 122 -1.12343 14.9679 1.14058 0.559747 5.83832 4.94825 -0.0901821 -0.350387 0.750926 0 0 0 0 0 0 0 0 0 
26.982 1 361 43.6713 15.8119 4.18134 0.831437 0.414197 1.17378 -0.237711 0.154671 -0.162721 0 0 0 0 0 0 0 0 0 
26.982 1 325 0.689678 11.198 3.80446 1.00762 1.36265 -0.836803 -0.0662877 -0.0976656 0.495154 0 0 0 0 0 0 0 0 0 
26.982 1 128 1.82073 13.7909 3.65233 -6.85551 -1.56889 -3.09111 0.479226 0.247748 0.0710763 0 0 0 0 0 0 0 0 0 
26.982 1 127 4.56832 12.2864 3.38968 4.85548 -3.51404 0.395599 -0.0694856 0.0418519 0.24406 0 0 0 0 0 0 0 0 0 
26.982 1 326 4.45162 14.354 5.32094 -1.45243 -2.23333 12.0859 -0.407067 -0.103829 0.799301 0 0 0 0 0 0 0 0 0 
26.982 1 125 2.4272 11.8208 1.93693 7.19774 -4.56598 -2.99089 -0.0180903 -0.149393 -0.942562 0 0 0 0 0 0 0 0 0 
26.982 1 126 3.58183 14.1932 1.2686 0.884988 7.47368 -5.40162 0.400293 -0.0669109 0.579521 0 0 0 0 0 0 0 0 0 
26.982 1 129 6.18045 12.4336 1.16873 -0.652684 -4.58892 0.376183 -0.0695862 0.371849 0.336177 0 0 0 0 0 0 0 0 0 
26.982 1 290 9.05834 10.6892 5.28414 -3.64143 -3.17348 -0.415001 0.106461 1.45672 0.248607 0 0 0 0 0 0 0 0 0 
26.982 1 92 6.75988 10.444 3.6528 -6.22719 1.1591 -4.18055 0.168714 0.2883 -0.460967 0 0 0 0 0 0 0 0 0 
26.982 1 329 6.56093 12.4532 5.27598 2.03827 -7.86286 -0.534453 0.295944 0.667791 0.591095 0 0 0 0 0 0 0 0 0 
26.982 1 132 6.23758 14.5292 3.30895 1.02501 -2.4349 -4.34725 -0.0584517 -0.0929828 -0.599827 0 0 0 0 0 0 0 0 0 
26.982 1 131 8.49437 12.769 3.10083 0.308131 -3.88259 -6.10275 -0.218788 -0.491051 0.103871 0 0 0 0 0 0 0 0 0 
26.982 1 130 7.97696 14.6799 0.835893 -2.15351 3.36783 -0.86135 -0.586714 0.209537 0.648151 0 0 0 0 0 0 0 0 0 
26.982 1 90 8.63463 10.7909 1.17708 -1.11658 2.44548 3.05316 0.232917 0.401323 -0.259801 0 0 0 0 0 0 0 0 0 
26.982 1 294 13.207 11.3204 4.66247 1.08039 1.30757 -3.41348 0.167596 0.11619 0.27163 0 0 0 0 0 0 0 0 0 
26.982 1 96 10.9294 11.1769 3.06607 2.23593 3.52911 -1.45426 -0.120344 -0.0373428 -0.453501 0 0 0 0 0 0 0 0 0 
26.982 1 333 10.9678 13.1569 4.95956 4.99755 3.05443 -2.58807 -0.0539983 -0.611963 -0.00585936 0 0 0 0 0 0 0 0 0 
26.982 1 135 12.876 13.1159 2.47396 3.33715 -1.46466 3.70316 -0.733437 0.457262 0.68423 0 0 0 0 0 0 0 0 0 
26.982 1 100 15.1869 11.4521 2.49275 -2.30824 -1.09535 2.00043 0.164331 0.207512 -0.0288703 0 0 0 0 0 0 0 0 0 
26.982 1 337 14.9907 13.6216 4.43083 0.669658 2.70606 -3.63476 0.164794 -0.230875 -0.729295 0 0 0 0 0 0 0 0 0 
26.982 1 139 17.0748 13.6996 2.37465 -2.84435 0.417087 3.33613 -0.43696 0.256265 -0.329262 0 0 0 0 0 0 0 0 0 
26.982 1 298 17.5503 11.742 4.3764 4.93168 -4.86824 0.529458 -0.0325992 0.102532 -0.0379851 0 0 0 0 0 0 0 0 0 
26.982 1 2627 27.6393 20.0365 14.58 0.301414 -3.7964 7.22606 0.0223334 -0.711927 -0.0557777 0 0 0 0 0 0 0 0 0 
26.982 1 104 20.5749 11.2231 3.11328 -2.24457 -3.64966 -0.698444 -0.145391 -0.171263 -0.142838 0 0 0 0 0 0 0 0 0 
26.982 1 338 17.8315 14.4143 4.87014 -3.1898 -2.41327 1.10476 0.359433 -0.185675 0.851434 0 0 0 0 0 0 0 0 0 
26.982 1 341 20.6821 13.8658 3.73739 1.09695 -0.185462 -2.63613 -0.451377 0.232217 0.35536 0 0 0 0 0 0 0 0 0 
26.982 1 144 18.9475 15.8417 2.6895 0.0211002 2.62031 6.30712 0.114699 -0.383519 -0.24662 0 0 0 0 0 0 0 0 0 
26.982 1 302 22.8674 10.7229 4.86901 -1.33464 4.21014 -3.76409 0.23607 -0.107804 -0.307673 0 0 0 0 0 0 0 0 0 
26.982 1 108 25.1407 10.4079 2.99984 -5.90328 0.261449 3.96673 0.0116555 0.202764 0.181447 0 0 0 0 0 0 0 0 0 
26.982 1 143 22.8768 12.6568 2.90695 3.71116 3.63094 -0.0236413 0.75211 -0.456958 -0.216321 0 0 0 0 0 0 0 0 0 
26.982 1 342 23.2124 14.5318 5.07168 -0.883099 2.19032 7.16514 -0.400549 0.552166 -0.113709 0 0 0 0 0 0 0 0 0 
26.982 1 148 25.1136 14.4451 2.95171 -4.78436 -1.71131 -0.562449 0.308494 -0.279279 -0.302258 0 0 0 0 0 0 0 0 0 
26.982 1 345 24.9374 12.4332 4.85858 -3.88027 1.41504 5.72085 0.946523 -0.116968 -0.333276 0 0 0 0 0 0 0 0 0 
26.982 1 306 27.4727 10.3785 5.00346 0.0968831 -0.725535 -3.09597 -0.612959 -0.543386 0.103608 0 0 0 0 0 0 0 0 0 
26.982 1 147 27.439 12.1798 3.05057 -3.31488 2.52003 -1.36326 -0.376995 0.27768 -0.355485 0 0 0 0 0 0 0 0 0 
26.982 1 346 27.3414 14.1663 4.8458 -1.0907 -0.455029 -2.45479 0.145231 -0.00900184 0.363956 0 0 0 0 0 0 0 0 0 
26.982 1 152 29.3828 14.2357 3.04 -4.32995 -1.80239 1.54049 0.342489 -0.144641 0.391527 0 0 0 0 0 0 0 0 0 
26.982 1 349 29.4731 12.0312 4.99414 0.763444 0.700501 4.54855 0.55991 0.771158 0.332245 0 0 0 0 0 0 0 0 0 
26.982 1 2629 29.9455 19.9461 12.6801 4.29444 3.91413 0.376334 -0.333407 -0.0209277 0.451283 0 0 0 0 0 0 0 0 0 
26.982 1 27 27.1374 1.41632 2.42489 5.70582 -7.0444 -3.51792 0.591694 -0.680667 0.521167 0 0 0 0 0 0 0 0 0 
26.982 1 151 31.5599 12.1172 3.12332 1.56869 1.97271 4.45901 0.198586 0.623494 -0.0448667 0 0 0 0 0 0 0 0 0 
26.982 1 350 31.6933 14.3569 5.06983 -2.81659 -2.91137 0.535506 -0.311892 -0.794069 -0.449061 0 0 0 0 0 0 0 0 0 
26.982 1 156 33.6702 14.094 2.85822 -0.110554 -3.55369 -0.804575 -0.873238 -0.412859 -0.0258426 0 0 0 0 0 0 0 0 0 
26.982 1 353 33.6688 12.0049 4.7364 0.391461 -2.33216 -3.61621 0.132376 -0.133858 0.262182 0 0 0 0 0 0 0 0 0 
26.982 1 2215 13.5209 20.2073 7.1098 2.59138 -1.73853 -0.081688 0.0466084 -0.0866419 -0.37013 0 0 0 0 0 0 0 0 0 
26.982 1 2625 25.3005 19.9269 12.6205 -4.41563 -5.91493 0.825267 -0.0185406 0.0346504 -0.12874 0 0 0 0 0 0 0 0 0 
26.982 1 58 18.6205 6.91405 1.44235 -3.30434 1.49327 1.97334 -0.143518 0.555914 0.102402 0 0 0 0 0 0 0 0 0 
26.982 1 73 34.0088 4.52916 0.988943 -2.6655 2.3243 1.29503 0.475939 0.817958 0.794358 0 0 0 0 0 0 0 0 0 
26.982 1 120 38.804 10.83 2.70393 -0.906324 -0.121391 0.263227 0.233975 0.231075 0.417745 0 0 0 0 0 0 0 0 0 
26.982 1 155 36.4322 10.751 4.14552 3.5926 -1.32195 2.59579 0.0155762 0.2897 -0.218809 0 0 0 0 0 0 0 0 0 
26.982 1 354 35.7267 13.6999 4.46911 1.31763 2.92313 -0.338228 0.510667 0.136815 0.0180634 0 0 0 0 0 0 0 0 0 
26.982 1 160 38.3294 14.1028 3.48464 4.39182 1.4622 4.8917 -0.133869 0.125112 -0.390707 0 0 0 0 0 0 0 0 0 
26.982 1 357 38.6941 11.3134 5.81085 -3.34783 -0.278291 -0.0404587 -0.485306 -0.377945 -0.740791 0 0 0 0 0 0 0 0 0 
26.982 1 124 43.8374 13.9847 2.2709 -1.18114 -0.882587 -2.93403 -0.363654 -0.1493 -0.376182 0 0 0 0 0 0 0 0 0 
26.982 1 321 43.009 13.1944 4.83758 -3.29151 2.15478 1.04283 -0.183113 -0.543049 -0.221298 0 0 0 0 0 0 0 0 0 
26.982 1 159 40.9711 13.1516 2.65119 -1.26286 4.61182 -4.18992 0.102819 -0.344587 0.24836 0 0 0 0 0 0 0 0 0 
26.982 1 358 40.7344 14.8212 4.79764 0.508624 -3.17429 -1.95977 0.132682 -0.0564893 0.430456 0 0 0 0 0 0 0 0 0 
26.982 1 199 41.4607 15.8425 1.89879 -0.976318 2.74254 -2.80461 0.501613 0.20908 0.20135 0 0 0 0 0 0 0 0 0 
26.982 1 163 -0.957282 16.8931 3.25083 -2.20748 0.370948 6.4768 -0.214544 0.121435 0.256197 0 0 0 0 0 0 0 0 0 
26.982 1 362 -1.26854 18.8809 5.33846 -0.652326 1.87979 1.72031 0.514741 -0.260553 -0.243217 0 0 0 0 0 0 0 0 0 
26.982 1 2621 20.7637 19.8897 12.6421 2.47522 8.48902 2.83676 0.191824 -0.767288 0.184341 0 0 0 0 0 0 0 0 0 
26.982 1 2003 -1.24546 19.9947 2.70264 3.85769 -1.6407 9.01375 -0.0521383 -0.358307 0.289415 0 0 0 0 0 0 0 0 0 
26.982 1 2201 43.9436 20.2355 4.46094 2.1548 -0.14595 0.811208 -0.24826 -0.0381744 -0.0114691 0 0 0 0 0 0 0 0 0 
26.982 1 141 19.7596 13.3183 1.09519 2.13544 0.588441 -0.75042 0.581959 0.270778 0.0232337 0 0 0 0 0 0 0 0 0 
26.982 1 166 3.14971 18.2585 1.49584 2.81513 -6.25692 -4.06256 0.172333 -0.0997756 -0.366129 0 0 0 0 0 0 0 0 0 
26.982 1 165 1.29331 15.9805 1.8838 -0.604931 -3.4709 -2.91652 0.480513 0.229278 -0.00972971 0 0 0 0 0 0 0 0 0 
26.982 1 365 1.67788 16.0292 5.32052 4.14096 5.26208 5.47501 0.103355 -0.127558 0.133978 0 0 0 0 0 0 0 0 0 
26.982 1 168 1.46207 18.2883 3.72467 4.68398 -8.89292 -6.99456 -0.04844 0.0383625 -0.00163012 0 0 0 0 0 0 0 0 0 
26.982 1 167 3.81912 16.3842 3.64026 -2.97574 -2.07755 -2.42195 -0.314755 -0.036151 -0.331347 0 0 0 0 0 0 0 0 0 
26.982 1 366 3.79438 18.618 5.6924 -4.16632 3.9445 -6.68841 -0.07434 -1.07655 -0.463911 0 0 0 0 0 0 0 0 0 
26.982 1 229 29.6743 0.820947 4.5245 -0.0371939 -3.32972 -4.46806 0.412124 0.477214 -0.188761 0 0 0 0 0 0 0 0 0 
26.982 1 330 8.34645 14.7266 5.16521 1.58728 1.65901 -4.32919 0.0768222 0.117178 0.182716 0 0 0 0 0 0 0 0 0 
26.982 1 369 6.17803 16.7144 5.12178 -0.0243546 -2.51562 -0.511312 -0.312925 -0.281209 0.960171 0 0 0 0 0 0 0 0 0 
26.982 1 172 5.4982 18.6374 3.28551 -0.697741 -2.21712 3.23437 0.0584339 0.34665 -0.233632 0 0 0 0 0 0 0 0 0 
26.982 1 171 7.75984 16.8268 3.04634 -0.836196 3.5078 -3.41602 0.591006 -0.00253737 -0.42245 0 0 0 0 0 0 0 0 0 
26.982 1 370 7.92651 18.9339 5.22727 -0.90617 -1.925 -0.568813 -0.234459 -0.122128 -0.118845 0 0 0 0 0 0 0 0 0 
26.982 1 169 5.39636 16.3638 1.33396 0.593749 3.09857 -1.42193 0.215477 0.207486 -0.28415 0 0 0 0 0 0 0 0 0 
26.982 1 835 35.82 1.28662 17.6641 -0.00429109 -1.83482 -5.465 -0.86537 0.245331 0.960465 0 0 0 0 0 0 0 0 0 
26.982 1 136 10.0656 14.845 3.05238 -0.197641 -5.17551 -1.74913 0.725134 0.860847 -0.469245 0 0 0 0 0 0 0 0 0 
26.982 1 334 12.7614 15.501 4.48548 -3.53223 2.37298 1.01228 -0.272726 -0.821808 0.16208 0 0 0 0 0 0 0 0 0 
26.982 1 176 9.52395 19.1103 2.84288 -1.4141 3.77717 -0.797935 0.0944054 -0.0401164 0.0525029 0 0 0 0 0 0 0 0 0 
26.982 1 373 10.0969 17.2089 4.87545 -3.83506 -2.10547 -0.0595292 -0.0418506 -0.243405 0.11047 0 0 0 0 0 0 0 0 0 
26.982 1 175 11.875 17.3781 2.73454 -0.352778 3.8289 -5.50487 -0.097429 0.0114011 -0.30982 0 0 0 0 0 0 0 0 0 
26.982 1 374 11.7943 19.584 4.87068 -1.86845 -2.17618 -7.42217 0.114028 -0.254406 -0.117192 0 0 0 0 0 0 0 0 0 
26.982 1 140 14.3806 15.4511 2.09797 -1.66248 -5.11431 2.83158 -0.215573 0.450244 0.513463 0 0 0 0 0 0 0 0 0 
26.982 1 377 14.0515 17.8802 4.37951 -0.489701 -1.13015 -5.51297 0.622437 -0.230166 0.0995546 0 0 0 0 0 0 0 0 0 
26.982 1 179 16.538 16.4349 3.56494 -2.57651 1.15913 -0.0826692 -0.86518 0.137279 0.172702 0 0 0 0 0 0 0 0 0 
26.982 1 1 42.8481 1.81901 1.17539 -2.47877 -0.0912672 -2.96238 0.13357 -0.0707861 0.0313538 0 0 0 0 0 0 0 0 0 
26.982 1 178 16.0311 18.8777 1.65977 0.0760203 -4.436 -0.54589 -0.210651 -0.26156 0.405533 0 0 0 0 0 0 0 0 0 
26.982 1 378 18.3068 18.4875 3.83094 -0.311728 -1.8157 0.239991 0.129131 0.20677 -0.412897 0 0 0 0 0 0 0 0 0 
26.982 1 381 20.7766 16.3755 4.84659 -1.95469 2.69305 -0.477934 0.01255 -0.159213 -0.273504 0 0 0 0 0 0 0 0 0 
26.982 1 184 20.642 17.8104 2.35593 3.171 0.173287 -1.96461 0.455876 0.491262 0.0249238 0 0 0 0 0 0 0 0 0 
26.982 1 183 23.4239 16.5765 2.99575 0.670258 3.40314 4.53511 -0.822931 -0.76977 0.0477667 0 0 0 0 0 0 0 0 0 
26.982 1 382 22.5902 18.4926 4.48393 -4.93382 -0.346815 -9.47131 0.09146 0.277721 0.220627 0 0 0 0 0 0 0 0 0 
26.982 1 385 25.3825 16.2754 4.89859 0.730098 9.68886 3.01406 -0.143304 0.346781 0.807078 0 0 0 0 0 0 0 0 0 
26.982 1 188 25.4217 18.3604 2.9744 0.844561 -0.627694 -0.814234 -0.600967 0.179708 0.908288 0 0 0 0 0 0 0 0 0 
26.982 1 2225 25.1583 20.1831 4.97343 4.28324 2.61179 -2.99885 0.290244 -0.248205 0.0629209 0 0 0 0 0 0 0 0 0 
26.982 1 53 12.0349 5.23364 1.34395 5.13746 -2.39352 -5.46084 -0.515356 0.03489 0.237194 0 0 0 0 0 0 0 0 0 
26.982 1 33 34.2517 0.800563 1.22496 -1.25911 -3.08861 1.13029 0.160231 0.123376 0.0674365 0 0 0 0 0 0 0 0 0 
26.982 1 2229 29.7283 20.0334 5.10594 1.52819 1.17474 2.29459 0.58116 0.0311474 0.279043 0 0 0 0 0 0 0 0 0 
26.982 1 187 27.3592 16.36 3.04849 0.122783 -4.75617 -0.623182 0.398631 -0.282622 0.00685554 0 0 0 0 0 0 0 0 0 
26.982 1 386 27.5792 18.3092 5.1107 0.83875 -3.90029 0.690189 -0.55903 -0.869349 -0.144123 0 0 0 0 0 0 0 0 0 
26.982 1 192 29.7853 18.2451 3.1455 -0.207542 -3.71833 -2.11954 -0.0521534 -0.245239 -0.411968 0 0 0 0 0 0 0 0 0 
26.982 1 389 29.5781 16.1779 4.96123 2.70261 0.135176 -0.899079 -0.108084 -0.110124 0.307489 0 0 0 0 0 0 0 0 0 
26.982 1 2027 27.6611 20.1475 3.28542 -1.67557 1.74551 0.395617 -0.569265 0.595054 -0.235383 0 0 0 0 0 0 0 0 0 
26.982 1 154 35.9925 14.1426 1.60494 2.72004 -7.21833 2.05113 0.469631 0.135793 -0.107485 0 0 0 0 0 0 0 0 0 
26.982 1 2423 22.9277 19.9166 10.8323 -0.644722 5.60266 1.11729 0.346971 -0.392144 -0.562172 0 0 0 0 0 0 0 0 0 
26.982 1 3005 -0.132322 20.5089 19.1836 3.01803 -1.48044 -2.28577 -0.051112 -0.705567 0.635318 0 0 0 0 0 0 0 0 0 
26.982 1 191 31.8192 16.231 3.07477 3.81082 2.28199 0.449216 -0.401566 0.148611 -0.38645 0 0 0 0 0 0 0 0 0 
26.982 1 390 31.7188 17.9921 5.05283 2.53657 1.06116 -2.16398 0.335109 0.286629 0.0109011 0 0 0 0 0 0 0 0 0 
26.982 1 393 33.8726 15.9891 4.68007 7.41545 1.70051 2.0178 0.390855 0.242382 0.340748 0 0 0 0 0 0 0 0 0 
26.982 1 196 34.2239 18.3473 3.27326 -0.459521 -3.8941 -3.74241 0.117075 0.114979 0.205891 0 0 0 0 0 0 0 0 0 
26.982 1 190 31.9521 18.2128 1.00537 -4.19929 -4.45304 -1.15347 -0.0285027 0.30368 0.939571 0 0 0 0 0 0 0 0 0 
26.982 1 3001 43.1557 19.8811 19.7523 -0.423354 -1.80982 5.29057 -0.237475 0.582796 -0.495152 0 0 0 0 0 0 0 0 0 
26.982 1 195 36.4331 16.4846 3.14128 -1.46728 -4.70572 6.69977 0.369931 -0.196742 0.429278 0 0 0 0 0 0 0 0 0 
26.982 1 394 36.6742 18.6375 5.14042 2.73206 -2.3857 0.605382 -0.226038 -0.443371 0.0874406 0 0 0 0 0 0 0 0 0 
26.982 1 397 38.5598 16.5293 5.09 3.09106 -0.915802 6.43277 0.220218 -0.00568328 -0.304303 0 0 0 0 0 0 0 0 0 
26.982 1 200 38.8227 18.6806 2.76018 -7.77928 -3.06096 -4.23677 -0.258454 -0.345242 0.225242 0 0 0 0 0 0 0 0 0 
26.982 1 197 38.7977 16.356 1.28001 -3.52851 -5.33288 2.68194 -0.392906 0.1138 0.425672 0 0 0 0 0 0 0 0 0 
26.982 1 2801 42.9275 20.0314 15.5219 -4.29505 1.80718 4.14858 -0.0369832 0.0146053 0.164215 0 0 0 0 0 0 0 0 0 
26.982 1 198 41.0197 18.7002 1.06195 2.30349 2.20321 -4.51281 0.11719 0.117334 0.126033 0 0 0 0 0 0 0 0 0 
26.982 1 164 43.7086 18.04 2.41971 2.76239 -2.13854 0.192659 -0.282982 0.075784 0.288902 0 0 0 0 0 0 0 0 0 
26.982 1 398 41.2703 17.4156 3.9916 2.64129 1.40654 5.51581 -0.0571266 0.6912 0.404741 0 0 0 0 0 0 0 0 0 
26.982 1 2217 15.9115 20.0942 4.27481 4.43987 7.15766 0.65466 -0.319472 -0.0750941 -0.0818029 0 0 0 0 0 0 0 0 0 
26.982 1 153 34.0175 11.9302 1.34045 -5.38597 -3.78551 -0.609209 -0.254526 -0.144601 0.39425 0 0 0 0 0 0 0 0 0 
26.982 1 203 -1.30312 1.35324 6.57542 6.53424 4.11339 5.99754 0.257015 0.155106 0.099998 0 0 0 0 0 0 0 0 0 
26.982 1 243 0.336726 3.66187 7.04263 3.28202 -2.13541 5.12284 -0.0358466 0.0906476 -0.424443 0 0 0 0 0 0 0 0 0 
26.982 1 402 0.86275 1.5316 8.64303 -1.7102 -5.23578 -2.05516 -0.308628 -0.217451 0.503241 0 0 0 0 0 0 0 0 0 
26.982 1 443 0.652679 3.43997 10.832 -3.75272 -0.0822679 -6.52026 -0.0801855 -0.41763 -0.137172 0 0 0 0 0 0 0 0 0 
26.982 1 401 44.072 1.14918 8.7677 -0.96098 3.28185 -2.86355 -0.567033 0.319638 -0.0891205 0 0 0 0 0 0 0 0 0 
26.982 1 441 -1.7719 3.48951 9.18271 4.496 -1.24087 1.72883 -0.217509 -0.257853 0.0447823 0 0 0 0 0 0 0 0 0 
26.982 1 208 2.66722 1.57451 6.62765 0.786702 1.14305 3.5638 0.192483 0.906085 -0.611661 0 0 0 0 0 0 0 0 0 
26.982 1 445 2.69243 3.73698 8.84361 0.279727 0.0190996 -1.83809 -0.233154 0.179569 -0.303193 0 0 0 0 0 0 0 0 0 
26.982 1 247 4.72249 3.95749 6.52744 -3.20129 -1.66686 0.612489 -0.462775 -0.0834398 -0.597502 0 0 0 0 0 0 0 0 0 
26.982 1 406 4.83293 2.07005 8.42475 3.71558 -2.77993 3.66836 0.446882 -0.235707 0.0933454 0 0 0 0 0 0 0 0 0 
26.982 1 408 3.00685 1.84644 10.923 -1.13646 -0.290475 11.3131 -0.170938 -0.288218 -0.592469 0 0 0 0 0 0 0 0 0 
26.982 1 447 5.07245 3.98131 10.4446 -0.744141 -0.00505855 -0.494144 -0.334418 0.288616 -0.19911 0 0 0 0 0 0 0 0 0 