ITEM: TIMESTEP
14800
ITEM: NUMBER OF ATOMS
4000
ITEM: BOX BOUNDS pp pp pp
-3.08218 43.5822
0.785317 39.7147
0.836431 39.6636
ITEM: ATOMS mass type id x y z vx vy vz fx fy fz xrad yrad zrad vxrad vyrad vzrad fxrad fyrad fzrad 
26.982 1 43 -1.01255 4.3423 2.90581 -3.72649 1.3491 0.356848 0.644349 1.13307 -0.150165 0 0 0 0 0 0 0 0 0 
26.982 1 202 -0.993178 2.64426 4.90276 1.38056 1.74955 4.66821 0.167643 0.0405256 0.570989 0 0 0 0 0 0 0 0 0 
26.982 1 245 1.39197 4.44691 4.78201 -3.87374 3.07075 -3.28237 0.16436 0.0233416 0.117542 0 0 0 0 0 0 0 0 0 
26.982 1 8 1.48961 2.73568 2.73392 -4.37675 2.50691 -5.3264 0.00665641 -0.0600877 0.0311304 0 0 0 0 0 0 0 0 0 
26.982 1 47 3.93249 4.41364 2.99451 -1.1365 7.56608 1.09194 -0.15428 0.0706781 -0.108683 0 0 0 0 0 0 0 0 0 
26.982 1 206 3.9641 2.35129 4.95292 2.41941 1.27384 -2.28782 -0.322984 0.0983941 -0.00118542 0 0 0 0 0 0 0 0 0 
26.982 1 807 4.19873 0.83397 18.4475 0.359759 -0.614233 1.68748 -0.00414 0.40706 -0.167114 0 0 0 0 0 0 0 0 0 
26.982 1 249 6.18625 4.79882 4.77975 2.40149 -0.242418 1.65348 0.0444546 0.0650489 -0.455793 0 0 0 0 0 0 0 0 0 
26.982 1 12 6.19093 2.5144 3.06171 0.0833944 3.134 -1.04243 0.372603 0.254835 0.0284877 0 0 0 0 0 0 0 0 0 
26.982 1 51 8.70867 4.59638 2.59668 -2.10693 2.2178 -2.9946 -0.690819 0.753987 0.699218 0 0 0 0 0 0 0 0 0 
26.982 1 210 8.82585 2.62154 4.57092 -1.60581 -0.621187 -1.30408 -0.664545 0.413083 0.082124 0 0 0 0 0 0 0 0 0 
26.982 1 2839 41.0974 20.2487 18.3431 -2.21122 7.9243 -2.78553 0.0875368 0.427776 0.00697558 0 0 0 0 0 0 0 0 0 
26.982 1 253 10.5794 4.80397 4.66595 -0.644237 -2.90413 0.892779 0.565618 0.340471 -0.00956915 0 0 0 0 0 0 0 0 0 
26.982 1 16 11.0767 2.83742 2.85702 -3.51742 1.68119 2.66352 0.262883 -0.547103 -0.0607889 0 0 0 0 0 0 0 0 0 
26.982 1 55 13.2533 4.70188 2.84105 4.49809 3.08157 -1.04714 -0.132811 0.104151 -0.0806389 0 0 0 0 0 0 0 0 0 
26.982 1 214 13.3071 2.74824 4.74518 1.82422 2.21967 -2.02122 0.040708 -0.659428 -0.795414 0 0 0 0 0 0 0 0 0 
26.982 1 20 15.4151 2.7648 2.44133 -0.0547784 0.697534 2.88361 0.275249 0.690056 0.784023 0 0 0 0 0 0 0 0 0 
26.982 1 257 15.6372 4.59836 4.61024 0.481464 -0.28128 1.84616 -0.0517389 -0.0732593 0.0195582 0 0 0 0 0 0 0 0 0 
26.982 1 218 17.8287 2.60838 4.58325 4.7203 6.8168 -0.334668 0.356471 0.423674 -0.311003 0 0 0 0 0 0 0 0 0 
26.982 1 59 17.8034 4.83018 2.62198 1.14277 2.46276 1.40226 0.055851 -0.321091 0.162283 0 0 0 0 0 0 0 0 0 
26.982 1 801 -3.20569 0.929781 16.3764 -0.803889 -2.24394 -0.25293 0.273022 -0.129863 0.147924 0 0 0 0 0 0 0 0 0 
26.982 1 24 20.1663 2.64337 2.74021 -1.17903 -5.88087 -0.533096 0.00458125 0.528805 0.294209 0 0 0 0 0 0 0 0 0 
26.982 1 261 20.2198 4.75625 4.6119 4.66056 -0.00890184 1.71443 -0.280033 -0.499475 0.290666 0 0 0 0 0 0 0 0 0 
26.982 1 221 20.2529 0.555337 4.38362 -3.93494 -1.86667 -2.84159 0.0559877 -0.00435885 0.428948 0 0 0 0 0 0 0 0 0 
26.982 1 145 24.9137 12.281 0.800694 -0.715597 -1.04949 1.76783 0.0309119 0.0361823 0.232025 0 0 0 0 0 0 0 0 0 
26.982 1 63 22.4968 4.64829 2.86858 -4.96806 -2.87807 -4.57929 -0.00261893 0.217723 -1.2836 0 0 0 0 0 0 0 0 0 
26.982 1 222 22.6171 2.93847 4.65582 3.18688 -0.115197 0.0110112 -0.129101 -0.887769 0.464094 0 0 0 0 0 0 0 0 0 
26.982 1 28 25.0927 2.51543 2.75346 3.13882 -2.60866 3.28137 -0.416519 0.0072858 -0.0609214 0 0 0 0 0 0 0 0 0 
26.982 1 265 24.7834 4.61814 4.66322 -0.00554228 -3.48044 3.12584 0.367102 0.191949 -0.117214 0 0 0 0 0 0 0 0 0 
26.982 1 999 41.2616 16.2941 18.1419 -1.85746 -3.1113 0.30176 -0.242743 0.280782 -0.273537 0 0 0 0 0 0 0 0 0 
26.982 1 7 3.73294 0.991216 2.70375 -1.5937 -0.266259 -3.39612 -0.0947211 -0.0547792 -0.0757409 0 0 0 0 0 0 0 0 0 
26.982 1 19 17.6879 0.500283 2.62905 -3.95069 -3.35302 2.78113 0.430294 0.325435 -0.0383539 0 0 0 0 0 0 0 0 0 
26.982 1 67 26.971 4.63297 2.69142 -0.621689 -4.38247 -1.11426 0.195625 -0.277633 0.161158 0 0 0 0 0 0 0 0 0 
26.982 1 226 27.0943 2.69546 4.83432 2.39386 3.06502 1.12841 -0.127102 0.199091 -0.397723 0 0 0 0 0 0 0 0 0 
26.982 1 32 29.4715 2.54941 2.9136 -4.0151 1.5583 -1.27234 0.296723 0.198212 -0.519053 0 0 0 0 0 0 0 0 0 
26.982 1 269 29.5493 4.52805 4.58243 -3.40201 1.67276 -0.956828 0.06689 0.576533 0.304991 0 0 0 0 0 0 0 0 0 
26.982 1 225 24.8592 0.80201 4.78128 -4.60168 -3.3163 -7.65836 0.0405326 0.0359326 0.246967 0 0 0 0 0 0 0 0 0 
26.982 1 237 38.8411 0.776901 5.20001 -0.0331609 2.23336 -3.52655 0.525544 -0.139475 -0.827416 0 0 0 0 0 0 0 0 0 
26.982 1 26 27.1657 2.47074 0.878256 -1.21909 0.821244 2.77503 0.447704 0.30154 -0.367319 0 0 0 0 0 0 0 0 0 
26.982 1 130 8.24728 14.5015 0.765079 -3.37775 0.975904 3.43536 0.42799 -0.266264 -0.10324 0 0 0 0 0 0 0 0 0 
26.982 1 233 34.1128 0.727985 4.92597 1.12763 2.03244 -0.364149 0.101435 0.061687 0.0318756 0 0 0 0 0 0 0 0 0 
26.982 1 71 32.0067 4.58631 2.65287 5.28163 -2.79784 -1.24572 -0.421638 -0.347717 -0.244382 0 0 0 0 0 0 0 0 0 
26.982 1 230 31.8794 2.72231 4.87729 1.84318 -1.83236 1.31694 -0.411208 -0.0542168 -0.200503 0 0 0 0 0 0 0 0 0 
26.982 1 273 34.1453 4.48327 4.45854 1.42208 1.31577 -0.973666 0.457348 0.432182 0.323869 0 0 0 0 0 0 0 0 0 
26.982 1 36 34.0934 2.42419 2.88333 4.69331 -0.96942 3.40306 0.579099 -0.0281022 -0.694839 0 0 0 0 0 0 0 0 0 
26.982 1 31 32.0166 0.713973 2.81575 0.512974 2.48739 1.93431 -0.469243 -0.26347 -0.272082 0 0 0 0 0 0 0 0 0 
26.982 1 39 41.3205 0.8511 2.97188 1.39599 6.00296 2.46091 0.130121 0.109222 0.1977 0 0 0 0 0 0 0 0 0 
26.982 1 35 36.8557 0.773081 2.96325 -4.16964 -1.52362 3.37003 -0.170017 -0.287001 -0.147531 0 0 0 0 0 0 0 0 0 
26.982 1 75 36.8287 4.79557 2.90735 -0.0446453 4.03156 -1.43294 -0.584337 -0.362277 -0.544072 0 0 0 0 0 0 0 0 0 
26.982 1 234 36.7487 2.8412 4.75472 -1.95741 -5.06456 -2.27273 -0.274319 -0.165487 -0.162538 0 0 0 0 0 0 0 0 0 
26.982 1 40 39.221 2.63107 3.10342 0.0542181 -6.92422 2.10308 -0.329674 -0.083557 -0.292057 0 0 0 0 0 0 0 0 0 
26.982 1 277 38.9074 4.87998 4.70518 3.71876 -0.0682467 -3.12685 0.162651 -0.131832 0.270137 0 0 0 0 0 0 0 0 0 
26.982 1 998 40.9019 18.4364 16.4299 -3.85834 -5.58693 2.43431 0.0757649 -0.23488 0.19809 0 0 0 0 0 0 0 0 0 
26.982 1 2807 3.68807 20.5702 18.406 -3.32336 1.4889 0.839146 0.279962 -0.336401 0.332931 0 0 0 0 0 0 0 0 0 
26.982 1 4 43.5153 2.87568 3.1285 -0.483583 -1.78426 -2.648 -0.409834 -0.742231 -0.377678 0 0 0 0 0 0 0 0 0 
26.982 1 241 -3.23835 4.91741 4.83759 -5.28732 -1.56876 -1.64037 -0.0340588 -0.00589322 0.4972 0 0 0 0 0 0 0 0 0 
26.982 1 79 41.2091 4.6241 2.9533 1.78935 -2.98422 3.43541 -0.0122558 0.209331 -0.153064 0 0 0 0 0 0 0 0 0 
26.982 1 238 41.4002 2.79228 5.13064 0.188118 3.62282 3.70381 -0.172943 -0.649201 -0.623247 0 0 0 0 0 0 0 0 0 
26.982 1 995 36.4985 16.3441 18.3066 -1.28348 1.4146 -1.54952 0.130495 0.115271 0.0783977 0 0 0 0 0 0 0 0 0 
26.982 1 83 -1.0689 8.68724 2.75749 3.16325 -5.89877 2.29266 0.36747 0.0127077 -0.102015 0 0 0 0 0 0 0 0 0 
26.982 1 242 -0.790857 6.59153 4.47566 -2.99245 -2.27349 -5.10792 -0.176756 -0.139771 0.0107437 0 0 0 0 0 0 0 0 0 
26.982 1 44 43.3555 6.59107 2.81426 -4.77607 3.20001 2.48639 0.00338404 0.347565 -0.563307 0 0 0 0 0 0 0 0 0 
26.982 1 281 -3.07461 8.54288 4.74533 -0.1153 -3.90216 1.51266 -0.478012 -0.459345 0.00175658 0 0 0 0 0 0 0 0 0 
26.982 1 48 1.3044 6.49924 2.68009 2.76943 -1.97624 3.62179 0.199391 0.152029 0.360645 0 0 0 0 0 0 0 0 0 
26.982 1 285 1.48005 8.36048 4.69841 -1.14891 4.32576 -3.47533 -0.0113579 0.511485 -0.241409 0 0 0 0 0 0 0 0 0 
26.982 1 87 3.90055 8.50328 2.66539 3.60088 -3.08671 -0.0731573 -0.300607 -0.0285977 0.124228 0 0 0 0 0 0 0 0 0 
26.982 1 246 3.6178 6.59016 4.59962 1.89676 2.48642 -0.844818 0.14017 -0.249362 0.233956 0 0 0 0 0 0 0 0 0 
26.982 1 88 1.47421 10.3925 2.82494 4.57788 -1.08694 2.49108 -0.00138576 -0.154377 0.0662149 0 0 0 0 0 0 0 0 0 
26.982 1 126 3.74169 14.3703 0.723772 1.07272 -3.80447 8.43542 0.216427 -0.373614 0.579408 0 0 0 0 0 0 0 0 0 
26.982 1 289 5.91678 8.28377 4.767 3.21816 -4.38873 -0.363964 0.123812 0.263281 0.26917 0 0 0 0 0 0 0 0 0 
26.982 1 52 6.08973 6.48702 2.61069 3.59422 -3.65457 0.0684177 0.0189164 -0.0757922 0.101345 0 0 0 0 0 0 0 0 0 
26.982 1 91 8.23596 8.63541 3.16037 0.498888 3.3251 2.49938 0.0346293 -0.0672591 -0.762505 0 0 0 0 0 0 0 0 0 
26.982 1 250 8.37841 6.56516 4.79816 4.38429 1.34392 -0.766777 0.0195643 -0.262995 -0.260394 0 0 0 0 0 0 0 0 0 
26.982 1 92 6.02091 10.4641 2.85483 1.57275 3.06311 -1.68358 0.136263 0.298793 0.178404 0 0 0 0 0 0 0 0 0 
26.982 1 290 8.3364 10.6561 4.92923 4.55699 1.44379 4.86349 -0.0522776 0.31307 -0.114707 0 0 0 0 0 0 0 0 0 
26.982 1 2225 24.8146 20.19 4.88983 0.360437 0.234331 1.78847 -0.141593 -0.0892001 -0.321795 0 0 0 0 0 0 0 0 0 
26.982 1 293 10.7184 8.6787 4.67415 6.89736 -0.544859 -4.01315 -0.0241205 -0.182494 -0.0362464 0 0 0 0 0 0 0 0 0 
26.982 1 56 10.5085 6.86435 2.55424 -0.119661 1.49318 1.71966 0.295995 0.0676265 0.304708 0 0 0 0 0 0 0 0 0 
26.982 1 95 12.9873 8.77572 2.70326 1.16467 2.69813 -0.152659 -0.0123908 0.155721 -0.19794 0 0 0 0 0 0 0 0 0 
26.982 1 254 13.0649 6.84826 4.6233 -0.611607 0.888945 1.71642 -0.170021 -0.634461 -0.254375 0 0 0 0 0 0 0 0 0 
26.982 1 425 24.81 0.633063 8.53994 1.84621 -3.32844 -1.19285 0.103876 0.191751 0.136279 0 0 0 0 0 0 0 0 0 
26.982 1 2609 6.04488 20.5254 12.9859 1.43907 3.53207 -3.66676 0.257353 -0.0860102 -0.371908 0 0 0 0 0 0 0 0 0 
26.982 1 60 15.4964 6.61786 2.7921 -4.67902 -1.58884 0.219174 -0.14079 -0.275106 -0.489242 0 0 0 0 0 0 0 0 0 
26.982 1 297 15.3859 8.40394 4.62428 -2.1216 7.25944 0.418971 0.18406 0.367841 0.541311 0 0 0 0 0 0 0 0 0 
26.982 1 99 17.7581 8.43831 2.72607 -0.233016 0.0224211 -2.37974 0.00987295 0.508456 0.770613 0 0 0 0 0 0 0 0 0 
26.982 1 100 15.4705 10.5174 2.99461 -0.589097 1.82532 3.1431 -0.0455971 0.036596 -0.600354 0 0 0 0 0 0 0 0 0 
26.982 1 97 15.3216 8.65423 0.880356 3.38477 0.712734 -0.844333 0.0658828 0.25326 0.0979223 0 0 0 0 0 0 0 0 0 
26.982 1 239 41.2137 0.671612 6.89164 -1.59614 -0.253157 -3.33185 0.044056 0.266147 -0.175843 0 0 0 0 0 0 0 0 0 
26.982 1 258 17.8743 6.64514 4.70369 -5.42943 -2.93081 -1.62473 -0.139332 -0.385468 -0.0410705 0 0 0 0 0 0 0 0 0 
26.982 1 64 20.1187 6.56817 2.70266 2.48964 4.98032 -3.95879 -0.119294 0.0846232 -0.412492 0 0 0 0 0 0 0 0 0 
26.982 1 301 20.0923 8.50766 4.54281 -6.40343 4.60461 3.1023 -0.138536 -0.0944498 0.767414 0 0 0 0 0 0 0 0 0 
26.982 1 103 22.5941 8.86606 2.80306 -2.41079 -0.570819 -0.815728 0.146399 0.10972 0.236921 0 0 0 0 0 0 0 0 0 
26.982 1 262 22.3151 6.70322 4.52621 -5.79265 -2.76713 3.19895 0.434803 -0.384821 -0.317719 0 0 0 0 0 0 0 0 0 
26.982 1 305 25.0087 8.67158 4.6121 -1.18114 0.924594 -4.77479 -0.42596 -0.511619 0.149154 0 0 0 0 0 0 0 0 0 
26.982 1 68 24.8018 6.65165 2.68041 1.6884 5.80766 4.36147 0.234038 -0.337581 0.322831 0 0 0 0 0 0 0 0 0 
26.982 1 302 22.5205 10.6803 4.78096 -1.69345 -2.92343 -8.05226 0.159111 -0.50873 0.310345 0 0 0 0 0 0 0 0 0 
26.982 1 231 31.6901 0.644721 6.69924 -0.759341 -4.3852 -5.80278 0.175499 0.142918 0.199312 0 0 0 0 0 0 0 0 0 
26.982 1 107 27.0791 8.49186 2.82288 4.30107 3.51007 -3.86654 0.33022 0.237063 -0.363653 0 0 0 0 0 0 0 0 0 
26.982 1 266 27.3354 6.54804 4.56187 1.92187 -2.46577 -4.13332 -0.209964 -0.410045 0.635215 0 0 0 0 0 0 0 0 0 
26.982 1 72 29.4403 6.45225 2.70132 -3.0697 -5.74109 3.85473 0.364983 0.325328 0.262041 0 0 0 0 0 0 0 0 0 
26.982 1 309 29.6235 8.40117 4.65138 -2.61619 0.45803 2.5871 0.0139949 0.0753329 -0.344115 0 0 0 0 0 0 0 0 0 
26.982 1 111 31.9225 8.64878 2.77685 3.43055 5.03377 1.29122 -0.235565 -0.0160328 -0.223471 0 0 0 0 0 0 0 0 0 
26.982 1 270 32.0154 6.49764 4.44352 -0.425663 2.82201 2.44014 -0.206729 0.162075 0.32709 0 0 0 0 0 0 0 0 0 
26.982 1 76 34.5054 6.6631 2.80206 5.48797 1.00551 7.23334 -0.298953 -0.589614 -0.395671 0 0 0 0 0 0 0 0 0 
26.982 1 313 34.1439 8.60058 4.56911 -2.10157 -2.92746 -4.04983 0.219667 0.159991 0.520502 0 0 0 0 0 0 0 0 0 
26.982 1 310 31.9945 10.4655 4.79646 6.05509 -6.88902 2.9563 -0.160211 0.0651428 0.000668189 0 0 0 0 0 0 0 0 0 
26.982 1 223 22.5868 0.934854 6.51307 -1.66872 -4.06606 3.47227 -0.143224 -0.675239 -0.0029386 0 0 0 0 0 0 0 0 0 
26.982 1 116 34.1543 10.6077 2.73739 2.18987 1.50656 0.106989 0.128877 -0.270381 -0.208259 0 0 0 0 0 0 0 0 0 
26.982 1 86 3.79994 10.4821 0.803367 2.77256 -9.04938 -1.44091 -0.0112119 0.211986 -0.0265372 0 0 0 0 0 0 0 0 0 
26.982 1 114 36.799 10.4452 0.899767 0.463289 4.66532 1.00366 -0.697379 0.300717 -0.516312 0 0 0 0 0 0 0 0 0 
26.982 1 115 36.5671 8.56317 2.6831 -0.245696 3.58059 3.49646 -0.0096345 -0.546835 -0.141635 0 0 0 0 0 0 0 0 0 
26.982 1 274 36.5857 6.72546 4.66645 -6.21933 4.05319 2.00782 0.00127079 0.221151 0.489695 0 0 0 0 0 0 0 0 0 
26.982 1 80 38.9418 6.61976 2.67227 -3.39909 2.50877 -3.13851 0.0358238 0.0246212 -0.07317 0 0 0 0 0 0 0 0 0 
26.982 1 317 38.7419 8.62817 4.59056 -1.30366 -0.756993 -2.20576 -0.00403249 -0.058416 0.287791 0 0 0 0 0 0 0 0 0 
26.982 1 120 38.9085 10.5265 2.65489 -1.29787 -3.69048 -2.59579 -0.0609737 0.00602386 0.358114 0 0 0 0 0 0 0 0 0 
26.982 1 314 36.5135 10.4803 4.44529 -0.283854 -5.00832 0.579677 0.225885 0.305261 0.547557 0 0 0 0 0 0 0 0 0 
26.982 1 117 38.7684 8.51114 0.774418 -1.6611 -0.0256372 -7.61754 0.185011 -0.184368 -0.275904 0 0 0 0 0 0 0 0 0 
26.982 1 81 -3.33392 8.79901 0.819577 3.61767 0.140737 4.65608 0.0159689 -0.231916 0.0148956 0 0 0 0 0 0 0 0 0 
26.982 1 119 40.9149 8.69098 2.56063 -0.645024 -0.721478 1.99165 0.650233 -0.591208 -0.0124967 0 0 0 0 0 0 0 0 0 
26.982 1 278 41.133 6.9117 4.80926 -2.9836 -1.44316 4.31952 0.0749602 -0.0672201 -0.224548 0 0 0 0 0 0 0 0 0 
26.982 1 318 41.0583 10.2212 4.73729 2.49233 -4.64408 2.60127 0.200732 0.322946 -0.229538 0 0 0 0 0 0 0 0 0 
26.982 1 118 41.0753 10.7605 0.80811 6.48834 0.0787996 3.46796 0.375936 -0.403465 -0.307683 0 0 0 0 0 0 0 0 0 
26.982 1 433 34.1633 0.745373 8.37954 -2.35866 1.93542 -3.32376 -0.145132 0.156159 0.352812 0 0 0 0 0 0 0 0 0 
26.982 1 282 -0.902057 10.6207 4.79428 0.725368 -0.289412 -2.56195 0.273585 0.0121852 -0.214677 0 0 0 0 0 0 0 0 0 
26.982 1 123 -0.715797 12.3929 2.77228 -2.99986 -1.333 -0.950258 -0.11269 -0.772116 -0.388107 0 0 0 0 0 0 0 0 0 
26.982 1 322 -0.713175 14.2121 4.58073 -0.469095 -3.8835 1.8179 0.0637103 0.290009 0.721907 0 0 0 0 0 0 0 0 0 
26.982 1 84 -3.21747 10.5509 2.95588 1.41322 1.84541 -4.52419 -0.105913 0.0964828 -0.564282 0 0 0 0 0 0 0 0 0 
26.982 1 321 -3.11944 12.4906 4.73387 -3.56484 4.72531 -1.5141 -0.00975854 0.246301 -0.0118992 0 0 0 0 0 0 0 0 0 
26.982 1 124 43.8461 14.2378 2.7068 -2.31926 1.01208 -1.65405 -0.557685 0.336576 0.082436 0 0 0 0 0 0 0 0 0 
26.982 1 286 3.88497 10.3719 4.74001 -5.83083 1.20345 0.173323 -0.225389 -0.125265 0.231318 0 0 0 0 0 0 0 0 0 
26.982 1 325 1.43503 12.3598 4.68891 3.25197 0.0325671 0.972554 0.157527 0.0853788 0.269317 0 0 0 0 0 0 0 0 0 
26.982 1 128 1.48523 14.3306 2.57306 -4.14976 -3.79675 2.342 0.0787849 0.00131754 0.534499 0 0 0 0 0 0 0 0 0 
26.982 1 127 3.66518 12.3255 2.91359 -0.155522 -3.63957 -7.83354 0.138841 0.209913 -0.610696 0 0 0 0 0 0 0 0 0 
26.982 1 326 3.75744 14.2717 4.76199 0.869517 1.38285 -0.68349 0.112909 0.150536 0.16723 0 0 0 0 0 0 0 0 0 
26.982 1 121 43.4901 12.4369 0.733484 -0.982155 2.76535 -0.535383 0.176263 -0.313223 -0.288645 0 0 0 0 0 0 0 0 0 
26.982 1 329 6.01189 12.5193 4.76904 -0.132315 2.09911 -1.45217 0.236063 -0.161739 0.0605704 0 0 0 0 0 0 0 0 0 
26.982 1 132 6.10417 14.4847 2.7593 3.97403 -0.386372 -0.403805 -0.276889 0.109048 -0.0651358 0 0 0 0 0 0 0 0 0 
26.982 1 131 8.40242 12.6545 2.73982 -1.37201 5.77288 -3.72682 -0.187142 -0.403184 0.215355 0 0 0 0 0 0 0 0 0 
26.982 1 330 8.64119 14.3396 4.80292 -1.56019 -0.257506 3.05116 -0.256165 -0.0269991 0.124145 0 0 0 0 0 0 0 0 0 
26.982 1 129 5.93307 12.5522 0.947594 -3.8499 1.64458 -5.05151 0.0802583 -0.445656 -0.406718 0 0 0 0 0 0 0 0 0 
26.982 1 133 10.5838 12.5307 0.873386 1.26295 2.19064 -3.80816 0.0357012 -0.531372 0.131308 0 0 0 0 0 0 0 0 0 
26.982 1 294 13.1611 10.3723 4.89155 0.307199 -4.03691 0.593477 0.0602863 -0.0705596 -0.137353 0 0 0 0 0 0 0 0 0 
26.982 1 96 10.5579 10.5537 2.75596 -0.317625 3.01062 4.51868 0.0762404 -0.265116 -0.284803 0 0 0 0 0 0 0 0 0 
26.982 1 333 10.6429 12.2605 4.8025 -2.19203 -5.19848 -6.06076 0.315399 1.09283 -0.386564 0 0 0 0 0 0 0 0 0 
26.982 1 136 10.774 14.4465 2.67344 1.33557 -1.08988 2.40051 -0.050064 -0.109822 0.244024 0 0 0 0 0 0 0 0 0 
26.982 1 135 13.0456 12.2486 2.98201 -1.68939 1.38243 1.1118 -0.0364482 0.0611745 -0.114844 0 0 0 0 0 0 0 0 0 
26.982 1 334 13.0988 14.4412 4.58142 1.39003 5.51476 -1.01707 -0.0080577 -0.226545 0.230003 0 0 0 0 0 0 0 0 0 
26.982 1 140 15.5417 14.2687 2.92799 1.96848 4.7594 7.31473 0.0466095 -0.0875657 -0.239108 0 0 0 0 0 0 0 0 0 
26.982 1 337 15.5244 12.3936 4.8769 -0.31088 -5.76501 2.73337 -0.14238 0.652462 -0.299876 0 0 0 0 0 0 0 0 0 
26.982 1 139 17.89 12.4037 2.63959 1.44956 3.69817 -0.697887 -0.0781022 0.447876 -0.103998 0 0 0 0 0 0 0 0 0 
26.982 1 338 18.0227 14.1644 4.90693 -0.832714 -6.21735 -3.74312 -0.413987 0.391958 -0.58038 0 0 0 0 0 0 0 0 0 
26.982 1 2437 38.5864 20.2948 8.41198 -2.50947 -0.151827 5.44268 0.308126 -0.186413 0.679903 0 0 0 0 0 0 0 0 0 
26.982 1 298 17.7944 10.6333 4.63091 0.228139 0.157331 -4.51518 0.467246 -0.516333 0.0691029 0 0 0 0 0 0 0 0 0 
26.982 1 104 20.2267 10.4252 2.85257 -1.41439 -1.3744 -2.0453 -0.334858 0.805867 -0.380066 0 0 0 0 0 0 0 0 0 
26.982 1 341 20.2273 12.4534 4.6644 0.0387071 3.50629 -3.81783 -0.0530738 0.253378 0.335026 0 0 0 0 0 0 0 0 0 
26.982 1 144 20.0675 14.2921 2.69079 -4.60379 -1.8646 3.39207 0.0249368 -0.332942 0.476169 0 0 0 0 0 0 0 0 0 
26.982 1 141 20.3363 12.3135 0.612365 -0.931619 -3.11847 0.20751 -0.227086 -0.144488 0.192816 0 0 0 0 0 0 0 0 0 
26.982 1 122 -0.788613 14.274 0.864726 -3.15875 0.538172 3.04085 0.0716797 0.344399 -0.618516 0 0 0 0 0 0 0 0 0 
26.982 1 108 24.8606 10.8056 3.04791 4.2517 -0.845218 4.44989 -0.0408691 -0.445544 -0.56475 0 0 0 0 0 0 0 0 0 
26.982 1 143 22.3689 12.2877 2.76572 3.64606 6.04598 -0.583126 0.229222 0.449775 -0.103742 0 0 0 0 0 0 0 0 0 
26.982 1 342 22.6256 14.6706 4.59859 0.864989 6.0197 0.0227492 -0.125726 -0.523024 0.0250504 0 0 0 0 0 0 0 0 0 
26.982 1 148 24.9449 14.3125 2.66579 1.64184 -1.88824 0.313241 -0.452433 0.213906 0.373453 0 0 0 0 0 0 0 0 0 
26.982 1 345 24.7598 12.5602 4.99371 -0.635126 -1.00307 3.0826 0.0946157 0.524963 -0.760883 0 0 0 0 0 0 0 0 0 
26.982 1 306 27.5288 10.4849 4.70502 -2.43971 4.05013 -3.25395 -0.400269 0.0142427 -0.0392493 0 0 0 0 0 0 0 0 0 
26.982 1 112 29.7128 10.6209 2.70441 1.79242 -1.13963 0.914329 -0.309107 -0.142936 0.216105 0 0 0 0 0 0 0 0 0 
26.982 1 147 27.0755 12.4039 2.84918 -2.41067 -0.175146 -5.60586 0.345985 0.260952 -0.0255356 0 0 0 0 0 0 0 0 0 
26.982 1 346 27.095 14.5074 4.72105 1.25299 0.40616 0.608039 0.273087 -0.0926092 -0.0565653 0 0 0 0 0 0 0 0 0 
26.982 1 152 29.4668 14.1025 2.80099 4.03621 1.0838 4.70396 -0.111854 -0.132591 0.411843 0 0 0 0 0 0 0 0 0 
26.982 1 349 29.5099 12.4183 5.06099 0.793106 0.00626542 1.28877 0.0806812 0.1603 -0.471287 0 0 0 0 0 0 0 0 0 
26.982 1 146 26.9797 14.3855 0.794652 2.74392 -4.04257 -2.64994 0.575981 -0.0879153 0.190501 0 0 0 0 0 0 0 0 0 
26.982 1 151 31.757 12.45 2.78216 0.285233 -1.42841 -1.07244 0.309701 -0.0616433 0.165984 0 0 0 0 0 0 0 0 0 
26.982 1 350 31.8385 14.3269 4.75483 6.09268 1.37534 1.48617 0.116403 0.0362505 -0.247753 0 0 0 0 0 0 0 0 0 
26.982 1 156 34.2961 14.3419 2.97676 -1.80892 -3.83915 0.546376 -0.445323 0.485358 -0.371428 0 0 0 0 0 0 0 0 0 
26.982 1 353 34.3969 12.2796 4.75842 -4.42682 -0.726576 -3.83085 -0.628466 0.361013 0.126383 0 0 0 0 0 0 0 0 0 
26.982 1 153 34.2155 12.4741 0.822688 0.000727905 -3.10632 -2.94318 0.00677057 -0.0755568 -0.0843469 0 0 0 0 0 0 0 0 0 
26.982 1 2831 31.9915 20.1583 18.3051 -0.660927 7.01121 -2.63122 -0.325837 0.217575 -0.255495 0 0 0 0 0 0 0 0 0 
26.982 1 155 36.3148 12.5834 2.67281 1.5113 0.0915756 3.15744 0.682232 -0.0307975 0.0451106 0 0 0 0 0 0 0 0 0 
26.982 1 354 36.5003 14.4817 4.83382 2.58414 -0.745407 -0.410945 0.294509 -0.199931 -0.156656 0 0 0 0 0 0 0 0 0 
26.982 1 160 39.1463 14.77 2.69693 -1.00042 -3.73197 -1.36748 0.262913 -0.745533 0.473005 0 0 0 0 0 0 0 0 0 
26.982 1 357 38.845 12.5994 4.34931 -2.15249 -3.16316 1.52164 -0.0761645 -0.0132933 0.243335 0 0 0 0 0 0 0 0 0 
26.982 1 159 41.4131 12.6016 2.69474 1.06279 -0.317389 -0.223628 -0.295325 -0.174179 0.51852 0 0 0 0 0 0 0 0 0 
26.982 1 358 41.2609 14.5003 4.57749 1.81304 -4.99308 0.677613 0.124457 -0.0822805 0.333457 0 0 0 0 0 0 0 0 0 
26.982 1 158 41.2224 14.3915 0.649226 0.223335 -3.14665 -5.68848 0.0662934 -0.0830766 0.26801 0 0 0 0 0 0 0 0 0 
26.982 1 163 -0.78759 16.2293 2.91497 -0.110389 -4.18198 -1.31156 0.251705 0.522463 -0.663914 0 0 0 0 0 0 0 0 0 
26.982 1 362 -0.888576 18.2525 4.67247 2.0622 -0.693968 -3.325 0.0801361 0.0678945 0.133559 0 0 0 0 0 0 0 0 0 
26.982 1 2003 -0.740273 20.2456 2.9379 -1.96988 6.48884 -1.122 -0.0104316 -0.157807 -0.562252 0 0 0 0 0 0 0 0 0 
26.982 1 164 -3.16383 18.3179 2.75912 -1.40873 -3.14845 1.12632 0.355918 0.208925 0.0332987 0 0 0 0 0 0 0 0 0 
26.982 1 2411 8.6985 20.2207 10.475 -3.94551 1.28619 0.530383 0.210374 0.10758 0.438901 0 0 0 0 0 0 0 0 0 
26.982 1 994 36.362 18.2074 16.2048 2.60179 -0.6073 -1.32681 -0.0494399 0.466195 0.470373 0 0 0 0 0 0 0 0 0 
26.982 1 27 27.369 0.695341 2.89057 2.90938 -0.651438 4.40405 -0.541893 -0.0752568 -0.134235 0 0 0 0 0 0 0 0 0 
26.982 1 365 1.58106 16.2609 4.77825 -1.20686 0.917657 -0.16692 -0.362772 -0.280913 -0.389238 0 0 0 0 0 0 0 0 0 
26.982 1 168 1.53197 18.2301 2.9466 -0.085614 3.76849 2.22357 -0.270616 -0.126929 -0.724833 0 0 0 0 0 0 0 0 0 
26.982 1 167 3.58119 16.2284 2.84411 -2.0988 0.878529 -1.66094 0.621293 -0.0196185 -0.413858 0 0 0 0 0 0 0 0 0 
26.982 1 366 3.79178 18.1276 4.76575 1.40191 -5.61239 -4.76257 0.379957 0.488679 -0.064787 0 0 0 0 0 0 0 0 0 
26.982 1 2417 15.5856 20.2653 8.53156 1.51442 0.081116 -0.243268 -0.256708 -0.329881 -0.00396086 0 0 0 0 0 0 0 0 0 
26.982 1 2205 1.7141 20.1363 4.66071 2.7163 -0.505681 -1.85317 -0.0707728 0.457249 0.110056 0 0 0 0 0 0 0 0 0 
26.982 1 2829 29.5955 20.1844 16.2617 -0.494478 -4.68713 -2.1666 0.114754 0.261918 0.126906 0 0 0 0 0 0 0 0 0 
26.982 1 369 6.28563 16.1043 4.82014 4.6664 -4.85365 3.24083 -0.213816 0.684457 -0.000556074 0 0 0 0 0 0 0 0 0 
26.982 1 172 5.96148 18.1312 2.7647 -2.71095 -3.96399 1.20797 0.43375 -0.074907 0.537699 0 0 0 0 0 0 0 0 0 
26.982 1 171 8.48907 16.2561 2.76429 -1.11159 5.98855 -0.0541608 -0.159463 -0.0495176 0.124316 0 0 0 0 0 0 0 0 0 
26.982 1 370 8.35916 18.2128 4.65767 -2.22859 -5.3319 4.197 0.114574 -0.277636 0.211449 0 0 0 0 0 0 0 0 0 
26.982 1 169 6.18279 16.4599 0.674837 0.643304 5.14216 -1.60637 -0.0694319 -0.0187929 -0.0030298 0 0 0 0 0 0 0 0 0 
26.982 1 176 10.7288 18.2353 2.70527 -0.197344 -1.34053 3.00198 0.0340193 0.0745608 -0.0429277 0 0 0 0 0 0 0 0 0 
26.982 1 373 10.7267 16.3271 4.59172 2.11957 0.0156978 -0.891232 0.144167 -0.0282371 0.498705 0 0 0 0 0 0 0 0 0 
26.982 1 175 12.9628 16.4362 2.75249 -6.13378 -4.21297 -1.68407 0.471595 -0.126849 0.196815 0 0 0 0 0 0 0 0 0 
26.982 1 374 13.1186 18.2555 4.82441 2.79082 0.509991 -1.79837 0.432717 0.315678 -0.956664 0 0 0 0 0 0 0 0 0 
26.982 1 2213 10.9294 20.1828 4.6059 4.63264 0.294996 -1.74868 -0.174981 -0.0737512 0.364259 0 0 0 0 0 0 0 0 0 
26.982 1 23 22.6444 0.812144 2.90055 4.65116 1.08307 -1.33736 0.104589 -0.177549 -0.147302 0 0 0 0 0 0 0 0 0 
26.982 1 377 15.5846 16.3685 4.58562 4.17623 0.181501 4.31107 -0.197373 -0.226374 0.364335 0 0 0 0 0 0 0 0 0 
26.982 1 180 15.3843 18.2936 2.74655 -1.20905 1.9127 1.52863 -0.0136549 0.070157 -0.254372 0 0 0 0 0 0 0 0 0 
26.982 1 179 17.9465 16.1567 2.85855 1.55108 -4.00332 -4.59893 -0.113936 0.147764 0.130845 0 0 0 0 0 0 0 0 0 
26.982 1 378 17.8843 18.2345 4.66053 -2.45489 -1.42996 2.75597 -0.438023 0.0881233 -0.577684 0 0 0 0 0 0 0 0 0 
26.982 1 66 27.2775 6.51079 0.783649 4.4157 4.86592 3.99286 -0.104466 0.0634512 0.0813278 0 0 0 0 0 0 0 0 0 
26.982 1 217 15.625 0.997033 4.56293 0.432105 -2.68219 3.34851 -0.319439 -0.313161 0.222753 0 0 0 0 0 0 0 0 0 
26.982 1 381 20.1768 16.3206 4.78255 1.7559 1.94993 -0.0867913 0.0527505 0.0736164 -0.726906 0 0 0 0 0 0 0 0 0 
26.982 1 184 20.1052 18.3993 2.79486 -4.03698 3.54707 -3.36948 0.254082 0.0780048 0.1414 0 0 0 0 0 0 0 0 0 
26.982 1 1013 10.8798 0.796596 20.1654 0.240561 0.670665 2.26802 0.0951028 0.442757 0.106801 0 0 0 0 0 0 0 0 0 
26.982 1 205 1.3265 1.06261 4.99314 -3.40671 -5.00045 1.53895 0.337841 -0.22955 -0.38142 0 0 0 0 0 0 0 0 0 
26.982 1 183 22.8232 16.5857 2.74894 0.803628 0.46561 3.43104 0.0341858 -0.0691736 -0.577468 0 0 0 0 0 0 0 0 0 
26.982 1 382 22.3831 18.163 4.80891 0.209735 -2.79701 1.48143 0.0709785 0.801865 -0.0872117 0 0 0 0 0 0 0 0 0 
26.982 1 385 24.9479 16.5971 4.72607 -0.442681 2.00031 -1.19768 0.186996 -0.32034 0.0323418 0 0 0 0 0 0 0 0 0 
26.982 1 188 25.0675 18.4401 2.86872 1.00643 5.50113 -0.742258 -0.231853 0.161941 -0.618758 0 0 0 0 0 0 0 0 0 
26.982 1 997 38.7118 16.1738 16.5374 -0.525777 0.752308 1.13858 0.242888 0.45955 -0.178807 0 0 0 0 0 0 0 0 0 
26.982 1 187 27.2647 16.3398 2.67537 0.900688 -3.87162 -1.7237 0.028447 0.157278 0.425887 0 0 0 0 0 0 0 0 0 
26.982 1 386 27.2998 18.5235 4.60072 -3.71877 -5.54011 4.17783 0.253131 -0.553061 -0.0033019 0 0 0 0 0 0 0 0 0 
26.982 1 192 29.6834 18.2826 2.51878 1.2244 1.24697 -0.15328 -0.254647 -0.308603 0.549879 0 0 0 0 0 0 0 0 0 
26.982 1 389 29.688 16.3213 4.43629 -0.289773 0.717486 -1.5258 -0.518903 0.0570485 0.187915 0 0 0 0 0 0 0 0 0 
26.982 1 1000 38.629 18.3265 18.2808 -7.43994 1.86999 1.37255 0.0548248 0.294107 -0.406525 0 0 0 0 0 0 0 0 0 
26.982 1 3 -0.757083 0.930861 2.87642 -0.852282 -4.36187 -0.436712 -0.459713 0.081056 -0.184606 0 0 0 0 0 0 0 0 0 
26.982 1 2219 17.6697 20.1942 6.47958 -0.692948 0.968172 2.31158 0.157295 0.226394 0.0720235 0 0 0 0 0 0 0 0 0 
26.982 1 2031 31.7748 20.2427 2.65425 -4.19953 -3.81752 5.5322 0.26118 0.107953 0.0973325 0 0 0 0 0 0 0 0 0 
26.982 1 191 31.9372 16.4326 2.83892 1.2594 0.151137 1.8958 0.0427298 -0.310226 -0.117995 0 0 0 0 0 0 0 0 0 
26.982 1 390 31.8034 18.4931 4.74684 -0.32582 1.51247 -1.33491 0.244062 -0.103252 -0.507368 0 0 0 0 0 0 0 0 0 
26.982 1 393 34.157 16.4539 4.7702 -4.06323 -1.27371 2.01314 0.00550469 -0.147554 0.0669551 0 0 0 0 0 0 0 0 0 
26.982 1 196 34.1245 18.1723 2.74654 -5.63607 2.11248 0.664677 0.349385 0.637821 0.0399303 0 0 0 0 0 0 0 0 0 
26.982 1 109 29.4682 8.46598 0.929257 0.0184854 -2.09931 -3.66422 0.258479 0.517141 0.121458 0 0 0 0 0 0 0 0 0 
26.982 1 195 36.78 16.1582 2.64334 -6.87764 -0.535176 0.586537 -0.549779 -0.143657 0.567804 0 0 0 0 0 0 0 0 0 
26.982 1 394 36.5942 18.3087 4.46725 -0.616921 1.40297 -2.10285 -0.293693 -0.566491 0.395071 0 0 0 0 0 0 0 0 0 
26.982 1 397 38.9011 16.3627 4.9056 -1.46335 5.51082 -1.69645 -0.211578 -0.0505175 0.00447768 0 0 0 0 0 0 0 0 0 
26.982 1 200 39.1131 17.9981 2.65762 -0.687425 -2.14171 -3.24011 -0.151696 -0.208414 0.622854 0 0 0 0 0 0 0 0 0 
26.982 1 2833 34.2236 20.3301 16.4251 4.57796 -2.5845 -0.918903 -0.12608 -0.602605 -0.286667 0 0 0 0 0 0 0 0 0 
26.982 1 361 43.6469 16.2723 4.67368 2.53869 -1.01843 -0.645268 -0.266383 0.0208654 -0.131277 0 0 0 0 0 0 0 0 0 
26.982 1 199 41.6324 16.2725 2.69747 1.30452 -2.78958 -1.10107 -0.634334 0.089151 -0.0387346 0 0 0 0 0 0 0 0 0 
26.982 1 398 41.3064 18.1361 4.75697 1.07649 -1.15467 -2.87092 -0.0821593 -0.118011 0.0431387 0 0 0 0 0 0 0 0 0 
26.982 1 2039 41.1131 20.1618 2.99312 0.842528 3.07314 -0.431403 0.0877199 0.185522 -0.680983 0 0 0 0 0 0 0 0 0 
26.982 1 243 -0.934815 4.92803 6.61361 0.188599 -1.70699 0.204669 -0.0200681 -0.402341 0.140438 0 0 0 0 0 0 0 0 0 
26.982 1 402 -1.06753 2.80019 8.68269 3.54326 0.928789 -3.19493 0.43631 -0.0258118 -0.275695 0 0 0 0 0 0 0 0 0 
26.982 1 443 -0.834528 4.7018 10.452 -4.8092 -2.61018 2.67954 -0.0466908 0.245874 0.68691 0 0 0 0 0 0 0 0 0 
26.982 1 208 1.32863 2.66242 7.06315 -2.50455 -3.10529 -3.26407 0.229489 0.16559 -0.178482 0 0 0 0 0 0 0 0 0 
26.982 1 445 1.32677 4.7807 8.62436 -7.56596 -1.66088 0.943173 0.0961092 -0.0697498 -0.155814 0 0 0 0 0 0 0 0 0 
26.982 1 247 3.95737 4.52225 6.55447 1.5626 -3.29945 -0.655158 -0.371402 -0.0278236 -0.210566 0 0 0 0 0 0 0 0 0 
26.982 1 406 3.8602 2.62019 8.63164 2.87214 -4.28565 -4.88391 -0.181878 0.0336974 -0.152875 0 0 0 0 0 0 0 0 0 
26.982 1 449 6.22241 4.12199 8.43485 0.472063 -5.90466 0.866779 0.0146046 0.753711 0.359457 0 0 0 0 0 0 0 0 0 
26.982 1 212 6.3546 2.6484 6.26303 -5.27016 3.98344 10.0797 0.243068 -0.568791 0.126245 0 0 0 0 0 0 0 0 0 
26.982 1 251 8.53041 4.64787 6.72519 -0.000649722 3.18521 0.865332 0.00479744 -0.0864402 -0.0965085 0 0 0 0 0 0 0 0 0 
26.982 1 410 8.60717 2.50071 8.42626 1.85899 -0.939379 0.213635 0.0678666 0.186572 0.243501 0 0 0 0 0 0 0 0 0 
26.982 1 451 8.73427 4.43604 10.4605 -2.86868 1.74872 0.516597 -0.2917 -0.0256221 -0.177089 0 0 0 0 0 0 0 0 0 
26.982 1 412 6.35803 2.59647 10.6085 0.771387 2.75117 0.974833 0.148579 0.16123 0.148556 0 0 0 0 0 0 0 0 0 
26.982 1 2421 20.1471 20.4243 8.22633 -0.599491 -4.86821 1.97942 -0.118558 -0.622257 0.50449 0 0 0 0 0 0 0 0 0 
26.982 1 2425 24.7145 20.2388 8.59114 -2.36563 -2.39098 0.865598 0.0886411 0.544997 -0.0154019 0 0 0 0 0 0 0 0 0 
26.982 1 453 10.9496 4.63948 8.4364 0.71039 7.45391 -3.3017 -0.132044 0.000915585 0.315379 0 0 0 0 0 0 0 0 0 
26.982 1 216 10.8604 2.75939 6.49676 0.98629 7.90151 -1.64245 0.161362 -0.15678 0.250179 0 0 0 0 0 0 0 0 0 
26.982 1 255 13.0608 4.56217 6.45006 4.00176 -6.53821 -1.12859 0.234 0.88505 0.506483 0 0 0 0 0 0 0 0 0 
26.982 1 414 13.4324 2.90128 8.69657 3.34563 -1.89737 2.25181 -0.453457 0.337027 -0.447438 0 0 0 0 0 0 0 0 0 
26.982 1 455 13.1224 4.75608 10.7306 3.26289 1.54142 -3.12754 0.482583 -0.624728 -0.483429 0 0 0 0 0 0 0 0 0 
26.982 1 416 11.0044 2.56053 10.411 7.15673 1.49746 -1.98296 -0.0257314 0.473762 -0.177863 0 0 0 0 0 0 0 0 0 
26.982 1 417 15.4482 0.871308 8.55635 1.04717 -1.38718 -1.0992 0.503786 -0.0239695 0.00078488 0 0 0 0 0 0 0 0 0 
26.982 1 457 15.491 4.77381 8.60538 1.42743 -2.19759 0.323959 0.0897051 0.0253299 0.452571 0 0 0 0 0 0 0 0 0 