ITEM: TIMESTEP
16200
ITEM: NUMBER OF ATOMS
4000
ITEM: BOX BOUNDS pp pp pp
-3.36672 43.8667
0.827347 39.6727
1.08444 39.4156
ITEM: ATOMS mass type id x y z vx vy vz fx fy fz xrad yrad zrad vxrad vyrad vzrad fxrad fyrad fzrad 
26.982 1 43 -1.97435 5.56884 2.625 6.57321 3.3103 -3.23809 0.399331 0.0852028 0.240431 0 0 0 0 0 0 0 0 0 
26.982 1 202 -1.39537 3.64395 4.51309 2.50551 -6.00316 7.59901 0.0130018 -0.606462 0.0195148 0 0 0 0 0 0 0 0 0 
26.982 1 817 15.9527 0.813663 16.384 3.29894 -1.84439 2.62791 -0.0517043 0.312098 -0.113132 0 0 0 0 0 0 0 0 0 
26.982 1 205 0.891583 1.77068 3.96963 0.194112 3.95924 2.62358 -0.00108943 -0.126116 -0.345322 0 0 0 0 0 0 0 0 0 
26.982 1 2 -2.1418 3.04326 1.66605 -2.33983 2.51874 4.17514 -0.386778 0.170181 0.188689 0 0 0 0 0 0 0 0 0 
26.982 1 245 1.40919 4.3038 4.22276 -2.31694 3.35595 -4.01698 0.432293 0.45833 -0.273901 0 0 0 0 0 0 0 0 0 
26.982 1 8 1.94176 3.82372 1.30668 -2.19964 -2.99756 0.677323 -0.260308 -0.0714454 0.59699 0 0 0 0 0 0 0 0 0 
26.982 1 47 4.19885 5.30395 3.17073 -2.77022 -0.903431 5.12823 -0.403566 0.27634 -0.68286 0 0 0 0 0 0 0 0 0 
26.982 1 206 3.7362 2.67664 3.57619 -1.36036 -4.06065 0.594346 -0.368213 -0.346779 -0.109374 0 0 0 0 0 0 0 0 0 
26.982 1 249 6.49045 5.38564 4.98717 -1.28277 -3.05494 7.71383 0.0522082 -0.109052 0.167943 0 0 0 0 0 0 0 0 0 
26.982 1 12 6.46394 3.17355 2.82663 4.40167 3.94975 0.311733 -0.233003 -0.240944 0.288364 0 0 0 0 0 0 0 0 0 
26.982 1 51 8.85887 4.23488 1.95538 -2.36427 -5.74869 0.497156 0.363685 0.130199 0.336676 0 0 0 0 0 0 0 0 0 
26.982 1 210 9.06533 2.72979 4.36537 -6.32986 -2.26161 -0.407615 0.00417171 -0.0582702 0.0468068 0 0 0 0 0 0 0 0 0 
26.982 1 212 6.64815 2.64035 5.87688 3.63452 -5.71954 -0.163484 0.0536469 -0.0737809 -0.229334 0 0 0 0 0 0 0 0 0 
26.982 1 253 11.2643 4.57951 3.99529 -0.766026 0.696945 -2.87201 -0.378011 -0.390436 -0.128561 0 0 0 0 0 0 0 0 0 
26.982 1 16 11.1976 2.51098 2.17058 1.54392 -0.625723 -2.84233 0.116096 0.20778 0.0489746 0 0 0 0 0 0 0 0 0 
26.982 1 214 13.3734 2.49867 4.29181 -6.60671 -2.71251 1.24265 -0.0588226 0.000830462 -0.423835 0 0 0 0 0 0 0 0 0 
26.982 1 53 11.8532 5.1953 1.06786 1.55387 1.40711 -2.15994 0.435036 0.0706942 0.518169 0 0 0 0 0 0 0 0 0 
26.982 1 55 13.9967 5.08296 3.43716 -1.45793 -2.63273 -3.01416 0.371865 0.114352 -0.521639 0 0 0 0 0 0 0 0 0 
26.982 1 20 16.242 2.83183 3.31963 2.76453 -0.0570388 -0.0830835 0.150567 0.0712054 -0.301226 0 0 0 0 0 0 0 0 0 
26.982 1 257 16.332 4.92975 5.19814 0.564188 2.06835 0.577362 -0.265684 0.106015 0.0844867 0 0 0 0 0 0 0 0 0 
26.982 1 57 16.4737 4.94951 1.46105 -0.434862 -1.6045 -4.37844 -0.775275 -0.0764033 -0.45829 0 0 0 0 0 0 0 0 0 
26.982 1 14 14.1595 3.11224 1.40775 3.44164 1.92082 1.86279 0.137986 -0.230906 0.431133 0 0 0 0 0 0 0 0 0 
26.982 1 19 18.3963 0.839407 3.02349 0.878696 -0.948716 -3.58366 0.0305241 0.559842 -0.206651 0 0 0 0 0 0 0 0 0 
26.982 1 218 18.4549 2.9982 5.0801 -4.06566 -0.863883 6.18185 0.0620924 -0.372504 -0.26312 0 0 0 0 0 0 0 0 0 
26.982 1 59 18.4295 4.9186 3.12026 -3.39562 0.215128 13.328 0.107181 -0.00784433 0.280071 0 0 0 0 0 0 0 0 0 
26.982 1 24 20.733 2.88203 3.01908 -5.99949 -2.42764 -1.40187 -0.670671 -0.606219 0.0345574 0 0 0 0 0 0 0 0 0 
26.982 1 261 20.5965 4.8312 4.89308 -2.60343 1.84735 -3.25798 -0.167668 -0.418834 0.719404 0 0 0 0 0 0 0 0 0 
26.982 1 1198 41.1056 17.8599 19.918 -7.67877 7.77808 0.837101 -0.347057 0.192323 0.255717 0 0 0 0 0 0 0 0 0 
26.982 1 18 18.6509 2.89543 1.24807 -2.67694 0.149977 0.0940415 -0.476538 0.228874 -0.312819 0 0 0 0 0 0 0 0 0 
26.982 1 63 22.5461 4.76521 3.12718 0.359441 -3.98522 -0.653677 1.0106 -0.199446 -0.467734 0 0 0 0 0 0 0 0 0 
26.982 1 222 22.7339 2.40962 4.96243 3.68479 4.35725 3.74802 0.0937424 0.902587 0.188214 0 0 0 0 0 0 0 0 0 
26.982 1 28 24.8164 2.74793 3.0516 -1.66287 2.76829 -2.96903 0.0439463 -0.134901 -0.291214 0 0 0 0 0 0 0 0 0 
26.982 1 265 24.7972 4.7671 4.89599 -0.947582 3.14817 0.438746 0.0741673 0.000346833 -0.00931118 0 0 0 0 0 0 0 0 0 
26.982 1 1161 43.4226 15.65 19.1864 -2.26802 -0.979721 -4.40193 -0.15041 -0.292497 0.897513 0 0 0 0 0 0 0 0 0 
26.982 1 819 18.1305 0.972438 18.274 4.12296 -0.665503 6.17047 -0.11891 -0.32285 -0.030529 0 0 0 0 0 0 0 0 0 
26.982 1 67 26.9829 4.61824 3.01141 1.69803 -4.38797 -1.44134 0.457704 -0.00851299 -0.176204 0 0 0 0 0 0 0 0 0 
26.982 1 226 27.0845 2.54848 4.87134 -0.540683 0.352923 1.8297 0.677515 0.662796 -0.0392023 0 0 0 0 0 0 0 0 0 
26.982 1 32 29.4565 2.74511 2.95075 1.47474 -4.4059 -1.05771 -0.215368 -0.848143 -0.598476 0 0 0 0 0 0 0 0 0 
26.982 1 269 29.4386 4.61451 4.67162 -0.42428 4.9061 1.11485 -0.0764401 0.264124 0.756557 0 0 0 0 0 0 0 0 0 
26.982 1 27 27.0979 0.746671 3.03098 0.732009 -1.90612 -1.76847 0.170595 0.15802 -0.665054 0 0 0 0 0 0 0 0 0 
26.982 1 71 31.7689 4.53875 2.87676 -9.73566 2.12381 -3.54089 -0.165244 0.441783 0.863217 0 0 0 0 0 0 0 0 0 
26.982 1 230 31.7716 2.69684 5.02694 1.5339 -2.37161 1.50719 -0.503759 0.196996 -0.122338 0 0 0 0 0 0 0 0 0 
26.982 1 273 34.0398 4.54315 5.09521 3.12224 2.25704 -3.7135 -0.504771 0.287954 -0.265927 0 0 0 0 0 0 0 0 0 
26.982 1 36 33.9502 2.59893 3.20357 3.33273 0.544463 -2.5658 0.197082 0.208607 -0.0700024 0 0 0 0 0 0 0 0 0 
26.982 1 73 33.9676 4.70048 1.32098 -0.837471 5.676 -9.06503 0.276988 -0.181507 -0.64317 0 0 0 0 0 0 0 0 0 
26.982 1 2823 23.0984 20.1956 18.7862 0.0354343 -1.60405 -3.69772 0.200767 -0.465316 -0.386761 0 0 0 0 0 0 0 0 0 
26.982 1 75 36.1608 4.97379 3.27012 -2.62397 -1.03794 -1.9226 -0.434191 -0.398253 -0.13789 0 0 0 0 0 0 0 0 0 
26.982 1 234 36.0963 2.86477 5.17161 1.23959 -2.61159 -0.0480925 -0.199877 -0.31561 0.193314 0 0 0 0 0 0 0 0 0 
26.982 1 40 38.2234 3.20438 3.51071 -0.123657 4.6026 0.905095 0.43388 0.0155251 -0.791237 0 0 0 0 0 0 0 0 0 
26.982 1 277 38.5473 4.03622 6.12587 -1.03676 3.143 -1.63516 0.285941 0.0104153 0.0477196 0 0 0 0 0 0 0 0 0 
26.982 1 34 36.3094 2.95506 1.25169 -3.56138 1.83585 6.25775 0.0283907 -0.144047 0.256864 0 0 0 0 0 0 0 0 0 
26.982 1 35 36.3681 0.803614 3.33081 2.72538 3.85313 1.31371 -0.0917625 0.522555 -0.329984 0 0 0 0 0 0 0 0 0 
26.982 1 237 38.329 1.22124 5.2708 0.0252731 5.7949 -3.09955 0.106872 -0.154784 0.315001 0 0 0 0 0 0 0 0 0 
26.982 1 37 38.5369 1.2002 1.32354 -0.63132 6.43089 -0.417495 -0.407605 0.162575 0.0645291 0 0 0 0 0 0 0 0 0 
26.982 1 41 42.9156 4.82274 1.38282 1.1757 -2.01621 2.69794 0.0117821 0.220744 0.117202 0 0 0 0 0 0 0 0 0 
26.982 1 4 43.1897 2.42469 3.86782 5.8124 -0.0148452 -5.47668 -0.0176342 0.616853 -0.225067 0 0 0 0 0 0 0 0 0 
26.982 1 241 43.6195 5.24748 4.67251 -0.387405 2.04302 0.576021 -0.241048 -0.0131954 0.137101 0 0 0 0 0 0 0 0 0 
26.982 1 79 41.0642 4.33089 3.8533 2.15922 3.06529 0.797649 -0.283235 -0.0657012 -0.2546 0 0 0 0 0 0 0 0 0 
26.982 1 238 40.8596 2.59145 6.13052 -2.44778 11.7081 3.31757 0.18893 -0.271303 0.183577 0 0 0 0 0 0 0 0 0 
26.982 1 1 42.7636 1.48 1.22699 5.51527 0.312675 -4.45694 -0.389952 0.445739 -0.0117935 0 0 0 0 0 0 0 0 0 
26.982 1 39 40.5217 1.57656 3.36282 -1.88021 0.188169 5.34383 0.044701 0.0646264 -0.336132 0 0 0 0 0 0 0 0 0 
26.982 1 38 40.496 3.42734 1.20741 -2.89091 2.5333 2.04041 0.0375361 -0.185486 0.157647 0 0 0 0 0 0 0 0 0 
26.982 1 83 -1.16887 8.42983 2.90018 2.33004 -2.76401 -1.32068 0.184636 -0.267402 0.188316 0 0 0 0 0 0 0 0 0 
26.982 1 242 -0.578247 6.13612 4.97766 5.40524 3.8417 0.791273 0.0313451 0.507091 0.101045 0 0 0 0 0 0 0 0 0 
26.982 1 281 -3.11727 7.81859 5.37789 -1.38636 3.72344 -3.6301 0.1603 0.0411553 -0.170513 0 0 0 0 0 0 0 0 0 
26.982 1 282 -0.936309 10.203 5.04358 -7.29102 -5.27345 1.43048 -0.553756 -0.170865 -0.202214 0 0 0 0 0 0 0 0 0 
26.982 1 48 1.38674 6.7187 2.90329 -1.30445 9.5248 -1.52979 0.028512 -0.215568 0.166473 0 0 0 0 0 0 0 0 0 
26.982 1 285 1.92866 8.67403 5.4937 -0.0822584 -7.50701 2.94776 -0.207871 -0.0828219 -0.247922 0 0 0 0 0 0 0 0 0 
26.982 1 87 4.07161 7.92003 2.13327 -4.39812 -4.92328 4.343 -0.402929 -0.593991 0.248045 0 0 0 0 0 0 0 0 0 
26.982 1 246 4.29347 7.22332 5.29166 -0.690264 3.13372 -0.166317 0.112949 0.0526215 -0.194453 0 0 0 0 0 0 0 0 0 
26.982 1 88 1.69543 9.45469 2.72553 7.34705 -4.32684 2.86497 -0.208693 -0.0713906 -0.341069 0 0 0 0 0 0 0 0 0 
26.982 1 286 4.05219 9.97863 4.20056 0.981965 -3.52428 4.3923 0.109045 -0.0793834 0.201675 0 0 0 0 0 0 0 0 0 
26.982 1 86 5.05553 10.3199 1.61928 -1.26607 1.71859 0.404288 0.0930315 0.570905 0.26906 0 0 0 0 0 0 0 0 0 
26.982 1 289 6.46009 8.22323 3.87482 1.05878 -7.74629 6.48281 0.136121 -0.0659461 0.19813 0 0 0 0 0 0 0 0 0 
26.982 1 52 6.67963 5.97355 2.1571 2.6772 4.45256 4.4591 -0.00511272 0.37633 -0.245964 0 0 0 0 0 0 0 0 0 
26.982 1 91 9.80175 8.94292 3.22668 0.876126 2.2174 0.593443 -0.567366 -0.250016 0.0784273 0 0 0 0 0 0 0 0 0 
26.982 1 250 8.89861 6.29525 4.10051 -0.147267 6.89803 1.91081 0.217628 -0.0611699 -0.224626 0 0 0 0 0 0 0 0 0 
26.982 1 89 7.46155 8.72137 1.30845 0.784456 2.12135 5.05571 -0.0287113 -0.401414 0.39576 0 0 0 0 0 0 0 0 0 
26.982 1 50 9.79554 6.8192 1.46426 3.92964 -3.11756 1.92048 -0.676068 0.334189 -0.28156 0 0 0 0 0 0 0 0 0 
26.982 1 293 11.9607 9.07297 5.22137 3.53086 4.31959 -0.859948 -0.432379 0.453521 -0.388533 0 0 0 0 0 0 0 0 0 
26.982 1 56 11.9637 7.14451 3.07805 -0.132558 -3.99228 -5.81333 0.437388 0.269166 0.061236 0 0 0 0 0 0 0 0 0 
26.982 1 95 13.6962 9.62837 2.74788 -3.37464 1.32525 1.09089 -0.301238 -0.410353 -0.117833 0 0 0 0 0 0 0 0 0 
26.982 1 93 11.345 9.19882 0.913711 -1.4045 -3.79981 -1.9196 0.0186522 0.784667 0.829926 0 0 0 0 0 0 0 0 0 
26.982 1 254 14.1504 7.43171 4.92535 0.917272 -0.454257 -1.00904 -0.193092 -0.696927 -0.00340108 0 0 0 0 0 0 0 0 0 
26.982 1 60 16.124 6.9786 3.19224 3.62042 0.993063 -2.7063 0.393596 0.254538 -0.200893 0 0 0 0 0 0 0 0 0 
26.982 1 297 15.9441 9.59155 4.42182 -0.528861 0.0151269 0.880442 -0.0376641 -0.168451 -0.295616 0 0 0 0 0 0 0 0 0 
26.982 1 2825 25.2277 20.0042 16.5354 -2.16036 -2.76608 -0.480061 0.456062 0.560736 0.105717 0 0 0 0 0 0 0 0 0 
26.982 1 97 16.3233 9.09292 1.38491 -4.29843 -1.15336 1.17381 -0.265582 0.187612 0.172042 0 0 0 0 0 0 0 0 0 
26.982 1 99 18.3938 9.13181 3.35335 -2.72221 -0.191006 -0.953929 -0.0991311 0.194864 -0.345873 0 0 0 0 0 0 0 0 0 
26.982 1 258 18.2725 7.08802 5.14061 -0.895483 -6.4131 2.65553 -0.246685 -0.103624 0.367282 0 0 0 0 0 0 0 0 0 
26.982 1 64 20.2919 6.81485 3.20766 -4.72794 -0.641077 -7.83991 0.313212 0.252395 -0.614677 0 0 0 0 0 0 0 0 0 
26.982 1 301 20.5823 8.72012 4.96767 -0.608305 -1.38439 -1.65077 -0.214332 0.602216 0.0507571 0 0 0 0 0 0 0 0 0 
26.982 1 103 22.6633 8.88048 2.94695 -4.44826 -2.75823 1.76756 -0.236741 -0.307314 -0.256664 0 0 0 0 0 0 0 0 0 
26.982 1 262 22.6673 6.84988 4.71596 -1.02222 -5.28019 -1.42775 -0.11949 -0.47764 0.586819 0 0 0 0 0 0 0 0 0 
26.982 1 305 24.7766 8.35742 5.05037 -2.20998 -0.802111 7.81666 0.527702 0.311535 -0.68058 0 0 0 0 0 0 0 0 0 
26.982 1 68 24.8078 6.53013 2.85783 3.00705 0.731614 -0.989518 0.240282 0.368781 0.464336 0 0 0 0 0 0 0 0 0 
26.982 1 431 31.7103 1.0533 11.07 2.10906 1.29772 1.94549 -0.833048 -0.780515 0.41874 0 0 0 0 0 0 0 0 0 
26.982 1 619 18.29 0.8025 14.4739 -0.367598 0.180907 -2.89487 -0.13461 0.293537 0.126768 0 0 0 0 0 0 0 0 0 
26.982 1 107 27.0096 8.485 2.8638 -2.72897 6.12113 2.29561 0.195206 -0.378442 0.294099 0 0 0 0 0 0 0 0 0 
26.982 1 266 26.9542 6.50999 4.92673 3.23649 -4.25774 -5.64381 0.421398 0.392475 -0.221517 0 0 0 0 0 0 0 0 0 
26.982 1 72 29.4107 6.66142 2.97945 0.837781 -0.162096 -0.173948 -0.337854 -0.135072 -0.120236 0 0 0 0 0 0 0 0 0 
26.982 1 309 29.3056 8.40179 4.96943 3.22642 0.50842 -1.20507 -0.000874393 -0.00122521 0.351714 0 0 0 0 0 0 0 0 0 
26.982 1 112 29.2682 10.3369 3.15153 0.779884 1.0485 4.17959 0.284957 0.379156 -0.030535 0 0 0 0 0 0 0 0 0 
26.982 1 613 11.7238 1.14413 12.3098 4.00282 -2.15286 -0.0143835 -0.468097 -0.374243 0.510804 0 0 0 0 0 0 0 0 0 
26.982 1 113 33.9303 8.39404 1.14902 1.52462 4.08785 -0.382423 -0.0116441 0.174317 0.430256 0 0 0 0 0 0 0 0 0 
26.982 1 110 31.7131 10.4415 1.10497 -3.14647 -5.14405 -0.949928 -0.013926 0.756904 0.608113 0 0 0 0 0 0 0 0 0 
26.982 1 111 31.4554 8.53718 3.04688 0.634545 -1.25598 -1.66868 0.729732 -0.0878945 0.114485 0 0 0 0 0 0 0 0 0 
26.982 1 270 31.6504 6.54431 4.93314 -3.56396 -2.06291 -3.26828 -0.170382 -0.123014 -0.32496 0 0 0 0 0 0 0 0 0 
26.982 1 76 33.8585 6.56505 3.12083 -3.38849 3.37158 -4.89087 -0.106109 0.0390768 0.154254 0 0 0 0 0 0 0 0 0 
26.982 1 313 33.8915 8.46449 4.87718 1.57517 0.378643 0.691399 -0.202406 0.564111 -0.00238642 0 0 0 0 0 0 0 0 0 
26.982 1 116 33.9374 10.465 2.82971 2.54032 0.898832 -1.55478 -0.0521143 -0.345073 0.628806 0 0 0 0 0 0 0 0 0 
26.982 1 310 31.703 10.4413 4.95551 -0.529183 2.89615 0.728543 0.0985901 -0.290861 -0.10548 0 0 0 0 0 0 0 0 0 
26.982 1 70 31.6864 6.66354 0.996498 4.2549 -2.73181 1.10262 0.065218 -0.795638 0.647099 0 0 0 0 0 0 0 0 0 
26.982 1 115 36.4321 8.46718 3.36957 -0.0994702 2.68346 -3.32425 -0.555017 0.358544 -0.195106 0 0 0 0 0 0 0 0 0 
26.982 1 274 36.026 6.67125 5.39253 -0.719888 -2.59782 -3.38339 0.403358 -0.0477594 -0.175869 0 0 0 0 0 0 0 0 0 
26.982 1 80 38.5086 5.97717 4.03989 -4.25047 -11.8573 3.43075 0.588432 0.443633 -0.0783898 0 0 0 0 0 0 0 0 0 
26.982 1 317 38.8221 8.69088 4.79163 -5.10773 2.54507 -5.37574 0.411942 -0.281028 0.0186122 0 0 0 0 0 0 0 0 0 
26.982 1 117 38.3362 8.56577 1.49848 1.43805 -3.98017 3.906 -0.0373119 -0.387982 -0.470735 0 0 0 0 0 0 0 0 0 
26.982 1 314 36.3571 9.42279 5.93143 -2.06584 -1.35392 -0.120425 0.416127 -0.011745 0.268669 0 0 0 0 0 0 0 0 0 
26.982 1 74 36.045 6.73428 1.27397 -4.60124 5.1697 0.676038 0.256578 0.065706 -0.562216 0 0 0 0 0 0 0 0 0 
26.982 1 114 36.3716 10.6088 1.16446 -2.09874 -0.417173 3.92261 -0.181401 0.287547 0.252413 0 0 0 0 0 0 0 0 0 
26.982 1 78 40.6705 6.48009 1.59678 -3.58568 0.97387 0.557111 0.000319541 0.152311 0.24693 0 0 0 0 0 0 0 0 0 
26.982 1 44 43.1332 7.55293 2.71544 6.24465 2.0944 0.472782 0.425481 -0.68242 0.401883 0 0 0 0 0 0 0 0 0 
26.982 1 119 40.7613 8.97066 2.51802 2.77532 -2.37605 1.76704 0.32621 -0.0161706 0.260101 0 0 0 0 0 0 0 0 0 
26.982 1 278 41.2347 6.9334 4.55536 -2.0994 -2.29774 0.255066 -0.405568 0.839172 -0.30832 0 0 0 0 0 0 0 0 0 
26.982 1 84 43.8688 10.2853 3.23133 4.96517 2.34905 -5.10493 -0.0758573 0.016528 0.282378 0 0 0 0 0 0 0 0 0 
26.982 1 318 41.2356 10.4812 4.65299 -1.28712 0.856845 -1.64691 0.103851 -0.254049 0.299228 0 0 0 0 0 0 0 0 0 
26.982 1 123 -0.822374 11.2155 2.18091 -4.64651 0.562255 -4.83995 -0.0282689 0.569864 0.569538 0 0 0 0 0 0 0 0 0 
26.982 1 322 -1.44262 13.2146 4.23971 2.27501 4.22407 4.75252 0.755743 -0.11055 0.261973 0 0 0 0 0 0 0 0 0 
26.982 1 122 -0.3721 14.1385 1.74353 -5.60292 -2.10999 2.67022 0.0169414 -0.489889 -0.47686 0 0 0 0 0 0 0 0 0 
26.982 1 361 43.5235 15.1185 4.35866 2.1116 -1.34327 -1.9528 0.304642 0.260169 -0.26364 0 0 0 0 0 0 0 0 0 
26.982 1 325 1.21256 11.6366 4.19873 -8.54017 -0.860453 3.19203 0.0159499 -0.0507563 0.327999 0 0 0 0 0 0 0 0 0 
26.982 1 128 2.05714 14.1909 3.55456 -5.27937 -1.56802 -1.70914 0.217556 0.222732 0.043761 0 0 0 0 0 0 0 0 0 
26.982 1 127 4.94959 12.5291 3.64424 -4.07476 -1.9654 1.00737 -0.515286 -0.8562 -0.564853 0 0 0 0 0 0 0 0 0 
26.982 1 326 4.59138 14.2051 5.54889 4.91158 -1.08103 -0.638573 -0.0507839 0.844975 0.533813 0 0 0 0 0 0 0 0 0 
26.982 1 125 2.4767 12.0413 1.79394 -10.2307 -2.07366 0.964425 0.109274 -0.0796702 -0.0704365 0 0 0 0 0 0 0 0 0 
26.982 1 126 4.26003 14.2137 1.50117 -3.26501 -0.995808 0.853323 -0.251666 0.169204 0.202287 0 0 0 0 0 0 0 0 0 
26.982 1 129 6.78239 12.6486 1.2945 -6.88397 1.10906 2.47167 -0.476842 0.290407 0.139464 0 0 0 0 0 0 0 0 0 
26.982 1 290 9.46552 10.8343 5.10396 -6.09206 -0.594573 8.22015 -0.145235 0.316407 0.851552 0 0 0 0 0 0 0 0 0 
26.982 1 92 7.19102 10.9208 3.3461 2.50357 -4.30319 -3.16249 -0.143276 -0.892748 0.343464 0 0 0 0 0 0 0 0 0 
26.982 1 329 7.17558 12.7421 5.44744 -2.9452 0.763803 2.01192 0.0714985 -0.177155 0.249648 0 0 0 0 0 0 0 0 0 
26.982 1 132 6.45402 14.6771 3.40774 -0.086669 2.9509 1.1203 0.19036 -0.158529 -0.420718 0 0 0 0 0 0 0 0 0 
26.982 1 131 8.96564 12.918 3.21149 0.920471 2.61584 0.825074 -0.160631 0.716203 0.000200657 0 0 0 0 0 0 0 0 0 
26.982 1 130 8.26077 14.9408 1.05448 1.52458 -2.29083 1.89192 -0.29571 -0.271311 0.208339 0 0 0 0 0 0 0 0 0 
26.982 1 90 8.97331 10.9249 1.14138 0.602747 -3.90124 -0.326749 0.292344 0.312269 -0.077529 0 0 0 0 0 0 0 0 0 
26.982 1 294 13.4319 11.5626 4.61972 2.27533 -3.45649 -4.60318 0.180239 -0.0210948 0.284819 0 0 0 0 0 0 0 0 0 
26.982 1 96 11.1323 11.3095 2.98884 2.6523 -2.99896 2.01505 0.614674 -0.189554 -0.250514 0 0 0 0 0 0 0 0 0 
26.982 1 333 11.2385 13.2597 5.05999 2.79792 2.0534 -0.645852 -0.129778 0.650426 -0.255609 0 0 0 0 0 0 0 0 0 
26.982 1 135 12.945 13.591 2.76201 1.31195 2.63503 -0.560959 0.0425299 0.660066 0.19656 0 0 0 0 0 0 0 0 0 
26.982 1 100 15.3568 11.8867 2.48817 -9.08432 -2.23492 -5.06121 0.165829 -0.203656 -0.118923 0 0 0 0 0 0 0 0 0 
26.982 1 337 15.4591 13.8805 4.38157 4.0005 2.67347 -2.08692 -0.224043 -0.235918 -0.153608 0 0 0 0 0 0 0 0 0 
26.982 1 139 17.4931 13.7322 1.94217 0.381974 1.98421 0.916375 -0.156189 0.587933 0.440329 0 0 0 0 0 0 0 0 0 
26.982 1 298 17.7913 11.918 4.18514 -1.11211 -2.37852 -1.45411 -0.252768 -0.345206 -0.531278 0 0 0 0 0 0 0 0 0 
26.982 1 2627 27.5172 20.1711 14.6531 -2.79443 -1.51062 4.17364 0.182101 -0.387344 0.409896 0 0 0 0 0 0 0 0 0 
26.982 1 104 20.4418 11.0281 2.81551 -0.548821 -3.34617 1.1322 -0.344354 -0.145584 0.229524 0 0 0 0 0 0 0 0 0 
26.982 1 338 18.1643 14.568 5.02869 2.50048 -0.872535 5.80241 0.0128989 0.402175 -0.15094 0 0 0 0 0 0 0 0 0 
26.982 1 341 20.4265 13.0862 4.57677 -6.42988 2.06996 -9.79282 0.171682 -0.249932 -0.232221 0 0 0 0 0 0 0 0 0 
26.982 1 144 20.2743 15.2641 2.50881 1.9128 2.26542 0.684395 -0.281412 -0.0838636 -0.373638 0 0 0 0 0 0 0 0 0 
26.982 1 302 22.5783 10.6499 4.79352 -3.10042 -0.240519 -2.07177 0.393195 0.30516 0.498712 0 0 0 0 0 0 0 0 0 
26.982 1 108 24.8126 10.379 2.92949 -2.34014 -0.348955 -1.70874 0.288891 0.269089 -0.00427594 0 0 0 0 0 0 0 0 0 
26.982 1 143 22.6305 12.6037 2.98948 4.62119 -1.05141 -5.19775 0.316484 0.339907 -0.380673 0 0 0 0 0 0 0 0 0 
26.982 1 342 22.9223 14.4643 5.09505 1.24533 -4.55968 -1.85673 0.184537 0.000107827 -0.215225 0 0 0 0 0 0 0 0 0 
26.982 1 148 25.0071 14.2615 2.91451 -6.19076 2.75569 -3.75767 0.0300003 0.642151 0.749797 0 0 0 0 0 0 0 0 0 
26.982 1 345 25.0419 12.4106 4.66762 -2.03568 -2.32695 2.34665 -0.167861 -0.0290689 0.763789 0 0 0 0 0 0 0 0 0 
26.982 1 306 27.0348 10.3801 4.74463 2.53507 0.490258 3.94145 0.137153 -0.24266 0.589173 0 0 0 0 0 0 0 0 0 
26.982 1 147 27.3004 12.3594 3.04602 -0.112497 1.73984 -4.79259 0.0744407 0.0280692 0.102152 0 0 0 0 0 0 0 0 0 
26.982 1 346 27.3957 14.3131 4.99213 3.23822 0.20233 1.73853 -0.121709 0.0472558 -0.244376 0 0 0 0 0 0 0 0 0 
26.982 1 152 29.566 14.3287 3.18187 -5.67096 2.25253 0.990416 0.04386 0.131977 0.0191241 0 0 0 0 0 0 0 0 0 
26.982 1 349 29.5484 12.2691 5.13761 3.27068 2.50644 0.597067 -0.0579597 0.360337 -0.685773 0 0 0 0 0 0 0 0 0 
26.982 1 2629 29.8061 20.0006 12.7922 1.80319 -5.11282 -0.666132 0.126843 0.193295 0.0472383 0 0 0 0 0 0 0 0 0 
26.982 1 149 29.5961 12.3432 1.32161 -1.15974 4.57383 -0.799157 -0.184104 0.0921626 -0.257913 0 0 0 0 0 0 0 0 0 
26.982 1 151 31.741 12.4168 3.06263 -3.9692 0.947352 0.898252 0.129892 -0.0182117 0.214947 0 0 0 0 0 0 0 0 0 
26.982 1 350 31.8438 14.3593 5.15544 1.75923 5.61087 1.41214 -0.210171 0.414411 -0.715411 0 0 0 0 0 0 0 0 0 
26.982 1 156 33.9302 14.4967 2.75193 2.11039 -1.12573 -1.85064 0.0553429 -0.187619 0.723439 0 0 0 0 0 0 0 0 0 
26.982 1 353 33.9347 12.4255 4.82436 1.61868 3.7227 -4.05455 0.0271899 0.0119465 -0.0784618 0 0 0 0 0 0 0 0 0 
26.982 1 153 34.0954 12.4551 1.1711 -3.03514 1.72223 -1.56838 0.076559 -0.141681 -0.185586 0 0 0 0 0 0 0 0 0 
26.982 1 150 31.643 14.3578 1.15848 3.3453 -0.0146538 -7.84679 0.0949586 -0.0558073 0.212488 0 0 0 0 0 0 0 0 0 
26.982 1 2423 22.9848 20.1809 10.7226 4.63698 2.40528 0.472647 0.174949 0.126467 -0.0270738 0 0 0 0 0 0 0 0 0 
26.982 1 157 38.281 12.8241 1.30316 -3.8608 3.06804 -4.90434 0.249026 -0.160836 -0.315493 0 0 0 0 0 0 0 0 0 
26.982 1 120 38.8282 10.7796 2.97871 0.800123 4.92483 -9.39281 -0.0226127 0.293508 0.122571 0 0 0 0 0 0 0 0 0 
26.982 1 155 36.3809 11.4893 3.86943 -6.65049 -4.61879 3.82011 0.160496 0.18581 -0.300124 0 0 0 0 0 0 0 0 0 
26.982 1 354 36.0351 14.2793 4.71273 0.0697411 -4.11719 -3.7355 -0.484449 -0.411671 0.0590209 0 0 0 0 0 0 0 0 0 
26.982 1 160 38.493 14.2532 3.53181 -0.977962 5.35117 3.59481 0.127455 -0.0873527 -0.459886 0 0 0 0 0 0 0 0 0 
26.982 1 357 38.7777 11.3484 5.78381 -0.926996 -2.68176 -2.20578 -0.0577483 -0.111463 -0.272969 0 0 0 0 0 0 0 0 0 
26.982 1 124 43.9128 13.0548 2.50886 1.15514 2.94555 -3.48007 -0.307033 0.464168 0.1971 0 0 0 0 0 0 0 0 0 
26.982 1 321 43.0443 12.5918 5.11573 3.21993 2.55877 -3.36725 -0.276425 -0.211438 -0.0159742 0 0 0 0 0 0 0 0 0 
26.982 1 159 40.9191 12.7083 3.09301 3.27987 1.87738 -3.07279 0.0363801 0.640184 0.0386146 0 0 0 0 0 0 0 0 0 
26.982 1 358 40.8672 14.6951 4.97573 0.178407 0.775861 -3.97939 -0.327658 -0.677745 0.751315 0 0 0 0 0 0 0 0 0 
26.982 1 199 41.5956 15.5936 2.57333 -8.21978 2.19859 -7.04717 -0.103254 -0.348177 -1.24193 0 0 0 0 0 0 0 0 0 
26.982 1 163 -1.0596 16.1462 3.33384 -5.13277 0.582448 -3.19323 0.442743 0.143653 0.466937 0 0 0 0 0 0 0 0 0 
26.982 1 362 -1.11156 18.3351 5.21121 -6.08273 3.74624 3.12375 0.195667 0.200718 0.0281141 0 0 0 0 0 0 0 0 0 
26.982 1 2621 20.9072 20.0825 12.796 1.44501 1.44063 3.31613 -0.306511 -0.585324 -0.0138314 0 0 0 0 0 0 0 0 0 
26.982 1 2003 -1.43825 19.5338 2.67557 -2.59018 8.28929 -4.31183 0.149485 -0.293261 -0.297657 0 0 0 0 0 0 0 0 0 
26.982 1 2201 43.4831 19.7937 4.9579 -3.60779 -0.133508 0.855358 0.250779 0.118219 -0.177689 0 0 0 0 0 0 0 0 0 
26.982 1 2005 0.920517 20.2299 1.28074 0.785207 5.05502 -4.2073 0.48225 -0.0313645 0.0202486 0 0 0 0 0 0 0 0 0 
26.982 1 166 3.36632 18.1828 1.4045 -1.73464 -2.21771 4.53767 -0.0639552 0.500729 -0.125407 0 0 0 0 0 0 0 0 0 
26.982 1 165 1.56416 16.1072 1.31003 -2.04342 -5.09745 -0.674323 -0.344071 -0.528817 0.811601 0 0 0 0 0 0 0 0 0 
26.982 1 365 1.46522 16.4153 5.37814 -2.30269 3.03553 -0.504816 -0.0566258 -0.273563 0.0263365 0 0 0 0 0 0 0 0 0 
26.982 1 168 1.24534 18.1821 3.24458 -0.743075 0.868534 0.910693 -0.220929 0.0103738 0.00317076 0 0 0 0 0 0 0 0 0 
26.982 1 167 3.80747 16.4664 3.54796 -1.28263 -0.917428 2.49674 -0.00513535 -0.477392 0.127015 0 0 0 0 0 0 0 0 0 
26.982 1 366 3.75883 18.4497 5.41932 -5.77347 -4.22325 3.65851 -0.486003 -0.488113 0.198507 0 0 0 0 0 0 0 0 0 
26.982 1 170 7.44152 19.0898 1.34339 0.980251 -3.77068 3.42446 0.439732 -0.546695 0.0080774 0 0 0 0 0 0 0 0 0 
26.982 1 330 8.64599 15.0093 5.19149 2.4104 5.58389 -0.750948 0.588967 -0.179916 0.300072 0 0 0 0 0 0 0 0 0 
26.982 1 369 6.34327 16.52 5.33503 -0.376386 -0.138134 -6.6194 -0.660695 0.629353 0.469865 0 0 0 0 0 0 0 0 0 
26.982 1 172 5.67033 18.7274 3.34653 1.35518 2.01109 -3.76613 -0.108612 -0.119873 -0.0081917 0 0 0 0 0 0 0 0 0 
26.982 1 171 8.01992 16.966 3.25442 -1.90199 -3.28959 1.79687 0.253987 0.376388 -0.321077 0 0 0 0 0 0 0 0 0 
26.982 1 370 7.9045 18.9307 5.31192 -1.24395 3.60381 0.38995 -0.151215 -0.00400857 -0.14646 0 0 0 0 0 0 0 0 0 
26.982 1 169 5.82497 16.5569 1.49978 -3.41806 1.43602 -7.66293 -0.024601 0.143356 -0.486939 0 0 0 0 0 0 0 0 0 
26.982 1 835 35.7864 1.0763 17.977 -2.40447 1.86813 0.256628 0.105105 -0.295485 -0.395216 0 0 0 0 0 0 0 0 0 
26.982 1 136 10.4224 15.4328 3.02086 5.78625 -6.32261 3.5269 0.353213 -0.540411 0.336975 0 0 0 0 0 0 0 0 0 
26.982 1 334 12.7445 16.026 4.91477 6.58497 -0.953839 1.90994 0.391513 -1.07108 -0.736378 0 0 0 0 0 0 0 0 0 
26.982 1 176 9.8863 19.5128 3.18659 -6.23389 -5.63179 7.11706 -0.282369 -0.543077 -0.20747 0 0 0 0 0 0 0 0 0 
26.982 1 373 10.3033 17.3831 5.07213 -7.37873 1.3392 -6.99703 -0.183764 0.0880814 0.224942 0 0 0 0 0 0 0 0 0 
26.982 1 175 12.1405 17.7151 2.88653 3.60144 6.15331 2.38119 -0.0604169 0.243586 -0.52248 0 0 0 0 0 0 0 0 0 
26.982 1 374 12.0914 19.4909 4.95741 0.664817 -3.98128 -3.07308 0.513268 0.492019 0.092726 0 0 0 0 0 0 0 0 0 
26.982 1 140 14.772 15.93 2.45551 -2.67039 -5.04467 1.53874 0.0891553 -0.170335 0.268442 0 0 0 0 0 0 0 0 0 
26.982 1 377 14.5986 18.0091 4.26197 -1.89482 -3.37736 0.203405 0.11387 0.0198868 0.21238 0 0 0 0 0 0 0 0 0 
26.982 1 179 17.5563 16.3682 3.08034 0.474311 0.0734243 3.86048 -0.151649 -0.452743 0.149592 0 0 0 0 0 0 0 0 0 
26.982 1 180 13.8211 20.2045 2.62572 -0.594169 7.33636 0.896265 -0.301834 -0.466436 0.0761353 0 0 0 0 0 0 0 0 0 
26.982 1 178 16.2595 18.6294 2.21596 -7.86947 -1.10459 -1.1596 -0.0157265 0.320764 -0.283596 0 0 0 0 0 0 0 0 0 
26.982 1 378 18.3555 18.7924 3.92295 3.87147 -2.28624 -0.12611 0.395099 0.27251 -0.0412588 0 0 0 0 0 0 0 0 0 
26.982 1 381 20.8082 16.4246 4.7708 -6.30107 0.0976058 -4.91688 -0.184573 -0.415173 1.04168 0 0 0 0 0 0 0 0 0 
26.982 1 184 21.0697 17.9624 2.74386 5.5208 -1.41362 -3.39622 -0.404636 0.621469 -0.405654 0 0 0 0 0 0 0 0 0 
26.982 1 183 23.1916 16.3366 3.08458 2.19552 1.72516 4.07362 -0.212904 -0.0477174 0.617096 0 0 0 0 0 0 0 0 0 
26.982 1 382 23.0353 18.6429 4.80962 -7.10837 0.366933 -1.62469 -0.322424 -0.781668 -0.437982 0 0 0 0 0 0 0 0 0 
26.982 1 385 25.3331 16.1957 5.07467 0.429311 -4.83803 -2.35387 -0.187056 0.0193087 -0.0996658 0 0 0 0 0 0 0 0 0 
26.982 1 188 25.191 18.1112 3.1438 -4.17264 7.54113 3.98913 0.364293 0.111205 -0.725739 0 0 0 0 0 0 0 0 0 
26.982 1 2225 25.3791 20.1273 4.80086 1.52107 -2.04328 -2.83459 -0.082636 0.303042 0.329109 0 0 0 0 0 0 0 0 0 
26.982 1 2023 22.9357 19.9919 2.5621 -3.39376 1.13885 0.197007 0.342247 0.563459 -0.0314541 0 0 0 0 0 0 0 0 0 
26.982 1 185 25.2025 16.1048 1.07103 0.282864 6.80495 0.800467 0.368486 1.05684 0.551065 0 0 0 0 0 0 0 0 0 
26.982 1 2229 29.642 20.1689 5.08698 4.27777 -3.04508 -2.72425 0.414632 -0.0165916 -0.571479 0 0 0 0 0 0 0 0 0 
26.982 1 187 27.3763 16.283 2.98566 -2.82667 1.72695 -0.810815 0.146168 0.0637248 0.364479 0 0 0 0 0 0 0 0 0 
26.982 1 386 27.5263 18.1722 4.99478 -4.57597 -1.42243 1.89436 -0.234878 -0.239667 0.241222 0 0 0 0 0 0 0 0 0 
26.982 1 192 29.5609 18.2739 3.08917 3.35297 6.07663 2.05861 0.522126 -0.0675777 0.226248 0 0 0 0 0 0 0 0 0 
26.982 1 389 29.7075 16.3406 5.04534 3.90422 -1.88213 -0.877392 -0.0676903 -0.168676 -0.105142 0 0 0 0 0 0 0 0 0 
26.982 1 2027 27.4059 19.9735 3.01505 -0.976613 1.46068 -2.62822 0.253965 0.318732 -0.0328494 0 0 0 0 0 0 0 0 0 
26.982 1 186 27.597 18.0915 0.987646 -0.030225 -0.792931 -0.657994 -0.359443 0.371706 0.587102 0 0 0 0 0 0 0 0 0 
26.982 1 189 29.765 16.4342 1.20509 -5.97136 -2.42232 -3.21114 -0.0615013 -0.673372 -0.016963 0 0 0 0 0 0 0 0 0 
26.982 1 427 27.1735 0.65661 10.5724 0.922325 -0.653188 -0.817665 -0.585578 0.222895 -0.282291 0 0 0 0 0 0 0 0 0 
26.982 1 191 31.9115 16.4014 3.12422 -6.09856 -6.66043 0.95075 -0.205459 -0.0977933 -0.184425 0 0 0 0 0 0 0 0 0 
26.982 1 390 31.9492 18.2396 5.12853 -3.4495 -0.149139 2.51927 -0.441637 0.185179 -0.340944 0 0 0 0 0 0 0 0 0 
26.982 1 393 34.0647 16.2555 4.86039 1.09985 0.139728 -1.03003 0.0315607 -0.284164 -0.10501 0 0 0 0 0 0 0 0 0 
26.982 1 196 34.1462 18.4873 3.06821 1.78077 10.0824 0.168697 0.509483 -0.766152 -0.00689613 0 0 0 0 0 0 0 0 0 
26.982 1 190 31.9726 18.3251 1.12864 1.34191 -5.03501 -1.73562 -0.111529 0.0789316 -0.0210593 0 0 0 0 0 0 0 0 0 
26.982 1 3001 43.0344 19.9756 19.7596 -5.36198 -0.0508486 1.20343 -0.0457647 0.141063 0.529848 0 0 0 0 0 0 0 0 0 
26.982 1 195 36.3506 16.3088 3.03223 3.04337 3.00307 5.34222 0.0595204 0.383832 -0.307544 0 0 0 0 0 0 0 0 0 
26.982 1 394 36.438 18.1489 5.0268 1.81463 -5.09562 -0.689614 -0.62818 0.155879 0.179851 0 0 0 0 0 0 0 0 0 
26.982 1 397 38.4606 16.4046 5.13636 3.96677 4.06989 -4.23127 0.183077 0.0113899 -0.10161 0 0 0 0 0 0 0 0 0 
26.982 1 200 38.3667 18.4059 3.03598 -4.00269 1.55869 0.774636 0.639274 0.0166626 0.00186362 0 0 0 0 0 0 0 0 0 
26.982 1 197 38.7641 16.4135 1.32854 1.42211 3.31685 0.909435 -0.11438 -0.608958 -0.22247 0 0 0 0 0 0 0 0 0 
26.982 1 2801 42.5519 20.1145 15.7824 8.49376 3.72147 6.10438 -0.0214026 -0.0110519 0.167318 0 0 0 0 0 0 0 0 0 
26.982 1 198 40.9599 18.2262 1.79226 0.495677 1.79766 -0.999551 0.075686 0.347054 0.0696622 0 0 0 0 0 0 0 0 0 
26.982 1 164 43.8325 17.653 2.99429 2.23293 0.548157 -0.341843 -0.406092 -0.107818 -0.0471461 0 0 0 0 0 0 0 0 0 
26.982 1 398 41.1333 17.3548 4.42603 0.215106 4.9532 -5.39936 0.148901 0.763047 -0.331083 0 0 0 0 0 0 0 0 0 
26.982 1 2001 43.0496 20.3423 2.00884 2.31455 3.8115 0.577898 0.388089 -0.231799 0.14867 0 0 0 0 0 0 0 0 0 
26.982 1 2039 40.8386 20.2808 3.64525 -2.72111 1.40035 0.237969 -0.255767 -0.538722 -0.586526 0 0 0 0 0 0 0 0 0 
26.982 1 203 -1.36951 1.70087 6.59659 2.52616 4.11183 0.758836 0.193914 -0.367902 0.217006 0 0 0 0 0 0 0 0 0 
26.982 1 243 0.423002 3.89581 6.73328 -1.49728 0.468632 0.847493 -0.238476 0.128879 -0.322013 0 0 0 0 0 0 0 0 0 
26.982 1 402 0.857605 2.00956 8.59508 -4.0017 2.88362 6.79191 -0.427438 -0.68373 -0.102816 0 0 0 0 0 0 0 0 0 
26.982 1 443 0.731343 3.89466 10.3987 3.29994 2.85348 -2.48093 -0.13462 -0.101919 0.511763 0 0 0 0 0 0 0 0 0 
26.982 1 401 -3.2903 1.53512 8.88157 -0.0134717 2.59328 2.68493 0.109608 -0.53059 -0.329873 0 0 0 0 0 0 0 0 0 
26.982 1 441 -1.51989 3.7517 8.70353 -0.300749 -0.5085 -0.979359 -0.406182 -0.499763 0.340879 0 0 0 0 0 0 0 0 0 
26.982 1 208 2.49885 1.94436 6.20155 -0.77534 -0.736169 -0.142491 0.211806 0.416868 0.0408413 0 0 0 0 0 0 0 0 0 
26.982 1 445 2.74387 3.99395 8.21022 -1.76225 2.14653 1.79865 0.143687 0.270498 0.354655 0 0 0 0 0 0 0 0 0 
26.982 1 247 3.88735 4.46568 5.64711 -5.74273 7.38481 4.60795 0.411958 -0.550156 0.771451 0 0 0 0 0 0 0 0 0 
26.982 1 406 5.00456 2.49021 8.12868 1.73877 -2.78681 0.0795808 -0.16765 -0.547771 -0.327547 0 0 0 0 0 0 0 0 0 
26.982 1 408 3.06446 2.18172 10.5541 0.745492 -1.83992 0.414135 -0.328219 -0.260885 -0.202315 0 0 0 0 0 0 0 0 0 
26.982 1 447 4.86365 4.19707 10.2406 -0.469071 -0.29664 1.7129 -0.143302 0.449759 0.017419 0 0 0 0 0 0 0 0 0 