ITEM: TIMESTEP
6100
ITEM: NUMBER OF ATOMS
4000
ITEM: BOX BOUNDS pp pp pp
-1.31397 41.814
0.347897 40.1521
0.339856 40.1601
ITEM: ATOMS mass type id x y z vx vy vz fx fy fz xrad yrad zrad vxrad vyrad vzrad fxrad fyrad fzrad 
26.982 1 3 0.863181 0.173868 2.33665 2.44029 1.08809 -1.22338 0.0853446 0.472422 -0.178974 0 0 0 0 0 0 0 0 0 
26.982 1 8 3.00538 2.45456 2.45449 -0.410018 3.45248 1.52843 0.478829 -0.351007 -0.132391 0 0 0 0 0 0 0 0 0 
26.982 1 43 0.991776 4.24346 2.31054 -1.07466 1.91068 1.52438 -0.474986 0.424539 0.408294 0 0 0 0 0 0 0 0 0 
26.982 1 202 0.834331 2.37545 4.41373 -4.03338 -1.18806 3.21331 0.135655 -0.0884178 -0.212796 0 0 0 0 0 0 0 0 0 
26.982 1 201 -1.44673 0.324957 4.35847 4.39559 -4.29048 5.07733 0.575438 -0.359063 -0.115652 0 0 0 0 0 0 0 0 0 
26.982 1 245 3.02761 4.42333 4.43883 -0.192153 -3.70805 2.8357 -0.109847 -0.585998 -0.239261 0 0 0 0 0 0 0 0 0 
26.982 1 241 -1.27946 4.45987 4.44599 -2.39648 6.59922 5.19887 0.0569809 -0.425746 -0.462423 0 0 0 0 0 0 0 0 0 
26.982 1 205 3.14047 0.180672 4.132 0.415668 -1.21084 0.140262 -0.511463 0.609862 0.754397 0 0 0 0 0 0 0 0 0 
26.982 1 47 5.15403 4.4346 2.55325 5.67631 0.293356 2.42426 -0.316234 -0.344923 -0.446396 0 0 0 0 0 0 0 0 0 
26.982 1 206 5.27313 2.27629 4.43819 -0.431036 -5.03832 -2.48113 -0.2108 0.0601532 -0.474639 0 0 0 0 0 0 0 0 0 
26.982 1 249 7.28581 4.37452 4.40873 2.07918 2.1119 -2.80499 0.295378 -0.601793 -0.0646555 0 0 0 0 0 0 0 0 0 
26.982 1 209 7.25401 0.326762 4.42399 -2.84235 8.09093 -1.25092 0.154162 -0.0272244 -0.276246 0 0 0 0 0 0 0 0 0 
26.982 1 7 5.2493 0.321605 2.37072 2.29301 0.300013 1.22926 -0.122504 0.543359 -0.0747227 0 0 0 0 0 0 0 0 0 
26.982 1 6 5.26231 2.42257 0.325707 -1.87229 4.04053 -0.988894 -0.36329 0.129659 0.402146 0 0 0 0 0 0 0 0 0 
26.982 1 49 7.29383 4.36529 0.455189 1.02657 -3.7154 -0.739519 0.0136332 -0.170865 -0.427689 0 0 0 0 0 0 0 0 0 
26.982 1 12 7.43384 2.29554 2.32652 5.18287 -3.99397 1.73358 -0.558042 0.181092 0.399046 0 0 0 0 0 0 0 0 0 
26.982 1 51 9.42905 4.32635 2.39505 3.9374 7.22419 2.85484 0.265543 0.203507 0.205785 0 0 0 0 0 0 0 0 0 
26.982 1 210 9.41328 2.28232 4.41065 4.01765 -1.93535 2.81276 0.0798193 0.200658 -0.118818 0 0 0 0 0 0 0 0 0 
26.982 1 11 9.42683 0.337055 2.42863 0.662053 -1.76175 -2.80151 0.131924 -0.02406 -0.45592 0 0 0 0 0 0 0 0 0 
26.982 1 16 11.5745 2.24878 2.20845 0.462835 -2.59678 0.00850287 0.269118 0.273125 0.350648 0 0 0 0 0 0 0 0 0 
26.982 1 253 11.7011 4.24872 4.15785 -0.553806 -0.635687 -3.82094 -0.260598 -0.0845903 0.149975 0 0 0 0 0 0 0 0 0 
26.982 1 55 13.8262 4.25569 2.23355 0.494584 2.21024 3.66479 -0.228333 -0.329742 0.0960766 0 0 0 0 0 0 0 0 0 
26.982 1 214 13.792 2.20166 4.33387 4.17249 1.23983 1.04926 -0.368286 0.412598 -0.0594681 0 0 0 0 0 0 0 0 0 
26.982 1 257 15.8178 4.24871 4.15705 1.3399 -2.47269 1.46604 0.212159 0.0892421 0.345058 0 0 0 0 0 0 0 0 0 
26.982 1 213 11.6248 0.371539 4.31415 0.49281 1.02163 1.73893 0.0164168 -0.184925 -0.0303723 0 0 0 0 0 0 0 0 0 
26.982 1 20 15.9588 2.13894 2.15554 -1.15749 1.79639 -0.803717 -0.247249 0.456887 0.402348 0 0 0 0 0 0 0 0 0 
26.982 1 218 18.0618 2.4489 4.18609 1.1394 -4.88208 -3.04913 -0.0364277 -0.251619 0.531769 0 0 0 0 0 0 0 0 0 
26.982 1 59 17.975 4.45392 2.23466 -2.41606 -1.74238 -0.807435 0.195983 -0.372832 0.488722 0 0 0 0 0 0 0 0 0 
26.982 1 217 15.7364 0.319219 4.39099 -4.418 1.16215 -3.51253 0.783367 -0.290523 0.178144 0 0 0 0 0 0 0 0 0 
26.982 1 19 18.1793 0.378267 2.33609 1.57578 3.51113 0.162995 -0.0795584 -0.11199 -0.0693423 0 0 0 0 0 0 0 0 0 
26.982 1 57 15.7592 4.28976 0.292699 -1.10153 5.02902 -1.12578 0.301048 -0.0245962 0.149252 0 0 0 0 0 0 0 0 0 
26.982 1 21 20.2226 0.301775 0.20134 -2.99805 2.44591 -0.629373 0.0859961 0.424033 0.44795 0 0 0 0 0 0 0 0 0 
26.982 1 261 20.3809 4.26259 4.43187 1.46465 2.53545 -3.80261 -0.402517 0.164932 -0.143288 0 0 0 0 0 0 0 0 0 
26.982 1 24 20.2113 2.47248 2.3548 6.60721 2.87424 -0.441599 0.0506321 -0.261998 0.0227727 0 0 0 0 0 0 0 0 0 
26.982 1 63 22.4907 4.38648 2.44067 -2.71751 4.23698 -6.4137 -0.387009 -0.111892 -0.455173 0 0 0 0 0 0 0 0 0 
26.982 1 222 22.4375 2.40638 4.40825 -2.91488 0.637366 4.98386 -0.130432 -0.201377 0.00770848 0 0 0 0 0 0 0 0 0 
26.982 1 28 24.4748 2.46385 2.32777 0.92444 -1.08794 2.44991 0.269868 -0.174214 0.148172 0 0 0 0 0 0 0 0 0 
26.982 1 61 20.2113 4.36001 0.325534 0.463427 -0.17252 5.11778 0.274301 0.0554432 0.0466982 0 0 0 0 0 0 0 0 0 
26.982 1 22 22.2315 2.35954 0.404587 0.587883 1.93177 -1.31906 0.284917 0.398678 -0.566188 0 0 0 0 0 0 0 0 0 
26.982 1 265 24.4742 4.41379 4.51318 4.98106 -2.04714 -0.154653 0.500615 -0.21362 -0.159602 0 0 0 0 0 0 0 0 0 
26.982 1 67 26.6942 4.43156 2.41357 1.33505 -0.3854 0.619962 -0.0762101 -0.0731925 0.0904155 0 0 0 0 0 0 0 0 0 
26.982 1 226 26.8125 2.32021 4.34399 -1.26256 -1.09592 -4.63895 -0.231532 0.328647 0.152693 0 0 0 0 0 0 0 0 0 
26.982 1 32 28.8079 2.35905 2.17917 3.64087 0.98896 0.135063 0.256014 0.343274 0.599694 0 0 0 0 0 0 0 0 0 
26.982 1 269 29.0137 4.37971 4.322 -1.07092 -0.950666 2.47854 -0.619659 -0.109918 0.201588 0 0 0 0 0 0 0 0 0 
26.982 1 27 26.5185 0.502867 2.20454 -7.60271 -0.4155 -2.00567 0.231812 -0.253284 0.711419 0 0 0 0 0 0 0 0 0 
26.982 1 26 26.8405 2.31937 0.322511 -2.40414 -2.43848 8.79921 -0.303002 0.684225 -0.26638 0 0 0 0 0 0 0 0 0 
26.982 1 71 30.9599 4.30966 2.24272 -0.191258 -0.197975 0.931533 0.298443 0.143515 0.444627 0 0 0 0 0 0 0 0 0 
26.982 1 230 31.0011 2.43117 4.30555 -4.49728 0.871634 -1.5978 0.0863655 -0.27541 -0.183013 0 0 0 0 0 0 0 0 0 
26.982 1 233 33.1793 0.34943 4.30686 -4.5194 4.81189 -6.30388 -0.0284216 0.0406345 0.0121458 0 0 0 0 0 0 0 0 0 
26.982 1 273 33.0903 4.25398 4.30829 -2.32071 -0.313632 2.44595 0.252709 0.139544 -0.29591 0 0 0 0 0 0 0 0 0 
26.982 1 229 28.8161 0.417092 4.23935 5.47528 0.726091 1.00568 0.1429 -0.178155 0.0289802 0 0 0 0 0 0 0 0 0 
26.982 1 29 29.1687 0.556282 0.271929 2.50875 1.42304 1.27181 -0.586621 -0.33885 -0.188486 0 0 0 0 0 0 0 0 0 
26.982 1 73 33.2799 4.37004 0.350603 0.0431518 -2.00146 -0.210869 -0.00294163 -0.127516 0.124438 0 0 0 0 0 0 0 0 0 
26.982 1 36 33.3111 2.24542 2.17942 0.140758 -2.64108 0.574627 -0.271707 0.404234 0.507391 0 0 0 0 0 0 0 0 0 
26.982 1 75 35.3219 4.44815 2.44054 0.862083 -2.99575 4.10783 0.0318249 -0.0994441 -0.0981845 0 0 0 0 0 0 0 0 0 
26.982 1 234 35.3045 2.27673 4.2837 -2.6111 -1.78729 -0.871056 0.0628555 0.174228 0.316289 0 0 0 0 0 0 0 0 0 
26.982 1 40 37.3809 2.44442 2.39514 6.33071 -2.67006 -0.353713 0.608528 -0.203398 0.494462 0 0 0 0 0 0 0 0 0 
26.982 1 37 37.5079 0.403656 0.520298 -7.10747 -4.24228 -3.37299 0.00718183 -0.1223 -0.376964 0 0 0 0 0 0 0 0 0 
26.982 1 34 35.4797 2.43726 0.440116 -3.47925 -3.07549 -3.45373 -0.189454 -0.101209 -0.384237 0 0 0 0 0 0 0 0 0 
26.982 1 277 37.5267 4.41631 4.38425 0.334577 -3.02114 -2.33538 0.000433788 -0.218536 -0.0681343 0 0 0 0 0 0 0 0 0 
26.982 1 4 41.8187 2.19801 2.37976 -0.155451 -1.89746 3.34098 0.116637 0.474745 0.149693 0 0 0 0 0 0 0 0 0 
26.982 1 79 39.8261 4.39214 2.43277 4.28915 -4.77987 0.836544 -0.305432 -0.292726 -0.125838 0 0 0 0 0 0 0 0 0 
26.982 1 238 39.7408 2.33378 4.47487 1.88637 -4.48063 0.0646115 -0.527406 0.287235 -0.690739 0 0 0 0 0 0 0 0 0 
26.982 1 1 41.8361 0.288844 0.368625 -0.841294 -2.97039 2.28107 0.207952 0.196156 -0.19538 0 0 0 0 0 0 0 0 0 
26.982 1 39 39.7131 0.23403 2.47405 1.72643 4.38527 4.2637 -0.215379 0.4723 -0.135738 0 0 0 0 0 0 0 0 0 
26.982 1 38 39.6342 2.17082 0.547441 -0.0503517 2.38601 3.00137 0.165237 0.570704 -0.108346 0 0 0 0 0 0 0 0 0 
26.982 1 83 0.752663 8.21605 2.40759 -2.11015 7.03681 3.12283 0.115515 0.539393 -0.244493 0 0 0 0 0 0 0 0 0 
26.982 1 242 0.873593 6.22284 4.3937 4.94719 0.356807 -0.245353 -0.562971 -0.0557938 -0.389042 0 0 0 0 0 0 0 0 0 
26.982 1 285 2.8841 8.45505 4.24203 3.31182 3.97986 0.103587 0.20445 -0.0630466 0.746724 0 0 0 0 0 0 0 0 0 
26.982 1 42 0.919967 6.17508 0.278065 -0.127744 -2.36632 7.51072 -0.307638 0.401054 0.286333 0 0 0 0 0 0 0 0 0 
26.982 1 281 -1.28499 8.33996 4.39581 1.33272 -4.90189 0.559711 -0.116776 -0.201862 -0.406643 0 0 0 0 0 0 0 0 0 
26.982 1 84 -1.24008 10.4345 2.40847 -1.01534 2.55379 3.81091 -0.16927 -0.499644 -0.677902 0 0 0 0 0 0 0 0 0 
26.982 1 48 2.91691 6.51545 2.51147 0.632536 -3.74867 4.46534 0.312983 -0.954697 -0.2149 0 0 0 0 0 0 0 0 0 
26.982 1 87 5.21105 8.27495 2.27651 -2.29237 4.83413 2.62706 -0.00123426 0.18271 0.228181 0 0 0 0 0 0 0 0 0 
26.982 1 246 5.01209 6.47601 4.49194 0.597748 4.00201 0.805902 0.0903183 -0.205893 -0.291505 0 0 0 0 0 0 0 0 0 
26.982 1 52 7.25577 6.14241 2.44455 -0.785537 -0.738881 -4.45216 0.276186 0.843583 -0.203494 0 0 0 0 0 0 0 0 0 
26.982 1 289 7.13646 8.19549 4.28847 4.20972 -1.57159 -3.73383 0.411539 0.077795 0.419003 0 0 0 0 0 0 0 0 0 
26.982 1 92 7.32576 10.2116 2.34486 -2.01852 1.4017 -0.515728 0.00147848 0.30604 -0.399549 0 0 0 0 0 0 0 0 0 
26.982 1 91 9.3946 8.23739 2.31626 2.11632 -1.84214 -0.0141387 0.0567019 -0.25863 -0.236709 0 0 0 0 0 0 0 0 0 
26.982 1 250 9.52533 6.42993 4.40273 -8.95268 -3.11571 -0.890441 -0.326484 -0.383477 -0.396589 0 0 0 0 0 0 0 0 0 
26.982 1 50 9.41917 6.31856 0.31415 -0.0973272 -1.05666 3.67135 0.0203284 0.134121 0.293102 0 0 0 0 0 0 0 0 0 
26.982 1 290 9.28072 10.1346 4.17446 0.642448 3.16921 -1.69969 0.254841 0.440465 0.39646 0 0 0 0 0 0 0 0 0 
26.982 1 93 11.6533 8.27677 0.251516 0.0141752 -2.24643 -2.98594 -0.285915 0.167586 0.285252 0 0 0 0 0 0 0 0 0 
26.982 1 56 11.6051 6.32704 2.34893 -1.4685 1.69519 3.30119 -0.279687 -0.0478965 -0.00747508 0 0 0 0 0 0 0 0 0 
26.982 1 293 11.5664 8.39487 4.27849 -7.68337 -2.2584 -2.05423 0.112076 0.0825143 -0.194095 0 0 0 0 0 0 0 0 0 
26.982 1 95 13.6109 8.27946 2.29369 5.07546 1.28052 -1.8318 0.375839 0.115828 0.0819087 0 0 0 0 0 0 0 0 0 
26.982 1 254 13.7278 6.32881 4.24427 2 -0.42486 0.557184 0.208494 0.0543779 0.111438 0 0 0 0 0 0 0 0 0 
26.982 1 297 15.9083 8.29615 4.20409 0.627025 -1.88266 -1.66354 -0.438022 0.263327 0.188811 0 0 0 0 0 0 0 0 0 
26.982 1 294 13.834 10.293 4.14375 -2.07733 0.794052 -1.03299 -0.715934 0.228623 0.420731 0 0 0 0 0 0 0 0 0 
26.982 1 94 13.8335 10.2384 0.398678 0.711467 -4.07924 1.20308 -0.482157 -0.0805922 -0.411091 0 0 0 0 0 0 0 0 0 
26.982 1 96 11.5191 10.2767 2.28587 7.1369 -3.83683 5.15663 0.246436 -0.00408793 -0.15741 0 0 0 0 0 0 0 0 0 
26.982 1 54 13.6676 6.31275 0.471758 -1.58903 -6.32346 -1.43171 0.268641 0.0521929 -0.596012 0 0 0 0 0 0 0 0 0 
26.982 1 60 15.9732 6.37902 2.28785 6.68014 -2.585 0.70204 -0.610393 -0.22817 -0.275265 0 0 0 0 0 0 0 0 0 
26.982 1 99 18.0804 8.24944 2.31623 0.699778 -0.155024 1.01022 0.0238413 0.460153 -0.396735 0 0 0 0 0 0 0 0 0 
26.982 1 258 17.8485 6.44916 4.24862 -2.72458 -2.03213 4.67126 0.809217 -0.631966 0.336403 0 0 0 0 0 0 0 0 0 
26.982 1 298 17.9758 10.3668 4.24497 -2.46254 0.309542 2.87836 0.000257311 -0.257207 -0.167166 0 0 0 0 0 0 0 0 0 
26.982 1 301 20.2579 8.40121 4.22922 0.274226 2.66434 4.1221 -0.246187 -0.333333 0.30197 0 0 0 0 0 0 0 0 0 
26.982 1 64 20.2023 6.2673 2.40764 -1.7602 -3.19292 -2.03979 0.12351 0.054693 -0.0212369 0 0 0 0 0 0 0 0 0 
26.982 1 103 22.4114 8.41347 2.35361 -0.0030361 -3.45349 -3.9125 -0.0293863 -0.168401 0.160759 0 0 0 0 0 0 0 0 0 
26.982 1 262 22.3904 6.28739 4.38446 -0.427814 0.520757 2.56575 -0.140612 0.330497 0.234926 0 0 0 0 0 0 0 0 0 
26.982 1 102 22.3358 10.3247 0.444348 0.0333883 3.02351 -4.05243 0.00222319 0.158537 0.0730075 0 0 0 0 0 0 0 0 0 
26.982 1 108 24.762 10.3123 2.29793 3.10821 3.94311 -5.68644 -0.17318 -0.137888 0.426271 0 0 0 0 0 0 0 0 0 
26.982 1 62 22.4773 6.34875 0.368863 -0.0279017 1.99476 1.02056 -0.227001 -0.0849526 0.233605 0 0 0 0 0 0 0 0 0 
26.982 1 305 24.6347 8.37511 4.21234 0.0472868 2.07972 -6.45306 -0.220104 0.150529 0.730037 0 0 0 0 0 0 0 0 0 
26.982 1 68 24.4245 6.33664 2.53637 -0.376883 3.09092 2.32847 0.55784 -0.0546244 -0.643963 0 0 0 0 0 0 0 0 0 
26.982 1 107 26.8404 8.28187 2.27566 2.1119 3.01772 -1.54583 -0.324922 0.134077 0.0862013 0 0 0 0 0 0 0 0 0 
26.982 1 266 26.7735 6.48297 4.4976 -2.80148 2.03323 -3.27813 -0.0740572 -0.334512 -0.348086 0 0 0 0 0 0 0 0 0 
26.982 1 72 28.7574 6.39949 2.31023 0.789061 1.52015 -1.56925 0.441045 -0.477673 0.166076 0 0 0 0 0 0 0 0 0 
26.982 1 112 29.0762 10.3154 2.13961 -5.85042 2.5163 -2.71722 -0.249885 0.0671344 0.503352 0 0 0 0 0 0 0 0 0 
26.982 1 306 26.7957 10.2139 4.32192 5.62868 -1.85707 -0.434789 -0.0470727 0.0318417 -0.0190688 0 0 0 0 0 0 0 0 0 
26.982 1 309 29.0359 8.38138 4.03314 -3.54518 0.27055 1.24879 -0.159153 0.0502495 0.77898 0 0 0 0 0 0 0 0 0 
26.982 1 111 31.1877 8.35055 2.36468 2.51686 2.62183 -1.57316 -0.389383 0.0626052 -0.292538 0 0 0 0 0 0 0 0 0 
26.982 1 270 30.9865 6.32464 4.3458 5.04028 -4.69391 1.54698 0.23083 -0.286147 -0.306318 0 0 0 0 0 0 0 0 0 
26.982 1 70 31.0793 6.24835 0.396215 2.48249 -5.29343 -2.05856 0.0976689 0.376295 -0.368042 0 0 0 0 0 0 0 0 0 
26.982 1 313 33.1733 8.53933 4.18621 1.55106 -1.57003 0.589696 0.702031 -0.53436 0.187326 0 0 0 0 0 0 0 0 0 
26.982 1 76 33.2382 6.39521 2.37876 -2.037 -1.09747 -3.96479 -0.0294123 -0.254633 0.120536 0 0 0 0 0 0 0 0 0 
26.982 1 115 35.5198 8.60572 2.37407 4.8788 5.4001 -1.44772 -0.622043 -0.816101 -0.180179 0 0 0 0 0 0 0 0 0 
26.982 1 274 35.306 6.38155 4.41678 -1.62583 3.2047 2.9411 0.0266891 0.102188 -0.243158 0 0 0 0 0 0 0 0 0 
26.982 1 317 37.5552 8.4683 4.24128 -3.1662 2.47672 1.77963 -0.0968602 -0.277401 0.288818 0 0 0 0 0 0 0 0 0 
26.982 1 74 35.4129 6.36796 0.371329 0.817443 0.608184 3.56426 -0.0498607 0.102351 0.230065 0 0 0 0 0 0 0 0 0 
26.982 1 114 35.3193 10.4933 0.312878 -0.686528 0.932023 -0.0509696 0.198445 -0.786482 -0.182445 0 0 0 0 0 0 0 0 0 
26.982 1 113 33.1348 8.36424 0.490133 -2.90135 2.95381 -3.94378 0.310092 -0.0721733 -0.708687 0 0 0 0 0 0 0 0 0 
26.982 1 44 41.8955 6.37898 2.31106 -2.60583 3.6308 2.37102 0.123459 -0.330473 0.0980054 0 0 0 0 0 0 0 0 0 
26.982 1 117 37.4896 8.34373 0.498441 0.559397 -0.241337 2.64734 0.199573 0.415662 -0.51065 0 0 0 0 0 0 0 0 0 
26.982 1 80 37.4547 6.4363 2.35125 -2.53272 3.81735 4.75943 0.224934 -0.455151 0.136634 0 0 0 0 0 0 0 0 0 
26.982 1 119 39.8877 8.30626 2.20594 -3.33206 -1.46981 -3.57738 -0.204299 0.359545 0.0314866 0 0 0 0 0 0 0 0 0 
26.982 1 278 39.6353 6.48572 4.23433 0.61159 3.56285 -2.28771 0.049426 -0.164371 0.187828 0 0 0 0 0 0 0 0 0 
26.982 1 123 0.85783 12.3731 2.38292 4.43129 7.28922 1.4278 -0.0293595 -0.161154 -0.117423 0 0 0 0 0 0 0 0 0 
26.982 1 282 0.7978 10.3422 4.2962 4.65408 2.28499 2.79984 0.20653 -0.0356814 0.0123845 0 0 0 0 0 0 0 0 0 
26.982 1 322 0.738802 14.2816 4.29436 0.521291 -5.08878 2.83883 0.389349 0.317167 -0.127831 0 0 0 0 0 0 0 0 0 
26.982 1 124 -1.35998 14.398 2.27199 1.42635 -1.41275 4.70109 0.2634 -0.273672 0.191159 0 0 0 0 0 0 0 0 0 
26.982 1 321 -1.46815 12.1746 4.38598 0.306778 -3.78902 6.8898 0.0589414 -0.00171098 -0.281757 0 0 0 0 0 0 0 0 0 
26.982 1 325 2.97974 12.3023 4.32566 1.08879 1.37971 -0.387404 -0.0251414 -0.19146 0.312739 0 0 0 0 0 0 0 0 0 
26.982 1 122 0.858133 14.3844 0.433434 0.222646 -4.60859 -6.60426 -0.297842 -0.213954 -0.0670538 0 0 0 0 0 0 0 0 0 
26.982 1 286 5.23478 10.1535 4.37295 -3.84266 0.135479 1.52024 -0.403819 0.144966 0.235029 0 0 0 0 0 0 0 0 0 
26.982 1 88 3.17422 10.2735 2.4333 -6.97596 -0.366392 7.61875 -0.550908 0.31267 -0.428159 0 0 0 0 0 0 0 0 0 
26.982 1 128 3.19627 14.3283 2.58704 2.44819 -4.09541 1.32833 -0.741314 -0.171305 -0.292457 0 0 0 0 0 0 0 0 0 
26.982 1 125 2.94189 12.299 0.5243 -1.56117 3.55149 -2.16187 0.188237 0.129789 -0.251485 0 0 0 0 0 0 0 0 0 
26.982 1 127 5.17502 12.3366 2.61703 -1.71226 1.9121 0.0107605 -0.0370047 0.185105 -0.52017 0 0 0 0 0 0 0 0 0 
26.982 1 326 5.2905 14.406 4.50969 -0.290592 2.369 4.06518 -0.253767 -0.317568 -0.0130366 0 0 0 0 0 0 0 0 0 
26.982 1 126 5.09286 14.1761 0.359736 5.74022 -2.42303 -5.09061 0.601967 -0.13009 -0.0640231 0 0 0 0 0 0 0 0 0 
26.982 1 132 7.42874 14.3165 2.44854 -4.49932 2.61713 -4.39181 -0.141166 -0.343931 -0.759354 0 0 0 0 0 0 0 0 0 
26.982 1 329 7.23473 12.2034 4.26083 1.34225 3.72092 -0.717141 0.462715 0.145704 0.328142 0 0 0 0 0 0 0 0 0 
26.982 1 131 9.50978 12.3353 2.24994 0.19864 -5.79159 -1.55844 -0.291826 -0.118021 -0.18072 0 0 0 0 0 0 0 0 0 
26.982 1 330 9.5945 14.173 4.34527 -5.12286 1.32975 0.914621 -0.168222 0.416154 -0.333824 0 0 0 0 0 0 0 0 0 
26.982 1 333 11.5045 12.2524 4.12145 -2.4767 0.0394937 -8.33831 0.434075 -0.088599 0.481108 0 0 0 0 0 0 0 0 0 
26.982 1 136 11.5653 14.4239 2.19957 1.90846 -6.32426 -3.20374 0.134056 -0.413578 -0.065974 0 0 0 0 0 0 0 0 0 
26.982 1 135 13.7149 12.4617 2.16918 0.881385 -0.282631 -1.54933 -0.321165 -0.602739 0.296168 0 0 0 0 0 0 0 0 0 
26.982 1 334 13.6774 14.3208 4.20006 0.0598255 2.07535 -0.761974 -0.321726 0.237208 0.19692 0 0 0 0 0 0 0 0 0 
26.982 1 134 13.8268 14.3531 0.331715 -0.841509 5.70768 -2.13988 -0.493317 0.288245 0.11637 0 0 0 0 0 0 0 0 0 
26.982 1 140 15.9816 14.0979 2.20062 0.477033 -4.44668 -6.63531 -0.0793173 0.859854 0.282572 0 0 0 0 0 0 0 0 0 
26.982 1 100 15.7194 10.3427 2.31357 2.48203 0.0154847 3.2654 0.722372 -0.0533541 0.0886978 0 0 0 0 0 0 0 0 0 
26.982 1 337 15.6594 12.528 4.44135 -0.875717 0.893133 -2.8672 0.420593 -0.60124 -0.434007 0 0 0 0 0 0 0 0 0 
26.982 1 139 17.9698 12.2587 2.29817 -3.03026 3.75667 1.1496 0.111737 0.0749318 0.0957032 0 0 0 0 0 0 0 0 0 
26.982 1 338 17.9889 14.407 4.29306 0.204325 -0.561082 -2.03181 -0.159965 -0.44147 -0.214284 0 0 0 0 0 0 0 0 0 
26.982 1 341 20.1324 12.2844 4.2901 -3.39584 -3.94055 -0.163377 -0.0252429 0.130525 0.129187 0 0 0 0 0 0 0 0 0 
26.982 1 104 20.1696 10.3574 2.22821 2.08819 5.00258 -3.41783 -0.171743 -0.222089 0.00514595 0 0 0 0 0 0 0 0 0 
26.982 1 137 15.8156 12.2096 0.3065 -1.73418 -5.40764 -5.36495 0.176502 0.0793893 -0.422103 0 0 0 0 0 0 0 0 0 
26.982 1 138 18.0885 14.2995 0.243193 1.63073 -2.6984 2.76543 -0.142061 0.0971568 0.218106 0 0 0 0 0 0 0 0 0 
26.982 1 302 22.2359 10.3646 4.48318 2.41795 1.14362 4.62903 0.479984 -0.297524 0.111127 0 0 0 0 0 0 0 0 0 
26.982 1 144 20.155 14.3121 2.28909 -0.525989 0.820601 0.798318 0.293159 -0.0604412 0.242633 0 0 0 0 0 0 0 0 0 
26.982 1 142 22.4594 14.3105 0.434202 0.112579 0.500488 4.34203 0.00572798 -0.39818 0.0281569 0 0 0 0 0 0 0 0 0 
26.982 1 143 22.5205 12.0819 2.54711 5.25904 -0.936171 -0.502686 -0.391843 0.455202 -0.635684 0 0 0 0 0 0 0 0 0 
26.982 1 342 22.4076 14.1099 4.31488 -0.919141 -2.87967 -2.06285 -0.154479 0.165576 0.0250842 0 0 0 0 0 0 0 0 0 
26.982 1 345 24.6556 12.2109 4.39593 -0.671198 -1.89703 3.13393 -0.0737783 -0.347455 0.265379 0 0 0 0 0 0 0 0 0 
26.982 1 145 24.4274 12.1348 0.440382 0.452511 2.45242 -3.76414 0.286893 0.716381 -0.294639 0 0 0 0 0 0 0 0 0 
26.982 1 148 24.5742 14.0802 2.43992 3.95442 1.24819 -2.01886 -0.0813212 0.48938 -0.461294 0 0 0 0 0 0 0 0 0 
26.982 1 147 26.7556 12.2815 2.10314 -1.49229 -1.06444 1.33921 0.0606695 -0.114197 0.591658 0 0 0 0 0 0 0 0 0 
26.982 1 346 26.7392 14.1545 4.21463 -4.62976 -5.21113 -1.68781 -0.0156747 0.226405 0.501002 0 0 0 0 0 0 0 0 0 
26.982 1 152 28.843 14.3529 2.35701 2.43306 -0.480676 1.04176 0.471559 -0.388255 0.00520283 0 0 0 0 0 0 0 0 0 
26.982 1 146 26.7179 14.3137 0.348214 -2.09338 0.696347 8.2946 -0.364218 -0.0582624 -0.563593 0 0 0 0 0 0 0 0 0 
26.982 1 310 31.1976 10.4338 4.31476 -6.04622 5.57372 -0.702987 -0.660625 -0.371709 -0.211303 0 0 0 0 0 0 0 0 0 
26.982 1 349 28.762 12.2446 4.16019 -3.48474 -0.689445 -0.0110725 0.351871 -0.180988 0.422203 0 0 0 0 0 0 0 0 0 
26.982 1 151 31.1083 12.2678 2.41446 5.12375 1.38494 -0.708586 -0.177073 0.588723 -0.59393 0 0 0 0 0 0 0 0 0 
26.982 1 350 30.9373 14.3376 4.37251 -1.73083 -5.45546 -7.22412 0.215995 -0.118937 -0.103288 0 0 0 0 0 0 0 0 0 
26.982 1 353 33.117 12.2973 4.36989 2.03013 5.44361 -1.03798 0.51012 0.453694 -0.0078439 0 0 0 0 0 0 0 0 0 
26.982 1 150 31.0006 14.3841 0.349889 2.45658 -1.65922 3.58161 0.0670921 -0.627198 0.479374 0 0 0 0 0 0 0 0 0 
26.982 1 153 33.1699 12.2304 0.254212 6.24472 4.55419 1.35908 -0.344762 0.486029 0.155844 0 0 0 0 0 0 0 0 0 
26.982 1 116 33.3371 10.4254 2.19808 -1.97868 0.0245192 -1.25145 -0.309755 0.104638 0.490616 0 0 0 0 0 0 0 0 0 
26.982 1 314 35.3946 10.4747 4.25994 4.05536 1.21026 -9.01619 -0.165433 0.303823 0.243838 0 0 0 0 0 0 0 0 0 
26.982 1 155 35.4018 12.4878 2.16693 5.36724 2.77454 4.55806 -0.24881 -0.705172 0.559556 0 0 0 0 0 0 0 0 0 
26.982 1 156 33.2654 14.2677 2.28364 4.49481 0.753994 -1.25702 -0.581212 0.10171 0.047881 0 0 0 0 0 0 0 0 0 
26.982 1 354 35.2893 14.2456 4.42084 1.04598 1.29735 7.15634 0.100104 0.0866274 -0.29116 0 0 0 0 0 0 0 0 0 
26.982 1 154 35.2204 14.3472 0.325305 -0.334354 0.384926 1.66254 0.0248313 0.239662 -0.672347 0 0 0 0 0 0 0 0 0 
26.982 1 318 39.6024 10.2328 4.27363 -4.25504 1.9847 5.24635 0.306305 0.376185 0.125018 0 0 0 0 0 0 0 0 0 
26.982 1 120 37.5728 10.3874 2.32378 -0.689304 -4.50561 0.363917 -0.084921 0.266036 -0.169768 0 0 0 0 0 0 0 0 0 
26.982 1 160 37.3447 14.2918 2.16141 -3.47308 -1.75649 -0.399059 0.54103 -0.0528153 0.611305 0 0 0 0 0 0 0 0 0 
26.982 1 357 37.4914 12.4508 4.13201 0.344644 0.473265 -0.621894 0.186471 0.0140237 0.574209 0 0 0 0 0 0 0 0 0 
26.982 1 159 39.617 12.3046 2.23827 -1.78838 -0.315942 2.43716 0.127567 0.193084 0.121609 0 0 0 0 0 0 0 0 0 
26.982 1 358 39.8387 14.2968 4.29032 -1.81593 -0.247733 -0.575186 -0.766967 0.144341 -0.319889 0 0 0 0 0 0 0 0 0 
26.982 1 121 41.8643 12.3419 0.363938 -4.15739 -3.6168 0.821244 -0.0767584 -0.165142 -0.100646 0 0 0 0 0 0 0 0 0 
26.982 1 163 0.698928 16.4649 2.36829 1.87745 1.79707 2.88106 0.573311 -0.495178 -0.0461005 0 0 0 0 0 0 0 0 0 
26.982 1 362 0.972852 18.2554 4.56584 -1.65565 0.141493 5.61538 -0.225218 0.385326 -0.438144 0 0 0 0 0 0 0 0 0 
26.982 1 164 -1.22197 18.4119 2.26129 2.33842 2.66737 0.129954 -0.16194 0.0558819 0.17739 0 0 0 0 0 0 0 0 0 
26.982 1 168 2.91719 18.1807 2.47728 1.33787 -0.813923 -1.35527 0.329955 -0.111897 -0.327296 0 0 0 0 0 0 0 0 0 
26.982 1 365 2.90234 16.296 4.46286 0.45904 -2.57652 -1.48389 0.44336 -0.534396 -0.0868868 0 0 0 0 0 0 0 0 0 
26.982 1 161 -1.30244 16.4484 0.307831 -3.4046 1.17535 0.445949 0.0308053 -0.13286 -0.168514 0 0 0 0 0 0 0 0 0 
26.982 1 167 5.11514 16.1504 2.44383 -2.23586 -2.93619 -5.20881 0.253311 0.513285 -0.403335 0 0 0 0 0 0 0 0 0 
26.982 1 366 5.16223 18.1717 4.33224 3.12521 -5.39392 -2.7826 0.107063 0.259282 0.0861203 0 0 0 0 0 0 0 0 0 
26.982 1 2007 5.22336 20.1799 2.25775 1.0824 6.91073 0.868413 -0.132859 0.0645719 0.100121 0 0 0 0 0 0 0 0 0 
26.982 1 169 7.22185 16.4438 0.378729 2.67312 -0.309476 -3.49526 -0.0444206 -0.693474 0.092817 0 0 0 0 0 0 0 0 0 
26.982 1 172 7.33836 18.2922 2.46706 0.627522 3.47852 2.94642 -0.058903 0.169904 -0.466168 0 0 0 0 0 0 0 0 0 
26.982 1 369 7.40872 16.2703 4.15959 -3.75974 1.93031 -2.15886 0.15074 0.200557 0.774291 0 0 0 0 0 0 0 0 0 
26.982 1 171 9.51922 16.4048 2.18285 2.76578 0.290245 -6.48557 -0.0792239 -0.38068 0.384766 0 0 0 0 0 0 0 0 0 
26.982 1 370 9.50641 18.2903 4.37019 -1.74831 -1.95576 0.734826 -0.278915 -0.268345 -0.138818 0 0 0 0 0 0 0 0 0 
26.982 1 2209 7.27933 20.2485 4.43289 4.42162 6.91137 -2.96212 0.0797529 0.402513 -0.123513 0 0 0 0 0 0 0 0 0 
26.982 1 2011 9.39919 20.3687 2.56738 3.16296 4.23778 1.15343 -0.00211007 -0.0634292 -0.451914 0 0 0 0 0 0 0 0 0 
26.982 1 176 11.6187 18.4142 2.24826 -1.5663 -5.14233 2.69314 -0.10584 0.161126 0.0930735 0 0 0 0 0 0 0 0 0 
26.982 1 2217 15.8843 20.1734 4.25122 -4.71763 1.81207 1.23589 -0.0386676 0.0603481 -0.0517639 0 0 0 0 0 0 0 0 0 
26.982 1 373 11.6233 16.2573 4.15478 -0.480856 -2.95768 -1.24185 -0.0796624 0.193686 0.572402 0 0 0 0 0 0 0 0 0 
26.982 1 175 13.7261 16.5993 2.2308 -7.01017 3.57263 1.0765 0.0304915 -0.662187 0.00314741 0 0 0 0 0 0 0 0 0 
26.982 1 374 13.6475 18.3292 4.33036 -2.52179 -4.90279 2.38867 0.19606 -0.0291951 0.173998 0 0 0 0 0 0 0 0 0 
26.982 1 377 15.688 16.2095 4.22225 0.0624111 -3.17687 3.22037 0.480435 0.205847 0.106377 0 0 0 0 0 0 0 0 0 
26.982 1 174 13.6678 18.4086 0.0632509 0.453857 -3.0631 1.04142 0.293445 -0.289412 0.447948 0 0 0 0 0 0 0 0 0 
26.982 1 2015 13.7091 20.2787 2.26023 -0.885638 -0.932689 -6.37402 -0.0937912 -0.0921374 0.112636 0 0 0 0 0 0 0 0 0 
26.982 1 180 15.8828 18.257 2.24505 4.77821 0.741098 2.91017 0.216415 -0.0248583 0.275788 0 0 0 0 0 0 0 0 0 
26.982 1 179 18.1667 16.3817 2.31075 -0.215787 4.13346 2.62484 -0.587365 -0.409623 -0.0271521 0 0 0 0 0 0 0 0 0 
26.982 1 378 18.2217 18.4557 4.22315 1.87745 -0.922656 2.24748 -0.278906 -0.433757 0.0743808 0 0 0 0 0 0 0 0 0 
26.982 1 178 18.0374 18.1779 0.246914 -1.98761 -3.14068 4.44827 -0.0552029 0.494251 0.255969 0 0 0 0 0 0 0 0 0 
26.982 1 2019 17.9226 20.3407 2.19096 -2.16396 -1.64579 2.63536 0.220806 -0.2743 -0.00448289 0 0 0 0 0 0 0 0 0 
26.982 1 184 20.1876 18.1896 2.10809 -3.44971 2.64587 3.08193 0.264203 0.413957 0.691655 0 0 0 0 0 0 0 0 0 
26.982 1 381 20.18 16.1785 4.30481 6.73542 1.23599 2.18659 0.420352 0.361891 -0.0395875 0 0 0 0 0 0 0 0 0 
26.982 1 181 20.3949 16.2701 0.323446 0.846034 6.11697 3.4668 -0.221384 -0.199721 -0.365503 0 0 0 0 0 0 0 0 0 
26.982 1 183 22.4861 16.2641 2.35015 -1.12398 0.928884 -1.49071 -0.202695 -0.103955 0.32774 0 0 0 0 0 0 0 0 0 
26.982 1 382 22.3804 18.2967 4.24413 -2.93574 -0.031594 0.551835 0.043486 -0.172148 0.127046 0 0 0 0 0 0 0 0 0 
26.982 1 188 24.7123 18.1771 2.43459 -2.27617 -2.60022 6.24846 -0.307586 0.401584 -0.0324771 0 0 0 0 0 0 0 0 0 
26.982 1 182 22.4254 18.3684 0.473365 -2.91149 -0.820057 1.41515 0.00482176 -0.197112 -0.3165 0 0 0 0 0 0 0 0 0 
26.982 1 385 24.6485 16.188 4.31864 5.35718 -4.3709 -1.8406 -0.0829132 -0.0272152 0.00559124 0 0 0 0 0 0 0 0 0 
26.982 1 185 24.53 16.415 0.452445 -6.01194 -6.06294 0.87446 0.0513135 -0.729349 -0.46564 0 0 0 0 0 0 0 0 0 
26.982 1 187 26.7463 16.1333 2.31109 -1.14931 1.87354 -4.80865 -0.23192 0.499403 0.108876 0 0 0 0 0 0 0 0 0 
26.982 1 386 26.9038 18.1947 4.29164 -1.77597 2.73705 -1.84118 -0.528149 0.440262 0.285632 0 0 0 0 0 0 0 0 0 
26.982 1 389 28.835 16.3913 4.33919 -5.61038 1.53235 3.07452 0.415288 -0.360315 0.224818 0 0 0 0 0 0 0 0 0 
26.982 1 189 28.7859 16.1912 0.391982 -0.901827 -3.31643 -2.31666 0.1374 0.471521 -0.334897 0 0 0 0 0 0 0 0 0 
26.982 1 186 26.6437 18.2004 0.246959 5.89838 -5.80843 -1.30121 0.424362 0.150741 0.224945 0 0 0 0 0 0 0 0 0 
26.982 1 192 28.8264 18.3488 2.36772 0.593511 5.93002 4.49276 0.190091 -0.0325908 -0.317328 0 0 0 0 0 0 0 0 0 
26.982 1 191 30.9916 16.3883 2.3664 0.711853 -1.99714 -5.39817 0.0182575 -0.546688 0.117336 0 0 0 0 0 0 0 0 0 
26.982 1 390 31.1673 18.3089 4.27976 -3.79372 -2.3019 0.169963 -0.380929 0.129062 0.336431 0 0 0 0 0 0 0 0 0 
26.982 1 190 31.0288 18.1624 0.406436 3.80798 -4.44216 -4.06369 -0.116044 0.370108 -0.465073 0 0 0 0 0 0 0 0 0 
26.982 1 393 33.1961 16.1861 4.28198 1.06862 -5.1214 -10.4271 -0.097895 0.112268 0.410995 0 0 0 0 0 0 0 0 0 
26.982 1 196 33.2143 18.291 2.47319 -4.22524 -0.750131 -0.337094 0.363812 -0.0659825 -0.571227 0 0 0 0 0 0 0 0 0 
26.982 1 195 35.2391 16.2631 2.43386 -1.79484 8.92319 -5.49669 0.191956 0.0426488 -0.580825 0 0 0 0 0 0 0 0 0 
26.982 1 394 35.5544 18.2407 4.19638 2.60426 -0.0984102 3.72429 -0.452151 0.284664 0.590388 0 0 0 0 0 0 0 0 0 
26.982 1 197 37.5045 16.2476 0.533786 -0.961173 -1.71907 -0.571373 -0.056907 0.607946 -0.682996 0 0 0 0 0 0 0 0 0 
26.982 1 193 33.0004 16.3578 0.186472 6.12075 2.28799 -2.10092 0.770881 -0.349777 0.514411 0 0 0 0 0 0 0 0 0 
26.982 1 361 42.0071 16.4159 4.35303 -0.635308 -2.1277 0.872657 -0.478886 -0.22245 0.0252345 0 0 0 0 0 0 0 0 0 
26.982 1 200 37.7337 18.3365 2.47405 -3.37815 1.05364 -1.42798 -0.352672 -0.0911054 -0.39872 0 0 0 0 0 0 0 0 0 
26.982 1 397 37.534 16.2878 4.2437 -5.38174 5.56992 -1.32276 0.203357 -0.660213 0.120953 0 0 0 0 0 0 0 0 0 
26.982 1 199 39.7881 16.3552 2.34866 2.01755 -2.40855 1.54953 -0.160679 0.0256357 0.178305 0 0 0 0 0 0 0 0 0 
26.982 1 398 39.8337 18.3753 4.29283 -0.725643 -1.13932 3.69625 -0.0407216 -0.460554 0.139203 0 0 0 0 0 0 0 0 0 
26.982 1 198 39.7474 18.4525 0.456377 -4.62104 1.48447 -5.8775 0.00375087 -0.225697 -0.312638 0 0 0 0 0 0 0 0 0 
26.982 1 243 0.727356 4.32735 6.50442 -1.23741 -4.30284 1.20003 0.13563 -0.250788 -0.447619 0 0 0 0 0 0 0 0 0 
26.982 1 402 0.938934 2.2685 8.27525 -1.40373 0.630848 -5.89162 0.0801225 -0.219673 0.0197537 0 0 0 0 0 0 0 0 0 
26.982 1 208 3.16264 2.28734 6.30346 2.08685 2.45116 3.5554 -0.464685 -0.392067 -0.0786913 0 0 0 0 0 0 0 0 0 
26.982 1 445 3.05972 4.22262 8.27863 0.961114 2.68193 2.63833 -0.299332 0.269582 0.208565 0 0 0 0 0 0 0 0 0 
26.982 1 441 -1.43868 4.26347 8.41582 5.53081 -4.08559 3.06602 0.0842307 0.14843 -0.338599 0 0 0 0 0 0 0 0 0 
26.982 1 403 1.00795 0.270594 10.2885 4.2714 1.79236 -1.86028 -0.376548 0.333856 -0.246171 0 0 0 0 0 0 0 0 0 
26.982 1 443 0.819441 4.1314 10.2398 -1.71579 -3.39887 -3.27364 0.217346 0.33632 -0.16727 0 0 0 0 0 0 0 0 0 
26.982 1 408 3.19168 2.18974 10.2998 3.20276 -2.37114 0.0340914 -0.592653 0.54346 -0.0765564 0 0 0 0 0 0 0 0 0 
26.982 1 247 5.13909 4.29479 6.30624 0.640772 -2.07922 -1.17163 -0.0034473 0.240446 -0.0353003 0 0 0 0 0 0 0 0 0 
26.982 1 406 5.23909 2.50787 8.34344 -3.3973 2.5889 -1.64372 -0.0697011 -0.574383 -0.147851 0 0 0 0 0 0 0 0 0 
26.982 1 207 5.23806 0.275822 6.41349 -1.92109 2.87189 -4.76508 -0.388856 0.102275 -0.0563124 0 0 0 0 0 0 0 0 0 
26.982 1 449 7.34052 4.44929 8.23118 -1.54355 1.74083 3.69405 -0.121032 -0.325134 0.0308133 0 0 0 0 0 0 0 0 0 
26.982 1 212 7.33673 2.35706 6.38432 4.54188 -6.12189 -0.588012 0.150342 0.00862434 0.0631943 0 0 0 0 0 0 0 0 0 
26.982 1 251 9.75555 4.3931 6.23198 -3.01501 3.5486 -2.84218 -0.59823 -0.0546656 0.128823 0 0 0 0 0 0 0 0 0 
26.982 1 410 9.43792 2.39941 8.35891 -2.20817 0.412561 5.09813 -0.109714 -0.189126 -0.356324 0 0 0 0 0 0 0 0 0 
26.982 1 216 11.4535 2.23292 6.37516 1.35108 0.314001 -1.39258 0.458484 -0.161513 -0.152603 0 0 0 0 0 0 0 0 0 
26.982 1 412 7.20815 2.53537 10.2571 -0.865271 -1.93163 -3.52728 0.281376 -0.553135 0.168048 0 0 0 0 0 0 0 0 0 
26.982 1 411 9.52228 0.353412 10.1702 -1.67357 -9.50115 0.954293 -0.613176 -0.353443 0.495724 0 0 0 0 0 0 0 0 0 