ITEM: TIMESTEP
8000
ITEM: NUMBER OF ATOMS
4000
ITEM: BOX BOUNDS pp pp pp
-1.70013 42.2001
0.469611 40.0304
0.452753 40.0472
ITEM: ATOMS mass type id x y z vx vy vz fx fy fz xrad yrad zrad vxrad vyrad vzrad fxrad fyrad fzrad 
26.982 1 43 0.57129 4.26841 2.39742 -3.13696 4.08589 -0.453985 -0.297728 0.220544 -0.0572055 0 0 0 0 0 0 0 0 0 
26.982 1 202 0.623495 2.50353 4.55225 1.52243 2.07659 2.18401 -0.160365 -0.195325 -0.68902 0 0 0 0 0 0 0 0 0 
26.982 1 4 42.14 2.31553 2.57478 2.85532 1.09359 2.08197 0.254489 0.456069 -0.432404 0 0 0 0 0 0 0 0 0 
26.982 1 2 0.523768 2.22089 0.364221 -5.19982 -7.31269 -0.346976 -0.345789 0.796164 0.368071 0 0 0 0 0 0 0 0 0 
26.982 1 8 2.62354 2.49189 2.44006 -2.31714 1.24789 -1.76464 0.0781282 -0.194279 0.0768607 0 0 0 0 0 0 0 0 0 
26.982 1 205 2.68109 0.475732 4.31259 -1.7803 -1.71527 -4.44059 0.0570348 -0.325065 -0.050884 0 0 0 0 0 0 0 0 0 
26.982 1 1 -1.80528 0.465525 0.469328 5.3038 -3.68179 -2.77875 0.21483 0.108989 -0.0918087 0 0 0 0 0 0 0 0 0 
26.982 1 1013 11.5529 0.572155 20.359 0.787964 5.9967 3.43566 0.00678681 -0.382071 0.0457474 0 0 0 0 0 0 0 0 0 
26.982 1 245 2.72232 4.45143 4.52681 -2.3066 -1.97592 -3.88214 -0.076344 -0.054295 -0.019436 0 0 0 0 0 0 0 0 0 
26.982 1 47 4.67906 4.28136 2.57054 -3.6352 -3.15148 -2.83764 0.6957 0.282922 -0.465886 0 0 0 0 0 0 0 0 0 
26.982 1 206 4.97785 2.46441 4.53193 1.35297 -1.27541 0.167244 -0.0997768 0.0315282 -0.133898 0 0 0 0 0 0 0 0 0 
26.982 1 12 7.11399 2.46405 2.37344 4.58693 1.38385 -0.0276823 -0.260807 0.0625369 -0.0118504 0 0 0 0 0 0 0 0 0 
26.982 1 249 7.22621 4.43377 4.36411 5.22816 0.3222 1.7734 -0.468481 -0.542825 0.268138 0 0 0 0 0 0 0 0 0 
26.982 1 209 7.20776 0.565173 4.52106 1.78551 1.99197 0.260792 -0.304265 -0.262844 -0.813197 0 0 0 0 0 0 0 0 0 
26.982 1 7 4.90928 0.602124 2.51861 2.36386 1.19396 -0.855439 0.00794476 -0.206718 -0.0654008 0 0 0 0 0 0 0 0 0 
26.982 1 5 2.71974 0.550884 0.566652 -0.311754 -2.86471 2.45362 -0.00556593 -0.535351 -0.123315 0 0 0 0 0 0 0 0 0 
26.982 1 961 -1.63347 16.1951 16.2074 -2.26065 -1.04033 -2.81811 -0.186824 0.682528 0.0684246 0 0 0 0 0 0 0 0 0 
26.982 1 51 9.20688 4.58848 2.15148 -1.30894 0.486513 -0.508898 0.0299283 -0.317809 0.53234 0 0 0 0 0 0 0 0 0 
26.982 1 210 9.28214 2.68727 4.20691 3.11484 1.82916 -2.56987 0.219102 -0.579473 0.285936 0 0 0 0 0 0 0 0 0 
26.982 1 16 11.5195 2.32537 2.28095 -3.7899 3.69194 -3.22742 0.0812148 -0.353303 0.34587 0 0 0 0 0 0 0 0 0 
26.982 1 213 11.5357 0.304517 4.25988 -0.808496 -4.55899 -1.21885 0.0908889 0.724177 -0.0469735 0 0 0 0 0 0 0 0 0 
26.982 1 998 40.0938 18.4614 16.1462 -1.70696 0.755918 2.23206 0.0121223 -0.801576 0.540659 0 0 0 0 0 0 0 0 0 
26.982 1 253 11.4704 4.34757 4.148 -2.11028 0.377485 -6.57291 -0.00713064 0.0302262 0.441927 0 0 0 0 0 0 0 0 0 
26.982 1 55 13.6989 4.51037 2.36602 -3.49629 2.01091 -2.33132 0.0358366 -0.274757 0.357433 0 0 0 0 0 0 0 0 0 
26.982 1 214 13.77 2.30952 4.41742 -1.9792 -0.80828 1.58518 -0.465514 0.559819 -0.404338 0 0 0 0 0 0 0 0 0 
26.982 1 20 15.8166 2.49658 2.35584 1.49058 -0.643223 0.226573 0.508449 -0.0466261 0.298882 0 0 0 0 0 0 0 0 0 
26.982 1 257 15.6835 4.48303 4.48529 3.72767 1.3543 2.39321 0.53029 -0.29308 -0.17525 0 0 0 0 0 0 0 0 0 
26.982 1 218 18.0793 2.3136 4.28866 -6.26816 -6.4797 -0.969163 -0.256324 0.48094 0.565346 0 0 0 0 0 0 0 0 0 
26.982 1 59 18.335 4.36129 2.4375 2.81935 3.84472 3.62269 -0.756358 0.238469 0.00518085 0 0 0 0 0 0 0 0 0 
26.982 1 24 20.3338 2.47534 2.55788 1.76402 -4.3798 -1.5768 0.0274659 -0.143302 -0.270158 0 0 0 0 0 0 0 0 0 
26.982 1 19 18.0864 0.372221 2.43904 4.09348 1.77896 4.1254 -0.176555 0.0139858 -0.125475 0 0 0 0 0 0 0 0 0 
26.982 1 815 13.7744 0.490126 18.3464 2.47225 0.9067 -4.06489 0.0619135 0.101808 -0.244133 0 0 0 0 0 0 0 0 0 
26.982 1 221 20.2328 0.601614 4.48678 0.559239 -3.52309 2.73791 0.380028 -0.428709 0.284988 0 0 0 0 0 0 0 0 0 
26.982 1 261 20.3894 4.47325 4.40273 -0.88578 -3.1689 -0.397245 -0.333287 -0.600201 0.404334 0 0 0 0 0 0 0 0 0 
26.982 1 63 22.3359 4.44729 2.27767 -6.8505 4.95349 2.85598 0.847228 -0.00891577 0.469012 0 0 0 0 0 0 0 0 0 
26.982 1 222 22.6318 2.40931 4.45021 -6.9694 0.581095 -0.889161 -0.608834 0.115541 0.0721109 0 0 0 0 0 0 0 0 0 
26.982 1 28 24.5262 2.61113 2.4561 -2.31606 -0.345333 1.14087 0.362192 -0.305977 -0.0325093 0 0 0 0 0 0 0 0 0 
26.982 1 265 24.6063 4.61792 4.43313 0.449325 -1.84491 1.0261 0.0822878 -0.225569 -0.0456882 0 0 0 0 0 0 0 0 0 
26.982 1 23 22.4911 0.505203 2.48481 2.80205 -0.0326498 7.11006 -0.0241933 -0.206119 0.285032 0 0 0 0 0 0 0 0 0 
26.982 1 1009 7.10965 0.497706 20.1829 1.68058 2.20863 4.59713 -0.229587 -0.216807 -0.397665 0 0 0 0 0 0 0 0 0 
26.982 1 22 22.3447 2.44353 0.447129 -1.07359 1.07327 3.24374 0.34628 -0.235908 -0.0971672 0 0 0 0 0 0 0 0 0 
26.982 1 67 26.9927 4.41299 2.39048 -4.31144 1.67555 -1.66156 -0.118078 -0.077848 0.107157 0 0 0 0 0 0 0 0 0 
26.982 1 226 26.5804 2.51127 4.49366 1.37056 -1.37008 -6.22894 0.612401 0.0417147 -0.21351 0 0 0 0 0 0 0 0 0 
26.982 1 269 29.0924 4.43677 4.38321 2.64529 3.32028 1.11751 -0.0318972 -0.0268943 0.458195 0 0 0 0 0 0 0 0 0 
26.982 1 229 29.1629 0.552827 4.55743 -1.64512 -1.7385 1.67779 -0.14872 -0.233907 0.0357146 0 0 0 0 0 0 0 0 0 
26.982 1 809 7.23358 0.543378 16.4107 2.51105 -1.70117 4.72093 -0.330921 -0.0193488 -0.468433 0 0 0 0 0 0 0 0 0 
26.982 1 2801 -1.71077 20.2042 16.2754 6.9756 3.08257 -3.40716 0.169723 0.102186 0.0937777 0 0 0 0 0 0 0 0 0 
26.982 1 2835 35.6253 20.0853 18.1473 1.40311 -0.264385 3.75736 0.0819808 0.0883832 0.229621 0 0 0 0 0 0 0 0 0 
26.982 1 32 29.1407 2.45126 2.63104 -1.95175 -0.452434 0.045088 0.0824219 0.156206 -0.751268 0 0 0 0 0 0 0 0 0 
26.982 1 71 31.3117 4.51508 2.43676 3.97524 -5.9931 -2.69833 -0.141841 -0.438803 -0.0535155 0 0 0 0 0 0 0 0 0 
26.982 1 230 31.4877 2.48311 4.30997 -2.22003 2.35003 -3.4142 -0.66124 0.168733 0.442652 0 0 0 0 0 0 0 0 0 
26.982 1 36 33.3469 2.46739 2.35735 -3.81232 3.50998 -0.150579 0.288537 -0.108335 -0.263282 0 0 0 0 0 0 0 0 0 
26.982 1 2833 33.4725 20.2794 16.3804 0.386385 2.43507 -2.42497 -0.394932 -0.257844 -0.654045 0 0 0 0 0 0 0 0 0 
26.982 1 2821 20.3079 20.3045 16.3021 2.88962 7.17703 1.42625 -0.0986903 0.120053 0.0773924 0 0 0 0 0 0 0 0 0 
26.982 1 273 33.5566 4.42496 4.35108 -3.04234 0.0495499 1.2168 -0.0545119 -0.209734 0.433291 0 0 0 0 0 0 0 0 0 
26.982 1 75 35.5388 4.34918 2.40626 -0.718291 -0.176588 -1.1919 0.450872 0.193277 -0.0681408 0 0 0 0 0 0 0 0 0 
26.982 1 234 35.7896 2.35659 4.33269 -0.13635 6.19567 -3.64213 -0.333952 0.0590394 0.13325 0 0 0 0 0 0 0 0 0 
26.982 1 40 37.8314 2.51608 2.42597 -7.49924 -0.740418 -1.68737 0.000746667 -0.39802 -0.332527 0 0 0 0 0 0 0 0 0 
26.982 1 277 37.8444 4.3791 4.34147 -1.21198 1.51633 -1.76055 0.181984 0.249086 0.160829 0 0 0 0 0 0 0 0 0 
26.982 1 241 42.4405 4.31905 4.45857 -1.05345 1.55695 1.31242 -0.418375 0.473587 -0.284109 0 0 0 0 0 0 0 0 0 
26.982 1 79 39.8197 4.40212 2.43958 0.920303 -0.119462 2.15555 0.651597 0.0816601 -0.0803438 0 0 0 0 0 0 0 0 0 
26.982 1 238 40.1566 2.45358 4.60578 4.38704 -3.17786 0.231785 -0.047865 -0.125599 -0.358304 0 0 0 0 0 0 0 0 0 
26.982 1 999 39.9716 16.2951 18.1967 -4.75361 -2.33843 1.80568 0.391536 0.247542 -0.175685 0 0 0 0 0 0 0 0 0 
26.982 1 83 0.483398 8.32784 2.62923 -0.89181 0.707234 -5.48035 0.225958 -0.0124265 -0.535633 0 0 0 0 0 0 0 0 0 
26.982 1 242 0.500758 6.36041 4.46333 2.12178 -2.48732 1.28688 0.244179 -0.100409 0.107719 0 0 0 0 0 0 0 0 0 
26.982 1 285 2.81439 8.59451 4.63636 1.89091 -1.32256 1.74026 -0.260126 -0.560191 -0.363766 0 0 0 0 0 0 0 0 0 
26.982 1 48 2.62576 6.35945 2.47392 -0.18793 -3.94586 1.1169 0.0431043 0.259425 0.156745 0 0 0 0 0 0 0 0 0 
26.982 1 84 42.0931 10.3121 2.41595 1.77224 -1.45621 1.3211 0.446473 0.231593 0.0126572 0 0 0 0 0 0 0 0 0 
26.982 1 44 -1.64921 6.27657 2.49721 -4.97609 5.58049 -2.77189 0.067243 0.104108 -0.0899763 0 0 0 0 0 0 0 0 0 
26.982 1 2823 22.4564 20.3733 18.2714 1.53593 -1.40936 -0.877042 -0.0263223 -0.420928 0.00522687 0 0 0 0 0 0 0 0 0 
26.982 1 87 4.80367 8.53875 2.51005 2.75314 -3.28987 4.15056 -0.0150454 -0.472177 0.0926902 0 0 0 0 0 0 0 0 0 
26.982 1 246 4.77547 6.44206 4.5373 1.01173 2.19107 -0.684389 0.159771 0.0566258 -0.37248 0 0 0 0 0 0 0 0 0 
26.982 1 289 7.01619 8.45715 4.49514 -0.401767 -2.38947 -0.200393 -0.0948197 -0.341315 0.0363188 0 0 0 0 0 0 0 0 0 
26.982 1 85 2.70375 8.28759 0.459532 0.55761 -1.81371 -0.750419 -0.188088 0.0271902 0.114434 0 0 0 0 0 0 0 0 0 
26.982 1 3021 20.2422 20.287 20.4236 -0.372646 -2.78557 1.9864 -0.00960607 0.0135663 -0.635861 0 0 0 0 0 0 0 0 0 
26.982 1 2819 18.0349 20.2659 18.2753 -1.91913 -0.64552 -1.27351 0.381092 0.284819 0.452986 0 0 0 0 0 0 0 0 0 
26.982 1 52 6.84074 6.2775 2.624 -3.0106 1.76084 -3.4173 0.0437036 0.45788 -0.671769 0 0 0 0 0 0 0 0 0 
26.982 1 91 9.08478 8.44449 2.58934 -0.769427 3.71215 2.72865 0.435268 -0.434408 0.109205 0 0 0 0 0 0 0 0 0 
26.982 1 250 9.20281 6.41798 4.41855 0.34101 -4.77851 -4.91846 0.147835 -0.423794 -0.118101 0 0 0 0 0 0 0 0 0 
26.982 1 56 11.3794 6.35793 2.46643 0.0797936 4.00856 5.257 -0.0400946 0.206566 -0.28753 0 0 0 0 0 0 0 0 0 
26.982 1 3013 11.4964 20.2958 20.1276 -1.42791 0.896904 -1.55875 0.28823 0.213946 0.669618 0 0 0 0 0 0 0 0 0 
26.982 1 435 35.8183 0.545361 10.0901 1.4029 -0.265964 -1.79757 -0.204048 -0.0640464 0.312963 0 0 0 0 0 0 0 0 0 
26.982 1 293 11.5669 8.41708 4.25299 -1.8242 -6.04411 3.18831 -0.282936 -0.512081 0.355051 0 0 0 0 0 0 0 0 0 
26.982 1 95 13.6284 8.18675 2.2239 0.903669 2.26697 3.15393 0.135814 0.454291 0.330596 0 0 0 0 0 0 0 0 0 
26.982 1 254 13.592 6.31098 4.42341 -3.2427 5.55066 -0.219207 -0.0510605 0.427884 -0.0996203 0 0 0 0 0 0 0 0 0 
26.982 1 297 15.7624 8.25799 4.55855 -4.61529 -0.833064 -1.48791 0.0575632 0.279024 -0.286393 0 0 0 0 0 0 0 0 0 
26.982 1 60 15.9362 6.3524 2.43128 0.710522 -2.19081 -1.03393 0.0643542 -0.14443 -0.0581432 0 0 0 0 0 0 0 0 0 
26.982 1 99 18.1248 8.31565 2.30731 -3.28098 0.590544 1.80791 0.247532 -0.034343 0.517718 0 0 0 0 0 0 0 0 0 
26.982 1 258 18.0689 6.34876 4.58133 1.28962 1.96328 -2.48133 -0.15453 -0.0397326 -0.503381 0 0 0 0 0 0 0 0 0 
26.982 1 298 18.0457 10.2417 4.29262 -1.22094 0.650942 7.19106 0.0249882 -0.346179 0.475542 0 0 0 0 0 0 0 0 0 
26.982 1 100 15.8237 10.1647 2.42173 -0.62551 2.16569 0.565869 0.104776 0.215775 0.39686 0 0 0 0 0 0 0 0 0 
26.982 1 98 18.0733 10.3145 0.3462 -3.04121 1.99587 2.2496 0.101113 -0.277134 0.194236 0 0 0 0 0 0 0 0 0 
26.982 1 821 20.2888 0.560282 16.2607 3.34579 6.60054 5.56233 0.222853 0.0113685 -0.103473 0 0 0 0 0 0 0 0 0 
26.982 1 58 18.1201 6.30911 0.431256 2.43519 0.1239 2.11052 -0.117347 -0.0842998 0.0564835 0 0 0 0 0 0 0 0 0 
26.982 1 301 20.3238 8.23173 4.4906 4.97851 -0.528466 4.10856 -0.300497 0.517936 -0.191681 0 0 0 0 0 0 0 0 0 
26.982 1 64 20.426 6.34596 2.55231 -3.22219 -4.53869 -1.58714 -0.564438 0.520006 -0.785142 0 0 0 0 0 0 0 0 0 
26.982 1 103 22.5121 8.3271 2.25529 -1.19887 5.37865 6.39632 0.330615 -0.187951 0.396119 0 0 0 0 0 0 0 0 0 
26.982 1 262 22.4502 6.3559 4.39566 3.24257 0.365115 -0.93706 0.3847 0.301137 0.0803388 0 0 0 0 0 0 0 0 0 
26.982 1 305 24.7478 8.19929 4.44441 1.36653 -1.11372 -3.58962 -0.31194 -0.00128475 -0.146712 0 0 0 0 0 0 0 0 0 
26.982 1 68 24.8381 6.29627 2.31984 1.02277 -2.22447 1.89819 -0.367469 0.250625 0.174686 0 0 0 0 0 0 0 0 0 
26.982 1 107 26.9693 8.33348 2.43512 6.41406 -5.67363 -7.15115 0.0634479 -0.0626076 0.11629 0 0 0 0 0 0 0 0 0 
26.982 1 266 26.9142 6.4087 4.51384 1.50761 1.84947 2.79978 -0.233114 -0.291673 -0.595051 0 0 0 0 0 0 0 0 0 
26.982 1 623 22.515 0.642987 14.3145 4.2105 -0.756027 -2.20368 -0.258997 -0.26675 0.352236 0 0 0 0 0 0 0 0 0 
26.982 1 72 29.1358 6.34866 2.51252 3.56507 3.73208 -1.57556 -0.268445 0.232602 -0.354457 0 0 0 0 0 0 0 0 0 
26.982 1 306 26.8975 10.2193 4.44561 -6.56367 2.66597 -5.44354 0.0158284 0.0337872 -0.152393 0 0 0 0 0 0 0 0 0 
26.982 1 309 29.0302 8.20083 4.55173 -3.59633 6.71177 -0.467379 0.222763 0.683462 -0.724079 0 0 0 0 0 0 0 0 0 
26.982 1 109 29.1459 8.34655 0.548061 -0.364685 0.365944 -0.290217 0.0586783 -0.0655036 -0.269219 0 0 0 0 0 0 0 0 0 
26.982 1 111 31.394 8.24398 2.6011 2.41784 -1.3547 -1.14332 -0.430945 0.777393 -0.434221 0 0 0 0 0 0 0 0 0 
26.982 1 270 31.2643 6.40995 4.34409 -0.647615 -6.31066 1.38434 0.157318 -0.144568 0.664565 0 0 0 0 0 0 0 0 0 
26.982 1 113 33.3301 8.42561 0.547777 0.522492 7.4672 -5.60042 0.428055 -0.266923 -0.155559 0 0 0 0 0 0 0 0 0 
26.982 1 116 33.2063 10.3819 2.38858 3.10402 2.41952 0.996912 0.383352 0.194231 0.488309 0 0 0 0 0 0 0 0 0 
26.982 1 615 13.6825 0.315623 14.3462 -2.16147 -0.38012 3.14892 0.00540071 0.304536 0.203773 0 0 0 0 0 0 0 0 0 
26.982 1 2639 40.1334 20.3974 14.3257 2.09399 -1.33929 2.84991 -0.162284 -0.150833 -0.2943 0 0 0 0 0 0 0 0 0 
26.982 1 313 33.5394 8.48586 4.43713 -3.7783 -2.06027 -1.34017 -0.242256 -0.27496 0.197303 0 0 0 0 0 0 0 0 0 
26.982 1 76 33.6087 6.36672 2.55364 -2.07396 4.74951 2.27031 -0.271813 0.343467 -0.244124 0 0 0 0 0 0 0 0 0 
26.982 1 115 35.5501 8.40426 2.47221 -1.85228 -2.92824 -2.85129 0.206099 0.32485 -0.0129734 0 0 0 0 0 0 0 0 0 
26.982 1 274 35.8428 6.2612 4.3999 0.869635 1.91973 4.12722 -0.469529 0.524598 0.00115939 0 0 0 0 0 0 0 0 0 
26.982 1 317 38.0081 8.27131 4.43872 -3.62925 -1.92993 -1.40877 -0.158547 0.0214167 0.502895 0 0 0 0 0 0 0 0 0 
26.982 1 827 26.9234 0.574497 18.4434 -0.575629 -3.50345 -0.0552009 0.181343 -0.122317 -0.54562 0 0 0 0 0 0 0 0 0 
26.982 1 314 35.5501 10.3599 4.59648 -2.73947 -0.457876 2.41505 0.399387 -0.283429 -0.316986 0 0 0 0 0 0 0 0 0 
26.982 1 281 -1.62558 8.38001 4.46424 -1.14316 2.93843 0.0931502 -0.0417323 0.00271139 0.115728 0 0 0 0 0 0 0 0 0 
26.982 1 80 37.6792 6.52981 2.32985 2.06073 0.226156 -0.389939 0.213808 -0.406445 0.0988777 0 0 0 0 0 0 0 0 0 
26.982 1 119 40.1239 8.35898 2.54632 3.94687 2.16679 2.64953 -0.211451 0.0898164 -0.203868 0 0 0 0 0 0 0 0 0 
26.982 1 278 40.222 6.38299 4.33828 1.13254 -3.52805 -2.45732 -0.394851 -0.2925 0.542595 0 0 0 0 0 0 0 0 0 
26.982 1 318 40.1049 10.4232 4.38548 -0.705614 2.23487 -2.84423 -0.0463577 -0.0220188 0.308044 0 0 0 0 0 0 0 0 0 
26.982 1 118 40.1399 10.247 0.421174 1.2088 2.31953 4.72144 -0.285165 0.232482 0.126616 0 0 0 0 0 0 0 0 0 
26.982 1 123 0.437946 12.4019 2.36815 1.75072 1.88275 -0.557094 0.0692707 -0.139412 0.195303 0 0 0 0 0 0 0 0 0 
26.982 1 282 0.406953 10.4241 4.33695 4.03091 2.32298 -2.00001 0.353594 0.175888 0.168379 0 0 0 0 0 0 0 0 0 
26.982 1 322 0.487965 14.5784 4.19912 0.815169 0.792547 -2.63447 0.285437 -0.745913 0.469501 0 0 0 0 0 0 0 0 0 
26.982 1 325 2.61105 12.534 4.63764 3.29724 3.05431 -4.44386 0.0501174 -0.0162832 -0.672801 0 0 0 0 0 0 0 0 0 
26.982 1 128 2.7551 14.297 2.3778 -2.43794 -3.0725 -2.93744 -0.493623 -0.109375 0.383589 0 0 0 0 0 0 0 0 0 
26.982 1 2603 0.448107 20.2501 14.2171 -2.55544 2.11887 -1.69113 0.0410556 -0.373623 0.0383206 0 0 0 0 0 0 0 0 0 
26.982 1 88 2.69019 10.3843 2.40808 -5.1004 -4.65417 -7.89822 -0.330753 0.0913767 0.16672 0 0 0 0 0 0 0 0 0 
26.982 1 286 4.76134 10.4884 4.51775 3.51165 3.95291 -2.26412 0.15057 -0.169474 0.14075 0 0 0 0 0 0 0 0 0 
26.982 1 92 6.99532 10.3942 2.56145 1.95535 -1.66099 3.63382 -0.117243 0.0178769 -0.173345 0 0 0 0 0 0 0 0 0 
26.982 1 127 4.77121 12.2755 2.38431 -2.93038 -3.68081 -1.16894 0.0963889 -0.0932754 -0.147315 0 0 0 0 0 0 0 0 0 
26.982 1 326 4.9828 14.306 4.28729 -1.14297 0.924907 -1.56141 -0.417678 0.037685 0.399924 0 0 0 0 0 0 0 0 0 
26.982 1 329 6.90505 12.2686 4.41809 0.900216 2.16152 -1.72437 0.346869 0.212321 0.0674197 0 0 0 0 0 0 0 0 0 
26.982 1 429 29.2022 0.582051 8.36788 0.824491 -2.73158 -0.459115 -0.456257 -0.191723 -0.0755184 0 0 0 0 0 0 0 0 0 
26.982 1 290 9.27093 10.4361 4.46785 4.37314 2.78754 2.98527 -0.0394761 -0.118996 -0.0119622 0 0 0 0 0 0 0 0 0 
26.982 1 132 6.94368 14.216 2.25714 9.94724 5.26169 -2.80926 0.390057 0.321164 0.35508 0 0 0 0 0 0 0 0 0 
26.982 1 223 22.4558 0.210752 6.41964 -1.19456 -1.8619 -3.42512 -0.00235801 0.672442 -0.134742 0 0 0 0 0 0 0 0 0 
26.982 1 131 9.22217 12.3887 2.4829 1.52063 3.17058 -0.240525 0.035006 0.305165 0.413004 0 0 0 0 0 0 0 0 0 
26.982 1 330 9.08497 14.478 4.38524 -1.82717 4.89406 -1.24775 0.372865 -0.145291 -0.138511 0 0 0 0 0 0 0 0 0 
26.982 1 425 24.621 0.592522 8.46652 -0.503322 -2.22475 -2.21094 0.223833 -0.549178 -0.189404 0 0 0 0 0 0 0 0 0 
26.982 1 96 11.3837 10.3243 2.41046 0.558425 -0.464021 2.5196 0.226133 0.355571 -0.306468 0 0 0 0 0 0 0 0 0 
26.982 1 421 20.324 0.368428 8.29807 -1.64215 1.56438 -4.91603 0.137238 0.600033 0.115577 0 0 0 0 0 0 0 0 0 
26.982 1 333 11.526 12.3029 4.32573 0.0525642 -2.60213 -2.66491 -0.322463 0.313173 0.615964 0 0 0 0 0 0 0 0 0 
26.982 1 294 13.5404 10.3014 4.28529 -3.08144 1.17414 4.15715 0.561028 -0.351968 0.307898 0 0 0 0 0 0 0 0 0 
26.982 1 136 11.4148 14.2966 2.47686 1.73907 -2.69857 -3.16961 0.0647124 0.0864073 -0.0186219 0 0 0 0 0 0 0 0 0 
26.982 1 135 13.5796 12.385 2.55729 3.68811 2.611 1.56038 0.0592113 -0.0261034 -0.9717 0 0 0 0 0 0 0 0 0 
26.982 1 334 13.8126 14.3902 4.32318 0.34906 3.34718 0.036906 -0.467286 -0.17961 0.380799 0 0 0 0 0 0 0 0 0 
26.982 1 409 7.04864 0.308097 8.32364 6.70625 -0.642231 -0.623336 0.0389776 0.0965368 -0.0958074 0 0 0 0 0 0 0 0 0 
26.982 1 337 15.6398 12.244 4.3097 0.556578 2.26473 0.288991 0.724465 -0.397052 0.381247 0 0 0 0 0 0 0 0 0 
26.982 1 140 16.0091 14.1743 2.5389 1.68064 -3.45701 2.51384 -0.10005 0.673288 -0.147117 0 0 0 0 0 0 0 0 0 
26.982 1 139 18.0834 12.1378 2.44039 1.44833 0.873385 5.30645 0.271149 0.373887 -0.0784689 0 0 0 0 0 0 0 0 0 
26.982 1 338 18.0635 14.1379 4.44505 -1.71252 4.46003 5.42531 0.266585 -0.148847 -0.09844 0 0 0 0 0 0 0 0 0 
26.982 1 341 20.2401 12.1972 4.41669 3.37857 -0.753539 4.80669 -0.0457876 0.319096 -0.00507908 0 0 0 0 0 0 0 0 0 
26.982 1 144 20.3906 14.134 2.50913 6.41384 -2.15444 4.80371 -0.226081 0.094576 -0.202969 0 0 0 0 0 0 0 0 0 
26.982 1 104 20.589 10.3907 2.43331 -1.74789 1.0534 3.13689 -0.620856 -0.579547 0.223976 0 0 0 0 0 0 0 0 0 
26.982 1 302 22.5698 10.2198 4.35543 0.676267 1.64885 -1.21999 0.0815279 0.186299 0.112374 0 0 0 0 0 0 0 0 0 
26.982 1 143 22.5975 12.3228 2.51612 4.50858 2.17982 1.47595 0.00434729 -0.0814595 -0.140614 0 0 0 0 0 0 0 0 0 
26.982 1 342 22.521 14.4131 4.6172 2.37027 0.605437 2.25601 -0.0381284 -0.431232 -0.858332 0 0 0 0 0 0 0 0 0 
26.982 1 148 24.611 14.1465 2.14941 0.468232 -1.91135 -1.39517 0.360891 0.378931 0.397972 0 0 0 0 0 0 0 0 0 
26.982 1 345 24.7481 12.3375 4.43634 -2.99141 0.635645 1.45954 -0.235245 -0.198682 -0.0745041 0 0 0 0 0 0 0 0 0 
26.982 1 145 24.7378 12.0758 0.377491 1.4184 -1.8687 5.85881 -0.124402 0.331075 0.235963 0 0 0 0 0 0 0 0 0 
26.982 1 108 24.7711 10.1717 2.53125 1.55743 -1.99545 1.50983 -0.0699803 0.277182 -0.323423 0 0 0 0 0 0 0 0 0 
26.982 1 112 29.2297 10.3279 2.32289 5.07148 -1.21502 1.70858 -0.529856 0.0325302 0.681758 0 0 0 0 0 0 0 0 0 
26.982 1 147 26.8456 12.3264 2.47793 0.392842 3.4736 -5.7096 0.151566 -0.507228 -0.55866 0 0 0 0 0 0 0 0 0 
26.982 1 346 26.9019 14.2608 4.27357 1.59227 -0.81802 0.988242 -0.269181 0.127683 0.838141 0 0 0 0 0 0 0 0 0 
26.982 1 152 28.9324 14.3561 2.54131 -1.04348 1.29958 3.68282 0.298473 -0.0117538 -0.496602 0 0 0 0 0 0 0 0 0 
26.982 1 349 29.0161 12.2989 4.39364 0.448904 1.08477 3.05059 -0.00701964 -0.154561 0.0454414 0 0 0 0 0 0 0 0 0 
26.982 1 310 31.1114 10.4265 4.53343 -2.74616 2.43979 -5.41277 0.548233 -0.378701 -0.576779 0 0 0 0 0 0 0 0 0 
26.982 1 151 31.0842 12.4728 2.54063 -1.36751 3.11919 -0.624674 0.402507 -0.396998 -0.399844 0 0 0 0 0 0 0 0 0 
26.982 1 350 31.2205 14.3268 4.40225 -3.81282 1.58486 4.58927e-06 -0.0621325 0.155625 0.388083 0 0 0 0 0 0 0 0 0 
26.982 1 156 33.3454 14.4299 2.61613 -0.190568 -1.55663 -1.3971 0.290149 0.0458558 -0.0781632 0 0 0 0 0 0 0 0 0 
26.982 1 353 33.4967 12.3004 4.35924 -3.44348 -0.855516 0.391292 -0.396755 0.102526 0.353929 0 0 0 0 0 0 0 0 0 
26.982 1 120 37.7966 10.2517 2.70407 4.35114 -2.79024 -1.89206 -0.106299 0.158673 -0.37564 0 0 0 0 0 0 0 0 0 
26.982 1 155 35.5889 12.2507 2.62057 -2.90334 2.31147 -0.646215 0.270749 -0.0253691 -0.266133 0 0 0 0 0 0 0 0 0 
26.982 1 354 35.7448 14.2533 4.35412 6.02601 6.61687 -5.26514 -0.440518 0.524728 0.0965698 0 0 0 0 0 0 0 0 0 
26.982 1 160 37.8327 14.3881 2.38724 -2.1662 -1.40717 0.378785 -0.0490758 -0.593722 -0.243631 0 0 0 0 0 0 0 0 0 
26.982 1 357 37.8658 12.4176 4.31996 4.13105 -2.6467 2.05473 0.162996 -0.149133 0.209167 0 0 0 0 0 0 0 0 0 
26.982 1 157 37.8667 12.0941 0.665216 1.1221 6.09516 -2.9327 -0.0306898 0.236677 -0.029759 0 0 0 0 0 0 0 0 0 
26.982 1 124 42.1382 14.3486 2.38308 4.90543 5.13283 -1.30453 0.0395649 -0.263968 -0.158806 0 0 0 0 0 0 0 0 0 
26.982 1 321 42.2495 12.409 4.37409 -0.114411 -1.7005 1.44359 -0.118645 0.050439 -0.00310008 0 0 0 0 0 0 0 0 0 
26.982 1 159 40.0561 12.3553 2.45578 -4.14377 2.00167 -0.415044 -0.0594708 -0.0811925 -0.247572 0 0 0 0 0 0 0 0 0 
26.982 1 358 39.982 14.2801 4.42107 -5.30774 -0.900018 -6.22761 0.142495 0.118087 0.0300236 0 0 0 0 0 0 0 0 0 
26.982 1 163 0.396117 16.2622 2.23223 -3.44783 1.65245 1.05535 0.510573 0.413139 0.0951969 0 0 0 0 0 0 0 0 0 
26.982 1 362 0.480484 18.2956 4.40145 1.30965 -1.30176 -4.06044 0.132219 0.143123 -0.375046 0 0 0 0 0 0 0 0 0 
26.982 1 164 -1.72068 18.164 2.44143 2.23074 4.36346 -4.02244 0.183703 0.721311 -0.290058 0 0 0 0 0 0 0 0 0 
26.982 1 365 2.75536 16.3697 4.3104 -1.26451 -0.644769 -1.08596 -0.256325 -0.0407339 -0.138607 0 0 0 0 0 0 0 0 0 
26.982 1 405 2.76119 0.435437 8.4394 2.39399 4.95545 2.79507 -0.227715 -0.243476 -0.180747 0 0 0 0 0 0 0 0 0 
26.982 1 168 2.70638 18.5087 2.28943 -1.05376 3.2289 -0.217514 -0.0645908 -0.540997 0.178203 0 0 0 0 0 0 0 0 0 
26.982 1 167 4.76385 16.2384 2.41697 1.29132 -3.56479 3.56461 0.213536 0.889374 0.122912 0 0 0 0 0 0 0 0 0 
26.982 1 366 4.71152 18.4061 4.53518 -2.35908 0.124792 1.97406 0.577029 -0.00456331 -0.686516 0 0 0 0 0 0 0 0 0 
26.982 1 172 7.00916 18.5445 2.37471 7.01226 -2.47682 0.621745 0.0457093 -0.542296 0.310517 0 0 0 0 0 0 0 0 0 
26.982 1 369 7.02523 16.3271 4.10717 -0.851611 0.785549 -2.51222 -0.199515 0.338018 0.550856 0 0 0 0 0 0 0 0 0 
26.982 1 2007 4.8867 20.3869 2.43498 2.57109 -1.10426 0.277739 -0.0679079 -0.0167096 0.126825 0 0 0 0 0 0 0 0 0 
26.982 1 169 6.92819 16.4968 0.479705 3.06174 0.430819 2.49911 0.239124 -0.331371 0.100199 0 0 0 0 0 0 0 0 0 
26.982 1 171 9.16654 16.4368 2.3676 -1.92328 1.36203 3.62939 -0.0132417 -0.0496729 0.203212 0 0 0 0 0 0 0 0 0 
26.982 1 370 9.2609 18.527 4.30891 1.87875 1.02337 -0.935704 0.0449138 -0.704645 0.235025 0 0 0 0 0 0 0 0 0 
26.982 1 2011 9.3297 20.3741 2.38915 -0.941363 0.888969 1.19223 0.0164612 -0.0108657 -0.213412 0 0 0 0 0 0 0 0 0 
26.982 1 176 11.5554 18.335 2.5075 6.02983 0.210136 0.0627363 -0.174076 0.193875 -0.0950474 0 0 0 0 0 0 0 0 0 
26.982 1 831 31.1775 0.660415 18.1814 -0.104355 1.73835 1.21118 0.184484 -0.701648 0.572638 0 0 0 0 0 0 0 0 0 
26.982 1 2213 11.4344 20.3911 4.51879 1.59768 -0.474097 4.46232 -0.121028 -0.380795 -0.408349 0 0 0 0 0 0 0 0 0 
26.982 1 2009 6.92852 20.2755 0.419878 -0.789824 -0.468911 -1.99491 0.314465 0.354787 -0.0746223 0 0 0 0 0 0 0 0 0 
26.982 1 373 11.3797 16.3736 4.42375 1.30147 -4.77649 -0.451079 0.0660508 -0.308992 0.181018 0 0 0 0 0 0 0 0 0 
26.982 1 175 13.5704 16.2886 2.45455 3.66501 3.11411 0.280781 0.232809 0.013595 -0.0704513 0 0 0 0 0 0 0 0 0 
26.982 1 374 13.6882 18.3125 4.4947 0.761452 1.57262 -0.938742 -0.33093 -0.362678 0.0188959 0 0 0 0 0 0 0 0 0 
26.982 1 377 15.9904 16.1876 4.51695 -0.300375 0.0934619 -6.87475 -0.144087 0.190325 -0.167336 0 0 0 0 0 0 0 0 0 
26.982 1 180 15.9451 18.0934 2.58029 0.694968 -1.95485 4.9232 -0.0777349 0.351046 -0.141196 0 0 0 0 0 0 0 0 0 
26.982 1 179 18.2029 16.1554 2.52635 4.23264 1.56141 0.989828 -0.350601 -0.128629 -0.325502 0 0 0 0 0 0 0 0 0 
26.982 1 378 18.0923 18.1345 4.56407 -2.93825 -1.38845 4.2586 -0.172341 0.216036 -0.303839 0 0 0 0 0 0 0 0 0 
26.982 1 184 20.2927 18.1756 2.41197 3.43569 -2.5888 1.80538 0.103325 -0.113174 -0.382953 0 0 0 0 0 0 0 0 0 
26.982 1 381 20.2001 16.2496 4.32203 -1.27266 -4.11923 -0.293781 0.568125 -0.234462 0.290766 0 0 0 0 0 0 0 0 0 
26.982 1 183 22.5317 16.2381 2.36449 -1.71687 5.37903 3.4392 -0.163501 -0.00906181 0.260267 0 0 0 0 0 0 0 0 0 
26.982 1 382 22.3773 18.1261 4.35715 2.99465 -4.83899 2.80323 0.293291 0.116718 0.202866 0 0 0 0 0 0 0 0 0 
26.982 1 2839 39.9091 20.2906 18.4629 -6.43022 0.377093 2.72965 0.497915 0.271845 -0.917079 0 0 0 0 0 0 0 0 0 
26.982 1 188 24.4632 18.1869 2.42569 -1.20082 1.56572 3.826 0.640813 0.167922 0.111699 0 0 0 0 0 0 0 0 0 
26.982 1 385 24.7776 16.054 4.29791 6.60406 -0.934186 3.13493 -0.370443 0.294707 0.0941445 0 0 0 0 0 0 0 0 0 
26.982 1 187 26.8909 16.3715 2.54139 -4.26707 0.579647 2.70048 -0.278484 -0.047846 -0.332057 0 0 0 0 0 0 0 0 0 
26.982 1 386 26.7042 18.2934 4.52462 0.191805 -0.724691 7.02621 0.249499 -0.294695 -0.0166189 0 0 0 0 0 0 0 0 0 
26.982 1 192 28.974 18.2878 2.42195 6.47198 2.5855 1.21766 0.299683 -0.0636838 0.155675 0 0 0 0 0 0 0 0 0 
26.982 1 2229 28.9603 20.0973 4.50414 3.059 -7.79419 2.05651 -0.123189 0.594388 -0.190967 0 0 0 0 0 0 0 0 0 
26.982 1 2029 29.2344 20.283 0.58731 -0.112006 -2.3043 -2.98719 -0.302175 -0.114092 -0.262561 0 0 0 0 0 0 0 0 0 
26.982 1 389 28.9842 16.3112 4.49221 2.27449 -3.15345 0.993594 0.132409 0.20445 0.218295 0 0 0 0 0 0 0 0 0 
26.982 1 191 31.2323 16.3747 2.57279 -2.57002 -0.700438 3.83849 -0.248312 0.216614 -0.0332208 0 0 0 0 0 0 0 0 0 
26.982 1 390 31.1937 18.345 4.63456 3.08149 -0.23105 3.92389 0.0694554 -0.542811 -0.793468 0 0 0 0 0 0 0 0 0 
26.982 1 393 33.322 16.379 4.58288 0.301517 4.7609 -10.105 0.264237 -0.207966 -0.174961 0 0 0 0 0 0 0 0 0 
26.982 1 196 33.5045 18.2031 2.46764 -2.55607 2.52863 0.36231 -0.243544 0.140606 -0.230624 0 0 0 0 0 0 0 0 0 
26.982 1 195 35.6602 16.3013 2.44334 1.63545 1.04617 -3.16881 -0.201949 0.0593835 -0.00957586 0 0 0 0 0 0 0 0 0 
26.982 1 394 35.5816 18.2877 4.39981 -3.4612 -0.332173 1.0729 0.185853 -0.105038 -0.141368 0 0 0 0 0 0 0 0 0 
26.982 1 397 37.8944 16.297 4.20156 -2.16035 -0.625401 -2.23745 -0.300995 0.114271 0.903874 0 0 0 0 0 0 0 0 0 
26.982 1 200 37.8472 18.455 2.53813 3.22722 2.66758 -0.881032 -0.424115 -0.261132 -0.483162 0 0 0 0 0 0 0 0 0 
26.982 1 361 -1.75017 16.2964 4.19345 4.26142 -2.92424 -6.23248 0.0847304 -0.0357092 0.8147 0 0 0 0 0 0 0 0 0 
26.982 1 199 39.9459 16.4134 2.443 0.547359 -0.221085 1.00522 0.258107 -0.406591 0.0779176 0 0 0 0 0 0 0 0 0 
26.982 1 398 40.0287 18.2602 4.46085 -1.47573 -4.19981 1.13227 -0.014017 0.351043 -0.0401536 0 0 0 0 0 0 0 0 0 
26.982 1 2039 39.9066 20.243 2.4137 -2.08831 2.79068 -1.15759 0.359838 -0.192564 -0.257726 0 0 0 0 0 0 0 0 0 
26.982 1 964 -1.63575 18.3433 18.3118 -2.72265 -3.36695 3.87688 0.0767664 -0.286245 -0.527539 0 0 0 0 0 0 0 0 0 
26.982 1 243 0.642386 4.44396 6.4789 2.88829 -1.72952 9.06951 -0.0420382 0.227607 -0.00560393 0 0 0 0 0 0 0 0 0 
26.982 1 402 0.540398 2.44903 8.35618 0.831677 2.32505 -0.759401 0.255074 -0.434066 -0.0714326 0 0 0 0 0 0 0 0 0 
26.982 1 404 42.2588 2.51955 10.344 2.36557 -0.260102 6.03693 -0.141153 -0.0118086 -0.241678 0 0 0 0 0 0 0 0 0 
26.982 1 203 0.283008 0.505325 6.2489 5.71886 6.52609 -1.25335 0.757431 -0.260867 0.599249 0 0 0 0 0 0 0 0 0 
26.982 1 208 2.66796 2.26506 6.34946 1.44768 2.31242 -4.14289 0.146571 0.232424 0.38262 0 0 0 0 0 0 0 0 0 
26.982 1 997 37.7627 16.2924 16.2182 0.385044 1.9346 0.267276 0.298941 0.237274 -0.264785 0 0 0 0 0 0 0 0 0 
26.982 1 207 4.86089 0.374334 6.26539 1.96878 -2.48776 1.53233 -0.0441733 -0.257703 0.133374 0 0 0 0 0 0 0 0 0 
26.982 1 445 2.72501 4.31406 8.40327 -2.93077 1.82785 -2.79972 0.179929 0.00178016 0.234623 0 0 0 0 0 0 0 0 0 
26.982 1 247 4.78489 4.42363 6.47804 -1.04212 -0.143726 -4.84126 0.303205 -0.333514 0.19754 0 0 0 0 0 0 0 0 0 
26.982 1 406 4.93457 2.11368 8.28119 2.7166 -4.03922 4.11315 -0.125036 0.760252 0.361035 0 0 0 0 0 0 0 0 0 
26.982 1 212 7.04472 2.41352 6.43299 1.97756 4.86743 1.02498 0.0649307 0.307587 0.0692772 0 0 0 0 0 0 0 0 0 
26.982 1 408 2.63963 2.245 10.5018 -0.913157 -1.60612 0.562283 0.172475 0.787394 -0.551298 0 0 0 0 0 0 0 0 0 
26.982 1 994 35.5853 18.1086 16.0442 2.17324 -2.9614 -0.939716 0.129202 -0.12703 0.257028 0 0 0 0 0 0 0 0 0 
26.982 1 995 35.52 16.3559 18.2145 1.74017 -0.0223831 1.4483 0.43789 -0.1075 -0.128706 0 0 0 0 0 0 0 0 0 
26.982 1 449 7.21553 4.30096 8.47674 -2.97455 3.41602 -1.90075 -0.26162 0.224937 -0.179462 0 0 0 0 0 0 0 0 0 
26.982 1 251 9.10566 4.40972 6.61253 -2.27963 5.11861 0.591913 0.574941 0.256945 -0.852395 0 0 0 0 0 0 0 0 0 
26.982 1 410 9.31769 2.44715 8.33248 -1.49057 1.81868 -0.67796 -0.0466806 -0.45207 0.199498 0 0 0 0 0 0 0 0 0 
26.982 1 413 11.4085 0.55297 8.22031 -0.0757028 3.73359 -2.43924 0.108579 -0.177353 0.0767371 0 0 0 0 0 0 0 0 0 
26.982 1 216 11.4862 2.54323 6.20816 2.54056 0.214584 -0.433221 -0.294363 -0.359323 -0.0182052 0 0 0 0 0 0 0 0 0 
26.982 1 1194 35.8104 18.2434 20.2678 -1.08433 4.81126 0.0588768 -0.392598 0.35312 -0.162062 0 0 0 0 0 0 0 0 0 
26.982 1 1000 37.8408 18.1868 18.1528 -4.67787 0.265079 2.59639 -0.100273 0.384582 -0.0116832 0 0 0 0 0 0 0 0 0 
26.982 1 453 11.5065 4.35725 8.28924 -3.92284 -2.6898 -0.509575 -0.120533 0.0965135 0.231221 0 0 0 0 0 0 0 0 0 
26.982 1 255 13.5067 4.42655 6.38866 -0.184255 1.29312 2.15566 0.295572 -0.153316 -0.104967 0 0 0 0 0 0 0 0 0 
26.982 1 414 13.7127 2.3117 8.30628 1.85991 -3.55898 -0.924701 -0.174534 0.220108 0.0584059 0 0 0 0 0 0 0 0 0 
26.982 1 455 13.516 4.36482 10.3422 0.200814 -0.0162987 -3.41871 0.416179 -0.0670118 0.174008 0 0 0 0 0 0 0 0 0 
26.982 1 220 15.877 2.35244 6.29741 1.20722 -0.780765 0.155641 0.0191213 0.16023 -0.0324807 0 0 0 0 0 0 0 0 0 
26.982 1 416 11.3539 2.3955 10.3331 -0.368423 -1.17617 1.08657 0.41261 -0.00276649 0.0822914 0 0 0 0 0 0 0 0 0 
26.982 1 420 15.729 2.2923 10.2801 4.18223 4.919 -0.312704 0.0669046 0.000973571 -0.0120746 0 0 0 0 0 0 0 0 0 
26.982 1 457 15.7967 4.37273 8.28096 -0.86889 1.29153 4.15453 -0.0739442 -0.166112 0.42903 0 0 0 0 0 0 0 0 0 