ITEM: TIMESTEP
18100
ITEM: NUMBER OF ATOMS
4000
ITEM: BOX BOUNDS pp pp pp
-3.75288 44.2529
1.06949 39.4305
1.42745 39.0726
ITEM: ATOMS mass type id x y z vx vy vz fx fy fz xrad yrad zrad vxrad vyrad vzrad fxrad fyrad fzrad 
26.982 1 202 -0.744241 3.72268 5.03684 4.9389 -0.20686 2.06347 0.0447163 0.140358 -0.358164 0 0 0 0 0 0 0 0 0 
26.982 1 2 -1.31132 3.30064 2.15389 2.82433 5.70228 -0.598997 0.365642 -0.127179 -0.189021 0 0 0 0 0 0 0 0 0 
26.982 1 4 -3.41498 2.81264 4.13093 5.31405 0.646115 -0.71101 0.112863 0.462046 0.305148 0 0 0 0 0 0 0 0 0 
26.982 1 241 -2.9503 5.51786 5.17794 -6.99657 -1.88551 0.774483 -0.375482 -0.187944 -0.0538166 0 0 0 0 0 0 0 0 0 
26.982 1 41 -3.19607 5.19713 2.17541 -0.585867 -4.20094 2.45546 -0.96903 -0.29315 -0.0343569 0 0 0 0 0 0 0 0 0 
26.982 1 5 0.639707 1.25184 2.20373 7.31744 -2.90535 -3.45932 0.130127 0.414562 -0.391306 0 0 0 0 0 0 0 0 0 
26.982 1 205 1.3179 1.96984 4.94607 2.21569 5.54287 1.49187 0.0240424 -0.326751 0.0839089 0 0 0 0 0 0 0 0 0 
26.982 1 245 2.16201 4.67451 5.75926 3.03992 3.951 2.06543 0.0750823 -0.404863 0.385805 0 0 0 0 0 0 0 0 0 
26.982 1 8 2.18631 3.6229 3.1273 1.77316 0.834973 1.86741 0.0444832 0.479091 -0.806435 0 0 0 0 0 0 0 0 0 
26.982 1 47 4.2507 5.36798 4.02411 0.557404 0.633008 -6.70235 0.0560616 -0.209305 -0.155967 0 0 0 0 0 0 0 0 0 
26.982 1 206 4.38491 2.62439 4.72847 2.21287 2.32624 -2.96056 0.281197 0.662059 0.134751 0 0 0 0 0 0 0 0 0 
26.982 1 6 4.95864 3.27032 2.03457 1.46211 6.48591 -1.62458 -0.850895 -0.196067 0.414624 0 0 0 0 0 0 0 0 0 
26.982 1 249 6.87058 4.59434 5.54596 0.192921 0.0243379 -1.97298 -0.227294 0.770276 0.0640101 0 0 0 0 0 0 0 0 0 
26.982 1 12 7.01626 2.76858 3.75449 1.0101 5.75843 -2.79521 0.0900197 -0.711424 -0.652307 0 0 0 0 0 0 0 0 0 
26.982 1 51 9.20511 4.36461 2.86714 -2.5671 0.645197 1.14196 0.366599 0.357135 0.543234 0 0 0 0 0 0 0 0 0 
26.982 1 52 6.67401 5.96872 3.06219 3.39592 4.72674 -2.11418 0.773799 0.177785 0.637645 0 0 0 0 0 0 0 0 0 
26.982 1 210 9.31965 2.65321 5.21567 -5.69316 -4.5191 -1.06756 0.205888 -0.124633 -0.343712 0 0 0 0 0 0 0 0 0 
26.982 1 253 11.1748 4.84627 4.81058 0.056464 0.860813 -1.22053 0.264908 -0.686629 0.349338 0 0 0 0 0 0 0 0 0 
26.982 1 16 11.4256 2.63732 3.00845 7.83501 6.99945 1.73548 -0.0972787 0.0466394 -0.184947 0 0 0 0 0 0 0 0 0 
26.982 1 214 13.6002 2.84518 4.71891 5.62473 0.943962 2.81437 -0.6097 0.167732 0.309773 0 0 0 0 0 0 0 0 0 
26.982 1 55 13.0887 4.88566 2.51129 2.61673 -0.0127764 -2.46325 0.330754 0.00800331 0.207995 0 0 0 0 0 0 0 0 0 
26.982 1 20 15.5629 2.64831 3.01634 6.2443 -2.64356 1.67599 0.442937 0.0607653 0.0436394 0 0 0 0 0 0 0 0 0 
26.982 1 257 15.4948 5.107 4.81441 -1.46298 -0.188105 2.80531 -0.243768 -0.656524 -0.0796756 0 0 0 0 0 0 0 0 0 
26.982 1 218 17.6279 2.82957 4.89677 -3.68444 -1.64429 4.5887 -0.468748 0.0459241 0.655786 0 0 0 0 0 0 0 0 0 
26.982 1 59 17.7447 4.79494 3.06198 4.78016 3.00256 1.64933 -0.417735 0.465266 -0.18676 0 0 0 0 0 0 0 0 0 
26.982 1 24 19.6154 2.78561 3.11156 -1.93785 0.4894 2.93518 0.719127 0.259957 -0.0504017 0 0 0 0 0 0 0 0 0 
26.982 1 261 19.4583 5.13923 5.20937 0.576504 0.494453 2.07526 0.311156 -0.184411 -0.677766 0 0 0 0 0 0 0 0 0 
26.982 1 63 21.9995 4.5728 2.97376 1.95192 -5.49983 -0.266118 0.0262158 -0.287412 -0.153022 0 0 0 0 0 0 0 0 0 
26.982 1 222 21.86 3.15305 5.29067 -1.26764 3.60832 3.46178 -0.303499 0.268978 0.00805763 0 0 0 0 0 0 0 0 0 
26.982 1 23 21.9666 1.22072 3.11886 1.77564 -0.951722 0.0943912 -0.758689 -0.637319 0.690515 0 0 0 0 0 0 0 0 0 
26.982 1 28 24.2067 2.39535 3.02538 -1.01707 4.13989 -1.78076 0.846626 0.586906 -0.176661 0 0 0 0 0 0 0 0 0 
26.982 1 265 24.1929 4.50112 4.77605 -2.64057 -3.91965 -0.882187 0.103162 0.0963277 0.143582 0 0 0 0 0 0 0 0 0 
26.982 1 67 26.4332 4.60727 2.76427 5.43557 -3.14764 3.95318 0.255198 0.272447 0.425301 0 0 0 0 0 0 0 0 0 
26.982 1 225 24.4387 1.72324 5.68326 0.478311 3.82818 0.00500342 -0.446501 0.164509 -0.429578 0 0 0 0 0 0 0 0 0 
26.982 1 226 26.9332 3.1127 4.93949 -1.88784 6.32066 -5.56068 -0.181244 -0.642163 -0.166275 0 0 0 0 0 0 0 0 0 
26.982 1 32 30.8995 4.84095 2.23729 1.11025 -1.83964 2.3769 -0.399694 -0.068695 0.386141 0 0 0 0 0 0 0 0 0 
26.982 1 269 28.7663 5.11656 4.57078 -3.26151 0.468605 0.462435 0.327462 -0.013146 0.20299 0 0 0 0 0 0 0 0 0 
26.982 1 27 28.8127 3.08707 2.50633 -6.03109 -0.447647 5.58456 -0.38783 -0.175974 0.399103 0 0 0 0 0 0 0 0 0 
26.982 1 230 30.8814 3.06246 4.40314 3.13699 -1.04975 -3.71648 0.355558 0.165329 0.0611482 0 0 0 0 0 0 0 0 0 
26.982 1 273 33.1084 5.22538 4.1877 0.761775 -2.42178 -4.54191 -0.0782256 -0.336024 0.299733 0 0 0 0 0 0 0 0 0 
26.982 1 36 35.1981 3.51713 4.15582 0.376436 1.29388 -2.28868 0.407706 -0.264387 0.0901282 0 0 0 0 0 0 0 0 0 
26.982 1 30 33.0996 3.19923 2.26719 1.93826 3.29258 3.30084 -0.630926 -0.221077 -0.488302 0 0 0 0 0 0 0 0 0 
26.982 1 73 34.9714 5.02716 1.91909 -1.42394 4.87538 -0.305581 0.0939195 0.45343 0.0148196 0 0 0 0 0 0 0 0 0 
26.982 1 33 35.1354 1.32465 2.31021 -0.591112 -7.58621 4.01993 0.302472 0.486456 -1.07079 0 0 0 0 0 0 0 0 0 
26.982 1 236 33.3291 3.28371 6.15022 3.87161 0.558591 5.34102 0.0233288 -0.159251 0.412836 0 0 0 0 0 0 0 0 0 
26.982 1 31 33.2771 1.3484 4.19712 3.38049 0.88038 -2.28062 -0.444525 -0.26573 0.724677 0 0 0 0 0 0 0 0 0 
26.982 1 34 37.1703 3.43469 1.7847 4.08754 8.80047 -4.62119 -0.345908 0.116744 0.527127 0 0 0 0 0 0 0 0 0 
26.982 1 35 37.1241 1.3789 4.06541 -1.41071 2.07353 5.94002 0.959582 0.68834 -0.147923 0 0 0 0 0 0 0 0 0 
26.982 1 77 38.9257 5.64176 1.5199 2.41513 -0.744148 -0.770237 -0.0983844 0.0956165 0.951757 0 0 0 0 0 0 0 0 0 
26.982 1 75 37.1087 5.58822 3.73744 1.03898 -7.46892 2.45283 0.340925 -0.800886 0.369789 0 0 0 0 0 0 0 0 0 
26.982 1 234 37.3106 3.54296 5.97375 -3.19064 -1.47379 1.41127 -0.186688 -0.526169 -0.0414713 0 0 0 0 0 0 0 0 0 
26.982 1 40 39.0414 3.66519 3.86862 0.319109 1.89737 -1.0601 0.323337 0.324335 -0.116217 0 0 0 0 0 0 0 0 0 
26.982 1 237 39.5557 1.71092 5.91981 -1.89049 5.13539 -0.687668 -0.0691971 -0.155937 0.174653 0 0 0 0 0 0 0 0 0 
26.982 1 37 39.3528 1.79682 1.92672 -3.80093 -6.43536 1.84587 -0.242937 0.247742 -0.0726724 0 0 0 0 0 0 0 0 0 
26.982 1 1 43.6254 2.28782 1.67795 3.87528 -0.0838301 8.20051 -0.4182 0.39402 0.00468607 0 0 0 0 0 0 0 0 0 
26.982 1 79 42.515 4.65224 4.11394 -1.0202 7.32252 0.477393 0.0780896 0.467511 0.0102229 0 0 0 0 0 0 0 0 0 
26.982 1 39 41.4923 2.22124 3.87111 6.09039 -0.726467 -3.3661 0.102929 -0.395863 0.150443 0 0 0 0 0 0 0 0 0 
26.982 1 38 41.1151 3.99659 1.71541 -0.302693 -1.33133 2.87699 0.28077 0.132963 -0.0442184 0 0 0 0 0 0 0 0 0 
26.982 1 43 -1.10326 6.16128 3.57924 8.90323 -2.40432 -4.11204 0.718793 0.100634 -0.267798 0 0 0 0 0 0 0 0 0 
26.982 1 83 -0.420276 8.97919 3.69845 -0.0162399 -3.56307 6.6812 -0.0593522 0.0633846 0.315426 0 0 0 0 0 0 0 0 0 
26.982 1 44 -3.23514 8.61206 3.08208 -4.1407 -3.72574 -0.800881 -0.0994115 -0.00261687 0.226124 0 0 0 0 0 0 0 0 0 
26.982 1 242 0.164687 6.39412 5.86473 -4.81797 -5.39247 -2.01424 -0.472712 0.410792 0.506013 0 0 0 0 0 0 0 0 0 
26.982 1 281 -2.05721 8.0703 5.67711 2.37649 -0.781379 -1.88109 -0.126796 0.234938 -0.141041 0 0 0 0 0 0 0 0 0 
26.982 1 48 1.84053 6.67976 3.86587 2.68312 -2.38929 -1.5293 0.244381 0.356551 -0.559008 0 0 0 0 0 0 0 0 0 
26.982 1 285 1.94307 8.74845 5.86244 -1.33432 -1.15014 -5.43504 0.143306 0.416695 -0.0535894 0 0 0 0 0 0 0 0 0 
26.982 1 87 4.30974 8.27251 3.16457 1.03617 7.62811 3.54139 0.492105 -1.10571 0.682193 0 0 0 0 0 0 0 0 0 
26.982 1 246 4.43848 7.37526 5.83377 0.472627 1.69511 -0.753933 -0.667303 -0.1217 -0.0510017 0 0 0 0 0 0 0 0 0 
26.982 1 88 2.12216 9.86166 3.2936 -0.343196 1.73628 -2.90652 -0.0219148 0.0363882 -0.273506 0 0 0 0 0 0 0 0 0 
26.982 1 286 4.59971 10.0869 5.14719 3.70444 2.20497 1.98475 -0.37232 0.00449812 0.380782 0 0 0 0 0 0 0 0 0 
26.982 1 86 4.48925 10.3038 1.55332 -4.91647 -1.11818 -2.70365 -0.204238 0.516736 -0.198067 0 0 0 0 0 0 0 0 0 
26.982 1 289 6.87898 8.26338 5.03389 2.9272 0.267872 -2.95512 -0.242538 -0.138485 -0.322793 0 0 0 0 0 0 0 0 0 
26.982 1 250 9.07249 6.51417 4.91343 -4.02635 6.15353 1.35582 -0.301426 -0.229244 0.38118 0 0 0 0 0 0 0 0 0 
26.982 1 91 8.88379 8.50016 3.22907 5.17214 -1.09859 -1.35912 -0.051467 0.498033 -0.557624 0 0 0 0 0 0 0 0 0 
26.982 1 293 10.9487 8.85121 5.03394 0.239972 0.850424 2.11964 0.0644133 0.0694727 -0.206293 0 0 0 0 0 0 0 0 0 
26.982 1 56 11.185 6.82434 2.88564 1.4108 -6.12229 -4.16385 -0.623167 -0.1911 -0.333875 0 0 0 0 0 0 0 0 0 
26.982 1 95 12.928 8.85061 2.80764 0.109571 -1.09241 -2.73029 0.0613915 0.273156 -0.180535 0 0 0 0 0 0 0 0 0 
26.982 1 254 13.1668 6.66745 4.7992 -4.12629 1.70409 1.20733 0.33624 0.372157 0.208343 0 0 0 0 0 0 0 0 0 
26.982 1 60 15.163 6.8458 2.6006 -4.63837 4.0232 -1.95581 -0.0598313 -0.594797 0.471029 0 0 0 0 0 0 0 0 0 
26.982 1 297 15.2268 8.983 4.23574 1.4428 -0.677273 -1.67231 -0.0134075 0.412495 0.648917 0 0 0 0 0 0 0 0 0 
26.982 1 99 17.6976 8.92896 3.01304 0.868507 3.66563 0.0319378 0.512709 -0.396092 0.0788497 0 0 0 0 0 0 0 0 0 
26.982 1 258 17.3733 7.13534 4.89276 0.712204 -8.04724 -8.54894 0.573302 -0.383425 0.158625 0 0 0 0 0 0 0 0 0 
26.982 1 64 19.7799 6.75631 2.9542 -0.159459 3.38083 0.698313 -0.177891 0.257554 0.131748 0 0 0 0 0 0 0 0 0 
26.982 1 301 20.1626 8.80117 4.96797 -3.74413 0.516318 11.3129 -0.391232 -0.129906 0.00348898 0 0 0 0 0 0 0 0 0 
26.982 1 103 22.0892 8.45107 2.98359 2.31525 -1.87851 0.24384 0.0943849 0.159036 0.0714462 0 0 0 0 0 0 0 0 0 
26.982 1 262 21.8965 6.337 4.93522 -2.56464 4.57299 2.78778 0.309189 0.335027 -0.00204925 0 0 0 0 0 0 0 0 0 
26.982 1 302 22.2177 10.6973 4.75215 -4.52993 5.13983 -7.17381 -0.112971 -0.171794 0.377556 0 0 0 0 0 0 0 0 0 
26.982 1 305 24.3522 8.5402 4.84423 -2.61991 -2.08306 1.28766 0.0264356 -0.18661 0.304836 0 0 0 0 0 0 0 0 0 
26.982 1 68 24.3927 6.54994 2.76105 -0.0326681 2.85087 -2.28381 -0.646386 0.607248 0.567463 0 0 0 0 0 0 0 0 0 
26.982 1 108 24.1568 10.3662 2.92579 1.09031 0.459108 -0.617245 0.549508 0.500218 -0.573062 0 0 0 0 0 0 0 0 0 
26.982 1 107 26.3218 8.76287 2.94308 -3.15453 -2.06549 2.74835 0.370273 -0.432724 -0.362242 0 0 0 0 0 0 0 0 0 
26.982 1 266 26.2095 6.31787 4.81941 -8.61676 0.463192 5.64639 0.696938 0.290296 -0.117269 0 0 0 0 0 0 0 0 0 
26.982 1 72 28.5066 6.87276 2.52996 1.1141 0.289893 -2.2155 -0.0760715 0.0491133 0.576819 0 0 0 0 0 0 0 0 0 
26.982 1 309 28.6622 8.82393 4.61331 0.0980149 -4.34864 0.958585 0.0583154 -0.456693 0.181648 0 0 0 0 0 0 0 0 0 
26.982 1 112 28.6632 10.6297 2.66427 2.33123 -0.142578 -2.33327 -0.269215 -0.0621964 -0.228236 0 0 0 0 0 0 0 0 0 
26.982 1 111 30.7905 8.84813 2.4606 -1.29401 -4.46914 1.42842 -0.520852 0.156082 -0.0216938 0 0 0 0 0 0 0 0 0 
26.982 1 270 30.8114 7.07747 4.54189 0.508588 2.63196 -2.26542 -0.299045 -0.332877 -0.0069731 0 0 0 0 0 0 0 0 0 
26.982 1 71 32.5768 6.85565 2.24399 10.8954 -3.90954 -4.35192 0.735571 0.533878 -0.2876 0 0 0 0 0 0 0 0 0 
26.982 1 76 35.2655 7.32513 3.49389 3.9317 6.25098 -3.6681 -1.56589 -0.0298086 1.09519 0 0 0 0 0 0 0 0 0 
26.982 1 313 33.4118 7.56743 5.44115 2.09166 -1.58157 0.466621 0.827812 -0.563823 -0.568796 0 0 0 0 0 0 0 0 0 
26.982 1 116 33.4496 9.3579 3.18752 -2.30434 -0.686956 0.785255 0.146123 -0.332805 -0.545727 0 0 0 0 0 0 0 0 0 
26.982 1 310 31.7383 9.67739 5.05906 0.954641 1.00435 -1.98171 -0.643153 0.0623903 0.467769 0 0 0 0 0 0 0 0 0 
26.982 1 115 38.1589 8.02121 4.3049 -1.18722 -3.37353 0.909866 -0.418636 0.490638 -0.0427838 0 0 0 0 0 0 0 0 0 
26.982 1 117 39.5864 8.18071 2.04478 4.98861 -2.36822 4.38957 -0.149946 0.0157506 -0.0630939 0 0 0 0 0 0 0 0 0 
26.982 1 74 36.8787 7.62482 1.80279 2.83309 1.80611 1.21714 1.14537 0.43045 -1.09279 0 0 0 0 0 0 0 0 0 
26.982 1 155 35.889 9.97861 4.09164 6.76249 -3.9818 -0.658502 0.385944 -0.133199 -0.116094 0 0 0 0 0 0 0 0 0 
26.982 1 314 36.2672 8.03289 6.14855 -2.5021 0.599248 0.607547 -0.185333 -0.12499 -0.299826 0 0 0 0 0 0 0 0 0 
26.982 1 80 40.2738 6.41548 4.15192 0.783594 1.82037 -0.264074 0.302292 -0.52776 -0.435503 0 0 0 0 0 0 0 0 0 
26.982 1 317 40.6477 9.25873 4.80158 1.59974 2.39314 -3.68722 0.0828165 -0.487698 0.180283 0 0 0 0 0 0 0 0 0 
26.982 1 78 42.5025 6.65977 1.67835 4.06386 3.0911 -0.0740906 0.044545 -0.790161 0.0267452 0 0 0 0 0 0 0 0 0 
26.982 1 119 41.9847 9.06252 2.38672 -2.17477 6.48795 -6.44561 0.887869 0.813174 0.880521 0 0 0 0 0 0 0 0 0 
26.982 1 278 42.9186 7.41679 4.76635 -0.44264 -1.45436 2.45941 -0.0442502 -0.258 -0.542159 0 0 0 0 0 0 0 0 0 
26.982 1 284 43.2755 10.1979 5.16646 1.28989 -3.7552 4.22344 -1.3016 -0.354763 0.2059 0 0 0 0 0 0 0 0 0 
26.982 1 282 -2.47812 11.0073 4.55288 0.783366 -0.0151339 0.628963 1.60233 0.512703 -0.607512 0 0 0 0 0 0 0 0 0 
26.982 1 322 -2.2242 13.714 3.50934 1.81317 -5.32704 -3.78743 -0.178317 -0.253678 0.397135 0 0 0 0 0 0 0 0 0 
26.982 1 122 -0.110239 14.7613 2.33705 2.33327 -3.04293 3.70991 0.477573 -0.268622 0.353804 0 0 0 0 0 0 0 0 0 
26.982 1 325 0.0445209 12.0986 3.46088 2.39427 -1.74212 3.52501 0.192592 -0.0540508 0.132984 0 0 0 0 0 0 0 0 0 
26.982 1 328 0.058024 14.2324 5.3967 1.14417 0.289031 3.66624 -0.435521 -0.160797 -0.124643 0 0 0 0 0 0 0 0 0 
26.982 1 123 -1.67831 10.9064 1.69709 0.338711 -5.57537 3.41346 -1.11363 0.0380664 0.130323 0 0 0 0 0 0 0 0 0 
26.982 1 128 2.37762 14.3439 3.96126 2.12626 4.66319 -1.55859 -0.45124 -0.233026 -0.544112 0 0 0 0 0 0 0 0 0 
26.982 1 127 4.56262 12.5038 3.92205 2.0144 -5.04208 -0.327447 -0.408491 -0.27808 -0.884515 0 0 0 0 0 0 0 0 0 
26.982 1 326 4.38342 14.5627 5.66277 -4.04001 1.26164 1.48056 0.217219 -0.166556 0.435134 0 0 0 0 0 0 0 0 0 
26.982 1 125 2.40353 12.4534 1.9999 2.31812 -4.53994 6.51043 0.351081 -0.281401 0.0868117 0 0 0 0 0 0 0 0 0 
26.982 1 327 2.23384 11.7673 5.30978 -0.536359 -0.251121 4.24608 0.121286 0.385886 -0.0759606 0 0 0 0 0 0 0 0 0 
26.982 1 126 3.86961 14.7005 1.44524 2.04962 -0.683975 0.92622 -0.0122605 -0.172552 0.310304 0 0 0 0 0 0 0 0 0 
26.982 1 290 8.75244 10.8353 5.1085 1.13176 -1.51876 2.97417 0.800262 -0.631952 0.0555153 0 0 0 0 0 0 0 0 0 
26.982 1 92 6.59756 10.2882 3.3251 -0.243661 -8.89563 -0.456905 0.122168 0.794277 -0.161964 0 0 0 0 0 0 0 0 0 
26.982 1 329 6.65232 12.7314 5.435 -3.68469 3.20834 0.592896 -0.134112 0.419066 0.323508 0 0 0 0 0 0 0 0 0 
26.982 1 132 6.15167 14.7865 3.46521 -3.0236 -1.58998 1.40084 0.0869371 -0.47748 -0.399278 0 0 0 0 0 0 0 0 0 
26.982 1 131 8.44586 12.6701 3.40735 -0.358465 1.3733 1.8636 0.00861115 0.476666 -1.35251 0 0 0 0 0 0 0 0 0 
26.982 1 330 8.51838 14.7529 5.35972 3.22149 1.70141 0.200709 -0.439581 0.272384 -0.00053766 0 0 0 0 0 0 0 0 0 
26.982 1 294 13.1018 10.9906 4.77933 -2.50165 2.01136 1.77932 -0.834013 -0.121822 -0.189081 0 0 0 0 0 0 0 0 0 
26.982 1 96 10.7974 10.8312 2.83094 3.02953 -0.468714 2.10908 -0.22334 0.149065 0.277168 0 0 0 0 0 0 0 0 0 
26.982 1 333 10.7494 12.8881 5.03234 2.22069 -5.52055 -2.75886 0.13209 -0.103071 0.118973 0 0 0 0 0 0 0 0 0 
26.982 1 135 12.4608 13.081 2.78392 0.339826 -8.25112 2.71929 -0.225017 0.369717 0.0156605 0 0 0 0 0 0 0 0 0 
26.982 1 136 10.3256 15.1336 3.40694 5.22712 -0.295317 1.88391 -0.0378393 -0.0732002 -0.822008 0 0 0 0 0 0 0 0 0 
26.982 1 334 12.5042 15.1682 4.95169 -5.70094 -3.03612 -0.154993 0.17299 0.0653281 0.316387 0 0 0 0 0 0 0 0 0 
26.982 1 100 14.4517 11.2874 2.43963 -3.01262 -4.0606 -3.44313 0.604365 -0.0498013 -0.094673 0 0 0 0 0 0 0 0 0 
26.982 1 337 14.7849 13.2809 4.75245 -1.70457 0.826016 -2.83195 -0.399957 -0.129178 0.0160853 0 0 0 0 0 0 0 0 0 
26.982 1 139 16.4757 13.5017 2.37404 -5.06769 4.70786 -2.27568 -0.260118 -0.357582 0.12461 0 0 0 0 0 0 0 0 0 
26.982 1 298 17.0485 11.4534 4.24243 6.11761 5.65935 -3.04403 -0.1532 0.357451 -0.0130283 0 0 0 0 0 0 0 0 0 
26.982 1 338 17.2238 14.4508 5.08996 -9.0732 4.53456 0.315136 -0.213768 -0.303918 1.1353 0 0 0 0 0 0 0 0 0 
26.982 1 140 14.3688 15.4316 2.89522 -8.87473 4.40806 3.37153 0.0337032 0.281425 -0.419564 0 0 0 0 0 0 0 0 0 
26.982 1 104 19.7723 10.9214 3.07594 -0.443547 5.12097 -8.08882 0.131798 -0.386745 0.0839542 0 0 0 0 0 0 0 0 0 
26.982 1 341 19.1974 13.6894 3.6025 -1.23303 5.05643 -1.65601 0.278787 -0.344952 -0.117276 0 0 0 0 0 0 0 0 0 
26.982 1 304 19.6235 11.5599 5.82331 -3.47488 6.11046 0.0908773 0.161254 -0.0250315 -0.501749 0 0 0 0 0 0 0 0 0 
26.982 1 143 22.4003 12.5084 2.70535 3.02658 5.01974 -3.46247 -0.285527 1.00944 0.242013 0 0 0 0 0 0 0 0 0 
26.982 1 342 21.8327 14.0918 4.88014 4.27152 -4.58129 -1.8522 0.600441 -0.582046 0.289453 0 0 0 0 0 0 0 0 0 
26.982 1 306 26.5406 10.6634 4.97866 4.28409 1.62236 -2.02373 -0.226088 0.159887 -0.307954 0 0 0 0 0 0 0 0 0 
26.982 1 148 24.7634 14.6566 2.69164 -2.09314 -0.0227858 -1.51792 -0.556581 -0.689156 0.683712 0 0 0 0 0 0 0 0 0 
26.982 1 345 24.4521 12.5745 4.70225 -4.33182 -9.7515 -3.33674 -0.25746 -0.303714 0.0180747 0 0 0 0 0 0 0 0 0 
26.982 1 147 26.6338 12.5549 2.77812 -0.650858 -0.72335 -0.865497 -0.362664 -0.0317399 0.165041 0 0 0 0 0 0 0 0 0 
26.982 1 385 24.8694 15.023 5.62486 1.53778 1.35945 -1.68696 0.529555 0.123685 -0.61698 0 0 0 0 0 0 0 0 0 
26.982 1 346 27.5852 13.4177 5.19632 1.02624 0.269854 -2.85708 -0.216844 -0.346385 0.205137 0 0 0 0 0 0 0 0 0 
26.982 1 152 29.4125 13.1582 3.15276 4.2494 3.79405 -8.37927 0.482936 0.52935 -0.182676 0 0 0 0 0 0 0 0 0 
26.982 1 349 29.6245 11.4765 5.31913 7.73479 -1.35296 3.91416 0.129251 -0.392192 -0.550394 0 0 0 0 0 0 0 0 0 
26.982 1 187 27.6515 15.2285 3.14449 0.616643 0.233943 0.579668 -0.153846 0.136193 -0.00376153 0 0 0 0 0 0 0 0 0 
26.982 1 389 29.7899 15.4528 4.97655 1.40953 0.987885 3.70915 0.396388 -0.17074 -0.647454 0 0 0 0 0 0 0 0 0 
26.982 1 151 31.6287 11.4968 2.89109 -1.67104 0.17519 -5.13621 0.0742527 -0.594313 0.0152488 0 0 0 0 0 0 0 0 0 
26.982 1 350 31.698 13.3987 4.71324 2.77252 -7.49781 -1.32948 0.215093 0.327166 0.534032 0 0 0 0 0 0 0 0 0 
26.982 1 156 33.8219 13.5876 2.62323 5.58107 -1.17242 5.05013 -0.125645 0.0429065 0.100852 0 0 0 0 0 0 0 0 0 
26.982 1 353 33.7931 11.554 4.69381 -0.156709 1.17023 1.12895 0.0789335 0.634634 0.176946 0 0 0 0 0 0 0 0 0 
26.982 1 153 34.5124 11.2171 1.4702 2.80654 4.26404 -0.0482767 0.0373038 0.354476 0.104238 0 0 0 0 0 0 0 0 0 
26.982 1 114 37.2829 10.9075 1.91686 3.5709 -0.722426 -0.494918 0.107058 0.0196284 0.887756 0 0 0 0 0 0 0 0 0 
26.982 1 354 35.8857 13.5441 4.64775 1.13924 -4.99182 -5.363 -0.118861 0.0801984 -0.73648 0 0 0 0 0 0 0 0 0 
26.982 1 160 38.4552 13.4352 3.40468 0.623796 -2.32037 3.34964 -0.00671378 0.235303 1.1062 0 0 0 0 0 0 0 0 0 
26.982 1 357 38.4146 10.7757 4.93524 4.20477 -8.88336 0.294733 -0.240268 0.489074 0.0542452 0 0 0 0 0 0 0 0 0 
26.982 1 360 38.2261 13.5776 6.17485 0.965244 0.193773 0.659488 0.442961 0.159698 -0.393871 0 0 0 0 0 0 0 0 0 
26.982 1 154 36.3796 13.6434 1.65521 -1.63451 1.7119 0.463393 0.065943 -0.0392565 -0.385418 0 0 0 0 0 0 0 0 0 
26.982 1 124 43.7225 14.0495 1.7153 -1.83823 5.08752 2.06163 0.0895086 -0.631381 0.100247 0 0 0 0 0 0 0 0 0 
26.982 1 120 40.0678 10.9356 2.76385 4.28576 2.8279 -2.34836 0.0291607 -0.0319043 0.169981 0 0 0 0 0 0 0 0 0 
26.982 1 84 43.7176 11.3792 2.66691 -2.02998 0.326753 1.64968 -0.427221 -0.06388 -0.91367 0 0 0 0 0 0 0 0 0 
26.982 1 318 41.0439 11.9531 5.32383 1.33241 -1.76139 -8.83828 -0.749576 0.0346507 0.0759509 0 0 0 0 0 0 0 0 0 
26.982 1 321 43.3637 13.1198 4.74106 -7.41679 -4.3643 -2.9472 0.162372 0.0691143 -0.405776 0 0 0 0 0 0 0 0 0 
26.982 1 159 41.3055 13.5479 2.78527 -1.22798 0.329212 -6.29051 -0.00983974 -0.0067125 0.15865 0 0 0 0 0 0 0 0 0 
26.982 1 358 41.0078 14.7879 5.19462 0.483976 4.07764 -2.40587 -0.657002 -0.147875 -1.20848 0 0 0 0 0 0 0 0 0 
26.982 1 161 -2.46753 16.0752 2.01056 -2.64315 -3.56881 3.31442 -0.216134 0.217908 0.213273 0 0 0 0 0 0 0 0 0 
26.982 1 2003 -0.640843 20.3094 3.79277 -1.17256 2.36287 -1.1059 -0.968575 -0.430553 0.256737 0 0 0 0 0 0 0 0 0 
26.982 1 163 -2.75489 18.4466 3.73263 -3.09355 -3.28832 4.87227 0.235436 -0.117027 -0.2873 0 0 0 0 0 0 0 0 0 
26.982 1 362 -0.566105 17.953 5.64749 -0.43616 1.84532 6.48039 0.464587 0.706131 -0.412718 0 0 0 0 0 0 0 0 0 
26.982 1 162 -0.888172 18.2808 1.69404 -1.08368 0.913882 0.928636 0.388916 0.0148752 0.372693 0 0 0 0 0 0 0 0 0 
26.982 1 363 -2.23856 16.0206 5.21252 -2.21937 2.41941 -0.496154 -0.283111 -0.430063 0.124648 0 0 0 0 0 0 0 0 0 
26.982 1 166 3.57075 18.5135 1.50842 5.29593 0.22134 1.82733 -0.228964 0.271102 0.230031 0 0 0 0 0 0 0 0 0 
26.982 1 165 1.62777 16.5806 1.78349 -2.94725 -8.78409 4.1401 0.0469431 0.295037 0.221138 0 0 0 0 0 0 0 0 0 
26.982 1 365 1.88095 16.4635 5.50951 0.501992 5.50591 -0.24836 0.105575 -0.107324 0.13765 0 0 0 0 0 0 0 0 0 
26.982 1 168 1.57142 18.6143 3.8711 -3.16725 3.55723 -0.224754 -0.0482645 -0.535137 -0.764345 0 0 0 0 0 0 0 0 0 
26.982 1 167 3.98063 16.5358 3.40092 -3.84814 3.72436 -0.183426 0.0235106 0.411307 0.419081 0 0 0 0 0 0 0 0 0 
26.982 1 366 3.81893 18.4948 5.46181 4.53996 1.88673 0.062819 0.231515 0.269441 0.269155 0 0 0 0 0 0 0 0 0 
26.982 1 369 6.10353 16.7883 5.46647 3.6273 1.33823 1.76435 -0.0117662 0.224551 0.0148357 0 0 0 0 0 0 0 0 0 
26.982 1 172 5.81884 18.8463 3.42993 -4.6739 -1.65031 1.0479 -0.143768 -0.518836 0.117177 0 0 0 0 0 0 0 0 0 
26.982 1 171 7.89913 16.7898 3.39917 1.60099 6.55272 -0.0589002 0.213722 0.317222 -0.0958121 0 0 0 0 0 0 0 0 0 
26.982 1 370 7.98028 19.0804 5.57216 4.51343 1.17717 6.4449 0.264435 -0.271613 -0.543487 0 0 0 0 0 0 0 0 0 
26.982 1 176 9.65411 18.822 3.17833 8.90709 2.47742 3.1852 0.422049 0.655969 0.174 0 0 0 0 0 0 0 0 0 
26.982 1 373 10.1639 17.0584 5.46138 0.482401 1.96462 -7.32624 0.153343 0.49645 -0.316018 0 0 0 0 0 0 0 0 0 
26.982 1 175 11.9565 17.3681 2.83619 1.28122 -3.13406 0.216609 0.356007 -0.242829 0.00230375 0 0 0 0 0 0 0 0 0 
26.982 1 374 12.0874 19.3274 4.77731 -5.96386 2.98099 -3.70019 -0.169509 -0.248703 0.281044 0 0 0 0 0 0 0 0 0 
26.982 1 377 14.4331 17.5697 4.68557 -10.3636 1.61498 -3.18481 -0.591898 0.0335747 -0.9683 0 0 0 0 0 0 0 0 0 
26.982 1 179 17.367 15.9909 3.07601 3.47691 1.57236 -1.56472 0.0267882 0.814743 -0.366821 0 0 0 0 0 0 0 0 0 
26.982 1 178 16.022 18.3022 2.45818 -0.309207 5.17649 -0.184538 0.124288 -0.455725 0.173259 0 0 0 0 0 0 0 0 0 
26.982 1 180 13.827 19.8417 2.57354 3.69741 -5.70437 1.02168 0.131378 -0.545648 0.106152 0 0 0 0 0 0 0 0 0 
26.982 1 379 17.1654 17.1622 5.60006 2.43484 -8.33433 3.46848 0.0774431 -0.107516 0.330002 0 0 0 0 0 0 0 0 0 
26.982 1 2217 15.7214 20.0863 4.62032 0.916764 -3.6223 -2.00157 -0.187579 -0.0724115 -0.14709 0 0 0 0 0 0 0 0 0 
26.982 1 2219 17.91 19.8411 6.09159 0.850701 -2.81058 1.49827 0.0630695 0.464179 0.259558 0 0 0 0 0 0 0 0 0 
26.982 1 378 18.6248 18.412 3.72855 -0.0269234 -5.40192 3.3877 0.259465 -0.16706 -0.320891 0 0 0 0 0 0 0 0 0 
26.982 1 381 20.0632 15.9583 4.76872 1.43032 -2.84026 -6.12996 -0.557982 0.884288 0.284062 0 0 0 0 0 0 0 0 0 
26.982 1 184 20.0066 16.6141 1.9752 -1.82145 1.06696 2.55918 0.393977 0.213954 -0.0540076 0 0 0 0 0 0 0 0 0 
26.982 1 382 21.6339 18.6982 3.94202 1.73302 -4.09228 3.40699 0.626576 -0.609528 -0.434138 0 0 0 0 0 0 0 0 0 
26.982 1 2021 19.7048 19.7773 1.36877 2.5952 2.13372 -1.49544 0.318077 0.00198426 0.488828 0 0 0 0 0 0 0 0 0 
26.982 1 183 22.561 16.2606 3.21753 -3.23444 -4.90396 -3.34742 0.129871 -0.167084 0.025537 0 0 0 0 0 0 0 0 0 
26.982 1 188 25.4484 17.0579 3.21384 0.595868 -4.13268 2.85955 0.389607 0.220546 0.576142 0 0 0 0 0 0 0 0 0 
26.982 1 383 22.7959 16.9112 5.86629 0.946014 4.18875 -1.51551 -0.165564 0.139955 -0.249952 0 0 0 0 0 0 0 0 0 
26.982 1 2225 25.1076 19.3222 4.58141 -1.35719 -0.859893 -3.46192 0.0175856 0.254108 -0.321698 0 0 0 0 0 0 0 0 0 
26.982 1 2025 24.985 19.0041 1.41077 -5.47234 4.96449 -5.29514 0.302279 0.597198 -0.244802 0 0 0 0 0 0 0 0 0 
26.982 1 2229 29.7156 19.3219 4.74016 -2.97938 2.7099 -4.45564 0.21609 0.213107 0.548673 0 0 0 0 0 0 0 0 0 
26.982 1 386 27.8007 17.3378 4.89916 1.32755 5.46025 -2.16009 -0.242224 0.25683 0.0377637 0 0 0 0 0 0 0 0 0 
26.982 1 192 29.863 17.4917 2.71599 -4.15929 1.68407 -1.62839 0.0604675 -0.260297 0.125092 0 0 0 0 0 0 0 0 0 
26.982 1 2027 27.7396 19.2305 2.94518 3.13896 -0.447621 3.80912 -0.65154 0.192695 -0.208836 0 0 0 0 0 0 0 0 0 
26.982 1 2031 31.8977 19.4843 2.78684 -0.0178221 4.76923 -3.0297 -0.0309974 0.205566 -0.718172 0 0 0 0 0 0 0 0 0 
26.982 1 191 31.8383 15.5806 2.89856 2.22225 -3.43254 3.9565 -0.123178 -0.459491 -0.845465 0 0 0 0 0 0 0 0 0 
26.982 1 390 31.8305 17.5664 4.65759 -0.751276 -2.2183 4.13065 0.204833 -0.161334 0.702162 0 0 0 0 0 0 0 0 0 
26.982 1 393 33.6865 15.4894 4.68101 -0.848951 -0.599557 0.212349 0.804785 -0.202221 0.422541 0 0 0 0 0 0 0 0 0 
26.982 1 196 34.0672 17.5183 2.85082 -3.4559 0.566122 2.19719 -0.116358 -0.147896 -0.0375728 0 0 0 0 0 0 0 0 0 
26.982 1 2233 33.9189 19.5975 4.65993 -5.35262 -2.80924 -1.95118 0.365701 -0.133208 -0.212805 0 0 0 0 0 0 0 0 0 
26.982 1 195 36.2848 15.8679 3.27676 2.39694 -2.29716 1.33874 0.269481 0.160301 0.25017 0 0 0 0 0 0 0 0 0 
26.982 1 394 36.3821 18.2154 5.31292 -2.99621 -0.758105 -0.409709 0.291961 0.151695 -0.430609 0 0 0 0 0 0 0 0 0 
26.982 1 397 38.7241 16.3189 5.14597 3.00266 -2.60652 1.50718 -0.326361 0.397386 -0.437723 0 0 0 0 0 0 0 0 0 
26.982 1 200 38.2973 18.0345 2.55482 0.134704 1.09536 -3.66798 0.314588 0.0970077 0.436487 0 0 0 0 0 0 0 0 0 
26.982 1 2035 36.3253 19.8267 3.01926 -2.43578 0.453335 6.08986 -0.539747 -0.224533 -0.32953 0 0 0 0 0 0 0 0 0 
26.982 1 2237 38.5453 19.7459 4.67916 -1.61087 -7.157 4.87741 0.374127 0.373901 -0.212262 0 0 0 0 0 0 0 0 0 
26.982 1 197 38.7186 15.6723 1.51217 -4.67197 2.15542 -1.49384 -0.735056 -0.434254 0.188701 0 0 0 0 0 0 0 0 0 
26.982 1 361 43.3224 15.8239 3.74503 -4.20897 -1.27056 1.5536 0.112034 0.106142 0.508261 0 0 0 0 0 0 0 0 0 
26.982 1 164 42.5107 18.4938 3.48826 4.59328 -1.16322 -3.11629 0.439503 -0.0356525 -0.023627 0 0 0 0 0 0 0 0 0 
26.982 1 398 40.7948 16.567 2.78365 1.70104 -1.49667 1.03525 -0.0347877 -0.413788 0.532873 0 0 0 0 0 0 0 0 0 
26.982 1 364 43.6362 17.8776 5.88363 1.44975 -4.79106 -0.939637 -0.067972 -0.219489 0.375027 0 0 0 0 0 0 0 0 0 
26.982 1 2239 41.4062 19.6577 6.09236 -2.82642 0.95417 2.82654 -0.0118329 0.0576242 -0.249596 0 0 0 0 0 0 0 0 0 
26.982 1 203 -0.674786 1.6969 6.85498 -6.76059 1.48686 -0.0803528 0.143791 0.369359 0.62282 0 0 0 0 0 0 0 0 0 
26.982 1 243 -0.0465358 4.49601 7.75368 7.97558 3.28182 -3.92862 0.859973 -0.178937 -0.0211225 0 0 0 0 0 0 0 0 0 
26.982 1 401 -2.59021 1.69777 9.00813 1.07456 5.54512 2.70899 0.235087 -0.391102 0.00718857 0 0 0 0 0 0 0 0 0 
26.982 1 441 -1.66605 4.14701 9.74952 -2.29815 -6.2312 1.84707 -0.271589 0.394291 0.585125 0 0 0 0 0 0 0 0 0 
26.982 1 204 -2.64123 3.61196 7.12784 5.69958 5.34191 1.7607 -0.193313 -0.0334939 -0.39431 0 0 0 0 0 0 0 0 0 
26.982 1 402 1.12188 2.08256 9.25308 2.83239 4.10013 1.20021 -0.101838 0.547246 -0.185889 0 0 0 0 0 0 0 0 0 
26.982 1 208 3.10146 2.36492 7.12685 -4.2604 6.93853 -0.708387 0.317179 0.272095 0.257018 0 0 0 0 0 0 0 0 0 
26.982 1 445 2.9483 4.40928 9.27864 -4.95522 2.96839 -0.255939 -0.314893 0.0647478 0.026017 0 0 0 0 0 0 0 0 0 
26.982 1 247 4.62175 4.89553 7.06038 5.11585 1.18862 2.36527 -0.13773 -0.276555 0.205638 0 0 0 0 0 0 0 0 0 
26.982 1 406 5.18505 2.49808 9.06307 -14.0818 4.02034 0.524868 0.406762 -0.114708 -0.28145 0 0 0 0 0 0 0 0 0 
26.982 1 212 7.26134 2.31157 7.01792 2.81327 1.54199 3.41207 -0.14845 0.131301 0.281032 0 0 0 0 0 0 0 0 0 
26.982 1 449 7.05128 4.55856 9.02957 1.41192 1.69013 -2.10939 0.0478276 0.106406 0.087162 0 0 0 0 0 0 0 0 0 
26.982 1 251 9.09906 4.69889 7.05003 2.87748 0.400933 -0.00665966 0.318313 0.147516 0.140422 0 0 0 0 0 0 0 0 0 
26.982 1 410 9.39952 2.65861 8.86175 8.66926 -0.919204 3.34211 -0.0849083 -0.025653 0.255507 0 0 0 0 0 0 0 0 0 
26.982 1 453 11.3768 4.80204 8.97512 4.66316 2.49953 -3.53004 -0.155854 -0.419756 0.475967 0 0 0 0 0 0 0 0 0 
26.982 1 216 11.5711 2.74592 6.81816 3.1792 -1.21504 5.16112 -0.620596 0.110272 0.118929 0 0 0 0 0 0 0 0 0 
26.982 1 255 13.2791 4.75567 7.07485 -1.80824 0.0487971 0.369391 0.171811 0.345514 -1.10027 0 0 0 0 0 0 0 0 0 
26.982 1 414 13.5763 2.64656 9.05879 -2.76549 0.362999 0.197621 -0.590831 0.461643 -0.206906 0 0 0 0 0 0 0 0 0 
26.982 1 416 11.6292 2.65595 10.8632 4.99799 0.797606 6.95175 -0.57609 -0.0262887 0.637144 0 0 0 0 0 0 0 0 0 
26.982 1 457 15.2413 4.78473 8.76449 5.96759 -4.92109 5.15444 0.971938 0.626834 0.412304 0 0 0 0 0 0 0 0 0 
26.982 1 220 15.3953 2.77485 6.76826 4.35309 4.52254 -1.43327 0.511821 0.461061 0.352929 0 0 0 0 0 0 0 0 0 
26.982 1 418 17.6154 2.82997 8.89506 -1.22198 -1.62569 -1.30342 -0.431927 0.074926 -0.00850229 0 0 0 0 0 0 0 0 0 
26.982 1 459 17.5551 5.07507 10.7764 1.68505 2.00112 -0.55265 -0.500278 -0.456563 -0.339099 0 0 0 0 0 0 0 0 0 
26.982 1 259 17.4184 4.90742 6.96197 0.81902 0.0749772 0.448202 -0.267977 0.354995 0.106439 0 0 0 0 0 0 0 0 0 
26.982 1 224 19.5575 3.17832 6.95663 -0.511167 0.106234 1.31159 0.241541 -1.00598 -0.0588105 0 0 0 0 0 0 0 0 0 
26.982 1 461 19.6668 5.0249 8.93088 1.89172 3.81912 3.21292 -0.205699 -0.111573 -0.362787 0 0 0 0 0 0 0 0 0 
26.982 1 422 21.6542 2.97223 8.66006 1.3562 -0.730057 -0.498305 0.34022 0.0329709 0.0520102 0 0 0 0 0 0 0 0 0 
26.982 1 463 21.7404 4.82729 10.8417 3.82466 -5.32215 4.55701 -0.675221 -0.0160704 -0.965725 0 0 0 0 0 0 0 0 0 
26.982 1 424 19.6256 2.9476 10.7135 0.270891 2.40606 6.8011 0.118675 -0.0316459 0.332817 0 0 0 0 0 0 0 0 0 
26.982 1 263 22.0626 5.4175 7.49868 3.71462 -3.63695 7.21181 0.0800343 -0.156061 -0.20083 0 0 0 0 0 0 0 0 0 
26.982 1 228 24.2727 3.78487 7.4983 -3.20875 2.5561 -0.0156655 0.215857 0.357118 0.0920316 0 0 0 0 0 0 0 0 0 
26.982 1 465 24.0647 5.58757 9.72642 -1.95468 1.76067 -2.94536 0.417239 1.09538 -0.698881 0 0 0 0 0 0 0 0 0 
26.982 1 227 26.5558 1.99375 7.50352 5.82896 -4.52362 1.25451 0.3495 0.60742 0.211938 0 0 0 0 0 0 0 0 0 
26.982 1 426 26.4481 4.00239 9.52115 1.21689 -1.71518 -2.64988 0.324065 -0.100582 0.0552438 0 0 0 0 0 0 0 0 0 
26.982 1 428 24.0009 3.12653 10.4161 1.14228 2.25046 0.0068189 -0.485516 -0.817279 0.0233276 0 0 0 0 0 0 0 0 0 
26.982 1 427 26.2094 1.38234 10.4764 -0.718694 1.03103 -0.676413 -0.187513 -0.667607 -0.673397 0 0 0 0 0 0 0 0 0 