ITEM: TIMESTEP
18200
ITEM: NUMBER OF ATOMS
4000
ITEM: BOX BOUNDS pp pp pp
-3.7732 44.2732
1.0789 39.4211
1.38563 39.1144
ITEM: ATOMS mass type id x y z vx vy vz fx fy fz xrad yrad zrad vxrad vyrad vzrad fxrad fyrad fzrad 
26.982 1 202 -0.439442 3.97059 4.96747 1.88724 5.17671 3.99112 -0.362525 0.230081 0.208308 0 0 0 0 0 0 0 0 0 
26.982 1 2 -0.808242 3.40491 2.04472 -0.876738 1.7109 1.28557 -0.534733 0.419361 -0.0353541 0 0 0 0 0 0 0 0 0 
26.982 1 4 -3.2463 3.12289 4.4523 -3.4186 0.321619 1.27429 0.48903 -0.0350267 -0.35525 0 0 0 0 0 0 0 0 0 
26.982 1 241 -2.86333 5.87092 5.10635 4.86254 5.84393 3.80103 -0.183107 -0.539284 0.287196 0 0 0 0 0 0 0 0 0 
26.982 1 41 -3.36921 4.98675 2.12979 3.44719 2.19047 -1.15938 -0.155525 0.237007 0.204303 0 0 0 0 0 0 0 0 0 
26.982 1 5 0.852896 1.39087 1.72564 -0.680149 -3.04625 -2.54741 0.157172 -0.0392019 0.0756232 0 0 0 0 0 0 0 0 0 
26.982 1 205 1.53338 2.1522 4.83675 0.763199 1.46158 -2.63437 -0.0973309 -0.419111 0.403693 0 0 0 0 0 0 0 0 0 
26.982 1 245 2.40685 5.02432 5.50515 -2.15249 -1.85927 -6.39452 -0.179365 -0.63256 0.662742 0 0 0 0 0 0 0 0 0 
26.982 1 8 2.06117 3.94118 3.03386 -0.484137 0.991887 6.19777 0.525755 -0.0462004 -0.423046 0 0 0 0 0 0 0 0 0 
26.982 1 47 4.64048 5.4324 3.68845 3.88983 -4.71858 2.13256 -0.321859 -0.345953 0.13499 0 0 0 0 0 0 0 0 0 
26.982 1 206 4.50967 2.76985 4.91895 0.410595 -0.673667 2.08172 0.0941141 0.103057 -0.416642 0 0 0 0 0 0 0 0 0 
26.982 1 6 4.82298 3.15359 2.00267 9.7756 0.057471 2.16382 -0.0883932 0.583468 0.0225867 0 0 0 0 0 0 0 0 0 
26.982 1 249 6.88034 4.54597 5.09536 3.98483 -6.69031 -5.29617 0.49121 0.355803 0.560875 0 0 0 0 0 0 0 0 0 
26.982 1 12 7.07251 2.67986 3.31038 1.5817 1.54151 -0.938426 0.373061 0.0631003 -0.145751 0 0 0 0 0 0 0 0 0 
26.982 1 51 9.26206 4.61187 3.16393 -0.838355 -5.6254 -0.121733 -0.0228223 -0.215378 -0.401059 0 0 0 0 0 0 0 0 0 
26.982 1 52 7.35848 6.57413 3.00524 -0.264775 6.5426 -0.483312 -1.081 -0.696687 0.517689 0 0 0 0 0 0 0 0 0 
26.982 1 210 9.34077 2.65271 5.04642 -0.347456 1.33189 3.24923 -0.29646 -0.256946 0.304776 0 0 0 0 0 0 0 0 0 
26.982 1 253 11.3751 4.65773 5.07722 3.65863 3.52374 0.367985 -0.195465 0.334721 -0.469874 0 0 0 0 0 0 0 0 0 
26.982 1 16 11.4295 2.60806 2.99469 -3.74749 -3.58068 1.55203 0.10616 0.4048 0.215902 0 0 0 0 0 0 0 0 0 
26.982 1 214 13.3833 2.69316 5.06457 1.13843 -5.53167 3.18713 0.688582 0.294812 -0.0415419 0 0 0 0 0 0 0 0 0 
26.982 1 55 13.3335 4.67776 2.9366 -2.34345 -4.53204 6.7522 -0.00909011 0.341762 -0.245753 0 0 0 0 0 0 0 0 0 
26.982 1 20 15.7237 2.59101 3.12304 -8.81373 -3.14821 0.313136 -0.42047 0.289125 -0.479868 0 0 0 0 0 0 0 0 0 
26.982 1 257 15.4752 4.79728 4.7139 3.96732 -1.84431 2.74164 -0.29991 0.0825559 0.884849 0 0 0 0 0 0 0 0 0 
26.982 1 218 17.6875 2.93657 5.1106 1.34997 4.07545 -2.47036 -0.472359 -0.282549 0.140621 0 0 0 0 0 0 0 0 0 
26.982 1 59 17.6063 4.62567 3.13614 -1.08674 -0.87276 7.744 0.165452 0.964405 -0.562079 0 0 0 0 0 0 0 0 0 
26.982 1 24 19.7997 3.08133 3.23704 0.641914 0.192975 -4.59177 0.204517 -0.411575 -0.206006 0 0 0 0 0 0 0 0 0 
26.982 1 261 19.5861 5.12569 5.05554 -1.83882 2.94874 0.120115 0.475615 -0.24525 0.338696 0 0 0 0 0 0 0 0 0 
26.982 1 63 22.1538 4.5781 3.01958 -0.659658 5.22929 3.12388 -0.42948 -0.233089 0.0334074 0 0 0 0 0 0 0 0 0 
26.982 1 222 21.8593 3.62419 5.598 8.79001 -0.536984 4.81516 0.159073 -0.199897 -0.027932 0 0 0 0 0 0 0 0 0 
26.982 1 23 21.8505 1.31858 3.26483 5.93133 2.67322 -0.481102 0.367666 -0.382934 0.440962 0 0 0 0 0 0 0 0 0 
26.982 1 28 24.6419 2.66838 2.82828 0.662469 3.11246 2.54289 -0.480826 0.450086 -0.200323 0 0 0 0 0 0 0 0 0 
26.982 1 265 24.3599 4.74587 4.94936 7.22979 0.121662 4.76213 0.320096 -0.614325 -0.0270882 0 0 0 0 0 0 0 0 0 
26.982 1 67 26.325 5.0898 2.52053 -5.29051 -0.777454 -1.05642 0.112449 -0.584809 0.685682 0 0 0 0 0 0 0 0 0 
26.982 1 225 24.1655 1.92932 5.36241 -6.01159 5.32599 -4.79558 -0.134128 0.1676 0.332891 0 0 0 0 0 0 0 0 0 
26.982 1 226 26.685 2.69292 4.80469 2.43003 -2.00605 -5.50942 0.503473 0.52134 -0.217103 0 0 0 0 0 0 0 0 0 
26.982 1 32 30.5887 5.18918 2.46546 -0.117462 1.52242 -2.09044 0.598344 -0.986399 -0.516449 0 0 0 0 0 0 0 0 0 
26.982 1 269 28.7271 4.98898 4.76444 -1.68524 -5.94499 -3.2036 0.168558 -0.0780116 -0.390552 0 0 0 0 0 0 0 0 0 
26.982 1 27 28.6742 3.074 2.71331 0.0987708 2.6034 -6.05561 -0.134078 -0.287486 -0.0618131 0 0 0 0 0 0 0 0 0 
26.982 1 230 31.1814 3.06095 4.48426 -0.143747 -2.44961 -1.88068 -0.147772 0.27444 0.0570014 0 0 0 0 0 0 0 0 0 
26.982 1 273 33.1105 4.8791 4.2935 3.80535 -0.60408 1.10104 0.149274 0.456207 0.0652769 0 0 0 0 0 0 0 0 0 
26.982 1 36 35.2086 3.13827 4.11501 -1.02539 0.782495 5.20617 0.163964 0.769681 0.394157 0 0 0 0 0 0 0 0 0 
26.982 1 30 32.9091 3.3302 2.17004 -0.458573 3.29673 7.55728 0.410618 -0.319081 0.249656 0 0 0 0 0 0 0 0 0 
26.982 1 73 35.0215 5.30408 1.96859 -4.05158 1.12742 -1.1429 -0.10715 0.118835 -0.0272087 0 0 0 0 0 0 0 0 0 
26.982 1 33 35.3951 1.38664 2.15269 -2.20336 0.494498 1.94011 -0.469657 -0.305919 -0.0784596 0 0 0 0 0 0 0 0 0 
26.982 1 236 33.2848 3.10653 6.60315 -2.02038 3.57088 5.70413 0.358236 0.282567 -0.265227 0 0 0 0 0 0 0 0 0 
26.982 1 31 33.4399 1.22996 4.41707 -1.20198 -7.79333 -1.02237 -0.540591 -0.1366 0.107537 0 0 0 0 0 0 0 0 0 
26.982 1 34 37.158 3.4951 1.95645 2.06998 -2.77885 5.5431 0.168991 0.366575 -0.114286 0 0 0 0 0 0 0 0 0 
26.982 1 35 37.4968 1.63222 4.01234 0.178079 1.20938 -1.11527 0.0586853 0.025411 0.412078 0 0 0 0 0 0 0 0 0 
26.982 1 77 38.9533 5.69478 1.67956 -4.8659 1.31352 -3.72021 -0.106851 0.0876611 0.116897 0 0 0 0 0 0 0 0 0 
26.982 1 75 37.1334 5.35882 4.12937 3.39532 -3.03219 1.73329 0.254934 -0.372869 -0.492791 0 0 0 0 0 0 0 0 0 
26.982 1 234 37.2049 3.48898 6.11102 2.27386 -0.172064 -5.67796 0.23742 -0.322272 -0.309075 0 0 0 0 0 0 0 0 0 
26.982 1 40 39.5607 3.68145 3.86826 -1.55276 -3.33372 1.33597 -0.679366 -0.0876676 -0.113723 0 0 0 0 0 0 0 0 0 
26.982 1 237 39.5786 1.75674 5.90742 4.70609 2.01774 4.73895 0.169721 0.127445 0.0465149 0 0 0 0 0 0 0 0 0 
26.982 1 37 39.3655 1.78157 1.85407 6.21326 -1.74633 -4.44212 0.0380158 -0.188385 0.10936 0 0 0 0 0 0 0 0 0 
26.982 1 1 43.518 2.43332 1.69843 -1.38633 -5.03201 -1.48401 0.133385 -0.544776 0.269519 0 0 0 0 0 0 0 0 0 
26.982 1 79 42.5952 4.4791 4.19807 3.59446 -4.12597 1.24456 -0.269358 1.06824 -0.399049 0 0 0 0 0 0 0 0 0 
26.982 1 39 41.724 1.93945 3.81879 -5.25797 -4.31906 -3.49577 -0.355887 0.001667 -0.285158 0 0 0 0 0 0 0 0 0 
26.982 1 38 41.2492 4.04623 1.79017 0.5547 2.36374 -1.43498 0.0326269 0.0788672 -0.202021 0 0 0 0 0 0 0 0 0 
26.982 1 43 -1.02137 6.09847 3.14842 -2.11217 2.29821 -4.93279 0.447335 -0.185013 0.157478 0 0 0 0 0 0 0 0 0 
26.982 1 83 -0.330322 8.71842 3.71375 -0.878107 -4.55201 -3.59045 0.0650107 0.132086 0.259561 0 0 0 0 0 0 0 0 0 
26.982 1 44 -3.14141 8.35136 3.25242 6.54476 -2.51101 2.96019 -0.161662 -0.259433 -0.267886 0 0 0 0 0 0 0 0 0 
26.982 1 242 -0.0705976 6.623 5.86614 3.50993 4.49362 -5.05441 0.103986 0.12048 -0.481461 0 0 0 0 0 0 0 0 0 
26.982 1 281 -2.77027 8.36826 6.0132 -7.18423 4.6962 8.52118 0.952903 -0.957721 -0.0715041 0 0 0 0 0 0 0 0 0 
26.982 1 48 1.91654 6.88237 3.71947 -5.0236 1.44953 -0.0754833 -0.197948 -0.196804 -0.0569559 0 0 0 0 0 0 0 0 0 
26.982 1 285 2.11843 8.8519 5.70043 4.66948 -1.83414 3.09278 -0.169291 -0.430095 -0.147309 0 0 0 0 0 0 0 0 0 
26.982 1 87 4.83451 8.15789 3.10496 5.8751 2.92159 -5.92834 -0.0995553 0.0717268 0.53703 0 0 0 0 0 0 0 0 0 
26.982 1 246 4.31455 7.06732 5.80254 7.40754 -1.52912 -1.29169 0.314606 0.56189 -0.0579603 0 0 0 0 0 0 0 0 0 
26.982 1 88 2.31902 9.57684 2.9617 8.96121 -2.87606 0.34282 -0.0990138 0.621723 0.373457 0 0 0 0 0 0 0 0 0 
26.982 1 286 4.5371 10.0773 5.37139 -2.35537 0.202861 -4.71039 0.0510941 0.269195 -0.267847 0 0 0 0 0 0 0 0 0 
26.982 1 2839 41.0299 20.3991 17.6532 2.13461 3.45312 -3.38915 -0.122237 -0.633042 0.173476 0 0 0 0 0 0 0 0 0 
26.982 1 289 6.83267 8.5759 5.06851 -0.0452752 3.82195 6.53607 -0.103294 -0.805068 0.237866 0 0 0 0 0 0 0 0 0 
26.982 1 250 9.1477 6.57781 5.11509 2.10475 -1.26738 -3.87675 -0.318016 -0.113406 -0.13843 0 0 0 0 0 0 0 0 0 
26.982 1 91 8.88645 8.54695 2.75038 -7.36509 -0.433109 0.7249 0.533542 0.828749 0.613101 0 0 0 0 0 0 0 0 0 
26.982 1 293 10.9637 8.61992 4.82054 0.378665 -2.16859 -3.44734 -0.222241 0.556975 0.0907057 0 0 0 0 0 0 0 0 0 
26.982 1 56 10.9797 6.69014 2.56866 5.10007 4.38714 4.85986 0.415539 -0.0730572 0.526417 0 0 0 0 0 0 0 0 0 
26.982 1 95 12.8032 9.004 2.67011 1.88464 3.77312 -0.584284 0.398592 0.128655 -0.232386 0 0 0 0 0 0 0 0 0 
26.982 1 254 13.1615 7.10426 4.54743 1.14972 1.88862 -1.2008 0.274798 -0.484474 0.535091 0 0 0 0 0 0 0 0 0 
26.982 1 60 15.3959 6.78274 2.79119 10.1961 -1.28835 2.77366 -0.146297 -0.501179 0.136787 0 0 0 0 0 0 0 0 0 
26.982 1 297 15.2847 9.13249 4.38763 -2.01146 1.5809 0.458782 -0.234221 0.184641 0.214209 0 0 0 0 0 0 0 0 0 
26.982 1 99 17.7902 9.09873 3.1085 -6.2332 2.32191 -0.669733 -0.255094 -0.178447 -0.302545 0 0 0 0 0 0 0 0 0 
26.982 1 258 17.3623 6.95932 4.82893 -1.25032 3.46652 1.5082 0.330916 0.0120919 -0.431925 0 0 0 0 0 0 0 0 0 
26.982 1 64 19.9307 6.83475 3.15424 2.2287 -7.0608 4.30519 -0.153548 0.00866507 -0.324413 0 0 0 0 0 0 0 0 0 
26.982 1 301 19.8115 8.8784 4.93436 0.67558 1.14498 -8.13493 0.200656 0.102134 0.183983 0 0 0 0 0 0 0 0 0 
26.982 1 103 22.0311 8.659 3.02905 -1.18163 2.81653 -1.72614 0.0419894 -0.484378 -0.184387 0 0 0 0 0 0 0 0 0 
26.982 1 262 22.0717 6.61761 5.07946 1.02551 -2.14769 -1.10231 -0.224488 -0.22349 -0.159147 0 0 0 0 0 0 0 0 0 
26.982 1 302 22.0887 10.6798 4.49836 9.06807 -1.20588 5.33801 0.128153 0.331976 0.530033 0 0 0 0 0 0 0 0 0 
26.982 1 305 24.247 8.52224 4.82828 0.467955 3.76213 -3.60981 0.0155068 0.356261 -0.2005 0 0 0 0 0 0 0 0 0 
26.982 1 68 23.9754 6.50077 2.99238 0.0224634 -0.678142 1.41853 0.521274 0.723304 -0.24581 0 0 0 0 0 0 0 0 0 
26.982 1 108 24.3521 10.5378 2.76526 -3.85428 1.8131 3.71378 -0.205649 0.194625 -0.162844 0 0 0 0 0 0 0 0 0 
26.982 1 107 26.4206 8.46558 2.85569 -2.3993 -0.131613 -4.34834 -0.435707 0.14388 -0.676612 0 0 0 0 0 0 0 0 0 
26.982 1 266 26.5654 6.76097 4.83926 5.53926 8.83026 -1.00819 -0.368283 -0.324898 -0.0791512 0 0 0 0 0 0 0 0 0 
26.982 1 72 28.6244 6.80124 2.61914 -0.830778 -1.69549 0.148419 -0.668294 0.222291 0.00732577 0 0 0 0 0 0 0 0 0 
26.982 1 309 28.4859 8.62202 4.76781 2.19434 5.82058 -2.19482 0.729304 0.32624 -0.45395 0 0 0 0 0 0 0 0 0 
26.982 1 112 28.414 10.6387 2.51589 -6.37221 -1.04563 -5.88419 0.0404644 -0.0892873 -0.33283 0 0 0 0 0 0 0 0 0 
26.982 1 111 30.5903 8.70754 2.47103 -0.587108 -0.527186 2.81797 0.0877005 0.457468 0.0535179 0 0 0 0 0 0 0 0 0 
26.982 1 270 31.0074 6.78097 4.44728 1.02721 -2.34495 2.51098 -0.557042 0.00153121 0.478744 0 0 0 0 0 0 0 0 0 
26.982 1 71 32.7358 7.00072 2.12207 -3.52978 0.134807 3.12791 0.571265 -0.0567265 0.156105 0 0 0 0 0 0 0 0 0 
26.982 1 76 35.4773 7.33037 3.55251 0.782471 2.67056 3.44221 -0.608225 0.0895363 0.21924 0 0 0 0 0 0 0 0 0 
26.982 1 313 33.4079 7.17745 5.59863 0.0724146 -4.36322 -0.843218 0.514506 -0.167139 -0.468209 0 0 0 0 0 0 0 0 0 
26.982 1 116 33.729 9.33926 2.98491 3.50932 -5.38702 2.25641 -0.888671 -0.56093 0.0743041 0 0 0 0 0 0 0 0 0 
26.982 1 310 31.7373 9.22274 5.08451 -1.18997 -4.75648 -1.85191 -0.0783654 0.682324 -0.402118 0 0 0 0 0 0 0 0 0 
26.982 1 115 38.035 7.99633 4.14639 1.09959 1.78039 -0.644276 0.0192656 0.00926524 0.249746 0 0 0 0 0 0 0 0 0 
26.982 1 117 40.0429 8.23483 2.00451 -3.76662 -2.6283 -4.71569 -0.658831 -0.275466 -0.173259 0 0 0 0 0 0 0 0 0 
26.982 1 74 37.3417 8.03448 1.50846 -0.62117 0.720577 2.48713 -0.226074 -0.416988 0.272564 0 0 0 0 0 0 0 0 0 
26.982 1 155 35.9643 9.94729 4.0657 2.39402 -2.13274 2.16347 0.947232 -0.127737 0.294232 0 0 0 0 0 0 0 0 0 
26.982 1 314 36.1484 8.07279 6.31784 5.08279 -3.52753 -5.02846 0.25135 -0.520853 -0.759029 0 0 0 0 0 0 0 0 0 
26.982 1 80 40.3158 6.22312 4.02887 -0.120539 0.354655 2.99456 0.132249 0.18628 0.0540662 0 0 0 0 0 0 0 0 0 
26.982 1 317 40.4492 8.91716 4.69604 -6.38517 5.26826 1.25614 0.464027 0.660463 0.240109 0 0 0 0 0 0 0 0 0 
26.982 1 78 42.3758 6.68449 1.82263 -5.83043 -3.82978 5.16095 0.221788 -0.764932 0.21038 0 0 0 0 0 0 0 0 0 
26.982 1 119 42.3461 9.14996 2.66635 6.41857 -1.18329 10.6159 0.31623 0.518661 0.119162 0 0 0 0 0 0 0 0 0 
26.982 1 278 42.842 7.34187 4.87855 -1.21282 -3.16587 -0.489341 -0.137937 -0.0917698 -0.551418 0 0 0 0 0 0 0 0 0 
26.982 1 284 43.2043 10.1799 5.13653 -1.02873 5.63615 -5.49688 -0.747211 0.137699 -0.0185656 0 0 0 0 0 0 0 0 0 
26.982 1 282 -2.23379 10.5735 4.60872 -2.25343 -8.1994 -1.18177 0.455252 0.815457 -0.828211 0 0 0 0 0 0 0 0 0 
26.982 1 322 -2.29365 13.3847 3.62925 2.34798 -0.179368 0.138947 0.118935 -0.119657 -0.22354 0 0 0 0 0 0 0 0 0 
26.982 1 122 0.0127256 14.4075 2.66763 2.21447 3.99026 -0.880704 0.558116 0.382873 0.117288 0 0 0 0 0 0 0 0 0 
26.982 1 325 0.238758 11.6994 3.70658 -2.12255 -7.01668 2.4033 -0.151601 0.0152151 -0.0769166 0 0 0 0 0 0 0 0 0 
26.982 1 328 0.0375094 14.1468 5.53753 6.73637 -3.57137 -2.44948 0.361348 -0.353169 -0.61359 0 0 0 0 0 0 0 0 0 
26.982 1 123 -1.75397 10.6195 1.78663 3.90714 -1.94489 0.809187 -0.830553 -0.245209 0.492255 0 0 0 0 0 0 0 0 0 
26.982 1 128 2.47129 14.2926 3.91471 2.86414 -3.12272 3.5253 -0.392558 0.112667 -0.28196 0 0 0 0 0 0 0 0 0 
26.982 1 127 4.42345 12.2865 3.66549 -3.77821 5.26141 1.37234 -0.120612 0.508153 -0.202134 0 0 0 0 0 0 0 0 0 
26.982 1 326 4.51948 14.7278 5.61121 -1.49937 -1.06576 0.0366608 -0.221908 -0.531222 0.445768 0 0 0 0 0 0 0 0 0 
26.982 1 125 2.21328 12.3708 1.79482 -4.16211 3.07627 -4.73106 0.478795 -0.158058 0.570074 0 0 0 0 0 0 0 0 0 
26.982 1 327 2.37605 11.9888 5.39281 0.875988 -0.62992 4.31506 -0.362994 -0.327028 0.577886 0 0 0 0 0 0 0 0 0 
26.982 1 126 3.98797 14.5381 1.58101 -2.5552 -1.37744 0.424986 -0.256017 -0.000893459 0.0184013 0 0 0 0 0 0 0 0 0 
26.982 1 290 8.64224 10.4079 5.0336 -4.06462 -0.619253 4.46458 0.881549 0.687229 0.454475 0 0 0 0 0 0 0 0 0 
26.982 1 92 6.60744 10.7195 3.3627 -2.71249 -1.34008 3.7183 -0.28695 -0.621552 -0.389224 0 0 0 0 0 0 0 0 0 
26.982 1 329 6.55594 12.6435 5.36913 3.94371 -7.22834 -3.61416 -0.00604722 0.238189 0.33247 0 0 0 0 0 0 0 0 0 
26.982 1 132 6.08435 14.7045 3.45664 3.21842 0.349448 0.141288 0.264551 -0.14503 -0.416507 0 0 0 0 0 0 0 0 0 
26.982 1 131 8.41303 12.6768 3.31215 -1.07474 4.52619 3.43791 -0.305169 0.411184 -0.429514 0 0 0 0 0 0 0 0 0 
26.982 1 330 8.41166 15.0829 5.01867 -2.5848 -3.41979 -3.69183 -0.010387 -0.615394 0.545788 0 0 0 0 0 0 0 0 0 
26.982 1 294 12.7398 10.8161 4.78678 2.91394 -0.936198 1.58945 -0.0216731 0.298679 -0.0302494 0 0 0 0 0 0 0 0 0 
26.982 1 96 10.5338 10.752 2.98236 -2.14529 -0.237652 0.758667 0.338195 0.16943 0.0376631 0 0 0 0 0 0 0 0 0 
26.982 1 333 10.4561 12.8646 5.0203 -4.8471 3.00122 0.673486 0.573935 -0.209891 0.0124153 0 0 0 0 0 0 0 0 0 
26.982 1 135 12.4498 13.2536 2.71705 -1.68712 0.0570917 0.89897 -0.375184 -0.835044 -0.0154253 0 0 0 0 0 0 0 0 0 
26.982 1 136 10.0711 14.7938 2.8985 -7.32298 -0.26528 -1.68679 0.250446 0.848677 0.0143867 0 0 0 0 0 0 0 0 0 
26.982 1 334 12.1721 15.2299 4.85173 -1.88434 4.66271 -9.6303 0.305273 -0.23136 0.0113782 0 0 0 0 0 0 0 0 0 
26.982 1 100 14.7736 11.3152 2.56282 2.77711 -1.00519 4.59947 -0.54941 -0.56353 -0.434585 0 0 0 0 0 0 0 0 0 
26.982 1 337 14.2363 13.1201 4.55715 0.0543598 -0.59068 3.69809 0.725729 0.372966 0.282385 0 0 0 0 0 0 0 0 0 
26.982 1 139 16.0196 13.6364 2.38237 4.03838 -3.21259 0.526233 0.50781 -0.010595 -0.294494 0 0 0 0 0 0 0 0 0 
26.982 1 298 17.0693 11.7777 4.16326 -4.85828 -6.59669 1.26281 0.032397 -0.460023 0.257471 0 0 0 0 0 0 0 0 0 
26.982 1 338 16.7247 14.3541 4.95087 -1.34443 0.90304 -1.2255 0.0573078 -0.28988 1.08516 0 0 0 0 0 0 0 0 0 
26.982 1 140 14.0063 15.4177 2.7225 -2.06509 0.976864 4.99188 0.243034 0.612327 0.275801 0 0 0 0 0 0 0 0 0 
26.982 1 104 19.7733 10.9608 2.78612 -4.44979 -0.0933944 -0.417596 -0.147392 -0.135087 0.348278 0 0 0 0 0 0 0 0 0 
26.982 1 341 19.2168 13.7425 3.28318 2.40461 -1.184 -0.0759565 0.0168008 -0.168348 0.402241 0 0 0 0 0 0 0 0 0 
26.982 1 304 19.6709 11.7382 5.45332 -1.24022 1.20448 0.261586 -0.0707167 0.0496324 -0.0244299 0 0 0 0 0 0 0 0 0 
26.982 1 143 21.8779 12.8371 2.62089 -6.9017 1.78898 5.56751 0.415561 0.485412 0.22867 0 0 0 0 0 0 0 0 0 
26.982 1 342 22.1332 14.0383 5.06311 -1.5272 2.288 -2.04091 -0.0876067 -0.644423 -0.477461 0 0 0 0 0 0 0 0 0 
26.982 1 306 26.4787 10.5405 4.5408 -3.37715 -0.119523 1.93603 0.0376429 0.471212 0.305868 0 0 0 0 0 0 0 0 0 
26.982 1 148 24.279 14.1708 2.73408 -6.7656 -2.36836 -5.15361 -0.359404 0.800491 0.0889401 0 0 0 0 0 0 0 0 0 
26.982 1 345 24.2685 12.3705 4.74755 2.15188 6.16449 0.262096 0.171413 0.254706 -0.150877 0 0 0 0 0 0 0 0 0 
26.982 1 147 26.4124 12.6077 2.60554 -0.741639 0.053025 -2.16068 0.0848825 -0.430637 0.253387 0 0 0 0 0 0 0 0 0 
26.982 1 385 25.3736 15.0815 5.07238 6.39632 -1.82257 -0.968135 -0.359552 -0.364672 -0.164317 0 0 0 0 0 0 0 0 0 
26.982 1 346 27.7784 13.1619 5.00589 -1.62595 -3.72577 -1.75652 -0.269129 0.0961076 -0.256722 0 0 0 0 0 0 0 0 0 
26.982 1 152 29.9399 13.203 2.9026 0.226646 -1.16499 -7.34001 -0.509058 0.301446 -0.300757 0 0 0 0 0 0 0 0 0 
26.982 1 349 29.631 11.1727 4.76585 1.64149 -7.36389 1.75717 0.585663 -0.0921559 0.651389 0 0 0 0 0 0 0 0 0 
26.982 1 187 27.6034 15.1267 3.04521 -0.484185 -6.37559 -7.48879 0.248508 -0.178502 -0.0475263 0 0 0 0 0 0 0 0 0 
26.982 1 389 29.866 15.3497 4.65433 -1.30616 -0.424442 5.21251 -0.00775138 -0.394117 0.715227 0 0 0 0 0 0 0 0 0 
26.982 1 151 31.7421 11.2378 2.85178 3.71446 5.47185 3.70118 0.277797 -0.137659 -0.0318007 0 0 0 0 0 0 0 0 0 
26.982 1 350 32.0013 13.424 4.80772 5.7795 3.12744 -1.26747 0.0555827 0.111318 -0.13728 0 0 0 0 0 0 0 0 0 
26.982 1 156 33.9179 13.5975 2.64907 3.56511 -2.4988 -1.23167 -0.0844394 -0.0203378 0.136326 0 0 0 0 0 0 0 0 0 
26.982 1 353 33.9745 11.523 4.56888 -7.62757 4.42148 -5.0621 -0.532439 0.627818 0.214345 0 0 0 0 0 0 0 0 0 
26.982 1 153 34.882 11.294 1.66477 5.26846 -2.3842 3.97216 -0.0590079 0.0888183 -0.222767 0 0 0 0 0 0 0 0 0 
26.982 1 114 37.5837 11.0593 2.25239 -2.16986 1.91915 2.84311 -0.214394 -0.132799 0.143467 0 0 0 0 0 0 0 0 0 
26.982 1 354 36.2901 13.0392 4.32838 4.68391 -2.98245 -3.32927 -0.598466 0.122529 -0.179239 0 0 0 0 0 0 0 0 0 
26.982 1 160 38.6946 13.4322 3.30328 -1.00864 2.70865 -3.18648 -0.0597969 0.25749 0.816647 0 0 0 0 0 0 0 0 0 
26.982 1 357 38.4516 10.7982 5.05275 -1.77086 2.13973 -1.49391 0.0926006 0.221391 -0.42003 0 0 0 0 0 0 0 0 0 
26.982 1 360 38.2461 13.7118 6.10985 -0.0749568 4.40607 0.038122 0.5769 0.0783582 -0.120184 0 0 0 0 0 0 0 0 0 
26.982 1 154 36.3908 13.8443 1.56353 -4.52034 3.95673 6.78777 0.0423068 0.159724 0.357803 0 0 0 0 0 0 0 0 0 
26.982 1 124 43.6112 14.1881 1.83205 1.98118 6.34305 1.10786 0.66141 -0.585308 -0.00462139 0 0 0 0 0 0 0 0 0 
26.982 1 120 40.2356 10.9666 2.66738 5.2413 -2.7226 2.31572 0.384428 0.245152 0.205976 0 0 0 0 0 0 0 0 0 
26.982 1 84 43.6768 11.4856 2.42107 2.73854 -1.96297 -0.028113 0.0898512 -0.200096 -0.00616916 0 0 0 0 0 0 0 0 0 
26.982 1 318 40.7354 12.1834 5.37895 3.27324 2.54889 9.31511 -0.00895371 -0.612639 -0.0722557 0 0 0 0 0 0 0 0 0 
26.982 1 321 43.169 13.1389 4.52862 -6.4411 2.36831 2.16314 -0.120776 0.0209717 -0.332955 0 0 0 0 0 0 0 0 0 
26.982 1 159 41.1299 13.6615 2.36449 5.11361 3.6239 -1.47057 0.573687 0.0931527 0.392458 0 0 0 0 0 0 0 0 0 
26.982 1 358 40.7458 14.7201 4.97502 -0.96368 3.12007 2.73473 0.0790104 0.730428 -0.634737 0 0 0 0 0 0 0 0 0 
26.982 1 161 -2.35948 16.0211 2.28786 6.08586 -4.20109 -2.46922 0.0180855 -0.235248 -0.258549 0 0 0 0 0 0 0 0 0 
26.982 1 1198 41.3036 18.2732 19.8628 10.4322 -1.04829 1.25939 -0.0476127 -0.399848 -0.736652 0 0 0 0 0 0 0 0 0 
26.982 1 163 -2.63433 18.1788 3.84018 1.17654 -2.45337 3.34505 0.323706 0.161218 0.175814 0 0 0 0 0 0 0 0 0 
26.982 1 362 -0.261527 18.1056 5.52494 1.11966 -0.208136 -0.207122 -0.531056 0.215036 0.416253 0 0 0 0 0 0 0 0 0 
26.982 1 162 -0.672919 18.2681 1.75872 -3.00969 -0.717465 -2.37304 -0.621645 -0.0999696 0.491752 0 0 0 0 0 0 0 0 0 
26.982 1 363 -2.06948 15.8308 5.3602 3.80883 2.95224 3.31149 -0.398307 0.380093 -0.0708599 0 0 0 0 0 0 0 0 0 
26.982 1 166 3.31838 18.7004 1.50267 -3.64989 0.3992 -3.91883 0.164056 -0.127294 -0.0961857 0 0 0 0 0 0 0 0 0 
26.982 1 165 1.59239 16.5415 1.7157 0.268509 -4.92327 -2.56154 0.0928257 -0.198382 0.543256 0 0 0 0 0 0 0 0 0 
26.982 1 365 1.98276 16.4159 5.6007 2.07211 -0.486822 4.73236 0.326359 0.397273 0.0857981 0 0 0 0 0 0 0 0 0 
26.982 1 168 1.41789 18.5845 3.58438 3.99464 -1.08719 3.81133 0.494772 -0.240042 -0.13583 0 0 0 0 0 0 0 0 0 
26.982 1 167 3.98401 16.7194 3.73365 3.61962 0.280932 -0.343252 -0.201353 0.16926 -0.534729 0 0 0 0 0 0 0 0 0 
26.982 1 366 3.91787 18.7953 5.72239 -3.0227 -2.40422 -0.249619 -0.0170099 -0.468906 -0.419565 0 0 0 0 0 0 0 0 0 
26.982 1 369 6.38441 16.8259 5.39338 1.85997 4.11169 -2.94626 -0.124513 0.622247 0.0567881 0 0 0 0 0 0 0 0 0 
26.982 1 172 5.81055 18.8686 3.45154 0.0482114 0.0623884 0.863056 -0.576273 -0.648682 0.0970569 0 0 0 0 0 0 0 0 0 
26.982 1 171 8.08301 17.1588 3.23808 -1.47903 -4.08737 -1.57351 -0.437738 -0.605197 -0.0145304 0 0 0 0 0 0 0 0 0 
26.982 1 370 8.36292 19.3568 5.22477 0.895451 1.56767 -3.8213 -0.196258 -0.531894 0.481154 0 0 0 0 0 0 0 0 0 
26.982 1 176 9.7007 19.2181 2.72953 -5.34466 -1.15044 -2.84318 0.34355 0.345576 0.640107 0 0 0 0 0 0 0 0 0 
26.982 1 373 10.3173 17.1803 4.84283 0.685124 -0.301957 -2.52446 -0.534725 0.102181 0.63288 0 0 0 0 0 0 0 0 0 
26.982 1 175 11.7853 17.3023 2.71709 0.144363 0.895921 5.42488 0.876664 -0.157213 0.120683 0 0 0 0 0 0 0 0 0 
26.982 1 374 11.7623 19.5598 4.69948 -7.6049 -3.62987 -7.08049 -0.0264195 -0.582495 0.139367 0 0 0 0 0 0 0 0 0 
26.982 1 377 14.1057 17.7006 4.4685 5.40054 -3.25929 1.36034 -0.261083 -0.190219 -0.217487 0 0 0 0 0 0 0 0 0 
26.982 1 179 17.5177 15.8949 3.18962 2.84705 -3.41887 6.12908 0.187564 0.972168 -0.83191 0 0 0 0 0 0 0 0 0 
26.982 1 178 15.9714 18.1412 2.39745 -6.61137 -0.698429 -0.601338 0.106251 -0.0557081 0.10426 0 0 0 0 0 0 0 0 0 
26.982 1 180 13.6265 19.931 2.48705 0.215173 6.6981 0.815421 0.477483 -0.456666 0.0876591 0 0 0 0 0 0 0 0 0 
26.982 1 379 17.1684 17.1828 5.62013 -4.35989 2.29861 -5.56171 -0.163747 -0.319097 0.147522 0 0 0 0 0 0 0 0 0 
26.982 1 2217 15.4954 20.0701 4.54552 -4.5633 -1.50998 1.72486 0.342075 -0.297032 0.119686 0 0 0 0 0 0 0 0 0 
26.982 1 2219 17.8344 19.979 6.30309 -0.0902597 -1.63658 0.361298 0.124405 -0.402365 -0.364559 0 0 0 0 0 0 0 0 0 
26.982 1 378 18.7864 18.2861 3.78239 -1.15405 -1.28091 -2.74211 -0.121696 0.139542 -0.230913 0 0 0 0 0 0 0 0 0 
26.982 1 381 20.0466 16.0802 4.84574 -0.905554 -3.32933 -2.14203 -0.30027 0.0790638 -0.602314 0 0 0 0 0 0 0 0 0 
26.982 1 184 20.02 16.6181 1.77146 0.903441 0.923401 2.06187 0.0621515 0.507251 0.508238 0 0 0 0 0 0 0 0 0 
26.982 1 382 22.0116 18.5862 3.85943 0.812736 3.77255 4.28154 -0.175504 0.250882 0.0435622 0 0 0 0 0 0 0 0 0 
26.982 1 2021 19.7862 19.7218 1.66474 -3.08553 -2.18406 3.41903 0.452304 -0.242192 -0.275424 0 0 0 0 0 0 0 0 0 
26.982 1 183 22.2869 15.9612 3.10567 -3.82467 3.10693 0.848772 0.201518 0.180579 -0.556501 0 0 0 0 0 0 0 0 0 
26.982 1 188 25.4162 17.0459 3.0969 -2.47415 0.149663 -5.46655 0.507266 -0.31102 0.771172 0 0 0 0 0 0 0 0 0 
26.982 1 383 22.7307 16.467 5.62626 -0.106738 2.05544 -3.50448 0.495299 1.37779 0.477425 0 0 0 0 0 0 0 0 0 
26.982 1 2225 25.1646 19.4572 4.09574 4.9858 -1.49607 1.40759 0.150532 0.0127999 0.948514 0 0 0 0 0 0 0 0 0 
26.982 1 2835 36.9094 20.018 17.9998 2.14283 4.04263 7.33059 0.301706 -0.168832 -0.265382 0 0 0 0 0 0 0 0 0 
26.982 1 2229 30.074 19.5475 4.76263 -0.566305 -3.90182 -1.22072 -0.902474 -0.200277 0.0535247 0 0 0 0 0 0 0 0 0 
26.982 1 386 27.8332 17.1896 4.77557 -1.4487 -0.170042 -1.14078 -0.47541 0.584762 -0.126543 0 0 0 0 0 0 0 0 0 
26.982 1 192 29.7883 17.3195 2.92555 -5.27611 -1.86698 0.793645 -0.162039 0.199656 -0.464061 0 0 0 0 0 0 0 0 0 
26.982 1 2027 27.2902 19.2188 2.46906 0.450371 2.19825 -1.12991 0.927752 0.344502 0.862551 0 0 0 0 0 0 0 0 0 
26.982 1 2031 31.8046 19.3085 2.77623 1.29683 -0.0563242 7.7345 0.485277 0.692803 -0.376442 0 0 0 0 0 0 0 0 0 
26.982 1 191 31.8466 15.3162 2.63759 -2.85271 2.86029 -2.4612 0.129639 0.0422405 0.146768 0 0 0 0 0 0 0 0 0 
26.982 1 390 31.9349 17.367 4.6305 2.91698 -2.4375 0.694157 -0.00518454 -0.0601173 0.782664 0 0 0 0 0 0 0 0 0 
26.982 1 393 34.1982 15.408 4.70013 -4.80167 -2.03644 -5.4927 -0.901611 -0.385006 0.0375383 0 0 0 0 0 0 0 0 0 
26.982 1 196 34.0237 17.3996 3.0348 3.55989 1.73625 1.83448 0.246833 0.473359 -0.734957 0 0 0 0 0 0 0 0 0 
26.982 1 2233 33.8942 19.5169 4.71546 2.8486 -0.442719 2.36872 0.0930096 -0.214533 -0.282054 0 0 0 0 0 0 0 0 0 
26.982 1 195 36.449 16.0033 3.47304 0.171169 1.94138 -1.2255 0.34063 -0.0377053 -0.146463 0 0 0 0 0 0 0 0 0 
26.982 1 394 36.359 18.3629 5.4363 2.06024 3.63113 4.70395 0.198804 0.114037 -0.297653 0 0 0 0 0 0 0 0 0 
26.982 1 397 38.7182 16.8185 5.0588 2.94146 2.71436 11.7789 0.175778 -0.385722 0.544171 0 0 0 0 0 0 0 0 0 
26.982 1 200 38.509 17.8522 2.77889 -5.03046 0.764807 -5.97945 -0.366613 0.86739 -0.33901 0 0 0 0 0 0 0 0 0 
26.982 1 2035 36.0827 19.6356 2.79704 -1.36991 3.36557 1.94489 -0.201983 0.164264 0.364999 0 0 0 0 0 0 0 0 0 
26.982 1 2237 38.7282 19.9061 4.77802 1.32556 -1.53955 -1.78991 0.00675194 -1.15625 -0.929253 0 0 0 0 0 0 0 0 0 
26.982 1 197 38.3316 15.6397 1.42717 4.0448 5.3808 -4.09002 0.239959 -0.0382026 -0.424924 0 0 0 0 0 0 0 0 0 
26.982 1 361 43.304 15.956 3.92178 -0.344265 3.6501 0.8612 -0.0187519 -0.0421956 0.321061 0 0 0 0 0 0 0 0 0 
26.982 1 164 42.9146 18.6998 3.25573 5.1818 -0.30998 2.40878 -0.300366 -0.251849 -0.00264189 0 0 0 0 0 0 0 0 0 
26.982 1 398 40.7473 16.5052 2.61602 3.70927 -1.2739 -3.25418 0.0675483 -0.109833 0.512375 0 0 0 0 0 0 0 0 0 
26.982 1 364 43.3059 18.0163 5.83585 0.267679 1.91856 0.0783617 0.773132 -0.93337 0.533912 0 0 0 0 0 0 0 0 0 
26.982 1 2239 41.4403 19.7388 6.12523 -2.34131 -0.490037 6.47278 -0.69673 0.321334 -0.0628569 0 0 0 0 0 0 0 0 0 
26.982 1 203 -0.562172 1.89986 7.16765 3.62963 7.897 0.335113 -0.163936 0.126778 -0.197276 0 0 0 0 0 0 0 0 0 
26.982 1 243 0.584747 4.36965 7.66115 -1.77729 0.058352 -7.00696 0.173717 0.306437 -0.0386017 0 0 0 0 0 0 0 0 0 
26.982 1 401 -2.58124 1.6442 9.38753 -1.01236 0.814879 3.42997 -0.11864 0.0317346 -0.467021 0 0 0 0 0 0 0 0 0 
26.982 1 441 -1.44555 4.08558 9.83871 7.68992 -4.49979 -3.55456 0.206102 -0.012283 -0.0332199 0 0 0 0 0 0 0 0 0 
26.982 1 204 -2.71513 3.72692 7.1399 -3.94248 -0.259523 4.09388 0.222679 0.106743 0.137317 0 0 0 0 0 0 0 0 0 
26.982 1 402 1.12752 2.3558 9.57323 1.2898 0.477332 6.62885 0.173541 0.17631 -0.338808 0 0 0 0 0 0 0 0 0 
26.982 1 208 2.93096 2.54231 7.27099 -2.55644 -4.82386 3.67847 -0.145837 0.0793791 0.0637247 0 0 0 0 0 0 0 0 0 
26.982 1 445 2.84951 4.62742 9.60594 7.67982 -6.4826 4.20926 -0.389561 -0.475718 -0.425188 0 0 0 0 0 0 0 0 0 
26.982 1 247 4.81816 4.73742 7.05438 1.91703 -1.79516 -5.91533 0.0650292 -0.124986 -0.0607598 0 0 0 0 0 0 0 0 0 
26.982 1 406 4.97242 2.85636 9.08457 0.0345801 -2.6314 2.24159 -0.107092 -0.619726 -0.354843 0 0 0 0 0 0 0 0 0 
26.982 1 212 7.40528 2.62306 7.30247 2.89484 -0.816818 -4.37552 -0.215569 -0.441633 -0.297991 0 0 0 0 0 0 0 0 0 
26.982 1 449 7.12573 4.74074 8.88262 -2.01589 3.50105 3.76565 -0.422028 -0.251273 0.595299 0 0 0 0 0 0 0 0 0 
26.982 1 251 9.40008 4.59641 7.27862 -1.85287 -4.14541 2.63748 -0.448451 0.118243 -0.57446 0 0 0 0 0 0 0 0 0 
26.982 1 410 9.52012 2.30502 9.22366 -11.8262 -0.884094 2.75024 -0.446887 0.58227 -0.220329 0 0 0 0 0 0 0 0 0 
26.982 1 453 11.2658 4.75801 9.13188 -4.38313 -4.59597 -6.39386 0.277621 -0.418024 -0.623128 0 0 0 0 0 0 0 0 0 
26.982 1 216 11.3855 2.69789 7.03925 0.567553 -1.88601 2.78695 0.113137 -0.177631 0.320881 0 0 0 0 0 0 0 0 0 
26.982 1 255 13.5378 4.97024 6.75826 -3.17241 -0.262424 0.81597 -0.26041 -0.398527 -0.274579 0 0 0 0 0 0 0 0 0 
26.982 1 414 13.474 2.98999 8.90939 1.85648 1.67478 -0.529938 -0.280254 -0.2314 0.34987 0 0 0 0 0 0 0 0 0 
26.982 1 416 11.4704 2.79754 11.1015 0.432753 -0.720873 -3.04723 0.172761 -0.509398 0.137136 0 0 0 0 0 0 0 0 0 
26.982 1 457 15.4831 5.008 8.88694 -5.9926 3.45012 -0.969032 0.0756852 0.131112 0.271156 0 0 0 0 0 0 0 0 0 
26.982 1 220 15.4383 2.92782 7.1765 -0.0167221 -5.88559 -3.02653 0.684645 0.0443896 -1.16576 0 0 0 0 0 0 0 0 0 
26.982 1 418 17.6229 3.11423 9.02029 -0.349963 3.42107 0.404675 -0.480813 -0.413832 -0.208079 0 0 0 0 0 0 0 0 0 
26.982 1 459 17.6423 5.07986 11.0225 -0.676272 -2.47329 8.7849 -0.38119 -0.445814 -0.260033 0 0 0 0 0 0 0 0 0 
26.982 1 259 17.6815 5.218 6.85013 0.60178 -3.98878 -2.45936 -0.872751 -0.749524 0.303731 0 0 0 0 0 0 0 0 0 
26.982 1 224 19.5927 2.80851 6.94522 1.51208 5.23186 -2.16767 0.238682 0.521655 0.0430008 0 0 0 0 0 0 0 0 0 
26.982 1 461 19.5266 4.89529 8.85815 -0.460547 -3.16215 -5.21333 0.460984 0.38977 0.11646 0 0 0 0 0 0 0 0 0 
26.982 1 422 21.7673 2.97273 8.73763 -0.102162 1.17887 -0.457625 -0.0202902 0.0594904 -0.0683471 0 0 0 0 0 0 0 0 0 
26.982 1 463 21.8988 5.09143 10.6353 5.1244 7.79684 0.858473 -0.131644 -0.407269 -0.0988333 0 0 0 0 0 0 0 0 0 
26.982 1 424 19.7619 2.96861 10.951 7.18326 1.84693 4.3156 0.437481 0.239964 -0.0177715 0 0 0 0 0 0 0 0 0 
26.982 1 263 21.9202 5.59057 7.62086 -1.58098 1.42001 0.821378 0.370378 -0.111858 0.204302 0 0 0 0 0 0 0 0 0 
26.982 1 228 24.4095 3.61771 7.74753 -2.06495 0.83205 4.20027 -0.428301 0.94684 -0.336071 0 0 0 0 0 0 0 0 0 
26.982 1 465 24.2881 5.93444 9.48336 1.76747 -5.88446 -0.256855 0.0104389 -0.0644318 -0.237334 0 0 0 0 0 0 0 0 0 
26.982 1 227 26.667 2.17842 7.60901 -2.78804 -1.58997 2.15831 0.195828 -0.508898 -0.200571 0 0 0 0 0 0 0 0 0 
26.982 1 426 26.5455 3.9976 9.77257 0.128659 -3.49108 -4.6296 0.0892683 -0.255377 -0.751775 0 0 0 0 0 0 0 0 0 
26.982 1 428 23.9763 3.12802 10.492 0.439946 2.89857 1.32363 -0.0178418 -0.137652 -0.0779538 0 0 0 0 0 0 0 0 0 
26.982 1 427 26.2449 1.19313 10.2054 3.95263 0.0190912 -0.432986 0.146764 -0.0288091 0.0875849 0 0 0 0 0 0 0 0 0 