ITEM: TIMESTEP
550
ITEM: NUMBER OF ATOMS
4000
ITEM: BOX BOUNDS pp pp pp
-0.185979 40.686
-0.0334452 40.5334
-0.0410842 40.5411
ITEM: ATOMS mass type id x y z vx vy vz fx fy fz xrad yrad zrad vxrad vyrad vzrad fxrad fyrad fzrad 
26.982 1 2 1.80071 2.20503 -0.214367 1.63969 3.30278 2.90443 0.471849 -0.54442 0.229607 0 0 0 0 0 0 0 0 0 
26.982 1 3 1.93209 -0.0255937 1.86518 -2.03341 1.6686 -0.438051 -0.470748 0.432168 0.0805047 0 0 0 0 0 0 0 0 0 
26.982 1 8 3.75083 2.00994 1.91169 1.70395 -6.87544 3.93268 0.477001 0.376037 0.0698656 0 0 0 0 0 0 0 0 0 
26.982 1 41 -0.231126 4.05157 -0.051753 2.38642 0.43141 -0.534649 -0.113813 0.432977 -0.0024866 0 0 0 0 0 0 0 0 0 
26.982 1 43 1.73967 4.10384 2.02582 -4.57892 0.51549 -1.99696 0.303461 -0.150669 -0.132388 0 0 0 0 0 0 0 0 0 
26.982 1 202 1.92527 1.93335 4.00575 1.73334 -3.00453 2.45443 -0.0752875 0.191274 -0.226383 0 0 0 0 0 0 0 0 0 
26.982 1 241 -0.123905 4.02308 4.09708 4.33793 -2.9633 2.41044 -0.322682 0.0297153 -0.224561 0 0 0 0 0 0 0 0 0 
26.982 1 245 4.01842 4.16151 3.85019 -5.02787 -2.08545 -0.0380341 -0.620685 -0.744065 0.248337 0 0 0 0 0 0 0 0 0 
26.982 1 6 6.0272 1.97636 0.0292846 1.13542 1.40813 -0.0282569 -0.266225 0.15647 -0.408027 0 0 0 0 0 0 0 0 0 
26.982 1 9 8.05323 -0.105884 -0.143043 -3.97259 -0.611029 -3.38285 -0.180911 -0.00454727 0.205002 0 0 0 0 0 0 0 0 0 
26.982 1 12 7.8323 1.97005 1.96671 -0.580897 -4.65594 4.59271 0.476322 0.137125 -0.0566178 0 0 0 0 0 0 0 0 0 
26.982 1 47 6.04824 4.17714 1.86142 3.49254 3.81983 4.30585 -0.323073 -0.639931 0.130881 0 0 0 0 0 0 0 0 0 
26.982 1 49 8.07234 3.99645 -0.156915 1.80711 -0.632268 0.913449 -0.261591 -0.0547699 0.0778132 0 0 0 0 0 0 0 0 0 
26.982 1 206 5.88174 2.07062 3.98912 -4.43272 -3.02774 -3.50232 0.103218 -0.189956 -0.178232 0 0 0 0 0 0 0 0 0 
26.982 1 209 8.04627 0.050718 3.94428 4.24589 3.30997 0.184994 -0.217323 -0.209946 0.444626 0 0 0 0 0 0 0 0 0 
26.982 1 249 8.15074 3.93657 4.0423 -1.75936 -0.594021 3.78546 -0.479093 0.430923 -0.128248 0 0 0 0 0 0 0 0 0 
26.982 1 10 10.0084 1.95501 -0.10567 -1.16947 -3.36775 -4.29807 0.34773 -0.0487879 -0.120465 0 0 0 0 0 0 0 0 0 
26.982 1 16 12.0857 1.98653 1.9485 -4.64988 -3.22251 -0.921592 -0.221328 0.184418 -0.0388052 0 0 0 0 0 0 0 0 0 
26.982 1 51 9.83338 4.08053 1.84322 -1.83708 -1.47986 -1.3373 0.733646 -0.160468 0.385481 0 0 0 0 0 0 0 0 0 
26.982 1 53 12.0969 3.95809 -0.0101885 -3.59369 0.962411 0.208767 0.110465 0.129241 -0.165685 0 0 0 0 0 0 0 0 0 
26.982 1 210 9.99846 1.99449 3.79098 0.846585 -2.48066 -0.851587 0.413325 0.0330797 0.451271 0 0 0 0 0 0 0 0 0 
26.982 1 213 12.0956 0.0133436 3.94623 1.17051 -2.76014 -1.61405 -0.215347 -0.22514 0.0981283 0 0 0 0 0 0 0 0 0 
26.982 1 253 12.1225 4.1591 4.03557 1.06036 -3.59307 -1.44561 0.0345834 -0.457919 -0.268945 0 0 0 0 0 0 0 0 0 
26.982 1 20 16.1654 2.15523 1.96906 4.21209 5.11333 -3.72958 0.00043736 -0.400185 0.0675675 0 0 0 0 0 0 0 0 0 
26.982 1 55 14.1102 4.10615 2.02468 4.50561 -1.01641 -1.99842 0.237107 -0.197958 -0.380442 0 0 0 0 0 0 0 0 0 
26.982 1 57 16.2667 4.21482 -0.0251797 1.01301 1.52267 2.32005 -0.467598 -0.404949 -0.0312337 0 0 0 0 0 0 0 0 0 
26.982 1 214 14.1144 2.07103 3.91087 -1.18135 -0.909049 -6.9821 0.0422281 -0.244205 -0.0202427 0 0 0 0 0 0 0 0 0 
26.982 1 257 16.3106 4.0102 3.98079 -0.182613 -1.8519 -0.00512634 -0.144997 -0.0487154 -0.226521 0 0 0 0 0 0 0 0 0 
26.982 1 218 18.4316 2.00299 3.75969 -2.33375 -1.27751 -0.551596 -0.594737 -0.0837386 0.9337 0 0 0 0 0 0 0 0 0 
26.982 1 18 18.0921 2.14433 -0.0367869 1.24312 -7.49566 -2.37856 0.115467 -0.0119423 -0.407056 0 0 0 0 0 0 0 0 0 
26.982 1 19 18.1868 0.012949 1.86297 -4.87305 0.978641 6.03769 -0.0780703 -0.189004 0.285643 0 0 0 0 0 0 0 0 0 
26.982 1 21 20.1164 0.0568552 -0.0741325 6.25638 -0.333207 4.00005 0.258805 -0.147223 0.187894 0 0 0 0 0 0 0 0 0 
26.982 1 22 22.35 1.93608 -0.0411222 1.32958 -1.55241 -3.21312 -0.150127 0.285034 0.00518833 0 0 0 0 0 0 0 0 0 
26.982 1 24 20.1749 2.04696 1.80385 2.43894 4.56031 -4.35494 0.60652 -0.161851 0.0169833 0 0 0 0 0 0 0 0 0 
26.982 1 59 18.3911 4.07887 1.9957 3.41821 3.66103 -0.367874 -0.347746 0.364825 -0.0886427 0 0 0 0 0 0 0 0 0 
26.982 1 61 20.3887 3.98145 -0.198836 -4.08644 -1.78337 4.05347 -0.125549 0.0673781 0.346304 0 0 0 0 0 0 0 0 0 
26.982 1 63 22.3095 3.9147 2.00014 -1.73614 -3.66547 -6.92499 -0.0923637 0.243943 -0.249429 0 0 0 0 0 0 0 0 0 
26.982 1 222 22.0923 1.89422 3.99754 2.80623 2.54278 1.77801 0.465622 -0.186 -0.0689997 0 0 0 0 0 0 0 0 0 
26.982 1 261 20.4378 4.04904 4.01019 0.618061 -0.429804 2.97151 -0.676593 0.259268 -0.163068 0 0 0 0 0 0 0 0 0 
26.982 1 25 24.2949 -0.105689 -0.0228282 3.01131 1.21934 4.49327 0.012163 0.347787 -0.0141873 0 0 0 0 0 0 0 0 0 
26.982 1 26 26.4106 1.98023 0.0728985 1.58684 0.964749 -2.39059 -0.509722 -0.246884 -0.0253286 0 0 0 0 0 0 0 0 0 
26.982 1 27 26.3301 0.0205645 2.13261 -0.900642 2.97779 -0.931309 0.325239 -0.0825355 -0.231033 0 0 0 0 0 0 0 0 0 
26.982 1 28 24.2965 1.91593 2.11592 5.82104 5.53793 -0.141557 0.0953797 0.113223 -0.174646 0 0 0 0 0 0 0 0 0 
26.982 1 65 24.2958 3.99736 0.0682093 -3.82868 0.209426 3.61843 0.136235 -0.106618 -0.234084 0 0 0 0 0 0 0 0 0 
26.982 1 67 26.4147 3.94362 2.02787 0.163119 -0.938818 -6.48044 -0.188706 0.43802 -0.170975 0 0 0 0 0 0 0 0 0 
26.982 1 225 24.4455 -0.165689 4.10204 3.73448 1.94218 3.56444 -0.83166 0.715392 -0.561988 0 0 0 0 0 0 0 0 0 
26.982 1 226 26.3477 2.06804 4.04907 -2.84914 -3.81609 -3.18923 0.021718 -0.289035 0.297268 0 0 0 0 0 0 0 0 0 
26.982 1 265 24.231 3.99675 3.99795 -0.430419 -2.68998 -1.02487 0.138121 -0.017586 0.168003 0 0 0 0 0 0 0 0 0 
26.982 1 30 30.6075 1.89537 0.0205834 -4.32689 -2.74579 3.7519 -0.574431 0.652361 -0.0769027 0 0 0 0 0 0 0 0 0 
26.982 1 32 28.4565 1.99462 1.99809 -0.267263 -1.35152 -2.52655 -0.0247376 0.121078 0.305908 0 0 0 0 0 0 0 0 0 
26.982 1 69 28.4593 3.85277 -0.00544773 -1.14951 3.73512 -0.0583664 -0.0103027 0.380607 -0.0580546 0 0 0 0 0 0 0 0 0 
26.982 1 71 30.3766 4.1228 2.09288 -3.6689 -1.77182 4.91291 0.0762353 -0.168142 -0.154034 0 0 0 0 0 0 0 0 0 
26.982 1 230 30.4594 2.1383 3.96768 -3.14579 -1.11552 -1.99157 0.138167 -0.124416 0.606895 0 0 0 0 0 0 0 0 0 
26.982 1 269 28.2603 3.99878 4.1252 1.14598 2.13112 4.09716 0.399523 0.305512 -0.169917 0 0 0 0 0 0 0 0 0 
26.982 1 35 34.4976 -0.110583 1.98549 -0.198741 -2.07839 4.11297 0.368467 0.128044 -0.180615 0 0 0 0 0 0 0 0 0 
26.982 1 36 32.4774 1.86019 2.14535 1.13963 -0.606492 4.38861 0.316353 0.794118 -0.183035 0 0 0 0 0 0 0 0 0 
26.982 1 73 32.4516 4.07417 0.0193722 -1.39607 -2.84665 2.99361 0.212777 -0.267034 -0.0810446 0 0 0 0 0 0 0 0 0 
26.982 1 75 34.6122 4.00484 2.0502 1.83253 0.203509 -4.5611 -0.661037 0.117675 -0.292763 0 0 0 0 0 0 0 0 0 
26.982 1 234 34.5517 2.03274 3.99787 -1.31818 -0.243048 2.78204 -0.0811353 -0.0221164 0.142046 0 0 0 0 0 0 0 0 0 
26.982 1 273 32.4134 4.1479 4.06672 -0.29209 -5.07293 3.18709 0.195508 -0.457882 -0.268767 0 0 0 0 0 0 0 0 0 
26.982 1 4 40.6996 2.12658 1.89435 -0.708377 0.340766 5.42554 0.0153983 -0.511017 0.229968 0 0 0 0 0 0 0 0 0 
26.982 1 40 36.5975 1.96393 1.92663 0.915955 -1.91331 7.12557 -0.0833907 -0.065127 -0.0763836 0 0 0 0 0 0 0 0 0 
26.982 1 79 38.645 4.0454 1.93996 4.25032 -1.86024 -0.910257 -0.204022 0.00938647 0.161875 0 0 0 0 0 0 0 0 0 
26.982 1 237 36.5203 -0.0113331 3.83764 -3.74046 3.1785 -0.464795 0.372995 -0.122731 0.29102 0 0 0 0 0 0 0 0 0 
26.982 1 238 38.5509 1.98768 3.80742 4.28617 -2.77283 3.93282 0.32367 0.0659571 0.354343 0 0 0 0 0 0 0 0 0 
26.982 1 277 36.433 4.13022 3.98353 4.01513 1.45904 0.503101 0.674231 -0.44968 0.419925 0 0 0 0 0 0 0 0 0 
26.982 1 42 1.84243 5.93801 -0.226381 -2.65011 2.31236 3.44197 -0.420377 0.3306 0.518747 0 0 0 0 0 0 0 0 0 
26.982 1 48 3.76468 6.00975 1.92914 2.10106 -3.1148 1.59308 0.239141 0.357379 -0.212971 0 0 0 0 0 0 0 0 0 
26.982 1 81 -0.407679 7.94922 0.0160752 -2.18026 2.25174 3.11761 0.638335 0.205855 0.0544094 0 0 0 0 0 0 0 0 0 
26.982 1 83 1.98947 8.20682 1.91139 -6.76999 6.24703 -2.31692 -0.899586 -0.784403 0.107417 0 0 0 0 0 0 0 0 0 
26.982 1 85 3.75697 8.16807 -0.0944711 1.92153 3.0235 -0.0858718 0.472958 -0.303458 -0.0648871 0 0 0 0 0 0 0 0 0 
26.982 1 242 1.79303 6.13904 4.00377 -6.64146 3.69426 1.6576 -0.0875963 -0.158243 0.168298 0 0 0 0 0 0 0 0 0 
26.982 1 285 3.8549 7.9551 4.04967 3.43409 1.86398 -0.596342 0.529568 0.148844 -0.0609393 0 0 0 0 0 0 0 0 0 
26.982 1 46 5.88525 6.00286 -0.115774 1.12323 -3.89351 -2.53994 0.0205193 0.278993 0.0634914 0 0 0 0 0 0 0 0 0 
26.982 1 52 7.96127 6.08048 1.91408 -1.40408 -0.808232 -5.68324 0.400296 -0.124629 -0.00424581 0 0 0 0 0 0 0 0 0 
26.982 1 87 5.92509 7.9305 2.03397 -4.76542 1.63906 -1.95987 -0.252989 0.326574 -0.265371 0 0 0 0 0 0 0 0 0 
26.982 1 89 8.13128 7.99932 -0.112539 -0.122877 0.297595 -1.30035 -0.799162 0.291143 0.314304 0 0 0 0 0 0 0 0 0 
26.982 1 246 6.05657 5.83403 4.04047 1.48555 -0.522211 1.96571 0.0883462 0.733316 0.0876502 0 0 0 0 0 0 0 0 0 
26.982 1 289 7.99551 7.941 3.87461 0.813239 2.84701 2.6894 0.0534791 0.0362138 0.47507 0 0 0 0 0 0 0 0 0 
26.982 1 92 7.99491 9.9984 1.9864 -4.15912 -3.27336 -0.783944 -0.413964 -0.0651754 -0.251801 0 0 0 0 0 0 0 0 0 
26.982 1 286 6.07432 10.0488 4.09683 -3.11091 -0.20378 4.05703 -0.71319 -0.226182 -0.508214 0 0 0 0 0 0 0 0 0 
26.982 1 50 10.1168 6.03976 -0.133074 -3.96974 2.85206 8.22826 0.115756 -0.29909 0.54078 0 0 0 0 0 0 0 0 0 
26.982 1 56 12.1816 5.95764 1.93787 -0.533352 1.49288 3.015 -0.402673 0.454905 0.22356 0 0 0 0 0 0 0 0 0 
26.982 1 91 10.1314 8.02394 1.85547 3.92859 5.0216 2.4182 -0.347211 -0.248134 0.655206 0 0 0 0 0 0 0 0 0 
26.982 1 250 10.1676 6.07506 4.07755 2.00815 -1.73573 -4.45406 -0.302177 0.0334815 -0.463482 0 0 0 0 0 0 0 0 0 
26.982 1 293 12.0816 8.04064 4.13094 1.59738 2.85235 -0.0650641 0.147656 -0.107415 -0.591858 0 0 0 0 0 0 0 0 0 
26.982 1 54 14.1226 6.37423 -0.00362916 1.13995 0.592297 -1.40567 0.242204 -0.564354 -0.104495 0 0 0 0 0 0 0 0 0 
26.982 1 60 16.124 6.06108 1.98259 -3.22638 -1.79628 -1.40918 0.321115 0.261556 -0.0122349 0 0 0 0 0 0 0 0 0 
26.982 1 95 14.101 8.16783 2.16994 6.30074 -7.40602 -1.34073 -0.0354207 -0.42625 -0.569443 0 0 0 0 0 0 0 0 0 
26.982 1 97 16.2011 8.29016 0.0511826 5.98732 -0.953697 -0.676225 -0.0623645 -0.898717 -0.714033 0 0 0 0 0 0 0 0 0 
26.982 1 254 14.3461 5.9641 4.09467 8.54519 -1.19041 0.259495 -0.439775 0.384181 -0.0930809 0 0 0 0 0 0 0 0 0 
26.982 1 297 16.2079 8.11609 4.04267 2.40606 0.496429 -1.51146 -0.0618381 -0.433979 -0.0513028 0 0 0 0 0 0 0 0 0 
26.982 1 58 18.2803 5.97857 -0.0909531 2.28512 1.94664 -4.65177 0.114326 0.447847 0.183765 0 0 0 0 0 0 0 0 0 
26.982 1 62 22.2948 6.05524 -0.129988 1.27887 -0.452937 2.82578 0.0212617 0.0341517 0.296266 0 0 0 0 0 0 0 0 0 
26.982 1 64 20.3204 6.06755 1.99036 -1.42004 1.38866 2.3663 -0.0173998 -0.225899 -0.370387 0 0 0 0 0 0 0 0 0 
26.982 1 99 18.312 7.97924 1.92947 -2.91839 -0.674155 -3.02374 -0.284655 0.102848 -0.159798 0 0 0 0 0 0 0 0 0 
26.982 1 103 22.297 8.05861 1.96094 2.84837 0.917481 4.07457 0.208257 0.0556964 -0.73573 0 0 0 0 0 0 0 0 0 
26.982 1 258 18.2372 6.16404 4.02819 2.97831 5.534 -1.51923 0.276234 -0.219803 -0.0221692 0 0 0 0 0 0 0 0 0 
26.982 1 262 22.3368 6.13809 3.89912 -2.40253 1.16463 4.3723 -0.0214779 -0.367778 0.570741 0 0 0 0 0 0 0 0 0 
26.982 1 301 20.3867 8.07911 3.8767 0.0479957 2.92584 -2.66351 -0.490397 0.019914 0.582769 0 0 0 0 0 0 0 0 0 
26.982 1 298 18.059 9.96258 3.77828 7.47232 1.06768 0.96635 0.772295 0.660673 0.429275 0 0 0 0 0 0 0 0 0 
26.982 1 66 26.2404 6.02041 -0.156527 0.433333 -0.321649 -6.40243 0.340149 -0.111933 0.592451 0 0 0 0 0 0 0 0 0 
26.982 1 68 24.2708 6.05915 1.97974 -0.359426 -0.941321 -0.58796 0.217359 -0.160107 -0.382557 0 0 0 0 0 0 0 0 0 
26.982 1 107 26.2646 8.01724 2.08374 0.903096 -2.0007 1.62995 0.245058 0.171995 -0.834137 0 0 0 0 0 0 0 0 0 
26.982 1 266 26.2924 6.00879 3.97074 1.54583 -1.52288 -1.89219 0.00583896 -0.251861 0.295888 0 0 0 0 0 0 0 0 0 
26.982 1 305 24.3997 8.014 3.96601 -1.1689 -3.61579 -1.15663 -0.379643 0.284883 0.330154 0 0 0 0 0 0 0 0 0 
26.982 1 106 26.2168 10.1034 0.00124153 0.508655 -1.49588 -6.68517 0.713236 -0.110029 -0.0809098 0 0 0 0 0 0 0 0 0 
26.982 1 108 24.3085 10.1038 1.89397 -1.32619 0.375442 -5.87944 -0.0350039 0.102883 0.138858 0 0 0 0 0 0 0 0 0 
26.982 1 306 26.4395 10.1202 3.88271 -2.76411 -1.58489 0.562979 -0.533406 0.0725742 0.224348 0 0 0 0 0 0 0 0 0 
26.982 1 70 30.1849 5.9794 0.0634027 -0.524862 -0.387351 -5.74043 0.617193 0.47202 -0.210291 0 0 0 0 0 0 0 0 0 
26.982 1 72 28.365 6.1918 2.08225 7.09248 -3.48934 -5.7029 -0.121851 -0.61827 -0.206295 0 0 0 0 0 0 0 0 0 
26.982 1 111 30.4561 8.12713 2.05826 0.734272 -1.56359 1.86219 0.174968 -0.268696 -0.0056663 0 0 0 0 0 0 0 0 0 
26.982 1 270 30.4854 6.141 4.1169 5.53894 0.698194 2.62881 -0.433761 -0.00807483 -0.217054 0 0 0 0 0 0 0 0 0 
26.982 1 309 28.2699 8.05683 4.02192 4.81333 2.04771 -1.82907 0.392386 0.200512 0.250407 0 0 0 0 0 0 0 0 0 
26.982 1 112 28.47 10.0226 1.98351 1.15879 -4.08949 1.44321 -0.301275 0.248741 -0.000136921 0 0 0 0 0 0 0 0 0 
26.982 1 76 32.4519 6.03446 1.87003 3.25644 -0.187936 3.51584 -0.0155594 0.276321 0.436782 0 0 0 0 0 0 0 0 0 
26.982 1 115 34.5048 7.9917 2.16371 -2.06386 2.43493 -2.37576 -0.206737 0.416588 -0.590976 0 0 0 0 0 0 0 0 0 
26.982 1 274 34.4529 6.00066 4.0679 7.53365 2.4439 -3.87263 0.1125 0.251798 -0.00414598 0 0 0 0 0 0 0 0 0 
26.982 1 313 32.5172 7.99796 4.2133 -1.26217 0.0778067 -4.3592 -0.222643 -0.0465434 -0.524254 0 0 0 0 0 0 0 0 0 
26.982 1 114 34.5581 10.2415 -0.075942 -1.54064 2.21841 -4.31698 -0.160513 -0.973007 0.513989 0 0 0 0 0 0 0 0 0 
26.982 1 116 32.4563 10.0208 2.08958 4.4644 1.39344 1.6532 0.179294 -0.071685 -0.255358 0 0 0 0 0 0 0 0 0 
26.982 1 44 40.6816 6.11962 2.07986 3.43582 1.81516 -4.04934 0.0245619 -0.0915099 -0.255904 0 0 0 0 0 0 0 0 0 
26.982 1 281 40.6146 8.08686 4.10358 4.70225 6.08909 -0.205462 0.23365 -0.26447 0.0818923 0 0 0 0 0 0 0 0 0 
26.982 1 78 38.4262 6.05602 0.0728201 -2.81673 0.375358 1.72492 0.214693 -0.350482 -0.253504 0 0 0 0 0 0 0 0 0 
26.982 1 80 36.6756 6.1967 2.22756 0.00738268 -6.6714 -6.03028 -0.557639 -0.588818 -0.812775 0 0 0 0 0 0 0 0 0 
26.982 1 117 36.4482 8.07066 -0.026877 3.40116 -1.45044 -1.43883 -0.00164239 -0.158975 0.497789 0 0 0 0 0 0 0 0 0 
26.982 1 119 38.654 8.06345 2.07957 0.720229 8.66955 0.275664 0.028563 0.371505 -0.187935 0 0 0 0 0 0 0 0 0 
26.982 1 278 38.6026 6.01046 4.09943 -1.36262 3.84963 2.71715 0.267864 -0.0790828 0.13032 0 0 0 0 0 0 0 0 0 
26.982 1 317 36.5794 8.20595 3.90968 -0.790186 -6.80126 3.785 -0.0588244 -0.217464 0.914211 0 0 0 0 0 0 0 0 0 
26.982 1 120 36.6369 10.1237 2.03609 -2.4261 -3.61912 -1.40174 -0.281949 -0.0587629 -0.423784 0 0 0 0 0 0 0 0 0 
26.982 1 318 38.6104 10.0872 4.12586 2.59816 -1.89931 1.20428 0.0464488 0.0170748 -0.281947 0 0 0 0 0 0 0 0 0 
26.982 1 88 3.82257 10.0757 2.03951 -0.548727 2.70448 -4.1124 0.659062 0.163763 -0.0771411 0 0 0 0 0 0 0 0 0 
26.982 1 122 1.70782 14.22 0.0313325 -8.05836 2.46606 -1.08986 -0.0785464 -0.112137 -0.166874 0 0 0 0 0 0 0 0 0 
26.982 1 123 1.83213 12.1033 1.97077 -6.09745 8.27902 -3.02254 -0.286284 0.104328 0.371898 0 0 0 0 0 0 0 0 0 
26.982 1 125 3.81854 12.1841 0.118014 -2.11573 -4.18686 2.69755 0.0853994 -0.335793 -0.63113 0 0 0 0 0 0 0 0 0 
26.982 1 128 3.7491 14.2377 1.95614 0.8633 2.33149 3.65873 0.627745 -0.241439 0.108993 0 0 0 0 0 0 0 0 0 
26.982 1 282 1.89125 9.97692 4.01151 -2.2248 0.634957 7.19264 -0.111387 0.354026 0.425166 0 0 0 0 0 0 0 0 0 
26.982 1 322 2.08976 14.1088 3.99791 -1.2606 2.61308 -3.86702 -1.14154 -0.141229 0.0396194 0 0 0 0 0 0 0 0 0 
26.982 1 325 3.87154 12.1096 4.06129 -1.17199 4.97937 5.44976 0.273794 -0.172446 0.0391031 0 0 0 0 0 0 0 0 0 
26.982 1 126 5.8511 14.1637 0.11427 -4.71198 -2.28548 2.03757 0.0645834 -0.170072 -0.347899 0 0 0 0 0 0 0 0 0 
26.982 1 127 5.84949 11.9801 2.06382 -0.631 0.513425 -1.29855 -0.111962 0.147323 -0.135992 0 0 0 0 0 0 0 0 0 
26.982 1 129 7.86587 11.9811 0.0949478 -2.22467 0.263994 2.27257 0.0818613 0.497019 -0.270481 0 0 0 0 0 0 0 0 0 
26.982 1 132 7.78067 14.0223 2.05432 1.31292 -0.835635 1.82723 0.518969 0.415051 -0.252963 0 0 0 0 0 0 0 0 0 
26.982 1 326 5.99445 14.1612 4.06311 -1.11608 -8.18773 -0.496889 -0.183115 -0.271551 0.139413 0 0 0 0 0 0 0 0 0 
26.982 1 329 7.89147 12.0403 3.94669 4.86528 6.1758 2.48355 0.377705 0.286577 0.62786 0 0 0 0 0 0 0 0 0 
26.982 1 96 11.9337 10.0727 2.0366 -2.64004 0.0827488 -1.01912 0.40135 -0.0684789 0.179264 0 0 0 0 0 0 0 0 0 
26.982 1 130 9.91282 14.0476 0.0725087 0.588135 4.27904 0.074743 0.233811 0.183852 0.00937267 0 0 0 0 0 0 0 0 0 
26.982 1 131 10.1509 12.1315 2.10845 2.01737 5.45821 -2.01903 -0.723255 0.260236 -0.0582459 0 0 0 0 0 0 0 0 0 
26.982 1 133 12.051 12.1071 0.0888295 -3.09249 -0.117521 -2.79515 -0.134417 0.343548 -0.0830688 0 0 0 0 0 0 0 0 0 
26.982 1 136 12.1328 14.2917 2.07071 1.0328 1.42568 1.1417 -0.393654 -0.506909 -0.415752 0 0 0 0 0 0 0 0 0 
26.982 1 290 9.79334 9.99731 3.96249 0.745962 -5.27855 -0.998332 0.694477 0.191566 0.445328 0 0 0 0 0 0 0 0 0 
26.982 1 330 9.80527 14.2257 4.13485 -1.31677 5.779 4.81 0.600868 -0.691504 -0.254482 0 0 0 0 0 0 0 0 0 
26.982 1 333 12.119 12.1745 3.93972 0.863189 -2.88933 4.80725 -0.174695 -0.0169291 0.422628 0 0 0 0 0 0 0 0 0 
26.982 1 100 16.2258 10.1276 1.83082 0.21422 -0.572105 0.284362 -0.282846 0.512981 0.649873 0 0 0 0 0 0 0 0 0 
26.982 1 135 14.0753 12.0483 2.00072 -0.803403 0.496489 -4.67446 0.333697 0.333448 -0.00934659 0 0 0 0 0 0 0 0 0 
26.982 1 140 16.1174 14.2773 2.08775 2.56477 -1.03866 -0.907576 0.242857 -0.0276723 -0.567952 0 0 0 0 0 0 0 0 0 
26.982 1 294 14.1694 10.0693 3.94555 0.536403 0.283083 -1.33171 0.0146892 0.498895 0.250465 0 0 0 0 0 0 0 0 0 
26.982 1 334 14.1647 14.166 3.95442 -1.83576 3.05362 -0.120807 -0.0895324 0.138491 0.0363216 0 0 0 0 0 0 0 0 0 
26.982 1 337 16.2209 12.2871 3.84486 2.12348 5.02725 1.24677 -0.164357 -0.681855 0.298369 0 0 0 0 0 0 0 0 0 
26.982 1 104 20.2534 10.1374 2.01732 1.46212 1.26014 1.42444 -0.206076 0.165504 -0.0251228 0 0 0 0 0 0 0 0 0 
26.982 1 139 18.2911 12.2196 1.98662 -4.10956 1.06356 -0.385728 -0.165603 0.0407701 -0.214857 0 0 0 0 0 0 0 0 0 
26.982 1 143 22.3899 12.3431 1.81793 -2.10918 3.98583 -2.30031 -0.27863 -0.358394 0.371922 0 0 0 0 0 0 0 0 0 
26.982 1 144 20.299 14.2926 1.95926 1.85034 -0.632912 -0.101372 -0.39662 0.0872766 0.0608368 0 0 0 0 0 0 0 0 0 
26.982 1 302 22.3518 10.0347 3.79816 4.64936 -2.47841 -3.0543 0.0496374 0.452916 0.34802 0 0 0 0 0 0 0 0 0 
26.982 1 338 18.2407 14.1346 4.0868 5.63507 -1.73082 0.921861 0.13869 0.253644 -0.240108 0 0 0 0 0 0 0 0 0 
26.982 1 341 20.3708 12.2444 3.90874 -0.189016 0.377312 -0.316253 -0.158314 -0.127816 0.179723 0 0 0 0 0 0 0 0 0 
26.982 1 342 22.1877 14.3888 4.0038 1.37112 0.105883 -2.54849 0.188705 -0.166091 -0.444576 0 0 0 0 0 0 0 0 0 
26.982 1 147 26.3355 12.2062 1.91692 -1.8564 2.45523 1.64845 0.0453894 -0.437141 0.0865334 0 0 0 0 0 0 0 0 0 
26.982 1 148 24.3511 14.2684 1.86247 1.81213 -1.05787 4.38522 0.180831 -0.00982441 -0.0483981 0 0 0 0 0 0 0 0 0 
26.982 1 345 24.1903 12.2503 3.88818 -4.6905 -3.33476 -3.79826 0.715275 -0.260901 -0.634018 0 0 0 0 0 0 0 0 0 
26.982 1 346 26.4296 14.0626 3.85954 -1.35647 1.108 -3.4116 -0.279493 0.115149 0.657047 0 0 0 0 0 0 0 0 0 
26.982 1 110 30.4896 10.0761 0.0276721 -2.42945 -2.45643 8.52437 -0.119198 0.025768 -0.117977 0 0 0 0 0 0 0 0 0 
26.982 1 149 28.3535 12.1074 -0.02159 0.145571 -1.24151 -0.591554 0.34332 0.113977 0.2438 0 0 0 0 0 0 0 0 0 
26.982 1 150 30.4405 14.2495 -0.0406665 -0.633103 0.861997 -5.10707 0.177596 -0.656776 0.0642996 0 0 0 0 0 0 0 0 0 
26.982 1 151 30.394 12.0838 2.04538 -0.0450719 1.20765 -1.81626 0.257038 0.064714 -0.105494 0 0 0 0 0 0 0 0 0 
26.982 1 152 28.4426 14.0263 2.08834 2.12577 2.7299 -4.67006 0.226604 0.248616 -0.413804 0 0 0 0 0 0 0 0 0 
26.982 1 310 30.4831 10.1268 4.21213 2.37537 -0.536185 1.10191 -0.275323 -0.45643 -0.75195 0 0 0 0 0 0 0 0 0 
26.982 1 349 28.3829 11.9877 4.14821 2.20253 -0.0447259 2.72879 -0.00391095 0.309117 -0.380231 0 0 0 0 0 0 0 0 0 
26.982 1 350 30.3876 14.0493 4.17794 -3.36493 -1.60656 -2.75894 0.0958495 0.169236 -0.466358 0 0 0 0 0 0 0 0 0 
26.982 1 153 32.5833 12.0926 -0.0029374 2.63668 -0.639003 2.21339 -0.813722 0.159432 0.0514296 0 0 0 0 0 0 0 0 0 
26.982 1 155 34.3913 12.127 1.92021 1.24325 -0.36165 -1.96429 0.665906 -0.129037 0.659451 0 0 0 0 0 0 0 0 0 
26.982 1 156 32.5111 14.1145 2.10719 2.12387 1.10168 -0.356024 -0.169204 -0.0440977 0.0500625 0 0 0 0 0 0 0 0 0 
26.982 1 314 34.4444 10.136 4.11845 1.59333 3.15424 1.6058 0.424835 -0.502448 -0.588331 0 0 0 0 0 0 0 0 0 
26.982 1 353 32.5183 12.0401 4.01042 -5.74887 1.43626 -1.84185 -0.2871 0.334401 -0.0130873 0 0 0 0 0 0 0 0 0 
26.982 1 354 34.5111 14.1442 4.20286 -3.71778 -5.30478 -1.60673 -0.0317042 0.00149949 -0.546444 0 0 0 0 0 0 0 0 0 
26.982 1 84 40.7275 10.1168 2.10825 8.27531 0.71729 -2.39011 -0.295231 -0.240785 -0.375606 0 0 0 0 0 0 0 0 0 
26.982 1 124 40.5368 14.1488 2.0041 1.71109 0.910808 1.43064 0.33709 0.316301 0.216303 0 0 0 0 0 0 0 0 0 
26.982 1 321 40.4735 12.0558 4.0349 1.61637 0.103897 5.20472 0.580764 0.434657 -0.00146632 0 0 0 0 0 0 0 0 0 
26.982 1 158 38.4529 14.3117 -0.0252364 -0.291572 0.263177 -0.797579 0.224116 -0.390342 -0.21638 0 0 0 0 0 0 0 0 0 
26.982 1 159 38.7038 12.1148 1.826 -0.741721 -0.387342 -3.16908 -0.738074 -0.118741 0.815178 0 0 0 0 0 0 0 0 0 
26.982 1 160 36.5138 14.1545 2.12839 0.905568 -2.24356 0.301346 -0.129175 -0.174609 -0.362806 0 0 0 0 0 0 0 0 0 
26.982 1 357 36.5379 12.0695 3.8867 -1.79947 0.522508 1.99683 -0.0521917 -0.0107127 0.360504 0 0 0 0 0 0 0 0 0 
26.982 1 358 38.4604 14.0641 4.02055 1.53858 -3.05368 1.97797 0.397567 -0.0938696 0.0638272 0 0 0 0 0 0 0 0 0 
26.982 1 163 1.76358 16.1776 2.17105 1.04857 -7.24327 2.69171 -0.187997 0.0744238 -0.117716 0 0 0 0 0 0 0 0 0 
26.982 1 164 -0.371395 18.0824 1.99458 0.337411 -7.50217 2.33726 0.432628 0.233754 -0.0605137 0 0 0 0 0 0 0 0 0 
26.982 1 165 3.7336 16.0995 -0.0404239 6.29857 -2.79435 -0.241152 0.09574 0.46325 0.201189 0 0 0 0 0 0 0 0 0 
26.982 1 168 3.68105 18.3309 2.03935 -4.02857 -2.39796 -3.21853 0.40288 -0.441252 0.206792 0 0 0 0 0 0 0 0 0 
26.982 1 361 -0.36137 15.9712 4.14723 -1.97806 1.68264 -2.29694 0.310681 0.325671 -0.843604 0 0 0 0 0 0 0 0 0 
26.982 1 362 1.78971 18.1747 4.14633 1.23327 0.0545866 -1.86886 -0.120413 -0.0980046 -0.647637 0 0 0 0 0 0 0 0 0 
26.982 1 365 4.09823 16.12 4.00421 -2.65973 2.89537 1.48921 -0.588152 0.494741 0.0902503 0 0 0 0 0 0 0 0 0 
26.982 1 2201 -0.0645235 20.2728 4.14313 -2.32661 0.719735 4.01257 -0.615663 0.0151408 -0.430257 0 0 0 0 0 0 0 0 0 
26.982 1 166 5.74312 18.2721 0.00423311 -5.07035 4.79791 4.48455 -0.104108 0.0824733 -0.235211 0 0 0 0 0 0 0 0 0 
26.982 1 167 5.8317 16.3436 1.96125 -0.827773 0.154833 3.15366 0.220486 -0.290042 0.0572056 0 0 0 0 0 0 0 0 0 
26.982 1 169 7.87284 16.2638 0.00246745 1.13088 2.53274 1.81963 -0.0186996 -0.552745 0.342108 0 0 0 0 0 0 0 0 0 
26.982 1 172 7.92611 18.3564 1.95751 0.841174 -2.7629 1.78205 -0.000233281 -0.351798 0.100176 0 0 0 0 0 0 0 0 0 
26.982 1 366 5.92394 18.2114 4.08785 4.05646 -2.04446 0.77824 -0.174691 0.0453478 0.133097 0 0 0 0 0 0 0 0 0 
26.982 1 369 7.94514 16.154 4.06124 3.75303 -4.33532 -8.71574 -0.416394 0.327544 -0.0990447 0 0 0 0 0 0 0 0 0 
26.982 1 170 10.0363 18.2043 0.120599 1.37681 2.83782 -2.02339 -0.184845 -0.22954 -0.534565 0 0 0 0 0 0 0 0 0 
26.982 1 171 9.86552 16.1135 2.01331 1.87956 -5.02883 -1.38353 0.0876342 -0.0490214 -0.118605 0 0 0 0 0 0 0 0 0 
26.982 1 173 12.1359 16.1846 0.0190244 0.478929 0.466309 -1.54358 -0.493853 -0.427586 0.0835595 0 0 0 0 0 0 0 0 0 
26.982 1 176 11.9944 18.0733 2.05948 0.996696 1.22232 -3.57507 0.0406292 0.300862 0.0729208 0 0 0 0 0 0 0 0 0 
26.982 1 370 9.88793 18.1216 4.01085 3.43589 -2.94969 1.15125 0.221695 0.179648 0.0739282 0 0 0 0 0 0 0 0 0 
26.982 1 373 11.9312 16.0196 4.02548 -3.7602 -0.650635 -2.91146 0.178326 0.677253 0.256544 0 0 0 0 0 0 0 0 0 
26.982 1 2013 11.9738 20.0709 -0.231644 2.01726 0.3683 2.23759 0.348823 0.338379 0.520389 0 0 0 0 0 0 0 0 0 
26.982 1 2213 11.8459 20.3105 3.97899 -5.34508 -1.71999 -0.326889 1.0017 -0.512869 0.430697 0 0 0 0 0 0 0 0 0 
26.982 1 175 14.0736 16.3058 1.91654 0.402543 -4.81006 2.14137 0.512191 -0.247772 0.406341 0 0 0 0 0 0 0 0 0 
26.982 1 177 16.2304 16.1622 0.0161767 -1.26821 -1.28909 -4.62979 -0.386705 0.385346 -0.0657097 0 0 0 0 0 0 0 0 0 
26.982 1 180 16.0373 18.5094 1.92353 -5.95129 -0.624371 1.37824 0.584511 -0.632468 0.257352 0 0 0 0 0 0 0 0 0 
26.982 1 374 14.0254 18.2122 3.95501 -3.37335 -1.16743 2.13157 0.00164678 0.00991399 0.436958 0 0 0 0 0 0 0 0 0 
26.982 1 377 16.2728 16.2982 4.06642 -1.0926 0.190612 3.25352 -0.762324 -0.0487615 -0.462896 0 0 0 0 0 0 0 0 0 
26.982 1 2015 14.0714 20.3221 2.04544 6.46854 0.156356 -4.97056 -0.320314 0.00167266 0.0401252 0 0 0 0 0 0 0 0 0 
26.982 1 178 18.229 18.334 -0.046353 5.35403 -1.44339 -0.294705 0.0810147 -0.421561 0.202571 0 0 0 0 0 0 0 0 0 
26.982 1 179 18.1764 16.2876 1.95032 -1.33031 5.00917 -4.66384 -0.00696371 -0.217645 0.123057 0 0 0 0 0 0 0 0 0 
26.982 1 183 22.3717 16.2126 1.78524 0.435029 -0.232602 0.321304 0.227941 -0.00523586 0.724495 0 0 0 0 0 0 0 0 0 
26.982 1 184 20.338 17.9896 2.06417 -3.95134 -1.90768 7.34107 -0.127014 0.794403 -0.395497 0 0 0 0 0 0 0 0 0 
26.982 1 378 18.2863 18.1812 4.06959 -1.93241 0.574712 -2.75759 -0.679924 0.550116 -0.129432 0 0 0 0 0 0 0 0 0 
26.982 1 381 20.1898 16.4073 4.1836 -1.65488 -1.61742 -2.63084 0.190621 -0.959778 -0.490347 0 0 0 0 0 0 0 0 0 
26.982 1 382 22.462 18.0633 3.98459 1.76953 -0.822741 0.925905 -0.061892 0.496986 -0.0595822 0 0 0 0 0 0 0 0 0 
26.982 1 2023 22.3235 20.182 1.96718 -3.97469 8.65774 -0.328063 -0.196707 -0.176186 0.103419 0 0 0 0 0 0 0 0 0 
26.982 1 2221 20.201 20.1468 3.94637 -0.368511 -0.37547 0.173012 0.328585 0.00707301 0.0958488 0 0 0 0 0 0 0 0 0 
26.982 1 186 26.4535 18.2373 -0.13429 3.47278 -0.727103 0.572491 0.218371 -0.0200513 0.362501 0 0 0 0 0 0 0 0 0 
26.982 1 187 26.5956 16.2113 1.9117 3.89226 0.944198 1.18943 -0.301839 -0.000935267 -0.169565 0 0 0 0 0 0 0 0 0 
26.982 1 188 24.4544 18.2733 1.89126 1.2348 4.23338 0.750795 -0.0789574 -0.128915 0.301417 0 0 0 0 0 0 0 0 0 
26.982 1 385 24.5711 16.1324 3.80561 0.760825 -0.181665 1.02869 -0.387497 0.271893 0.376942 0 0 0 0 0 0 0 0 0 
26.982 1 386 26.4211 18.2383 4.09164 -0.243925 10.6867 -0.262386 0.0945102 0.134712 -0.518994 0 0 0 0 0 0 0 0 0 
26.982 1 2225 24.2623 20.2973 4.09901 -0.805565 -4.23076 -1.9679 0.42586 -0.620755 -0.0242677 0 0 0 0 0 0 0 0 0 
26.982 1 191 30.4717 16.0648 2.10867 0.211049 3.99836 0.686906 -0.249608 0.0649486 0.124752 0 0 0 0 0 0 0 0 0 
26.982 1 192 28.5366 18.1287 1.97298 -1.10427 -0.492262 0.488466 -0.342808 0.253621 0.0286746 0 0 0 0 0 0 0 0 0 
26.982 1 389 28.3103 16.0951 4.08875 0.0874516 -5.8579 -1.4514 0.443396 0.208363 -0.000758094 0 0 0 0 0 0 0 0 0 
26.982 1 390 30.369 18.3648 4.0696 -3.39694 0.588616 2.30782 0.152977 -0.76312 0.121385 0 0 0 0 0 0 0 0 0 
26.982 1 193 32.5033 16.0715 0.189136 -0.457065 -3.93674 4.76392 0.192285 0.287207 -0.604871 0 0 0 0 0 0 0 0 0 
26.982 1 195 34.5541 16.1545 2.13258 0.787319 2.23039 -3.51205 -0.0802224 0.0903982 -0.282189 0 0 0 0 0 0 0 0 0 
26.982 1 196 32.3073 18.1823 2.04057 -4.28439 0.185487 -0.983598 0.534019 0.134459 -0.0250447 0 0 0 0 0 0 0 0 0 
26.982 1 393 32.5284 16.2693 4.08104 1.05728 4.32229 -1.73172 -0.499202 -0.207422 0.0345997 0 0 0 0 0 0 0 0 0 
26.982 1 394 34.4726 18.146 4.00167 0.0457355 -0.827808 0.927608 0.198718 0.574029 0.184974 0 0 0 0 0 0 0 0 0 
26.982 1 2035 34.44 20.2425 1.96054 -1.40903 -0.336198 -4.16198 0.164679 0.0515456 0.22107 0 0 0 0 0 0 0 0 0 
26.982 1 199 38.4896 16.1042 2.01961 -3.96404 3.9471 6.14781 0.362985 0.205175 -0.18737 0 0 0 0 0 0 0 0 0 
26.982 1 200 36.6556 18.1906 2.01157 0.885766 -0.415841 1.0407 -0.387743 0.34065 0.0968576 0 0 0 0 0 0 0 0 0 
26.982 1 397 36.6409 16.2225 4.04647 -6.90577 -2.62227 0.505679 -0.449967 0.086681 0.391519 0 0 0 0 0 0 0 0 0 
26.982 1 398 38.7347 18.1342 4.00336 -1.49811 1.40086 -3.40002 -0.612648 0.43439 0.103195 0 0 0 0 0 0 0 0 0 
26.982 1 2237 36.5171 20.1502 4.14576 -1.22314 1.21415 -0.185431 0.297734 0.223728 -0.724418 0 0 0 0 0 0 0 0 0 
26.982 1 208 3.93639 1.95957 5.99519 -3.35221 -4.4184 -5.16865 0.0858195 0.036352 -0.163005 0 0 0 0 0 0 0 0 0 
26.982 1 243 1.922 4.00094 6.01046 -3.96785 3.60308 -7.17638 -0.20977 -0.203803 -0.284129 0 0 0 0 0 0 0 0 0 
26.982 1 402 1.82676 1.98896 8.12979 -0.351576 0.504005 -2.56298 0.153951 -0.213083 -0.412974 0 0 0 0 0 0 0 0 0 
26.982 1 441 -0.163892 3.95016 8.13618 1.17833 -2.7122 -1.2998 -0.00228427 -0.0405385 -0.169814 0 0 0 0 0 0 0 0 0 
26.982 1 445 3.83433 3.89797 7.96902 0.959519 0.977772 -0.401204 0.609052 0.0328022 0.317987 0 0 0 0 0 0 0 0 0 
26.982 1 408 3.85565 1.96659 10.0226 -0.0151102 3.04001 -4.81799 -0.188601 0.144738 -0.121446 0 0 0 0 0 0 0 0 0 
26.982 1 212 7.98208 2.03764 6.0321 -2.83131 -1.68913 5.1737 0.148265 -0.286845 0.00643616 0 0 0 0 0 0 0 0 0 
26.982 1 247 5.95416 3.99048 6.05226 -0.19052 5.21452 3.52072 0.238765 -0.0231382 0.177468 0 0 0 0 0 0 0 0 0 
26.982 1 406 6.00643 1.93062 8.09837 3.47023 -5.06193 1.75312 0.00542671 0.269356 0.00357431 0 0 0 0 0 0 0 0 0 
26.982 1 409 8.07008 -0.059395 8.04181 -2.68438 -0.291567 4.89704 -0.255563 0.0932171 -0.113619 0 0 0 0 0 0 0 0 0 
26.982 1 449 8.22542 3.95302 8.07843 -2.33035 -1.2254 8.26921 -0.541653 0.450447 -0.105678 0 0 0 0 0 0 0 0 0 
26.982 1 412 8.0306 1.91933 10.1331 0.237091 0.446229 -1.80052 -0.0104677 -0.0169975 -0.561553 0 0 0 0 0 0 0 0 0 
26.982 1 447 5.91145 4.24695 10.0751 0.430267 2.14808 -0.222041 -0.211121 -1.1636 -0.0415937 0 0 0 0 0 0 0 0 0 
26.982 1 211 10.0445 -0.00723907 6.02317 2.70512 2.68077 4.704 0.118202 0.0767547 -0.169557 0 0 0 0 0 0 0 0 0 
26.982 1 216 12.1487 1.99314 5.93004 1.55754 5.73969 -5.1254 -0.41997 0.103533 0.142292 0 0 0 0 0 0 0 0 0 
26.982 1 251 10.147 4.05288 5.91644 -3.89656 -4.12639 5.9019 -0.0899237 -0.101618 0.527382 0 0 0 0 0 0 0 0 0 