ITEM: TIMESTEP
18800
ITEM: NUMBER OF ATOMS
4000
ITEM: BOX BOUNDS pp pp pp
-3.89515 44.3951
1.24571 39.2543
1.39506 39.1049
ITEM: ATOMS mass type id x y z vx vy vz fx fy fz xrad yrad zrad vxrad vyrad vzrad fxrad fyrad fzrad 
26.982 1 202 -0.537672 4.30934 5.98553 -4.33441 3.64806 6.4259 -0.621398 0.131315 -1.06078 0 0 0 0 0 0 0 0 0 
26.982 1 2 -1.28649 3.65088 2.70631 1.78807 -5.09621 -5.26297 0.557612 -0.842653 0.0936833 0 0 0 0 0 0 0 0 0 
26.982 1 4 -3.17897 3.45164 4.83099 6.74688 -0.914785 -4.48914 0.33615 -0.093636 -0.571424 0 0 0 0 0 0 0 0 0 
26.982 1 241 -2.83271 5.93888 5.67165 -0.5413 4.12415 -0.523363 0.323654 -0.0682468 -0.55724 0 0 0 0 0 0 0 0 0 
26.982 1 41 -2.92199 5.40406 2.28453 0.848081 7.75644 3.96913 -0.80518 0.544052 0.261616 0 0 0 0 0 0 0 0 0 
26.982 1 5 0.837218 1.85227 2.63395 -0.400338 -1.73137 -6.37318 -0.315554 0.0925648 0.118547 0 0 0 0 0 0 0 0 0 
26.982 1 205 1.34896 2.46115 5.48223 4.23385 0.349599 7.45474 0.134016 -0.279739 -0.268439 0 0 0 0 0 0 0 0 0 
26.982 1 245 2.89111 4.88504 5.95435 1.47504 1.09957 -0.101544 0.12667 -0.0504064 0.652722 0 0 0 0 0 0 0 0 0 
26.982 1 8 2.71669 3.87631 3.5955 -2.12057 0.500281 4.44113 -0.180528 0.0242765 -0.699947 0 0 0 0 0 0 0 0 0 
26.982 1 47 5.13672 5.39301 4.16702 3.62367 -1.63319 -3.25361 -0.382673 -0.0877347 0.11017 0 0 0 0 0 0 0 0 0 
26.982 1 206 4.95587 2.76282 4.95236 -7.06616 -0.133994 3.63299 -0.126191 -0.452517 0.883848 0 0 0 0 0 0 0 0 0 
26.982 1 6 4.9759 3.32157 2.24826 3.62776 -0.249677 0.914165 0.6524 0.523447 0.147217 0 0 0 0 0 0 0 0 0 
26.982 1 249 7.56956 4.69621 5.31818 -0.58657 -3.4303 -3.69768 -0.328985 0.206829 0.475897 0 0 0 0 0 0 0 0 0 
26.982 1 12 7.34057 2.77139 3.61166 -4.93592 1.91913 1.48971 0.130737 -0.906125 -0.693281 0 0 0 0 0 0 0 0 0 
26.982 1 51 9.55042 4.7292 3.15244 -1.79867 6.328 -5.54115 0.0478272 -0.167645 0.220749 0 0 0 0 0 0 0 0 0 
26.982 1 52 7.43628 6.59389 3.36643 1.21671 -2.51578 -1.94521 -0.302971 -0.0661499 -0.481346 0 0 0 0 0 0 0 0 0 
26.982 1 210 9.22197 2.52602 5.51342 -5.90434 -0.539532 1.22227 0.580083 -0.106241 -0.524392 0 0 0 0 0 0 0 0 0 
26.982 1 253 11.5081 4.77258 5.24727 2.2693 -8.01022 0.478059 -0.320134 -0.0302261 -0.416279 0 0 0 0 0 0 0 0 0 
26.982 1 16 11.4424 2.60722 3.54491 2.62107 -1.98371 -2.24745 -0.183926 -0.0523047 -0.497327 0 0 0 0 0 0 0 0 0 
26.982 1 214 13.5131 2.52665 5.15073 3.34368 -3.44157 1.52978 0.56221 0.0903801 -0.148693 0 0 0 0 0 0 0 0 0 
26.982 1 55 13.59 4.76336 3.15405 -7.43499 -4.87448 -3.00505 0.132952 0.0731348 0.000615442 0 0 0 0 0 0 0 0 0 
26.982 1 20 15.815 2.64353 3.04536 -4.40005 -0.431525 -3.59664 -0.191164 -0.0839195 0.225736 0 0 0 0 0 0 0 0 0 
26.982 1 257 15.7905 4.47854 5.12849 1.1243 -4.89466 -0.242082 -0.485828 0.57227 -0.614513 0 0 0 0 0 0 0 0 0 
26.982 1 218 17.727 2.57871 5.04 4.50761 -2.12274 2.29998 0.173655 0.401069 0.137319 0 0 0 0 0 0 0 0 0 
26.982 1 59 18.0606 4.87144 3.30057 2.10273 1.37953 2.88898 -0.414435 -0.285581 0.0694501 0 0 0 0 0 0 0 0 0 
26.982 1 24 20.069 2.91023 2.95209 -1.71269 -3.11383 3.75776 -0.184143 0.135652 0.29987 0 0 0 0 0 0 0 0 0 
26.982 1 261 20.1585 5.34043 5.21142 -2.35129 -3.35817 -3.16007 -0.377712 -0.802189 0.844734 0 0 0 0 0 0 0 0 0 
26.982 1 63 22.0004 4.9285 2.74448 5.17954 -0.456 2.77456 0.200803 0.188185 0.40623 0 0 0 0 0 0 0 0 0 
26.982 1 222 22.0466 3.34392 4.94269 -2.1282 2.04104 -1.3208 -0.146312 -0.107682 0.252443 0 0 0 0 0 0 0 0 0 
26.982 1 2607 2.1609 20.0351 13.6313 1.47216 -1.0522 7.77879 -0.320958 0.472283 0.240861 0 0 0 0 0 0 0 0 0 
26.982 1 28 24.46 2.67114 2.89598 9.5754 -5.41642 5.31768 0.0544859 0.190044 -0.343154 0 0 0 0 0 0 0 0 0 
26.982 1 265 24.5913 4.81102 4.79458 -7.00802 -11.8731 -2.9959 -0.696352 -0.243847 -0.552536 0 0 0 0 0 0 0 0 0 
26.982 1 67 26.262 4.91259 2.57131 -1.50292 -3.99107 1.73908 0.038114 0.208068 0.100859 0 0 0 0 0 0 0 0 0 
26.982 1 225 24.0398 1.75686 5.43498 2.13088 5.28666 -0.445272 0.7718 -0.192633 -0.020363 0 0 0 0 0 0 0 0 0 
26.982 1 226 26.7874 2.93498 4.75399 1.70918 0.847346 -0.663455 -0.1118 -0.176226 -0.188321 0 0 0 0 0 0 0 0 0 
26.982 1 32 30.3416 5.4617 2.38706 3.16743 4.51539 -2.78496 0.194419 0.0461404 0.427994 0 0 0 0 0 0 0 0 0 
26.982 1 269 28.5171 5.01247 4.61558 -1.56431 8.2282 2.01619 0.167149 0.51711 -0.366159 0 0 0 0 0 0 0 0 0 
26.982 1 27 28.6718 3.14234 2.39768 -1.7801 1.11869 4.4635 -0.174335 -0.0392896 0.333228 0 0 0 0 0 0 0 0 0 
26.982 1 230 30.6834 3.40665 4.22059 -0.342303 -2.3636 2.10855 0.0364009 -0.148153 1.14356 0 0 0 0 0 0 0 0 0 
26.982 1 273 32.4386 5.64613 4.25398 -4.03752 -7.33064 -1.45231 0.404201 -0.041979 -0.182038 0 0 0 0 0 0 0 0 0 
26.982 1 36 34.7493 3.75939 4.12346 -0.729976 -4.83746 -0.831913 0.28761 0.0942256 0.428641 0 0 0 0 0 0 0 0 0 
26.982 1 30 32.6294 3.52616 2.44991 1.69554 2.71479 -1.26823 0.226341 0.30613 -0.320725 0 0 0 0 0 0 0 0 0 
26.982 1 73 34.4323 5.82039 2.22448 3.3757 4.88705 -0.731693 0.184641 -0.260169 -0.224694 0 0 0 0 0 0 0 0 0 
26.982 1 33 34.8996 1.77613 2.09591 3.54399 -0.567995 0.180846 0.767481 -0.0550315 0.747847 0 0 0 0 0 0 0 0 0 
26.982 1 236 32.8996 3.53393 6.27148 -0.873479 -1.1101 1.11317 -0.150635 -0.315792 0.116934 0 0 0 0 0 0 0 0 0 
26.982 1 2837 38.8551 20.0948 15.7525 -3.58752 -4.74108 4.31317 0.232675 -0.289904 0.0289843 0 0 0 0 0 0 0 0 0 
26.982 1 34 36.609 4.14299 2.02461 -1.65098 -7.89074 -1.38774 0.106376 -0.381008 0.322182 0 0 0 0 0 0 0 0 0 
26.982 1 35 37.0182 2.08642 4.10014 3.67666 0.600457 0.0650225 -0.0423582 -0.322017 0.0975998 0 0 0 0 0 0 0 0 0 
26.982 1 77 38.6241 5.99131 2.02491 0.544751 -0.128739 -5.64128 -0.0215455 0.0460617 0.393711 0 0 0 0 0 0 0 0 0 
26.982 1 75 36.7089 6.04596 4.23319 -0.703308 3.26145 -0.816137 -0.253334 -0.31955 0.00285573 0 0 0 0 0 0 0 0 0 
26.982 1 234 36.9794 3.94806 6.26773 2.80338 -4.96544 -0.305414 -0.0222369 -0.025828 0.0690521 0 0 0 0 0 0 0 0 0 
26.982 1 40 38.701 4.13201 4.12097 -3.2199 4.45888 -2.59045 0.710246 0.146042 0.0465103 0 0 0 0 0 0 0 0 0 
26.982 1 237 38.9978 1.94012 6.32487 -4.44966 1.1844 7.2087 -0.0401538 0.98443 -0.649163 0 0 0 0 0 0 0 0 0 
26.982 1 37 38.9343 2.16871 2.10132 2.308 -4.80237 1.74354 0.401888 -0.0676364 -0.215175 0 0 0 0 0 0 0 0 0 
26.982 1 1 43.4842 2.77048 2.21511 1.65716 1.35235 2.22509 -0.289225 0.118459 -0.211054 0 0 0 0 0 0 0 0 0 
26.982 1 79 42.7892 4.66946 4.00164 0.274692 2.10302 -0.14092 0.449762 0.0126027 0.0814301 0 0 0 0 0 0 0 0 0 
26.982 1 39 40.9805 2.36389 4.20892 -2.74082 2.62958 1.00321 0.192192 0.106407 -0.0821159 0 0 0 0 0 0 0 0 0 
26.982 1 38 40.9788 4.15189 1.94664 -3.89874 4.91842 -2.21125 -0.356539 0.07153 0.184585 0 0 0 0 0 0 0 0 0 
26.982 1 43 -0.65297 6.51092 4.15268 3.02045 2.92995 -2.26029 -0.494204 -0.495563 -0.835856 0 0 0 0 0 0 0 0 0 
26.982 1 83 0.0323591 9.02878 4.37787 -2.4208 -4.3901 2.59244 -0.0260379 0.159391 -0.299848 0 0 0 0 0 0 0 0 0 
26.982 1 44 -3.11345 8.18231 3.20314 1.43954 -0.0516466 3.38239 0.984829 -0.084513 0.275904 0 0 0 0 0 0 0 0 0 
26.982 1 242 0.809046 6.64563 6.32875 -7.32103 6.15377 0.300799 0.377028 0.0616406 0.168778 0 0 0 0 0 0 0 0 0 
26.982 1 281 -2.18027 8.41453 5.83851 -0.230212 -1.96251 2.50487 0.169944 0.464291 0.465935 0 0 0 0 0 0 0 0 0 
26.982 1 48 2.41498 7.14207 4.14951 -3.36664 -3.20872 -3.78372 -0.324569 -0.763463 -0.37084 0 0 0 0 0 0 0 0 0 
26.982 1 285 2.20377 8.96545 6.30064 2.72892 -2.66041 -2.24493 0.112288 0.355861 0.147641 0 0 0 0 0 0 0 0 0 
26.982 1 87 4.98025 8.16646 3.61634 -0.491268 -2.79991 -1.0571 0.0185644 0.0942429 -0.868999 0 0 0 0 0 0 0 0 0 
26.982 1 246 4.39103 7.22286 6.10861 -5.64533 0.64677 -5.5384 0.483159 0.118033 0.63159 0 0 0 0 0 0 0 0 0 
26.982 1 88 2.52154 9.78361 3.55413 -4.77411 3.16107 0.501065 0.529371 0.553388 -0.0753733 0 0 0 0 0 0 0 0 0 
26.982 1 286 4.7391 10.052 5.48452 -0.264459 2.48138 -2.73382 -0.092369 0.430556 -0.0859674 0 0 0 0 0 0 0 0 0 
26.982 1 3037 39.4432 20.1861 19.8092 -0.206498 2.2281 2.16029 0.0988006 -0.785324 0.0117773 0 0 0 0 0 0 0 0 0 
26.982 1 289 7.06846 8.32282 5.37753 -3.10832 -1.60266 2.38105 -0.125876 0.690684 0.180638 0 0 0 0 0 0 0 0 0 
26.982 1 250 9.4183 6.85975 5.26017 -5.80592 1.4038 1.39903 0.213663 -0.409123 0.110644 0 0 0 0 0 0 0 0 0 
26.982 1 91 9.11572 8.8978 3.33745 3.55004 2.60151 -5.61574 -0.115041 -0.256449 -0.213916 0 0 0 0 0 0 0 0 0 
26.982 1 293 11.3827 8.90293 5.18712 4.04931 -0.809544 3.1425 -0.40721 -0.0278351 0.00990149 0 0 0 0 0 0 0 0 0 
26.982 1 56 11.2593 6.95036 3.1584 3.0788 1.31996 1.44474 0.214116 -0.132131 -0.250055 0 0 0 0 0 0 0 0 0 
26.982 1 95 13.0564 9.12919 2.90819 -0.280731 6.28123 -3.8491 0.526098 -0.114441 0.173934 0 0 0 0 0 0 0 0 0 
26.982 1 254 13.3957 6.85255 4.8852 0.738668 2.96885 4.76722 0.184928 0.397275 0.459193 0 0 0 0 0 0 0 0 0 
26.982 1 60 15.8434 6.7974 3.61812 -0.603401 3.98782 -3.58987 -0.122929 0.138757 -0.35623 0 0 0 0 0 0 0 0 0 
26.982 1 297 15.3907 9.16676 5.09902 4.61773 6.07067 -5.79356 -0.401746 -0.287473 -0.699901 0 0 0 0 0 0 0 0 0 
26.982 1 99 17.9268 9.14676 3.3288 6.04647 1.81968 0.526942 -0.480094 -0.376269 0.315047 0 0 0 0 0 0 0 0 0 
26.982 1 258 17.9213 7.04387 5.38752 1.32084 4.49267 -1.60425 -0.0033832 0.71567 -0.0727413 0 0 0 0 0 0 0 0 0 
26.982 1 64 19.8416 6.90675 3.20187 1.65855 -3.16945 -8.41563 0.233512 0.611458 -0.57429 0 0 0 0 0 0 0 0 0 
26.982 1 301 20.0129 9.03572 5.02533 3.09928 -0.0574058 3.20665 -0.0682185 -0.430151 0.71998 0 0 0 0 0 0 0 0 0 
26.982 1 103 21.884 8.91286 2.94634 -1.59627 3.71466 -5.9728 0.254567 0.0538226 0.0436853 0 0 0 0 0 0 0 0 0 
26.982 1 262 22.1729 6.97209 5.09621 0.616564 -4.30507 -1.16345 0.397925 -0.0462377 -0.37339 0 0 0 0 0 0 0 0 0 
26.982 1 302 21.9401 10.9136 4.95027 -1.64313 0.802176 1.52777 0.435408 -0.161895 -0.216965 0 0 0 0 0 0 0 0 0 
26.982 1 305 24.1967 8.88926 4.68116 2.80388 -3.36189 7.08955 -0.266197 0.000396861 0.497108 0 0 0 0 0 0 0 0 0 
26.982 1 68 23.8277 6.87647 2.677 -1.05936 6.03853 1.73374 0.796177 0.255057 0.360174 0 0 0 0 0 0 0 0 0 
26.982 1 108 23.9915 10.9695 2.87305 -6.25736 2.54194 0.284635 -0.203192 0.0159618 -0.0856083 0 0 0 0 0 0 0 0 0 
26.982 1 107 26.0889 9.14752 2.87353 3.01758 -0.511377 -4.59226 0.364514 -0.0740198 -0.511774 0 0 0 0 0 0 0 0 0 
26.982 1 266 26.3637 6.82872 4.73631 -1.03226 5.82698 2.29791 0.0083336 0.710501 -0.948304 0 0 0 0 0 0 0 0 0 
26.982 1 72 28.1639 7.30967 2.59607 -6.26221 1.2084 1.94407 0.371418 -0.262332 0.387652 0 0 0 0 0 0 0 0 0 
26.982 1 309 28.3127 9.24717 4.76246 1.41339 2.00405 -0.985087 -0.259662 0.256433 -0.347404 0 0 0 0 0 0 0 0 0 
26.982 1 112 28.2059 11.3039 2.53571 -2.58661 1.04036 2.49975 -0.272877 0.329876 1.21826 0 0 0 0 0 0 0 0 0 
26.982 1 111 30.3849 9.39588 2.52929 2.08499 -2.86682 -3.44023 -0.33422 -0.27441 -0.3756 0 0 0 0 0 0 0 0 0 
26.982 1 270 30.3638 7.48094 4.55839 0.370305 -3.95452 -1.59432 0.238759 -0.331414 -0.107442 0 0 0 0 0 0 0 0 0 
26.982 1 71 32.5706 7.74063 2.091 -5.90406 -1.01105 -0.489447 -0.478307 -0.321429 0.0569642 0 0 0 0 0 0 0 0 0 
26.982 1 76 34.4791 7.70244 4.17329 1.25335 -0.239021 -2.87568 0.00374294 -0.313193 0.356017 0 0 0 0 0 0 0 0 0 
26.982 1 313 32.7884 7.38651 6.3421 -1.77762 -4.83328 -5.36681 -0.743996 0.743926 0.0510249 0 0 0 0 0 0 0 0 0 
26.982 1 116 34.5221 9.78454 2.07141 -5.48105 -2.63604 2.69758 0.0464717 -0.142524 -0.152583 0 0 0 0 0 0 0 0 0 
26.982 1 310 32.5119 9.52381 4.12477 -1.4444 5.24608 4.15546 0.024356 0.0299546 0.692605 0 0 0 0 0 0 0 0 0 
26.982 1 115 38.4684 8.17874 3.98134 3.43719 -2.31812 -5.87 0.656488 -0.390192 -0.029917 0 0 0 0 0 0 0 0 0 
26.982 1 117 40.2905 8.26006 1.90742 5.83174 -5.62547 -6.11168 0.334665 0.117778 0.166243 0 0 0 0 0 0 0 0 0 
26.982 1 74 36.3158 7.83563 2.05871 -6.64802 -1.13431 4.43124 0.378917 -0.406688 -0.233775 0 0 0 0 0 0 0 0 0 
26.982 1 155 36.4137 9.56339 4.19543 1.05351 -3.08171 -1.88572 -0.290145 0.95147 -0.0651158 0 0 0 0 0 0 0 0 0 
26.982 1 314 36.5743 7.86567 6.36767 -0.697848 -2.07141 -3.9954 0.110521 -0.40661 -0.290783 0 0 0 0 0 0 0 0 0 
26.982 1 80 40.7329 6.40162 3.90484 -4.25796 -3.17455 -6.68162 -0.0401348 0.152587 0.10971 0 0 0 0 0 0 0 0 0 
26.982 1 317 40.876 9.24801 4.8452 2.68831 -0.984597 -2.36523 0.215722 -0.210645 -0.358826 0 0 0 0 0 0 0 0 0 
26.982 1 78 42.873 6.30351 1.62137 -6.70563 -5.23786 1.85567 -0.168414 -0.526752 1.70027 0 0 0 0 0 0 0 0 0 
26.982 1 119 42.7861 9.02583 2.60193 -0.0207296 -3.61327 -4.79396 -0.359004 -0.276054 0.0346302 0 0 0 0 0 0 0 0 0 
26.982 1 278 43.3222 7.23549 4.75832 0.780261 0.254614 -0.936168 -0.571645 0.295997 0.137132 0 0 0 0 0 0 0 0 0 
26.982 1 284 43.5324 10.0848 5.06953 0.592957 -0.360446 -2.03029 -0.872304 -0.038818 0.262281 0 0 0 0 0 0 0 0 0 
26.982 1 282 -2.43146 10.8155 4.41854 0.743901 -9.17849 -7.76656 0.792351 0.321265 -0.166093 0 0 0 0 0 0 0 0 0 
26.982 1 322 -2.03595 13.6894 3.70127 -1.3774 -5.25466 -8.62116 -0.210849 -0.110801 0.593466 0 0 0 0 0 0 0 0 0 
26.982 1 122 0.112661 13.7466 2.10323 -0.07913 -5.08632 -4.47641 -0.311487 0.377448 -0.683674 0 0 0 0 0 0 0 0 0 
26.982 1 325 0.00563562 11.8321 3.81618 -0.183537 -0.851688 1.53075 0.709714 -0.519921 0.569012 0 0 0 0 0 0 0 0 0 
26.982 1 328 0.0286812 14.0323 5.66913 -1.07006 -4.93604 0.512601 -0.127201 0.126389 -0.238576 0 0 0 0 0 0 0 0 0 
26.982 1 123 -1.71981 11.4445 1.75213 1.49615 1.04612 -1.11125 0.134244 -0.122561 -0.331665 0 0 0 0 0 0 0 0 0 
26.982 1 128 2.11552 14.2928 3.85199 2.02676 -0.763303 1.24234 -0.209574 0.024374 -0.0917799 0 0 0 0 0 0 0 0 0 
26.982 1 127 4.39113 12.3459 3.56118 -3.30204 3.42436 -1.62254 0.000992803 -0.277385 -0.391207 0 0 0 0 0 0 0 0 0 
26.982 1 326 4.25687 14.3016 5.41499 -0.0396724 2.3794 -0.922132 0.586988 -0.00391087 -0.188956 0 0 0 0 0 0 0 0 0 
26.982 1 125 2.22124 12.1179 1.89176 -0.683836 3.34807 -2.04811 0.480449 -0.42088 0.130152 0 0 0 0 0 0 0 0 0 
26.982 1 327 2.40857 11.9905 5.40208 6.94214 -2.60865 -3.04698 -0.181115 -0.219828 0.373223 0 0 0 0 0 0 0 0 0 
26.982 1 162 -0.83734 18.2911 1.5052 2.35917 -4.13733 -0.11288 -0.783942 -0.192435 -0.510413 0 0 0 0 0 0 0 0 0 
26.982 1 290 8.87377 10.9242 5.18451 -0.55597 3.36651 3.40711 -0.253638 -0.546982 0.319376 0 0 0 0 0 0 0 0 0 
26.982 1 92 6.88122 10.4975 3.22676 -3.34642 -1.50609 0.710678 -0.543194 -0.0126569 0.526265 0 0 0 0 0 0 0 0 0 
26.982 1 329 6.35443 12.3778 5.34504 7.21719 -2.54399 -5.40306 0.503928 0.701395 -0.399983 0 0 0 0 0 0 0 0 0 
26.982 1 132 6.01852 14.6755 3.0823 4.03619 2.23753 0.834728 0.224645 -0.118627 0.444387 0 0 0 0 0 0 0 0 0 
26.982 1 131 8.57007 12.8132 3.10278 -1.72456 -10.3801 -2.37407 -0.384763 0.42823 0.138031 0 0 0 0 0 0 0 0 0 
26.982 1 330 8.22367 14.6917 5.15351 -1.98946 2.7148 -1.48708 -0.239487 0.364515 -0.255628 0 0 0 0 0 0 0 0 0 
26.982 1 294 13.0537 11.0047 4.9888 1.51874 2.66503 -1.78396 -0.236399 -0.111091 0.033241 0 0 0 0 0 0 0 0 0 
26.982 1 96 10.7875 11.0853 3.27895 -2.61112 -0.939716 2.35748 0.140818 -0.246759 -0.442028 0 0 0 0 0 0 0 0 0 
26.982 1 333 10.488 13.0829 5.26162 4.19608 3.19962 6.51242 0.679034 0.213434 -0.454563 0 0 0 0 0 0 0 0 0 
26.982 1 135 12.4925 13.1746 2.98472 1.93893 5.18309 1.9021 0.196886 0.208116 -0.24317 0 0 0 0 0 0 0 0 0 
26.982 1 136 10.2618 15.1544 2.84155 3.38317 -2.55893 0.184585 -0.488161 -0.324798 0.315554 0 0 0 0 0 0 0 0 0 
26.982 1 334 12.1909 15.2181 4.79525 1.73083 7.63713 6.9024 0.227449 0.152865 0.549869 0 0 0 0 0 0 0 0 0 
26.982 1 100 14.7796 11.4816 2.70111 1.31192 0.0282191 0.315654 -0.62701 -0.780076 0.0408198 0 0 0 0 0 0 0 0 0 
26.982 1 337 14.6164 13.0959 5.10505 6.73132 3.26173 4.58294 0.0962602 0.53031 -0.262157 0 0 0 0 0 0 0 0 0 
26.982 1 139 15.8607 13.8688 2.66988 0.0399317 4.23799 5.26309 0.437519 0.59628 0.029079 0 0 0 0 0 0 0 0 0 
26.982 1 298 17.025 11.7056 4.2484 -0.120532 0.833512 7.16918 0.078274 0.109117 0.785824 0 0 0 0 0 0 0 0 0 
26.982 1 338 16.685 14.8191 5.15719 6.07402 -1.33374 3.55216 -0.0825013 0.0141239 0.435193 0 0 0 0 0 0 0 0 0 
26.982 1 140 13.7027 15.7355 2.44352 1.66073 0.51369 6.45335 0.0254659 -0.439009 0.767987 0 0 0 0 0 0 0 0 0 
26.982 1 104 19.9244 11.041 3.06709 -1.54051 -0.553407 1.42483 -0.588883 0.0914001 0.0447332 0 0 0 0 0 0 0 0 0 
26.982 1 341 18.8424 13.8143 3.41481 -4.51744 4.08411 -0.423792 0.198892 -0.171476 0.23044 0 0 0 0 0 0 0 0 0 
26.982 1 304 19.3684 11.8983 5.76201 7.00772 1.89976 0.589622 -0.144868 0.283819 -0.129837 0 0 0 0 0 0 0 0 0 
26.982 1 143 21.8239 12.9863 3.00819 7.71146 1.43396 3.83706 -0.0898299 0.362458 -0.0116602 0 0 0 0 0 0 0 0 0 
26.982 1 342 21.065 14.5512 5.26638 -4.66468 4.75838 3.61965 0.163576 -0.464173 0.442719 0 0 0 0 0 0 0 0 0 
26.982 1 306 25.9934 11.2788 4.77264 1.08912 2.95013 8.3692 0.633231 -0.764532 -0.430789 0 0 0 0 0 0 0 0 0 
26.982 1 148 23.765 15.2686 3.06692 2.10099 -3.97421 -1.44563 -1.06806 -0.794616 0.184261 0 0 0 0 0 0 0 0 0 
26.982 1 345 23.8766 12.9055 5.01567 1.82046 2.35334 2.6152 -0.294539 0.523255 -0.112551 0 0 0 0 0 0 0 0 0 
26.982 1 147 25.9599 13.1246 2.62494 -6.81421 -2.31052 1.03251 -0.185801 0.00757865 0.0730447 0 0 0 0 0 0 0 0 0 
26.982 1 385 25.8556 14.9787 4.62794 2.15001 -2.3684 0.288507 0.212389 0.594242 0.355754 0 0 0 0 0 0 0 0 0 
26.982 1 346 28.0913 13.4446 4.56662 3.17281 -0.119446 8.05974 0.450726 -0.426335 -0.5557 0 0 0 0 0 0 0 0 0 
26.982 1 152 30.0337 13.6975 2.2462 -5.60275 1.26252 7.72949 0.135622 -0.396527 0.487292 0 0 0 0 0 0 0 0 0 
26.982 1 349 30.4762 11.3655 4.34607 -3.88206 3.66877 2.84785 -0.619082 0.862148 -0.225645 0 0 0 0 0 0 0 0 0 
26.982 1 187 27.6249 15.3356 2.33614 -2.2739 0.945538 3.16919 0.5009 -0.0140168 0.099298 0 0 0 0 0 0 0 0 0 
26.982 1 389 30.2194 15.3514 4.3868 -1.42515 2.56685 3.00109 -0.357826 0.123472 -0.479888 0 0 0 0 0 0 0 0 0 
26.982 1 151 32.4958 11.4617 2.13116 -5.56447 0.952799 3.7006 -0.94058 0.507447 0.463733 0 0 0 0 0 0 0 0 0 
26.982 1 350 32.3092 13.4684 4.17859 2.32935 5.34314 -4.91197 -0.0385552 0.291343 -0.220395 0 0 0 0 0 0 0 0 0 
26.982 1 156 34.4063 13.3569 1.9649 -4.55748 0.173848 11.9737 0.186342 0.0798819 0.236975 0 0 0 0 0 0 0 0 0 
26.982 1 353 34.4832 11.5762 4.12329 6.52867 3.82043 1.71131 0.199436 0.31601 0.303673 0 0 0 0 0 0 0 0 0 
26.982 1 433 33.3506 1.48725 8.58112 -1.96896 1.68531 1.77019 -0.775474 0.151514 -0.336171 0 0 0 0 0 0 0 0 0 
26.982 1 114 36.7505 11.5654 1.97731 -0.367161 -0.314928 0.522286 0.156309 -0.090794 -0.186161 0 0 0 0 0 0 0 0 0 
26.982 1 354 36.7821 13.4393 3.95239 1.13509 -1.07877 2.63458 -0.820367 0.365367 -0.17576 0 0 0 0 0 0 0 0 0 
26.982 1 160 39.0016 14.9504 3.13551 0.833304 10.8914 -1.76362 0.257073 0.0375516 -0.184576 0 0 0 0 0 0 0 0 0 
26.982 1 357 38.6384 11.322 4.36421 -0.432382 -1.42805 -5.63047 -0.0605518 -0.302553 -0.56618 0 0 0 0 0 0 0 0 0 
26.982 1 360 38.7353 13.8712 5.6568 0.601209 -3.26907 -5.23424 -0.336946 0.155332 0.0803902 0 0 0 0 0 0 0 0 0 
26.982 1 126 3.70929 14.3832 1.54535 0.8144 4.19934 -4.37907 -0.0164362 0.0103478 -0.178615 0 0 0 0 0 0 0 0 0 
26.982 1 124 44.3624 13.9223 1.7927 4.15421 0.323943 2.32071 -0.139137 0.246466 -0.455518 0 0 0 0 0 0 0 0 0 
26.982 1 120 40.8812 10.8784 2.8235 -3.72724 -6.17401 4.15643 -0.270462 0.293897 -0.289917 0 0 0 0 0 0 0 0 0 
26.982 1 84 43.8249 11.4855 2.59432 -10.9292 -0.667938 -2.34706 0.0186122 -0.410525 -0.131571 0 0 0 0 0 0 0 0 0 
26.982 1 318 41.035 12.2416 5.24216 5.18348 -0.104733 -1.63179 0.204365 -0.202705 0.276699 0 0 0 0 0 0 0 0 0 
26.982 1 321 43.6161 13.0846 4.74936 -4.96629 -8.19773 5.11127 0.125348 -0.07317 -0.117652 0 0 0 0 0 0 0 0 0 
26.982 1 159 41.7664 13.5076 2.7304 3.20957 1.34579 1.97365 -0.0314627 0.138279 0.234552 0 0 0 0 0 0 0 0 0 
26.982 1 358 41.2574 15.0244 4.90673 2.06933 -1.35306 -7.6857 0.241337 0.396436 -0.1354 0 0 0 0 0 0 0 0 0 
26.982 1 161 -1.96403 15.8237 2.07723 -0.958488 5.19934 -0.531381 0.375049 0.150146 -0.043793 0 0 0 0 0 0 0 0 0 
26.982 1 1198 41.5101 18.1792 19.7793 2.27667 -0.381486 0.430985 -0.0549471 0.13814 -0.450443 0 0 0 0 0 0 0 0 0 
26.982 1 163 -2.82736 18.3345 3.50856 -5.27554 0.825092 4.50783 0.489952 -0.0259005 -0.344866 0 0 0 0 0 0 0 0 0 
26.982 1 362 -0.799356 18.7877 5.54041 -0.655212 -2.77484 2.39776 0.383912 0.119131 -0.177762 0 0 0 0 0 0 0 0 0 
26.982 1 2637 38.5091 20.1611 11.4922 -5.21743 3.21711 -6.66375 0.285171 0.0613453 0.0473664 0 0 0 0 0 0 0 0 0 
26.982 1 363 -1.97345 16.5078 5.43861 2.0539 3.43346 8.2345 -0.0177375 -1.49652 -0.314114 0 0 0 0 0 0 0 0 0 
26.982 1 2801 43.1973 20.2735 15.247 4.98942 3.53995 5.69455 -0.157976 0.457674 0.667015 0 0 0 0 0 0 0 0 0 
26.982 1 165 1.03392 16.2499 1.82041 -0.294528 -0.696097 -2.74764 0.221599 0.346938 -0.0408656 0 0 0 0 0 0 0 0 0 
26.982 1 365 1.15625 16.6886 5.07247 0.984948 3.99425 -0.66242 -0.285109 -0.535438 0.394658 0 0 0 0 0 0 0 0 0 
26.982 1 168 1.0404 18.7172 3.29567 0.240347 3.71398 -2.12395 0.6727 -0.0088208 0.311319 0 0 0 0 0 0 0 0 0 
26.982 1 167 3.43392 16.7529 3.36084 1.18976 -3.03728 -1.51504 0.205415 -0.410509 0.1995 0 0 0 0 0 0 0 0 0 
26.982 1 366 3.12186 18.767 5.30796 -3.15581 -2.25924 -0.0753549 0.600156 -0.0198269 -0.185296 0 0 0 0 0 0 0 0 0 
26.982 1 369 5.79565 16.6413 5.24525 -0.265409 -2.0119 5.4513 0.730291 0.174734 -0.468611 0 0 0 0 0 0 0 0 0 
26.982 1 172 5.4273 18.7548 3.34523 -1.75033 1.00338 -2.21546 -0.0198077 -0.308328 0.112161 0 0 0 0 0 0 0 0 0 
26.982 1 171 7.81278 16.769 2.99849 0.991044 -3.30368 -4.40038 -0.120016 0.268823 0.265882 0 0 0 0 0 0 0 0 0 
26.982 1 370 7.61972 18.7999 5.28026 -3.51346 6.02191 4.65529 0.00100374 0.0490857 -0.274095 0 0 0 0 0 0 0 0 0 
26.982 1 176 9.50085 19.1415 3.22765 0.20077 -3.31913 -1.86739 -0.522872 -0.479687 -0.263631 0 0 0 0 0 0 0 0 0 
26.982 1 373 9.93992 16.9457 5.12862 6.88756 2.3341 -6.69262 0.102152 0.312417 0.00647736 0 0 0 0 0 0 0 0 0 
26.982 1 175 11.7254 17.574 2.83077 4.90568 0.137486 -4.08051 -0.225344 -0.117344 0.22103 0 0 0 0 0 0 0 0 0 
26.982 1 374 11.7285 19.3399 5.14319 -3.76808 9.83821 -1.5744 -0.144955 0.0778502 0.296177 0 0 0 0 0 0 0 0 0 
26.982 1 377 13.9112 17.4158 4.81651 -1.86173 -6.88537 3.24861 -0.504553 0.233674 0.26088 0 0 0 0 0 0 0 0 0 
26.982 1 179 17.616 16.2732 3.21904 2.2054 5.2741 2.31998 0.155458 0.384709 -0.58216 0 0 0 0 0 0 0 0 0 
26.982 1 178 15.5898 17.9197 2.80481 4.39359 0.416795 -0.201776 0.0159273 0.433547 -0.369379 0 0 0 0 0 0 0 0 0 
26.982 1 180 13.4582 19.7754 2.85743 -0.636708 4.55547 -3.06728 -0.140837 -0.253593 0.337266 0 0 0 0 0 0 0 0 0 
26.982 1 379 16.2994 17.4169 6.15151 -4.79476 4.01206 8.5439 0.146674 0.281867 0.319708 0 0 0 0 0 0 0 0 0 
26.982 1 2217 15.5022 19.9733 4.94256 -9.30643 -0.286113 4.23591 -0.56579 -0.365024 0.0431 0 0 0 0 0 0 0 0 0 
26.982 1 2219 17.2198 20.2159 7.04706 -0.929892 3.13901 2.50676 0.0439209 0.00290605 0.101826 0 0 0 0 0 0 0 0 0 
26.982 1 378 19.3626 18.4287 3.42623 -3.73512 1.47929 -3.49102 0.0866667 0.506731 0.201135 0 0 0 0 0 0 0 0 0 
26.982 1 381 18.9403 16.4129 5.52106 0.930259 -5.36168 6.07122 0.262319 -0.222408 -0.0351965 0 0 0 0 0 0 0 0 0 
26.982 1 1078 42.61 6.53269 19.245 -0.650617 -5.89693 -4.97285 0.593214 0.140671 -0.62799 0 0 0 0 0 0 0 0 0 
26.982 1 382 22.5201 18.5321 3.95002 9.25406 -4.22841 -4.0062 0.324144 -0.295492 -0.198065 0 0 0 0 0 0 0 0 0 
26.982 1 1066 26.8159 6.96301 20.1348 -2.60841 4.11727 -3.68506 -0.177829 0.466504 0.363074 0 0 0 0 0 0 0 0 0 
26.982 1 183 21.095 16.2698 3.24049 -6.64327 0.135389 2.50913 0.0125017 -0.137866 -0.0641783 0 0 0 0 0 0 0 0 0 
26.982 1 188 25.4633 17.149 2.58765 -3.98789 4.07973 1.47618 0.280695 0.464018 0.59903 0 0 0 0 0 0 0 0 0 
26.982 1 383 21.8602 17.0507 6.36152 2.77587 3.5367 -5.78993 -0.488855 -0.527737 -0.600644 0 0 0 0 0 0 0 0 0 
26.982 1 2225 25.6122 19.0981 4.60076 -1.34535 -4.80863 -7.521 -0.466101 0.0189047 0.17626 0 0 0 0 0 0 0 0 0 
26.982 1 2835 36.9451 19.8482 17.9072 -1.67055 5.91846 4.56878 0.0083857 0.173658 -0.0226824 0 0 0 0 0 0 0 0 0 
26.982 1 2229 30.0192 19.4862 3.98106 -0.388443 1.41666 -2.54078 -0.76399 -0.329035 0.723208 0 0 0 0 0 0 0 0 0 
26.982 1 386 27.8908 17.2242 4.35752 -5.58707 1.01971 -2.85691 -0.110768 -0.218893 0.319564 0 0 0 0 0 0 0 0 0 
26.982 1 192 29.7806 17.4102 2.13819 -9.67821 -4.3297 3.60077 0.0768422 -0.54331 0.210198 0 0 0 0 0 0 0 0 0 
26.982 1 2027 27.3756 19.2029 2.6233 -1.25774 -4.15415 4.16745 0.749123 0.284862 -0.392343 0 0 0 0 0 0 0 0 0 
26.982 1 2031 31.7863 19.601 2.01869 -1.97311 5.90365 0.150545 0.236705 -0.277745 0.0215029 0 0 0 0 0 0 0 0 0 
26.982 1 191 32.0193 15.5156 1.86484 -0.868167 -0.658213 -2.24749 0.127327 0.00836344 0.634094 0 0 0 0 0 0 0 0 0 
26.982 1 390 32.0247 17.5139 4.06284 -2.56603 0.694607 -0.27485 0.529139 0.0565212 -0.319498 0 0 0 0 0 0 0 0 0 
26.982 1 393 34.3831 15.4232 3.70192 -0.504935 0.975198 1.19672 -0.105702 0.221404 0.364595 0 0 0 0 0 0 0 0 0 
26.982 1 196 34.4138 17.896 2.48572 -2.02411 -2.2524 -1.83061 -0.376835 -0.170215 0.0204012 0 0 0 0 0 0 0 0 0 
26.982 1 2233 34.2324 20.0345 4.13803 2.25753 2.35662 -0.730892 -0.499037 -0.198897 0.522386 0 0 0 0 0 0 0 0 0 
26.982 1 195 36.9352 16.7492 3.06878 2.76661 -1.76296 1.89081 -0.537132 -1.03631 -0.635376 0 0 0 0 0 0 0 0 0 
26.982 1 394 36.7353 18.6847 4.77268 -2.80473 0.900572 1.41952 -0.440974 0.124324 0.144959 0 0 0 0 0 0 0 0 0 
26.982 1 397 39.2908 17.0384 4.90788 0.696553 1.45141 -3.69821 0.207336 -0.469564 -0.1608 0 0 0 0 0 0 0 0 0 
26.982 1 200 38.8004 18.504 2.66423 -3.46297 -1.39995 0.753078 0.443615 0.434191 -0.251721 0 0 0 0 0 0 0 0 0 
26.982 1 2639 40.8364 20.1463 13.4707 0.955882 2.38119 2.11986 -0.204017 0.0955977 -0.290028 0 0 0 0 0 0 0 0 0 
26.982 1 1117 40.3678 8.04206 19.8608 1.2147 -4.25377 0.290049 -0.365498 0.280325 0.00345023 0 0 0 0 0 0 0 0 0 
26.982 1 996 35.1052 17.7166 17.8985 5.11946 -4.12647 -4.21225 -0.353659 -0.095738 0.341766 0 0 0 0 0 0 0 0 0 
26.982 1 361 43.9934 15.7078 4.07622 2.69716 -1.55878 -2.42871 -0.149476 0.47615 -0.3142 0 0 0 0 0 0 0 0 0 
26.982 1 164 42.9127 18.536 3.44302 -2.37138 2.12759 -4.47953 0.131217 -0.619069 0.648567 0 0 0 0 0 0 0 0 0 
26.982 1 398 41.2575 16.3502 2.30362 2.65674 -1.30266 0.896706 0.0556129 0.0929044 0.206269 0 0 0 0 0 0 0 0 0 
26.982 1 364 43.9194 18.1098 5.91631 0.651295 -2.47177 1.74439 0.00888254 -0.528762 -0.147433 0 0 0 0 0 0 0 0 0 
26.982 1 2239 41.5601 19.4483 5.89588 0.119157 4.3942 -1.04531 -0.410953 0.172074 0.136667 0 0 0 0 0 0 0 0 0 
26.982 1 203 -0.428488 2.27185 7.65827 0.244326 -0.550865 3.56045 -0.713873 -0.668426 0.230399 0 0 0 0 0 0 0 0 0 
26.982 1 243 0.976222 4.44831 8.10411 -0.717734 -2.88273 0.981425 0.860459 0.40072 0.212008 0 0 0 0 0 0 0 0 0 
26.982 1 401 -2.79576 2.12415 9.77831 2.28889 4.3776 -1.11648 0.538137 -0.117051 -0.590158 0 0 0 0 0 0 0 0 0 
26.982 1 441 -1.07024 4.13253 10.0331 1.97018 -8.63765 -1.48893 0.38324 0.335111 0.459051 0 0 0 0 0 0 0 0 0 
26.982 1 204 -2.71796 4.19829 7.73159 -3.10109 -0.388985 -0.199251 -0.282108 -0.656778 0.150883 0 0 0 0 0 0 0 0 0 
26.982 1 402 1.45269 2.29414 9.70094 -1.41907 4.13755 2.99012 0.261725 0.214338 0.0443245 0 0 0 0 0 0 0 0 0 
26.982 1 208 3.20987 2.52979 7.55452 -7.2024 -1.85658 1.43474 0.218221 0.0838747 -0.0843847 0 0 0 0 0 0 0 0 0 
26.982 1 445 3.46567 4.53568 9.69428 2.22456 1.69588 0.73021 -0.27668 -0.87151 0.390179 0 0 0 0 0 0 0 0 0 
26.982 1 247 5.35331 4.65547 7.41217 0.287987 1.91338 -2.1559 -0.20207 0.19234 -0.267301 0 0 0 0 0 0 0 0 0 
26.982 1 406 5.39584 2.44273 9.3545 -0.297006 -2.42049 -3.42188 0.134567 0.0488786 0.294868 0 0 0 0 0 0 0 0 0 
26.982 1 212 7.26144 2.56287 7.36631 1.00947 0.567064 1.9006 -0.0366713 -0.143461 -0.343372 0 0 0 0 0 0 0 0 0 
26.982 1 449 7.52132 4.51732 9.33452 4.36519 -1.54819 -2.40093 -0.128799 0.00757564 -0.124976 0 0 0 0 0 0 0 0 0 
26.982 1 251 9.56153 4.60132 7.17572 1.02701 -7.0263 -3.40834 -0.134119 0.335933 0.377268 0 0 0 0 0 0 0 0 0 
26.982 1 410 9.44463 2.51954 9.17509 -4.66181 -3.92305 1.94476 0.244008 0.198761 -0.311683 0 0 0 0 0 0 0 0 0 
26.982 1 453 11.5049 4.57482 9.09566 1.92926 -1.67638 2.54542 0.311052 0.319995 -0.226739 0 0 0 0 0 0 0 0 0 
26.982 1 216 11.5448 2.6209 7.13728 -3.36835 0.623606 -3.1604 -0.0279012 -0.0161508 -0.434569 0 0 0 0 0 0 0 0 0 
26.982 1 255 13.5595 4.7851 6.91434 5.73526 -9.97445 -4.47353 0.125128 -0.0844425 0.408103 0 0 0 0 0 0 0 0 0 
26.982 1 414 13.5723 2.68688 9.02994 -5.78514 3.61872 -2.34845 0.890559 0.0323351 -0.437498 0 0 0 0 0 0 0 0 0 
26.982 1 416 11.8947 2.65984 11.0195 0.481538 -3.20064 0.728323 -0.607469 -0.209424 0.707793 0 0 0 0 0 0 0 0 0 
26.982 1 457 15.5073 4.74598 9.02522 2.53738 -4.24232 1.66345 0.522948 0.201952 -0.121741 0 0 0 0 0 0 0 0 0 
26.982 1 220 15.6031 2.73683 7.04747 6.58394 -1.38041 -1.168 -0.0533812 -0.441422 0.130295 0 0 0 0 0 0 0 0 0 
26.982 1 418 17.724 2.8695 8.68873 5.05036 3.00429 1.72346 0.339665 -0.18401 0.430459 0 0 0 0 0 0 0 0 0 
26.982 1 459 17.7738 4.92244 10.9175 -1.38737 0.840416 3.77314 0.126607 -0.0452134 -0.0608701 0 0 0 0 0 0 0 0 0 
26.982 1 259 17.6736 4.99978 6.93664 0.322144 2.07298 -0.723998 0.205018 -0.835827 -0.0769431 0 0 0 0 0 0 0 0 0 
26.982 1 224 19.8253 2.84245 6.71278 -2.61885 1.62526 4.97357 0.2506 0.196532 0.30354 0 0 0 0 0 0 0 0 0 
26.982 1 461 19.6988 4.76818 8.70404 0.948472 -2.45172 5.92971 0.0702763 -0.108502 0.10207 0 0 0 0 0 0 0 0 0 
26.982 1 422 21.9799 3.04493 8.62838 -4.63991 1.84255 -2.30181 -1.09651 0.144075 -0.144057 0 0 0 0 0 0 0 0 0 
26.982 1 463 21.7526 5.03803 10.601 9.26317 -6.02157 -0.542027 0.429043 0.451994 -0.155853 0 0 0 0 0 0 0 0 0 
26.982 1 424 19.9013 2.82212 10.6733 -4.95334 4.67773 2.33076 -0.174706 0.661065 0.664994 0 0 0 0 0 0 0 0 0 
26.982 1 263 22.0668 5.732 7.56426 -6.76021 -2.20878 5.81298 0.35873 -0.194784 -0.0484672 0 0 0 0 0 0 0 0 0 
26.982 1 228 24.0329 3.83095 7.23248 2.44391 2.97494 1.35286 0.643817 0.224266 0.337684 0 0 0 0 0 0 0 0 0 
26.982 1 465 24.3346 6.01183 9.42604 3.63896 -2.33533 -3.04463 -0.853373 -0.0922438 0.27721 0 0 0 0 0 0 0 0 0 
26.982 1 227 26.3829 2.07497 7.36472 6.67312 -4.41418 1.71197 -0.24887 0.25355 0.406178 0 0 0 0 0 0 0 0 0 
26.982 1 426 26.4175 4.37129 9.45147 -2.20715 -3.52723 1.22037 -0.218329 -0.981882 0.00100359 0 0 0 0 0 0 0 0 0 
26.982 1 428 23.92 3.21043 10.4439 -0.691531 -5.63243 -1.73422 0.501103 0.258668 0.215487 0 0 0 0 0 0 0 0 0 
26.982 1 1006 4.60002 2.31062 19.8078 2.79843 3.18489 1.02931 -0.291064 -0.0549283 0.212825 0 0 0 0 0 0 0 0 0 