ITEM: TIMESTEP
6350
ITEM: NUMBER OF ATOMS
4000
ITEM: BOX BOUNDS pp pp pp
-1.36478 41.8648
0.359461 40.1405
0.357616 40.1424
ITEM: ATOMS mass type id x y z vx vy vz fx fy fz xrad yrad zrad vxrad vyrad vzrad fxrad fyrad fzrad 
26.982 1 3 0.953497 0.246836 2.30256 0.915055 -5.18795 0.486596 -0.513584 0.483978 0.327663 0 0 0 0 0 0 0 0 0 
26.982 1 8 3.24547 2.37806 2.33263 -0.809435 3.02386 -2.63168 -0.689426 -0.0222381 0.0874674 0 0 0 0 0 0 0 0 0 
26.982 1 43 0.873949 4.33668 2.34192 1.44664 2.95614 -0.0869535 -0.240133 -0.0363971 0.203037 0 0 0 0 0 0 0 0 0 
26.982 1 202 0.831244 2.27566 4.26142 -1.89156 -1.42395 -1.67992 0.309762 0.28807 -0.33066 0 0 0 0 0 0 0 0 0 
26.982 1 201 -1.3261 0.547657 4.45839 3.97864 -2.27149 -3.25869 -0.195158 -0.61774 -0.25512 0 0 0 0 0 0 0 0 0 
26.982 1 245 2.99584 4.29818 4.36875 -0.759392 1.47103 -3.79874 0.208669 -0.064115 0.19409 0 0 0 0 0 0 0 0 0 
26.982 1 241 -1.33211 4.30699 4.3595 0.782058 4.74944 -2.57664 -0.0979354 -0.264502 0.0221196 0 0 0 0 0 0 0 0 0 
26.982 1 205 3.06171 0.283539 4.25251 -1.08263 5.39776 -1.96096 -0.216017 0.212381 0.577178 0 0 0 0 0 0 0 0 0 
26.982 1 47 5.08825 4.44049 2.36511 0.0364256 1.70581 1.77885 0.13981 -0.194719 -0.0749643 0 0 0 0 0 0 0 0 0 
26.982 1 206 5.16977 2.15783 4.38579 -0.660462 -8.29246 0.724345 -0.391937 1.0359 -0.2031 0 0 0 0 0 0 0 0 0 
26.982 1 249 7.14971 4.31804 4.36174 3.18159 -0.2397 -0.323821 0.503335 -0.0504673 -0.273481 0 0 0 0 0 0 0 0 0 
26.982 1 209 7.25271 0.539508 4.38825 1.17873 2.28913 1.7852 0.513186 -0.877497 -0.136495 0 0 0 0 0 0 0 0 0 
26.982 1 7 5.14416 0.249424 2.44623 4.05117 -1.13292 4.14608 0.113061 -0.088495 -0.486212 0 0 0 0 0 0 0 0 0 
26.982 1 6 5.10567 2.33991 0.340144 0.740897 5.0931 -0.418082 -0.128397 -0.0992863 -0.171727 0 0 0 0 0 0 0 0 0 
26.982 1 49 7.27274 4.25704 0.452853 3.0002 10.1132 2.95212 -0.156735 0.495152 -0.0351307 0 0 0 0 0 0 0 0 0 
26.982 1 12 7.09975 2.30438 2.37141 -3.12389 -4.60554 1.71103 0.354381 0.293634 -0.111113 0 0 0 0 0 0 0 0 0 
26.982 1 51 9.4483 4.43743 2.32369 1.90398 5.28842 1.2521 -0.119105 -0.184867 0.324148 0 0 0 0 0 0 0 0 0 
26.982 1 210 9.50168 2.38864 4.26031 0.747576 1.66287 -3.12024 -0.383612 0.30802 0.196539 0 0 0 0 0 0 0 0 0 
26.982 1 11 9.44513 0.532159 2.30276 -3.16703 -1.64875 -0.0397264 -0.0526048 -0.374399 -0.0743639 0 0 0 0 0 0 0 0 0 
26.982 1 16 11.4726 2.51386 2.27088 -1.29522 1.31321 2.47865 0.587792 -0.227241 0.119218 0 0 0 0 0 0 0 0 0 
26.982 1 253 11.5659 4.43782 4.43507 -1.2882 1.56922 4.40827 0.310161 -0.108214 -0.532759 0 0 0 0 0 0 0 0 0 
26.982 1 55 13.8356 4.42076 2.36138 0.939616 4.24923 -1.21674 -0.085825 -0.281625 0.0280224 0 0 0 0 0 0 0 0 0 
26.982 1 214 13.8446 2.26621 4.34226 2.26165 -2.23852 -2.36498 -0.486576 0.668151 0.117163 0 0 0 0 0 0 0 0 0 
26.982 1 257 15.9261 4.4493 4.36702 1.81469 -3.85292 2.70796 0.189379 0.114807 -0.144604 0 0 0 0 0 0 0 0 0 
26.982 1 213 11.6167 0.410599 4.17232 -2.41668 -2.85083 -4.05768 0.260085 0.140035 0.167972 0 0 0 0 0 0 0 0 0 
26.982 1 20 15.879 2.32019 2.51505 -6.20111 1.24137 -3.05371 0.406082 0.301014 -0.815363 0 0 0 0 0 0 0 0 0 
26.982 1 218 18.1549 2.48844 4.31675 -5.01127 1.44199 0.557544 -0.0405247 -0.13615 0.0268088 0 0 0 0 0 0 0 0 0 
26.982 1 59 18.0636 4.32879 2.32218 2.20091 -1.79141 -2.65473 0.343071 0.408374 0.352324 0 0 0 0 0 0 0 0 0 
26.982 1 217 16.0485 0.468567 4.42987 2.39429 -3.64786 4.40148 0.0893314 -0.202516 0.0870437 0 0 0 0 0 0 0 0 0 
26.982 1 19 18.056 0.273828 2.3191 -1.69226 -2.08594 0.241972 0.230711 0.52817 0.129452 0 0 0 0 0 0 0 0 0 
26.982 1 57 16.1323 4.49855 0.469501 -3.43901 -3.44561 -0.75301 -0.673833 -0.769262 -0.612108 0 0 0 0 0 0 0 0 0 
26.982 1 21 20.0727 0.361677 0.400224 3.25038 1.77897 3.38796 0.499659 -0.0974909 0.0128374 0 0 0 0 0 0 0 0 0 
26.982 1 261 20.3317 4.43203 4.42319 0.284111 -0.949527 3.27581 -0.057877 -0.297771 -0.57314 0 0 0 0 0 0 0 0 0 
26.982 1 24 20.3488 2.41494 2.25251 1.30112 2.71786 0.258991 0.0105441 0.00103364 0.485234 0 0 0 0 0 0 0 0 0 
26.982 1 63 22.6404 4.37517 2.36876 -2.26407 1.51079 -3.98624 -0.714377 -0.297906 -0.187914 0 0 0 0 0 0 0 0 0 
26.982 1 222 22.5096 2.36954 4.3679 -2.57008 -0.212401 3.39474 -0.215295 -0.0130145 -0.190719 0 0 0 0 0 0 0 0 0 
26.982 1 28 24.499 2.29521 2.37391 0.347314 -0.171184 -2.56327 0.700082 0.0492839 0.0770709 0 0 0 0 0 0 0 0 0 
26.982 1 61 20.279 4.43657 0.382492 -5.58483 1.94226 -1.92677 0.23484 -0.256739 -0.442224 0 0 0 0 0 0 0 0 0 
26.982 1 22 22.5206 2.31269 0.388003 6.22711 -0.928566 -2.91564 -0.186617 0.0489722 -0.232786 0 0 0 0 0 0 0 0 0 
26.982 1 265 24.6469 4.30125 4.4453 4.49282 -9.41347 -1.16761 -0.00775467 0.133484 -0.478563 0 0 0 0 0 0 0 0 0 
26.982 1 67 26.7675 4.4351 2.31583 -5.69484 -2.6783 -1.51217 0.0164347 -0.267152 0.121933 0 0 0 0 0 0 0 0 0 
26.982 1 226 26.8451 2.32217 4.1676 -4.22389 -6.44794 -3.97705 -0.239588 0.160248 0.61405 0 0 0 0 0 0 0 0 0 
26.982 1 32 28.9952 2.31984 2.42765 1.88645 4.26382 0.488142 -0.325589 0.146994 -0.367 0 0 0 0 0 0 0 0 0 
26.982 1 269 28.8809 4.43363 4.39714 -2.67506 0.659574 2.21823 -0.142387 -0.12066 -0.36818 0 0 0 0 0 0 0 0 0 
26.982 1 27 26.6901 0.439998 2.25758 -1.58334 1.75422 2.59692 0.0893494 -0.631634 0.22861 0 0 0 0 0 0 0 0 0 
26.982 1 26 26.771 2.28971 0.33512 -3.32033 2.12772 -0.598143 -0.0746831 0.409728 0.171739 0 0 0 0 0 0 0 0 0 
26.982 1 71 30.9304 4.27259 2.36538 -0.467707 -1.35453 -1.47761 0.113209 0.0462336 -0.0394492 0 0 0 0 0 0 0 0 0 
26.982 1 230 31.0618 2.17919 4.29709 -2.4122 0.390207 -0.994922 0.21414 0.36855 0.290027 0 0 0 0 0 0 0 0 0 
26.982 1 233 33.2647 0.276761 4.30615 0.931355 -1.83754 -3.09388 -0.0573354 0.0502991 0.140133 0 0 0 0 0 0 0 0 0 
26.982 1 273 33.1399 4.19638 4.34845 0.933565 -4.45357 -0.232032 -0.124914 -0.174878 0.0329284 0 0 0 0 0 0 0 0 0 
26.982 1 229 28.8771 0.310542 4.28593 1.44849 4.88329 2.44869 0.107919 0.110869 0.235302 0 0 0 0 0 0 0 0 0 
26.982 1 29 28.8186 0.390216 0.341773 -2.76192 2.53503 3.25336 0.566094 -0.262274 0.204649 0 0 0 0 0 0 0 0 0 
26.982 1 73 33.2247 4.20414 0.342667 0.76732 6.28697 2.46241 -0.14201 0.0411786 0.00548561 0 0 0 0 0 0 0 0 0 
26.982 1 36 33.2957 2.31182 2.33268 -2.07335 -1.65645 4.45843 -0.319825 -0.0255523 -0.0314067 0 0 0 0 0 0 0 0 0 
26.982 1 75 35.1937 4.40282 2.39156 3.79708 -1.24801 3.17275 0.23822 -0.155992 -0.186376 0 0 0 0 0 0 0 0 0 
26.982 1 234 35.312 2.44126 4.26161 -0.206676 -4.55411 2.54246 0.214489 -0.512056 0.447155 0 0 0 0 0 0 0 0 0 
26.982 1 40 37.4312 2.73703 2.19682 1.45606 2.32229 -0.000730532 -0.0306211 -0.789451 0.772803 0 0 0 0 0 0 0 0 0 
26.982 1 37 37.6497 0.349485 0.475626 1.52569 -0.597846 3.38469 -0.363804 0.0413412 -0.0742794 0 0 0 0 0 0 0 0 0 
26.982 1 34 35.3862 2.23098 0.277929 2.59546 -1.71223 -2.61115 0.0731125 0.264312 -0.0122767 0 0 0 0 0 0 0 0 0 
26.982 1 277 37.4459 4.32401 4.70624 -1.62339 -5.11768 -0.758903 0.224765 0.150368 -0.785002 0 0 0 0 0 0 0 0 0 
26.982 1 4 41.8789 2.32767 2.39518 2.43407 4.20499 1.78544 -0.0255233 0.0214676 -0.244092 0 0 0 0 0 0 0 0 0 
26.982 1 79 39.6415 4.33338 2.35964 3.03659 -4.86378 1.09694 0.131279 0.104541 0.0232397 0 0 0 0 0 0 0 0 0 
26.982 1 238 39.5993 2.44876 4.39778 -1.4231 -3.56346 -1.13029 0.0752151 -0.217202 0.0466626 0 0 0 0 0 0 0 0 0 
26.982 1 1 42.114 0.39837 0.339369 0.65234 -1.129 -5.5444 -0.52373 -0.285183 0.0944554 0 0 0 0 0 0 0 0 0 
26.982 1 39 39.6692 0.398211 2.44225 2.30332 0.547242 2.03302 0.144793 0.110298 -0.0062695 0 0 0 0 0 0 0 0 0 
26.982 1 38 39.5851 2.34802 0.328055 5.75184 3.70603 2.29284 0.469384 -0.351359 0.274761 0 0 0 0 0 0 0 0 0 
26.982 1 83 0.68392 8.14938 2.54172 8.18798 2.03631 1.8582 0.0649233 0.534708 -0.430511 0 0 0 0 0 0 0 0 0 
26.982 1 242 0.83757 6.23829 4.3921 -4.44536 -4.05074 -4.08863 0.009044 -0.174585 0.244191 0 0 0 0 0 0 0 0 0 
26.982 1 285 2.98538 8.30705 4.39265 0.661217 -2.17912 -5.05548 -0.0101193 0.00179837 -0.0393326 0 0 0 0 0 0 0 0 0 
26.982 1 42 0.67454 6.3182 0.352283 1.05224 -0.394221 -2.09021 -0.0715016 0.0729083 -0.0033439 0 0 0 0 0 0 0 0 0 
26.982 1 281 -1.29445 8.37169 4.59788 1.43494 -5.2687 1.95067 -0.300166 -0.13266 -0.440871 0 0 0 0 0 0 0 0 0 
26.982 1 84 -1.41646 10.2576 2.4804 -1.95481 -7.64296 -3.68158 0.00536948 -0.00451719 -0.326111 0 0 0 0 0 0 0 0 0 
26.982 1 48 2.94562 6.28122 2.50702 2.88362 -3.70868 2.32647 0.0919473 0.374335 -0.346186 0 0 0 0 0 0 0 0 0 
26.982 1 87 5.24165 8.43814 2.41929 -5.64 -6.68495 -0.0437459 -0.310724 -0.903221 -0.102549 0 0 0 0 0 0 0 0 0 
26.982 1 246 5.10161 6.40367 4.31741 -0.66052 -1.64978 1.54301 -0.0151295 -0.333057 0.169917 0 0 0 0 0 0 0 0 0 
26.982 1 52 7.28284 6.23849 2.42656 4.06612 4.95999 1.45106 -0.0423094 0.470837 -0.309276 0 0 0 0 0 0 0 0 0 
26.982 1 289 7.35327 8.24851 4.43814 -2.46305 -3.78707 3.45058 -0.118438 0.297318 -0.0685752 0 0 0 0 0 0 0 0 0 
26.982 1 92 7.28416 10.2295 2.39281 0.647812 1.82186 -1.47677 0.321627 0.353211 0.101936 0 0 0 0 0 0 0 0 0 
26.982 1 91 9.60619 8.37126 2.40821 6.53818 2.44118 -2.64984 -0.409346 -0.0842872 -0.261697 0 0 0 0 0 0 0 0 0 
26.982 1 250 9.39555 6.38058 4.29864 -2.8802 -0.303432 -0.854465 0.231956 -0.0748367 0.199917 0 0 0 0 0 0 0 0 0 
26.982 1 50 9.41655 6.28013 0.340817 -2.28499 0.749213 -0.3123 -0.111815 0.5324 -0.0935776 0 0 0 0 0 0 0 0 0 
26.982 1 290 9.43392 10.369 4.30291 2.4868 -2.51215 -0.514317 -0.0376597 -0.293623 0.227057 0 0 0 0 0 0 0 0 0 
26.982 1 93 11.4909 8.29549 0.361207 -2.67849 0.0736671 -1.48091 0.0858207 0.289449 0.314861 0 0 0 0 0 0 0 0 0 
26.982 1 56 11.8114 6.40648 2.41994 1.23269 1.00186 0.622081 -0.541923 -0.107674 -0.0895427 0 0 0 0 0 0 0 0 0 
26.982 1 293 11.5931 8.32583 4.38813 -0.917888 -3.0936 0.0641857 0.152944 0.177382 -0.18502 0 0 0 0 0 0 0 0 0 
26.982 1 95 13.8468 8.34996 2.4566 4.13673 2.89259 2.73036 -0.0554425 0.174175 -0.433765 0 0 0 0 0 0 0 0 0 
26.982 1 254 13.7986 6.41642 4.34074 1.16789 0.343533 0.592035 0.114476 0.0438852 0.00211869 0 0 0 0 0 0 0 0 0 
26.982 1 297 15.9454 8.2911 4.48709 2.16391 2.37915 2.4146 0.0692516 0.380265 -0.631762 0 0 0 0 0 0 0 0 0 
26.982 1 294 13.8549 10.3022 4.4291 -2.21777 2.64693 2.15546 -0.133804 0.072524 0.130595 0 0 0 0 0 0 0 0 0 
26.982 1 94 13.6055 10.2563 0.372759 -3.14506 0.542556 -1.64724 0.612886 0.0743728 0.134923 0 0 0 0 0 0 0 0 0 
26.982 1 96 11.694 10.368 2.34291 3.10059 2.19 3.89355 -0.214266 0.0672974 0.310145 0 0 0 0 0 0 0 0 0 
26.982 1 54 13.6684 6.28462 0.258578 -2.49234 1.59644 0.761278 0.556879 0.311147 0.847051 0 0 0 0 0 0 0 0 0 
26.982 1 60 15.9346 6.42042 2.24937 4.89391 -3.69163 -4.47312 -0.104835 -0.0478079 0.403477 0 0 0 0 0 0 0 0 0 
26.982 1 99 18.0071 8.11232 2.30362 0.500675 -0.943041 -4.35391 0.440378 0.517036 0.0258254 0 0 0 0 0 0 0 0 0 
26.982 1 258 18.1716 6.40788 4.38382 0.865751 0.229797 -5.40968 -0.119724 -0.0536402 -0.193861 0 0 0 0 0 0 0 0 0 
26.982 1 298 18.2385 10.1562 4.37355 -3.2639 0.824366 -5.38588 -0.234605 0.215575 -0.430356 0 0 0 0 0 0 0 0 0 
26.982 1 301 20.3952 8.38014 4.01661 1.9104 -0.060299 0.362306 -0.149888 -0.316355 0.373991 0 0 0 0 0 0 0 0 0 
26.982 1 64 20.3006 6.29241 2.22351 1.83219 1.42338 2.68015 0.0234509 -0.213069 0.647634 0 0 0 0 0 0 0 0 0 
26.982 1 103 22.5299 8.2644 2.23683 0.812371 -1.32132 3.08953 -0.693319 0.202371 0.368872 0 0 0 0 0 0 0 0 0 
26.982 1 262 22.4897 6.26555 4.27451 -5.85741 1.16496 0.92102 -0.318982 0.253111 0.384715 0 0 0 0 0 0 0 0 0 
26.982 1 102 22.306 10.4868 0.358564 3.00387 5.05773 0.327186 0.565475 -0.134292 0.0931377 0 0 0 0 0 0 0 0 0 
26.982 1 108 24.6239 10.3676 2.32032 1.26388 -3.25292 1.96215 0.0612515 0.207488 0.014912 0 0 0 0 0 0 0 0 0 
26.982 1 62 22.5965 6.31915 0.248451 -4.91485 -0.0814856 1.49916 -0.422889 -0.116427 -0.0340223 0 0 0 0 0 0 0 0 0 
26.982 1 305 24.5318 8.21897 4.2013 -1.36302 3.37746 -4.34435 0.0754421 0.524104 0.458424 0 0 0 0 0 0 0 0 0 
26.982 1 68 24.5543 6.29218 2.36697 4.55237 -3.69204 1.83381 0.251739 -0.24238 -0.23037 0 0 0 0 0 0 0 0 0 
26.982 1 107 26.7535 8.32774 2.36947 0.672096 4.78545 -4.2241 -0.0935654 0.220278 -0.377646 0 0 0 0 0 0 0 0 0 
26.982 1 266 26.5333 6.36933 4.33443 -6.52851 7.48484 -7.68574 0.576397 -0.405404 -0.169072 0 0 0 0 0 0 0 0 0 
26.982 1 72 28.8252 6.42074 2.19802 4.18956 -1.45963 1.9011 -0.0252666 -0.375374 0.666088 0 0 0 0 0 0 0 0 0 
26.982 1 112 28.7485 10.4174 2.31968 -2.20583 1.36937 -1.61521 0.255692 -0.359255 -0.448394 0 0 0 0 0 0 0 0 0 
26.982 1 306 26.9118 10.3341 4.31486 -2.5532 -0.35056 -4.30835 -0.859985 0.0214217 -0.00238298 0 0 0 0 0 0 0 0 0 
26.982 1 309 28.7277 8.33883 4.40064 1.79628 0.500117 -4.36779 0.51981 -0.486863 -0.423009 0 0 0 0 0 0 0 0 0 
26.982 1 111 31.0614 8.20036 2.4159 -2.07167 -2.38547 0.0660906 -0.159717 -0.0996083 -0.648034 0 0 0 0 0 0 0 0 0 
26.982 1 270 31.0657 6.25794 4.30612 3.29034 -1.59472 5.26969 -0.412275 0.0288401 0.127323 0 0 0 0 0 0 0 0 0 
26.982 1 70 30.9887 6.24815 0.30913 1.79685 0.856505 -2.8427 0.183799 -0.0142012 -0.029647 0 0 0 0 0 0 0 0 0 
26.982 1 313 33.2089 8.18596 4.232 -3.786 -3.9755 -0.932008 0.164044 -0.289278 0.487106 0 0 0 0 0 0 0 0 0 
26.982 1 76 33.0267 6.08953 2.34873 -2.23005 -3.92207 -3.22607 0.348614 0.45899 -0.180115 0 0 0 0 0 0 0 0 0 
26.982 1 115 35.4091 8.11371 2.34776 1.26673 -2.18484 -2.32987 -0.221282 -0.324701 0.115677 0 0 0 0 0 0 0 0 0 
26.982 1 274 35.2364 6.15875 4.56289 0.284336 -2.38801 -1.38888 0.38601 0.0843874 -0.379737 0 0 0 0 0 0 0 0 0 
26.982 1 317 37.423 8.0882 4.31298 -5.31008 -3.48679 -1.25647 0.238975 0.0244859 0.332391 0 0 0 0 0 0 0 0 0 
26.982 1 74 35.3755 6.17437 0.283307 2.27156 2.75313 1.26465 -0.428374 0.337862 0.0518335 0 0 0 0 0 0 0 0 0 
26.982 1 114 35.2203 10.0688 0.415163 2.09175 -3.70319 2.75883 0.474431 0.490367 -0.270212 0 0 0 0 0 0 0 0 0 
26.982 1 113 33.2372 8.18274 0.422594 -1.21262 5.11868 -0.449196 -0.373184 -0.191287 -0.25093 0 0 0 0 0 0 0 0 0 
26.982 1 44 41.8795 6.27998 2.48829 -3.30018 -0.988641 -3.81872 -0.218047 0.0784059 -0.143067 0 0 0 0 0 0 0 0 0 
26.982 1 117 37.5458 8.16625 0.518337 -0.0780287 2.8474 2.72728 -0.171739 0.668095 -0.135694 0 0 0 0 0 0 0 0 0 
26.982 1 80 37.3663 6.08394 2.2666 3.53682 2.74158 2.21306 0.336185 -0.258868 0.47335 0 0 0 0 0 0 0 0 0 
26.982 1 119 39.6428 8.16546 2.54664 -0.0531301 4.9148 -5.0623 0.228712 0.0741583 -0.337591 0 0 0 0 0 0 0 0 0 
26.982 1 278 39.6442 6.21147 4.44885 4.52672 0.308695 -1.45707 -0.0529384 0.310348 -0.111552 0 0 0 0 0 0 0 0 0 
26.982 1 123 0.647248 12.3093 2.48118 0.546117 -7.01372 -1.87592 0.232143 -0.17673 -0.37996 0 0 0 0 0 0 0 0 0 
26.982 1 282 0.775817 10.4124 4.4091 4.10523 2.28912 -3.8295 -0.024934 -0.193044 0.107022 0 0 0 0 0 0 0 0 0 
26.982 1 322 0.753605 14.2433 4.28838 0.481296 1.03277 -1.19582 0.300694 0.391719 0.424392 0 0 0 0 0 0 0 0 0 
26.982 1 124 -1.38307 14.1962 2.49896 2.34259 1.89656 -0.18147 0.0536367 -0.0587319 -0.105524 0 0 0 0 0 0 0 0 0 
26.982 1 321 -1.54776 12.2543 4.53977 -0.181002 5.6202 3.54095 0.302783 -0.247264 -0.407903 0 0 0 0 0 0 0 0 0 
26.982 1 325 3.03547 12.2272 4.36206 -2.58418 3.66139 -2.03654 -0.375278 0.37293 0.0566809 0 0 0 0 0 0 0 0 0 
26.982 1 122 0.61096 14.1921 0.335851 3.494 -1.95098 -0.0541472 0.674812 0.0585785 0.422764 0 0 0 0 0 0 0 0 0 
26.982 1 286 5.14478 10.3777 4.252 -3.98457 -2.32082 1.81665 -0.166638 -0.171495 0.569974 0 0 0 0 0 0 0 0 0 
26.982 1 88 2.67007 10.0826 2.3461 -0.486701 -0.819632 3.65415 0.37242 0.695586 0.114363 0 0 0 0 0 0 0 0 0 
26.982 1 128 3.01478 14.4803 2.30925 -1.22598 4.13124 1.53266 -0.54669 -0.591495 0.0807844 0 0 0 0 0 0 0 0 0 
26.982 1 125 2.90022 12.2124 0.485131 2.97333 4.61062 -0.611309 -0.0312576 0.157299 0.313949 0 0 0 0 0 0 0 0 0 
26.982 1 127 5.06277 12.4086 2.49783 4.74682 3.46227 3.61183 0.0163876 -0.218015 -0.534024 0 0 0 0 0 0 0 0 0 
26.982 1 326 5.1815 14.3849 4.36909 -1.49822 -1.96507 -2.19324 -0.326124 -0.216961 0.285244 0 0 0 0 0 0 0 0 0 
26.982 1 126 5.12089 14.3882 0.505963 -1.68191 -3.83375 6.22407 -0.179486 -0.240144 -0.744386 0 0 0 0 0 0 0 0 0 
26.982 1 132 7.12414 14.3626 2.40044 -4.20558 3.37308 -2.15841 0.490623 -0.308652 0.0498962 0 0 0 0 0 0 0 0 0 
26.982 1 329 7.30247 12.3363 4.36135 -2.87888 0.556098 -1.65589 -0.0211498 0.025905 -0.137614 0 0 0 0 0 0 0 0 0 
26.982 1 131 9.41596 12.3589 2.40468 0.143821 3.70564 -3.27475 0.0455204 0.0361725 0.121007 0 0 0 0 0 0 0 0 0 
26.982 1 330 9.52148 14.3356 4.45105 1.71514 -0.796297 3.16327 -0.0991211 -0.158306 0.036983 0 0 0 0 0 0 0 0 0 
26.982 1 333 11.5974 12.2222 4.54701 -0.86166 2.01186 -1.0791 0.206393 0.000816034 -0.36341 0 0 0 0 0 0 0 0 0 
26.982 1 136 11.7018 14.0068 2.44288 5.47398 3.25888 0.719112 -0.0543395 0.515597 0.313627 0 0 0 0 0 0 0 0 0 
26.982 1 135 13.9372 12.2451 2.45088 8.1709 1.01129 3.28504 -0.380987 -0.215379 -0.0180281 0 0 0 0 0 0 0 0 0 
26.982 1 334 13.9633 14.4272 4.42795 0.781179 1.35725 -1.00969 -0.548015 -0.118322 -0.0816129 0 0 0 0 0 0 0 0 0 
26.982 1 134 13.7346 14.2227 0.464642 -3.47738 -2.10926 -2.69789 -0.0817426 0.347006 -0.00629797 0 0 0 0 0 0 0 0 0 
26.982 1 140 15.8881 14.1719 2.29189 -1.3057 1.04047 -1.08706 0.281249 0.343046 0.0953501 0 0 0 0 0 0 0 0 0 
26.982 1 100 16.0763 10.2329 2.51999 6.16363 -1.44351 -0.0645818 -0.160224 0.13048 -0.389648 0 0 0 0 0 0 0 0 0 
26.982 1 337 15.8871 12.4531 4.38354 -0.307536 2.29347 0.548461 0.298068 -0.601348 0.280961 0 0 0 0 0 0 0 0 0 
26.982 1 139 18.102 12.1848 2.34321 1.99546 0.837952 4.7591 -0.207191 0.201058 -0.0247718 0 0 0 0 0 0 0 0 0 
26.982 1 338 18.1061 14.2464 4.33796 0.940221 -4.16396 -4.3941 0.116916 -0.0178613 -0.0841061 0 0 0 0 0 0 0 0 0 
26.982 1 341 20.1999 12.2572 4.24762 -2.69181 1.84269 -1.90145 -0.0191901 0.340374 0.252533 0 0 0 0 0 0 0 0 0 
26.982 1 104 20.3713 10.4989 2.17298 0.995497 -1.30437 -5.70091 -0.502847 -1.08688 0.622924 0 0 0 0 0 0 0 0 0 
26.982 1 137 15.8718 12.2264 0.329686 -5.05126 -3.45174 1.91035 0.265917 -0.76906 0.344458 0 0 0 0 0 0 0 0 0 
26.982 1 138 17.9622 14.2953 0.396504 -4.38003 -1.82834 -0.717192 0.382085 -0.207918 0.000556104 0 0 0 0 0 0 0 0 0 
26.982 1 302 22.5295 10.225 4.22754 5.34806 3.6356 3.69411 -0.112836 0.210776 0.132224 0 0 0 0 0 0 0 0 0 
26.982 1 144 20.2292 14.4094 2.19573 0.828538 -2.44857 0.349406 -0.174856 -0.148949 0.168102 0 0 0 0 0 0 0 0 0 
26.982 1 142 22.3175 14.1696 0.410643 1.20439 3.17812 0.957116 0.238165 0.143036 -0.309694 0 0 0 0 0 0 0 0 0 
26.982 1 143 22.3426 12.3086 2.44102 0.89037 -1.56305 -6.36584 0.470085 0.26796 -0.246678 0 0 0 0 0 0 0 0 0 
26.982 1 342 22.2828 14.2438 4.39756 2.79423 -6.46272 -0.759721 0.0894654 0.324552 -0.445999 0 0 0 0 0 0 0 0 0 
26.982 1 345 24.5851 12.3409 4.26014 2.64107 -2.57718 -4.32286 -0.0827847 -0.0387947 -0.2395 0 0 0 0 0 0 0 0 0 
26.982 1 145 24.5871 12.3586 0.199125 3.14926 3.88887 1.34767 -0.0813286 0.0950383 0.310379 0 0 0 0 0 0 0 0 0 
26.982 1 148 24.5488 14.3362 2.30358 -0.540854 -4.71037 -5.49384 -0.272935 -0.342954 0.00476929 0 0 0 0 0 0 0 0 0 
26.982 1 147 26.8106 12.5012 2.19947 4.7098 -3.1796 2.21227 -0.445665 -0.670727 0.0321281 0 0 0 0 0 0 0 0 0 
26.982 1 346 26.6271 14.3258 4.20519 -5.60035 8.28953 4.29939 0.136356 0.174305 0.466194 0 0 0 0 0 0 0 0 0 
26.982 1 152 28.9563 14.2287 2.41697 -1.3707 -4.08934 -1.37809 -0.0705709 0.586342 -0.888833 0 0 0 0 0 0 0 0 0 
26.982 1 146 26.7689 14.3073 0.258674 -0.123965 5.77522 1.33228 -0.319115 -0.17367 -0.544679 0 0 0 0 0 0 0 0 0 
26.982 1 310 31.0159 10.0842 4.17241 -0.916625 -1.90269 0.230541 -0.0591895 0.474991 0.821856 0 0 0 0 0 0 0 0 0 
26.982 1 349 28.7723 12.3742 4.16521 5.52404 -2.90881 -4.80714 0.308005 -0.465584 0.89642 0 0 0 0 0 0 0 0 0 
26.982 1 151 31.1378 12.1271 2.54626 -1.47451 -0.55898 -3.139 0.166218 0.283806 -0.78909 0 0 0 0 0 0 0 0 0 
26.982 1 350 30.9942 14.2147 4.1454 -3.64782 -0.243329 3.04283 0.333396 0.291436 0.796146 0 0 0 0 0 0 0 0 0 
26.982 1 353 33.3192 12.1433 4.38286 3.95262 2.8176 2.12813 -0.316663 0.0352765 0.00777682 0 0 0 0 0 0 0 0 0 
26.982 1 150 31.0167 14.1546 0.312197 -1.34915 0.0602884 5.45312 0.283318 -0.0355934 0.332645 0 0 0 0 0 0 0 0 0 
26.982 1 153 33.2488 12.1912 0.349212 -3.71935 3.4078 2.13211 -0.303769 0.0515051 0.000829676 0 0 0 0 0 0 0 0 0 
26.982 1 116 33.2762 10.0852 2.37408 -4.48131 1.16652 4.88443 -0.310427 0.594665 -0.268084 0 0 0 0 0 0 0 0 0 
26.982 1 314 35.3972 10.1305 4.20328 -2.83797 0.394664 -0.682346 -0.0541641 0.156551 0.690158 0 0 0 0 0 0 0 0 0 
26.982 1 155 35.4378 12.1271 2.34715 -3.02508 -0.755225 4.18462 -0.437902 0.109357 0.135096 0 0 0 0 0 0 0 0 0 
26.982 1 156 33.2979 14.2398 2.42106 -6.40641 -2.43565 -5.74578 -0.162945 -0.120526 -0.363965 0 0 0 0 0 0 0 0 0 
26.982 1 354 35.2806 14.2581 4.36192 -1.62165 -4.35563 -0.859382 0.0797418 -0.0161158 -0.169156 0 0 0 0 0 0 0 0 0 
26.982 1 154 35.3467 14.0879 0.36876 -4.97927 5.75155 -1.09707 -0.476733 0.390559 0.0397 0 0 0 0 0 0 0 0 0 
26.982 1 318 39.7691 10.1497 4.35495 0.129935 2.26772 2.3179 -0.393141 0.46328 0.240032 0 0 0 0 0 0 0 0 0 
26.982 1 120 37.5737 10.2155 2.44145 -2.27883 -0.239576 -2.24704 -0.12238 -0.35763 0.06655 0 0 0 0 0 0 0 0 0 
26.982 1 160 37.3787 14.137 2.24923 -2.89703 -2.81625 0.947109 0.341222 -0.00716504 0.391641 0 0 0 0 0 0 0 0 0 
26.982 1 357 37.5247 12.3304 4.34358 -1.81209 1.47193 -6.28805 -0.0203475 -0.216535 0.00295731 0 0 0 0 0 0 0 0 0 
26.982 1 159 39.4664 12.2077 2.34256 -4.58472 -2.91566 0.752754 0.663775 -0.0679594 0.300811 0 0 0 0 0 0 0 0 0 
26.982 1 358 39.7325 14.1719 4.41737 -2.88846 2.88802 -3.06993 -0.402461 0.282022 0.0336581 0 0 0 0 0 0 0 0 0 
26.982 1 121 41.662 12.2596 0.398675 -1.4081 -1.41665 -6.66564 0.296407 -0.291918 0.143355 0 0 0 0 0 0 0 0 0 
26.982 1 163 0.801849 16.3171 2.27991 0.248083 0.109373 1.86585 -0.167306 -0.368958 -0.111927 0 0 0 0 0 0 0 0 0 
26.982 1 362 0.825479 18.2233 4.46371 -4.88933 -0.59297 -0.813612 -0.0914591 0.68252 -0.203849 0 0 0 0 0 0 0 0 0 
26.982 1 164 -1.25098 18.1413 2.26348 5.39356 5.35415 -0.439096 -0.206934 0.464453 -0.244688 0 0 0 0 0 0 0 0 0 
26.982 1 168 2.62067 18.3045 2.41032 0.540807 -0.234387 -3.09511 0.845458 0.217962 -0.266052 0 0 0 0 0 0 0 0 0 
26.982 1 365 2.90323 16.3119 4.3981 2.91119 1.058 -4.01078 0.0599089 -0.027959 -0.119405 0 0 0 0 0 0 0 0 0 
26.982 1 161 -1.46902 16.1664 0.335578 -1.41446 4.08808 4.56662 0.337023 0.338135 0.00389532 0 0 0 0 0 0 0 0 0 
26.982 1 167 5.01904 16.2952 2.37114 0.835416 0.140679 -3.8127 -0.0611243 0.581421 0.0047085 0 0 0 0 0 0 0 0 0 
26.982 1 366 4.95633 18.4121 4.24217 -0.613625 -8.03014 1.28795 -0.205881 -0.0299975 -0.0109927 0 0 0 0 0 0 0 0 0 
26.982 1 2007 4.86302 20.31 2.16943 0.696641 4.3165 3.74066 0.187679 -0.256352 0.318073 0 0 0 0 0 0 0 0 0 
26.982 1 169 7.25295 16.2663 0.386722 -3.22791 -0.129707 2.19457 -0.148139 0.153407 -0.0550663 0 0 0 0 0 0 0 0 0 
26.982 1 172 7.06325 18.2845 2.18926 -2.06829 3.76519 1.64794 0.197106 0.189402 0.283013 0 0 0 0 0 0 0 0 0 
26.982 1 369 7.17764 16.3987 4.21099 -3.2885 1.74401 1.29006 -0.123091 -0.676672 0.0697526 0 0 0 0 0 0 0 0 0 
26.982 1 171 9.56253 15.9814 2.45172 -0.92886 1.08998 0.993257 -0.233737 0.362716 -0.393927 0 0 0 0 0 0 0 0 0 
26.982 1 370 9.20355 18.0033 4.12266 -0.884912 0.706754 -2.16267 0.567722 0.500145 0.430534 0 0 0 0 0 0 0 0 0 
26.982 1 2209 7.093 20.2369 4.27889 -0.574713 -1.74493 -1.17244 0.50444 -0.313143 0.0966577 0 0 0 0 0 0 0 0 0 
26.982 1 2011 9.49435 20.022 2.44574 1.73025 1.48391 -3.89756 -0.498466 0.718292 -0.179276 0 0 0 0 0 0 0 0 0 
26.982 1 176 11.5527 18.2663 2.4374 0.451757 1.14853 -1.66097 -0.00717094 0.0834659 -0.285526 0 0 0 0 0 0 0 0 0 
26.982 1 2217 15.7729 20.3169 4.31436 -3.85409 0.9207 4.3598 0.208448 -0.205502 0.0692895 0 0 0 0 0 0 0 0 0 
26.982 1 373 11.7761 16.2606 4.22332 -0.00128945 -1.75441 -0.60366 -0.657824 -0.650871 0.411215 0 0 0 0 0 0 0 0 0 
26.982 1 175 13.7238 16.2777 2.33945 -5.72153 -1.02193 1.31863 0.313103 -0.40229 0.0389452 0 0 0 0 0 0 0 0 0 
26.982 1 374 13.5552 18.2181 4.24215 -3.5624 -0.434828 6.02242 0.714664 0.381279 0.732743 0 0 0 0 0 0 0 0 0 
26.982 1 377 16.0489 16.2299 4.25182 7.5136 0.740297 -1.87356 -0.246189 0.136309 0.262074 0 0 0 0 0 0 0 0 0 
26.982 1 174 13.7127 18.2305 0.390512 -4.17321 -5.67798 -0.723542 0.0732568 0.195854 0.10704 0 0 0 0 0 0 0 0 0 
26.982 1 2015 13.6744 20.2794 2.37617 -2.22097 1.28592 -3.04778 0.108438 0.0783974 0.0441179 0 0 0 0 0 0 0 0 0 
26.982 1 180 15.6666 18.2312 2.48674 4.62615 -0.141582 -1.02527 0.622203 0.253497 -0.364667 0 0 0 0 0 0 0 0 0 
26.982 1 179 18.0861 16.3024 2.35687 2.02711 -6.20536 -0.78876 -0.310403 -0.641512 0.207864 0 0 0 0 0 0 0 0 0 
26.982 1 378 18.0701 18.3224 4.24871 1.54278 -1.36173 -0.0889811 -0.0466857 -0.0287985 0.574187 0 0 0 0 0 0 0 0 0 
26.982 1 178 18.0591 17.9875 0.397653 2.80409 -0.689179 5.70747 -0.107725 0.585549 -0.564804 0 0 0 0 0 0 0 0 0 
26.982 1 2019 18.0111 20.167 2.31534 -3.13833 2.87378 -3.97495 0.0832687 0.281412 -0.0119196 0 0 0 0 0 0 0 0 0 
26.982 1 184 20.1209 18.053 2.30727 4.34223 -3.18528 -6.35002 0.444019 0.691314 -0.284997 0 0 0 0 0 0 0 0 0 
26.982 1 381 20.247 16.2164 4.25961 2.84609 1.42363 2.51708 -0.227628 0.00696484 0.639798 0 0 0 0 0 0 0 0 0 
26.982 1 181 20.366 16.3966 0.0478472 -2.59247 0.277028 10.4085 -0.223205 -0.792321 0.375283 0 0 0 0 0 0 0 0 0 
26.982 1 183 22.3609 16.3197 2.35366 -0.605062 -4.58764 -3.18275 0.108457 -0.227863 -0.286158 0 0 0 0 0 0 0 0 0 
26.982 1 382 22.2687 18.2972 4.21052 6.86308 2.30857 -1.60104 0.291367 0.042161 0.204887 0 0 0 0 0 0 0 0 0 
26.982 1 188 24.5533 18.1391 2.246 -1.29291 -6.33061 3.15154 0.0223489 0.188433 0.148783 0 0 0 0 0 0 0 0 0 
26.982 1 182 22.4559 18.2126 0.118646 0.560506 2.67522 0.871423 0.0587852 -0.0459623 0.601647 0 0 0 0 0 0 0 0 0 
26.982 1 385 24.5239 16.1989 4.32053 -1.26881 -2.87191 -2.32846 -0.110592 0.176673 0.064602 0 0 0 0 0 0 0 0 0 
26.982 1 185 24.4213 16.1223 0.307546 -1.46083 -4.72889 -1.38554 0.261531 0.247816 -0.39312 0 0 0 0 0 0 0 0 0 
26.982 1 187 26.7434 16.1465 2.19162 -3.10064 4.55597 1.00454 -0.141154 0.391473 0.360896 0 0 0 0 0 0 0 0 0 
26.982 1 386 26.6465 18.2402 4.23285 -0.012414 7.27191 -3.65705 0.0777414 0.0655303 0.0635713 0 0 0 0 0 0 0 0 0 
26.982 1 389 28.7146 16.4283 4.2108 -2.19136 4.67932 1.15826 0.270265 -0.606959 0.463713 0 0 0 0 0 0 0 0 0 
26.982 1 189 28.7523 16.2158 0.267429 4.59505 -1.3914 -3.08643 0.566644 0.0965422 0.0562913 0 0 0 0 0 0 0 0 0 
26.982 1 186 26.6589 18.0882 0.268695 -0.663313 -1.31593 -2.68819 0.178916 0.549439 0.271231 0 0 0 0 0 0 0 0 0 
26.982 1 192 29.0834 18.0843 2.2711 4.09725 1.94499 -0.495772 -0.785894 0.576378 -0.395498 0 0 0 0 0 0 0 0 0 
26.982 1 191 31.028 16.2582 2.27366 -0.347241 -1.49298 0.250696 0.252112 -0.42396 -0.181708 0 0 0 0 0 0 0 0 0 
26.982 1 390 31.059 18.2998 4.22427 -0.819231 0.533273 6.44911 0.260189 -0.459929 0.201978 0 0 0 0 0 0 0 0 0 
26.982 1 190 30.9906 18.2355 0.266822 0.818009 1.17612 -1.45022 0.367901 -0.509622 -0.254613 0 0 0 0 0 0 0 0 0 
26.982 1 393 33.0603 16.2669 4.3145 -4.35752 2.27451 -1.8502 0.373498 -0.467814 -0.303567 0 0 0 0 0 0 0 0 0 
26.982 1 196 33.2202 18.0665 2.05998 2.18864 -0.254143 4.50385 0.0493816 0.317983 0.401455 0 0 0 0 0 0 0 0 0 
26.982 1 195 35.4452 16.2631 2.2179 -2.7114 1.46163 3.14452 -0.505362 -0.219989 0.359821 0 0 0 0 0 0 0 0 0 
26.982 1 394 35.4119 18.2117 4.22878 -5.10465 -2.13464 3.69758 -0.133322 -0.0839798 0.221334 0 0 0 0 0 0 0 0 0 
26.982 1 197 37.628 16.1992 0.65685 -3.72431 1.82261 -0.777584 0.153382 -0.10144 -1.02295 0 0 0 0 0 0 0 0 0 
26.982 1 193 33.1881 16.1118 0.212983 0.180562 -0.0790834 2.22364 -0.0878818 -0.145545 -0.0831732 0 0 0 0 0 0 0 0 0 
26.982 1 361 42.0039 16.485 4.38871 0.116896 -0.0643435 -2.74621 -0.276647 -0.655682 0.213838 0 0 0 0 0 0 0 0 0 
26.982 1 200 37.6967 18.131 2.40322 0.748559 5.76296 -0.733042 -0.196444 0.596874 -0.0272856 0 0 0 0 0 0 0 0 0 
26.982 1 397 37.4168 16.2149 4.26001 0.545404 -4.487 3.22142 0.387271 -0.429845 0.143341 0 0 0 0 0 0 0 0 0 
26.982 1 199 39.896 16.0043 2.39399 3.20375 -2.6894 -2.3557 -0.55087 0.628906 0.123136 0 0 0 0 0 0 0 0 0 
26.982 1 398 39.7141 18.138 4.33161 -3.50807 -7.07828 -0.851941 0.0141789 0.113856 -0.0950118 0 0 0 0 0 0 0 0 0 
26.982 1 198 39.6266 18.1801 0.335491 -0.744404 -3.0866 -1.99069 0.443809 0.0276822 0.328684 0 0 0 0 0 0 0 0 0 
26.982 1 243 0.908463 4.19898 6.22544 -5.36624 0.476711 2.75645 -0.242991 -0.110254 0.456602 0 0 0 0 0 0 0 0 0 
26.982 1 402 0.923322 2.33894 8.43182 0.641036 -4.59271 2.53363 -0.0845708 0.299315 -0.391031 0 0 0 0 0 0 0 0 0 
26.982 1 208 3.18077 2.34039 6.37547 -1.73099 -3.41702 -0.226491 -0.492771 0.0107516 -0.300382 0 0 0 0 0 0 0 0 0 
26.982 1 445 3.03594 4.36569 8.32491 1.97553 -2.09804 1.03043 -0.322863 -0.73959 0.712818 0 0 0 0 0 0 0 0 0 
26.982 1 441 -1.48969 4.33815 8.31453 -0.729754 -4.12584 -2.03414 0.343881 0.345316 0.131116 0 0 0 0 0 0 0 0 0 
26.982 1 403 0.741259 0.439553 10.4029 0.701258 3.12198 4.92517 0.125402 0.349918 -0.337922 0 0 0 0 0 0 0 0 0 
26.982 1 443 0.76393 4.41761 10.2843 3.2503 -0.627267 -3.58647 0.471475 -0.104699 -0.0614488 0 0 0 0 0 0 0 0 0 
26.982 1 408 3.06461 2.42423 10.3083 -0.150005 8.14939 3.20361 -0.275354 0.159528 0.176736 0 0 0 0 0 0 0 0 0 
26.982 1 247 5.28234 4.3061 6.30273 -1.50557 -1.37662 -0.851625 -0.55389 0.0906271 0.101505 0 0 0 0 0 0 0 0 0 
26.982 1 406 5.06966 2.38059 8.37488 -1.54016 8.0239 -1.12683 0.525248 -0.0160967 -0.217859 0 0 0 0 0 0 0 0 0 
26.982 1 207 5.16632 0.382672 6.30967 -1.75456 0.302756 -2.7193 -0.0792048 -0.440596 0.304365 0 0 0 0 0 0 0 0 0 
26.982 1 449 7.43151 4.44265 8.27382 -0.418092 1.46994 -3.73376 -0.166844 -0.515159 -0.417453 0 0 0 0 0 0 0 0 0 
26.982 1 212 7.3626 2.42679 6.29026 1.31107 -0.428914 -0.326269 0.148538 0.0859602 0.332373 0 0 0 0 0 0 0 0 0 
26.982 1 251 9.5841 4.50507 6.25999 -1.52703 -0.222109 -0.589967 -0.435388 -0.146308 -0.0816101 0 0 0 0 0 0 0 0 0 
26.982 1 410 9.53588 2.49311 8.14143 0.138197 -3.33457 2.82436 -0.414729 -0.544622 0.451541 0 0 0 0 0 0 0 0 0 
26.982 1 216 11.517 2.30308 6.22314 6.13145 3.91286 0.0292846 0.60749 0.228167 -0.191318 0 0 0 0 0 0 0 0 0 
26.982 1 412 7.20484 2.54365 10.1775 0.483037 -1.89577 -0.252178 0.287112 -0.820871 -0.178144 0 0 0 0 0 0 0 0 0 
26.982 1 411 9.34755 0.244418 10.2073 -6.09683 -2.47119 1.6051 0.485172 0.697429 -0.256742 0 0 0 0 0 0 0 0 0 