ITEM: TIMESTEP
1400
ITEM: NUMBER OF ATOMS
4000
ITEM: BOX BOUNDS pp pp pp
-0.358735 40.8587
0.025493 40.4745
0.0271115 40.4729
ITEM: ATOMS mass type id x y z vx vy vz fx fy fz xrad yrad zrad vxrad vyrad vzrad fxrad fyrad fzrad 
26.982 1 811 10.0063 -0.0633294 18.2055 -1.19556 -1.60822 -6.23008 -0.278696 0.591631 0.258347 0 0 0 0 0 0 0 0 0 
26.982 1 3 1.88424 -0.0341537 2.11422 1.87546 -0.191013 -0.505707 -0.0724047 0.0724943 -0.25136 0 0 0 0 0 0 0 0 0 
26.982 1 8 3.90441 1.97987 2.08593 1.3769 0.000666231 1.68919 -0.0594971 0.304637 0.0582697 0 0 0 0 0 0 0 0 0 
26.982 1 807 5.6833 0.0533166 18.1409 -1.39142 2.82435 3.5485 0.223535 -0.429961 -0.0630701 0 0 0 0 0 0 0 0 0 
26.982 1 43 1.79322 4.06947 1.98314 0.467569 1.96274 0.436984 -0.106385 -0.210602 0.00440599 0 0 0 0 0 0 0 0 0 
26.982 1 202 1.83221 2.07601 4.08897 -5.78884 -4.57658 -2.44206 -0.213783 -0.118277 -0.0424589 0 0 0 0 0 0 0 0 0 
26.982 1 241 -0.272725 3.99628 4.20153 -3.55664 -1.08295 3.15295 -0.234092 0.132606 -0.438575 0 0 0 0 0 0 0 0 0 
26.982 1 245 3.74558 4.10219 4.08352 2.77091 1.11327 -0.105323 0.364897 -0.331016 -0.181408 0 0 0 0 0 0 0 0 0 
26.982 1 2825 24.3593 20.2154 16.018 3.46175 5.23549 -0.399641 0.532387 0.413551 0.0623792 0 0 0 0 0 0 0 0 0 
26.982 1 2819 18.079 20.2124 18.0722 1.7407 -2.49712 -3.29838 0.329504 0.115082 0.237994 0 0 0 0 0 0 0 0 0 
26.982 1 12 7.95427 2.12591 1.98508 4.28335 4.36325 -3.35752 -0.444549 -0.574557 0.298605 0 0 0 0 0 0 0 0 0 
26.982 1 47 5.8446 4.16021 2.15473 -4.28214 4.10516 -6.12651 -0.0647012 -0.882871 -0.152212 0 0 0 0 0 0 0 0 0 
26.982 1 49 8.04331 3.86207 -0.0165978 3.04367 -1.85805 0.107801 -0.538393 0.793333 -0.154239 0 0 0 0 0 0 0 0 0 
26.982 1 206 5.89895 1.89903 4.21615 -4.47404 0.0730957 0.448528 -0.34066 0.836482 -0.641292 0 0 0 0 0 0 0 0 0 
26.982 1 209 7.88096 0.0758937 3.99401 2.99733 5.72827 2.17781 0.762758 -0.424244 0.260671 0 0 0 0 0 0 0 0 0 
26.982 1 249 7.94581 4.02919 3.93143 2.69109 5.39011 -0.00277038 -0.0933628 0.108141 0.585957 0 0 0 0 0 0 0 0 0 
26.982 1 10 9.88574 1.96706 0.0870759 2.90641 -0.00558276 -1.15291 0.717869 -0.0216073 -0.788523 0 0 0 0 0 0 0 0 0 
26.982 1 16 12.1107 2.05726 1.92813 -7.25808 0.197759 -5.48281 0.0362527 0.0436209 0.0808481 0 0 0 0 0 0 0 0 0 
26.982 1 51 10.0748 4.02667 1.9281 -1.63997 -0.132892 5.12578 -0.0020818 0.613597 0.137099 0 0 0 0 0 0 0 0 0 
26.982 1 53 12.1226 4.11142 0.0226356 3.30566 0.646893 5.75475 -0.240984 0.156699 -0.306511 0 0 0 0 0 0 0 0 0 
26.982 1 210 10.0232 2.19773 3.89527 -3.53913 1.29593 2.11625 -0.185046 -0.341272 0.670743 0 0 0 0 0 0 0 0 0 
26.982 1 1197 36.7696 16.1312 20.1575 1.7184 5.32542 0.0664916 -0.394837 0.172532 -0.0893175 0 0 0 0 0 0 0 0 0 
26.982 1 253 12.003 4.21294 4.19049 -3.92619 -0.00141266 -1.9326 0.233951 -0.378468 -0.270484 0 0 0 0 0 0 0 0 0 
26.982 1 20 16.0318 2.06306 1.81779 -0.781034 -3.94567 0.90992 0.182878 0.328453 0.390698 0 0 0 0 0 0 0 0 0 
26.982 1 55 14.0907 4.11616 2.09347 3.24214 1.29433 2.4886 0.0658278 0.152365 -0.307884 0 0 0 0 0 0 0 0 0 
26.982 1 57 16.0841 4.15271 -0.0127593 7.3653 -3.13647 2.48831 -0.041492 0.0496835 -0.12292 0 0 0 0 0 0 0 0 0 
26.982 1 214 14.0911 2.17839 3.96849 1.68888 0.629244 -2.60626 -0.0177105 -0.160729 0.165777 0 0 0 0 0 0 0 0 0 
26.982 1 257 16.111 4.21025 4.07298 -1.58029 -5.16572 -4.86761 0.0430557 -0.161408 -0.347266 0 0 0 0 0 0 0 0 0 
26.982 1 218 18.3383 2.22362 4.11112 -4.5178 -1.64511 -0.303114 -0.70872 0.102323 -0.767515 0 0 0 0 0 0 0 0 0 
26.982 1 18 18.1539 2.09602 -0.166885 0.312524 1.07297 1.42839 -0.327892 0.0642071 0.192853 0 0 0 0 0 0 0 0 0 
26.982 1 819 18.1431 0.00829852 18.1105 3.29708 -0.906834 2.53617 -0.00335716 0.465275 0.489795 0 0 0 0 0 0 0 0 0 
26.982 1 2813 12.1491 20.3573 16.1855 -1.37439 -3.55877 3.53741 -0.090266 -0.371469 -0.337342 0 0 0 0 0 0 0 0 0 
26.982 1 22 22.2035 2.16014 0.145999 5.02414 -1.40031 -1.68301 0.445098 0.0954262 -0.588577 0 0 0 0 0 0 0 0 0 
26.982 1 24 20.3176 2.14335 1.97482 -0.390583 -1.80607 1.96908 -0.362558 0.366522 0.48084 0 0 0 0 0 0 0 0 0 
26.982 1 59 18.0644 4.23418 1.90303 3.54478 0.88395 0.12263 -0.00927985 -0.422397 0.405577 0 0 0 0 0 0 0 0 0 
26.982 1 61 20.0727 4.07408 -0.0951337 -1.34101 -0.238647 0.866759 0.316318 0.54484 0.347535 0 0 0 0 0 0 0 0 0 
26.982 1 63 22.1928 4.34497 1.96577 -3.34827 -2.1989 -0.897195 0.381686 -0.808216 -0.0107617 0 0 0 0 0 0 0 0 0 
26.982 1 222 22.2129 2.10015 4.0462 8.18981 -2.56237 -1.00627 0.204447 0.186918 -0.174123 0 0 0 0 0 0 0 0 0 
26.982 1 261 20.2388 4.27856 4.04956 -3.60467 -0.123739 0.668112 -0.0114998 -0.480682 -0.362194 0 0 0 0 0 0 0 0 0 
26.982 1 25 24.3099 0.213493 0.0449474 -9.23585 1.47912 3.33887 -0.0972213 -0.373602 -0.105585 0 0 0 0 0 0 0 0 0 
26.982 1 635 34.6273 0.206298 14.3556 3.1203 0.456082 8.97893 0.670572 -0.389945 -0.383154 0 0 0 0 0 0 0 0 0 
26.982 1 27 26.272 0.133361 2.03094 -1.85022 0.0961309 -0.990421 0.166297 -0.0980771 -0.283471 0 0 0 0 0 0 0 0 0 
26.982 1 28 24.2295 2.05656 2.02576 0.0209666 -1.04014 -0.698187 0.11715 0.673856 0.0530592 0 0 0 0 0 0 0 0 0 
26.982 1 65 24.3994 4.229 -0.155231 -3.42943 -1.11605 -3.39482 -0.47644 -0.460499 0.685411 0 0 0 0 0 0 0 0 0 
26.982 1 67 26.4278 4.23569 1.80393 1.96195 -0.431462 3.66378 -0.177128 -0.532185 0.645828 0 0 0 0 0 0 0 0 0 
26.982 1 225 24.3673 0.0232358 4.05021 -5.3797 -0.370489 -1.54975 -0.14326 0.012126 0.0420242 0 0 0 0 0 0 0 0 0 
26.982 1 226 26.2558 2.06699 3.97062 -0.292493 -4.15752 3.86618 0.00771624 0.479052 0.103932 0 0 0 0 0 0 0 0 0 
26.982 1 265 24.2321 4.23578 3.99769 -2.67872 -0.452018 1.37595 0.569859 -0.731416 -0.0374866 0 0 0 0 0 0 0 0 0 
26.982 1 30 30.7194 1.99672 0.0262581 0.468366 -2.82529 -2.05635 -0.533077 0.162418 0.246857 0 0 0 0 0 0 0 0 0 
26.982 1 32 28.4051 2.25431 2.05277 -1.02174 0.709524 -3.00627 0.034494 -0.535506 -0.480115 0 0 0 0 0 0 0 0 0 
26.982 1 69 28.5544 4.01076 -0.168559 0.442592 -2.86154 -0.793462 -0.0399398 0.18242 0.256756 0 0 0 0 0 0 0 0 0 
26.982 1 71 30.6014 4.13761 1.96501 -3.86656 1.7292 1.90143 -0.340549 -0.322698 0.213151 0 0 0 0 0 0 0 0 0 
26.982 1 230 30.4594 2.02087 3.94226 1.75912 3.9753 -1.36449 0.383057 -0.241446 0.237161 0 0 0 0 0 0 0 0 0 
26.982 1 269 28.4729 3.92115 4.08948 -6.5356 2.4657 -1.23403 -0.148145 0.854552 -0.242808 0 0 0 0 0 0 0 0 0 
26.982 1 35 34.8048 -0.171005 2.28623 -0.363996 -0.0469081 -3.77722 -0.354313 0.178274 -0.218223 0 0 0 0 0 0 0 0 0 
26.982 1 36 32.6811 2.05485 2.09876 1.42996 1.95518 1.47901 -0.178201 -0.443002 -0.00163601 0 0 0 0 0 0 0 0 0 
26.982 1 73 32.5514 4.08279 0.0750835 -2.30854 1.8646 -1.43886 0.535031 -0.0147058 -0.260416 0 0 0 0 0 0 0 0 0 
26.982 1 75 34.6532 3.94984 2.1586 3.63207 -0.105789 -0.93984 0.210756 0.344435 -0.271027 0 0 0 0 0 0 0 0 0 
26.982 1 234 34.7349 1.98683 4.09184 -0.181708 -0.280155 -5.78351 0.118884 -0.350468 0.281347 0 0 0 0 0 0 0 0 0 
26.982 1 273 32.6573 3.92008 4.09759 -1.78795 -1.51787 -0.901009 -0.215345 0.247653 -0.0189667 0 0 0 0 0 0 0 0 0 
26.982 1 4 41.0341 1.88637 2.11526 -3.38973 -4.60053 3.67228 0.156007 0.281733 -0.172656 0 0 0 0 0 0 0 0 0 
26.982 1 40 36.8084 2.03614 2.22192 4.01941 -2.19121 -1.61349 0.0206539 -0.297179 -0.395284 0 0 0 0 0 0 0 0 0 
26.982 1 79 38.8358 4.14597 2.09743 -1.7449 6.21979 3.94416 -0.114232 -0.260826 -0.00171626 0 0 0 0 0 0 0 0 0 
26.982 1 961 -0.481463 16.1111 16.0778 -2.12408 0.18035 5.07832 0.388748 0.239979 0.625693 0 0 0 0 0 0 0 0 0 
26.982 1 238 38.9627 2.00766 3.93196 -2.81054 1.31161 -2.37387 -0.268342 -0.0684791 0.465315 0 0 0 0 0 0 0 0 0 
26.982 1 277 36.7644 4.07667 4.0754 -4.50232 3.87983 0.386665 -0.115499 -0.177297 0.0774548 0 0 0 0 0 0 0 0 0 
26.982 1 631 30.5053 0.0427251 14.1675 -0.932762 1.80776 -1.72856 0.0589664 0.289882 0.0348184 0 0 0 0 0 0 0 0 0 
26.982 1 48 3.69908 6.1003 2.06646 -2.77724 -0.499537 0.269822 0.238622 -0.00205984 -0.0527649 0 0 0 0 0 0 0 0 0 
26.982 1 627 26.429 0.0298835 14.1462 2.08636 -6.67161 4.3039 0.22859 0.210893 -0.0823126 0 0 0 0 0 0 0 0 0 
26.982 1 83 1.82924 8.07823 2.18841 -5.2306 0.576062 -2.85336 -0.50401 -0.0808643 -0.222761 0 0 0 0 0 0 0 0 0 
26.982 1 403 1.87922 -0.171221 10.2497 -0.766063 -2.10581 0.315599 -0.275458 0.133847 -0.074746 0 0 0 0 0 0 0 0 0 
26.982 1 242 1.59674 6.04464 4.1228 -2.32445 -1.9688 1.34506 0.346874 -0.0719972 -0.287737 0 0 0 0 0 0 0 0 0 
26.982 1 285 3.8313 8.14407 4.19049 -2.79495 0.31316 4.64755 -0.293774 -0.247935 -0.100395 0 0 0 0 0 0 0 0 0 
26.982 1 46 5.95403 5.82933 0.127545 -0.962055 -0.0995192 -1.32046 -0.176406 0.846376 -0.376209 0 0 0 0 0 0 0 0 0 
26.982 1 52 7.95324 6.13474 2.03089 -2.94853 0.932198 2.30642 -2.40437e-05 -0.367327 -0.0653267 0 0 0 0 0 0 0 0 0 
26.982 1 87 5.75136 8.15027 2.14697 1.37929 -4.04398 1.63169 0.251823 -0.284742 -0.217303 0 0 0 0 0 0 0 0 0 
26.982 1 603 1.73988 -0.0823862 14.2268 1.48612 2.32878 3.0937 -0.292073 0.169955 -0.218081 0 0 0 0 0 0 0 0 0 
26.982 1 246 5.82293 6.07213 4.00278 1.27498 -3.23632 -4.32975 0.243986 0.131957 0.365154 0 0 0 0 0 0 0 0 0 
26.982 1 289 8.05531 8.0706 3.95238 -1.02068 3.44582 0.805937 -0.601726 0.215079 0.388944 0 0 0 0 0 0 0 0 0 
26.982 1 92 7.83967 10.1065 2.00294 -5.59731 -0.720293 1.35757 0.0611956 0.235753 0.36437 0 0 0 0 0 0 0 0 0 
26.982 1 286 5.80507 10.0817 4.28567 1.2846 -4.04314 -1.08458 0.188766 0.324838 -0.538456 0 0 0 0 0 0 0 0 0 
26.982 1 1021 20.1743 0.140188 20.269 -2.56993 -0.124987 -0.547175 0.208749 -0.086956 -0.101038 0 0 0 0 0 0 0 0 0 
26.982 1 56 12.1813 6.09325 2.06297 1.93382 -2.34856 2.80657 -0.421472 0.141227 -0.244569 0 0 0 0 0 0 0 0 0 
26.982 1 91 9.93594 8.14712 1.96895 -0.501401 0.919742 -0.653575 0.122799 -0.0961128 0.293548 0 0 0 0 0 0 0 0 0 
26.982 1 250 9.98569 6.08467 4.04186 0.533195 2.11763 4.03341 0.195127 -0.00712067 -0.25838 0 0 0 0 0 0 0 0 0 
26.982 1 293 11.9713 8.15745 4.08691 -3.00806 6.11394 -0.503665 -0.00568491 0.11916 -0.47796 0 0 0 0 0 0 0 0 0 
26.982 1 54 14.2407 6.25721 -0.105247 1.28933 -7.88422 -2.73141 -0.541417 -0.404397 0.249613 0 0 0 0 0 0 0 0 0 
26.982 1 60 15.9047 6.34005 2.09501 -0.653556 3.074 -0.049597 0.658281 -0.622124 -0.133113 0 0 0 0 0 0 0 0 0 
26.982 1 95 14.0561 8.27681 1.90949 -3.8851 2.65378 -1.87322 -0.0454434 -0.366032 0.0845639 0 0 0 0 0 0 0 0 0 
26.982 1 97 16.2048 8.17689 0.0119525 -1.55043 4.74403 1.22633 -0.350678 0.437851 -0.120662 0 0 0 0 0 0 0 0 0 
26.982 1 254 14.0156 6.32765 4.0495 -0.195984 1.66222 -3.3473 0.318839 -0.177806 0.322719 0 0 0 0 0 0 0 0 0 
26.982 1 297 16.1801 8.13598 4.13604 0.907179 4.57952 -2.82301 0.0366178 0.0981591 -0.366315 0 0 0 0 0 0 0 0 0 
26.982 1 58 18.1384 6.31931 0.0714846 5.13349 -2.56631 1.18486 0.0835339 -0.955944 -0.345897 0 0 0 0 0 0 0 0 0 
26.982 1 2639 38.6333 20.1994 14.2107 1.45156 2.24943 -0.0674728 0.467924 -0.0917188 -0.0354046 0 0 0 0 0 0 0 0 0 
26.982 1 64 20.1535 6.04697 1.97955 4.21078 -0.441493 0.337294 0.0893478 0.484817 -0.0554651 0 0 0 0 0 0 0 0 0 
26.982 1 99 18.2532 8.0808 2.00415 1.66501 0.846394 -1.20636 -0.188438 0.615418 0.494481 0 0 0 0 0 0 0 0 0 
26.982 1 103 22.3504 8.16168 1.98348 2.26459 4.16408 0.320035 -0.0896461 -0.165963 0.301605 0 0 0 0 0 0 0 0 0 
26.982 1 258 18.1648 6.15963 4.06457 1.9778 -3.74891 -1.6549 -0.0234255 -0.0720468 -0.225537 0 0 0 0 0 0 0 0 0 
26.982 1 262 22.3977 6.13399 4.06503 1.66729 -3.71849 -2.61559 -0.192757 0.403922 -0.0489796 0 0 0 0 0 0 0 0 0 
26.982 1 301 20.3602 8.02181 4.04878 1.62274 0.812405 1.9712 -0.276483 0.401919 -0.0702275 0 0 0 0 0 0 0 0 0 
26.982 1 298 18.2236 10.2062 4.02154 3.28545 -1.16985 -1.29381 0.219958 -0.247087 -0.0174318 0 0 0 0 0 0 0 0 0 
26.982 1 2637 36.6194 20.1371 12.2046 1.44623 -0.694939 0.278321 0.131166 -0.00805295 -0.0174852 0 0 0 0 0 0 0 0 0 
26.982 1 68 24.3172 6.16554 2.08264 -1.65463 -2.07071 -2.20339 0.163112 -0.0665562 -0.576293 0 0 0 0 0 0 0 0 0 
26.982 1 107 26.4438 8.15059 2.00856 0.552636 -1.99378 6.08908 0.42522 -0.00259837 -0.173623 0 0 0 0 0 0 0 0 0 
26.982 1 266 26.433 6.18436 3.93116 -1.34888 -1.79818 -3.02388 0.337599 -0.427307 0.308494 0 0 0 0 0 0 0 0 0 
26.982 1 305 24.5347 8.20696 3.90088 -1.65213 1.80018 -2.37009 -0.614017 0.0274304 0.435829 0 0 0 0 0 0 0 0 0 
26.982 1 106 26.3622 10.1296 0.0330073 -0.406352 4.99184 3.88149 0.495726 0.346496 -0.43788 0 0 0 0 0 0 0 0 0 
26.982 1 108 24.303 10.1816 1.83003 -4.39151 7.15887 1.75117 0.0323785 0.386025 0.811328 0 0 0 0 0 0 0 0 0 
26.982 1 306 26.3952 10.1325 3.92106 -2.63672 -2.66574 -1.8096 0.581282 0.0772726 0.181184 0 0 0 0 0 0 0 0 0 
26.982 1 70 30.5437 6.04084 -0.0579163 -2.04617 -1.09758 2.98553 -0.154106 0.122122 -0.0519948 0 0 0 0 0 0 0 0 0 
26.982 1 72 28.4741 6.13513 1.96151 3.46944 -1.45219 3.17219 0.109682 -0.261888 -0.0725409 0 0 0 0 0 0 0 0 0 
26.982 1 111 30.3941 8.19623 1.89014 2.97588 -0.235878 -3.18218 0.534492 -0.520768 0.213957 0 0 0 0 0 0 0 0 0 
26.982 1 270 30.5917 6.03411 3.97353 -0.103379 4.1999 -0.618187 -0.184822 -0.162369 0.0878149 0 0 0 0 0 0 0 0 0 
26.982 1 309 28.6292 8.08074 3.99406 0.0269219 -2.15514 -0.964661 -0.504598 0.240471 -0.0503389 0 0 0 0 0 0 0 0 0 
26.982 1 112 28.5277 10.1477 1.89834 1.51962 1.66146 -4.15739 -0.701362 -0.312624 0.478154 0 0 0 0 0 0 0 0 0 
26.982 1 76 32.5579 6.11352 2.09249 0.14812 -5.43707 -1.37331 -0.0532912 -0.450062 -0.514682 0 0 0 0 0 0 0 0 0 
26.982 1 115 34.5528 8.12539 1.91013 7.56589 2.74356 2.55072 0.530101 0.0897208 0.320155 0 0 0 0 0 0 0 0 0 
26.982 1 274 34.444 6.12776 4.05266 -2.84253 -3.23684 8.30823 1.02443 -0.222216 0.185849 0 0 0 0 0 0 0 0 0 
26.982 1 313 32.5129 7.96856 3.95018 -4.23591 -2.57936 -0.572699 0.0355797 0.962189 0.581527 0 0 0 0 0 0 0 0 0 
26.982 1 114 34.8463 10.2554 0.0116009 3.45835 -3.2486 -1.09757 -0.5368 -0.195329 -0.0392562 0 0 0 0 0 0 0 0 0 
26.982 1 116 32.6515 9.98333 2.02484 -0.530396 -0.417605 5.24363 -0.210957 0.503936 -0.0890858 0 0 0 0 0 0 0 0 0 
26.982 1 44 40.8679 5.93144 2.1061 0.566827 -3.19376 -3.98547 0.246697 0.344742 -0.22398 0 0 0 0 0 0 0 0 0 
26.982 1 281 40.8675 8.02386 4.0223 -4.64132 -2.51492 1.63882 -0.223828 0.169235 -0.0589102 0 0 0 0 0 0 0 0 0 
26.982 1 2631 30.6601 20.1894 14.1405 -1.10698 -3.75125 -0.890799 -0.100339 0.539529 -0.338335 0 0 0 0 0 0 0 0 0 
26.982 1 80 36.6759 6.26285 2.15171 0.271188 -2.45727 2.93489 0.0507907 -0.494647 -0.236041 0 0 0 0 0 0 0 0 0 
26.982 1 117 36.8402 8.2968 0.0150778 1.41039 -0.191471 -4.95523 -0.277882 -0.685636 0.406182 0 0 0 0 0 0 0 0 0 
26.982 1 119 38.8609 7.99741 1.98878 -2.44026 4.94392 1.94943 -0.111003 0.363123 0.399945 0 0 0 0 0 0 0 0 0 
26.982 1 278 38.6914 6.02445 4.16031 4.20444 0.255653 2.86129 0.52272 0.264991 -0.435729 0 0 0 0 0 0 0 0 0 
26.982 1 317 36.6112 8.2504 3.96227 -2.28147 0.671209 -0.444037 0.176667 -0.648167 0.489402 0 0 0 0 0 0 0 0 0 
26.982 1 120 36.7054 10.1576 2.03712 1.33319 6.61956 -2.19304 0.308514 0.0927273 -0.0375722 0 0 0 0 0 0 0 0 0 
26.982 1 318 38.7042 10.1034 4.14466 4.52962 -0.398918 1.01568 0.469723 0.205014 -0.506231 0 0 0 0 0 0 0 0 0 
26.982 1 88 3.77734 10.0301 2.16027 1.46463 -0.350469 -0.837657 -0.198475 0.411661 -0.142328 0 0 0 0 0 0 0 0 0 
26.982 1 2611 9.96833 20.3677 14.266 -0.291762 2.13629 3.21623 -0.242507 -0.655149 -0.357268 0 0 0 0 0 0 0 0 0 
26.982 1 123 1.72139 12.2016 2.22606 -0.427995 -2.00784 2.70268 -0.281008 -0.378614 -0.19077 0 0 0 0 0 0 0 0 0 
26.982 1 2609 7.80104 20.2407 12.0842 -0.73902 -0.0150944 -0.166608 0.252218 -0.154823 0.211632 0 0 0 0 0 0 0 0 0 
26.982 1 128 3.70242 14.1942 2.17839 -2.35051 0.406946 -3.54859 0.258752 0.0945952 -0.0377179 0 0 0 0 0 0 0 0 0 
26.982 1 282 1.69066 10.0815 4.2048 2.89379 -6.00618 -0.81953 -0.0554068 0.269427 -0.1 0 0 0 0 0 0 0 0 0 
26.982 1 322 1.68303 14.236 4.18857 -3.34343 -6.89276 -2.36382 -0.000553366 0.0701719 -0.224809 0 0 0 0 0 0 0 0 0 
26.982 1 325 3.76738 12.22 4.11713 -1.60521 1.68253 -2.34657 0.336954 -0.415162 -0.274642 0 0 0 0 0 0 0 0 0 
26.982 1 207 5.93659 0.177066 6.20307 -0.110662 1.38915 0.623628 -0.211466 -1.26641 -0.256497 0 0 0 0 0 0 0 0 0 
26.982 1 127 5.76241 11.9759 1.95712 6.66034 2.45179 -1.30514 0.0236108 0.58608 0.705054 0 0 0 0 0 0 0 0 0 
26.982 1 129 7.81044 12.2405 0.0658139 -1.83136 1.71874 2.69477 -0.0337859 -0.426255 -0.156317 0 0 0 0 0 0 0 0 0 
26.982 1 132 7.86511 14.0306 2.10779 -1.48756 -6.67387 1.49206 -0.268206 0.348626 -0.14074 0 0 0 0 0 0 0 0 0 
26.982 1 326 5.69446 14.2054 4.21327 1.00945 -6.28714 0.849195 0.222333 0.117914 -0.294057 0 0 0 0 0 0 0 0 0 
26.982 1 329 7.87428 12.2965 4.22029 -0.854979 -3.39868 5.05121 -0.452138 -1.1193 -0.596669 0 0 0 0 0 0 0 0 0 
26.982 1 96 11.9395 10.0924 1.99187 0.562076 3.51703 -0.196004 0.222094 0.151912 0.144925 0 0 0 0 0 0 0 0 0 
26.982 1 407 5.96924 0.0736018 10.1136 1.97905 2.69237 -4.57186 0.0401609 -0.178322 0.243129 0 0 0 0 0 0 0 0 0 
26.982 1 131 10.0772 12.0059 1.78704 -3.60162 -0.039259 2.3022 -0.674707 0.263781 0.590295 0 0 0 0 0 0 0 0 0 
26.982 1 133 12.0426 12.1886 -0.00870773 1.90085 -1.52308 2.5213 0.00244627 0.0305777 -0.172268 0 0 0 0 0 0 0 0 0 
26.982 1 136 11.9479 14.1407 2.09403 -3.69581 0.385014 -4.23529 0.138555 0.431064 -0.0857657 0 0 0 0 0 0 0 0 0 
26.982 1 290 9.86648 10.1811 4.01731 1.7258 -0.40486 4.38104 0.0378363 0.19655 -0.0823646 0 0 0 0 0 0 0 0 0 
26.982 1 330 9.84709 14.0839 3.98772 -0.982223 -1.47632 -0.936547 0.41639 0.552075 0.106069 0 0 0 0 0 0 0 0 0 
26.982 1 333 11.8475 12.1871 4.02656 5.56658 0.334966 -2.66844 0.685106 -0.330565 -0.329272 0 0 0 0 0 0 0 0 0 
26.982 1 100 16.1851 10.3059 2.06891 -1.08569 1.29581 -2.26231 -0.0324007 -0.531972 -0.0779251 0 0 0 0 0 0 0 0 0 
26.982 1 135 14.0514 12.1475 2.10946 5.54677 4.97986 -4.67859 -0.129094 0.0465402 0.0941501 0 0 0 0 0 0 0 0 0 
26.982 1 140 16.1366 14.285 2.03336 -2.53226 4.75898 2.31503 -0.0400832 0.171815 0.240143 0 0 0 0 0 0 0 0 0 
26.982 1 294 14.1206 9.88786 3.96383 -1.10557 -3.03451 -3.06718 -0.115935 0.996239 0.215124 0 0 0 0 0 0 0 0 0 
26.982 1 334 14.134 14.0907 4.15152 -0.905197 -3.05375 0.864984 0.0887593 0.220405 -0.399128 0 0 0 0 0 0 0 0 0 
26.982 1 337 16.266 12.2615 3.99394 -3.74213 -4.32552 -0.952746 -0.163081 0.0195822 0.370788 0 0 0 0 0 0 0 0 0 
26.982 1 104 20.2636 10.0984 2.00001 -1.07515 -1.44769 -0.490471 -0.178712 0.233408 0.0636772 0 0 0 0 0 0 0 0 0 
26.982 1 139 18.2139 12.2669 1.98085 -1.24037 -2.68833 1.05133 0.00536201 -0.285245 5.89177e-05 0 0 0 0 0 0 0 0 0 
26.982 1 143 22.227 12.2809 2.02457 -1.30216 -3.3356 -0.625334 0.246122 -0.284231 -0.0790825 0 0 0 0 0 0 0 0 0 
26.982 1 144 20.0868 14.1896 2.07602 3.09892 -2.59791 0.58024 0.662335 -0.0133677 -0.300468 0 0 0 0 0 0 0 0 0 
26.982 1 302 22.2283 10.1584 4.08374 -0.62766 -0.612588 -1.52862 0.437608 0.100734 -0.27073 0 0 0 0 0 0 0 0 0 
26.982 1 338 18.2532 14.3609 4.09014 -3.67814 -1.00616 -2.74035 -0.530947 -0.285272 0.0107933 0 0 0 0 0 0 0 0 0 
26.982 1 341 20.2112 12.1716 3.97873 3.21999 2.95311 0.411419 0.0449504 0.0466095 0.167544 0 0 0 0 0 0 0 0 0 
26.982 1 342 22.3768 14.1363 4.04874 -0.111553 0.158678 -3.78465 -0.0638835 0.0764132 0.114431 0 0 0 0 0 0 0 0 0 
26.982 1 147 26.4484 12.1049 1.96686 0.563348 -3.43572 0.606329 -0.162187 0.0770777 0.0220673 0 0 0 0 0 0 0 0 0 
26.982 1 148 24.329 14.255 1.99745 -0.892381 -0.585211 1.98152 -0.0285228 -0.350888 -0.0404265 0 0 0 0 0 0 0 0 0 
26.982 1 345 24.4579 12.0668 4.07872 -0.984216 0.724914 -0.159266 -0.4633 0.347521 -0.231003 0 0 0 0 0 0 0 0 0 
26.982 1 346 26.4541 14.1739 3.80326 -1.63625 6.24535 -0.0440567 -0.160335 -0.0853276 0.554008 0 0 0 0 0 0 0 0 0 
26.982 1 110 30.4852 10.0782 -0.023376 -8.71907 0.208202 0.526972 0.440778 -0.0485639 -0.602776 0 0 0 0 0 0 0 0 0 
26.982 1 149 28.4722 12.0599 -0.0428855 2.28878 0.615936 -2.24049 -0.293463 0.248499 -0.357982 0 0 0 0 0 0 0 0 0 
26.982 1 1025 24.3251 -0.00288482 20.2597 3.08623 -0.778194 -2.06786 -0.295917 0.130178 0.131607 0 0 0 0 0 0 0 0 0 
26.982 1 151 30.4257 11.9479 2.03889 0.54597 2.82249 -0.915003 0.617627 0.699698 -0.299071 0 0 0 0 0 0 0 0 0 
26.982 1 152 28.4413 14.1234 2.00564 0.821177 -0.933777 -0.822681 0.249955 0.135342 -0.365467 0 0 0 0 0 0 0 0 0 
26.982 1 310 30.5623 10.1376 4.00633 3.50053 -3.54949 -3.50878 -0.0199937 -0.29867 0.139279 0 0 0 0 0 0 0 0 0 
26.982 1 349 28.5291 12.1433 4.03948 -1.44 -1.5724 -0.732185 -0.248716 -0.030121 -0.164713 0 0 0 0 0 0 0 0 0 
26.982 1 350 30.4747 14.2098 3.87834 1.6712 -0.723678 4.70407 0.161376 -0.222208 0.353031 0 0 0 0 0 0 0 0 0 
26.982 1 203 1.75856 0.0802254 6.10996 2.14852 -0.112248 1.16369 0.130503 -0.0508434 0.171695 0 0 0 0 0 0 0 0 0 
26.982 1 155 34.4955 12.2812 2.04166 -4.59491 1.28377 -0.0499423 0.291112 -0.344986 -0.0232608 0 0 0 0 0 0 0 0 0 
26.982 1 156 32.4437 14.0158 1.83754 0.332054 0.544055 1.9685 0.162799 0.334957 0.345183 0 0 0 0 0 0 0 0 0 
26.982 1 314 34.762 10.1963 4.03228 2.71048 -3.20218 1.60419 -0.714049 -0.126579 0.158234 0 0 0 0 0 0 0 0 0 
26.982 1 353 32.5376 12.1308 4.03713 0.302633 -1.29675 -2.31191 0.165266 0.255836 -0.342319 0 0 0 0 0 0 0 0 0 
26.982 1 354 34.7338 14.3278 4.10344 6.79782 1.88066 -3.66201 -0.648741 -0.0440574 0.466108 0 0 0 0 0 0 0 0 0 
26.982 1 84 -0.494085 10.2173 2.12023 -0.617929 0.10291 3.84946 0.364277 -0.197067 0.159429 0 0 0 0 0 0 0 0 0 
26.982 1 124 -0.492876 14.0931 2.17955 1.77687 -1.59841 1.93907 0.529759 0.553235 -0.251116 0 0 0 0 0 0 0 0 0 
26.982 1 321 -0.432284 12.2819 4.20842 2.81905 2.31879 2.37148 0.380779 -0.601531 0.0856933 0 0 0 0 0 0 0 0 0 
26.982 1 158 38.7784 14.2597 0.0375236 -3.73942 -4.63616 -7.25845 -0.645626 -0.0101249 0.59138 0 0 0 0 0 0 0 0 0 
26.982 1 159 38.7873 12.2659 2.14371 -0.328212 -3.00496 -3.20107 -0.460865 -0.413813 -0.0866477 0 0 0 0 0 0 0 0 0 
26.982 1 160 36.5112 14.2943 2.16104 -1.83398 -3.62376 -2.13041 0.821711 -0.344964 -0.409726 0 0 0 0 0 0 0 0 0 
26.982 1 357 36.6413 12.1828 3.95651 -1.64343 0.451268 -1.11057 0.208816 0.139091 0.269771 0 0 0 0 0 0 0 0 0 
26.982 1 358 38.7874 14.2998 4.08113 -0.841218 2.59903 -2.84554 -0.426332 -0.396489 0.323451 0 0 0 0 0 0 0 0 0 
26.982 1 163 1.63612 16.2863 2.17258 3.49424 0.50486 3.83765 -0.389398 -0.210427 -0.0890488 0 0 0 0 0 0 0 0 0 
26.982 1 164 -0.6432 18.2557 2.08757 -5.75086 1.23981 -1.17939 0.556286 -0.278573 0.0308728 0 0 0 0 0 0 0 0 0 
26.982 1 829 28.4424 0.108091 16.0926 -2.13006 1.05553 3.33537 0.098209 -0.226858 0.397561 0 0 0 0 0 0 0 0 0 
26.982 1 168 3.63397 18.1032 2.09764 0.155888 1.38971 2.61741 0.433993 0.438322 -0.193352 0 0 0 0 0 0 0 0 0 
26.982 1 361 -0.38005 16.0293 4.20447 1.9584 -2.37296 0.398772 -0.00480328 0.692959 0.0274431 0 0 0 0 0 0 0 0 0 
26.982 1 362 1.46416 18.2637 4.11065 0.517644 0.497375 -4.87537 0.346018 0.0524627 -0.20625 0 0 0 0 0 0 0 0 0 
26.982 1 365 3.59436 16.3911 4.23081 0.0454168 3.00672 2.20112 0.248877 -0.816747 -0.661771 0 0 0 0 0 0 0 0 0 
26.982 1 964 -0.521254 17.9239 18.2906 1.13313 -2.35454 -3.55416 1.00583 0.720451 -0.845691 0 0 0 0 0 0 0 0 0 
26.982 1 405 3.94744 0.0701803 8.16431 -0.721421 4.26926 3.219 -0.303109 -0.545683 -0.275465 0 0 0 0 0 0 0 0 0 
26.982 1 167 5.9121 16.1074 2.117 5.85349 -0.908362 -0.944202 -0.205547 0.0696401 0.0175534 0 0 0 0 0 0 0 0 0 
26.982 1 2239 38.759 20.2568 6.21574 3.35194 -4.86105 2.81837 0.00618451 0.111961 0.0862167 0 0 0 0 0 0 0 0 0 
26.982 1 172 7.91586 18.2805 2.11618 -1.53494 2.65995 -0.201072 -0.0745543 -0.416411 -0.273483 0 0 0 0 0 0 0 0 0 
26.982 1 366 5.83161 18.1706 4.03883 1.69393 2.7367 5.55947 -0.26662 0.18904 -0.0541684 0 0 0 0 0 0 0 0 0 
26.982 1 369 7.97836 16.2265 4.1627 -1.70687 -3.61042 -1.17186 -0.493884 -0.260143 -0.197057 0 0 0 0 0 0 0 0 0 
26.982 1 170 9.99524 18.2588 0.0259695 -4.21888 -1.65177 -1.82978 -0.150062 -0.0466917 0.0475811 0 0 0 0 0 0 0 0 0 
26.982 1 171 9.80636 16.27 2.09621 1.04519 -1.20827 2.41091 0.424513 -0.367245 -0.143369 0 0 0 0 0 0 0 0 0 
26.982 1 2427 26.5542 20.1706 10.0628 3.34251 4.89783 -2.57743 -0.265454 0.0355234 -0.510522 0 0 0 0 0 0 0 0 0 
26.982 1 176 11.9101 18.2634 2.11662 0.468437 0.545057 -3.26754 0.498627 -0.32188 -0.147361 0 0 0 0 0 0 0 0 0 
26.982 1 370 10.0595 18.2326 4.1994 2.26796 2.28088 -1.28006 -0.447622 -0.392659 -0.449171 0 0 0 0 0 0 0 0 0 
26.982 1 373 12.0722 16.2702 4.1712 -2.85281 -4.65157 2.49107 -0.243635 -0.257949 -0.379076 0 0 0 0 0 0 0 0 0 
26.982 1 997 36.5336 16.082 16.3454 -3.2401 -6.96473 0.676285 0.537426 0.107846 -0.52683 0 0 0 0 0 0 0 0 0 
26.982 1 998 38.8461 18.0316 16.2012 -0.350619 1.97452 3.66697 -0.428706 0.713828 -0.175759 0 0 0 0 0 0 0 0 0 
26.982 1 175 14.0543 16.2645 2.12162 -5.22647 -2.5559 3.34822 -0.060743 -0.326808 0.120131 0 0 0 0 0 0 0 0 0 
26.982 1 177 16.1487 16.2555 -0.010731 2.51582 -2.21766 3.57097 0.278538 -0.327285 0.0760758 0 0 0 0 0 0 0 0 0 
26.982 1 180 16.1911 18.236 2.02411 5.47494 -0.928412 -2.48962 -0.00754776 -0.310116 0.312617 0 0 0 0 0 0 0 0 0 
26.982 1 374 14.2207 18.2362 4.1925 -2.19797 -0.277995 -0.264281 -0.874966 0.328054 -0.460743 0 0 0 0 0 0 0 0 0 
26.982 1 377 16.0268 16.3387 4.24451 -2.27781 -1.8484 3.05314 0.551142 -0.901801 -0.594129 0 0 0 0 0 0 0 0 0 
26.982 1 2015 14.2113 20.2041 1.97798 -0.946861 5.89574 6.41548 -0.233518 -0.326375 0.851858 0 0 0 0 0 0 0 0 0 
26.982 1 178 18.1474 18.2841 -0.0375332 3.40492 3.19162 -0.367744 0.495855 -0.37167 -0.0327518 0 0 0 0 0 0 0 0 0 
26.982 1 179 18.2463 16.2175 2.00401 3.2097 2.64662 -2.48107 -0.27639 0.0571562 -0.180426 0 0 0 0 0 0 0 0 0 
26.982 1 183 22.2728 16.1211 1.98302 0.817581 -3.35887 -2.32126 -0.076918 0.0931568 0.066737 0 0 0 0 0 0 0 0 0 
26.982 1 184 20.302 18.2039 1.92388 -0.860816 -0.816998 2.45868 -0.0625024 -0.210248 0.131247 0 0 0 0 0 0 0 0 0 
26.982 1 378 18.1733 18.0763 4.00632 2.13556 -5.45706 -1.48824 0.249342 0.426468 0.0891464 0 0 0 0 0 0 0 0 0 
26.982 1 381 20.3041 16.1366 4.09836 -3.70875 -0.507186 3.10285 0.268183 0.509879 -0.184529 0 0 0 0 0 0 0 0 0 
26.982 1 382 22.3068 18.2158 3.92671 3.68818 3.69342 -3.88184 -0.026896 -0.242622 0.435531 0 0 0 0 0 0 0 0 0 
26.982 1 2023 22.3113 20.3021 1.92341 -1.60663 1.92551 -2.65299 -0.192766 -0.0292537 0.167765 0 0 0 0 0 0 0 0 0 
26.982 1 999 38.6811 16.1557 18.178 1.49943 1.37197 -1.33007 -0.128398 -0.474506 0.166566 0 0 0 0 0 0 0 0 0 
26.982 1 186 26.3671 18.4431 0.0249895 -2.44851 -1.47372 -2.86633 0.405318 -0.654806 -0.241808 0 0 0 0 0 0 0 0 0 
26.982 1 187 26.484 16.2159 1.81629 -3.61598 -2.2306 -3.30335 -0.192041 0.437454 0.472838 0 0 0 0 0 0 0 0 0 
26.982 1 188 24.1675 18.2045 1.93953 -2.99142 1.51846 5.43435 0.73922 -0.0993706 0.32641 0 0 0 0 0 0 0 0 0 
26.982 1 385 24.4225 16.1053 3.97751 -0.795102 -2.02253 1.03286 -0.0331303 0.491529 0.111207 0 0 0 0 0 0 0 0 0 
26.982 1 386 26.5316 18.1573 4.00693 7.17549 -0.219052 5.35864 -0.620748 0.0692481 -0.0253766 0 0 0 0 0 0 0 0 0 
26.982 1 2225 24.2846 20.1765 3.95433 0.911977 3.83688 2.46418 0.414437 -0.0776125 0.163909 0 0 0 0 0 0 0 0 0 
26.982 1 191 30.6928 16.2242 2.02544 0.543702 2.24532 4.06731 -0.828204 0.00997708 -0.232714 0 0 0 0 0 0 0 0 0 
26.982 1 192 28.5192 18.2316 2.03074 0.176196 3.13285 -0.655929 -0.212477 -0.220808 -0.45879 0 0 0 0 0 0 0 0 0 
26.982 1 389 28.4279 16.2174 3.91975 -0.914274 0.607784 -0.971667 0.357893 -0.269292 0.152545 0 0 0 0 0 0 0 0 0 
26.982 1 390 30.3936 18.4627 4.10649 3.85944 2.93197 -4.61833 0.876606 -0.798749 -0.39782 0 0 0 0 0 0 0 0 0 
26.982 1 2425 24.392 20.1579 7.98498 -2.8988 2.99538 -6.56702 -0.00735773 0.746174 0.328185 0 0 0 0 0 0 0 0 0 
26.982 1 195 34.7311 16.3104 2.09282 -5.45437 2.27482 0.274304 -0.813692 -0.130018 0.103842 0 0 0 0 0 0 0 0 0 
26.982 1 196 32.6417 18.1415 1.99379 -4.81062 -6.5699 1.08163 -0.0505952 0.44662 0.171122 0 0 0 0 0 0 0 0 0 
26.982 1 393 32.4625 16.2469 4.00761 1.37017 -7.97233 1.51232 0.790915 -0.12695 0.256761 0 0 0 0 0 0 0 0 0 
26.982 1 394 34.6432 18.3842 4.11344 8.16857 0.31306 -1.77799 0.0458664 0.104475 -0.169733 0 0 0 0 0 0 0 0 0 
26.982 1 2035 34.5161 20.3109 1.80445 -1.9352 -0.463671 -1.049 0.506747 -0.254187 0.676404 0 0 0 0 0 0 0 0 0 
26.982 1 199 38.7766 16.2158 2.2677 -2.95842 -0.652592 -0.310062 -0.153024 0.154544 -0.794268 0 0 0 0 0 0 0 0 0 
26.982 1 200 36.59 18.3315 2.17849 1.50469 3.27089 -1.63524 0.278012 0.381187 -0.627531 0 0 0 0 0 0 0 0 0 
26.982 1 397 36.758 16.4421 4.08153 -0.21797 2.14579 -1.47787 -0.231736 -0.527773 0.692096 0 0 0 0 0 0 0 0 0 
26.982 1 398 38.702 18.3553 4.11898 3.20739 2.65534 0.90566 0.0433543 -0.285655 0.203923 0 0 0 0 0 0 0 0 0 
26.982 1 1000 36.7235 18.2219 18.1797 -2.30939 -1.92737 0.907497 0.141584 -0.242407 -0.141588 0 0 0 0 0 0 0 0 0 
26.982 1 208 3.85959 2.13569 6.19226 3.66102 -0.951624 3.56196 -0.215621 -0.129416 -0.346248 0 0 0 0 0 0 0 0 0 
26.982 1 243 1.79628 4.05809 6.05431 2.58285 -0.430002 -4.14433 -0.0425826 -0.00744878 0.433042 0 0 0 0 0 0 0 0 0 
26.982 1 402 1.83283 1.96012 8.14338 -5.78106 1.42666 0.608006 -0.216017 0.0965319 -0.174112 0 0 0 0 0 0 0 0 0 
26.982 1 441 40.9835 4.11793 8.08096 0.632048 1.14362 -0.433116 -0.46091 -0.314556 0.0721443 0 0 0 0 0 0 0 0 0 
26.982 1 445 3.92525 4.09846 8.17019 -6.35068 -0.938227 -0.278003 -0.523121 -0.0496296 -0.173058 0 0 0 0 0 0 0 0 0 
26.982 1 408 3.67429 1.84255 10.1711 2.13222 -2.76263 -0.176399 0.504076 0.690742 0.165109 0 0 0 0 0 0 0 0 0 
26.982 1 212 7.9647 1.87701 6.06166 -3.75113 -1.45166 -4.3782 0.752665 0.780622 0.0732897 0 0 0 0 0 0 0 0 0 
26.982 1 247 5.96825 4.07135 6.19312 -0.579522 0.848251 -0.0275853 0.136691 -0.0500925 -0.63534 0 0 0 0 0 0 0 0 0 
26.982 1 406 5.85562 2.03742 8.05953 0.672745 2.82425 0.537068 0.415267 0.384292 0.849563 0 0 0 0 0 0 0 0 0 
26.982 1 1194 34.7787 18.1107 20.228 -2.3713 -2.64791 -1.02759 -0.448803 0.0969454 -0.0901093 0 0 0 0 0 0 0 0 0 
26.982 1 449 7.93369 4.06587 8.18898 4.99087 -2.86026 7.1526 -0.170127 -0.0646519 -0.30998 0 0 0 0 0 0 0 0 0 
26.982 1 412 7.92637 2.20844 10.2329 1.12767 0.93706 3.53287 -0.326434 -0.207663 0.0404401 0 0 0 0 0 0 0 0 0 
26.982 1 447 5.66251 4.18721 10.2092 0.0413614 0.33326 0.873268 0.27027 -0.619082 -0.0701559 0 0 0 0 0 0 0 0 0 
26.982 1 211 10.2116 -0.143631 6.21386 1.91785 5.31019 -1.68267 -0.649989 0.239908 -0.456775 0 0 0 0 0 0 0 0 0 
26.982 1 216 11.9067 2.071 6.12471 -3.76872 1.92935 2.53093 0.258229 0.368678 -0.00526629 0 0 0 0 0 0 0 0 0 
26.982 1 251 9.95069 4.11386 6.15885 -0.24846 -1.88433 0.927126 -0.0660543 -0.308716 -0.283395 0 0 0 0 0 0 0 0 0 