ITEM: TIMESTEP
11250
ITEM: NUMBER OF ATOMS
4000
ITEM: BOX BOUNDS pp pp pp
-2.36067 42.8607
0.638871 39.8611
0.649286 39.8507
ITEM: ATOMS mass type id x y z vx vy vz fx fy fz xrad yrad zrad vxrad vyrad vzrad fxrad fyrad fzrad 
26.982 1 43 0.067207 4.66687 2.65518 -3.4736 1.60707 2.16746 -0.506753 -0.606875 -0.198193 0 0 0 0 0 0 0 0 0 
26.982 1 202 0.101651 2.60637 4.50958 2.77627 2.69725 2.689 -0.681095 0.122358 -0.217979 0 0 0 0 0 0 0 0 0 
26.982 1 4 -2.42203 2.7915 2.47778 -1.71891 1.00546 -3.52541 0.253405 -0.339514 0.268053 0 0 0 0 0 0 0 0 0 
26.982 1 245 2.12202 4.68326 4.6518 0.86011 2.92058 4.60454 0.220817 0.0196966 -0.254375 0 0 0 0 0 0 0 0 0 
26.982 1 2 -0.111492 2.55887 0.609067 -2.37422 3.15204 2.86828 -0.332242 0.551321 0.280401 0 0 0 0 0 0 0 0 0 
26.982 1 8 2.29269 2.77949 2.65942 6.15321 -1.39511 -0.342326 0.116211 -0.387414 0.184783 0 0 0 0 0 0 0 0 0 
26.982 1 7 4.55251 0.68278 2.55231 1.70593 5.02585 -2.0957 -0.271747 0.0857706 0.419402 0 0 0 0 0 0 0 0 0 
26.982 1 47 4.64441 4.57547 2.73465 0.448357 1.67209 -1.33126 -0.713644 -0.312419 0.231854 0 0 0 0 0 0 0 0 0 
26.982 1 206 4.4125 2.49886 4.765 1.28962 2.21771 8.65048 0.031381 0.382383 -0.172258 0 0 0 0 0 0 0 0 0 
26.982 1 209 6.64661 0.661662 4.7802 -1.78749 -1.76468 1.90872 0.0252698 -0.11635 -0.174258 0 0 0 0 0 0 0 0 0 
26.982 1 45 2.06645 4.38899 0.570485 1.30464 1.13568 0.35242 0.0210554 0.472385 -0.138924 0 0 0 0 0 0 0 0 0 
26.982 1 12 6.73014 2.49589 2.65309 -1.91928 -3.39979 -1.25267 -0.275243 -0.120623 0.191406 0 0 0 0 0 0 0 0 0 
26.982 1 249 6.67747 4.50073 4.73269 -4.39377 0.21346 -1.15723 -0.0668156 -0.0558025 -0.270324 0 0 0 0 0 0 0 0 0 
26.982 1 51 8.85927 4.62521 2.65655 0.804751 0.509119 1.57239 0.035536 0.428263 0.0288648 0 0 0 0 0 0 0 0 0 
26.982 1 210 8.91898 2.61005 4.41621 5.39617 1.70951 3.31707 0.27816 -0.396855 0.433525 0 0 0 0 0 0 0 0 0 
26.982 1 253 11.2387 4.63733 4.47316 -3.33816 -1.78929 -2.68783 -0.334277 -0.323878 -0.149202 0 0 0 0 0 0 0 0 0 
26.982 1 10 8.83633 2.55767 0.805719 4.26181 -2.78069 1.20152 0.250247 -0.372774 0.242881 0 0 0 0 0 0 0 0 0 
26.982 1 16 11.2128 2.395 2.58758 -3.3569 -3.19513 8.98815 -0.365501 0.326852 0.137815 0 0 0 0 0 0 0 0 0 
26.982 1 55 13.4139 4.56166 2.51887 -3.93346 -1.55982 1.17377 0.119308 -0.409527 -0.449336 0 0 0 0 0 0 0 0 0 
26.982 1 214 13.537 2.55152 4.393 2.14997 4.83369 -1.41065 -0.246755 0.31608 0.632021 0 0 0 0 0 0 0 0 0 
26.982 1 14 13.2877 2.49066 0.680967 0.740782 1.53977 2.19637 0.353071 0.359053 -0.341755 0 0 0 0 0 0 0 0 0 
26.982 1 20 15.5229 2.39118 2.5408 5.33193 -5.00624 3.40881 0.548953 0.328583 -0.0888406 0 0 0 0 0 0 0 0 0 
26.982 1 15 13.3291 0.65189 2.61751 0.879257 -1.25098 2.24295 0.506322 -0.670146 -0.356873 0 0 0 0 0 0 0 0 0 
26.982 1 53 11.1871 4.52728 0.910462 -0.540079 -1.9256 4.61345 -0.222325 0.27381 -0.441124 0 0 0 0 0 0 0 0 0 
26.982 1 13 11.295 0.547472 0.48095 2.88151 -3.20375 6.23784 -0.338011 -0.267611 0.590738 0 0 0 0 0 0 0 0 0 
26.982 1 257 15.613 4.39154 4.3336 -1.93203 7.90224 -2.9526 0.436436 0.375786 0.302622 0 0 0 0 0 0 0 0 0 
26.982 1 218 18.1632 2.43595 4.50228 -3.96385 0.921888 -6.71081 -0.514455 0.160037 -0.0532538 0 0 0 0 0 0 0 0 0 
26.982 1 59 18.0579 4.333 2.6809 -1.30423 -3.37844 -0.0468275 -0.181391 0.727376 -0.0499761 0 0 0 0 0 0 0 0 0 
26.982 1 18 17.8678 2.38982 0.638197 -4.54431 -2.29671 -4.82571 0.227695 0.301589 0.195413 0 0 0 0 0 0 0 0 0 
26.982 1 24 20.2199 2.61135 2.62614 1.1102 -2.83931 -1.40974 -0.0469646 -0.229922 -0.374108 0 0 0 0 0 0 0 0 0 
26.982 1 19 17.8755 0.405928 2.69456 -1.616 5.32049 6.09248 0.477864 0.746907 -0.473711 0 0 0 0 0 0 0 0 0 
26.982 1 57 15.9381 4.60688 0.815844 1.43043 -4.40337 -5.14429 -0.452711 -0.124 0.0262213 0 0 0 0 0 0 0 0 0 
26.982 1 261 20.5539 4.6205 4.50957 -0.321391 -1.4383 1.75181 -1.22633 0.225645 0.0229681 0 0 0 0 0 0 0 0 0 
26.982 1 63 22.5391 4.48421 2.47932 0.11977 -6.25393 3.52281 -0.0448837 -0.0100653 0.0008387 0 0 0 0 0 0 0 0 0 
26.982 1 222 22.2753 2.67919 4.50548 -0.218992 -2.69534 0.415522 0.961823 -0.734751 -0.121157 0 0 0 0 0 0 0 0 0 
26.982 1 23 22.3639 0.505465 2.71187 0.0140315 -1.55624 3.09316 0.455571 0.322703 -0.173427 0 0 0 0 0 0 0 0 0 
26.982 1 221 20.2403 0.682646 4.49497 4.30517 -1.24996 -2.88639 0.0120086 -0.768771 0.128968 0 0 0 0 0 0 0 0 0 
26.982 1 22 22.4623 2.35071 0.671259 -3.01241 8.02631 1.56562 -0.093522 0.311316 0.247138 0 0 0 0 0 0 0 0 0 
26.982 1 28 24.615 2.61285 2.5221 -1.23539 -1.87544 -2.13932 -0.0125052 -0.183836 0.134141 0 0 0 0 0 0 0 0 0 
26.982 1 265 24.6733 4.54996 4.46265 -2.55014 4.96217 -1.96122 0.0794193 0.268961 0.203478 0 0 0 0 0 0 0 0 0 
26.982 1 67 26.8822 4.56477 2.47171 2.98449 1.04032 -0.951441 0.185328 0.680443 -0.060226 0 0 0 0 0 0 0 0 0 
26.982 1 226 26.8474 2.82364 4.47621 2.91415 1.19206 -2.71119 0.336363 -0.603827 0.27344 0 0 0 0 0 0 0 0 0 
26.982 1 32 29.0994 2.73284 2.51629 -1.56398 -0.614557 -2.02856 0.160407 0.0467771 -0.130739 0 0 0 0 0 0 0 0 0 
26.982 1 65 24.6919 4.53427 0.44171 -0.494983 -2.44181 2.21242 -0.0489235 0.166458 -0.272648 0 0 0 0 0 0 0 0 0 
26.982 1 229 29.3417 0.751974 4.43911 -4.55787 -0.198799 -0.871406 -0.0129953 -0.325463 -0.0445997 0 0 0 0 0 0 0 0 0 
26.982 1 25 24.7127 0.522873 0.743953 4.24948 -2.30691 6.84157 -0.204633 0.290583 0.383435 0 0 0 0 0 0 0 0 0 
26.982 1 26 26.8392 2.81096 0.517157 -1.78741 -5.29838 2.49002 0.325183 -0.556305 0.21298 0 0 0 0 0 0 0 0 0 
26.982 1 269 29.6705 4.50408 4.48273 -2.27094 -0.964817 -4.72913 -0.459775 0.060508 0.0591023 0 0 0 0 0 0 0 0 0 
26.982 1 71 31.6689 4.46301 2.46472 -2.3186 3.39575 1.09945 -0.264747 0.100978 0.160493 0 0 0 0 0 0 0 0 0 
26.982 1 230 31.8249 2.46831 4.65269 -0.117868 -0.378749 0.0952364 -0.581285 -0.197195 0.242563 0 0 0 0 0 0 0 0 0 
26.982 1 273 33.7434 4.4766 4.42784 1.78185 -1.21692 -2.38932 0.0988939 0.630264 0.819642 0 0 0 0 0 0 0 0 0 
26.982 1 36 33.7582 2.53637 2.68902 -1.05724 -2.83162 -2.4359 0.391762 -0.270512 -0.654036 0 0 0 0 0 0 0 0 0 
26.982 1 233 34.0991 0.576064 4.64391 1.92639 -3.04969 -1.52294 -0.339808 -0.0233431 -0.0943568 0 0 0 0 0 0 0 0 0 
26.982 1 75 35.9202 4.62711 2.71589 -0.527722 2.58573 -2.39814 0.457662 -0.00287306 -0.704972 0 0 0 0 0 0 0 0 0 
26.982 1 234 36.0672 2.70897 4.47659 -3.72693 0.940065 7.87586 0.283253 -0.641663 0.106261 0 0 0 0 0 0 0 0 0 
26.982 1 34 36.0635 2.60845 0.672208 3.16759 -0.55286 -3.16276 0.0441495 -0.183948 0.401311 0 0 0 0 0 0 0 0 0 
26.982 1 241 43.0536 4.37399 4.68288 0.0739513 2.53901 4.92307 -0.243785 0.0892492 -0.470072 0 0 0 0 0 0 0 0 0 
26.982 1 77 38.0232 4.64021 0.658007 2.37956 -1.24881 2.65642 0.561546 -0.0271027 0.0832637 0 0 0 0 0 0 0 0 0 
26.982 1 277 38.4367 4.503 4.66075 2.98724 -3.08454 -1.08755 0.0225376 0.506108 -0.29004 0 0 0 0 0 0 0 0 0 
26.982 1 40 38.321 2.74385 2.68903 -0.206096 -1.61886 -2.45005 0.0123008 -0.533438 -0.369739 0 0 0 0 0 0 0 0 0 
26.982 1 79 40.4051 4.61561 2.58374 3.02254 0.921506 -0.923352 0.53964 -0.0596013 -0.090615 0 0 0 0 0 0 0 0 0 
26.982 1 238 40.7741 2.61635 4.49529 -4.88201 1.08764 1.6362 -0.540775 0.00220153 0.204274 0 0 0 0 0 0 0 0 0 
26.982 1 39 40.6795 0.63135 2.70183 -0.527253 -1.78619 4.17048 -0.211705 0.275912 -0.273017 0 0 0 0 0 0 0 0 0 
26.982 1 83 0.0151816 8.47225 2.64368 -2.92611 -0.096787 1.92797 -0.224925 -0.469141 -0.124952 0 0 0 0 0 0 0 0 0 
26.982 1 242 -0.166908 6.5331 4.58454 -2.22627 -4.36245 2.51759 0.0678114 -0.0194126 0.167446 0 0 0 0 0 0 0 0 0 
26.982 1 84 -2.33278 10.5331 2.51024 0.45543 1.68775 -1.70027 -0.175921 -0.506488 0.535011 0 0 0 0 0 0 0 0 0 
26.982 1 281 -2.49729 8.43031 4.45773 -2.08409 -0.510459 -0.662418 0.53766 -0.0287893 0.0519649 0 0 0 0 0 0 0 0 0 
26.982 1 44 -2.41485 6.29281 2.67645 -0.371336 -3.97288 1.55539 0.0447769 0.13299 0.0127693 0 0 0 0 0 0 0 0 0 
26.982 1 285 2.16772 8.38718 4.53846 2.23492 -2.38143 -2.69942 0.00293254 -0.130203 -0.0399758 0 0 0 0 0 0 0 0 0 
26.982 1 88 2.26792 10.5266 2.75589 2.93779 -0.188162 -1.35583 -0.304259 -0.0541897 -0.450544 0 0 0 0 0 0 0 0 0 
26.982 1 48 2.02159 6.50522 2.39103 -1.73039 -0.393681 -3.18922 0.484958 -0.0821954 0.337685 0 0 0 0 0 0 0 0 0 
26.982 1 87 4.44214 8.38744 2.55618 -0.34775 -1.26398 -4.57442 -0.182071 0.197469 0.239106 0 0 0 0 0 0 0 0 0 
26.982 1 246 4.30503 6.43528 4.80823 -2.91116 -3.08817 3.26393 0.0102492 -0.126551 -0.801892 0 0 0 0 0 0 0 0 0 
26.982 1 289 6.59633 8.58854 4.51161 0.542174 0.796106 -3.28448 -0.0410289 -0.0171357 0.169218 0 0 0 0 0 0 0 0 0 
26.982 1 52 6.49611 6.58897 2.84063 -1.88404 -3.01951 1.84393 0.444439 -0.490974 -0.402076 0 0 0 0 0 0 0 0 0 
26.982 1 92 6.75011 10.5405 2.3852 -7.07698 -2.02756 -2.99468 -0.391367 -0.205645 0.541989 0 0 0 0 0 0 0 0 0 
26.982 1 46 4.34704 6.44377 0.694148 -1.54615 4.18718 1.96297 0.0185698 -0.0432426 -0.208407 0 0 0 0 0 0 0 0 0 
26.982 1 91 8.76884 8.3927 2.62413 -1.06737 -1.43852 -0.178228 0.0466776 0.11179 -0.272451 0 0 0 0 0 0 0 0 0 
26.982 1 250 8.8802 6.68934 4.67878 3.41696 -1.95077 0.202597 -0.324994 -1.0478 -0.304133 0 0 0 0 0 0 0 0 0 
26.982 1 290 8.80055 10.3534 4.51282 -0.0246277 1.58427 -4.20967 -0.0231341 0.528413 -0.282829 0 0 0 0 0 0 0 0 0 
26.982 1 293 11.0416 8.61527 4.60919 3.68996 -0.403822 -3.92646 0.319434 -0.0721179 0.10322 0 0 0 0 0 0 0 0 0 
26.982 1 96 11.0997 10.3962 2.55061 0.39036 -1.3825 1.29776 0.0696778 -0.0674868 -0.000851952 0 0 0 0 0 0 0 0 0 
26.982 1 89 6.56877 8.23772 0.512443 -1.16478 4.27134 3.81168 0.0379464 0.176558 0.322879 0 0 0 0 0 0 0 0 0 
26.982 1 56 11.0645 6.6481 2.74272 4.49666 -1.10833 -4.05107 0.210896 0.0753114 -0.542189 0 0 0 0 0 0 0 0 0 
26.982 1 95 13.3778 8.67111 2.92638 1.21949 -3.63573 -0.407462 -0.0770075 -0.574876 -0.782777 0 0 0 0 0 0 0 0 0 
26.982 1 254 13.4544 6.32995 4.35738 -1.00692 1.89441 0.946906 -0.028011 0.79374 1.02982 0 0 0 0 0 0 0 0 0 
26.982 1 294 13.364 10.4988 4.81565 2.36913 5.77296 0.253907 0.0376561 0.37277 -0.0502848 0 0 0 0 0 0 0 0 0 
26.982 1 297 15.5835 8.41871 4.57952 1.24298 -3.31683 0.73648 0.184636 0.466383 0.516294 0 0 0 0 0 0 0 0 0 
26.982 1 97 15.751 8.53692 0.731341 5.33036 1.36389 -1.0445 -0.00988457 -0.39759 0.302254 0 0 0 0 0 0 0 0 0 
26.982 1 94 13.4267 10.2378 0.675917 -0.128622 0.00905624 -0.677298 0.00993617 0.654117 0.365071 0 0 0 0 0 0 0 0 0 
26.982 1 54 13.6327 6.51313 0.651291 -5.13781 -0.699674 0.551043 -0.254996 0.625554 0.388045 0 0 0 0 0 0 0 0 0 
26.982 1 100 15.7255 10.5042 2.70291 -1.17477 -1.12273 3.40977 -0.266115 -0.318625 0.123372 0 0 0 0 0 0 0 0 0 
26.982 1 60 15.7271 6.59401 2.7826 -3.44819 -3.13094 2.49761 0.0579486 -0.222349 -0.93116 0 0 0 0 0 0 0 0 0 
26.982 1 99 17.9852 8.67185 2.73226 -1.21213 -2.04884 -8.99583 -0.271906 -0.379664 -0.519026 0 0 0 0 0 0 0 0 0 
26.982 1 258 17.9106 6.57152 4.49226 0.611275 -1.94037 0.532412 0.188903 -0.271143 -0.0109806 0 0 0 0 0 0 0 0 0 
26.982 1 64 20.2344 6.52593 2.6391 0.75482 -3.73149 -3.54998 -0.290069 0.0949901 -0.105224 0 0 0 0 0 0 0 0 0 
26.982 1 301 20.1719 8.47953 4.40175 -3.3279 -0.774452 2.62329 0.110923 0.0265517 0.837683 0 0 0 0 0 0 0 0 0 
26.982 1 104 20.2854 10.3276 2.48632 2.99741 -0.907056 -1.83389 -0.0361437 0.499644 0.331937 0 0 0 0 0 0 0 0 0 
26.982 1 103 22.487 8.5976 2.58274 -3.59913 -3.49788 2.63625 0.0920146 -0.451627 -0.0506456 0 0 0 0 0 0 0 0 0 
26.982 1 262 22.4284 6.54533 4.54994 -4.24043 -4.72897 4.80065 0.390857 0.286796 -0.0843927 0 0 0 0 0 0 0 0 0 
26.982 1 302 22.5595 10.3804 4.58295 1.87117 -1.91565 0.702573 0.181096 0.38219 -0.198894 0 0 0 0 0 0 0 0 0 
26.982 1 101 20.2159 8.43417 0.550757 6.5796 -0.70071 -1.24763 -0.100449 0.166091 -0.0109986 0 0 0 0 0 0 0 0 0 
26.982 1 305 24.6747 8.31848 4.35092 -1.57131 -2.51647 -2.26246 0.132933 0.495521 0.276269 0 0 0 0 0 0 0 0 0 
26.982 1 68 24.5906 6.39661 2.37082 -2.71156 -6.49163 3.26231 0.160985 0.363796 0.298486 0 0 0 0 0 0 0 0 0 
26.982 1 107 26.8877 8.39613 2.59003 -2.90785 -6.1347 -2.76098 0.254735 0.576155 -0.0215277 0 0 0 0 0 0 0 0 0 
26.982 1 266 27.2772 6.56585 4.43096 6.11561 -0.0334402 1.32575 -0.538721 -0.658865 0.224326 0 0 0 0 0 0 0 0 0 
26.982 1 306 27.0624 10.4388 4.66491 5.55228 0.952315 2.20803 -0.109623 -0.38222 -0.352499 0 0 0 0 0 0 0 0 0 
26.982 1 105 24.6895 8.59451 0.639965 -4.27854 -0.834028 3.28252 0.0362746 -0.506356 0.391655 0 0 0 0 0 0 0 0 0 
26.982 1 72 29.2501 6.43929 2.5088 1.87228 6.843 1.3926 0.0227052 -0.104536 -0.293488 0 0 0 0 0 0 0 0 0 
26.982 1 309 29.3678 8.33607 4.53324 0.470813 1.46661 -1.3019 -0.045978 0.944572 -0.609885 0 0 0 0 0 0 0 0 0 
26.982 1 111 31.5416 8.5002 2.58205 0.107039 1.31996 -2.14161 0.0361484 0.374546 0.466994 0 0 0 0 0 0 0 0 0 
26.982 1 270 31.6345 6.51666 4.51556 -1.36915 2.21496 -2.38331 0.0886158 -0.124923 -0.290241 0 0 0 0 0 0 0 0 0 
26.982 1 116 33.7977 10.3934 2.66109 -2.02786 -2.70249 5.81854 -0.120927 0.0653778 -0.0921166 0 0 0 0 0 0 0 0 0 
26.982 1 310 31.4144 10.6542 4.63467 0.940428 1.21181 1.92124 0.594118 -0.193527 -0.225351 0 0 0 0 0 0 0 0 0 
26.982 1 313 33.8872 8.40281 4.61274 3.00646 -1.70411 -0.790539 -0.0900184 0.352952 -0.0448747 0 0 0 0 0 0 0 0 0 
26.982 1 76 33.8361 6.5066 2.60936 -0.229558 -1.9349 2.88641 -0.14727 0.137724 0.0202629 0 0 0 0 0 0 0 0 0 
26.982 1 115 36.1894 8.41982 2.73415 1.83928 1.24983 4.3642 -0.243148 0.0289018 -0.0662304 0 0 0 0 0 0 0 0 0 
26.982 1 274 36.0556 6.40574 4.65251 -0.247082 2.85668 0.106315 0.0266003 0.570269 -0.0334254 0 0 0 0 0 0 0 0 0 
26.982 1 314 35.897 10.6105 4.62918 -2.0281 -4.33062 3.66704 0.538537 -0.385711 -0.085803 0 0 0 0 0 0 0 0 0 
26.982 1 113 33.7034 8.33801 0.579267 4.482 2.17281 2.62338 0.00507347 0.417132 0.00160828 0 0 0 0 0 0 0 0 0 
26.982 1 74 35.8472 6.58714 0.588473 -4.11401 -2.79863 -2.76713 0.686595 0.24437 0.302368 0 0 0 0 0 0 0 0 0 
26.982 1 80 38.4735 6.52024 2.57882 5.26692 1.93981 -4.33531 -0.648564 0.0194944 0.613436 0 0 0 0 0 0 0 0 0 
26.982 1 317 38.2102 8.3686 4.67541 2.02363 4.12142 2.93059 0.268172 0.135887 -0.237971 0 0 0 0 0 0 0 0 0 
26.982 1 119 40.7283 8.3831 2.54449 1.04657 3.35764 1.51359 -0.151486 0.263605 0.28901 0 0 0 0 0 0 0 0 0 
26.982 1 278 40.6737 6.51793 4.79819 -1.39354 3.42288 -3.65002 -0.36907 -0.159018 -0.441255 0 0 0 0 0 0 0 0 0 
26.982 1 117 38.2877 8.4963 0.721136 -3.34273 3.78661 0.672701 -0.166479 -0.125279 -0.431908 0 0 0 0 0 0 0 0 0 
26.982 1 78 40.3461 6.61363 0.620591 7.84698 -3.16872 0.255187 0.354452 -0.794532 -0.192799 0 0 0 0 0 0 0 0 0 
26.982 1 122 -0.132627 14.3836 0.562246 1.49227 3.15454 -1.39224 0.222041 0.0116407 0.103046 0 0 0 0 0 0 0 0 0 
26.982 1 282 -0.051099 10.3344 4.5513 1.57888 -3.56336 5.83968 -0.261402 0.460835 0.253277 0 0 0 0 0 0 0 0 0 
26.982 1 123 -0.0877938 12.4933 2.72235 -4.059 1.57055 2.23006 0.168508 -0.233167 -0.236284 0 0 0 0 0 0 0 0 0 
26.982 1 322 -0.183734 14.4907 4.55751 -2.55268 -0.292606 2.31533 0.0282327 -0.154595 -0.401222 0 0 0 0 0 0 0 0 0 
26.982 1 325 2.03202 12.4512 4.68997 -1.46159 -5.12704 -5.08449 0.183933 -0.48222 -0.259227 0 0 0 0 0 0 0 0 0 
26.982 1 128 2.29834 14.3195 2.52098 -0.535882 -3.48038 2.66248 -0.382255 -0.00619351 0.176303 0 0 0 0 0 0 0 0 0 
26.982 1 321 -2.36442 12.3806 4.61419 1.08742 2.91159 1.97347 -0.28016 -0.198147 -0.109314 0 0 0 0 0 0 0 0 0 
26.982 1 125 2.05706 12.3204 0.625097 1.18946 -6.24712 3.04565 0.285746 0.167841 0.232253 0 0 0 0 0 0 0 0 0 
26.982 1 286 4.38043 10.3556 4.44759 2.12342 -2.8188 -4.74587 0.142485 0.485233 0.0560635 0 0 0 0 0 0 0 0 0 
26.982 1 127 4.41558 12.4918 2.50575 -1.88748 1.46408 -2.22435 0.0928244 -0.577073 0.264075 0 0 0 0 0 0 0 0 0 
26.982 1 326 4.52364 14.5004 4.47418 -0.265492 -0.435899 -4.84587 -0.345706 -0.450504 0.237118 0 0 0 0 0 0 0 0 0 
26.982 1 329 6.62648 12.4731 4.7112 -0.165631 2.50151 -0.671387 0.0449945 -0.555489 -0.705429 0 0 0 0 0 0 0 0 0 
26.982 1 132 6.53514 14.2864 2.55617 0.125646 0.918672 0.699737 0.580006 0.285468 -0.0511146 0 0 0 0 0 0 0 0 0 
26.982 1 129 6.69656 12.4821 0.540588 -5.68203 1.30516 -2.76236 0.0513618 0.0512932 -0.170837 0 0 0 0 0 0 0 0 0 
26.982 1 90 8.81029 10.2249 0.600892 -1.83884 0.854914 -4.21733 0.22815 0.460354 0.018631 0 0 0 0 0 0 0 0 0 
26.982 1 131 9.03464 12.3539 2.37959 -5.64624 -4.18555 4.09052 -0.211444 0.452169 0.000489473 0 0 0 0 0 0 0 0 0 
26.982 1 330 8.76644 14.2518 4.53886 0.665154 -0.277128 0.358271 0.170264 0.0292373 -0.266744 0 0 0 0 0 0 0 0 0 
26.982 1 333 11.0372 12.3006 4.497 4.52579 1.26866 -1.10689 0.106714 0.0850775 0.0473967 0 0 0 0 0 0 0 0 0 
26.982 1 133 11.3755 12.3483 0.609748 -0.956521 -2.82379 1.4315 -0.371877 0.168209 0.106722 0 0 0 0 0 0 0 0 0 
26.982 1 136 11.1013 14.4831 2.53305 1.08786 -4.96818 -2.4444 0.0870994 -0.183106 -0.252283 0 0 0 0 0 0 0 0 0 
26.982 1 135 13.3656 12.3341 2.64561 -3.56516 3.11771 -5.19127 -0.010512 -0.493965 0.100081 0 0 0 0 0 0 0 0 0 
26.982 1 334 13.4016 14.2064 4.52233 0.627665 1.4146 -4.67093 -0.141242 0.557505 0.427299 0 0 0 0 0 0 0 0 0 
26.982 1 140 15.758 14.4885 2.76564 4.99477 0.890817 -0.427622 -0.0257999 -0.312004 0.0228538 0 0 0 0 0 0 0 0 0 
26.982 1 337 15.5742 12.4248 4.71969 -0.622451 -2.64233 1.2912 0.332345 0.00797485 0.116698 0 0 0 0 0 0 0 0 0 
26.982 1 298 17.9682 10.4114 4.79866 -0.0919115 -1.01337 2.17367 -0.145626 -0.127232 -0.321411 0 0 0 0 0 0 0 0 0 
26.982 1 139 17.8012 12.2852 2.75854 -2.20904 4.74987 -3.28523 0.322099 0.22343 0.0716997 0 0 0 0 0 0 0 0 0 
26.982 1 338 18.0642 14.3366 4.62077 -3.3131 1.09645 -0.950272 -0.0878202 0.180309 -0.181872 0 0 0 0 0 0 0 0 0 
26.982 1 341 20.3439 12.3122 4.44637 0.0999929 1.50316 0.934365 -0.0949184 -0.0259339 0.150727 0 0 0 0 0 0 0 0 0 
26.982 1 137 15.539 12.4692 0.853388 -0.587008 4.05001 -2.35701 0.426912 0.00487887 -0.471225 0 0 0 0 0 0 0 0 0 
26.982 1 142 22.631 14.59 0.684346 -1.21681 -6.50371 -0.502264 -0.360249 -0.0305607 -0.126747 0 0 0 0 0 0 0 0 0 
26.982 1 144 20.254 14.3593 2.72855 -2.96712 2.21614 0.947994 0.141678 0.321681 -0.0401962 0 0 0 0 0 0 0 0 0 
26.982 1 143 22.4603 12.5268 2.46581 -0.324928 -0.694667 1.98219 0.147555 -0.395773 0.139561 0 0 0 0 0 0 0 0 0 
26.982 1 342 22.6173 14.3891 4.55638 0.0999472 -4.94658 -0.00375357 -0.342348 0.244849 -0.191519 0 0 0 0 0 0 0 0 0 
26.982 1 146 27.1343 14.3724 0.709529 -0.103829 1.33096 -0.304248 0.0667694 0.146757 0.143325 0 0 0 0 0 0 0 0 0 
26.982 1 112 29.3775 10.5584 2.68597 -0.514296 0.358126 0.498197 -0.222494 -0.570448 -0.191351 0 0 0 0 0 0 0 0 0 
26.982 1 148 24.8347 14.5126 2.45189 -3.50827 1.88453 -1.90692 -0.0448433 0.0051581 0.565087 0 0 0 0 0 0 0 0 0 
26.982 1 345 24.6357 12.4716 4.59235 4.11389 -4.28408 2.85447 0.163304 -0.206047 -0.317818 0 0 0 0 0 0 0 0 0 
26.982 1 108 24.906 10.6217 2.46963 1.51158 2.92841 -1.9185 -0.608649 -0.547328 0.687235 0 0 0 0 0 0 0 0 0 
26.982 1 147 26.9283 12.428 2.775 0.520016 -1.26338 -1.32659 0.320079 0.064443 -0.400856 0 0 0 0 0 0 0 0 0 
26.982 1 346 26.926 14.3808 4.55107 -0.421899 3.13141 0.396537 0.14324 0.500232 0.240471 0 0 0 0 0 0 0 0 0 
26.982 1 152 29.2775 14.4079 2.73888 -6.03928 0.37739 3.75966 -0.0463875 0.0912075 -0.571414 0 0 0 0 0 0 0 0 0 
26.982 1 349 29.1663 12.4576 4.50922 1.06535 -1.01141 0.327649 0.120972 -0.12522 0.639167 0 0 0 0 0 0 0 0 0 
26.982 1 151 31.6933 12.6216 2.4316 -0.73044 -3.3474 -0.120689 -0.00452574 -0.559741 0.642101 0 0 0 0 0 0 0 0 0 
26.982 1 350 31.4902 14.3442 4.53601 2.3706 0.272598 -3.59312 0.0436693 -0.159986 0.503221 0 0 0 0 0 0 0 0 0 
26.982 1 156 33.9491 14.3096 2.53866 1.92534 -5.03809 3.17837 -0.0621301 0.309982 0.224449 0 0 0 0 0 0 0 0 0 
26.982 1 353 33.785 12.5339 4.52544 2.29366 2.98555 -2.85969 -0.158585 -0.157267 0.404284 0 0 0 0 0 0 0 0 0 
26.982 1 155 36.2318 12.4715 2.68417 0.87044 -4.7775 2.45642 -0.201713 -0.371412 -0.554892 0 0 0 0 0 0 0 0 0 
26.982 1 354 36.0992 14.2904 4.56975 -1.42842 -7.21697 -6.57728 -0.0685718 0.0169303 0.512196 0 0 0 0 0 0 0 0 0 
26.982 1 153 34.0623 12.4154 0.64727 -4.22528 -1.18323 -2.29854 -0.367167 -0.412832 0.381771 0 0 0 0 0 0 0 0 0 
26.982 1 357 38.3812 12.4392 4.63395 5.74469 -3.87997 -1.09086 0.0808777 0.0263587 0.000946027 0 0 0 0 0 0 0 0 0 
26.982 1 118 40.4719 10.4622 0.692372 5.82827 -1.87889 -2.36298 0.210434 -0.0290415 -0.475475 0 0 0 0 0 0 0 0 0 
26.982 1 124 42.8509 14.2404 2.58629 3.61518 -1.21933 -4.12147 -0.191816 0.579246 0.406779 0 0 0 0 0 0 0 0 0 
26.982 1 318 40.5796 10.2717 4.63207 2.88724 0.489372 -1.2932 -0.276476 0.546674 -0.625568 0 0 0 0 0 0 0 0 0 
26.982 1 120 38.3351 10.4421 2.6257 0.71808 4.12775 -1.57416 -0.181787 -0.13149 0.300548 0 0 0 0 0 0 0 0 0 
26.982 1 160 38.3786 14.5047 2.70704 -0.540471 -2.25325 -5.18583 -0.0369258 -0.31466 -0.0128737 0 0 0 0 0 0 0 0 0 
26.982 1 159 40.482 12.2953 2.58441 0.0544383 -0.459073 -1.31168 0.348005 0.509625 0.398829 0 0 0 0 0 0 0 0 0 
26.982 1 358 40.55 14.445 4.53884 5.55274 1.8738 0.494207 -0.0220659 -0.77842 -0.131392 0 0 0 0 0 0 0 0 0 
26.982 1 163 -0.0629038 16.2601 2.57439 1.20354 5.01048 2.27119 -0.0142728 0.148161 -0.24233 0 0 0 0 0 0 0 0 0 
26.982 1 362 -0.215613 18.1652 4.53201 5.16039 -0.499614 -1.57662 0.335924 0.248946 -0.0857376 0 0 0 0 0 0 0 0 0 
26.982 1 365 2.27944 16.3239 4.45407 -2.20839 -3.23483 -1.54355 -0.424449 0.112607 -0.141524 0 0 0 0 0 0 0 0 0 
26.982 1 361 -2.64846 16.3357 4.54374 0.392619 -2.1421 -4.21476 0.622033 -0.235637 -0.208004 0 0 0 0 0 0 0 0 0 
26.982 1 2005 2.19456 20.2724 0.473114 -1.07657 -3.89167 5.02891 -0.0647204 -0.326411 -0.297716 0 0 0 0 0 0 0 0 0 
26.982 1 168 2.15673 18.3186 2.4731 -2.15961 -2.70789 0.965981 -0.0888575 -0.273336 0.0386126 0 0 0 0 0 0 0 0 0 
26.982 1 166 4.24484 18.258 0.552126 -3.18648 -1.54027 1.31641 0.414597 -0.0630737 -0.310192 0 0 0 0 0 0 0 0 0 
26.982 1 167 4.46456 16.3566 2.53054 -0.236508 3.49877 5.05594 0.177211 0.145946 -0.20847 0 0 0 0 0 0 0 0 0 
26.982 1 366 4.28204 18.3004 4.54106 -1.48959 0.0267723 -0.487422 0.611668 0.0515687 -0.292459 0 0 0 0 0 0 0 0 0 
26.982 1 369 6.75219 16.3023 4.55662 -1.25107 -1.57596 -1.39311 -0.174812 -0.3171 -0.306239 0 0 0 0 0 0 0 0 0 
26.982 1 172 6.83087 18.2211 2.65338 -4.181 -1.71343 1.21102 -0.653311 0.101665 -0.25696 0 0 0 0 0 0 0 0 0 
26.982 1 169 6.69506 16.3437 0.557703 3.05117 3.30196 -1.87327 -0.469013 0.0424498 0.378696 0 0 0 0 0 0 0 0 0 
26.982 1 2007 4.48563 20.162 2.42036 -7.92257 0.369416 1.6096 -0.0169542 -0.309682 0.588041 0 0 0 0 0 0 0 0 0 
26.982 1 171 9.06931 16.4366 2.59383 0.294361 1.09352 4.61719 -0.2361 -0.545546 -0.0944033 0 0 0 0 0 0 0 0 0 
26.982 1 370 8.87454 18.2632 4.53386 -1.55833 3.06245 3.24977 0.292884 -0.345077 -0.172252 0 0 0 0 0 0 0 0 0 
26.982 1 176 11.131 18.2339 2.71501 -3.66297 4.73606 4.78293 0.18778 0.260301 -0.0450932 0 0 0 0 0 0 0 0 0 
26.982 1 2213 11.2809 20.3687 4.59518 -0.228776 4.14738 3.36382 0.142776 -0.562486 -0.234713 0 0 0 0 0 0 0 0 0 
26.982 1 373 11.2406 16.1244 4.68582 -1.43375 -2.32255 3.17984 -0.138853 0.103188 -0.151454 0 0 0 0 0 0 0 0 0 
26.982 1 175 13.4794 16.4121 2.59904 3.40199 -1.89119 3.03647 -0.358602 -0.0762859 0.16212 0 0 0 0 0 0 0 0 0 
26.982 1 374 13.2633 18.2224 4.67116 -1.13495 0.541076 -0.664516 0.363691 0.0721787 -0.405156 0 0 0 0 0 0 0 0 0 
26.982 1 377 15.7067 16.3206 4.71413 -4.2226 0.307203 1.58121 -0.239547 -0.45453 0.0230395 0 0 0 0 0 0 0 0 0 
26.982 1 2015 13.2914 20.2194 2.57796 -0.356939 1.18375 0.140531 0.34796 -0.142603 0.053575 0 0 0 0 0 0 0 0 0 
26.982 1 180 15.6898 18.0344 2.74631 0.664958 5.15655 0.638505 -0.0339995 0.638805 -0.807432 0 0 0 0 0 0 0 0 0 
26.982 1 179 17.9753 16.3498 2.71613 0.249554 2.32782 -1.41661 0.162918 -0.0181361 -0.337168 0 0 0 0 0 0 0 0 0 
26.982 1 378 17.9659 18.3901 4.44994 2.67717 -0.990317 3.60478 0.268795 0.0836419 0.339233 0 0 0 0 0 0 0 0 0 
26.982 1 184 20.3469 18.3427 2.588 1.77499 -0.759605 -0.321827 -0.337738 -0.25741 -0.561342 0 0 0 0 0 0 0 0 0 
26.982 1 381 20.267 16.602 4.69867 -0.0408765 1.72456 -4.86856 -0.149722 -0.427667 -0.146798 0 0 0 0 0 0 0 0 0 
26.982 1 2019 17.8686 20.3831 2.4491 -4.25266 0.620293 -6.027 0.435935 -0.199883 0.599757 0 0 0 0 0 0 0 0 0 
26.982 1 2221 20.2234 20.1721 4.33056 3.27942 2.56916 1.42295 0.143419 0.548641 1.04055 0 0 0 0 0 0 0 0 0 
26.982 1 183 22.4822 16.4598 2.64966 1.85348 -6.28253 0.229688 0.191659 -0.0359793 0.344384 0 0 0 0 0 0 0 0 0 
26.982 1 382 22.6542 18.5421 4.59449 1.05803 0.474185 0.587242 -0.503743 -0.979187 0.531483 0 0 0 0 0 0 0 0 0 
26.982 1 385 24.7911 16.4513 4.48144 -2.93288 -5.2312 1.72891 0.0504625 0.128519 -0.264782 0 0 0 0 0 0 0 0 0 
26.982 1 188 24.842 18.4706 2.45074 -1.42281 4.64009 -4.55742 -0.132038 -0.553037 0.470212 0 0 0 0 0 0 0 0 0 
26.982 1 2023 22.5342 20.1004 2.56788 -2.90095 0.943708 1.12529 0.0488793 0.762343 -0.392877 0 0 0 0 0 0 0 0 0 
26.982 1 185 24.8552 16.5429 0.61592 0.579098 0.404582 3.2324 0.0222199 -0.298232 -0.185526 0 0 0 0 0 0 0 0 0 
26.982 1 187 27.1044 16.4576 2.51987 -3.02416 2.22445 -1.35721 -0.161043 0.0115462 0.22579 0 0 0 0 0 0 0 0 0 
26.982 1 386 27.0856 18.4512 4.55637 2.34532 4.55185 0.754816 -0.0531039 -0.847169 0.657205 0 0 0 0 0 0 0 0 0 
26.982 1 192 29.3568 18.44 2.60778 -2.06169 -2.06172 -1.94428 0.25083 -0.572346 -0.146499 0 0 0 0 0 0 0 0 0 
26.982 1 189 29.374 16.2708 0.587698 -0.253578 -0.422326 -0.379319 -0.129574 0.0265683 0.399589 0 0 0 0 0 0 0 0 0 
26.982 1 389 29.2209 16.4184 4.45487 -0.0414204 -2.1105 0.298583 0.0518835 -0.0277203 0.543319 0 0 0 0 0 0 0 0 0 
26.982 1 191 31.5843 16.1658 2.56569 -0.0069228 0.480511 0.9347 -0.0702094 0.352125 0.0288355 0 0 0 0 0 0 0 0 0 
26.982 1 390 31.5996 18.1804 4.61285 2.11334 2.3894 -2.90124 -0.0598816 -0.150805 -0.49091 0 0 0 0 0 0 0 0 0 
26.982 1 190 31.6017 18.2739 0.757664 4.74576 3.97606 5.82085 -0.148153 0.174452 -0.0506229 0 0 0 0 0 0 0 0 0 
26.982 1 196 33.8477 18.35 2.54328 5.75519 2.12926 1.7725 -0.110397 -0.643166 0.235376 0 0 0 0 0 0 0 0 0 
26.982 1 393 33.6626 16.2479 4.63719 -7.9172 2.58002 -7.24866 0.286204 0.307583 -0.424548 0 0 0 0 0 0 0 0 0 
26.982 1 195 36.1218 16.2958 2.82616 4.56757 2.51316 -3.63497 -0.223418 0.330491 -0.196017 0 0 0 0 0 0 0 0 0 
26.982 1 394 36.1801 18.5926 4.60269 -4.78501 -2.35665 -0.956275 -0.208612 -0.565031 -0.180463 0 0 0 0 0 0 0 0 0 
26.982 1 397 38.4696 16.4412 4.69692 2.28218 -2.25637 -1.9449 -0.28764 -0.205936 -0.401987 0 0 0 0 0 0 0 0 0 
26.982 1 200 38.2804 18.2601 2.60774 4.14776 -2.40084 1.71567 0.107524 -0.185365 0.0422363 0 0 0 0 0 0 0 0 0 
26.982 1 164 42.7521 18.2352 2.64623 -4.47204 -4.15228 -0.723323 0.242783 0.199172 -0.440057 0 0 0 0 0 0 0 0 0 
26.982 1 199 40.5635 16.3781 2.55186 1.06829 2.1214 0.366962 0.0870715 0.212532 -0.166764 0 0 0 0 0 0 0 0 0 
26.982 1 398 40.5702 18.3959 4.66737 -3.50168 1.4864 -2.55479 0.112693 -0.287808 0.360845 0 0 0 0 0 0 0 0 0 
26.982 1 2039 40.5704 20.0795 2.65098 -1.5056 -0.801956 -0.640137 0.295673 0.413289 0.0328551 0 0 0 0 0 0 0 0 0 
26.982 1 2201 43.0292 20.2091 4.57897 0.334274 -0.7551 6.59858 -0.298811 0.063804 0.141235 0 0 0 0 0 0 0 0 0 
26.982 1 2001 42.8443 20.2428 0.567508 4.80187 7.32408 4.44241 0.0167231 -0.651234 0.35986 0 0 0 0 0 0 0 0 0 
26.982 1 405 2.01237 0.535808 8.47821 -1.40453 3.20992 -3.05457 0.147546 0.269059 0.237348 0 0 0 0 0 0 0 0 0 
26.982 1 243 -0.239247 4.32695 6.60963 1.14623 -0.911412 2.70931 0.0808619 0.981581 -0.221087 0 0 0 0 0 0 0 0 0 
26.982 1 402 -0.0289946 2.59226 8.50724 -4.50462 -0.930189 -1.30164 -0.247551 -0.211443 0.632172 0 0 0 0 0 0 0 0 0 
26.982 1 445 1.96602 4.78114 8.62816 1.82313 -2.15449 1.59228 0.125517 -0.439603 0.0342618 0 0 0 0 0 0 0 0 0 
26.982 1 208 2.01067 2.77067 6.59468 -3.69137 -5.96097 -3.77383 0.611698 -0.367073 0.298872 0 0 0 0 0 0 0 0 0 
26.982 1 441 -2.31932 4.51866 8.6092 1.6592 3.03918 1.94655 -0.0767695 0.525672 -0.447034 0 0 0 0 0 0 0 0 0 
26.982 1 247 4.33078 4.55525 6.76166 1.36426 2.77622 2.43426 0.118251 -0.363594 0.0654323 0 0 0 0 0 0 0 0 0 
26.982 1 406 4.46451 2.40309 8.53499 -1.54831 0.936167 2.52292 -0.140076 0.0961323 -0.121559 0 0 0 0 0 0 0 0 0 
26.982 1 449 6.726 4.32038 8.60353 -0.282591 7.16112 -2.85164 -0.287608 0.890643 -0.179003 0 0 0 0 0 0 0 0 0 
26.982 1 412 6.8724 2.54529 10.581 -0.46777 -2.00962 0.683898 -0.130926 0.0496613 0.059129 0 0 0 0 0 0 0 0 0 
26.982 1 212 6.83029 2.53572 6.633 0.41314 5.12352 5.80618 -0.389608 -0.379193 -0.0366823 0 0 0 0 0 0 0 0 0 
26.982 1 251 8.87657 4.30038 6.50423 0.271433 -3.38364 1.15705 0.24656 1.30936 -0.621141 0 0 0 0 0 0 0 0 0 
26.982 1 410 9.03493 2.79023 8.48505 2.29694 3.68264 -0.788645 0.218324 -1.07009 0.460197 0 0 0 0 0 0 0 0 0 
26.982 1 413 11.2725 0.792106 8.34147 -0.357177 -2.54954 2.77407 0.192234 -0.155444 0.181429 0 0 0 0 0 0 0 0 0 
26.982 1 453 11.2594 4.54221 8.26824 -0.566509 1.13678 3.55456 -0.24613 -0.139419 0.801322 0 0 0 0 0 0 0 0 0 
26.982 1 216 11.2855 2.7286 6.31679 3.04189 2.37012 -8.11688 -0.246344 -0.654509 0.116539 0 0 0 0 0 0 0 0 0 
26.982 1 255 13.3744 4.49057 6.48011 2.59349 2.9819 -1.43948 0.409437 0.329049 -0.681065 0 0 0 0 0 0 0 0 0 
26.982 1 414 13.6504 2.54025 8.22156 2.30637 1.22385 1.01992 -0.408394 -0.119634 0.500661 0 0 0 0 0 0 0 0 0 
26.982 1 455 13.3119 4.60647 10.444 -0.627051 -1.0463 -1.89945 0.310913 0.0331094 -0.593818 0 0 0 0 0 0 0 0 0 
26.982 1 457 15.6729 4.52462 8.31142 0.540049 -0.43514 -1.69118 0.0995918 -0.279978 0.305498 0 0 0 0 0 0 0 0 0 
26.982 1 220 15.7539 2.60035 6.33927 -2.26593 -7.7703 2.65349 0.00655085 -0.240742 0.0999024 0 0 0 0 0 0 0 0 0 
26.982 1 259 17.8945 4.48654 6.21741 1.3061 -0.56624 -0.770682 0.120238 0.228579 0.505247 0 0 0 0 0 0 0 0 0 
26.982 1 418 17.9276 2.45991 8.39025 -0.957276 0.371952 1.05804 0.146258 0.0758349 -0.0845724 0 0 0 0 0 0 0 0 0 
26.982 1 224 20.1762 2.62839 6.40125 0.663809 -1.8384 -2.40609 0.126891 -0.0626414 0.580228 0 0 0 0 0 0 0 0 0 
26.982 1 420 15.6935 2.45382 10.3115 -1.21208 3.24539 0.9064 0.0788839 0.54684 0.311371 0 0 0 0 0 0 0 0 0 
26.982 1 421 20.2588 0.544506 8.47926 5.83865 7.83383 1.57736 -0.209284 0.338331 0.00543194 0 0 0 0 0 0 0 0 0 
26.982 1 461 20.0772 4.55002 8.40873 -0.133003 -1.64891 7.29191 0.543377 -0.163083 -0.139817 0 0 0 0 0 0 0 0 0 
26.982 1 263 22.492 4.49252 6.4186 -2.94007 -1.60787 0.483393 0.152551 0.142576 0.687727 0 0 0 0 0 0 0 0 0 
26.982 1 422 22.4589 2.5712 8.52175 0.678493 -1.54984 1.02851 0.00331777 0.130711 -0.427505 0 0 0 0 0 0 0 0 0 