ITEM: TIMESTEP
19550
ITEM: NUMBER OF ATOMS
4000
ITEM: BOX BOUNDS pp pp pp
-4.04758 44.5476
1.41966 39.0803
1.37124 39.1288
ITEM: ATOMS mass type id x y z vx vy vz fx fy fz xrad yrad zrad vxrad vyrad vzrad fxrad fyrad fzrad 
26.982 1 202 -0.956763 4.11071 5.5261 3.77471 -2.33469 -3.775 -1.10544 -0.0652807 -0.452609 0 0 0 0 0 0 0 0 0 
26.982 1 2 -1.31723 3.54046 1.58181 -7.61204 -1.26457 -0.243035 -0.366759 1.16403 -0.295134 0 0 0 0 0 0 0 0 0 
26.982 1 4 -3.43537 3.28976 3.77275 0.78461 -2.40911 -1.45328 0.189011 0.0169321 -0.0412367 0 0 0 0 0 0 0 0 0 
26.982 1 241 -3.13339 5.91664 5.07088 1.9302 0.516311 -1.88007 -0.201478 -0.505235 0.539653 0 0 0 0 0 0 0 0 0 
26.982 1 41 -3.35614 5.38159 1.77866 6.96492 -0.371929 7.80331 0.072614 -0.465042 0.000848269 0 0 0 0 0 0 0 0 0 
26.982 1 43 -1.03173 5.97377 3.41036 -3.53616 -7.7494 6.0932 0.579561 -0.370959 -0.240543 0 0 0 0 0 0 0 0 0 
26.982 1 998 41.4086 18.0801 15.6694 5.15992 1.01314 -0.344015 -0.168239 0.0407537 0.0723956 0 0 0 0 0 0 0 0 0 
26.982 1 5 0.453266 1.78545 1.74656 -7.24166 -1.54918 0.656641 0.965171 -0.785952 -0.456011 0 0 0 0 0 0 0 0 0 
26.982 1 205 1.12289 2.12148 5.48224 5.5166 -2.93162 3.59963 0.0407637 -0.346198 -0.0229192 0 0 0 0 0 0 0 0 0 
26.982 1 245 3.15985 4.14549 5.40151 -3.53631 2.27225 -0.469731 -0.45793 -0.193831 0.0145407 0 0 0 0 0 0 0 0 0 
26.982 1 8 0.870172 3.90051 3.4801 2.89633 -3.05004 1.46206 0.165444 0.697362 -0.202644 0 0 0 0 0 0 0 0 0 
26.982 1 47 5.03316 4.16956 3.16357 -4.18892 2.97598 3.52893 -0.000313403 0.184555 -0.345738 0 0 0 0 0 0 0 0 0 
26.982 1 6 2.9705 2.28413 3.07267 0.591897 -3.96214 4.53896 0.197279 -0.214323 0.0868353 0 0 0 0 0 0 0 0 0 
26.982 1 206 5.39363 2.2314 5.08214 1.46932 -3.89189 -2.0714 -0.538524 -0.282268 -0.252057 0 0 0 0 0 0 0 0 0 
26.982 1 249 7.12118 4.52551 5.07151 -4.70641 2.84028 0.469995 -0.062179 -0.125575 0.140721 0 0 0 0 0 0 0 0 0 
26.982 1 12 7.47029 2.57011 3.11222 0.132765 2.52293 0.91757 -0.263395 -0.166965 -0.00897923 0 0 0 0 0 0 0 0 0 
26.982 1 51 9.21346 4.88922 3.10503 3.58458 6.40036 -0.461769 0.257049 -0.53604 -0.371553 0 0 0 0 0 0 0 0 0 
26.982 1 210 9.42378 2.71928 5.23649 -0.897525 5.36273 -1.14267 -0.0885551 -0.00750332 -0.757252 0 0 0 0 0 0 0 0 0 
26.982 1 253 11.3638 5.14398 5.03663 -5.15633 6.57118 0.676672 -0.617578 -0.426819 0.0217294 0 0 0 0 0 0 0 0 0 
26.982 1 16 11.3216 2.89374 3.13451 -0.457102 1.34641 1.73738 -0.320654 -0.181003 -0.335591 0 0 0 0 0 0 0 0 0 
26.982 1 214 13.3389 2.98636 5.01525 -2.68369 0.39481 -7.88876 0.351593 -0.155611 0.255127 0 0 0 0 0 0 0 0 0 
26.982 1 55 13.1952 4.90936 2.99555 6.78127 -2.86424 -1.46368 0.223839 0.69393 -0.137948 0 0 0 0 0 0 0 0 0 
26.982 1 20 15.4707 2.91844 3.02753 -6.97167 2.72 -3.75872 0.027042 -0.144924 0.0515349 0 0 0 0 0 0 0 0 0 
26.982 1 257 15.513 4.91982 4.91058 -0.761255 -5.74323 -5.61137 -0.863957 0.503348 -0.366524 0 0 0 0 0 0 0 0 0 
26.982 1 218 17.6676 2.95959 4.96731 1.29958 0.977908 1.2711 -0.0815308 -0.173112 -0.570125 0 0 0 0 0 0 0 0 0 
26.982 1 59 17.5921 5.20206 3.19933 -0.814584 7.49257 1.00575 0.0116384 0.111185 -0.350461 0 0 0 0 0 0 0 0 0 
26.982 1 24 19.6414 3.24543 2.92742 0.271274 1.24881 -5.37558 0.441818 0.0858956 0.245562 0 0 0 0 0 0 0 0 0 
26.982 1 261 19.8015 5.03591 4.87619 -1.21155 -0.875496 -8.33111 -0.122457 0.644967 -0.277273 0 0 0 0 0 0 0 0 0 
26.982 1 63 22.061 5.01363 3.02704 0.677147 -0.14262 -0.449941 0.17132 0.44412 -0.015292 0 0 0 0 0 0 0 0 0 
26.982 1 222 22.0796 3.71494 5.35963 5.27449 1.43663 -4.52477 0.0773629 0.0662373 0.455572 0 0 0 0 0 0 0 0 0 
26.982 1 162 -1.44823 18.7904 1.96283 -5.86326 -4.48811 -0.288401 0.668533 0.962938 -0.155248 0 0 0 0 0 0 0 0 0 
26.982 1 28 24.3652 2.90576 2.5298 1.42604 6.64072 5.0943 -0.0896704 0.0876464 0.644818 0 0 0 0 0 0 0 0 0 
26.982 1 265 24.6596 5.00486 4.66352 -0.337205 4.07625 0.583131 -0.59624 -0.134629 -0.141666 0 0 0 0 0 0 0 0 0 
26.982 1 67 26.419 5.45919 2.71842 2.20782 5.13681 0.649106 0.028457 -0.334775 -0.323104 0 0 0 0 0 0 0 0 0 
26.982 1 225 24.1744 1.93734 5.08942 5.25075 -2.74799 7.54532 0.44493 0.485796 0.387136 0 0 0 0 0 0 0 0 0 
26.982 1 226 26.8247 3.28255 4.49204 -1.74901 -2.82364 3.63339 -0.107761 0.0881348 0.361941 0 0 0 0 0 0 0 0 0 
26.982 1 32 30.7157 5.41096 2.28349 6.36917 -2.80962 -2.56815 -0.438639 0.225435 0.0631786 0 0 0 0 0 0 0 0 0 
26.982 1 269 28.7669 5.40708 4.36035 -0.429971 -0.265651 -4.52629 -0.0529371 0.228323 0.389466 0 0 0 0 0 0 0 0 0 
26.982 1 27 28.6226 3.4868 2.45438 5.35066 -1.62985 0.663028 0.306547 -0.414521 -0.0433929 0 0 0 0 0 0 0 0 0 
26.982 1 230 31.1448 3.60663 4.34602 -1.64903 1.29344 -0.375505 -0.450465 -0.187776 0.152901 0 0 0 0 0 0 0 0 0 
26.982 1 964 43.8057 18.1567 17.3278 0.944933 5.16926 0.622157 -0.379146 0.168888 0.457576 0 0 0 0 0 0 0 0 0 
26.982 1 273 32.722 5.83621 4.14774 1.84305 -3.0014 -6.29356 0.282949 0.257626 0.40417 0 0 0 0 0 0 0 0 0 
26.982 1 36 34.8953 4.16908 4.16827 -2.34879 -2.00105 1.81299 0.445954 -0.524144 -0.256242 0 0 0 0 0 0 0 0 0 
26.982 1 30 32.956 3.75721 2.24067 -1.01961 4.41309 -3.07914 -0.273361 -0.477847 -0.0566253 0 0 0 0 0 0 0 0 0 
26.982 1 73 34.6351 5.96421 1.8902 -0.270389 -0.557237 3.83322 0.808738 0.0727486 0.75302 0 0 0 0 0 0 0 0 0 
26.982 1 33 35.0461 1.93897 2.18467 9.91961 -4.67951 3.03704 0.303304 0.0714204 -0.552338 0 0 0 0 0 0 0 0 0 
26.982 1 276 35.069 6.04138 6.01295 -3.86609 2.43319 0.990154 -0.29471 -0.312141 0.467784 0 0 0 0 0 0 0 0 0 
26.982 1 34 36.8157 4.06903 2.06731 -1.16467 -0.267258 4.06805 -0.0687084 0.464201 -0.392517 0 0 0 0 0 0 0 0 0 
26.982 1 35 37.2074 2.16863 4.1584 1.07808 -4.49974 -2.20432 -0.00439333 -0.383896 -0.390042 0 0 0 0 0 0 0 0 0 
26.982 1 75 36.9038 6.2696 3.69844 4.49475 -9.34143 2.50698 0.0516478 -0.17566 0.351825 0 0 0 0 0 0 0 0 0 
26.982 1 234 37.2073 4.22544 5.89559 -0.752879 2.4027 -1.25169 -0.163091 0.307872 0.476676 0 0 0 0 0 0 0 0 0 
26.982 1 40 39.1051 4.34506 3.81037 -1.89754 2.93485 -5.24313 -0.272987 0.122318 0.141688 0 0 0 0 0 0 0 0 0 
26.982 1 237 39.3623 2.37452 5.92071 -2.49573 -3.71337 -4.86173 -0.118644 0.189632 0.402939 0 0 0 0 0 0 0 0 0 
26.982 1 37 38.9022 2.44886 1.90322 1.68615 -1.08767 -3.6561 0.8138 -0.642906 0.20137 0 0 0 0 0 0 0 0 0 
26.982 1 1 43.3755 2.67893 1.62509 0.698031 -1.10551 2.81381 0.0576139 0.452981 0.274145 0 0 0 0 0 0 0 0 0 
26.982 1 79 43.0378 4.84982 3.8731 1.2874 1.8166 0.922601 0.185325 0.134574 -0.271241 0 0 0 0 0 0 0 0 0 
26.982 1 39 41.4332 2.52463 3.77799 4.46582 -1.00584 -3.09005 -0.210499 -0.268182 -0.0355938 0 0 0 0 0 0 0 0 0 
26.982 1 38 41.035 4.27581 1.82918 5.01761 0.235088 2.41444 0.209057 0.793988 -0.474126 0 0 0 0 0 0 0 0 0 
26.982 1 277 41.0099 4.50356 5.73951 -4.95494 2.11654 3.59882 -0.13466 0.176281 0.741675 0 0 0 0 0 0 0 0 0 
26.982 1 238 43.193 2.92292 5.92437 1.20639 -5.8978 0.9888 0.212612 0.433349 -0.171024 0 0 0 0 0 0 0 0 0 
26.982 1 83 0.067039 8.7207 4.5895 -2.31641 0.467785 -6.11607 -0.360519 -0.11154 -0.421271 0 0 0 0 0 0 0 0 0 
26.982 1 44 -2.66022 7.96761 3.41723 -2.79456 2.27447 3.13489 -0.181804 0.894863 -0.576499 0 0 0 0 0 0 0 0 0 
26.982 1 82 0.22292 9.782 1.54769 -6.52749 0.425493 -1.50626 -0.129303 -0.210959 0.102141 0 0 0 0 0 0 0 0 0 
26.982 1 48 2.84432 5.94163 3.54245 0.870752 -7.03229 -3.88983 0.0558889 0.618955 -0.858152 0 0 0 0 0 0 0 0 0 
26.982 1 87 4.54969 8.41256 3.19679 -0.959144 1.29852 -3.23375 0.771877 -0.0826241 0.685871 0 0 0 0 0 0 0 0 0 
26.982 1 246 5.03384 6.35283 5.38578 -3.98953 -5.43203 1.12807 -0.429141 0.162911 -0.718812 0 0 0 0 0 0 0 0 0 
26.982 1 88 2.18625 10.0947 3.66696 -1.25677 -0.295723 6.74584 0.524204 0.291665 -0.460367 0 0 0 0 0 0 0 0 0 
26.982 1 286 4.47875 10.4739 5.25304 5.67099 2.29536 -2.94433 -0.241526 -0.0832115 0.529418 0 0 0 0 0 0 0 0 0 
26.982 1 29 31.0222 1.63653 2.40053 -0.451258 -1.27114 -2.3224 -0.286236 0.219026 -0.178002 0 0 0 0 0 0 0 0 0 
26.982 1 52 6.89023 6.42671 3.04313 4.82127 -0.773944 4.04251 -0.264105 1.00509 0.337175 0 0 0 0 0 0 0 0 0 
26.982 1 289 6.73005 8.74016 5.12535 3.51361 -1.01861 10.837 0.107478 -0.800583 0.0714408 0 0 0 0 0 0 0 0 0 
26.982 1 250 8.89648 6.67016 5.02005 4.15884 -3.1313 -2.89755 0.175471 0.864355 0.243772 0 0 0 0 0 0 0 0 0 
26.982 1 91 8.54502 8.97937 2.93924 -0.1808 -6.61567 -5.2631 0.323974 -0.715999 0.467856 0 0 0 0 0 0 0 0 0 
26.982 1 290 8.43835 10.9907 5.3396 3.29966 3.11967 -2.97141 0.751252 -0.0320468 -0.411547 0 0 0 0 0 0 0 0 0 
26.982 1 92 6.50584 10.7611 3.42853 -4.57468 3.70411 -3.50263 -0.573165 -0.0859764 -0.818703 0 0 0 0 0 0 0 0 0 
26.982 1 23 22.0171 1.70823 3.23899 -4.41076 3.78398 -4.86069 0.0343021 -0.117413 -0.485542 0 0 0 0 0 0 0 0 0 
26.982 1 293 10.7789 8.91545 4.94513 -2.23692 4.92117 -3.38698 -0.0907249 0.162515 -0.188719 0 0 0 0 0 0 0 0 0 
26.982 1 56 10.9706 7.07399 2.80839 -3.68766 -2.49643 -5.30905 -0.104513 -0.221888 0.0980301 0 0 0 0 0 0 0 0 0 
26.982 1 95 12.8906 9.16018 2.72063 -0.505832 -0.745127 -2.10339 -0.651076 0.509945 0.619414 0 0 0 0 0 0 0 0 0 
26.982 1 254 13.1211 7.144 4.81588 0.709983 -1.51041 0.975035 -0.167221 -0.144833 0.266493 0 0 0 0 0 0 0 0 0 
26.982 1 60 15.1272 7.31215 2.95094 3.74834 -0.486049 -3.1984 0.125608 -0.711143 -0.278473 0 0 0 0 0 0 0 0 0 
26.982 1 297 14.827 9.28596 4.68588 0.502962 -0.790889 -2.61748 0.222064 0.753534 0.0863232 0 0 0 0 0 0 0 0 0 
26.982 1 99 17.3708 9.25113 3.11225 -7.93436 -3.89233 -3.38214 0.0212872 0.507935 -0.0875082 0 0 0 0 0 0 0 0 0 
26.982 1 258 17.1631 7.34578 4.86307 8.80427 -3.08373 5.47569 0.605788 -0.163076 0.580276 0 0 0 0 0 0 0 0 0 
26.982 1 3 -1.0961 2.03037 3.89218 -0.313372 5.65015 1.48506 -0.552578 -0.779741 0.347113 0 0 0 0 0 0 0 0 0 
26.982 1 64 19.683 7.43382 3.0979 0.600546 -4.06349 -2.63154 -0.248586 -0.974418 -0.181055 0 0 0 0 0 0 0 0 0 
26.982 1 301 19.503 9.12071 5.02976 -5.54537 3.15388 2.99373 0.0299448 0.739918 0.613796 0 0 0 0 0 0 0 0 0 
26.982 1 103 21.7981 9.10195 3.15361 -3.68756 -0.424225 -1.81981 0.369334 -0.120605 0.223594 0 0 0 0 0 0 0 0 0 
26.982 1 262 21.9959 6.86395 5.17499 4.1169 -2.56596 1.58536 0.117308 -0.126707 -1.25749 0 0 0 0 0 0 0 0 0 
26.982 1 305 24.2603 9.2087 5.03663 -2.68302 -2.88204 -1.1207 -0.252365 0.138266 -0.346689 0 0 0 0 0 0 0 0 0 
26.982 1 68 24.0861 7.40994 2.8715 2.11152 -0.80129 -2.15889 -0.245261 -1.02003 0.677343 0 0 0 0 0 0 0 0 0 
26.982 1 107 26.2366 9.17047 2.61927 -1.51169 3.25622 -2.4249 0.146801 0.25644 0.518565 0 0 0 0 0 0 0 0 0 
26.982 1 266 26.4421 7.39849 4.75096 -2.81206 0.346185 4.49149 0.156591 -0.431675 -0.0776929 0 0 0 0 0 0 0 0 0 
26.982 1 72 28.3544 7.37835 2.5536 -1.64408 -5.51875 10.0223 0.181177 0.226642 -0.339865 0 0 0 0 0 0 0 0 0 
26.982 1 309 28.4394 9.30206 4.68282 -0.360986 4.07785 -6.07979 -0.154126 0.385683 -0.734508 0 0 0 0 0 0 0 0 0 
26.982 1 111 30.3179 9.73083 2.31347 2.81761 -0.679792 1.57178 -0.417421 -0.611076 0.0602315 0 0 0 0 0 0 0 0 0 
26.982 1 270 30.5581 7.58405 4.25418 3.8513 -2.58397 -8.00611 0.217157 0.0255327 -0.0146529 0 0 0 0 0 0 0 0 0 
26.982 1 71 32.5633 7.7293 2.03879 -4.76094 4.91345 -1.98369 -0.294376 0.483879 0.625631 0 0 0 0 0 0 0 0 0 
26.982 1 76 34.6805 7.9806 3.96191 -0.828524 2.52193 0.999643 -0.222726 0.189683 0.0264561 0 0 0 0 0 0 0 0 0 
26.982 1 116 34.4217 10.1344 2.0111 3.10144 -4.25267 -2.90634 -0.0713432 -1.03188 0.336358 0 0 0 0 0 0 0 0 0 
26.982 1 310 32.2745 9.75335 4.27 -2.98594 4.32529 -5.89496 0.896552 -0.232351 0.22129 0 0 0 0 0 0 0 0 0 
26.982 1 77 39.1421 6.47077 1.89838 -2.63525 -0.668353 5.40568 -0.672762 -0.503689 -0.274223 0 0 0 0 0 0 0 0 0 
26.982 1 115 38.8371 8.35253 4.1495 8.88281 1.75809 -2.16757 0.18359 0.00423111 -1.22363 0 0 0 0 0 0 0 0 0 
26.982 1 74 36.7724 8.40969 1.98564 -3.91524 5.88791 3.46448 -0.464849 -0.168627 0.26931 0 0 0 0 0 0 0 0 0 
26.982 1 155 36.7104 10.0454 4.17098 0.804632 2.51035 -2.53132 -0.206231 0.529583 -0.522468 0 0 0 0 0 0 0 0 0 
26.982 1 314 36.855 8.08264 5.96069 -3.42793 -1.82272 4.43122 0.291915 -0.0135033 0.428847 0 0 0 0 0 0 0 0 0 
26.982 1 274 39.0213 6.42262 5.9455 -3.32637 0.938919 -0.368131 -0.0195228 -0.584355 0.250541 0 0 0 0 0 0 0 0 0 
26.982 1 320 39.0294 10.0509 6.05896 3.94069 1.88289 -1.45839 -0.440033 0.302724 0.38931 0 0 0 0 0 0 0 0 0 
26.982 1 80 40.8939 6.54809 3.80421 7.70649 -0.652252 4.47715 0.485163 0.135679 0.272048 0 0 0 0 0 0 0 0 0 
26.982 1 317 41.2064 9.85024 4.32918 3.21433 3.61127 0.803864 -0.231528 0.0491561 -0.350336 0 0 0 0 0 0 0 0 0 
26.982 1 78 43.0065 6.76373 1.82031 2.24207 -1.79242 3.83394 -0.505697 -0.00201206 -0.122438 0 0 0 0 0 0 0 0 0 
26.982 1 119 43.9178 9.52336 2.26365 -1.30821 4.3414 0.418801 0.426827 -1.36086 0.304002 0 0 0 0 0 0 0 0 0 
26.982 1 278 43.3585 7.71568 4.45166 -3.11169 -1.43426 -3.9962 0.197913 0.440886 0.053178 0 0 0 0 0 0 0 0 0 
26.982 1 284 43.6355 10.6775 4.96341 1.14994 4.66679 -9.72159 0.311571 -0.112875 0.194601 0 0 0 0 0 0 0 0 0 
26.982 1 117 40.7815 8.67288 1.94353 -1.45536 -7.76755 3.02388 0.227198 -0.124366 -0.237205 0 0 0 0 0 0 0 0 0 
26.982 1 282 -2.20369 10.7247 4.42451 -3.73291 -1.97995 2.21652 -0.136425 -0.222153 -0.070777 0 0 0 0 0 0 0 0 0 
26.982 1 322 -1.90673 13.5825 3.81413 6.53931 4.0242 -1.67588 0.102614 0.118588 0.277849 0 0 0 0 0 0 0 0 0 
26.982 1 122 -0.280581 14.26 1.61758 -8.49203 4.53335 -0.783002 -0.43269 -0.226651 0.382257 0 0 0 0 0 0 0 0 0 
26.982 1 325 0.163321 11.8497 3.57333 -9.08874 -4.49996 -1.01916 0.135802 0.178044 0.138804 0 0 0 0 0 0 0 0 0 
26.982 1 328 0.0201907 13.9045 5.7331 2.57237 0.764139 0.620815 -0.57585 0.392005 -0.203774 0 0 0 0 0 0 0 0 0 
26.982 1 2839 41.7462 20.0928 17.7226 6.73918 1.81175 2.41245 -0.663924 0.100069 -0.416938 0 0 0 0 0 0 0 0 0 
26.982 1 124 -3.31857 14.3276 1.78957 0.248723 1.77383 4.01129 0.348692 -0.00738776 0.0768481 0 0 0 0 0 0 0 0 0 
26.982 1 128 1.83895 14.2954 3.68597 4.42962 -5.92267 6.21336 0.209174 -0.136563 -0.708347 0 0 0 0 0 0 0 0 0 
26.982 1 127 4.1987 12.4231 3.44613 -5.65851 -3.10888 -1.51332 -0.542474 0.356227 -0.236265 0 0 0 0 0 0 0 0 0 
26.982 1 326 4.0306 14.4916 5.41657 -3.91006 7.34681 -13.1236 -0.332025 -0.27383 -0.463558 0 0 0 0 0 0 0 0 0 
26.982 1 123 -1.66124 11.7501 1.34824 2.97415 3.8133 -8.257 0.468583 0.137332 0.110462 0 0 0 0 0 0 0 0 0 
26.982 1 327 2.04474 12.2806 5.79183 0.729553 -0.55643 -1.43739 0.863591 -0.359048 -0.947462 0 0 0 0 0 0 0 0 0 
26.982 1 329 6.39868 12.8658 5.2154 -5.65563 -4.14083 -6.18631 -0.909599 -0.230854 0.543723 0 0 0 0 0 0 0 0 0 
26.982 1 132 5.68167 14.9929 3.19185 -2.72581 -7.84333 3.49364 -0.0179128 -0.822174 0.425887 0 0 0 0 0 0 0 0 0 
26.982 1 131 7.91178 13.0732 3.09224 4.53182 0.348166 4.36647 0.886123 0.0740574 -0.21553 0 0 0 0 0 0 0 0 0 
26.982 1 330 7.94812 15.0939 5.26754 -2.25571 -2.56139 -2.69571 0.397532 0.0269289 -0.215778 0 0 0 0 0 0 0 0 0 
26.982 1 294 12.5965 11.2104 5.16579 -4.59838 -9.3101 0.72346 -0.0070862 0.24965 -0.67544 0 0 0 0 0 0 0 0 0 
26.982 1 96 10.5815 11.2007 3.16285 1.2743 0.0740612 0.106181 -0.258572 -0.213703 -0.354808 0 0 0 0 0 0 0 0 0 
26.982 1 333 10.3372 13.1594 5.0958 -2.11189 1.61423 -2.5977 -0.591194 0.112914 0.0259882 0 0 0 0 0 0 0 0 0 
26.982 1 135 12.3245 13.536 3.04287 2.71271 3.25473 4.80363 -0.326995 -0.0437521 -0.210122 0 0 0 0 0 0 0 0 0 
26.982 1 136 9.61148 15.3076 2.90026 7.26667 -3.12001 4.97734 0.821873 -0.745539 0.426916 0 0 0 0 0 0 0 0 0 
26.982 1 334 11.8343 15.4442 5.14432 -1.49233 2.20365 -0.207194 -0.0396181 -0.415948 0.290054 0 0 0 0 0 0 0 0 0 
26.982 1 100 14.2385 11.641 2.74137 9.22889 -3.40435 1.66172 0.261539 -0.243402 0.00678933 0 0 0 0 0 0 0 0 0 
26.982 1 337 14.2567 13.6449 5.10656 3.52034 -11.3033 -0.72685 -0.381777 -0.346352 0.0639397 0 0 0 0 0 0 0 0 0 
26.982 1 139 15.8052 13.8498 2.98774 5.08212 6.76598 0.816329 -0.435865 0.138266 -0.212516 0 0 0 0 0 0 0 0 0 
26.982 1 298 16.8049 11.6842 4.27349 -2.23068 -2.20688 2.01754 -0.213186 -0.720378 0.0725786 0 0 0 0 0 0 0 0 0 
26.982 1 338 16.309 15.5958 5.18358 2.6784 3.85465 2.71808 -0.197871 0.0753943 0.150681 0 0 0 0 0 0 0 0 0 
26.982 1 302 21.7118 11.2947 4.79581 1.20883 2.97605 11.0127 0.179905 -0.391025 0.430599 0 0 0 0 0 0 0 0 0 
26.982 1 104 19.5718 11.5383 3.05939 -3.63956 0.930826 -2.16179 -0.294689 -0.31165 0.267176 0 0 0 0 0 0 0 0 0 
26.982 1 341 18.3261 13.9302 4.08264 2.94629 -6.23329 0.249856 0.481731 0.0214563 -0.00327343 0 0 0 0 0 0 0 0 0 
26.982 1 304 19.2412 11.6368 6.34495 5.8789 -1.44754 6.12213 -0.138157 0.0762978 -0.0185907 0 0 0 0 0 0 0 0 0 
26.982 1 143 21.9549 13.0453 2.70558 -4.80109 -1.43054 -1.94076 -0.264741 -0.125123 0.424795 0 0 0 0 0 0 0 0 0 
26.982 1 342 21.0047 15.0841 4.25046 -3.00288 4.76328 -7.44655 -0.227909 0.0327994 0.171304 0 0 0 0 0 0 0 0 0 
26.982 1 825 24.8244 1.22607 16.2636 2.89773 -0.473352 -4.57178 -0.889835 0.0478965 0.542167 0 0 0 0 0 0 0 0 0 
26.982 1 108 24.1249 11.1031 2.78549 0.0608084 3.9657 2.91325 -0.267225 -0.0982192 0.305341 0 0 0 0 0 0 0 0 0 
26.982 1 306 26.2142 11.3232 4.84045 -1.06963 -6.00962 -3.16038 -0.440088 -0.28972 -0.0158445 0 0 0 0 0 0 0 0 0 
26.982 1 148 23.4881 15.2913 3.07164 0.548907 -0.700693 2.5202 0.589057 0.160725 0.322134 0 0 0 0 0 0 0 0 0 
26.982 1 345 23.9678 12.97 4.99925 -3.62447 2.9061 -1.0143 -0.190405 0.323945 0.0965878 0 0 0 0 0 0 0 0 0 
26.982 1 147 25.7725 13.3779 2.87217 -2.63047 -3.80541 2.87029 0.184505 -0.376008 -0.560629 0 0 0 0 0 0 0 0 0 
26.982 1 385 25.9552 15.1419 4.77212 -2.69976 -4.61583 0.474408 -0.513312 0.615567 0.165777 0 0 0 0 0 0 0 0 0 
26.982 1 112 27.9045 11.3679 2.73264 -1.00308 1.09666 2.44565 0.429927 0.140982 -0.426442 0 0 0 0 0 0 0 0 0 
26.982 1 346 28.1258 13.3919 4.74931 2.41808 -0.783378 -1.88723 0.121982 -0.105131 -0.490223 0 0 0 0 0 0 0 0 0 
26.982 1 152 29.9966 13.5084 2.46202 -6.56458 -1.00832 -5.18726 0.0396133 -0.35601 -0.0746574 0 0 0 0 0 0 0 0 0 
26.982 1 349 30.2025 11.4891 4.39103 1.54233 -0.916261 -1.3984 0.0630901 0.278507 0.328629 0 0 0 0 0 0 0 0 0 
26.982 1 187 27.8207 15.3209 2.49938 1.10148 5.64309 -1.57952 -0.404194 0.0646187 1.10961 0 0 0 0 0 0 0 0 0 
26.982 1 151 32.2694 11.6732 2.30087 -1.54123 -3.97347 -4.85507 -0.234213 0.691249 -0.193734 0 0 0 0 0 0 0 0 0 
26.982 1 350 32.0596 13.6613 4.41308 -0.337156 -2.59943 2.40175 0.567275 -0.15157 -0.284197 0 0 0 0 0 0 0 0 0 
26.982 1 156 34.2098 13.9784 2.19275 -0.814 -3.63088 2.36303 -0.368191 -0.565632 -0.113944 0 0 0 0 0 0 0 0 0 
26.982 1 353 34.4264 11.8525 4.17514 -2.80897 0.117454 -5.10087 -0.191805 0.151712 -0.105382 0 0 0 0 0 0 0 0 0 
26.982 1 356 34.4478 14.0879 6.07885 -0.510091 3.68365 -2.6527 -0.0694383 -0.169229 0.535283 0 0 0 0 0 0 0 0 0 
26.982 1 114 36.2809 12.0457 1.91725 -8.67243 -1.91323 2.62658 0.192348 0.485848 0.712586 0 0 0 0 0 0 0 0 0 
26.982 1 354 36.3119 14.0586 4.10278 0.625962 -1.96732 2.83762 -0.0520003 -0.0349228 -0.735623 0 0 0 0 0 0 0 0 0 
26.982 1 160 38.301 15.0054 2.49963 2.05919 -1.4309 -0.284494 0.305372 -0.0335428 0.0354872 0 0 0 0 0 0 0 0 0 
26.982 1 357 38.8019 12.1538 4.14037 -1.67378 1.63274 -1.37557 -0.460995 -0.573548 0.0368015 0 0 0 0 0 0 0 0 0 
26.982 1 360 38.6156 14.2465 5.52707 4.12044 -4.50532 0.926295 0.182717 0.146574 0.705124 0 0 0 0 0 0 0 0 0 
26.982 1 157 39.9469 12.948 1.95591 2.13475 4.1209 -1.16117 0.603153 -0.307603 -0.0990236 0 0 0 0 0 0 0 0 0 
26.982 1 355 36.5672 12.1105 5.88602 2.57799 0.227243 2.0384 0.456952 -0.330568 0.801269 0 0 0 0 0 0 0 0 0 
26.982 1 120 42.1022 11.2002 1.96629 3.64359 -1.16883 4.08161 -0.710518 0.722565 -0.170349 0 0 0 0 0 0 0 0 0 
26.982 1 84 44.664 11.9204 2.58757 -0.0472508 -2.15292 1.54994 -0.12809 -0.025853 0.77051 0 0 0 0 0 0 0 0 0 
26.982 1 318 41.464 12.4959 4.79003 -2.44313 4.35902 0.516783 -0.44311 -0.140874 -0.142904 0 0 0 0 0 0 0 0 0 
26.982 1 321 43.7956 13.6687 4.24926 0.172849 0.154752 0.72426 0.111087 -0.196534 0.45013 0 0 0 0 0 0 0 0 0 
26.982 1 159 42.4074 14.3032 1.77163 -3.67866 3.03339 -3.55751 0.245517 -0.336172 0.981774 0 0 0 0 0 0 0 0 0 
26.982 1 358 41.0596 15.1375 4.43912 0.839195 -5.59689 -1.05688 0.424123 -0.162547 -0.38388 0 0 0 0 0 0 0 0 0 
26.982 1 231 31.3369 1.66052 6.45264 -4.14116 1.605 -5.36206 -0.172264 -0.0741181 0.247335 0 0 0 0 0 0 0 0 0 
26.982 1 161 -1.44297 16.5195 3.04471 -0.685157 0.689457 4.05315 0.118104 -1.01683 0.734113 0 0 0 0 0 0 0 0 0 
26.982 1 163 -3.9514 18.874 3.18917 -0.55318 1.62585 1.31253 -0.100122 -0.933978 0.576061 0 0 0 0 0 0 0 0 0 
26.982 1 362 -1.40762 18.7459 4.95274 -1.40889 1.40234 0.372631 -0.788446 -0.231829 0.65766 0 0 0 0 0 0 0 0 0 
26.982 1 363 -2.23092 15.9285 5.76703 6.77845 1.23291 0.6832 -0.0856894 0.8224 -0.671054 0 0 0 0 0 0 0 0 0 
26.982 1 631 30.7617 1.88188 13.9592 4.38398 1.67357 -2.48379 0.150371 -1.07753 -0.419382 0 0 0 0 0 0 0 0 0 
26.982 1 125 1.8929 12.3735 1.45711 -3.1397 -1.3977 -4.05533 -0.0558273 -0.276662 0.277565 0 0 0 0 0 0 0 0 0 
26.982 1 365 1.68422 16.4186 5.34733 1.59684 0.641216 9.81632 -0.0268993 -0.0123291 0.0216655 0 0 0 0 0 0 0 0 0 
26.982 1 168 0.950443 18.6361 3.91543 -2.3335 5.26543 6.36521 0.42165 0.214986 -0.473162 0 0 0 0 0 0 0 0 0 
26.982 1 167 3.58797 16.8195 3.31084 -1.04291 -0.374686 1.2764 -0.490159 -0.373038 0.107379 0 0 0 0 0 0 0 0 0 
26.982 1 366 3.41729 18.8076 5.38478 1.2734 5.11777 1.64449 -0.0492529 -0.218792 0.298893 0 0 0 0 0 0 0 0 0 
26.982 1 201 -3.21222 1.37713 5.79855 4.37907 -2.87909 0.409645 0.214509 -0.040102 0.0413584 0 0 0 0 0 0 0 0 0 
26.982 1 369 5.61636 16.7541 5.22494 -8.98968 2.91996 7.67395 1.02804 0.647927 -0.401383 0 0 0 0 0 0 0 0 0 
26.982 1 172 5.44775 18.9493 3.37952 1.63437 -5.59117 -2.06172 -0.418731 -0.201857 -0.0728847 0 0 0 0 0 0 0 0 0 
26.982 1 171 7.64715 17.0557 3.05984 6.12695 2.81945 2.20023 -0.424457 0.726221 0.979936 0 0 0 0 0 0 0 0 0 
26.982 1 370 7.58629 19.0471 5.26612 -2.4111 7.3048 0.122257 -0.486086 -0.141529 0.0970451 0 0 0 0 0 0 0 0 0 
26.982 1 176 9.25122 19.5114 3.24464 -1.84894 1.37041 -0.399511 -0.219002 -0.464088 -0.0671945 0 0 0 0 0 0 0 0 0 
26.982 1 373 9.87933 17.298 5.29396 0.35452 -0.599529 3.16368 -0.562034 -0.0355471 -0.186051 0 0 0 0 0 0 0 0 0 
26.982 1 175 11.2916 17.3658 3.1629 -0.948111 -2.05241 -0.548052 0.211118 0.748563 -0.746392 0 0 0 0 0 0 0 0 0 
26.982 1 374 11.2242 19.7385 5.05937 4.50919 7.0196 6.38467 0.345869 -0.151278 0.290505 0 0 0 0 0 0 0 0 0 
26.982 1 180 13.4457 19.868 3.37509 0.1827 7.76205 3.28775 -0.730247 -0.184928 -0.736254 0 0 0 0 0 0 0 0 0 
26.982 1 140 13.6648 16.0624 3.29763 -4.31641 2.90315 0.177793 0.553644 -0.537823 0.0991972 0 0 0 0 0 0 0 0 0 
26.982 1 999 41.9572 16.0186 17.7046 -0.78504 7.71651 -2.24672 0.00397501 0.0105408 -0.634598 0 0 0 0 0 0 0 0 0 
26.982 1 377 13.1816 17.8503 5.19255 0.973711 -0.0346791 -0.854866 0.805452 0.154731 0.229204 0 0 0 0 0 0 0 0 0 
26.982 1 179 17.4203 16.2359 2.83449 6.12554 0.838243 1.76113 -0.305182 0.10264 0.835209 0 0 0 0 0 0 0 0 0 
26.982 1 178 15.6497 18.2099 3.30903 -0.850836 -1.16767 7.99102 -0.00679319 -0.292918 0.173166 0 0 0 0 0 0 0 0 0 
26.982 1 378 18.9024 18.4519 3.17959 2.16562 -0.293055 2.07212 0.318238 0.431431 -0.407141 0 0 0 0 0 0 0 0 0 
26.982 1 381 18.7987 16.7458 5.25657 3.38892 7.00999 -1.14338 -0.107744 -0.0892419 -0.244872 0 0 0 0 0 0 0 0 0 
26.982 1 183 21.7093 17.8436 3.95792 0.208876 7.17417 -0.194994 -0.500018 -0.402855 -0.357333 0 0 0 0 0 0 0 0 0 
26.982 1 382 23.5424 19.3354 2.5688 -7.26898 1.06813 2.34059 -0.390024 0.0629105 0.281329 0 0 0 0 0 0 0 0 0 
26.982 1 188 25.4825 17.2289 2.70768 1.5402 0.853711 -3.18223 0.739853 -0.321583 0.522619 0 0 0 0 0 0 0 0 0 
26.982 1 2225 25.5699 19.0129 4.71667 1.68901 -0.666245 7.17624 -0.146817 0.531089 -0.354358 0 0 0 0 0 0 0 0 0 
26.982 1 389 29.987 15.498 4.53584 -2.20147 -5.50136 2.91389 -0.0526134 -0.371184 -0.103336 0 0 0 0 0 0 0 0 0 
26.982 1 2229 29.7286 19.4237 4.42549 -2.53586 -5.33875 -0.760312 -0.00462495 0.500069 -0.139986 0 0 0 0 0 0 0 0 0 
26.982 1 386 27.9454 17.2562 4.56089 -5.10034 -1.50822 -1.64926 -0.708987 -0.104373 -0.187647 0 0 0 0 0 0 0 0 0 
26.982 1 192 29.6815 17.5065 2.42744 1.63962 6.65234 3.4958 0.494654 0.224326 0.301734 0 0 0 0 0 0 0 0 0 
26.982 1 2027 27.5884 19.3416 2.57908 -5.31985 -0.869031 4.59775 -0.0283533 0.129064 0.0739673 0 0 0 0 0 0 0 0 0 
26.982 1 2031 31.6306 19.8327 2.41203 0.615109 -5.88421 -2.73303 0.375297 -0.156967 0.155846 0 0 0 0 0 0 0 0 0 
26.982 1 191 31.8909 15.6404 2.48867 -0.0661396 4.38546 -3.57757 -0.131157 -0.251369 -0.828187 0 0 0 0 0 0 0 0 0 
26.982 1 390 31.7144 17.5847 4.28823 -2.5868 1.89457 -0.667519 0.879299 0.263465 -0.0740799 0 0 0 0 0 0 0 0 0 
26.982 1 393 34.089 15.7867 4.08061 2.02055 2.46476 0.787372 0.0598511 0.747141 0.643132 0 0 0 0 0 0 0 0 0 
26.982 1 196 33.7576 17.6773 2.07871 -0.0950758 6.45051 -0.0269156 -0.026815 1.10136 0.5244 0 0 0 0 0 0 0 0 0 
26.982 1 2233 34.0012 19.822 4.37628 1.30519 -1.28917 -7.18926 0.213447 -0.196196 -0.442432 0 0 0 0 0 0 0 0 0 
26.982 1 195 36.0041 16.2187 2.12913 2.87456 7.21792 -2.86498 -0.161881 0.18402 0.177038 0 0 0 0 0 0 0 0 0 
26.982 1 394 36.6891 18.4384 4.61212 -4.86531 0.246603 -4.59328 -0.55099 0.382135 -0.0276619 0 0 0 0 0 0 0 0 0 
26.982 1 397 38.9324 16.7883 4.67528 -1.78068 -2.1653 0.489964 0.371332 0.540327 -0.346446 0 0 0 0 0 0 0 0 0 
26.982 1 200 37.9811 18.0889 2.09553 1.51989 4.04678 1.31156 0.526149 -0.156968 -0.256352 0 0 0 0 0 0 0 0 0 
26.982 1 395 36.5579 16.1098 5.97231 0.8109 2.44838 8.20115 -0.680746 -0.0237352 0.0452178 0 0 0 0 0 0 0 0 0 
26.982 1 2035 35.8451 19.9138 1.98187 1.5138 6.3622 -1.3201 -0.438355 -0.421197 0.741632 0 0 0 0 0 0 0 0 0 
26.982 1 2237 39.1 19.6563 4.12087 2.6969 0.879962 -2.92607 0.249213 0.0239698 0.104637 0 0 0 0 0 0 0 0 0 
26.982 1 361 43.6614 16.1561 3.68476 5.54396 5.0212 -3.28829 0.147798 0.662893 -0.224444 0 0 0 0 0 0 0 0 0 
26.982 1 164 41.6655 18.1013 3.87706 -1.37701 0.918024 -7.31785 -0.652296 -1.25188 0.0777609 0 0 0 0 0 0 0 0 0 
26.982 1 398 40.7079 16.2994 1.98316 2.97629 3.36614 -2.4561 -0.641652 0.502768 0.351945 0 0 0 0 0 0 0 0 0 
26.982 1 364 43.8025 18.0703 5.6992 -5.85914 -0.451719 6.50476 0.405476 -0.66485 0.45712 0 0 0 0 0 0 0 0 0 
26.982 1 2239 41.4995 19.7219 5.91853 0.808712 -1.92482 -2.33195 -0.320676 0.256614 0.80255 0 0 0 0 0 0 0 0 0 
26.982 1 1920 38.4956 10.5749 1.9897 -2.91336 -3.82964 0.340081 -0.0987457 -0.564336 0.304288 0 0 0 0 0 0 0 0 0 
26.982 1 203 -1.08975 2.05273 7.46821 6.00163 -2.95768 0.286635 0.516089 -0.850772 0.301435 0 0 0 0 0 0 0 0 0 
26.982 1 401 -3.11618 2.08057 10.0058 3.79449 -3.96983 7.8606 0.0925404 0.244071 -0.475637 0 0 0 0 0 0 0 0 0 
26.982 1 441 -1.15672 4.01484 9.63751 -2.3202 -6.18509 0.837198 0.511857 0.157251 0.025468 0 0 0 0 0 0 0 0 0 
26.982 1 204 -2.93368 3.90114 7.54167 -0.86449 2.01965 -3.52288 -1.20153 -0.16119 -0.280642 0 0 0 0 0 0 0 0 0 
26.982 1 243 0.84708 4.15351 7.29993 -3.72599 -2.86023 3.67137 0.938761 -0.129934 1.35956 0 0 0 0 0 0 0 0 0 
26.982 1 402 1.35357 1.80469 9.50238 -2.94686 -0.17657 1.13897 -0.462066 0.509538 0.162226 0 0 0 0 0 0 0 0 0 
26.982 1 208 3.2088 2.0746 7.19946 -0.275346 -3.85122 5.16273 0.110297 -0.0434616 0.146426 0 0 0 0 0 0 0 0 0 
26.982 1 445 3.16518 3.84605 9.36004 -0.516733 1.62609 -0.11663 0.269999 0.585521 -0.00101207 0 0 0 0 0 0 0 0 0 
26.982 1 247 5.13888 4.21718 7.14305 -0.711945 -3.49288 2.32042 0.234843 0.189327 0.470365 0 0 0 0 0 0 0 0 0 
26.982 1 406 5.4271 2.15199 8.973 3.97194 -3.70623 -1.4909 -0.332218 -0.023729 0.685827 0 0 0 0 0 0 0 0 0 
26.982 1 212 7.32307 2.38189 7.02892 6.09971 -0.233486 3.27468 0.255939 -0.0736533 0.0426969 0 0 0 0 0 0 0 0 0 
26.982 1 449 7.34854 4.23272 8.96174 0.946302 -2.10222 0.106233 -0.371379 0.644592 0.686633 0 0 0 0 0 0 0 0 0 
26.982 1 251 9.07687 4.68391 6.98786 -1.21953 -7.20124 -1.52752 0.659205 0.254132 0.253762 0 0 0 0 0 0 0 0 0 
26.982 1 410 9.57934 2.63853 9.10949 -0.697613 3.10784 0.0397228 -0.0860909 -0.0497127 -0.264005 0 0 0 0 0 0 0 0 0 
26.982 1 453 11.4469 5.0957 9.32799 -5.70378 -4.11138 1.45658 -0.0961088 -0.624447 -0.686764 0 0 0 0 0 0 0 0 0 
26.982 1 216 11.3682 2.87563 7.08224 7.50352 -2.31284 0.472102 0.111133 -0.0724674 -0.144933 0 0 0 0 0 0 0 0 0 
26.982 1 255 13.1527 4.90525 7.08747 -5.76162 3.63748 -1.4462 0.513584 1.24151 -0.542591 0 0 0 0 0 0 0 0 0 
26.982 1 414 13.6905 3.09255 8.80572 -0.259328 1.23739 -1.69039 0.00238708 -0.675842 0.744229 0 0 0 0 0 0 0 0 0 
26.982 1 457 15.4076 5.22783 8.84178 -2.18771 3.51058 -2.27661 0.0804741 -0.185093 -0.179338 0 0 0 0 0 0 0 0 0 
26.982 1 220 15.7515 3.08262 6.85101 -9.47354 2.00997 2.58774 -0.774446 -0.469898 0.436763 0 0 0 0 0 0 0 0 0 
26.982 1 418 17.6641 3.14127 8.89088 1.83165 1.05047 3.62456 0.0514558 -0.00300139 -0.054771 0 0 0 0 0 0 0 0 0 
26.982 1 259 17.5266 5.09151 6.61241 -4.55523 3.1821 0.861079 0.133384 0.942782 0.619076 0 0 0 0 0 0 0 0 0 
26.982 1 224 19.5532 3.29927 6.89761 0.997131 3.60123 4.2013 0.538585 -0.601717 0.0462527 0 0 0 0 0 0 0 0 0 
26.982 1 461 19.4294 5.26464 8.75034 -0.00323797 3.75891 -0.793866 0.158879 -0.0115057 0.515346 0 0 0 0 0 0 0 0 0 
26.982 1 422 21.777 3.44306 8.6497 -0.407698 1.08009 -2.73502 0.292062 -0.173421 -0.28215 0 0 0 0 0 0 0 0 0 
26.982 1 463 21.752 5.54438 10.386 -1.61211 1.49358 -2.42255 -0.463977 -0.262575 0.358234 0 0 0 0 0 0 0 0 0 
26.982 1 424 19.9964 3.24578 10.8189 0.59981 3.40946 -0.515837 -0.402251 -0.139853 -0.218035 0 0 0 0 0 0 0 0 0 
26.982 1 263 22.1017 6.05396 7.62311 0.209177 -1.40605 3.41229 0.110947 -1.01426 -0.249653 0 0 0 0 0 0 0 0 0 
26.982 1 228 24.2837 3.9279 7.28309 0.576766 -2.52347 -0.358662 -0.411706 0.0209576 0.0708799 0 0 0 0 0 0 0 0 0 
26.982 1 465 24.1486 5.95815 9.31831 -2.16374 0.701545 4.56797 0.579015 0.155828 0.141882 0 0 0 0 0 0 0 0 0 
26.982 1 227 26.4445 2.29475 7.04961 -2.87017 4.88972 5.266 0.100994 0.240709 0.452752 0 0 0 0 0 0 0 0 0 
26.982 1 426 26.3935 4.29516 9.27039 -2.89236 -5.46815 -1.60703 -0.0526839 0.132828 -0.138871 0 0 0 0 0 0 0 0 0 
26.982 1 428 24.0039 3.29512 10.4959 2.6351 6.37386 1.94354 0.0484826 0.371172 -0.589088 0 0 0 0 0 0 0 0 0 
26.982 1 2217 15.2802 20.1773 5.22558 2.61798 -4.73812 5.62906 0.0734929 -0.202394 0.307992 0 0 0 0 0 0 0 0 0 
26.982 1 429 28.8437 2.46168 9.0075 3.7939 2.38414 -0.236859 -0.127675 0.400051 0.0926232 0 0 0 0 0 0 0 0 0 
26.982 1 267 26.8723 5.08809 6.67267 1.61653 4.67682 -2.7031 -0.274791 0.416036 -0.424885 0 0 0 0 0 0 0 0 0 