ITEM: TIMESTEP
1450
ITEM: NUMBER OF ATOMS
4000
ITEM: BOX BOUNDS pp pp pp
-0.368897 40.8689
0.0262591 40.4737
0.028417 40.4716
ITEM: ATOMS mass type id x y z vx vy vz fx fy fz xrad yrad zrad vxrad vyrad vzrad fxrad fyrad fzrad 
26.982 1 811 9.83082 -0.00653947 18.0683 -4.15277 0.837539 1.26052 0.182178 -0.250406 0.420673 0 0 0 0 0 0 0 0 0 
26.982 1 3 1.93465 -0.0508589 2.02958 0.354404 -1.30535 -1.49841 -0.137325 -0.185577 0.16369 0 0 0 0 0 0 0 0 0 
26.982 1 8 3.86613 2.03848 2.08727 -3.69584 -0.113457 -3.09095 -0.286125 -0.406115 -0.303185 0 0 0 0 0 0 0 0 0 
26.982 1 807 5.73452 0.0108384 18.2744 3.20472 -2.13298 3.02761 0.0846561 0.231767 0.22452 0 0 0 0 0 0 0 0 0 
26.982 1 43 1.76074 3.97571 2.05246 -1.06155 -5.63667 3.09177 -0.034018 -0.143654 0.203203 0 0 0 0 0 0 0 0 0 
26.982 1 202 1.64669 1.89604 4.01086 1.58707 -1.51247 0.297085 0.65838 0.248154 0.257055 0 0 0 0 0 0 0 0 0 
26.982 1 241 -0.44077 3.989 4.16325 -0.25042 0.153061 -3.69499 0.517861 -0.0226127 -0.12755 0 0 0 0 0 0 0 0 0 
26.982 1 245 3.8932 4.02441 4.04729 0.313766 -1.97628 -0.317255 -0.606531 0.297473 0.127857 0 0 0 0 0 0 0 0 0 
26.982 1 2825 24.5488 20.4571 16.0587 0.0901203 0.877923 2.35547 -0.728217 -0.749359 0.144433 0 0 0 0 0 0 0 0 0 
26.982 1 2819 18.2775 20.2046 18.0439 4.87599 2.76248 2.59072 -0.108421 0.254729 0.326277 0 0 0 0 0 0 0 0 0 
26.982 1 12 7.95054 2.07506 1.9817 -2.0369 -4.17927 1.93863 0.10696 0.0288363 0.0683459 0 0 0 0 0 0 0 0 0 
26.982 1 47 5.7414 4.00166 1.88431 2.43737 -5.70183 -3.92256 0.535536 0.410991 0.200367 0 0 0 0 0 0 0 0 0 
26.982 1 49 8.02112 4.10266 -0.0419644 -1.79655 7.94985 0.718065 -0.061724 -0.205579 0.281694 0 0 0 0 0 0 0 0 0 
26.982 1 206 5.73983 2.15367 4.04557 2.88525 5.44347 -3.98692 0.941329 -0.550074 0.260377 0 0 0 0 0 0 0 0 0 
26.982 1 209 8.1372 0.142623 4.07645 1.85011 -2.4593 0.138615 -0.957325 -0.238294 -0.137733 0 0 0 0 0 0 0 0 0 
26.982 1 249 7.94982 4.23425 4.11001 -1.75939 1.16744 4.50071 0.0319802 -0.408875 -0.27528 0 0 0 0 0 0 0 0 0 
26.982 1 10 10.1022 1.97656 -0.172521 -0.361197 0.782158 -3.94417 -1.02572 0.0483216 0.797969 0 0 0 0 0 0 0 0 0 
26.982 1 16 11.9105 2.09973 1.85116 -0.0142609 1.34846 4.10107 0.251652 -0.0225363 0.508218 0 0 0 0 0 0 0 0 0 
26.982 1 51 9.9815 4.21877 2.12728 -2.59579 3.60772 2.02865 -0.144893 -0.558203 -0.135569 0 0 0 0 0 0 0 0 0 
26.982 1 53 12.1338 4.16719 0.175328 -2.6115 0.0917453 0.386914 -0.230333 -0.254729 -0.306057 0 0 0 0 0 0 0 0 0 
26.982 1 210 9.88927 2.11653 4.1508 1.03591 -2.39968 3.0745 0.567151 0.268535 -0.740141 0 0 0 0 0 0 0 0 0 
26.982 1 1197 36.7144 16.2698 20.1468 -2.85533 -2.04871 0.434776 0.0428226 -0.539774 0.158291 0 0 0 0 0 0 0 0 0 
26.982 1 253 11.9874 4.04339 4.03834 3.1242 -4.93185 -3.4676 0.118301 0.234676 -0.0404017 0 0 0 0 0 0 0 0 0 
26.982 1 20 16.1134 1.99887 1.98856 3.41082 0.073161 3.92747 -0.0922591 -0.0113488 -0.242167 0 0 0 0 0 0 0 0 0 
26.982 1 55 14.1784 4.19032 2.02138 -1.26628 0.658432 -4.85912 -0.36595 -0.201882 -0.0634382 0 0 0 0 0 0 0 0 0 
26.982 1 57 16.3269 4.08448 0.0266938 0.889455 1.18407 -0.854493 -0.500965 0.235602 -0.115533 0 0 0 0 0 0 0 0 0 
26.982 1 214 13.9999 2.12949 3.89976 -5.4891 -1.78561 -0.385632 -0.0688977 0.0544464 0.122462 0 0 0 0 0 0 0 0 0 
26.982 1 257 16.0937 4.06774 3.8015 0.616295 1.69136 -2.52941 -0.121657 0.544018 0.691169 0 0 0 0 0 0 0 0 0 
26.982 1 218 17.9859 2.14371 3.89248 -4.66918 -2.81069 -3.89557 0.760502 -0.286487 0.668585 0 0 0 0 0 0 0 0 0 
26.982 1 18 18.1135 2.12101 -0.028457 0.895512 -1.37557 3.87551 0.41787 -0.295857 0.0968787 0 0 0 0 0 0 0 0 0 
26.982 1 819 18.27 0.128943 18.2221 1.86723 2.81469 -1.44184 -0.0945618 -0.332742 -0.50181 0 0 0 0 0 0 0 0 0 
26.982 1 2813 11.9821 20.1454 16.223 -6.91139 -1.07737 -0.021421 -0.478991 0.652564 0.134747 0 0 0 0 0 0 0 0 0 
26.982 1 22 22.3435 2.22239 -0.0498789 -2.62078 2.16705 -3.79975 -0.548891 -0.441492 0.129228 0 0 0 0 0 0 0 0 0 
26.982 1 24 20.1836 2.17248 2.14107 -4.39732 0.56045 1.23457 -0.0797122 -0.335582 -0.599059 0 0 0 0 0 0 0 0 0 
26.982 1 59 18.215 4.11604 2.05371 2.68656 -3.69356 3.00679 0.0011105 0.216402 -0.463151 0 0 0 0 0 0 0 0 0 
26.982 1 61 20.2215 4.20172 -0.00659143 7.1476 2.47706 0.691953 0.238363 -0.216511 -0.192595 0 0 0 0 0 0 0 0 0 
26.982 1 63 22.2112 4.00414 1.93732 2.79613 -6.18627 1.16685 0.0385487 0.700596 0.406763 0 0 0 0 0 0 0 0 0 
26.982 1 222 22.4447 2.06981 3.98118 -2.31 1.4889 0.178448 -0.817169 0.226122 0.357014 0 0 0 0 0 0 0 0 0 
26.982 1 261 20.1324 4.10829 4.00171 0.320487 -4.5842 0.0805544 0.304998 0.206346 0.460924 0 0 0 0 0 0 0 0 0 
26.982 1 25 24.1014 -0.00925729 0.0806684 3.09582 -9.00925 -1.31941 0.597649 0.109798 -0.00338721 0 0 0 0 0 0 0 0 0 
26.982 1 635 34.8643 0.034506 14.556 1.15281 -6.35646 -1.22041 -0.675495 -0.0480028 -0.496591 0 0 0 0 0 0 0 0 0 
26.982 1 27 26.2555 0.0944648 1.91405 0.889597 -1.83933 -1.689 0.130445 -0.149236 0.336236 0 0 0 0 0 0 0 0 0 
26.982 1 28 24.3385 2.23777 2.01258 3.82237 3.81567 -1.17568 -0.0950478 -0.67336 -0.21604 0 0 0 0 0 0 0 0 0 
26.982 1 65 24.18 4.14024 -0.0692118 -1.87686 0.226073 3.87709 0.622518 0.311249 -0.216558 0 0 0 0 0 0 0 0 0 
26.982 1 67 26.3695 4.04278 2.06859 -4.30002 -5.07397 2.71439 -0.0731407 0.226529 -0.605942 0 0 0 0 0 0 0 0 0 
26.982 1 225 24.1636 0.0527042 3.9623 -0.536618 1.59884 -2.24713 0.53293 0.0172203 -0.00280492 0 0 0 0 0 0 0 0 0 
26.982 1 226 26.3443 1.98407 4.08503 5.36899 -1.6881 -0.809257 0.369679 -0.210891 -0.267842 0 0 0 0 0 0 0 0 0 
26.982 1 265 24.338 4.06668 3.99701 4.36201 -1.33316 -1.2716 -0.129079 0.610599 0.0820075 0 0 0 0 0 0 0 0 0 
26.982 1 30 30.6003 1.98632 0.0628245 -3.06285 2.52455 2.19725 0.114087 0.166057 -0.0635138 0 0 0 0 0 0 0 0 0 
26.982 1 32 28.3783 2.13466 1.93103 -0.452759 -3.60478 1.95677 -0.0258868 -0.0475675 0.576514 0 0 0 0 0 0 0 0 0 
26.982 1 69 28.4877 4.00653 -0.101663 -3.99927 2.3351 3.21727 -0.210954 0.0585821 0.161468 0 0 0 0 0 0 0 0 0 
26.982 1 71 30.3986 4.03922 2.07338 -1.40524 -5.07192 0.84325 0.583852 -0.11968 -0.272935 0 0 0 0 0 0 0 0 0 
26.982 1 230 30.5429 2.07608 3.9983 -0.939795 -2.1669 3.16899 -0.300042 -0.330222 0.104803 0 0 0 0 0 0 0 0 0 
26.982 1 269 28.287 4.11263 3.91648 2.41603 -0.16415 -3.9158 0.82419 -0.690305 0.376235 0 0 0 0 0 0 0 0 0 
26.982 1 35 34.685 -0.0679812 2.15632 -3.01047 3.73358 -0.376495 0.18622 -0.0287568 0.0528014 0 0 0 0 0 0 0 0 0 
26.982 1 36 32.7063 1.99489 2.05688 -0.0335215 -2.16016 -3.52137 -0.0330057 0.212844 -0.106007 0 0 0 0 0 0 0 0 0 
26.982 1 73 32.5806 4.05982 -0.0365931 0.955242 -4.44416 -1.10054 -0.0991354 -0.439118 0.381169 0 0 0 0 0 0 0 0 0 
26.982 1 75 34.7986 4.02777 2.0579 -0.457439 1.17832 -1.29215 -0.47449 -0.221105 0.252712 0 0 0 0 0 0 0 0 0 
26.982 1 234 34.7743 1.87996 4.00428 0.681227 -1.43987 2.31178 -0.138376 0.408859 0.334938 0 0 0 0 0 0 0 0 0 
26.982 1 273 32.5488 3.99466 4.06298 -1.06018 3.779 -0.25218 0.298502 0.0118031 0.0651365 0 0 0 0 0 0 0 0 0 
26.982 1 4 40.934 1.88244 2.09296 -2.01988 4.43498 -4.58647 -0.0682893 0.288552 -0.15015 0 0 0 0 0 0 0 0 0 
26.982 1 40 36.9132 1.89463 2.04576 -1.60716 -1.71807 -3.00609 -0.415167 0.295305 0.418819 0 0 0 0 0 0 0 0 0 
26.982 1 79 38.7576 4.20526 2.24077 -0.205937 -4.69557 0.874602 0.343258 -0.549401 -0.315318 0 0 0 0 0 0 0 0 0 
26.982 1 961 -0.510645 16.1298 16.34 -1.19532 -0.228245 1.34411 -0.35225 0.0798917 -0.575633 0 0 0 0 0 0 0 0 0 
26.982 1 238 38.8158 2.06089 4.03611 -1.32306 0.368382 4.92893 0.353779 -0.232113 0.0192975 0 0 0 0 0 0 0 0 0 
26.982 1 277 36.655 4.14904 4.10354 2.15001 -1.60902 0.484397 0.50443 -0.354873 0.022531 0 0 0 0 0 0 0 0 0 
26.982 1 631 30.5538 0.169674 14.2312 3.03378 1.23627 4.41394 0.131924 -0.359116 -0.0017555 0 0 0 0 0 0 0 0 0 
26.982 1 48 3.67331 6.12239 2.09058 1.96037 0.691828 0.710896 0.168062 -0.205662 -0.064825 0 0 0 0 0 0 0 0 0 
26.982 1 627 26.5721 -0.0573198 14.2851 1.28633 3.76246 0.457549 -0.348825 0.447558 -0.303796 0 0 0 0 0 0 0 0 0 
26.982 1 83 1.48532 8.10278 2.0279 -3.91088 0.768468 -1.94695 0.85996 -0.00333823 0.296067 0 0 0 0 0 0 0 0 0 
26.982 1 403 1.78995 -0.126773 10.1694 -1.39734 4.90543 -4.24665 0.0413819 0.409018 -0.221687 0 0 0 0 0 0 0 0 0 
26.982 1 242 1.61978 5.98902 4.0987 2.87656 0.431304 -1.09364 0.113755 0.144708 0.0718555 0 0 0 0 0 0 0 0 0 
26.982 1 285 3.67796 8.00361 4.22768 -0.811425 -5.36498 -3.94593 0.332646 -0.0297985 -0.349558 0 0 0 0 0 0 0 0 0 
26.982 1 46 5.82598 6.13282 -0.0763503 -4.27343 7.51842 -4.83302 -0.176469 -0.464306 0.192525 0 0 0 0 0 0 0 0 0 
26.982 1 52 7.89275 6.07279 2.04904 0.92208 -2.05587 -1.87334 0.0388954 0.100857 -0.127961 0 0 0 0 0 0 0 0 0 
26.982 1 87 5.78235 7.9345 2.12671 -1.07435 -2.21975 -2.30482 -0.112929 0.435913 -0.14126 0 0 0 0 0 0 0 0 0 
26.982 1 603 1.6891 0.0237437 14.175 -1.22832 0.73262 -5.55669 0.235064 -0.168896 -0.269683 0 0 0 0 0 0 0 0 0 
26.982 1 246 5.9088 6.00782 4.01263 0.822974 0.397979 3.7358 -0.243734 0.162248 0.117825 0 0 0 0 0 0 0 0 0 
26.982 1 289 7.86826 8.23072 4.13518 -2.86897 0.704483 4.75535 0.440574 -0.443713 -0.198715 0 0 0 0 0 0 0 0 0 
26.982 1 92 7.7251 10.1187 2.16119 2.16335 -0.0199288 1.46578 0.412385 -0.147617 -0.63494 0 0 0 0 0 0 0 0 0 
26.982 1 286 5.84368 10.0355 4.04474 -2.48404 0.892016 -5.92528 -0.669005 -0.0269651 0.26744 0 0 0 0 0 0 0 0 0 
26.982 1 1021 20.2115 0.152225 20.2953 4.11004 0.798503 2.07103 0.206546 -0.0321478 0.00668728 0 0 0 0 0 0 0 0 0 
26.982 1 56 12.0887 6.12704 2.09837 -4.02364 4.13818 -0.204262 -0.033516 0.278403 0.0416801 0 0 0 0 0 0 0 0 0 
26.982 1 91 9.91363 8.17242 2.03845 -1.16427 0.528538 1.77651 -0.167974 0.0572227 -0.160517 0 0 0 0 0 0 0 0 0 
26.982 1 250 10.0191 6.21814 4.10606 -0.387537 3.00859 -0.664888 -0.21734 -0.0547064 -0.0353999 0 0 0 0 0 0 0 0 0 
26.982 1 293 11.8748 8.3817 3.93978 0.921017 0.842964 -2.40647 0.491891 -0.490941 0.391042 0 0 0 0 0 0 0 0 0 
26.982 1 54 14.2064 5.9506 -0.062698 -0.622528 -0.419952 4.60669 -0.0249217 0.84568 0.207416 0 0 0 0 0 0 0 0 0 
26.982 1 60 16.1348 6.27137 1.98922 8.30846 -3.98426 -4.29726 0.128798 -0.0471799 -0.147187 0 0 0 0 0 0 0 0 0 
26.982 1 95 13.9231 8.19244 1.85134 0.401228 -4.50455 0.712617 0.472545 0.0221763 0.357891 0 0 0 0 0 0 0 0 0 
26.982 1 97 16.0293 8.34132 -0.0107477 -3.47385 -1.63268 -2.36866 0.215806 -0.674422 -0.170114 0 0 0 0 0 0 0 0 0 
26.982 1 254 14.1251 6.32543 4.02574 3.30999 -2.89144 -0.351993 -0.0988437 -0.521454 -0.439562 0 0 0 0 0 0 0 0 0 
26.982 1 297 16.2361 8.31366 3.95626 -0.0554195 1.33154 -2.08642 -0.354984 -0.3164 0.364715 0 0 0 0 0 0 0 0 0 
26.982 1 58 18.2687 6.0501 -0.0142578 -1.32023 -3.23599 -3.29871 -0.349078 0.571927 0.027181 0 0 0 0 0 0 0 0 0 
26.982 1 2639 38.8356 20.2535 14.1802 3.08991 0.304398 -1.35918 -0.457131 0.0467855 -0.115038 0 0 0 0 0 0 0 0 0 
26.982 1 64 20.3629 6.23428 2.01348 3.55003 5.70214 1.1929 -0.216288 -0.16542 -0.0163772 0 0 0 0 0 0 0 0 0 
26.982 1 99 18.2317 8.22889 2.05011 -2.07633 1.52032 -0.351899 -0.0350904 -0.421246 -0.468698 0 0 0 0 0 0 0 0 0 
26.982 1 103 22.3823 8.27084 2.02705 -1.63055 0.238233 -1.13594 -0.236728 -0.145524 -0.393451 0 0 0 0 0 0 0 0 0 
26.982 1 258 18.1843 6.05999 3.96811 -1.0482 1.08434 -0.344445 0.00951591 0.354641 0.336015 0 0 0 0 0 0 0 0 0 
26.982 1 262 22.3407 6.1575 3.98267 -2.98288 2.49556 -0.387734 -0.0127471 -0.120737 0.118815 0 0 0 0 0 0 0 0 0 
26.982 1 301 20.3298 8.1227 4.10167 -2.10516 1.48129 -0.394983 -0.0499034 -0.141888 -0.226651 0 0 0 0 0 0 0 0 0 
26.982 1 298 18.3722 10.1108 3.9975 0.443899 -0.461041 0.981167 -0.471334 0.414673 0.137586 0 0 0 0 0 0 0 0 0 
26.982 1 2637 36.6537 20.198 12.2531 -1.18294 4.44567 1.56474 -0.0861456 0.311514 -0.0510866 0 0 0 0 0 0 0 0 0 
26.982 1 68 24.334 6.0609 1.83983 2.0445 -1.16102 -3.92615 0.0864694 0.270607 0.528961 0 0 0 0 0 0 0 0 0 
26.982 1 107 26.5425 8.07723 2.07448 -0.385021 -1.11619 -3.78695 -0.623369 0.0298141 -0.328755 0 0 0 0 0 0 0 0 0 
26.982 1 266 26.3872 6.02415 3.95653 -3.01126 -0.885016 3.03458 -0.311164 0.639153 0.0120331 0 0 0 0 0 0 0 0 0 
26.982 1 305 24.296 8.21656 3.97321 -3.77399 -2.284 4.05843 0.52889 -0.246964 0.107585 0 0 0 0 0 0 0 0 0 
26.982 1 106 26.4599 10.3257 -0.0146019 1.70903 0.292383 -4.99418 -0.217776 -0.457918 -0.10632 0 0 0 0 0 0 0 0 0 
26.982 1 108 24.2477 10.4655 2.09112 4.39742 -0.050743 3.82688 0.735851 -0.887124 -0.610696 0 0 0 0 0 0 0 0 0 
26.982 1 306 26.4617 10.0766 3.98187 1.89806 0.284546 4.44681 -0.339144 0.116037 0.226248 0 0 0 0 0 0 0 0 0 
26.982 1 70 30.4597 6.04303 -0.0167602 0.0990111 0.21076 -1.67667 0.344427 -0.125384 -0.147026 0 0 0 0 0 0 0 0 0 
26.982 1 72 28.5877 6.03258 2.03402 -0.663592 -0.682489 -0.481164 -0.343726 0.327312 -0.135246 0 0 0 0 0 0 0 0 0 
26.982 1 111 30.6857 8.03543 1.8431 5.95362 -3.60607 1.39752 -0.280569 0.221179 0.338661 0 0 0 0 0 0 0 0 0 
26.982 1 270 30.5798 6.09668 3.99933 0.553501 -1.29433 1.88824 0.0981928 -0.0819391 0.147057 0 0 0 0 0 0 0 0 0 
26.982 1 309 28.5404 8.14603 3.96452 -1.19347 3.43819 0.506892 0.259197 -0.14301 0.182561 0 0 0 0 0 0 0 0 0 
26.982 1 112 28.4392 10.1118 1.95121 -0.79735 -1.54636 3.6893 0.471285 0.128293 -0.186803 0 0 0 0 0 0 0 0 0 
26.982 1 76 32.643 5.86076 1.97898 3.26505 -1.31464 -0.335953 0.079359 0.612546 0.324403 0 0 0 0 0 0 0 0 0 
26.982 1 115 34.9081 8.18448 2.08041 2.90274 -1.53933 2.66499 -0.582654 -0.322235 -0.120158 0 0 0 0 0 0 0 0 0 
26.982 1 274 34.6379 6.03609 4.30882 5.9346 1.52791 -0.748959 -0.263127 0.312799 -0.656297 0 0 0 0 0 0 0 0 0 
26.982 1 313 32.5254 8.05764 4.07686 6.27443 1.57689 3.12952 0.518022 -0.335198 -0.224324 0 0 0 0 0 0 0 0 0 
26.982 1 114 34.7684 10.0925 0.00923639 -5.54994 -2.87235 1.74358 -0.169068 -0.0228653 0.157249 0 0 0 0 0 0 0 0 0 
26.982 1 116 32.6405 10.0811 2.09199 0.625015 2.21965 -3.70841 -0.00102767 -0.127716 -0.400214 0 0 0 0 0 0 0 0 0 
26.982 1 44 40.9672 5.9526 1.92752 0.670882 2.75876 -0.696036 -0.43031 -0.00103881 0.565347 0 0 0 0 0 0 0 0 0 
26.982 1 281 40.7187 7.99847 4.09256 1.21791 1.96691 1.96076 0.633399 0.258363 0.163436 0 0 0 0 0 0 0 0 0 
26.982 1 2631 30.5159 20.3128 14.0544 -5.33201 6.31757 -0.25014 -0.170027 -0.159744 0.360062 0 0 0 0 0 0 0 0 0 
26.982 1 80 36.7161 6.05948 2.16091 1.15458 -2.71634 -2.5915 0.0865937 0.384735 -0.209429 0 0 0 0 0 0 0 0 0 
26.982 1 117 36.9026 8.03367 0.0128876 1.06071 -7.60303 3.65913 -0.171602 0.124089 0.139626 0 0 0 0 0 0 0 0 0 
26.982 1 119 38.7067 8.24343 2.13342 -3.43609 2.16088 2.09492 0.11366 -0.515604 -0.12387 0 0 0 0 0 0 0 0 0 
26.982 1 278 38.9176 6.10435 4.17943 0.367464 1.39764 -0.638985 -0.669862 -0.171443 -0.00364191 0 0 0 0 0 0 0 0 0 
26.982 1 317 36.6817 8.08711 4.15876 5.00398 -4.42203 7.01542 0.260688 0.204694 0.0122806 0 0 0 0 0 0 0 0 0 
26.982 1 120 36.8165 10.3274 2.02773 -0.105514 -2.0746 2.74273 -0.468686 -0.565994 0.261733 0 0 0 0 0 0 0 0 0 
26.982 1 318 38.9224 10.1566 4.0878 0.118642 1.38993 -0.821989 -0.659974 -0.166288 0.188087 0 0 0 0 0 0 0 0 0 
26.982 1 88 3.77387 10.1125 2.06206 -1.08967 1.31119 -2.34209 -0.147782 -0.307569 0.119224 0 0 0 0 0 0 0 0 0 
26.982 1 2611 9.89674 20.2223 14.1982 -0.986096 -4.44397 -4.58976 0.16401 0.301375 -0.0336284 0 0 0 0 0 0 0 0 0 
26.982 1 123 1.63242 11.9701 2.2002 -0.994634 -4.25206 -3.63281 0.283167 0.574604 -0.150617 0 0 0 0 0 0 0 0 0 
26.982 1 2609 7.87744 20.2332 12.1387 3.00648 0.819605 2.21521 -0.0418766 0.214968 0.105931 0 0 0 0 0 0 0 0 0 
26.982 1 128 3.72621 14.2299 2.08997 2.75841 0.391539 0.662954 0.0194427 -0.0826573 0.177452 0 0 0 0 0 0 0 0 0 
26.982 1 282 1.7365 9.92628 4.13036 -0.79975 -0.623744 -1.74147 -0.0710674 0.17103 0.0783543 0 0 0 0 0 0 0 0 0 
26.982 1 322 1.6426 14.0998 4.0753 3.10379 1.07516 -0.0663637 0.26654 0.0709428 0.433112 0 0 0 0 0 0 0 0 0 
26.982 1 325 3.78623 12.1253 3.9801 0.326705 -4.07697 -0.684554 -0.329392 -0.00398897 0.467991 0 0 0 0 0 0 0 0 0 
26.982 1 207 5.88416 -0.142351 6.17706 -0.060012 -7.22526 -1.2808 0.208126 0.74688 -0.0605588 0 0 0 0 0 0 0 0 0 
26.982 1 127 5.85056 12.1875 2.15872 -4.2517 2.04835 5.86018 -0.348561 -0.52934 -0.362289 0 0 0 0 0 0 0 0 0 
26.982 1 129 7.77935 12.1591 -0.010762 0.988587 -3.24709 -4.9877 0.0142901 0.0882855 0.0453368 0 0 0 0 0 0 0 0 0 
26.982 1 132 7.80524 13.9784 2.16762 1.84039 5.40471 0.630424 0.363019 0.552608 -0.213773 0 0 0 0 0 0 0 0 0 
26.982 1 326 5.80268 14.0519 4.11759 2.84086 0.840365 -3.05078 -0.0324187 0.394085 0.242079 0 0 0 0 0 0 0 0 0 
26.982 1 329 7.77738 11.9367 4.27077 0.424928 -4.39064 -1.89481 0.450763 0.859507 -0.170585 0 0 0 0 0 0 0 0 0 
26.982 1 96 11.9988 10.2993 1.97816 0.728149 3.47325 -2.18043 -0.142516 -0.272424 -0.346721 0 0 0 0 0 0 0 0 0 
26.982 1 407 6.01704 0.0868345 10.0818 -1.60131 -1.80831 3.32841 -0.474443 -0.049293 0.272308 0 0 0 0 0 0 0 0 0 
26.982 1 131 9.75119 12.0901 2.09115 -5.51127 2.81042 7.59301 0.491023 0.0629316 -0.150444 0 0 0 0 0 0 0 0 0 
26.982 1 133 12.085 12.1699 0.00369889 -1.26372 1.2276 -1.88884 -0.365712 0.174414 -0.142886 0 0 0 0 0 0 0 0 0 
26.982 1 136 11.8615 14.2268 1.91911 0.65769 -0.673908 -1.09042 0.222697 -0.671897 0.438134 0 0 0 0 0 0 0 0 0 
26.982 1 290 9.95505 10.2378 4.16833 1.92583 1.86465 1.64933 0.0108023 -0.049473 -0.135069 0 0 0 0 0 0 0 0 0 
26.982 1 330 9.91512 14.1139 4.05778 2.02603 -0.50347 4.52283 -0.142694 -0.383071 0.340232 0 0 0 0 0 0 0 0 0 
26.982 1 333 12.2363 12.1213 3.87159 5.57468 -0.549934 -0.699184 -0.788486 0.415374 0.54667 0 0 0 0 0 0 0 0 0 
26.982 1 100 16.1287 10.1903 1.95502 -1.17289 -3.24688 -1.7738 -0.0398465 0.257618 0.0565996 0 0 0 0 0 0 0 0 0 
26.982 1 135 14.1993 12.3766 1.91303 0.497641 3.09447 -3.79976 -0.180157 -0.315567 -0.0155299 0 0 0 0 0 0 0 0 0 
26.982 1 140 16.0602 14.431 2.14518 0.223305 -1.49874 -0.278103 0.193759 -0.623436 -0.501679 0 0 0 0 0 0 0 0 0 
26.982 1 294 14.0744 10.1558 3.95575 0.491237 9.63484 2.45912 0.24004 -0.235353 0.17576 0 0 0 0 0 0 0 0 0 
26.982 1 334 14.0928 14.0692 4.13451 -1.55168 2.84469 0.571732 -0.139744 0.397464 0.215859 0 0 0 0 0 0 0 0 0 
26.982 1 337 16.0736 12.0804 4.07657 -2.35854 -2.92593 1.97889 0.324002 0.104758 -0.270292 0 0 0 0 0 0 0 0 0 
26.982 1 104 20.1989 10.1491 1.95875 0.342874 3.01485 -1.92019 0.32385 0.0687026 -0.0887889 0 0 0 0 0 0 0 0 0 
26.982 1 139 18.1675 12.1516 1.98436 -0.946366 -0.00104419 -0.930442 -0.0972264 0.295993 -0.0203982 0 0 0 0 0 0 0 0 0 
26.982 1 143 22.2238 12.1202 1.97581 -0.53338 -0.791144 -1.21635 -0.140695 0.372327 -0.038396 0 0 0 0 0 0 0 0 0 
26.982 1 144 20.3241 14.1126 2.00577 2.59644 0.572606 -2.34553 -0.504082 0.31625 0.04548 0 0 0 0 0 0 0 0 0 
26.982 1 302 22.3211 10.1975 3.95387 1.6831 1.83723 -1.2815 -0.339289 -0.000791265 0.427302 0 0 0 0 0 0 0 0 0 
26.982 1 338 18.0632 14.2075 3.95201 0.323378 -4.44699 -2.4766 0.691251 -0.0352916 0.17866 0 0 0 0 0 0 0 0 0 
26.982 1 341 20.2977 12.2937 4.05157 -0.969022 1.00711 1.92201 -0.313975 -0.254474 -0.0260408 0 0 0 0 0 0 0 0 0 
26.982 1 342 22.3195 14.1669 3.98652 -2.1986 1.4558 1.4522 -0.0646116 0.156713 0.17449 0 0 0 0 0 0 0 0 0 
26.982 1 147 26.419 12.1558 2.03733 -1.36664 6.20169 1.58368 0.0367974 0.261053 -0.163991 0 0 0 0 0 0 0 0 0 
26.982 1 148 24.3282 14.0741 2.00152 1.40861 -4.62762 -2.48374 0.121487 0.258587 -0.261558 0 0 0 0 0 0 0 0 0 
26.982 1 345 24.2968 12.2387 4.0646 -2.88831 5.00702 1.05745 0.326186 -0.0566125 0.134402 0 0 0 0 0 0 0 0 0 
26.982 1 346 26.4058 14.2906 3.97093 0.38238 -2.25729 4.85946 0.102691 -0.323234 -0.0177901 0 0 0 0 0 0 0 0 0 
26.982 1 110 30.4296 10.1127 -0.147956 4.80679 1.878 -0.782963 0.135936 0.194215 0.702342 0 0 0 0 0 0 0 0 0 
26.982 1 149 28.4521 12.2103 -0.22601 -1.93603 4.1242 -2.07196 0.0776789 -0.122453 0.563345 0 0 0 0 0 0 0 0 0 
26.982 1 1025 24.3478 0.10783 20.2298 -1.20442 4.31591 -0.0556407 0.0293609 -0.187696 -0.129525 0 0 0 0 0 0 0 0 0 
26.982 1 151 30.5907 12.2227 1.92571 2.34268 4.0524 -2.43591 -0.419278 -0.491537 0.141495 0 0 0 0 0 0 0 0 0 
26.982 1 152 28.474 14.1435 1.90256 -1.31908 1.38711 -1.81191 -0.248372 0.0234589 0.116567 0 0 0 0 0 0 0 0 0 
26.982 1 310 30.5748 10.0149 3.97367 -4.24448 1.47099 2.0244 -0.231958 0.546718 0.143176 0 0 0 0 0 0 0 0 0 
26.982 1 349 28.4531 12.0831 3.96569 0.0581508 0.0729268 -1.19899 0.290695 0.246391 0.151784 0 0 0 0 0 0 0 0 0 
26.982 1 350 30.5692 14.0897 4.10284 1.20612 -2.74081 1.28309 -0.0801303 0.214808 -0.537955 0 0 0 0 0 0 0 0 0 
26.982 1 203 1.88601 -0.0342811 6.18931 2.87678 -5.02024 0.312046 -0.0785551 -0.161066 -0.334099 0 0 0 0 0 0 0 0 0 
26.982 1 155 34.5018 12.1634 2.00042 5.20716 -4.6118 -1.48274 0.464091 0.0332563 0.0801029 0 0 0 0 0 0 0 0 0 
26.982 1 156 32.4872 14.2098 2.00963 1.18983 6.36659 3.70585 0.0948017 0.0334244 -0.0428342 0 0 0 0 0 0 0 0 0 
26.982 1 314 34.6679 10.0917 4.13941 -3.43284 -0.204151 1.15516 0.237568 0.204304 -0.277063 0 0 0 0 0 0 0 0 0 
26.982 1 353 32.6215 12.1664 3.96925 2.25505 1.93198 2.52356 0.0426958 0.000968164 0.498994 0 0 0 0 0 0 0 0 0 
26.982 1 354 34.8161 14.3079 4.11438 -0.710154 -4.96243 0.41443 0.141932 -0.703778 -0.447823 0 0 0 0 0 0 0 0 0 
26.982 1 84 -0.337531 10.1616 2.2611 5.83551 -1.90408 -0.606258 -0.173829 -0.0745713 -0.523599 0 0 0 0 0 0 0 0 0 
26.982 1 124 -0.39135 14.1855 2.15925 -0.596281 2.9862 -1.13689 -0.442754 -0.166098 0.190384 0 0 0 0 0 0 0 0 0 
26.982 1 321 -0.35241 12.1495 4.28237 -1.54264 -4.83941 -2.4893 -0.250129 0.258024 -0.79721 0 0 0 0 0 0 0 0 0 
26.982 1 158 38.6182 14.1199 -0.010819 2.99509 -0.799038 3.39715 1.05071 0.0532751 0.0499553 0 0 0 0 0 0 0 0 0 
26.982 1 159 38.7597 12.1298 2.05478 2.12112 0.559239 0.637028 0.451769 0.45247 0.227774 0 0 0 0 0 0 0 0 0 
26.982 1 160 36.6912 14.1346 1.93388 4.64358 -0.829781 -3.17408 -0.347231 0.294246 0.615627 0 0 0 0 0 0 0 0 0 
26.982 1 357 36.6734 12.2201 4.06464 2.266 0.0897026 4.70564 0.154521 -0.179661 0.0260363 0 0 0 0 0 0 0 0 0 
26.982 1 358 38.6528 14.2025 4.08453 -2.07179 -4.87417 1.79745 0.392452 0.0345253 0.0809194 0 0 0 0 0 0 0 0 0 
26.982 1 163 1.65952 16.1943 2.26708 -0.449496 -3.97176 -1.43414 0.0883122 -0.122037 -0.465697 0 0 0 0 0 0 0 0 0 
26.982 1 164 -0.65 18.222 2.01218 4.9618 -0.959982 -0.633291 0.311346 0.169478 0.368522 0 0 0 0 0 0 0 0 0 
26.982 1 829 28.4321 0.093643 16.3566 1.68793 -1.29876 4.68618 0.150899 -0.100279 -0.425083 0 0 0 0 0 0 0 0 0 
26.982 1 168 3.82446 18.2901 2.08703 5.74609 3.69641 -2.87093 -0.184901 -0.272712 -0.113692 0 0 0 0 0 0 0 0 0 
26.982 1 361 -0.330558 16.1865 4.21555 -0.889486 6.31673 -1.0282 -0.340629 -0.0299171 -0.279442 0 0 0 0 0 0 0 0 0 
26.982 1 362 1.58627 18.2481 3.86492 4.37201 -0.854204 -2.70723 0.21621 0.0792385 0.507858 0 0 0 0 0 0 0 0 0 
26.982 1 365 3.70092 16.2109 4.14843 4.41923 -6.57242 -2.90021 0.159365 0.170623 0.0428836 0 0 0 0 0 0 0 0 0 
26.982 1 964 -0.382031 18.1498 18.1256 -1.4987 9.6961 2.48954 -0.637414 0.10294 0.607156 0 0 0 0 0 0 0 0 0 
26.982 1 405 3.82566 0.00377665 8.17607 -1.87995 -4.51999 -1.37424 0.30886 0.08341 0.0543848 0 0 0 0 0 0 0 0 0 
26.982 1 167 5.98573 16.1362 2.10566 -4.36301 2.41158 0.33341 -0.737466 0.178136 0.0233903 0 0 0 0 0 0 0 0 0 
26.982 1 2239 38.7829 20.1783 6.33891 -3.14218 2.93493 0.433093 -0.180312 0.476033 -0.394581 0 0 0 0 0 0 0 0 0 
26.982 1 172 7.84869 18.2112 2.02554 -0.919944 -3.76431 -1.76114 -0.0880179 0.0571887 0.248646 0 0 0 0 0 0 0 0 0 
26.982 1 366 5.79024 18.2991 4.17906 -1.96853 0.703671 -1.10119 0.0786684 -0.353653 -0.464415 0 0 0 0 0 0 0 0 0 
26.982 1 369 7.81865 16.0593 4.11802 -1.65474 -0.714593 0.109755 0.395676 0.490384 0.101082 0 0 0 0 0 0 0 0 0 
26.982 1 170 9.71927 18.1879 0.0577184 -4.85868 -0.721118 3.29801 0.440419 0.13095 0.100521 0 0 0 0 0 0 0 0 0 
26.982 1 171 9.90435 16.1454 2.12228 0.352885 -1.96812 -1.21498 -0.414199 0.178162 -0.0804696 0 0 0 0 0 0 0 0 0 
26.982 1 2427 26.5343 20.3093 9.81637 -4.13342 -0.544079 -1.91453 -0.251732 -0.435789 0.979848 0 0 0 0 0 0 0 0 0 
26.982 1 176 12.0357 18.1871 1.99729 1.33305 -1.87486 0.317167 -0.52203 0.200048 0.427743 0 0 0 0 0 0 0 0 0 
26.982 1 370 9.93047 18.187 4.03097 -6.08547 -2.56314 -2.8728 -0.117524 0.0325139 0.292903 0 0 0 0 0 0 0 0 0 
26.982 1 373 11.8841 16.0134 4.10831 -2.56641 -3.63915 -3.45694 0.326429 0.396213 0.0803425 0 0 0 0 0 0 0 0 0 
26.982 1 997 36.6072 15.9398 16.1991 3.4571 2.3539 -4.07302 -0.106612 0.514487 0.130556 0 0 0 0 0 0 0 0 0 
26.982 1 998 38.6672 18.3121 16.2336 -4.84969 5.1723 -1.97583 0.257323 -0.479711 -0.136938 0 0 0 0 0 0 0 0 0 
26.982 1 175 13.8468 16.0955 2.25438 -1.02032 -2.2322 0.16988 0.557284 0.292649 -0.421448 0 0 0 0 0 0 0 0 0 
26.982 1 177 16.2584 16.1451 0.0996902 -0.968435 -0.200236 -0.808475 -0.58318 0.278766 -0.346171 0 0 0 0 0 0 0 0 0 
26.982 1 180 16.3028 18.11 2.04558 -2.3293 -2.61335 2.35349 -0.47304 0.107353 0.0964047 0 0 0 0 0 0 0 0 0 
26.982 1 374 13.9231 18.2527 4.06149 -5.51749 -1.34248 -2.79385 0.394407 -0.340197 0.244394 0 0 0 0 0 0 0 0 0 
26.982 1 377 16.0455 16.1234 4.22403 1.06804 -1.15807 -1.64188 -0.021533 0.784734 0.0864383 0 0 0 0 0 0 0 0 0 
26.982 1 2015 14.1089 20.2952 2.33615 -2.841 -1.68645 1.49953 -0.0984542 -0.189986 -1.06299 0 0 0 0 0 0 0 0 0 
26.982 1 178 18.3776 18.216 -0.0587992 1.53596 -4.70769 0.634598 -0.681706 0.0174452 0.285221 0 0 0 0 0 0 0 0 0 
26.982 1 179 18.32 16.2219 1.88366 0.508138 -3.73062 0.400352 -0.0629446 -0.308896 0.619427 0 0 0 0 0 0 0 0 0 
26.982 1 183 22.2682 16.1107 1.93774 0.00671094 3.72491 0.786518 0.211871 0.30808 0.189646 0 0 0 0 0 0 0 0 0 
26.982 1 184 20.2993 18.1065 2.07497 1.36637 -0.816955 2.72279 0.09711 0.443199 -0.152077 0 0 0 0 0 0 0 0 0 
26.982 1 378 18.3024 18.1125 4.03008 1.49418 6.6848 2.97482 -0.215761 0.371817 0.23822 0 0 0 0 0 0 0 0 0 
26.982 1 381 20.2774 16.2038 4.12132 1.18388 0.442743 -2.86366 -0.185649 -0.302605 -0.357347 0 0 0 0 0 0 0 0 0 
26.982 1 382 22.3559 18.253 4.03037 -1.84368 -1.27349 6.39887 -0.102459 0.00172172 0.0122354 0 0 0 0 0 0 0 0 0 
26.982 1 2023 22.2414 20.345 1.90632 0.741883 -2.08942 2.67071 0.405494 -0.534686 0.383928 0 0 0 0 0 0 0 0 0 
26.982 1 999 38.6752 16.0788 18.1861 -1.18338 -2.13609 1.17856 0.0784433 0.176113 0.0387967 0 0 0 0 0 0 0 0 0 
26.982 1 186 26.3455 18.1793 -0.15027 -0.419907 -5.90912 -3.08883 -0.133824 0.297974 0.176668 0 0 0 0 0 0 0 0 0 
26.982 1 187 26.3248 16.2406 1.87355 -1.50889 0.88941 4.62964 0.269675 -0.244587 0.19604 0 0 0 0 0 0 0 0 0 
26.982 1 188 24.3813 18.2292 2.13199 8.53329 0.323031 0.174761 -0.168224 0.128261 -0.401461 0 0 0 0 0 0 0 0 0 
26.982 1 385 24.3332 16.2459 4.04649 -3.02944 5.10583 0.606722 -0.0543483 -0.28747 -0.211035 0 0 0 0 0 0 0 0 0 
26.982 1 386 26.5574 18.2089 4.14717 -4.34778 2.13405 -1.53352 -0.0931593 0.0445474 -0.52806 0 0 0 0 0 0 0 0 0 
26.982 1 2225 24.5062 20.3489 4.04987 5.66378 2.85894 0.108946 -0.282654 -0.172137 -0.214722 0 0 0 0 0 0 0 0 0 
26.982 1 191 30.4231 16.243 2.09626 -7.06993 -1.88425 -1.75434 0.491891 -0.132197 -0.430804 0 0 0 0 0 0 0 0 0 
26.982 1 192 28.4822 18.2713 1.86256 -0.943563 -0.658627 -2.82352 0.0120606 -0.0100485 0.498618 0 0 0 0 0 0 0 0 0 
26.982 1 389 28.517 16.1614 3.92118 2.01634 -0.979645 1.41674 -0.315464 0.251146 0.289266 0 0 0 0 0 0 0 0 0 
26.982 1 390 30.7493 18.2867 3.96427 4.41265 -7.31542 1.52636 -0.897037 -0.059102 0.536506 0 0 0 0 0 0 0 0 0 
26.982 1 2425 24.3134 20.4329 7.95316 1.28353 1.7958 5.05275 0.423492 -1.0128 0.330827 0 0 0 0 0 0 0 0 0 
26.982 1 195 34.4664 16.2858 2.10972 0.0915049 -3.50835 -0.403255 0.932432 -0.174565 -0.204221 0 0 0 0 0 0 0 0 0 
26.982 1 196 32.4906 18.1599 2.10265 0.0828837 6.09641 0.878319 0.543323 0.136362 -0.540643 0 0 0 0 0 0 0 0 0 
26.982 1 393 32.7584 15.9726 4.12178 5.06831 1.01901 0.68625 -0.699829 1.09703 -0.389969 0 0 0 0 0 0 0 0 0 
26.982 1 394 34.9064 18.4395 4.04541 0.72107 0.229293 0.237272 -0.446151 -0.416827 0.257034 0 0 0 0 0 0 0 0 0 
26.982 1 2035 34.5501 20.2045 1.99732 1.31276 -1.85185 6.58584 0.0732673 0.317662 0.000143393 0 0 0 0 0 0 0 0 0 
26.982 1 199 38.6247 16.2116 2.00633 -2.61015 -0.809971 -5.37936 0.145777 -0.16999 0.568988 0 0 0 0 0 0 0 0 0 
26.982 1 200 36.8003 18.4639 1.94253 5.79623 -2.17484 -3.02215 0.00903064 -0.878282 0.791614 0 0 0 0 0 0 0 0 0 
26.982 1 397 36.7073 16.3759 4.15366 -1.16187 -3.31207 0.149282 0.0509503 -0.0672559 -0.524945 0 0 0 0 0 0 0 0 0 
26.982 1 398 38.7417 18.3062 4.20097 -2.12182 -2.90385 0.236977 -0.114016 0.161185 -0.377147 0 0 0 0 0 0 0 0 0 
26.982 1 1000 36.6921 18.0853 18.0964 0.0720119 -1.53886 -3.35172 -0.06406 0.332598 0.091554 0 0 0 0 0 0 0 0 0 
26.982 1 208 3.88538 2.02748 6.18963 -1.25144 -3.6559 -2.84875 0.00151153 -0.175799 -0.176745 0 0 0 0 0 0 0 0 0 
26.982 1 243 1.83746 4.00586 6.01528 -1.89592 -1.81516 1.10342 -0.426692 -0.0491948 0.0432609 0 0 0 0 0 0 0 0 0 
26.982 1 402 1.57963 2.00503 8.16647 -1.43639 -0.166905 1.91023 0.541235 -0.0838473 0.219104 0 0 0 0 0 0 0 0 0 
26.982 1 441 40.851 4.03822 8.07735 -4.78471 -3.64121 0.335101 0.0110908 -0.134878 0.0498805 0 0 0 0 0 0 0 0 0 
26.982 1 445 3.65487 4.00256 8.09714 -0.334604 -3.35351 -1.62529 0.621186 -0.0933055 0.1926 0 0 0 0 0 0 0 0 0 
26.982 1 408 3.85565 1.96593 10.2478 2.12886 4.72106 1.39148 -0.581479 -0.187249 -0.293121 0 0 0 0 0 0 0 0 0 
26.982 1 212 7.95734 2.11684 6.03443 -1.40403 6.94763 4.21826 -0.579297 -0.41579 0.359464 0 0 0 0 0 0 0 0 0 
26.982 1 247 6.02974 4.10039 6.06474 2.31426 -0.137038 -1.8927 -0.203687 -0.137566 0.396815 0 0 0 0 0 0 0 0 0 
26.982 1 406 5.99505 2.2346 8.27433 2.05935 1.31427 2.30207 -0.469791 -0.767313 -0.829683 0 0 0 0 0 0 0 0 0 
26.982 1 1194 34.5473 18.0846 20.1757 -4.33756 2.61922 -0.498537 0.419582 0.412056 0.077696 0 0 0 0 0 0 0 0 0 
26.982 1 449 8.0379 3.94893 8.24352 -0.172038 0.254918 -4.38076 -0.123304 0.606722 -0.164709 0 0 0 0 0 0 0 0 0 
26.982 1 412 7.86779 2.13603 10.3543 -1.26145 -3.64472 -0.225703 0.252152 -0.0914161 -0.411538 0 0 0 0 0 0 0 0 0 
26.982 1 447 5.6593 3.98195 10.1843 -0.0537021 -3.54918 -1.09107 0.172489 0.837977 0.176117 0 0 0 0 0 0 0 0 0 
26.982 1 211 10.0596 0.11831 6.04328 -5.46604 4.02187 -2.56217 0.0557432 -0.150464 0.396948 0 0 0 0 0 0 0 0 0 
26.982 1 216 11.947 2.18866 6.12128 5.82881 -0.226148 -4.06997 0.268828 -0.503942 -0.392846 0 0 0 0 0 0 0 0 0 
26.982 1 251 9.87964 4.04706 6.14023 -1.23042 2.4664 -0.634821 0.315182 0.614122 0.00780789 0 0 0 0 0 0 0 0 0 
26.982 1 410 10.0252 2.10891 8.13366 -1.7205 -1.19799 -3.7576 0.0137057 -0.0140851 0.169918 0 0 0 0 0 0 0 0 0 