ITEM: TIMESTEP
18750
ITEM: NUMBER OF ATOMS
4000
ITEM: BOX BOUNDS pp pp pp
-3.88498 44.385
1.24316 39.2568
1.37931 39.1207
ITEM: ATOMS mass type id x y z vx vy vz fx fy fz xrad yrad zrad vxrad vyrad vzrad fxrad fyrad fzrad 
26.982 1 202 -0.571362 4.22413 5.50597 3.57972 0.163741 4.77144 0.0565636 0.113979 1.26607 0 0 0 0 0 0 0 0 0 
26.982 1 2 -1.10609 3.62873 2.98843 -4.62042 -0.230203 -3.28165 -0.416949 0.743238 -0.861276 0 0 0 0 0 0 0 0 0 
26.982 1 4 -3.23596 3.33702 4.72197 -0.905 5.30347 6.22648 -0.442514 -0.00155312 -0.114833 0 0 0 0 0 0 0 0 0 
26.982 1 241 -2.81966 5.88538 5.54764 3.63423 -2.46624 1.86222 -0.521985 0.147568 0.277683 0 0 0 0 0 0 0 0 0 
26.982 1 41 -3.16117 5.19893 2.16905 3.0193 4.31304 0.338402 0.56678 -0.226799 0.0596295 0 0 0 0 0 0 0 0 0 
26.982 1 5 0.699981 1.92359 2.76101 4.93375 1.86131 4.22668 0.0875204 -0.750727 -0.761766 0 0 0 0 0 0 0 0 0 
26.982 1 205 1.33497 2.37888 5.21908 -3.4177 0.284827 -1.68617 0.141368 0.408591 0.81219 0 0 0 0 0 0 0 0 0 
26.982 1 245 2.96715 4.72029 6.04092 -2.97324 4.47979 -0.740879 -0.374648 0.307619 -0.283458 0 0 0 0 0 0 0 0 0 
26.982 1 8 2.71462 3.97544 3.36819 1.92086 -5.42404 0.618635 -0.065834 0.236423 0.344828 0 0 0 0 0 0 0 0 0 
26.982 1 47 4.87885 5.45432 4.34861 4.56396 -1.5148 -3.81564 0.452448 0.0937656 -0.163595 0 0 0 0 0 0 0 0 0 
26.982 1 206 5.26353 2.63745 5.08077 -5.32437 2.39184 -6.21434 -0.0580104 0.360556 -0.0230085 0 0 0 0 0 0 0 0 0 
26.982 1 6 5.18177 3.51128 2.33827 -7.94527 -3.34574 -5.77799 -0.233433 -0.592752 0.435455 0 0 0 0 0 0 0 0 0 
26.982 1 249 7.4545 4.76426 5.47457 4.8363 2.28381 -0.220553 -0.163897 -0.330924 -0.420271 0 0 0 0 0 0 0 0 0 
26.982 1 12 7.59721 2.57129 3.38342 -3.63385 0.337031 2.24381 -0.380761 0.81675 0.79302 0 0 0 0 0 0 0 0 0 
26.982 1 51 9.49228 4.52459 3.37396 6.21451 -0.953971 -1.97176 -0.311214 0.671257 -0.304553 0 0 0 0 0 0 0 0 0 
26.982 1 52 7.38402 6.55258 3.33092 -0.30595 4.73313 -0.803138 0.0847017 -0.270441 0.435233 0 0 0 0 0 0 0 0 0 
26.982 1 210 9.5998 2.59873 5.40278 -5.36253 -2.62272 0.145058 -0.525412 0.00830747 0.213653 0 0 0 0 0 0 0 0 0 
26.982 1 253 11.4559 4.95445 5.1317 -4.01256 2.96168 1.87372 0.644389 -0.653651 0.0555911 0 0 0 0 0 0 0 0 0 
26.982 1 16 11.4362 2.64889 3.38387 -5.58907 -0.176658 7.89621 0.670761 0.211187 -0.400576 0 0 0 0 0 0 0 0 0 
26.982 1 214 13.5762 2.75329 5.02518 -3.48364 -5.58356 2.73084 -0.111591 0.0247261 -0.00161929 0 0 0 0 0 0 0 0 0 
26.982 1 55 13.7886 4.86048 3.12126 3.63459 0.773112 4.27357 -1.03435 0.0567104 -0.174338 0 0 0 0 0 0 0 0 0 
26.982 1 20 15.7672 2.63755 3.16728 6.38603 -0.196177 -0.626243 -0.228591 0.195701 -0.183634 0 0 0 0 0 0 0 0 0 
26.982 1 257 15.5844 4.73872 5.09967 4.97889 -2.87374 -1.99825 0.153314 -0.177178 0.123008 0 0 0 0 0 0 0 0 0 
26.982 1 218 17.673 2.76438 5.14763 -2.04102 -2.49115 -5.06416 0.0766619 -0.506468 -0.517892 0 0 0 0 0 0 0 0 0 
26.982 1 59 17.96 4.7816 3.23722 0.423524 0.285707 -2.36744 0.0560019 0.277857 0.501249 0 0 0 0 0 0 0 0 0 
26.982 1 24 20.0386 3.03189 2.91338 3.06119 0.196039 -2.61589 -0.193965 -0.406836 0.261972 0 0 0 0 0 0 0 0 0 
26.982 1 261 20.1329 5.24295 5.55538 2.67716 2.69101 -5.87137 -0.196639 0.41595 -0.690368 0 0 0 0 0 0 0 0 0 
26.982 1 63 21.8431 5.05297 2.87637 0.250726 -3.55938 -8.88201 0.384821 -0.137601 0.494636 0 0 0 0 0 0 0 0 0 
26.982 1 222 22.1285 3.2562 4.99099 -2.06639 1.3923 0.0128964 0.0364009 -0.0277818 -0.116464 0 0 0 0 0 0 0 0 0 
26.982 1 23 22.0708 1.06581 2.75579 2.3542 -1.75147 -4.01802 -0.111078 0.147367 0.359747 0 0 0 0 0 0 0 0 0 
26.982 1 28 24.1561 2.99655 2.7432 1.80778 -5.92383 -3.45446 0.321048 -0.376757 0.740115 0 0 0 0 0 0 0 0 0 
26.982 1 265 24.4692 4.98905 4.69679 9.44064 4.19629 3.66394 -0.159176 -0.347887 0.236342 0 0 0 0 0 0 0 0 0 
26.982 1 67 26.3785 5.10846 2.50294 -3.79099 -2.21671 0.524872 0.189667 -0.32236 0.115134 0 0 0 0 0 0 0 0 0 
26.982 1 225 24.2462 1.49601 5.3686 -6.62161 2.82826 1.18831 -0.246639 0.542987 0.308291 0 0 0 0 0 0 0 0 0 
26.982 1 226 26.6293 2.82695 4.62903 4.25733 1.4922 4.84292 -0.0515827 0.40689 -0.0920169 0 0 0 0 0 0 0 0 0 
26.982 1 32 30.3751 5.32879 2.52878 -6.10021 1.08019 -0.609929 0.561939 -0.00991812 -0.38604 0 0 0 0 0 0 0 0 0 
26.982 1 269 28.5398 4.89096 4.49914 2.01273 -2.72384 -0.480268 -0.16575 0.33838 0.393084 0 0 0 0 0 0 0 0 0 
26.982 1 27 28.6532 3.09627 2.33393 2.55952 -0.424133 -2.37159 -0.247776 0.281568 0.28367 0 0 0 0 0 0 0 0 0 
26.982 1 230 30.8035 3.35525 4.51613 -5.83797 3.62856 -10.0094 0.306559 0.102285 -0.181933 0 0 0 0 0 0 0 0 0 
26.982 1 273 32.6448 5.87917 4.288 -1.71271 -0.0358192 -2.19447 -0.317925 -0.649431 0.275902 0 0 0 0 0 0 0 0 0 
26.982 1 36 34.8585 3.93957 4.29686 -2.00101 -0.432332 -5.78144 -0.294507 -0.521336 0.111072 0 0 0 0 0 0 0 0 0 
26.982 1 30 32.6765 3.59675 2.35861 -2.63935 -4.60351 3.78802 0.0252941 0.0996441 -0.16499 0 0 0 0 0 0 0 0 0 
26.982 1 73 34.499 5.69675 2.26425 -7.2456 -2.59811 -1.89046 0.406642 0.563172 -0.173287 0 0 0 0 0 0 0 0 0 
26.982 1 33 34.9512 1.82739 2.28185 -1.56967 -1.91648 -3.65317 -0.354927 0.0792999 -0.493897 0 0 0 0 0 0 0 0 0 
26.982 1 236 32.8797 3.51196 6.34869 0.544231 -0.790456 -5.77168 0.151305 0.416649 0.407351 0 0 0 0 0 0 0 0 0 
26.982 1 2837 39.0146 20.054 15.6308 -1.34825 5.48484 1.04041 -0.336922 -0.140948 -0.0455086 0 0 0 0 0 0 0 0 0 
26.982 1 34 36.7102 4.20361 2.1879 -4.17436 6.453 -3.81502 0.449285 -0.663603 -0.211253 0 0 0 0 0 0 0 0 0 
26.982 1 35 36.9139 1.98469 4.11849 -1.73586 2.37736 -1.93821 0.544002 -0.0123898 0.228049 0 0 0 0 0 0 0 0 0 
26.982 1 77 38.7335 6.0839 2.33013 -6.07551 -2.42901 -4.8078 0.223555 -0.254604 -0.451213 0 0 0 0 0 0 0 0 0 
26.982 1 75 36.6693 5.88386 4.27755 -0.104253 1.64862 -1.08141 0.404873 0.128427 -0.138745 0 0 0 0 0 0 0 0 0 
26.982 1 234 36.9526 4.05609 6.2644 -2.24544 1.90136 0.703065 0.0689065 -0.41621 -0.142077 0 0 0 0 0 0 0 0 0 
26.982 1 40 39.0152 4.05752 4.22242 -5.64573 -3.53332 0.901065 -0.499522 0.713362 -0.779121 0 0 0 0 0 0 0 0 0 
26.982 1 237 39.0737 2.17183 5.9445 0.684747 -4.26252 2.65868 -0.0297984 -0.874312 0.844688 0 0 0 0 0 0 0 0 0 
26.982 1 37 38.9435 2.26113 2.01241 -2.23699 1.44142 -0.41154 0.190038 -0.198897 0.239453 0 0 0 0 0 0 0 0 0 
26.982 1 1 43.345 2.66418 2.08179 2.23112 3.13081 2.07321 0.0984923 0.0163317 -0.014954 0 0 0 0 0 0 0 0 0 
26.982 1 79 42.864 4.64535 4.06401 -1.82028 -0.98574 -4.51011 -0.113122 -0.0302703 0.526619 0 0 0 0 0 0 0 0 0 
26.982 1 39 41.2097 2.30013 4.06176 -6.33658 0.102812 4.54236 -0.0242286 0.0397153 -0.100999 0 0 0 0 0 0 0 0 0 
26.982 1 38 40.9891 4.10507 2.06765 2.51034 -4.76217 -1.87745 -0.141547 0.607962 -0.221917 0 0 0 0 0 0 0 0 0 
26.982 1 43 -0.834416 6.38714 3.98079 1.2924 -1.00061 6.1009 0.471009 0.380027 0.0161031 0 0 0 0 0 0 0 0 0 
26.982 1 83 0.0807892 9.11544 4.21699 1.37263 3.29235 0.481814 -0.228423 -0.558716 0.510043 0 0 0 0 0 0 0 0 0 
26.982 1 44 -2.99657 8.2192 3.28317 0.0242382 -3.04932 -8.84342 -0.440015 0.297034 0.543311 0 0 0 0 0 0 0 0 0 
26.982 1 242 1.02374 6.56505 6.33983 4.72345 -3.5295 0.566771 -1.26304 0.180328 -0.282439 0 0 0 0 0 0 0 0 0 
26.982 1 281 -2.13616 8.59861 5.86222 -0.247611 -3.78064 -3.47097 -0.0896682 -0.112654 0.310087 0 0 0 0 0 0 0 0 0 
26.982 1 48 2.48372 6.99953 4.23207 -0.231095 6.51122 -1.50456 0.0128489 -0.082759 0.0138386 0 0 0 0 0 0 0 0 0 
26.982 1 285 2.15308 9.10489 6.36637 -0.756812 -1.15643 0.744657 0.230902 -0.195744 -0.281539 0 0 0 0 0 0 0 0 0 
26.982 1 87 5.06514 8.27708 3.5274 -3.42402 -0.130208 -0.858325 0.160672 -0.376412 0.500529 0 0 0 0 0 0 0 0 0 
26.982 1 246 4.83576 7.23464 6.45487 -10.511 -0.529598 -4.46055 -0.0517306 -0.073829 -0.686982 0 0 0 0 0 0 0 0 0 
26.982 1 88 2.85177 9.9049 3.63992 -4.01217 -5.65463 -7.28852 -0.68206 -0.241564 0.585711 0 0 0 0 0 0 0 0 0 
26.982 1 286 4.73619 10.1272 5.60939 -0.0275786 -4.47594 -3.50248 0.120166 0.1108 0.126781 0 0 0 0 0 0 0 0 0 
26.982 1 3037 39.4139 19.882 19.6768 2.71627 6.68346 3.16423 -0.369954 0.31173 -0.0447648 0 0 0 0 0 0 0 0 0 
26.982 1 289 7.14479 8.56818 5.38888 0.52277 -4.55594 -1.91589 -0.158046 -0.423452 -0.197454 0 0 0 0 0 0 0 0 0 
26.982 1 250 9.5348 6.7179 5.23892 5.63227 1.96711 -0.0609381 -0.946135 0.166584 -0.145637 0 0 0 0 0 0 0 0 0 
26.982 1 91 9.02837 8.68526 3.27107 -0.312479 4.53412 8.4663 0.0994925 0.158922 -0.444681 0 0 0 0 0 0 0 0 0 
26.982 1 293 11.0987 8.92225 5.09367 5.19374 0.182364 0.31478 0.301924 -0.104933 -0.0420908 0 0 0 0 0 0 0 0 0 
26.982 1 56 11.2209 6.86683 2.91715 -2.28307 1.08985 5.74595 0.472861 0.124706 0.385238 0 0 0 0 0 0 0 0 0 
26.982 1 95 13.2532 8.84468 3.04282 -4.10673 4.12253 -0.214872 -0.513749 0.174742 -0.38154 0 0 0 0 0 0 0 0 0 
26.982 1 254 13.357 6.92406 4.92335 2.39129 -3.38739 -6.15017 -0.21286 -0.247063 0.302404 0 0 0 0 0 0 0 0 0 
26.982 1 60 15.8695 6.81845 3.49546 -0.55907 -4.58675 8.44182 -0.135591 -0.0928392 -0.416095 0 0 0 0 0 0 0 0 0 
26.982 1 297 15.2013 8.95195 5.01326 -0.286437 -1.76926 8.06639 0.553906 0.890597 -0.294075 0 0 0 0 0 0 0 0 0 
26.982 1 99 17.5882 9.0243 3.43117 5.30591 0.897157 -3.84917 0.307214 0.306162 -0.151761 0 0 0 0 0 0 0 0 0 
26.982 1 258 17.871 7.08148 5.43366 0.213587 -2.66201 -0.649101 0.1741 -0.253052 -0.177435 0 0 0 0 0 0 0 0 0 
26.982 1 64 19.8411 7.08107 3.29387 -1.06017 0.373677 1.74081 0.00880406 -0.558855 0.0197954 0 0 0 0 0 0 0 0 0 
26.982 1 301 19.8742 9.01913 5.194 0.82505 -2.01107 -7.73464 0.425174 0.378135 -0.219927 0 0 0 0 0 0 0 0 0 
26.982 1 103 21.9766 8.809 3.0054 -0.570019 -0.745448 5.53526 -0.107605 0.334351 -0.58638 0 0 0 0 0 0 0 0 0 
26.982 1 262 22.2308 7.09729 4.99276 -0.0720318 1.98114 3.2253 -0.319868 -0.67387 0.0678181 0 0 0 0 0 0 0 0 0 
26.982 1 302 22.0563 10.8882 4.89005 -0.126052 -1.00568 -0.443849 -0.453998 0.176327 0.0603289 0 0 0 0 0 0 0 0 0 
26.982 1 305 24.078 8.9748 4.69719 -2.68733 -1.06702 -6.43924 0.801195 0.0978685 0.0318285 0 0 0 0 0 0 0 0 0 
26.982 1 68 24.1603 6.77306 2.71583 -9.42313 -2.67631 -2.34579 -0.118768 0.498816 -0.047841 0 0 0 0 0 0 0 0 0 
26.982 1 108 24.0708 10.9888 2.72005 2.39608 -3.37187 3.25387 -0.113269 0.0881417 0.436918 0 0 0 0 0 0 0 0 0 
26.982 1 107 26.2234 9.00117 2.71014 -6.3305 5.42715 9.82608 -0.006483 0.267955 -0.356301 0 0 0 0 0 0 0 0 0 
26.982 1 266 26.5149 6.96854 4.43451 -3.58462 -8.32787 3.1571 -0.34335 -0.130742 0.873591 0 0 0 0 0 0 0 0 0 
26.982 1 72 28.4827 7.20778 2.61642 -4.51212 1.91303 -0.633167 -0.304342 -0.00248235 -0.402319 0 0 0 0 0 0 0 0 0 
26.982 1 309 28.2197 9.26522 4.63829 -1.30709 -1.33708 5.16839 0.800139 -0.164688 -0.199438 0 0 0 0 0 0 0 0 0 
26.982 1 112 28.2156 11.2262 2.63487 1.59225 4.09059 0.311601 -0.146646 -0.292913 -1.00619 0 0 0 0 0 0 0 0 0 
26.982 1 111 30.2186 9.36828 2.46156 2.05015 2.37805 4.15049 0.379181 0.148333 -0.0336408 0 0 0 0 0 0 0 0 0 
26.982 1 270 30.4684 7.47585 4.55946 -4.35595 3.80576 2.03958 0.119344 -0.27718 -0.390129 0 0 0 0 0 0 0 0 0 
26.982 1 71 32.6519 7.73196 2.14004 0.756556 -0.523309 -3.85833 0.00649158 0.114736 0.515994 0 0 0 0 0 0 0 0 0 
26.982 1 76 34.6189 7.62382 4.35663 -7.45463 0.478964 -3.12451 0.0263669 0.497145 -0.327947 0 0 0 0 0 0 0 0 0 
26.982 1 313 32.6548 7.71167 6.59968 3.39366 -3.99491 -3.25307 0.434945 -0.516602 -0.603682 0 0 0 0 0 0 0 0 0 
26.982 1 116 34.6798 9.81011 1.94478 1.50355 0.625822 0.17695 -0.63847 0.0815044 0.296781 0 0 0 0 0 0 0 0 0 
26.982 1 310 32.5191 9.38512 4.21482 1.71408 -0.710977 -6.88485 -0.166597 0.356466 0.293809 0 0 0 0 0 0 0 0 0 
26.982 1 115 38.4244 8.09158 4.21952 1.52396 4.08287 -3.69928 -0.178278 0.0830003 -0.17552 0 0 0 0 0 0 0 0 0 
26.982 1 117 40.1096 8.49789 2.15187 2.68923 -2.51751 -0.758481 -0.104537 -0.375394 -0.817053 0 0 0 0 0 0 0 0 0 
26.982 1 74 36.6391 7.76422 2.02163 -4.45098 1.10527 -5.84485 -0.344681 0.367375 0.437974 0 0 0 0 0 0 0 0 0 
26.982 1 155 36.3071 9.8865 4.13705 0.0991441 -4.68214 4.43315 0.387009 -0.560143 -0.200147 0 0 0 0 0 0 0 0 0 
26.982 1 314 36.6028 7.77879 6.21539 1.21696 2.4275 7.94759 -0.3875 0.459142 0.21469 0 0 0 0 0 0 0 0 0 
26.982 1 80 40.7924 6.51071 4.17023 2.88284 1.26471 -3.15577 -0.389477 -0.510821 -0.253099 0 0 0 0 0 0 0 0 0 
26.982 1 317 40.8324 9.31383 4.6398 0.0630669 -2.04757 6.63876 -0.178739 -0.111585 0.645546 0 0 0 0 0 0 0 0 0 
26.982 1 78 42.8754 6.4497 2.07037 9.08098 -5.40476 -12.1411 -0.817563 0.431058 -0.583215 0 0 0 0 0 0 0 0 0 
26.982 1 119 42.6823 9.07583 2.71591 0.946754 0.865838 1.61099 0.401368 0.0123124 -0.568738 0 0 0 0 0 0 0 0 0 
26.982 1 278 43.2342 7.31719 4.79726 -0.300155 -2.88016 -0.740238 0.104371 0.0924336 0.100907 0 0 0 0 0 0 0 0 0 
26.982 1 284 43.3365 10.2081 5.23627 2.14318 -6.68152 -4.10407 0.460451 0.506749 -0.0893564 0 0 0 0 0 0 0 0 0 
26.982 1 282 -2.27111 11.2961 4.7622 -2.30978 -7.66624 -6.44246 -0.495992 -0.480229 -0.263896 0 0 0 0 0 0 0 0 0 
26.982 1 322 -2.02437 13.835 4.02464 0.443768 1.4876 2.00091 -0.0205124 -0.701225 -1.36325 0 0 0 0 0 0 0 0 0 
26.982 1 122 0.0104346 13.9116 2.08791 1.65741 1.12357 1.23728 0.531724 -0.389251 0.216069 0 0 0 0 0 0 0 0 0 
26.982 1 325 0.248755 11.807 3.84209 -6.12144 -1.34091 0.436669 -0.274931 0.267911 -0.380162 0 0 0 0 0 0 0 0 0 
26.982 1 328 0.0617305 14.2048 5.65455 -0.649172 2.01421 -2.34621 0.0880005 -0.997748 0.265008 0 0 0 0 0 0 0 0 0 
26.982 1 123 -1.5893 11.3519 1.68137 -7.19001 3.59197 1.35342 0.306743 -0.424555 0.328357 0 0 0 0 0 0 0 0 0 
26.982 1 128 2.07962 14.2718 3.80788 -1.32647 2.62751 -0.136878 0.143886 -0.259299 -0.0160392 0 0 0 0 0 0 0 0 0 
26.982 1 127 4.47519 12.0926 3.51998 -0.591177 3.50584 0.19308 0.110926 0.715876 0.315704 0 0 0 0 0 0 0 0 0 
26.982 1 326 4.37696 14.3096 5.36083 -0.251429 -3.55569 1.36596 -0.567804 0.13679 0.212109 0 0 0 0 0 0 0 0 0 
26.982 1 125 2.32087 11.8928 2.00348 0.271469 2.62501 -0.596468 -0.444615 0.504159 -0.567847 0 0 0 0 0 0 0 0 0 
26.982 1 327 2.158 12.0336 5.57177 0.0154052 -0.0109088 -2.98515 0.87382 0.0074179 0.0175991 0 0 0 0 0 0 0 0 0 
26.982 1 627 26.6013 1.13925 14.4961 -2.38043 -2.6918 -1.21978 -0.0343724 0.143554 -0.935502 0 0 0 0 0 0 0 0 0 
26.982 1 290 8.83776 10.723 5.15909 0.53702 0.888361 -1.93883 0.174212 0.554423 0.00486971 0 0 0 0 0 0 0 0 0 
26.982 1 92 6.82932 10.646 3.31537 3.83173 -4.45292 -2.95861 0.0268939 -0.0614246 -0.0285816 0 0 0 0 0 0 0 0 0 
26.982 1 329 6.40827 12.5866 5.44389 -9.79931 -1.5541 0.564504 0.620946 -0.516801 -0.246476 0 0 0 0 0 0 0 0 0 
26.982 1 132 5.99528 14.582 3.26346 -2.68161 1.60399 -6.27548 0.243413 -0.092919 -0.328113 0 0 0 0 0 0 0 0 0 
26.982 1 131 8.41973 13.1046 3.10005 7.77122 3.99443 2.29261 -0.200627 -1.12764 -0.0107576 0 0 0 0 0 0 0 0 0 
26.982 1 330 8.17331 14.7517 5.23335 3.09922 -4.61701 -3.86801 0.0745347 0.165242 0.13407 0 0 0 0 0 0 0 0 0 
26.982 1 294 12.9621 10.8512 5.04868 0.33988 1.50536 -0.110396 0.273735 0.412322 -0.282658 0 0 0 0 0 0 0 0 0 
26.982 1 96 10.8213 10.9243 2.97419 2.38125 6.78942 7.75578 -0.14335 -0.0729849 0.0508134 0 0 0 0 0 0 0 0 0 
26.982 1 333 10.5121 13.0072 4.87811 -2.47006 0.904858 6.48774 -0.0286356 -0.0501904 0.111471 0 0 0 0 0 0 0 0 0 
26.982 1 135 12.5177 13.0788 2.75857 -1.86681 -1.24444 4.56848 -0.111563 0.166819 0.387828 0 0 0 0 0 0 0 0 0 
26.982 1 136 10.0013 15.239 2.90504 4.5424 -1.74394 -3.21337 0.217723 -0.230932 0.261253 0 0 0 0 0 0 0 0 0 
26.982 1 334 12.2607 15.0909 4.70661 -3.46001 -3.86986 -2.64044 -0.0406868 0.549083 0.215076 0 0 0 0 0 0 0 0 0 
26.982 1 100 14.5959 11.1675 2.64533 2.08514 8.6521 1.34755 0.523609 0.335649 -0.00581355 0 0 0 0 0 0 0 0 0 
26.982 1 337 14.4286 13.136 4.81716 0.811913 -2.40687 5.47522 0.221134 -0.146448 0.0580404 0 0 0 0 0 0 0 0 0 
26.982 1 139 15.9624 13.8361 2.41211 -0.260263 1.27862 2.96454 -0.659369 -0.540252 0.495813 0 0 0 0 0 0 0 0 0 
26.982 1 298 16.978 11.693 4.1542 4.09371 -0.293733 -0.879302 -0.453632 0.0873832 0.0218556 0 0 0 0 0 0 0 0 0 
26.982 1 338 16.4724 14.8177 5.05831 -0.964616 1.28632 2.69849 0.923118 -0.0192586 -0.341198 0 0 0 0 0 0 0 0 0 
26.982 1 140 13.7965 15.6256 2.47119 -6.64725 1.52906 -6.70648 0.363471 0.2358 0.261645 0 0 0 0 0 0 0 0 0 
26.982 1 104 19.726 10.8965 3.01334 7.29477 7.4359 -0.272514 -0.00559513 -0.292762 0.153251 0 0 0 0 0 0 0 0 0 
26.982 1 341 19.0066 13.6749 3.53767 0.337231 -0.908759 -4.63714 -0.512699 0.514467 0.049532 0 0 0 0 0 0 0 0 0 
26.982 1 304 19.1531 11.8839 5.69947 -0.993666 -0.102068 1.07595 0.623939 -0.115476 -0.0602816 0 0 0 0 0 0 0 0 0 
26.982 1 143 21.6411 13.0082 2.85945 -2.57715 1.0152 0.423759 0.539386 -0.57524 0.238134 0 0 0 0 0 0 0 0 0 
26.982 1 342 21.2422 14.2393 5.22159 -0.432473 5.5771 -0.927327 -0.433253 0.225689 0.0191465 0 0 0 0 0 0 0 0 0 
26.982 1 306 26.2354 11.066 4.47342 -7.60233 1.55962 0.13 -0.349688 0.451985 0.520415 0 0 0 0 0 0 0 0 0 
26.982 1 148 23.4815 15.1172 3.18696 1.19541 8.48186 -2.96147 1.00695 -0.177948 -0.164767 0 0 0 0 0 0 0 0 0 
26.982 1 345 23.7729 12.9695 4.81208 -0.632495 -1.33343 5.79263 0.574555 -0.573942 -0.303038 0 0 0 0 0 0 0 0 0 
26.982 1 147 26.0701 13.1285 2.55156 3.55832 2.99559 0.216201 -0.485761 -0.276689 0.390422 0 0 0 0 0 0 0 0 0 
26.982 1 385 25.8724 15.2547 4.68811 -2.93827 -5.11121 -0.698777 0.202161 -0.534386 -0.307636 0 0 0 0 0 0 0 0 0 
26.982 1 346 28.1491 13.3503 4.19892 -4.48086 1.74948 1.22124 0.00907594 0.180187 0.87142 0 0 0 0 0 0 0 0 0 
26.982 1 152 30.3038 13.4512 2.11627 -2.89137 8.68606 -1.99692 -0.548877 -0.269943 0.158551 0 0 0 0 0 0 0 0 0 
26.982 1 349 30.3897 11.4592 4.24183 5.69724 -3.31489 -1.15099 -0.134405 -0.365967 0.398396 0 0 0 0 0 0 0 0 0 
26.982 1 187 27.947 15.3019 2.30679 -8.31862 1.13872 -3.84415 -0.2925 -0.149636 0.336557 0 0 0 0 0 0 0 0 0 
26.982 1 389 30.1208 15.3428 4.05646 3.79017 -3.20642 6.18672 0.107391 0.316274 0.581204 0 0 0 0 0 0 0 0 0 
26.982 1 151 32.3574 11.5283 2.1118 7.96439 -0.813264 -1.5373 -0.0987166 -0.347751 -0.0857133 0 0 0 0 0 0 0 0 0 
26.982 1 350 32.2644 13.3853 4.24858 -1.13658 -2.5516 1.90823 0.0500427 0.408522 -0.35682 0 0 0 0 0 0 0 0 0 
26.982 1 156 34.6411 13.2318 1.73815 -3.59704 4.88998 -5.33179 -0.353242 0.0864641 0.783756 0 0 0 0 0 0 0 0 0 
26.982 1 353 34.2621 11.62 4.13581 2.33779 -4.91289 -1.03393 0.223268 0.0904948 -0.182011 0 0 0 0 0 0 0 0 0 
26.982 1 433 33.2494 1.49307 8.38796 2.49367 -0.759497 3.09232 0.337671 -0.147848 0.478674 0 0 0 0 0 0 0 0 0 
26.982 1 114 36.8789 11.5063 1.94644 -5.47794 2.12495 -2.15726 0.279325 0.0694429 0.454933 0 0 0 0 0 0 0 0 0 
26.982 1 354 36.4243 13.6081 3.87518 9.6346 -4.44122 -1.76635 0.267931 -0.0860242 0.381782 0 0 0 0 0 0 0 0 0 
26.982 1 160 39.0893 14.5864 3.23754 -3.36126 3.9878 -3.50486 -0.147967 0.00115836 -0.0452443 0 0 0 0 0 0 0 0 0 
26.982 1 357 38.6239 11.3077 4.31557 1.30269 0.25841 5.35938 -0.177003 0.198499 -0.0732306 0 0 0 0 0 0 0 0 0 
26.982 1 360 38.5867 13.9995 5.89369 2.69054 0.496956 -3.10264 0.257077 -0.55061 -0.451042 0 0 0 0 0 0 0 0 0 
26.982 1 3001 43.2177 20.4168 19.4508 0.676271 1.77352 0.941359 0.270177 -0.640763 -0.0282469 0 0 0 0 0 0 0 0 0 
26.982 1 124 44.1897 14.0095 1.64958 0.433303 -2.72561 -1.56415 0.527718 -0.0112998 0.885002 0 0 0 0 0 0 0 0 0 
26.982 1 120 40.8942 11.0997 2.80855 1.42127 -1.6948 -4.60056 0.134377 0.0863752 -0.161577 0 0 0 0 0 0 0 0 0 
26.982 1 84 44.1881 11.3252 2.64047 -2.54401 5.56482 -0.706964 -0.421943 0.0248501 0.0243465 0 0 0 0 0 0 0 0 0 
26.982 1 318 40.9789 12.2485 5.37689 -2.75565 -1.65533 -3.86665 0.124895 0.203424 0.103365 0 0 0 0 0 0 0 0 0 
26.982 1 321 43.7067 13.3021 4.54546 1.95307 0.423272 0.987958 -0.208477 -0.438959 0.445843 0 0 0 0 0 0 0 0 0 
26.982 1 159 41.7478 13.6404 2.79372 -3.00006 -6.22569 -2.96811 0.0286708 -0.107385 -0.510795 0 0 0 0 0 0 0 0 0 
26.982 1 358 41.25 15.0687 4.914 -1.31294 2.78256 6.33633 0.0256718 -0.283039 0.167573 0 0 0 0 0 0 0 0 0 
26.982 1 161 -1.89357 15.7506 2.07816 1.59763 -2.62345 -1.58192 -0.522702 0.255459 0.32446 0 0 0 0 0 0 0 0 0 
26.982 1 1198 41.4128 18.1853 19.6718 -0.426754 1.65253 2.20407 0.444821 -0.326024 0.0687062 0 0 0 0 0 0 0 0 0 
26.982 1 163 -2.67051 18.1796 3.26857 2.76484 5.16358 1.05384 -0.483187 0.146272 0.615362 0 0 0 0 0 0 0 0 0 
26.982 1 362 -0.727869 18.7003 5.42531 0.101719 7.97324 1.90984 -0.270922 -0.386158 -0.133609 0 0 0 0 0 0 0 0 0 
26.982 1 2637 38.7114 20.0979 11.6594 0.0581146 -1.29973 1.53408 -0.67606 0.243267 -0.448013 0 0 0 0 0 0 0 0 0 
26.982 1 363 -1.93441 16.1017 5.11152 -3.61058 3.34291 1.38835 0.106148 1.34824 0.667249 0 0 0 0 0 0 0 0 0 
26.982 1 166 3.20769 18.5999 1.37297 1.32376 6.344 -0.435748 0.179433 -0.0151945 0.0671004 0 0 0 0 0 0 0 0 0 
26.982 1 165 1.12289 16.4447 1.85368 -2.03757 -5.09415 1.47071 -0.066827 -0.244303 -0.235536 0 0 0 0 0 0 0 0 0 
26.982 1 365 1.08369 16.49 5.19087 -0.66575 -1.10299 -2.0845 0.622487 0.858035 -0.400887 0 0 0 0 0 0 0 0 0 
26.982 1 168 1.23095 18.6115 3.4564 -4.21633 -1.24537 -3.99036 -0.221753 0.466309 0.00417174 0 0 0 0 0 0 0 0 0 
26.982 1 167 3.47775 16.7032 3.44833 -2.68587 5.03661 -2.51467 0.195694 -0.361946 0.136642 0 0 0 0 0 0 0 0 0 
26.982 1 366 3.41577 18.9545 5.21959 -5.3622 -4.66339 1.70687 -0.342609 -0.25265 0.209804 0 0 0 0 0 0 0 0 0 
26.982 1 369 5.92567 16.6291 5.03155 -0.525025 3.82782 -1.96801 -0.456374 -0.101389 0.866446 0 0 0 0 0 0 0 0 0 
26.982 1 172 5.47566 18.6968 3.32913 0.564926 -0.445966 4.36827 -0.151858 0.127319 -0.445294 0 0 0 0 0 0 0 0 0 
26.982 1 171 7.76191 16.8959 3.14274 -0.136966 0.532385 0.818784 0.228662 -0.372192 -0.423405 0 0 0 0 0 0 0 0 0 
26.982 1 370 7.77015 18.71 5.18617 -0.59682 -5.41481 -4.53727 -0.422834 0.839577 0.575222 0 0 0 0 0 0 0 0 0 
26.982 1 176 9.40611 19.1628 3.18958 0.855247 0.19871 2.93464 0.271983 0.0873628 -0.217716 0 0 0 0 0 0 0 0 0 
26.982 1 373 9.81302 16.9628 5.35028 -2.79471 -2.30288 -0.642597 0.389972 0.137073 -0.67189 0 0 0 0 0 0 0 0 0 
26.982 1 175 11.4938 17.4359 2.99163 2.40784 5.75061 -1.97012 0.506752 -0.175509 -0.116504 0 0 0 0 0 0 0 0 0 
26.982 1 374 11.6894 19.1328 5.28797 7.20461 -4.50015 -2.90202 -0.556356 0.825263 -0.230824 0 0 0 0 0 0 0 0 0 
26.982 1 377 13.8277 17.5593 4.82767 2.57298 4.42027 -3.45577 0.124282 -0.710003 0.0981672 0 0 0 0 0 0 0 0 0 
26.982 1 179 17.5701 16.3134 3.02319 -0.713217 -7.15065 1.56114 0.310356 0.376324 0.238147 0 0 0 0 0 0 0 0 0 
26.982 1 178 15.4926 17.9159 2.6175 0.94668 2.07916 4.41496 -0.389513 -0.235407 0.417807 0 0 0 0 0 0 0 0 0 
26.982 1 180 13.3587 19.5735 3.02444 4.87256 2.0023 -0.97595 -0.151725 0.140956 -0.606532 0 0 0 0 0 0 0 0 0 
26.982 1 379 16.5062 17.3999 5.91722 -2.69599 -2.86943 0.391509 -0.0703017 0.0679794 0.321012 0 0 0 0 0 0 0 0 0 
26.982 1 2217 15.5375 19.8035 4.99539 5.58369 4.94643 -3.87709 0.00707874 0.216571 -0.70879 0 0 0 0 0 0 0 0 0 
26.982 1 2219 17.2511 20.0914 7.03785 0.130959 1.11116 -2.80681 -0.0595412 0.218524 0.127818 0 0 0 0 0 0 0 0 0 
26.982 1 378 19.5625 18.4683 3.51908 -3.60795 0.0657656 1.96332 -0.156548 -0.466004 -0.607174 0 0 0 0 0 0 0 0 0 
26.982 1 381 19.0857 16.3594 5.27462 -6.40738 9.03171 2.38138 0.149486 -0.740111 0.261939 0 0 0 0 0 0 0 0 0 
26.982 1 1078 42.7972 6.66784 19.3498 -4.41827 4.77314 -3.7827 -0.225439 -0.953978 0.66655 0 0 0 0 0 0 0 0 0 
26.982 1 382 22.2276 18.6693 4.21158 2.84537 -2.21705 -7.82307 0.171025 -0.0213496 0.045796 0 0 0 0 0 0 0 0 0 
26.982 1 1066 26.8256 6.98862 20.2957 2.9211 -4.11937 0.000973046 -0.350853 0.1817 -0.502422 0 0 0 0 0 0 0 0 0 
26.982 1 183 21.2317 16.2581 3.11957 4.24179 -1.79218 -0.208845 -0.664069 0.342474 0.490369 0 0 0 0 0 0 0 0 0 
26.982 1 188 25.7465 17.1358 2.78302 -5.38168 -1.5516 -7.31133 -0.312745 -0.0174631 -0.235143 0 0 0 0 0 0 0 0 0 
26.982 1 383 21.7286 16.8417 6.29006 0.0530588 2.04465 6.66729 0.323736 0.298155 -0.174045 0 0 0 0 0 0 0 0 0 
26.982 1 2225 25.6444 19.2418 4.67711 -2.59183 0.228172 8.02343 0.255057 -0.343497 -1.00405 0 0 0 0 0 0 0 0 0 
26.982 1 2835 37.052 19.7473 17.7179 -2.92992 -1.96695 2.11055 0.0139487 0.272879 0.254328 0 0 0 0 0 0 0 0 0 
26.982 1 2229 29.819 19.3084 4.22059 5.23859 4.81609 -2.99681 0.151228 0.0131433 -0.659221 0 0 0 0 0 0 0 0 0 
26.982 1 386 28.0406 17.1912 4.39041 -0.293431 -1.10162 3.45128 -0.207039 0.21339 -0.393215 0 0 0 0 0 0 0 0 0 
26.982 1 192 30.1231 17.4162 2.12861 -2.18163 1.6414 -4.60566 -0.519067 0.2127 0.444979 0 0 0 0 0 0 0 0 0 
26.982 1 2027 27.5694 19.445 2.36319 -3.29386 -3.55221 4.2407 -0.34515 -0.449867 0.141549 0 0 0 0 0 0 0 0 0 
26.982 1 2031 31.9578 19.4261 2.05678 -4.08728 -1.6361 -2.47801 -0.127519 0.577795 0.0801723 0 0 0 0 0 0 0 0 0 
26.982 1 191 32.142 15.5108 2.13468 -4.50772 1.31623 -6.70105 0.118318 -0.201323 -0.209638 0 0 0 0 0 0 0 0 0 
26.982 1 390 32.2479 17.4339 4.01614 -2.49665 3.25528 -0.0643997 -0.699365 -0.120807 0.215802 0 0 0 0 0 0 0 0 0 
26.982 1 393 34.3309 15.376 3.80572 2.69695 1.59104 -5.61175 -0.191544 -0.00563655 0.265294 0 0 0 0 0 0 0 0 0 
26.982 1 196 34.3909 17.9114 2.48129 1.21091 1.16026 1.75085 0.0467014 -0.115251 -0.0850074 0 0 0 0 0 0 0 0 0 
26.982 1 2233 34.0225 19.9581 4.32331 1.45625 -0.147247 -4.73958 0.883457 0.0603323 -0.15696 0 0 0 0 0 0 0 0 0 
26.982 1 195 36.8115 16.4154 2.89619 -1.21836 12.1551 -0.209302 0.424546 -0.118106 0.584565 0 0 0 0 0 0 0 0 0 
26.982 1 394 36.7318 18.667 4.7431 0.907019 1.09766 0.744596 0.0430997 -0.181728 -0.252175 0 0 0 0 0 0 0 0 0 
26.982 1 397 39.2137 16.8571 4.86639 4.6507 2.05802 4.65471 -0.467717 0.450885 -0.148637 0 0 0 0 0 0 0 0 0 
26.982 1 200 39.0036 18.5166 2.62638 -2.29197 3.31983 -1.24562 -0.426676 -0.227855 0.170305 0 0 0 0 0 0 0 0 0 
26.982 1 2035 35.9359 20.2985 2.21249 -1.95452 3.65018 -5.6629 -0.137226 -0.554599 -0.209718 0 0 0 0 0 0 0 0 0 
26.982 1 1117 40.2617 8.24144 19.9061 -0.884723 0.738693 -1.87385 0.583168 -0.996595 -0.0934575 0 0 0 0 0 0 0 0 0 
26.982 1 996 34.7969 17.738 18.1327 3.10377 3.50277 -2.62919 0.806809 -0.100303 -0.423985 0 0 0 0 0 0 0 0 0 
26.982 1 361 43.7811 15.9844 3.9419 4.36733 -5.75421 6.99951 0.228363 -0.721773 -0.18257 0 0 0 0 0 0 0 0 0 
26.982 1 164 42.9168 18.3723 3.5413 3.25467 0.0919769 3.36085 -0.298081 0.780628 -0.381056 0 0 0 0 0 0 0 0 0 
26.982 1 398 41.1329 16.3985 2.41495 1.32523 -0.207587 -6.3494 0.212858 -0.055484 0.316257 0 0 0 0 0 0 0 0 0 
26.982 1 364 44.0067 17.9941 5.9325 -4.20972 5.37599 -3.06248 -0.108926 -0.0500098 -0.249665 0 0 0 0 0 0 0 0 0 
26.982 1 2239 41.4133 19.3685 5.90643 2.40431 -1.46887 0.636143 0.46548 0.3085 -0.0762814 0 0 0 0 0 0 0 0 0 
26.982 1 203 -0.701938 2.18267 7.59425 7.49275 0.926978 0.0253866 0.437454 0.229454 -0.176938 0 0 0 0 0 0 0 0 0 
26.982 1 243 1.13701 4.52822 8.11719 -0.359292 2.55452 -0.770187 -0.65879 -0.478828 -0.167099 0 0 0 0 0 0 0 0 0 
26.982 1 401 -2.72309 2.01703 9.62183 -3.32706 -0.394535 3.91512 0.0814945 0.00398885 0.407748 0 0 0 0 0 0 0 0 0 
26.982 1 441 -1.09523 4.42615 10.1643 -0.0894154 0.4849 -0.363763 0.223596 -0.856246 -0.674833 0 0 0 0 0 0 0 0 0 
26.982 1 204 -2.70027 3.9356 7.77487 1.77534 6.44736 0.22663 -0.0589369 0.712463 -0.500449 0 0 0 0 0 0 0 0 0 
26.982 1 402 1.52058 2.14051 9.58123 1.40121 3.09757 1.56476 -0.480313 -0.10546 0.0169332 0 0 0 0 0 0 0 0 0 
26.982 1 208 3.45248 2.60403 7.42549 0.128371 0.608499 1.72661 -0.498902 -0.56525 0.407178 0 0 0 0 0 0 0 0 0 
26.982 1 445 3.27633 4.32739 9.77539 3.42487 1.23923 -2.71798 0.380817 0.681718 -0.0725843 0 0 0 0 0 0 0 0 0 
26.982 1 247 5.30195 4.66346 7.40062 0.847097 -1.58386 0.90011 0.15373 -0.0473455 0.10851 0 0 0 0 0 0 0 0 0 
26.982 1 406 5.52283 2.49979 9.49439 -4.0938 0.53828 0.0875159 -0.054669 -0.0993251 -0.441497 0 0 0 0 0 0 0 0 0 
26.982 1 212 7.28891 2.56625 7.16627 -2.86252 -2.5813 3.42398 0.306946 0.393317 0.39988 0 0 0 0 0 0 0 0 0 
26.982 1 449 7.38471 4.51212 9.3366 -0.406919 1.55325 1.62085 0.390024 -0.00100519 -0.0389549 0 0 0 0 0 0 0 0 0 
26.982 1 251 9.4755 4.80724 7.29063 2.42903 1.91262 1.01924 -0.0233234 -0.56053 -0.345922 0 0 0 0 0 0 0 0 0 
26.982 1 410 9.66768 2.73745 9.05123 -2.75934 -2.88179 0.897028 -0.191196 -0.44988 0.249439 0 0 0 0 0 0 0 0 0 
26.982 1 453 11.6633 4.67338 8.97031 -6.47881 -1.10108 -1.69099 -0.201451 -0.0572067 0.790446 0 0 0 0 0 0 0 0 0 
26.982 1 216 11.708 2.68536 7.05908 -3.67302 -2.92308 3.56374 0.12856 0.00708385 0.187999 0 0 0 0 0 0 0 0 0 
26.982 1 255 13.4042 5.07251 7.1322 -1.35645 -0.29947 -0.936405 0.730027 -0.516238 -0.702284 0 0 0 0 0 0 0 0 0 
26.982 1 414 13.9592 2.59831 9.10993 -3.4054 -1.71319 -3.08562 -0.955244 0.498128 -0.103399 0 0 0 0 0 0 0 0 0 
26.982 1 416 11.7413 2.62814 11.0968 2.85227 4.02573 -0.62767 0.229546 -0.130552 -0.32836 0 0 0 0 0 0 0 0 0 
26.982 1 457 15.6151 5.00737 8.90689 -5.17101 -4.755 2.14416 0.0390057 -0.318658 0.0370758 0 0 0 0 0 0 0 0 0 
26.982 1 220 15.4102 2.74267 6.98827 -2.03026 -0.935917 4.45761 0.786195 0.112556 -0.134053 0 0 0 0 0 0 0 0 0 
26.982 1 418 17.6882 2.68998 8.77643 -2.97815 3.31052 -4.60309 0.211143 0.128931 0.0609348 0 0 0 0 0 0 0 0 0 
26.982 1 459 17.8049 4.83701 10.7161 0.681084 1.7312 3.97849 -0.0489471 0.191106 -0.0308502 0 0 0 0 0 0 0 0 0 
26.982 1 259 17.6386 4.67938 6.92122 2.45498 5.55766 0.604079 -0.157774 0.716785 0.203372 0 0 0 0 0 0 0 0 0 
26.982 1 224 19.9016 2.88624 6.67729 2.01971 -1.73307 -3.47194 -0.468115 -0.332405 0.227374 0 0 0 0 0 0 0 0 0 
26.982 1 461 19.7568 4.8394 8.51974 -2.47561 -2.64003 -0.139772 -0.267205 0.427436 0.438622 0 0 0 0 0 0 0 0 0 
26.982 1 422 21.8345 3.0439 8.71545 4.67707 -1.45385 -1.98792 0.483264 0.0111035 -0.0438239 0 0 0 0 0 0 0 0 0 
26.982 1 463 21.6293 5.32816 10.3799 -3.27812 -1.43921 8.54602 0.0948048 -0.717749 0.0727411 0 0 0 0 0 0 0 0 0 
26.982 1 424 19.9897 2.84686 10.6571 1.6046 -3.00906 0.928619 -0.232337 0.0259441 -0.0514794 0 0 0 0 0 0 0 0 0 
26.982 1 263 22.2346 5.7283 7.37859 4.36813 2.92059 -0.354407 -0.721183 -0.231195 0.377137 0 0 0 0 0 0 0 0 0 
26.982 1 228 24.1269 3.79997 7.22893 -2.85355 -1.67627 -1.3401 -0.21792 0.16871 0.156322 0 0 0 0 0 0 0 0 0 
26.982 1 465 24.038 6.04483 9.59962 2.99235 1.3902 -1.68757 0.845347 -0.175031 -0.51291 0 0 0 0 0 0 0 0 0 
26.982 1 227 26.2387 2.26661 7.40833 -6.15155 -1.01805 -2.32904 1.05255 -0.54636 0.0421989 0 0 0 0 0 0 0 0 0 
26.982 1 426 26.3838 4.2702 9.43224 1.78266 3.37852 -1.17299 0.283153 0.271689 0.10286 0 0 0 0 0 0 0 0 0 
26.982 1 428 24.1283 3.41397 10.4517 -4.92969 0.290086 2.48748 -0.406905 -0.603791 -0.0828121 0 0 0 0 0 0 0 0 0 