ITEM: TIMESTEP
8700
ITEM: NUMBER OF ATOMS
4000
ITEM: BOX BOUNDS pp pp pp
-1.8424 42.3424
0.516479 39.9835
0.490949 40.0091
ITEM: ATOMS mass type id x y z vx vy vz fx fy fz xrad yrad zrad vxrad vyrad vzrad fxrad fyrad fzrad 
26.982 1 43 0.367171 4.47235 2.41027 0.0212598 1.00661 -0.664839 -0.126658 -0.158764 0.0720771 0 0 0 0 0 0 0 0 0 
26.982 1 202 0.276602 2.44938 4.49302 0.393847 -1.93175 -1.5537 0.0342669 -0.323394 -0.536827 0 0 0 0 0 0 0 0 0 
26.982 1 4 -1.77012 2.44587 2.34293 -1.22984 1.02989 -0.220328 -0.0434925 0.0270439 0.158971 0 0 0 0 0 0 0 0 0 
26.982 1 2 0.448078 2.41495 0.444313 0.731031 1.90259 -0.516539 -0.181076 -0.124259 -0.1885 0 0 0 0 0 0 0 0 0 
26.982 1 8 2.36673 2.31844 2.45946 1.46613 5.1358 1.88183 0.22504 0.675979 -0.152647 0 0 0 0 0 0 0 0 0 
26.982 1 45 2.52867 4.4191 0.389015 4.29716 -6.39042 1.66022 -0.184909 0.140783 0.101813 0 0 0 0 0 0 0 0 0 
26.982 1 205 2.51651 0.644724 4.46196 -4.80288 0.474576 -1.463 0.0212593 -0.912973 -0.11033 0 0 0 0 0 0 0 0 0 
26.982 1 245 2.41037 4.401 4.43068 -2.93575 -1.54574 -2.66849 0.322315 -0.0344624 -0.198577 0 0 0 0 0 0 0 0 0 
26.982 1 47 4.63538 4.46634 2.18654 2.59671 0.307383 3.74453 0.224497 0.0559273 0.923317 0 0 0 0 0 0 0 0 0 
26.982 1 206 4.60276 2.50353 4.42939 1.27726 1.21297 -5.39341 0.45996 0.144987 -0.334125 0 0 0 0 0 0 0 0 0 
26.982 1 12 6.93684 2.40827 2.27435 -0.746644 -0.0759812 1.51889 -0.281121 0.266435 0.364988 0 0 0 0 0 0 0 0 0 
26.982 1 249 6.95537 4.27201 4.32783 -3.78027 -0.244312 2.3749 -0.282306 0.437577 -0.337179 0 0 0 0 0 0 0 0 0 
26.982 1 6 4.65203 2.4697 0.521853 -0.961586 -4.05432 2.84145 0.283903 -0.00285943 -0.273922 0 0 0 0 0 0 0 0 0 
26.982 1 209 6.99729 0.452321 4.4855 2.95062 1.40558 -1.77348 -0.106307 0.651599 -0.252076 0 0 0 0 0 0 0 0 0 
26.982 1 51 9.12262 4.35925 2.35093 2.71344 -0.56879 0.606016 -0.0861423 0.259915 -0.11748 0 0 0 0 0 0 0 0 0 
26.982 1 210 9.07299 2.45826 4.30919 5.33371 -1.32509 -5.57294 0.348926 -0.00512653 0.21403 0 0 0 0 0 0 0 0 0 
26.982 1 53 11.4035 4.43179 0.215192 -1.01121 -2.73837 3.82587 -0.00708589 -0.302174 0.133448 0 0 0 0 0 0 0 0 0 
26.982 1 10 9.03458 2.47584 0.415359 -1.49562 5.68414 3.68102 0.178578 0.345955 -0.624867 0 0 0 0 0 0 0 0 0 
26.982 1 16 11.1209 2.5524 2.26936 3.17484 0.432521 4.15574 0.86805 -0.109126 0.39753 0 0 0 0 0 0 0 0 0 
26.982 1 253 11.4617 4.45319 4.31534 -1.94173 1.96696 -1.55954 -0.287527 0.0192482 0.0832784 0 0 0 0 0 0 0 0 0 
26.982 1 55 13.7842 4.40068 2.27409 4.60163 0.580261 0.517111 -0.193086 0.408872 1.02856 0 0 0 0 0 0 0 0 0 
26.982 1 214 13.4937 2.37609 4.42781 -5.02943 0.985311 2.66846 0.234856 -0.0389686 -0.38665 0 0 0 0 0 0 0 0 0 
26.982 1 257 15.906 4.42418 4.40999 -2.34189 3.45784 -0.0904905 -0.150714 0.254805 0.36818 0 0 0 0 0 0 0 0 0 
26.982 1 15 13.6238 0.564085 2.24392 1.14935 -2.26437 -9.34305 -0.0200121 -0.079517 0.632854 0 0 0 0 0 0 0 0 0 
26.982 1 17 15.9221 0.626703 0.545723 3.00352 -2.1272 -0.431311 -0.209138 0.0396455 -0.0267883 0 0 0 0 0 0 0 0 0 
26.982 1 14 13.635 2.61778 0.502276 0.384561 -4.01153 -3.43335 0.0372669 -0.646058 -0.769996 0 0 0 0 0 0 0 0 0 
26.982 1 20 15.9996 2.57409 2.57391 -1.53789 -2.20021 3.24159 -0.352751 -0.480074 -0.498863 0 0 0 0 0 0 0 0 0 
26.982 1 218 18.086 2.6098 4.39839 4.47448 1.29136 3.11034 0.284322 -0.638751 0.489382 0 0 0 0 0 0 0 0 0 
26.982 1 59 18.2172 4.48235 2.55396 1.01934 -0.541892 -3.55981 -0.0973629 0.0564129 0.0766329 0 0 0 0 0 0 0 0 0 
26.982 1 24 20.3743 2.32801 2.26555 3.34818 -2.20792 -1.88987 -0.165852 0.579169 0.714383 0 0 0 0 0 0 0 0 0 
26.982 1 261 20.4752 4.42868 4.5188 5.01293 6.90706 -5.03199 -0.281958 -0.284452 -0.0313081 0 0 0 0 0 0 0 0 0 
26.982 1 217 15.7991 0.523779 4.46238 -2.62598 1.44924 -2.24873 -0.105937 0.366678 -0.0991435 0 0 0 0 0 0 0 0 0 
26.982 1 57 16.105 4.53654 0.573331 3.04193 1.50466 3.67273 -0.3115 -0.0443119 -0.159172 0 0 0 0 0 0 0 0 0 
26.982 1 61 20.1009 4.5851 0.591976 -5.31092 -0.68145 2.39961 0.652317 -0.311215 -0.214137 0 0 0 0 0 0 0 0 0 
26.982 1 18 18.1238 2.51798 0.486258 0.691814 -1.5467 -2.77958 -0.0505043 0.251174 0.636203 0 0 0 0 0 0 0 0 0 
26.982 1 63 22.5413 4.45606 2.42522 2.42128 2.89733 4.69893 -0.494983 -0.105111 -0.556929 0 0 0 0 0 0 0 0 0 
26.982 1 222 22.5135 2.43747 4.31237 2.66411 -2.22577 1.08883 -0.0348628 -0.120095 0.33609 0 0 0 0 0 0 0 0 0 
26.982 1 22 22.5856 2.46077 0.368887 3.55903 4.59292 0.550294 -0.403952 0.0215001 0.186534 0 0 0 0 0 0 0 0 0 
26.982 1 28 24.7451 2.43585 2.32413 6.99845 0.972533 -3.24923 -0.154023 -0.0338303 0.530493 0 0 0 0 0 0 0 0 0 
26.982 1 265 24.4618 4.41378 4.25111 -2.47674 -1.49262 -2.39383 0.962678 0.14706 0.347341 0 0 0 0 0 0 0 0 0 
26.982 1 67 26.8336 4.51775 2.26236 -4.45451 0.585639 0.908226 -0.167245 -0.194439 0.296596 0 0 0 0 0 0 0 0 0 
26.982 1 226 26.9903 2.81166 4.44352 -1.73948 0.416709 -2.97964 -0.357068 -0.459324 -0.254613 0 0 0 0 0 0 0 0 0 
26.982 1 32 29.0567 2.66043 2.46138 -2.35425 -2.20401 -4.4502 0.280785 -0.375282 0.154083 0 0 0 0 0 0 0 0 0 
26.982 1 25 24.6344 0.438676 0.518493 -0.931115 -1.5909 -1.07188 -0.0116072 -0.212975 -0.402153 0 0 0 0 0 0 0 0 0 
26.982 1 29 29.1305 0.420354 0.61696 -0.216073 0.147577 -2.75992 -0.239246 0.0119176 0.131705 0 0 0 0 0 0 0 0 0 
26.982 1 269 29.1487 4.63727 4.61182 2.12566 2.97442 -2.66141 -0.26745 -0.445256 -0.387633 0 0 0 0 0 0 0 0 0 
26.982 1 71 31.3395 4.54195 2.49052 -3.56319 -3.39838 -1.16878 -0.149901 -0.441977 -0.0745276 0 0 0 0 0 0 0 0 0 
26.982 1 230 31.2261 2.50006 4.51178 3.71682 1.7449 -2.67143 0.153472 0.181405 -0.505661 0 0 0 0 0 0 0 0 0 
26.982 1 273 33.3593 4.62367 4.5927 -1.99076 -0.753196 -1.15683 0.140498 -0.994766 -0.264855 0 0 0 0 0 0 0 0 0 
26.982 1 31 31.3297 0.463716 2.59405 -4.85881 -0.765692 -0.659852 -0.128915 0.139506 -0.200883 0 0 0 0 0 0 0 0 0 
26.982 1 36 33.7728 2.40384 2.39236 1.35629 1.19662 -1.44425 -0.691635 0.468426 0.130751 0 0 0 0 0 0 0 0 0 
26.982 1 75 35.7239 4.55486 2.65531 -1.97429 1.50119 -0.995262 -0.238458 -0.0846116 -0.599332 0 0 0 0 0 0 0 0 0 
26.982 1 234 35.7198 2.49685 4.34519 -5.61756 0.647145 2.10715 -0.0479876 -0.39979 0.281966 0 0 0 0 0 0 0 0 0 
26.982 1 40 38.0697 2.13332 2.51032 -6.26962 -1.38153 3.50956 -0.130729 0.595786 0.0241768 0 0 0 0 0 0 0 0 0 
26.982 1 237 37.8921 0.407286 4.57295 -0.455723 3.53532 4.02421 0.0488577 0.202333 0.130079 0 0 0 0 0 0 0 0 0 
26.982 1 77 37.8749 4.32093 0.680936 -1.97523 3.44659 2.19715 0.0341261 0.0345514 -0.0587029 0 0 0 0 0 0 0 0 0 
26.982 1 1 42.3196 0.538479 0.297789 -3.25189 -0.417461 -2.69525 0.252763 -0.16789 0.371028 0 0 0 0 0 0 0 0 0 
26.982 1 39 40.3502 0.513172 2.41696 3.2121 2.08238 3.77909 -0.303495 -0.171638 0.117592 0 0 0 0 0 0 0 0 0 
26.982 1 277 37.9253 4.3815 4.42516 1.07464 -0.584593 -1.86805 0.0534914 0.268933 -0.482612 0 0 0 0 0 0 0 0 0 
26.982 1 241 42.2823 4.34198 4.39686 -2.14583 -0.743812 -7.26299 -0.0775917 0.461113 -0.2568 0 0 0 0 0 0 0 0 0 
26.982 1 79 40.0697 4.40982 2.38795 -2.37473 -1.03858 0.644029 0.0929218 -0.55221 0.187798 0 0 0 0 0 0 0 0 0 
26.982 1 238 40.1087 2.40494 4.56836 0.9964 3.73742 2.90678 -0.0651946 0.097461 -0.505262 0 0 0 0 0 0 0 0 0 
26.982 1 38 40.1203 2.40608 0.352404 0.63298 2.11026 -2.1893 0.179872 0.560375 0.918081 0 0 0 0 0 0 0 0 0 
26.982 1 83 0.324344 8.45541 2.3987 -3.21473 -2.91579 0.160313 0.120313 -0.217749 -0.147677 0 0 0 0 0 0 0 0 0 
26.982 1 242 0.428914 6.45817 4.34366 0.450983 3.35395 6.24728 -0.287622 0.0399343 0.225864 0 0 0 0 0 0 0 0 0 
26.982 1 285 2.68481 8.38147 4.33146 1.15464 -5.04409 -1.02117 -0.280163 0.0495562 0.5285 0 0 0 0 0 0 0 0 0 
26.982 1 84 -2.06379 10.3171 2.51753 0.210009 1.03425 3.09251 0.139376 0.29579 -0.240613 0 0 0 0 0 0 0 0 0 
26.982 1 85 2.42351 8.53129 0.491519 1.0751 1.73977 0.610455 0.297897 -0.32049 -0.210484 0 0 0 0 0 0 0 0 0 
26.982 1 281 -1.71959 8.31126 4.26709 0.599967 1.17527 -3.14985 -0.445955 -0.00345403 0.468449 0 0 0 0 0 0 0 0 0 
26.982 1 282 0.374363 10.0725 4.51668 0.581559 4.161 -2.87524 0.14778 0.960072 -0.284344 0 0 0 0 0 0 0 0 0 
26.982 1 48 2.56698 6.4534 2.39083 -2.46645 5.98488 0.300474 -0.211461 -0.192635 -0.0411949 0 0 0 0 0 0 0 0 0 
26.982 1 87 4.76602 8.322 2.5829 -0.956718 2.9887 1.79316 0.0197498 0.315326 -0.51277 0 0 0 0 0 0 0 0 0 
26.982 1 246 4.76057 6.32007 4.3816 -0.065509 3.32425 -5.0685 -0.0826149 -0.145983 0.00962103 0 0 0 0 0 0 0 0 0 
26.982 1 289 6.95068 8.40077 4.31536 -0.338064 -6.80843 3.06999 0.124409 0.242659 0.486016 0 0 0 0 0 0 0 0 0 
26.982 1 88 2.42095 10.3568 2.41458 1.49302 0.740688 0.961964 0.163381 0.533765 0.26401 0 0 0 0 0 0 0 0 0 
26.982 1 86 4.75873 10.2155 0.466348 0.0362711 1.28508 -0.329632 -0.208471 0.173842 -0.183674 0 0 0 0 0 0 0 0 0 
26.982 1 89 7.05439 8.48094 0.645782 2.46596 -2.48155 2.59674 -0.157949 -0.271615 -0.7188 0 0 0 0 0 0 0 0 0 
26.982 1 52 6.97106 6.52811 2.49937 -4.36571 -2.69227 2.82598 -0.0397118 -0.71006 -0.221012 0 0 0 0 0 0 0 0 0 
26.982 1 91 9.33098 8.46113 2.38177 -1.96291 -3.0091 -5.16077 -0.168887 -0.184272 0.289515 0 0 0 0 0 0 0 0 0 
26.982 1 250 9.15201 6.24267 4.2224 -2.10089 -3.21617 -3.03919 0.197534 0.696339 0.383406 0 0 0 0 0 0 0 0 0 
26.982 1 293 11.4167 8.20992 4.28575 1.97592 -1.74877 0.654822 -0.0954619 0.370808 0.0185896 0 0 0 0 0 0 0 0 0 
26.982 1 290 8.91121 10.5487 4.46421 2.11877 -3.20563 -6.68959 0.254244 0.0560537 -0.458614 0 0 0 0 0 0 0 0 0 
26.982 1 96 11.4379 10.3625 2.41915 -6.14288 1.12184 -0.564102 -0.177495 0.0383635 0.0589833 0 0 0 0 0 0 0 0 0 
26.982 1 50 9.13084 6.36356 0.475835 -3.28947 1.43211 0.644946 0.172121 0.508649 -0.0271778 0 0 0 0 0 0 0 0 0 
26.982 1 56 11.4745 6.17333 2.25604 -0.57068 0.133034 -0.412322 -0.0926986 0.447219 0.201655 0 0 0 0 0 0 0 0 0 
26.982 1 95 13.7833 8.33345 2.42836 0.284062 1.945 -1.14096 -0.209721 0.381075 -0.388499 0 0 0 0 0 0 0 0 0 
26.982 1 254 13.7301 6.56689 4.32651 -1.45605 -2.5271 -2.13616 -0.389631 -0.651339 0.0991659 0 0 0 0 0 0 0 0 0 
26.982 1 60 15.9248 6.46167 2.5172 0.287171 -4.82738 -1.24998 -0.000508095 0.102355 -0.158859 0 0 0 0 0 0 0 0 0 
26.982 1 97 15.8978 8.46339 0.309988 -3.75161 4.7313 -0.704769 -0.0843831 -0.166092 0.169956 0 0 0 0 0 0 0 0 0 
26.982 1 54 13.7123 6.36716 0.424864 0.648519 0.228483 -5.38342 0.151437 0.358353 -0.0836043 0 0 0 0 0 0 0 0 0 
26.982 1 297 15.7951 8.43076 4.50337 -1.79273 -0.939829 1.23218 -0.0486199 0.290468 -0.29244 0 0 0 0 0 0 0 0 0 
26.982 1 99 18.0842 8.52394 2.41805 2.35416 -2.90201 -1.09968 -0.113727 -0.220379 0.454759 0 0 0 0 0 0 0 0 0 
26.982 1 258 18.1153 6.57818 4.49997 1.6848 4.4264 -1.79055 -0.333897 -0.296626 -0.200796 0 0 0 0 0 0 0 0 0 
26.982 1 58 18.0915 6.51543 0.72769 0.277161 -2.24403 3.58818 0.0841249 -0.0393927 -0.753321 0 0 0 0 0 0 0 0 0 
26.982 1 64 20.3358 6.37942 2.66229 4.18403 -2.91731 -0.475368 -0.0240492 0.265675 -0.632474 0 0 0 0 0 0 0 0 0 
26.982 1 104 20.351 10.252 2.48428 2.32736 1.67851 -0.39436 -0.328901 0.50951 -0.0536334 0 0 0 0 0 0 0 0 0 
26.982 1 102 22.3577 10.3482 0.24251 -5.77325 -1.42412 -3.52947 0.27876 0.252421 0.461095 0 0 0 0 0 0 0 0 0 
26.982 1 301 20.37 8.37299 4.42204 -7.17077 2.88119 0.222495 -0.299993 0.264113 0.0138595 0 0 0 0 0 0 0 0 0 
26.982 1 103 22.4562 8.48336 2.35136 3.63359 -1.99037 3.52019 0.178515 -0.0473252 0.426253 0 0 0 0 0 0 0 0 0 
26.982 1 262 22.4872 6.42322 4.4295 -3.8007 0.366857 -2.3852 0.102168 0.297659 0.0110181 0 0 0 0 0 0 0 0 0 
26.982 1 68 24.6423 6.47831 2.41514 1.21642 3.30297 0.203398 0.133511 -0.174471 0.0498328 0 0 0 0 0 0 0 0 0 
26.982 1 302 22.4446 10.261 4.42849 -8.22408 4.75707 1.82475 -0.0467235 0.55195 -0.00328054 0 0 0 0 0 0 0 0 0 
26.982 1 62 22.5492 6.58133 0.545551 -1.7826 2.85716 0.651633 -0.22208 -0.64579 -0.0482859 0 0 0 0 0 0 0 0 0 
26.982 1 105 24.6937 8.49041 0.615213 3.65738 -2.2197 0.948796 0.0956859 -0.098644 -0.368315 0 0 0 0 0 0 0 0 0 
26.982 1 305 24.6931 8.3619 4.43192 2.90246 2.08833 4.05392 -0.0121308 0.134738 -0.178868 0 0 0 0 0 0 0 0 0 
26.982 1 107 26.9059 8.28943 2.45042 2.33422 0.986284 -2.88965 -0.0676163 0.634965 -0.0393187 0 0 0 0 0 0 0 0 0 
26.982 1 266 26.8581 6.36343 4.32903 0.856362 2.52646 -1.40723 -0.329534 -0.334489 0.762186 0 0 0 0 0 0 0 0 0 
26.982 1 306 26.8193 10.3639 4.59775 2.65222 -1.75221 2.46367 -0.184874 -0.0642824 -0.431862 0 0 0 0 0 0 0 0 0 
26.982 1 72 28.9598 6.43426 2.56672 4.70798 -1.55018 -0.657679 0.546951 0.112661 -0.15797 0 0 0 0 0 0 0 0 0 
26.982 1 309 28.9196 8.50495 4.54185 3.81897 -1.13377 -5.68561 0.517855 -0.0667741 -0.496156 0 0 0 0 0 0 0 0 0 
26.982 1 111 31.3521 8.43906 2.44318 -1.31119 -1.97298 -0.231669 -0.43861 0.219407 0.45296 0 0 0 0 0 0 0 0 0 
26.982 1 270 31.1841 6.51293 4.4759 -0.397747 5.28633 2.30021 0.00218335 0.529849 0.279646 0 0 0 0 0 0 0 0 0 
26.982 1 313 33.4408 8.73997 4.62301 1.27298 1.80994 6.21078 -0.194951 -0.780459 0.0736791 0 0 0 0 0 0 0 0 0 
26.982 1 76 33.3229 6.45402 2.73742 -2.35525 4.53816 -4.02874 0.628871 0.570527 -0.554524 0 0 0 0 0 0 0 0 0 
26.982 1 310 31.1861 10.4587 4.33502 -1.81826 0.0716775 4.18409 -0.172049 -0.290988 0.223605 0 0 0 0 0 0 0 0 0 
26.982 1 116 33.3726 10.3261 2.53703 1.25761 -3.39825 -0.306856 0.189775 0.365711 -0.530775 0 0 0 0 0 0 0 0 0 
26.982 1 115 35.627 8.58557 2.52876 -0.955945 -2.75118 5.95908 -0.0122404 -0.293586 0.0376016 0 0 0 0 0 0 0 0 0 
26.982 1 274 35.5755 6.52215 4.50165 -1.08285 0.425766 5.2716 0.298799 0.29017 -0.212325 0 0 0 0 0 0 0 0 0 
26.982 1 317 37.6757 8.44257 4.43895 -6.08234 -1.90682 -1.84569 0.466385 0.144268 0.0341144 0 0 0 0 0 0 0 0 0 
26.982 1 314 35.5054 10.5666 4.49215 0.322121 -2.02031 3.98127 0.627072 -0.0337443 -0.052876 0 0 0 0 0 0 0 0 0 
26.982 1 74 35.754 6.5648 0.575525 -0.520231 -1.94687 5.97534 -0.244487 -0.472297 0.15386 0 0 0 0 0 0 0 0 0 
26.982 1 44 42.1054 6.33762 2.4751 1.39158 2.68946 1.24461 0.602007 -0.15073 0.126026 0 0 0 0 0 0 0 0 0 
26.982 1 80 37.8386 6.44895 2.51158 1.96084 0.224676 -6.78727 -0.127229 -0.291519 0.147054 0 0 0 0 0 0 0 0 0 
26.982 1 119 39.9651 8.38059 2.6779 1.08288 -2.14048 -4.66469 0.304987 0.392854 -0.103715 0 0 0 0 0 0 0 0 0 
26.982 1 278 39.9388 6.32013 4.39026 -2.70219 1.93021 -2.71086 0.274278 0.0138188 0.234557 0 0 0 0 0 0 0 0 0 
26.982 1 318 39.8716 10.555 4.49275 1.86544 2.37991 1.81589 0.40738 -0.0573345 -0.28739 0 0 0 0 0 0 0 0 0 
26.982 1 118 40.0005 10.4114 0.528941 1.94802 1.30415 -7.33384 0.0669933 -0.0121666 0.219255 0 0 0 0 0 0 0 0 0 
26.982 1 81 42.4429 8.3115 0.595037 -6.7501 -1.48752 1.03326 -0.364872 0.269678 -0.237682 0 0 0 0 0 0 0 0 0 
26.982 1 117 38.0122 8.34862 0.674516 -0.305017 0.209777 -2.28923 -0.271634 0.511344 -0.408625 0 0 0 0 0 0 0 0 0 
26.982 1 121 -2.08669 12.3722 0.521145 3.68243 5.12377 -3.09554 0.435019 -0.0200978 0.0916824 0 0 0 0 0 0 0 0 0 
26.982 1 123 0.301838 12.4424 2.47483 -0.696851 -0.959829 1.5637 -0.249747 -0.15432 -0.00178676 0 0 0 0 0 0 0 0 0 
26.982 1 322 0.315454 14.2891 4.47213 4.20312 2.60295 1.77078 -0.269367 0.254968 0.289286 0 0 0 0 0 0 0 0 0 
26.982 1 124 -2.1233 14.2128 2.51995 3.34505 -4.80409 5.66573 0.799957 0.632917 0.182343 0 0 0 0 0 0 0 0 0 
26.982 1 321 -1.72839 12.1654 4.50796 -2.02315 2.84752 -1.69535 -0.254423 0.676461 -0.330662 0 0 0 0 0 0 0 0 0 
26.982 1 126 4.59586 14.3671 0.313402 1.66734 -0.611681 -4.04055 0.287841 0.115368 0.516226 0 0 0 0 0 0 0 0 0 
26.982 1 325 2.42392 12.4604 4.5306 4.26701 2.56796 -1.89321 0.26736 -0.455896 -0.378837 0 0 0 0 0 0 0 0 0 
26.982 1 128 2.44231 14.2782 2.44976 0.194547 3.31484 -0.235634 0.342601 0.179357 0.0370125 0 0 0 0 0 0 0 0 0 
26.982 1 286 4.71085 10.4277 4.28771 1.97614 4.48025 2.97654 -0.240949 -0.098059 0.44992 0 0 0 0 0 0 0 0 0 
26.982 1 127 4.55635 12.2731 2.27643 1.95995 2.55037 -2.01074 0.320391 0.461629 0.100165 0 0 0 0 0 0 0 0 0 
26.982 1 326 4.80395 14.2344 4.47465 0.292548 3.45277 3.17369 -0.421752 -0.0429905 -0.541797 0 0 0 0 0 0 0 0 0 
26.982 1 129 6.9077 12.3021 0.279355 -6.88414 -5.39426 1.78655 0.254047 0.244949 0.449454 0 0 0 0 0 0 0 0 0 
26.982 1 125 2.51429 12.5098 0.367707 1.10373 0.69135 4.65232 0.0201143 -0.659198 -0.117067 0 0 0 0 0 0 0 0 0 
26.982 1 92 6.92262 10.4575 2.38398 -1.43889 0.436441 1.51223 0.0942669 -0.0134749 -0.0513452 0 0 0 0 0 0 0 0 0 
26.982 1 329 6.70076 12.316 4.2247 2.5906 1.12611 3.08843 0.291708 0.232129 0.362264 0 0 0 0 0 0 0 0 0 
26.982 1 132 7.02269 14.2947 2.18295 -1.16913 -2.58732 0.574789 -0.150894 -0.0887618 0.205323 0 0 0 0 0 0 0 0 0 
26.982 1 131 9.40246 12.3706 2.37905 2.29557 4.51462 5.8005 -0.904319 -0.159994 -0.581521 0 0 0 0 0 0 0 0 0 
26.982 1 330 8.85983 14.1612 4.40067 -1.28364 -4.77847 0.871439 0.373399 0.387009 -0.10111 0 0 0 0 0 0 0 0 0 
26.982 1 133 11.4527 12.4886 0.264185 -2.36723 -2.26359 2.56738 0.0249059 -0.741568 0.504131 0 0 0 0 0 0 0 0 0 
26.982 1 130 9.22206 14.4491 0.198844 -1.14513 1.59305 5.67857 -0.304662 -0.35038 0.405035 0 0 0 0 0 0 0 0 0 
26.982 1 137 15.8988 12.477 0.495211 -0.993377 3.90935 -1.18126 -0.17768 -0.390013 -0.00435799 0 0 0 0 0 0 0 0 0 
26.982 1 333 11.1607 12.5524 4.35574 0.696983 -3.32619 2.48674 0.473858 -0.406582 0.74036 0 0 0 0 0 0 0 0 0 
26.982 1 294 13.4344 10.454 4.43972 0.865611 -0.920051 2.34684 -0.0667557 -0.188283 0.110734 0 0 0 0 0 0 0 0 0 
26.982 1 136 11.3415 14.2688 2.37099 3.50895 -3.69423 0.584195 0.088403 -0.168057 -0.366219 0 0 0 0 0 0 0 0 0 
26.982 1 135 13.5022 12.3132 2.41922 -3.96056 1.51443 -3.69264 0.174905 0.302201 0.0200114 0 0 0 0 0 0 0 0 0 
26.982 1 334 13.3827 14.5471 4.30772 -4.55348 0.949854 -1.34265 0.437026 -0.487339 0.694496 0 0 0 0 0 0 0 0 0 
26.982 1 134 13.6547 14.3203 0.493525 4.25177 -1.99044 -1.1301 0.127877 -0.378416 -0.284536 0 0 0 0 0 0 0 0 0 
26.982 1 298 17.8601 10.4037 4.33685 -2.73421 2.03737 3.4557 0.17879 0.502477 -0.845399 0 0 0 0 0 0 0 0 0 
26.982 1 100 15.6969 10.4312 2.48338 0.251709 -0.723063 -1.9489 0.203329 0.111147 -0.150332 0 0 0 0 0 0 0 0 0 
26.982 1 98 18.0854 10.3961 0.547234 0.462097 0.529948 -3.10541 -0.356782 0.16268 -0.2185 0 0 0 0 0 0 0 0 0 
26.982 1 337 15.4892 12.5402 4.54036 0.0159397 4.41477 1.05978 0.223187 -0.338221 -0.62585 0 0 0 0 0 0 0 0 0 
26.982 1 140 15.8622 14.3572 2.55258 4.97278 1.02053 0.483797 -0.146836 0.0977215 -0.19086 0 0 0 0 0 0 0 0 0 
26.982 1 139 17.9789 12.5332 2.48463 1.48702 -3.15689 -1.21455 0.0472088 -0.887139 -0.0239722 0 0 0 0 0 0 0 0 0 
26.982 1 338 18.0946 14.2272 4.4197 -0.677135 -4.56576 6.13665 -0.121768 0.690774 0.19337 0 0 0 0 0 0 0 0 0 
26.982 1 138 18.1172 14.2331 0.458737 -4.67034 -7.83327 4.38974 -0.291233 0.291249 -0.35118 0 0 0 0 0 0 0 0 0 
26.982 1 142 22.6091 14.0715 0.36064 -5.88469 -2.69077 -4.25651 -0.0740598 0.343559 0.123929 0 0 0 0 0 0 0 0 0 
26.982 1 141 20.1168 12.2269 0.527432 -2.73527 -0.500755 2.80827 0.514886 0.326356 0.277491 0 0 0 0 0 0 0 0 0 
26.982 1 341 20.1838 12.3082 4.39573 -5.38724 0.379812 0.404753 0.126458 0.125487 0.0868518 0 0 0 0 0 0 0 0 0 
26.982 1 144 20.4034 14.3806 2.33748 1.14714 -0.00618791 1.91484 -0.262085 -0.802694 0.343359 0 0 0 0 0 0 0 0 0 
26.982 1 143 22.3716 12.3048 2.49116 -5.48653 -2.39945 1.24231 0.0976296 -0.181195 -0.298008 0 0 0 0 0 0 0 0 0 
26.982 1 342 22.3391 14.315 4.32686 4.55882 -2.46996 3.8404 0.374658 0.148403 0.501369 0 0 0 0 0 0 0 0 0 
26.982 1 148 24.7202 14.3124 2.36 1.56614 2.00013 -0.468607 -0.257021 -0.193473 0.150077 0 0 0 0 0 0 0 0 0 
26.982 1 345 24.5587 12.4459 4.47903 0.298838 8.10218 -2.29357 -0.265341 -0.10184 0.0582903 0 0 0 0 0 0 0 0 0 
26.982 1 108 24.5941 10.5379 2.52694 -0.374382 1.84418 -1.55668 0.0261138 -0.55352 0.0292713 0 0 0 0 0 0 0 0 0 
26.982 1 112 29.0016 10.6245 2.44131 -0.473885 -6.72994 0.853184 0.0507459 -0.841697 -0.155748 0 0 0 0 0 0 0 0 0 
26.982 1 147 26.7201 12.2888 2.66374 -3.90424 0.646547 3.82899 0.198618 0.158234 -0.694958 0 0 0 0 0 0 0 0 0 
26.982 1 346 26.8584 14.3775 4.36201 -0.837318 -1.78944 -0.376819 -0.177458 0.0172768 0.283184 0 0 0 0 0 0 0 0 0 
26.982 1 152 29.1559 14.2407 2.49378 6.37156 -4.92596 -1.9452 -0.149702 -0.187671 -0.509297 0 0 0 0 0 0 0 0 0 
26.982 1 349 28.9597 12.427 4.39794 4.41619 4.34082 3.52068 0.153657 -0.263268 0.472557 0 0 0 0 0 0 0 0 0 
26.982 1 151 31.2909 12.3637 2.27237 0.723313 -3.70998 -1.0743 -0.0433451 0.105577 0.245308 0 0 0 0 0 0 0 0 0 
26.982 1 350 31.3348 14.2765 4.3021 -0.00160366 -1.97505 7.19014 0.00986097 -0.0878516 0.352048 0 0 0 0 0 0 0 0 0 
26.982 1 156 33.5709 14.4318 2.29432 -3.10721 -0.399808 -1.50267 -0.0596354 -0.163806 -0.169299 0 0 0 0 0 0 0 0 0 
26.982 1 353 33.4934 12.3879 4.33012 3.26136 -0.784753 -1.07147 -0.343229 0.207311 0.185851 0 0 0 0 0 0 0 0 0 
26.982 1 154 35.8554 14.2959 0.532543 0.389088 -2.07662 3.10576 -0.550102 0.209867 -0.505452 0 0 0 0 0 0 0 0 0 
26.982 1 155 35.6173 12.3561 2.42243 -0.98559 1.49842 -1.33136 0.0205975 0.0111923 0.155666 0 0 0 0 0 0 0 0 0 
26.982 1 354 35.5064 14.4684 4.36914 1.40731 2.09915 1.08778 0.220448 -0.22829 0.0924945 0 0 0 0 0 0 0 0 0 
26.982 1 357 37.8071 12.5526 4.4179 -0.136227 -3.39622 2.92509 -0.0430619 -0.31429 0.518063 0 0 0 0 0 0 0 0 0 
26.982 1 120 37.81 10.4591 2.4928 2.53815 -4.78605 -0.0762093 -0.0831485 0.0303996 0.0149744 0 0 0 0 0 0 0 0 0 
26.982 1 160 37.8384 14.2844 2.45878 -3.5787 5.01301 1.93025 0.0988863 0.399342 -0.208066 0 0 0 0 0 0 0 0 0 
26.982 1 159 39.9903 12.4945 2.53541 -2.54347 -1.14435 2.04433 -0.0183115 -0.582172 -0.411812 0 0 0 0 0 0 0 0 0 
26.982 1 358 40.0952 14.3502 4.43467 3.47696 -1.8239 0.859441 0.00554546 0.0809804 0.497318 0 0 0 0 0 0 0 0 0 
26.982 1 163 0.359546 16.2166 2.58319 3.55931 -0.280428 2.28549 -0.381955 0.0562465 -0.387403 0 0 0 0 0 0 0 0 0 
26.982 1 362 0.378032 18.2189 4.41837 -2.99725 0.781411 4.56745 0.328848 0.53293 -0.223929 0 0 0 0 0 0 0 0 0 
26.982 1 164 -2.00806 18.4468 2.63456 3.76021 2.15247 7.07497 0.0206458 -0.881249 -0.560067 0 0 0 0 0 0 0 0 0 
26.982 1 365 2.58563 16.2027 4.41641 2.02422 1.36474 0.14092 0.093531 0.181106 -0.0257338 0 0 0 0 0 0 0 0 0 
26.982 1 361 -1.80473 16.4077 4.57766 -3.42884 1.92749 1.75805 -0.44444 -0.0479121 -0.712286 0 0 0 0 0 0 0 0 0 
26.982 1 166 4.7922 18.4814 0.535615 1.12588 1.33032 0.374818 -0.138253 -0.555949 -0.313034 0 0 0 0 0 0 0 0 0 
26.982 1 168 2.74948 18.5123 2.61404 -4.1653 0.393916 3.03352 -0.35144 -0.689444 -0.086683 0 0 0 0 0 0 0 0 0 
26.982 1 167 4.71805 16.1736 2.46514 0.890001 1.59768 -2.29762 0.128998 0.335223 0.125444 0 0 0 0 0 0 0 0 0 
26.982 1 366 4.79976 18.5254 4.49835 0.601495 -4.81009 3.78401 0.23047 -0.975384 -0.292598 0 0 0 0 0 0 0 0 0 
26.982 1 369 6.96908 16.2333 4.4605 -0.863688 -5.20455 0.732979 -0.184802 0.30106 -0.305884 0 0 0 0 0 0 0 0 0 
26.982 1 172 6.77758 18.3224 2.44632 4.55662 -2.43572 1.3958 0.495447 -0.135307 0.563971 0 0 0 0 0 0 0 0 0 
26.982 1 169 6.77837 16.4028 0.440825 3.10878 0.640925 0.142433 0.201149 -0.102552 -0.0527303 0 0 0 0 0 0 0 0 0 
26.982 1 171 9.16995 16.2613 2.31953 -0.976164 -0.920202 0.292516 -0.372923 -0.335989 0.289381 0 0 0 0 0 0 0 0 0 
26.982 1 370 9.12908 18.1863 4.40876 1.04032 3.82741 -2.21134 -0.0836872 0.204042 -0.186364 0 0 0 0 0 0 0 0 0 
26.982 1 176 11.418 18.3542 2.48974 -2.73427 -0.189742 -2.84444 0.0223801 -0.0373889 0.051769 0 0 0 0 0 0 0 0 0 
26.982 1 2209 6.99105 20.4925 4.55364 1.03609 -0.406352 0.456215 0.05574 -0.672791 -0.596282 0 0 0 0 0 0 0 0 0 
26.982 1 170 9.13307 18.2677 0.678971 -4.03093 -1.72718 3.84845 0.11304 0.106056 -0.157626 0 0 0 0 0 0 0 0 0 
26.982 1 2213 11.4306 20.2998 4.68764 5.89242 -3.73989 -6.38885 0.0637352 -0.247176 -0.552747 0 0 0 0 0 0 0 0 0 
26.982 1 373 11.2276 16.2018 4.08352 -5.3106 -0.898319 -7.9376 0.0930813 0.317134 1.0479 0 0 0 0 0 0 0 0 0 
26.982 1 175 13.7685 16.2223 2.34109 0.371579 6.34435 -4.26826 -0.18717 0.517386 0.143148 0 0 0 0 0 0 0 0 0 
26.982 1 374 13.6019 18.1647 4.49015 1.27107 1.32024 5.30379 -0.0966882 -0.0980196 -0.1949 0 0 0 0 0 0 0 0 0 
26.982 1 377 16.0015 16.3903 4.47709 0.912061 0.724894 -4.54476 -0.484945 -0.342378 0.02226 0 0 0 0 0 0 0 0 0 
26.982 1 180 15.7396 18.1368 2.45312 -1.80601 -5.05108 -1.46117 0.356991 0.346953 -0.215512 0 0 0 0 0 0 0 0 0 
26.982 1 174 13.5909 18.245 0.486228 -1.3868 -0.679897 2.98842 0.338106 0.0109642 -0.0268738 0 0 0 0 0 0 0 0 0 
26.982 1 2021 20.1126 20.1934 0.458653 -2.95806 5.65131 -4.40825 0.202238 0.218316 0.173975 0 0 0 0 0 0 0 0 0 
26.982 1 178 18.1203 18.2809 0.394833 -3.36853 -0.388401 1.10463 -0.0806224 -0.510484 0.568368 0 0 0 0 0 0 0 0 0 
26.982 1 179 18.0482 16.2555 2.38348 -1.73344 -1.19919 -0.128023 -0.110673 0.143909 0.306776 0 0 0 0 0 0 0 0 0 
26.982 1 378 18.1999 18.3214 4.51987 -2.25319 1.36223 4.9633 0.0455464 0.100824 -0.61861 0 0 0 0 0 0 0 0 0 
26.982 1 184 20.3056 18.2447 2.31701 3.77657 -10.8368 -3.09478 -0.243701 0.159484 0.360692 0 0 0 0 0 0 0 0 0 
26.982 1 2217 15.6496 20.1723 4.47552 2.20311 -0.809333 -0.708974 0.373558 0.361007 -0.360281 0 0 0 0 0 0 0 0 0 
26.982 1 2017 16.0789 20.1145 0.509408 -0.418591 1.25339 -2.42824 -0.752792 -0.20139 0.376023 0 0 0 0 0 0 0 0 0 
26.982 1 2221 20.5103 20.3704 4.47352 4.17315 3.97255 0.327158 -0.652309 -0.985181 -0.421541 0 0 0 0 0 0 0 0 0 
26.982 1 181 20.0929 16.1091 0.508356 2.08828 -2.90994 0.862046 0.58658 0.97156 -0.571434 0 0 0 0 0 0 0 0 0 
26.982 1 182 22.3088 18.2947 0.380942 -9.69897 -3.12276 1.64628 0.315918 -0.191429 0.490238 0 0 0 0 0 0 0 0 0 
26.982 1 381 20.3193 16.3606 4.17082 1.07394 1.05288 -3.06241 -0.0486359 -0.0229269 0.411581 0 0 0 0 0 0 0 0 0 
26.982 1 183 22.5768 16.2179 2.28835 -0.192785 1.75515 -2.05496 -0.187626 0.247004 -0.0258737 0 0 0 0 0 0 0 0 0 
26.982 1 382 22.5685 18.2938 4.31328 -2.04419 -0.90601 -7.98379 -0.224357 0.0766835 -0.0879119 0 0 0 0 0 0 0 0 0 
26.982 1 385 24.6883 16.4005 4.29688 1.09571 -1.30267 3.26508 0.0577929 -0.177624 0.14695 0 0 0 0 0 0 0 0 0 
26.982 1 2023 22.2666 20.2753 2.39139 6.87095 -3.14472 -4.97581 0.465995 -0.0621819 0.0196843 0 0 0 0 0 0 0 0 0 
26.982 1 188 24.6167 18.3931 2.39317 0.0351476 0.157608 0.0108671 -0.0388971 -0.376051 -0.0697399 0 0 0 0 0 0 0 0 0 
26.982 1 187 26.9051 16.139 2.3246 1.44582 -0.0558013 1.28406 -0.25525 0.716407 0.253235 0 0 0 0 0 0 0 0 0 
26.982 1 386 26.9183 18.3135 4.16599 2.78916 4.00342 1.89915 -0.257395 -0.454686 0.808822 0 0 0 0 0 0 0 0 0 
26.982 1 192 29.1918 18.1987 2.43508 -0.312842 1.7809 0.490287 -0.202292 0.0748657 -0.468863 0 0 0 0 0 0 0 0 0 
26.982 1 389 28.91 16.2394 4.23739 -3.53154 -2.17285 -0.833463 0.469206 0.243894 0.450193 0 0 0 0 0 0 0 0 0 
26.982 1 2025 24.5882 20.3192 0.559688 1.13603 1.44584 -1.36567 -0.140388 -0.417213 -0.394003 0 0 0 0 0 0 0 0 0 
26.982 1 2027 26.8085 20.1613 2.35967 1.13997 -2.91111 -2.69434 0.235381 0.520334 -0.157895 0 0 0 0 0 0 0 0 0 
26.982 1 2225 24.7456 20.3844 4.28253 3.25188 3.33419 -1.70472 -0.0154261 -0.0621028 0.32124 0 0 0 0 0 0 0 0 0 
26.982 1 189 28.9951 16.13 0.537682 -0.148619 3.82259 0.969361 0.375879 0.372244 -0.00686262 0 0 0 0 0 0 0 0 0 
26.982 1 2229 28.93 20.2451 4.31003 2.27644 -7.93406 -0.415569 0.357773 0.252136 0.244467 0 0 0 0 0 0 0 0 0 
26.982 1 191 31.3406 16.1403 2.39886 -0.422045 2.08326 0.10592 -0.251455 0.659568 -0.143915 0 0 0 0 0 0 0 0 0 
26.982 1 390 31.2171 18.3337 4.34013 2.90552 4.89358 6.86342 0.0733647 -0.340091 0.14363 0 0 0 0 0 0 0 0 0 
26.982 1 196 33.4524 18.3086 2.41093 -0.765071 -0.847143 -5.852 0.111448 -0.146547 0.140608 0 0 0 0 0 0 0 0 0 
26.982 1 190 31.2815 18.3991 0.434966 -1.93647 2.18536 0.222741 0.104136 -0.289288 0.437926 0 0 0 0 0 0 0 0 0 
26.982 1 193 33.2984 16.5313 0.323529 3.50175 -2.39598 -2.35449 0.430345 -0.307247 0.162935 0 0 0 0 0 0 0 0 0 
26.982 1 393 33.3477 16.3473 4.40822 2.94419 0.609313 5.56481 0.320951 0.14997 0.0314743 0 0 0 0 0 0 0 0 0 
26.982 1 195 35.7253 16.3905 2.40459 3.26154 4.26623 2.57627 -0.348421 -0.055062 0.310107 0 0 0 0 0 0 0 0 0 
26.982 1 394 35.6265 18.4258 4.55795 1.12425 5.98933 -3.59628 -0.213462 -0.435261 -0.406848 0 0 0 0 0 0 0 0 0 
26.982 1 2237 37.7998 20.57 4.36759 -2.15109 2.74905 -1.85022 -0.0432607 -0.574028 0.546668 0 0 0 0 0 0 0 0 0 
26.982 1 397 37.8319 16.1922 4.40964 -4.00071 -0.649419 -1.07088 -0.159239 0.220689 0.240896 0 0 0 0 0 0 0 0 0 
26.982 1 200 37.7218 18.3467 2.69717 -0.492386 1.52179 1.33933 0.335304 0.0168596 -0.520032 0 0 0 0 0 0 0 0 0 
26.982 1 199 39.9059 16.4003 2.67375 2.03015 -2.01866 3.47409 0.546288 0.149478 -0.545384 0 0 0 0 0 0 0 0 0 
26.982 1 398 39.9049 18.5087 4.5198 -2.42867 0.798 2.83619 0.497718 -0.360565 0.105764 0 0 0 0 0 0 0 0 0 
26.982 1 243 0.244616 4.35915 6.31421 3.10803 -2.29314 -0.714248 0.376276 0.762403 0.101351 0 0 0 0 0 0 0 0 0 
26.982 1 402 0.271173 2.63692 8.30867 5.44704 -2.26176 2.262 0.187548 -0.196109 0.512138 0 0 0 0 0 0 0 0 0 
26.982 1 203 0.397764 0.55524 6.51621 -2.15446 -2.04445 6.31663 -0.0168845 0.401221 -0.422478 0 0 0 0 0 0 0 0 0 
26.982 1 204 -1.8854 2.5537 6.35795 -1.8578 2.9133 0.0360773 -0.166512 -0.293637 0.349385 0 0 0 0 0 0 0 0 0 
26.982 1 441 -1.82568 4.47551 8.3595 -0.2118 -1.09376 -1.88028 -0.268978 0.200471 0.242373 0 0 0 0 0 0 0 0 0 
26.982 1 405 2.67773 0.847808 8.55786 -0.205792 -4.54284 2.54681 -0.241466 -1.15459 -0.231877 0 0 0 0 0 0 0 0 0 
26.982 1 208 2.61311 2.36979 6.3991 1.26859 1.62866 -1.29261 -0.240717 0.790295 0.276766 0 0 0 0 0 0 0 0 0 
26.982 1 207 4.85497 0.576248 6.43241 5.95946 2.56868 0.556081 -0.231668 -0.0971967 0.106308 0 0 0 0 0 0 0 0 0 
26.982 1 445 2.56165 4.47132 8.44436 -2.81801 1.01764 -1.1101 -0.0940628 -0.133063 -0.803603 0 0 0 0 0 0 0 0 0 
26.982 1 247 4.71709 4.41519 6.30117 2.29009 -1.92073 -4.58567 -0.0354513 0.118804 0.456152 0 0 0 0 0 0 0 0 0 
26.982 1 406 4.67339 2.59079 8.44893 1.2016 -2.39107 0.34052 0.732873 -0.150681 -0.130504 0 0 0 0 0 0 0 0 0 
26.982 1 449 6.98458 4.58417 8.2332 -0.986042 2.74154 -0.190645 -0.161815 -0.251259 0.729724 0 0 0 0 0 0 0 0 0 
26.982 1 212 7.14334 2.54883 6.34846 0.682168 0.263926 -0.30433 -0.633782 -0.224571 0.164649 0 0 0 0 0 0 0 0 0 
26.982 1 251 9.16342 4.58706 6.37662 7.46345 0.558584 -5.09867 0.228991 -0.393724 -0.341237 0 0 0 0 0 0 0 0 0 
26.982 1 410 9.12575 2.54667 8.27067 -2.81912 2.09417 0.00121556 0.371734 -0.367584 0.089564 0 0 0 0 0 0 0 0 0 
26.982 1 216 11.2483 2.41925 6.28522 0.624629 3.34388 3.5393 0.00423603 -0.0751228 -0.0789344 0 0 0 0 0 0 0 0 0 
26.982 1 453 11.4168 4.45512 8.10034 -4.23194 -1.5212 0.441728 -0.0638786 -0.00049889 0.578874 0 0 0 0 0 0 0 0 0 