ITEM: TIMESTEP
4700
ITEM: NUMBER OF ATOMS
4000
ITEM: BOX BOUNDS pp pp pp
-1.02943 41.5294
0.244146 40.2559
0.265639 40.2344
ITEM: ATOMS mass type id x y z vx vy vz fx fy fz xrad yrad zrad vxrad vyrad vzrad fxrad fyrad fzrad 
26.982 1 3 1.07758 0.154257 2.25701 -0.589034 -4.68158 1.7798 -0.0742536 0.362819 -0.0229625 0 0 0 0 0 0 0 0 0 
26.982 1 8 3.37298 2.23762 2.29579 2.52704 3.25153 -0.213411 -0.471254 0.049956 0.242433 0 0 0 0 0 0 0 0 0 
26.982 1 43 1.1352 4.28879 2.27178 -2.60602 -4.53364 -3.27394 0.105271 0.122638 0.49245 0 0 0 0 0 0 0 0 0 
26.982 1 202 1.094 2.25987 4.31852 -1.1209 1.58755 -2.97933 -0.115717 -0.261279 -0.7082 0 0 0 0 0 0 0 0 0 
26.982 1 245 3.17939 4.3288 4.21918 -1.08761 -0.977244 -3.87715 0.363061 -0.299281 -0.311309 0 0 0 0 0 0 0 0 0 
26.982 1 2 0.988562 2.57328 0.461432 2.85032 1.46354 2.55273 0.38634 -1.24437 -0.911304 0 0 0 0 0 0 0 0 0 
26.982 1 205 3.01737 0.206146 4.20596 3.16262 -2.86932 3.7541 0.538174 0.349706 0.413364 0 0 0 0 0 0 0 0 0 
26.982 1 41 -1.02241 4.36822 0.333457 3.52347 -2.9357 3.46035 -0.397532 -0.385387 -0.264051 0 0 0 0 0 0 0 0 0 
26.982 1 47 5.31629 4.19125 2.27113 -0.762516 3.33928 0.768477 0.491982 -0.0303316 0.234273 0 0 0 0 0 0 0 0 0 
26.982 1 206 5.39589 2.20397 4.29722 0.25994 -0.0132863 0.757605 -0.506144 0.000833542 -0.262185 0 0 0 0 0 0 0 0 0 
26.982 1 45 3.46024 4.20476 0.284988 -1.71888 -3.01614 -1.31749 -0.429384 0.135118 -0.114679 0 0 0 0 0 0 0 0 0 
26.982 1 6 5.54585 2.19779 0.384269 2.82562 3.41083 -0.0306366 -0.257734 0.198498 -0.394032 0 0 0 0 0 0 0 0 0 
26.982 1 12 7.49031 2.10871 2.31832 3.47714 2.5088 0.471672 -0.011945 0.436747 -0.144356 0 0 0 0 0 0 0 0 0 
26.982 1 249 7.38681 4.15938 4.31473 -1.15627 1.45193 2.75666 0.200423 0.285045 -0.0541676 0 0 0 0 0 0 0 0 0 
26.982 1 51 9.57958 4.24071 2.30993 -4.43521 0.452798 -0.385354 0.0461436 -0.221037 -0.250348 0 0 0 0 0 0 0 0 0 
26.982 1 210 9.50638 2.27714 4.30643 -4.88769 1.24691 1.49791 0.265395 0.402281 0.232191 0 0 0 0 0 0 0 0 0 
26.982 1 11 9.61684 0.339856 2.42058 1.29971 3.81037 0.912139 0.00344606 -0.843297 -0.103235 0 0 0 0 0 0 0 0 0 
26.982 1 53 11.7444 4.13524 0.182332 -4.66899 -1.27997 -2.28734 0.0527933 0.0750494 0.701695 0 0 0 0 0 0 0 0 0 
26.982 1 10 9.6701 2.04168 0.383642 -1.61332 -4.60072 3.36838 0.0637969 0.393225 -0.514784 0 0 0 0 0 0 0 0 0 
26.982 1 16 11.7094 2.18613 2.34136 2.32332 4.16623 0.254335 0.0229063 0.515396 -0.318018 0 0 0 0 0 0 0 0 0 
26.982 1 15 13.753 0.293852 2.23824 3.19678 -2.73188 -3.47418 0.395815 -0.266976 -0.211346 0 0 0 0 0 0 0 0 0 
26.982 1 253 11.6071 4.33853 4.18529 0.476541 -2.03396 2.71765 0.314366 -0.693779 0.399442 0 0 0 0 0 0 0 0 0 
26.982 1 55 13.9661 4.16334 2.26791 1.55791 6.41128 -3.9355 -0.269548 0.304199 -0.335754 0 0 0 0 0 0 0 0 0 
26.982 1 214 13.8154 2.36973 4.28438 -0.136676 -0.700789 0.80709 -0.0389947 -0.145987 0.183724 0 0 0 0 0 0 0 0 0 
26.982 1 20 15.9299 2.18159 2.25883 0.150377 1.51568 -2.60605 0.254673 0.342749 -0.349574 0 0 0 0 0 0 0 0 0 
26.982 1 257 16.1069 4.18643 4.32484 -4.0547 -3.55609 2.00253 -0.498983 0.147571 -0.0961088 0 0 0 0 0 0 0 0 0 
26.982 1 19 18.0525 0.256 2.19538 2.27083 5.57173 -1.84728 0.174902 0.367894 -0.325592 0 0 0 0 0 0 0 0 0 
26.982 1 218 18.2235 2.33511 4.22264 4.77618 0.898638 7.55071 0.0805324 -0.333054 -0.282552 0 0 0 0 0 0 0 0 0 
26.982 1 18 18.1294 2.24113 0.0808464 -0.525689 -3.06232 -6.87167 -0.0327947 0.0114879 0.141753 0 0 0 0 0 0 0 0 0 
26.982 1 59 18.1738 4.21183 2.1648 -0.812759 2.36072 0.423103 0.123975 0.00888409 -0.0155814 0 0 0 0 0 0 0 0 0 
26.982 1 57 16.1019 4.04972 0.284132 -0.672854 -4.31501 -2.76553 -0.376505 0.410864 -0.524252 0 0 0 0 0 0 0 0 0 
26.982 1 24 20.2817 2.17195 2.0615 -4.13414 -6.2456 -1.42265 -0.00455735 0.158421 0.278144 0 0 0 0 0 0 0 0 0 
26.982 1 63 22.4956 4.20798 2.29069 -1.19498 3.94983 -1.35285 -0.549264 -0.381552 -0.466404 0 0 0 0 0 0 0 0 0 
26.982 1 222 22.4284 2.16691 4.25186 4.80897 4.24411 -3.10576 -0.0134949 0.00139853 -0.449805 0 0 0 0 0 0 0 0 0 
26.982 1 261 20.2538 4.33531 4.12159 -1.81557 -1.92437 1.53448 -0.0830292 -0.381537 0.0926213 0 0 0 0 0 0 0 0 0 
26.982 1 23 22.3493 0.160874 2.1187 -1.79479 0.0980788 -1.89037 0.0835614 0.20172 0.197518 0 0 0 0 0 0 0 0 0 
26.982 1 61 20.2785 4.18582 0.056485 5.01395 0.536596 1.91228 0.147101 0.0541433 0.207509 0 0 0 0 0 0 0 0 0 
26.982 1 22 22.3991 2.25413 0.152567 0.624544 -1.52607 3.95153 -0.116425 -0.241748 0.203764 0 0 0 0 0 0 0 0 0 
26.982 1 28 24.7166 2.2038 2.07822 -0.850946 -0.653415 0.833265 -0.654156 0.132527 0.184571 0 0 0 0 0 0 0 0 0 
26.982 1 27 26.7331 0.0494454 2.32451 -1.30964 2.03138 0.799835 0.126223 0.529347 -0.360124 0 0 0 0 0 0 0 0 0 
26.982 1 67 26.6934 4.16254 2.19082 -3.21465 0.374093 -0.0788585 -0.0251537 0.59289 0.291651 0 0 0 0 0 0 0 0 0 
26.982 1 226 26.516 2.37566 4.33577 -0.943559 3.93138 -2.29118 0.954494 -0.131311 -0.282848 0 0 0 0 0 0 0 0 0 
26.982 1 265 24.4275 4.21394 4.15075 0.176342 -0.238122 0.76029 0.420471 0.243201 0.325084 0 0 0 0 0 0 0 0 0 
26.982 1 65 24.3481 4.41473 0.243024 -1.48349 -0.889041 -2.65149 0.476387 -0.651965 -0.324273 0 0 0 0 0 0 0 0 0 
26.982 1 32 28.6849 2.11741 2.32782 -0.323515 -1.34254 -0.902226 0.337231 0.461023 0.294619 0 0 0 0 0 0 0 0 0 
26.982 1 71 30.9035 4.1977 2.34709 -6.95583 3.89584 -1.74778 -0.266275 -0.0502697 -0.0684802 0 0 0 0 0 0 0 0 0 
26.982 1 230 30.9088 2.1925 4.40546 0.570587 -2.03991 3.0888 -0.123778 0.285803 -0.00398778 0 0 0 0 0 0 0 0 0 
26.982 1 269 28.8226 4.39669 4.35325 1.56222 1.56404 0.110762 -0.0882285 -0.407191 -0.502051 0 0 0 0 0 0 0 0 0 
26.982 1 273 32.9388 4.2724 4.39911 -0.932101 -0.921673 -0.660293 0.314952 -0.260297 -0.149975 0 0 0 0 0 0 0 0 0 
26.982 1 229 28.8524 0.25296 4.44851 -3.35265 -2.16779 -1.02383 -0.593171 0.2057 -0.347326 0 0 0 0 0 0 0 0 0 
26.982 1 31 30.9223 0.282595 2.45453 -1.95894 0.824132 -0.256611 -0.256746 0.108162 -0.456034 0 0 0 0 0 0 0 0 0 
26.982 1 36 33.1516 2.11366 2.36309 2.46614 2.7539 -0.724491 -0.53877 0.846042 -0.230335 0 0 0 0 0 0 0 0 0 
26.982 1 35 35.2157 0.440494 2.43818 1.65763 2.51843 -1.0328 0.0764332 -1.08283 -0.380513 0 0 0 0 0 0 0 0 0 
26.982 1 75 35.1579 4.2454 2.19414 0.835191 -0.223467 -0.580907 -0.115422 0.200401 0.742457 0 0 0 0 0 0 0 0 0 
26.982 1 234 35.2227 2.2591 4.29582 -3.31873 -0.295392 -1.07675 -0.0751713 0.480951 0.338319 0 0 0 0 0 0 0 0 0 
26.982 1 34 35.2171 2.23986 0.346777 -2.69897 -0.595923 -2.85385 -0.308356 -0.254394 -0.47126 0 0 0 0 0 0 0 0 0 
26.982 1 233 33.0529 0.334878 4.28715 1.12149 -1.07517 1.83171 0.0510877 -0.313802 0.566361 0 0 0 0 0 0 0 0 0 
26.982 1 237 37.3796 0.437433 4.22334 7.00607 2.97471 4.69442 -0.34718 -0.63778 0.352851 0 0 0 0 0 0 0 0 0 
26.982 1 277 37.3246 4.34367 4.29866 -0.0442242 0.921494 3.23048 -0.246319 0.136626 -0.00668312 0 0 0 0 0 0 0 0 0 
26.982 1 77 37.0865 4.20767 0.291348 0.476761 -0.651258 -2.31105 0.682801 0.260613 -0.434593 0 0 0 0 0 0 0 0 0 
26.982 1 241 41.4934 4.10254 4.15654 1.29946 1.03176 -0.0801374 0.0890207 0.79653 0.0153942 0 0 0 0 0 0 0 0 0 
26.982 1 4 41.4055 2.18884 2.20987 -1.0939 2.13466 -2.20089 0.151092 0.119756 0.104455 0 0 0 0 0 0 0 0 0 
26.982 1 40 37.3758 2.38915 2.28819 -4.38054 3.6817 -6.09417 -0.173359 0.00802975 0.0999787 0 0 0 0 0 0 0 0 0 
26.982 1 79 39.4443 4.37938 2.23878 -1.74533 0.0152568 3.10478 -0.136495 -0.21209 0.147647 0 0 0 0 0 0 0 0 0 
26.982 1 238 39.288 2.38334 4.22069 7.4671 -7.24385 0.43455 0.316793 -0.200615 0.346546 0 0 0 0 0 0 0 0 0 
26.982 1 38 39.2669 2.37846 0.24 -0.267487 -0.725628 -1.91463 0.5506 0.24397 0.240209 0 0 0 0 0 0 0 0 0 
26.982 1 83 0.991614 8.28582 2.12778 -0.927079 2.56306 0.938779 0.752356 -0.067228 -0.0966223 0 0 0 0 0 0 0 0 0 
26.982 1 242 1.03143 6.30715 4.03071 1.08508 -0.045902 -0.567461 0.219208 0.00668409 0.92191 0 0 0 0 0 0 0 0 0 
26.982 1 281 -1.16595 8.1396 4.1428 -0.894087 -4.4898 0.404882 0.305606 0.313228 0.748369 0 0 0 0 0 0 0 0 0 
26.982 1 285 3.23087 8.13408 4.07731 1.57782 1.60682 -0.947652 -0.137305 0.53466 0.344252 0 0 0 0 0 0 0 0 0 
26.982 1 42 1.09864 6.10038 0.174114 -4.88976 4.60288 -2.08638 0.505835 0.30384 -0.0161133 0 0 0 0 0 0 0 0 0 
26.982 1 81 -0.953681 8.22779 0.1434 5.01981 -0.133848 2.83236 -0.0624864 -0.490212 0.545502 0 0 0 0 0 0 0 0 0 
26.982 1 48 3.30721 6.23766 2.14824 -0.311283 -1.17433 5.01303 -0.325271 0.021343 -0.0805506 0 0 0 0 0 0 0 0 0 
26.982 1 46 5.49776 6.22643 0.385941 -1.86246 -1.23883 -0.334922 0.0283695 0.191729 -0.617742 0 0 0 0 0 0 0 0 0 
26.982 1 87 5.44317 8.33944 2.22679 3.72179 -0.567671 -1.92926 -0.167774 -0.213771 -0.160426 0 0 0 0 0 0 0 0 0 
26.982 1 246 5.31184 6.25987 4.13455 1.61149 -1.98479 0.560749 0.177684 -0.0852665 0.436034 0 0 0 0 0 0 0 0 0 
26.982 1 85 3.21459 8.12166 0.113946 0.152012 3.87008 -2.30011 -0.343152 0.0778956 0.0878321 0 0 0 0 0 0 0 0 0 
26.982 1 52 7.3533 6.26824 2.33158 1.83726 -5.68217 0.9775 0.589884 -0.207871 -0.289486 0 0 0 0 0 0 0 0 0 
26.982 1 289 7.44439 8.19822 4.29665 -2.29932 6.58181 0.418715 0.0519064 0.157338 0.0912664 0 0 0 0 0 0 0 0 0 
26.982 1 56 11.9191 6.21159 2.36186 3.18693 2.18929 3.55176 -0.493082 0.260126 -0.522082 0 0 0 0 0 0 0 0 0 
26.982 1 91 9.41519 8.28985 2.29114 -2.44078 -3.70358 1.84197 0.419884 -0.469509 -0.245617 0 0 0 0 0 0 0 0 0 
26.982 1 250 9.53351 6.14383 4.20772 4.23496 -4.79506 -1.35803 0.246193 0.505315 0.0471802 0 0 0 0 0 0 0 0 0 
26.982 1 50 9.7583 6.3453 0.433856 1.83141 2.03366 -3.92435 -0.278612 -0.271341 -0.419074 0 0 0 0 0 0 0 0 0 
26.982 1 290 9.45764 10.109 4.16225 -1.97296 4.50179 2.32512 0.323644 0.812258 0.808985 0 0 0 0 0 0 0 0 0 
26.982 1 89 7.49725 8.50201 0.11821 -2.88368 5.4431 0.670231 -0.105079 -0.70688 0.421403 0 0 0 0 0 0 0 0 0 
26.982 1 293 11.71 8.42931 4.43042 1.51816 -0.274731 2.75003 -0.0382817 -1.06521 -0.543135 0 0 0 0 0 0 0 0 0 
26.982 1 95 13.7404 8.25023 2.04546 0.800811 -2.08878 -2.01266 0.710852 0.164607 0.774701 0 0 0 0 0 0 0 0 0 
26.982 1 254 13.8819 6.13418 4.24709 -1.50551 2.77187 -2.67672 0.0575229 0.0753143 0.239907 0 0 0 0 0 0 0 0 0 
26.982 1 60 16.0993 6.09442 2.26809 -2.82353 -1.25925 -2.12919 -0.0827482 0.347871 -0.226525 0 0 0 0 0 0 0 0 0 
26.982 1 93 11.8443 8.16379 0.167002 -2.5482 -1.09234 -2.33081 -0.402122 0.343781 -0.0808941 0 0 0 0 0 0 0 0 0 
26.982 1 54 14.1316 6.40064 0.289662 1.93671 3.76014 4.35531 -0.450662 -1.14382 -0.0884736 0 0 0 0 0 0 0 0 0 
26.982 1 297 15.8503 8.10959 4.22766 4.19224 -5.23723 2.22808 0.149653 0.18824 -0.263365 0 0 0 0 0 0 0 0 0 
26.982 1 99 18.2541 8.11162 2.14793 4.11889 -0.465598 -4.06551 -0.331571 -0.0513536 0.0831229 0 0 0 0 0 0 0 0 0 
26.982 1 258 18.0395 6.26497 4.24711 -1.58117 -5.14075 -1.11328 0.259722 -0.0534334 -0.0747859 0 0 0 0 0 0 0 0 0 
26.982 1 298 18.0285 10.089 4.2286 1.2196 1.69487 -0.977374 0.377026 0.294809 -0.136922 0 0 0 0 0 0 0 0 0 
26.982 1 58 18.1852 6.14359 -0.0251354 -1.461 -1.61014 2.75317 -0.0241833 0.0622498 0.633138 0 0 0 0 0 0 0 0 0 
26.982 1 301 20.1786 8.24752 4.31438 -4.31871 -1.12206 4.20667 0.176351 -0.0570694 -0.285136 0 0 0 0 0 0 0 0 0 
26.982 1 101 20.2359 8.24562 0.0718215 -4.61778 -0.566041 -1.54788 0.16014 -0.0977627 0.0290619 0 0 0 0 0 0 0 0 0 
26.982 1 64 20.3299 6.1801 2.02824 -1.29144 1.38861 -1.21379 -0.235242 0.061385 0.263322 0 0 0 0 0 0 0 0 0 
26.982 1 103 22.2996 8.22053 2.17815 -0.84848 1.07247 -0.97775 -0.307753 0.0687494 -0.196448 0 0 0 0 0 0 0 0 0 
26.982 1 262 22.2588 6.16222 4.16822 -5.1846 1.60134 0.75017 0.166653 0.315656 0.12469 0 0 0 0 0 0 0 0 0 
26.982 1 105 24.2355 8.17633 0.148307 3.73893 -4.15653 2.22285 0.545744 0.606627 0.273363 0 0 0 0 0 0 0 0 0 
26.982 1 305 24.2718 8.19372 4.03505 1.72741 -1.46635 1.12037 0.883257 -0.0747994 0.373029 0 0 0 0 0 0 0 0 0 
26.982 1 62 22.3943 6.25141 0.142636 0.83778 -2.09035 4.74264 -0.754117 -0.132031 -0.250595 0 0 0 0 0 0 0 0 0 
26.982 1 68 24.4192 6.20103 2.14467 -5.31221 -3.21469 -0.7712 0.341868 0.363571 0.605863 0 0 0 0 0 0 0 0 0 
26.982 1 107 26.6232 8.33956 2.20058 2.71756 1.89671 2.20477 -0.505408 -0.54618 0.146973 0 0 0 0 0 0 0 0 0 
26.982 1 266 26.6022 6.23245 4.29182 -2.476 -3.42244 -4.49912 -0.11184 0.232317 -0.776203 0 0 0 0 0 0 0 0 0 
26.982 1 309 28.6742 8.39889 4.15237 -2.29578 1.13032 -0.357799 0.260292 -0.45262 0.156311 0 0 0 0 0 0 0 0 0 
26.982 1 106 26.4007 10.1665 0.24424 0.550197 0.213186 -0.301802 0.269491 0.50589 -0.176686 0 0 0 0 0 0 0 0 0 
26.982 1 109 28.6907 8.29057 0.260813 0.0996638 2.72507 -4.6827 0.0430354 -0.0208679 -0.103779 0 0 0 0 0 0 0 0 0 
26.982 1 72 28.7416 6.34973 2.2799 -3.13499 -4.16532 0.56402 -0.153036 -0.414978 0.0224989 0 0 0 0 0 0 0 0 0 
26.982 1 111 30.8767 8.20218 2.18857 0.0713875 -0.279389 4.75197 0.0424425 0.536354 0.420031 0 0 0 0 0 0 0 0 0 
26.982 1 270 30.9113 6.27754 4.31692 -1.26427 1.81125 -2.74238 -0.230041 0.103321 -0.0106895 0 0 0 0 0 0 0 0 0 
26.982 1 313 32.8703 8.2685 4.33388 3.51008 -0.895013 -3.31369 0.194214 0.309753 -0.383364 0 0 0 0 0 0 0 0 0 
26.982 1 116 32.9373 10.2416 2.2777 2.88104 0.0550216 -0.988909 0.249148 -0.0774146 -0.10215 0 0 0 0 0 0 0 0 0 
26.982 1 110 30.855 10.3751 0.295177 -2.82365 -0.996575 -1.3925 -0.120826 -0.0657607 0.0770418 0 0 0 0 0 0 0 0 0 
26.982 1 76 32.8854 6.11049 2.30264 6.33121 0.536055 2.19176 0.428636 0.399946 -0.266133 0 0 0 0 0 0 0 0 0 
26.982 1 115 35.2345 8.23796 2.09937 -1.19473 -1.69992 -2.17769 -0.77394 0.180919 0.607551 0 0 0 0 0 0 0 0 0 
26.982 1 274 35.0034 6.30655 4.17388 4.66957 5.54036 3.13456 0.434786 -0.178868 -0.104391 0 0 0 0 0 0 0 0 0 
26.982 1 120 37.2701 10.3057 2.26824 -0.277597 0.823005 -3.23945 0.199433 -0.105854 -0.147806 0 0 0 0 0 0 0 0 0 
26.982 1 44 41.6357 6.34517 2.2269 -2.85629 1.84186 -2.45119 -0.496126 -0.391464 -0.136447 0 0 0 0 0 0 0 0 0 
26.982 1 117 37.1964 8.28611 0.281458 5.82466 3.0086 -2.91149 0.615494 0.17133 -0.465341 0 0 0 0 0 0 0 0 0 
26.982 1 80 37.2822 6.28824 2.19722 -0.133642 0.729959 -6.68781 -0.00150973 -0.342297 0.282406 0 0 0 0 0 0 0 0 0 
26.982 1 119 39.3283 8.20719 2.28385 2.99541 3.03341 3.21817 0.122042 0.218923 0.0457116 0 0 0 0 0 0 0 0 0 
26.982 1 278 39.4067 6.27504 4.36612 -0.388075 -2.34758 3.91219 -0.107384 -0.398078 -0.307499 0 0 0 0 0 0 0 0 0 
26.982 1 317 37.2061 8.23418 4.14642 0.877994 -6.76009 0.734901 -0.0307476 -0.0599035 0.341282 0 0 0 0 0 0 0 0 0 
26.982 1 78 39.4872 6.28912 0.386853 -4.29186 -0.396096 0.949472 -0.225985 0.164951 -0.478149 0 0 0 0 0 0 0 0 0 
26.982 1 123 0.930429 12.3876 2.25635 2.3055 0.943958 0.526805 0.422616 -1.08118 0.47806 0 0 0 0 0 0 0 0 0 
26.982 1 128 3.0384 14.161 2.30849 4.27544 -0.990821 1.20636 0.3768 0.394923 -0.125985 0 0 0 0 0 0 0 0 0 
26.982 1 282 1.16962 10.1705 4.14753 4.6205 -1.8489 4.24771 -0.170199 0.144677 -0.0394935 0 0 0 0 0 0 0 0 0 
26.982 1 322 1.03804 14.2763 4.3875 -3.14748 2.13196 -4.50368 -0.0941681 -0.0260946 -0.41449 0 0 0 0 0 0 0 0 0 
26.982 1 84 -1.01957 10.127 2.33223 -2.36182 -3.58506 -2.04874 -0.312664 0.498862 -0.0472897 0 0 0 0 0 0 0 0 0 
26.982 1 124 -1.13645 14.0414 2.17531 -0.794519 3.13896 -3.02855 0.109738 0.977877 0.262381 0 0 0 0 0 0 0 0 0 
26.982 1 82 0.989063 10.2479 0.139031 -1.92566 -3.47725 -3.96403 0.636351 -0.159076 0.304166 0 0 0 0 0 0 0 0 0 
26.982 1 86 5.15107 10.0576 0.0756287 -0.609178 -0.19091 3.08125 0.649695 0.451847 0.545912 0 0 0 0 0 0 0 0 0 
26.982 1 286 5.34081 10.2552 4.17768 -1.97233 -3.28609 -0.855293 -0.156328 -0.000541521 0.462149 0 0 0 0 0 0 0 0 0 
26.982 1 88 3.29779 10.1571 2.07631 -8.2025 -1.13725 -1.02366 -0.544596 -0.286806 0.556786 0 0 0 0 0 0 0 0 0 
26.982 1 125 3.26815 12.1023 0.347212 3.94856 -2.27344 3.91023 -0.605863 0.44038 -0.561404 0 0 0 0 0 0 0 0 0 
26.982 1 325 3.16718 12.148 4.20534 -2.53594 -1.17002 2.25668 0.185145 0.482295 -0.112665 0 0 0 0 0 0 0 0 0 
26.982 1 127 5.24153 12.2064 2.11937 -2.44174 -6.65971 3.1854 0.365278 0.10846 0.500506 0 0 0 0 0 0 0 0 0 
26.982 1 326 5.22257 14.3427 4.21821 2.28503 -1.30476 1.07051 0.101958 -0.671995 0.239932 0 0 0 0 0 0 0 0 0 
26.982 1 132 7.39975 14.3161 2.28008 0.931148 3.98316 -0.994228 -0.0235327 -0.289751 -0.158032 0 0 0 0 0 0 0 0 0 
26.982 1 130 9.70898 14.3507 0.330021 -6.83006 4.59626 0.728565 -0.530334 -0.544675 -0.517521 0 0 0 0 0 0 0 0 0 
26.982 1 92 7.43615 10.3064 2.32858 0.520071 -3.03102 0.959661 -0.1053 -0.173602 -0.49043 0 0 0 0 0 0 0 0 0 
26.982 1 329 7.35116 12.2298 4.17346 1.50164 -3.8159 -2.14053 0.0959111 0.276009 0.563448 0 0 0 0 0 0 0 0 0 
26.982 1 131 9.57586 12.3334 2.22854 -4.74608 -1.93938 -1.0551 0.0745748 -0.169061 0.423854 0 0 0 0 0 0 0 0 0 
26.982 1 330 9.33133 14.2014 4.3882 -0.981093 4.19557 2.34851 0.456131 0.0425703 -0.0913395 0 0 0 0 0 0 0 0 0 
26.982 1 90 9.61358 10.294 0.312077 2.19344 -3.96452 1.97173 -0.0709088 -0.101159 -0.156078 0 0 0 0 0 0 0 0 0 
26.982 1 129 7.46307 12.2077 0.35013 -1.17143 -0.791194 -1.02412 -0.15908 0.0445134 -0.274762 0 0 0 0 0 0 0 0 0 
26.982 1 96 11.6247 10.0958 2.30634 -3.58334 -4.18429 -3.9878 0.0853472 0.522344 -0.297383 0 0 0 0 0 0 0 0 0 
26.982 1 294 13.8163 10.027 4.05275 -4.02127 1.4936 0.769715 0.314771 0.615908 0.756288 0 0 0 0 0 0 0 0 0 
26.982 1 136 11.653 14.2381 2.41728 -2.91013 -3.05154 -4.25125 0.384464 -0.00716735 -0.0994052 0 0 0 0 0 0 0 0 0 
26.982 1 333 11.7137 12.2099 4.35938 2.42727 1.42854 2.77698 0.0449127 -0.367385 -0.634055 0 0 0 0 0 0 0 0 0 
26.982 1 135 14.0404 12.1236 2.32349 0.308121 4.62863 -2.65675 -0.56522 0.30622 -0.194885 0 0 0 0 0 0 0 0 0 
26.982 1 140 15.8943 14.274 2.17752 -3.38539 -4.88536 3.14294 0.352722 -0.296503 0.301741 0 0 0 0 0 0 0 0 0 
26.982 1 334 13.932 14.2882 4.17192 3.48016 -4.50606 1.63883 -0.360875 -0.310946 0.252805 0 0 0 0 0 0 0 0 0 
26.982 1 100 16.1126 10.224 2.29534 0.618877 1.49048 -4.00757 -0.31947 -0.459794 -0.365766 0 0 0 0 0 0 0 0 0 
26.982 1 337 16.066 12.1268 4.41625 -1.71752 -1.89917 -0.755264 -0.229969 0.331466 -0.383371 0 0 0 0 0 0 0 0 0 
26.982 1 139 18.0704 12.2866 2.31007 6.35921 3.59742 -2.01975 -0.227779 0.0174125 -0.362516 0 0 0 0 0 0 0 0 0 
26.982 1 144 20.1797 14.2632 2.15473 1.03768 6.1586 0.377452 0.122935 0.373393 -0.0882118 0 0 0 0 0 0 0 0 0 
26.982 1 338 18.2306 14.3488 4.24446 1.93931 -3.25167 -5.42616 -0.61328 0.151442 -0.00645249 0 0 0 0 0 0 0 0 0 
26.982 1 341 20.0398 12.3831 4.10172 0.682642 -7.40355 6.56998 0.62194 -0.71542 0.376483 0 0 0 0 0 0 0 0 0 
26.982 1 138 18.0493 14.2785 0.261152 0.898242 2.1019 3.08812 0.261248 -0.266153 -0.12199 0 0 0 0 0 0 0 0 0 
26.982 1 141 20.2934 12.1929 0.0894956 -3.37498 2.0676 0.830045 -0.272935 0.273137 0.169189 0 0 0 0 0 0 0 0 0 
26.982 1 302 22.3485 10.2415 4.09397 0.56705 3.47194 0.762151 -0.470931 0.0914271 0.431699 0 0 0 0 0 0 0 0 0 
26.982 1 142 22.3508 14.2766 0.266498 8.82817 -3.43063 -3.42363 -0.259086 0.299879 -0.218777 0 0 0 0 0 0 0 0 0 
26.982 1 104 20.1966 10.2131 2.17567 4.16925 -2.94597 -0.83442 0.247337 0.139628 0.299252 0 0 0 0 0 0 0 0 0 
26.982 1 143 22.2607 12.351 2.2912 0.676896 -2.77048 1.17016 0.0272983 -0.201574 -0.313391 0 0 0 0 0 0 0 0 0 
26.982 1 342 22.2129 14.2984 4.30878 0.708868 -2.55469 2.79599 0.361998 0.345409 -0.216935 0 0 0 0 0 0 0 0 0 
26.982 1 108 24.3363 10.2953 2.23657 2.62763 1.6897 1.54347 0.310687 0.123308 -0.453418 0 0 0 0 0 0 0 0 0 
26.982 1 148 24.466 14.3243 2.28047 3.97544 -1.11814 -0.284561 0.0653624 -0.19761 -0.0342664 0 0 0 0 0 0 0 0 0 
26.982 1 345 24.2155 12.2277 4.29545 -0.313474 -2.1519 1.77824 0.618098 0.150944 -0.271747 0 0 0 0 0 0 0 0 0 
26.982 1 306 26.5433 10.2289 4.13515 -1.52941 -4.46794 -0.169455 -0.477936 -0.035753 0.290702 0 0 0 0 0 0 0 0 0 
26.982 1 112 28.6639 10.2685 2.22342 3.41507 -0.548505 0.812852 0.565254 0.0879476 -0.229502 0 0 0 0 0 0 0 0 0 
26.982 1 147 26.6993 12.1806 2.17893 -2.53148 -1.19186 1.81242 -0.879113 0.358679 -0.0927924 0 0 0 0 0 0 0 0 0 
26.982 1 346 26.565 14.2026 4.13375 -3.6937 0.566217 0.781125 -0.187927 0.279124 0.486332 0 0 0 0 0 0 0 0 0 
26.982 1 152 28.7137 14.2873 2.36306 7.67282 -3.32814 2.79938 0.233984 0.258671 -0.297901 0 0 0 0 0 0 0 0 0 
26.982 1 349 28.5863 12.2112 4.19801 3.12773 6.56292 3.11902 0.193112 -0.017603 0.373675 0 0 0 0 0 0 0 0 0 
26.982 1 149 28.675 12.3254 0.323395 3.33227 3.85054 3.58484 0.31857 -0.363487 -0.231877 0 0 0 0 0 0 0 0 0 
26.982 1 151 30.8165 12.4398 2.42487 1.75271 3.68163 2.8511 0.225429 -0.371007 -0.715892 0 0 0 0 0 0 0 0 0 
26.982 1 310 30.8275 10.3842 4.3222 -3.56608 1.15034 -0.273409 0.161177 -0.39227 -0.129264 0 0 0 0 0 0 0 0 0 
26.982 1 350 30.7959 14.1364 4.45275 2.90133 -0.768095 -6.30243 0.262678 0.486083 -0.433098 0 0 0 0 0 0 0 0 0 
26.982 1 155 35.2154 12.1708 2.14814 -0.914764 -0.074034 0.468042 -0.299808 0.287542 0.229118 0 0 0 0 0 0 0 0 0 
26.982 1 156 33.2017 14.3546 2.43402 -4.30244 -1.83871 0.230783 -0.642542 0.124487 -0.565482 0 0 0 0 0 0 0 0 0 
26.982 1 314 35.2463 10.2657 4.2847 3.01927 -5.23317 2.00584 -0.398194 -0.0177702 -0.28734 0 0 0 0 0 0 0 0 0 
26.982 1 353 33.0617 12.3135 4.16821 -2.95934 5.48381 1.81679 -0.00750771 -0.360002 0.490544 0 0 0 0 0 0 0 0 0 
26.982 1 354 35.1416 14.2706 4.22482 2.39928 0.00719588 2.11082 0.436617 0.117645 0.12076 0 0 0 0 0 0 0 0 0 
26.982 1 160 37.3176 14.2744 2.12966 -4.76385 -5.09487 -3.03461 -0.175984 0.096723 0.326549 0 0 0 0 0 0 0 0 0 
26.982 1 357 37.3095 12.3884 4.167 3.63541 0.983698 -1.23356 -0.489198 -0.233405 -0.0092144 0 0 0 0 0 0 0 0 0 
26.982 1 157 37.3717 12.1943 0.231953 0.61658 2.97352 6.60881 -0.198923 -0.092395 -0.228565 0 0 0 0 0 0 0 0 0 
26.982 1 321 41.453 12.3209 4.31679 -0.609377 0.14811 6.1793 0.20098 -0.0987524 -0.205659 0 0 0 0 0 0 0 0 0 
26.982 1 318 39.2304 10.2894 4.31504 -3.97982 -6.56558 4.66685 0.608704 -0.203788 -0.553446 0 0 0 0 0 0 0 0 0 
26.982 1 159 39.4235 12.3008 2.29198 4.62186 2.0312 -2.91916 -0.181014 -0.603314 -0.0743746 0 0 0 0 0 0 0 0 0 
26.982 1 358 39.2668 14.347 4.29501 -0.934907 0.103104 -3.83225 0.469683 0.192439 -0.373673 0 0 0 0 0 0 0 0 0 
26.982 1 118 39.4533 10.0389 0.256763 -0.683988 -2.12427 -1.04643 -0.381278 0.594656 0.282846 0 0 0 0 0 0 0 0 0 
26.982 1 163 1.07628 16.3059 2.40552 4.79968 2.27459 1.5491 0.0273649 -0.333156 -0.244039 0 0 0 0 0 0 0 0 0 
26.982 1 168 3.14196 18.2412 2.32602 0.634106 7.17403 2.39511 -0.114819 -0.0456796 -0.321298 0 0 0 0 0 0 0 0 0 
26.982 1 361 -1.05795 16.1487 4.32282 -0.327794 0.532542 -7.64392 -0.0441361 0.199039 -0.350773 0 0 0 0 0 0 0 0 0 
26.982 1 362 0.985981 18.2893 4.34335 -2.73828 -0.0961609 -0.52524 0.225955 0.182468 -0.300504 0 0 0 0 0 0 0 0 0 
26.982 1 365 3.21394 16.1667 4.38822 -1.2929 0.0649317 -0.913036 -0.274757 0.355896 -0.587956 0 0 0 0 0 0 0 0 0 
26.982 1 2003 1.21881 20.4848 2.22766 0.784292 0.985988 -1.92936 -0.0607371 -0.543462 0.578483 0 0 0 0 0 0 0 0 0 
26.982 1 2201 -1.13719 20.2666 4.18347 -1.02411 1.75252 -2.081 0.28076 0.262263 0.120877 0 0 0 0 0 0 0 0 0 
26.982 1 2205 3.283 20.2994 4.28901 2.27983 -2.71039 -0.383332 -0.362754 -0.152315 -0.186914 0 0 0 0 0 0 0 0 0 
26.982 1 167 5.22911 16.1922 2.1497 -1.72588 -3.39332 -0.139373 -0.14543 0.0956214 0.0743812 0 0 0 0 0 0 0 0 0 
26.982 1 366 5.22871 18.2345 4.03806 -2.76804 -3.93433 -0.896267 0.0523648 -0.0832497 0.679698 0 0 0 0 0 0 0 0 0 
26.982 1 2007 5.27754 20.2559 2.16143 1.79621 -2.81977 -3.21813 -0.223351 0.252411 0.156318 0 0 0 0 0 0 0 0 0 
26.982 1 165 3.09129 16.1487 0.0889082 6.64638 2.39737 1.81572 0.253817 0.15593 0.980584 0 0 0 0 0 0 0 0 0 
26.982 1 172 7.39953 18.3009 2.42898 0.122977 -2.28313 1.71169 0.169239 -0.140048 -0.617341 0 0 0 0 0 0 0 0 0 
26.982 1 169 7.47036 16.2684 0.321061 -0.226577 5.87184 -2.46138 0.124791 -0.0430962 -0.0495847 0 0 0 0 0 0 0 0 0 
26.982 1 369 7.37862 16.2423 4.21373 0.151905 -1.73287 -2.33012 0.094808 0.106166 0.383243 0 0 0 0 0 0 0 0 0 
26.982 1 171 9.61144 16.1544 2.16836 -2.83987 1.54653 -2.42312 -0.236896 0.435604 0.814142 0 0 0 0 0 0 0 0 0 
26.982 1 370 9.62025 18.1784 4.13137 -1.0313 -1.41653 -5.48106 -0.222666 -0.26418 0.625241 0 0 0 0 0 0 0 0 0 
26.982 1 176 11.6505 18.1789 2.19325 1.77838 1.2103 5.08071 0.328257 -0.124164 0.264447 0 0 0 0 0 0 0 0 0 
26.982 1 2011 9.55347 20.1508 2.36204 7.22436 -6.52261 -1.01256 -0.0553977 0.326652 0.00675889 0 0 0 0 0 0 0 0 0 
26.982 1 173 11.6216 16.2659 0.244751 1.49332 3.0201 -0.0596018 0.679548 0.130992 -0.0738347 0 0 0 0 0 0 0 0 0 
26.982 1 2217 15.9889 20.1063 4.24837 0.655518 0.447274 3.68159 0.314466 0.595881 -0.123297 0 0 0 0 0 0 0 0 0 
26.982 1 373 11.7557 16.2629 4.46199 -2.84603 0.392732 -6.83743 -0.0926784 -0.078053 -0.705368 0 0 0 0 0 0 0 0 0 
26.982 1 175 13.8524 16.3429 2.15245 1.09122 -2.02622 -1.60705 -0.222541 0.00337524 0.309281 0 0 0 0 0 0 0 0 0 
26.982 1 374 13.9672 18.2705 4.3625 1.01139 1.54093 -4.97292 -0.500958 -0.436445 -0.336766 0 0 0 0 0 0 0 0 0 
26.982 1 377 15.964 16.2523 4.19745 3.60297 -7.82885 0.675361 0.167341 0.102483 -0.170796 0 0 0 0 0 0 0 0 0 
26.982 1 180 16.0131 18.3653 2.09257 -2.63912 -2.59537 -6.57391 0.158239 -0.496305 0.394602 0 0 0 0 0 0 0 0 0 
26.982 1 2017 15.8741 20.3016 0.184712 5.96776 -1.90955 -5.59164 0.442688 0.209772 0.0662728 0 0 0 0 0 0 0 0 0 
26.982 1 179 18.1533 16.3625 2.17658 1.67373 -1.66515 -1.36042 -0.26961 -0.205587 0.051884 0 0 0 0 0 0 0 0 0 
26.982 1 184 20.2735 18.0963 2.18672 3.54911 0.303761 -0.189569 -0.252059 0.459468 -0.0204258 0 0 0 0 0 0 0 0 0 
26.982 1 378 18.1731 18.1322 4.32921 -1.81935 2.20597 -6.06364 -0.0610795 0.691773 -0.418103 0 0 0 0 0 0 0 0 0 
26.982 1 381 20.2994 16.3697 4.34772 -0.384414 -0.557878 -4.52336 0.0716895 -0.302104 -0.0872103 0 0 0 0 0 0 0 0 0 
26.982 1 181 20.2068 16.236 0.0858523 -1.43976 1.21415 0.690711 0.176324 -0.0820727 0.190355 0 0 0 0 0 0 0 0 0 
26.982 1 2221 20.2496 20.3514 4.03723 -2.41241 5.36527 -3.90056 -0.366861 -0.0967663 0.746639 0 0 0 0 0 0 0 0 0 
26.982 1 183 22.3977 16.3028 2.1561 3.90335 4.09204 0.292001 -0.0344955 -0.11521 0.252627 0 0 0 0 0 0 0 0 0 
26.982 1 382 22.3509 18.3831 4.17169 -4.30699 1.60364 2.25488 0.03363 -0.134004 -0.0355955 0 0 0 0 0 0 0 0 0 
26.982 1 2023 22.1411 20.2917 2.08258 -1.1148 -0.495543 -1.28268 0.705653 0.200083 0.29524 0 0 0 0 0 0 0 0 0 
26.982 1 188 24.5505 18.4678 2.1293 -1.387 -1.55881 2.53382 -0.219607 -0.100531 0.422008 0 0 0 0 0 0 0 0 0 
26.982 1 385 24.4301 16.3303 4.15354 0.446161 -3.85076 -0.512428 0.192353 -0.233591 0.0814527 0 0 0 0 0 0 0 0 0 
26.982 1 2225 24.3903 20.4053 4.2422 -1.0625 -3.09043 3.80508 0.0852542 -0.312216 -0.261692 0 0 0 0 0 0 0 0 0 
26.982 1 182 22.3528 18.3757 0.334489 3.01391 0.658809 0.758028 0.184374 -0.476052 -0.826789 0 0 0 0 0 0 0 0 0 
26.982 1 187 26.7051 16.2848 2.22486 -0.883274 -1.64316 2.54778 -0.192883 -0.0725246 0.336879 0 0 0 0 0 0 0 0 0 
26.982 1 386 26.6533 18.3701 3.97846 2.19857 -0.173823 1.68218 -0.129001 -0.264088 0.330604 0 0 0 0 0 0 0 0 0 
26.982 1 2027 26.6974 20.5637 2.20409 3.02748 1.8955 2.9644 0.0390015 -0.777261 -0.0821435 0 0 0 0 0 0 0 0 0 
26.982 1 192 28.8992 18.1517 2.31891 -1.29526 2.03323 0.332194 -0.145745 0.629828 -0.314494 0 0 0 0 0 0 0 0 0 
26.982 1 389 28.8325 16.2649 4.30488 1.10374 5.46514 0.393209 -0.457386 -0.272598 -0.14745 0 0 0 0 0 0 0 0 0 
26.982 1 186 26.6987 18.3333 0.358915 0.648512 4.88702 -0.502764 0.232968 0.357174 -0.143635 0 0 0 0 0 0 0 0 0 
26.982 1 2025 24.5427 20.4089 0.239572 2.25039 1.745 -0.280468 -0.0957048 0.446243 0.0257585 0 0 0 0 0 0 0 0 0 
26.982 1 191 30.9579 16.3159 2.28711 -4.262 -5.05616 -2.69982 0.09785 -0.492829 0.412606 0 0 0 0 0 0 0 0 0 
26.982 1 390 30.8713 18.2429 4.2814 2.38166 -3.869 -1.72073 0.315207 0.469906 0.0707981 0 0 0 0 0 0 0 0 0 
26.982 1 196 33.0412 18.3537 2.29755 -3.76678 1.44245 0.942412 -0.234785 -0.11664 -0.263847 0 0 0 0 0 0 0 0 0 
26.982 1 393 32.9602 16.4754 4.31948 2.05057 -1.35455 0.300091 0.0279215 -0.594907 -0.116533 0 0 0 0 0 0 0 0 0 
26.982 1 2029 28.9238 20.407 0.207193 -1.81362 -1.93032 3.66412 -0.480137 -0.278359 0.0971521 0 0 0 0 0 0 0 0 0 
26.982 1 193 33.1311 16.2917 0.298151 4.71967 -4.36569 2.18846 -0.0814225 -0.160072 0.303555 0 0 0 0 0 0 0 0 0 
26.982 1 190 30.9957 18.0126 0.223483 -0.919076 -0.923059 -4.31151 -0.162976 0.839446 0.166274 0 0 0 0 0 0 0 0 0 
26.982 1 195 35.3249 16.3787 2.09256 5.18325 6.71834 -0.58334 -0.431126 -0.910462 0.427105 0 0 0 0 0 0 0 0 0 
26.982 1 394 35.1239 18.0971 4.12657 3.62344 1.44884 -2.69925 0.233654 0.824625 0.583665 0 0 0 0 0 0 0 0 0 
26.982 1 200 37.2314 18.2002 2.33408 -3.81697 5.69766 3.47508 0.668453 0.472593 -0.469224 0 0 0 0 0 0 0 0 0 
26.982 1 2035 35.0254 20.2874 2.27751 3.88048 3.77647 3.24547 0.521144 0.263709 -0.102585 0 0 0 0 0 0 0 0 0 
26.982 1 2001 41.803 20.2794 0.364211 2.36459 -1.55264 0.656546 -0.670495 -0.545178 -0.0650163 0 0 0 0 0 0 0 0 0 
26.982 1 164 41.5765 18.3277 2.26672 1.33109 0.97378 -1.65965 -0.108526 -0.239223 0.159854 0 0 0 0 0 0 0 0 0 
26.982 1 199 39.519 16.3112 2.2055 4.34389 1.47688 3.52005 -0.075406 -0.122892 0.245219 0 0 0 0 0 0 0 0 0 
26.982 1 397 37.3404 16.3024 4.31615 -2.14603 6.14353 -0.576409 -0.0259074 -0.175278 -0.140243 0 0 0 0 0 0 0 0 0 
26.982 1 398 39.502 18.2049 4.44161 2.37767 -0.430047 0.91159 -0.359742 0.0470066 -0.588807 0 0 0 0 0 0 0 0 0 
26.982 1 198 39.5532 18.2932 0.255159 0.155124 0.0640522 1.78084 -0.0917694 -0.169033 -0.267184 0 0 0 0 0 0 0 0 0 
26.982 1 2037 37.3054 20.334 0.0435723 4.13942 -0.858191 -3.04053 0.257168 -0.160421 0.960463 0 0 0 0 0 0 0 0 0 
26.982 1 197 37.4271 16.2678 0.254976 -6.08636 3.71776 -1.85658 -0.0140862 0.018793 -0.245977 0 0 0 0 0 0 0 0 0 
26.982 1 203 0.941579 0.315823 6.26096 -1.30654 0.41681 4.0984 0.195603 0.100593 -0.301221 0 0 0 0 0 0 0 0 0 
26.982 1 208 3.10002 2.36066 6.24502 -4.16074 2.62295 -0.378807 0.448819 -0.756879 -0.210141 0 0 0 0 0 0 0 0 0 
26.982 1 243 1.23026 4.2507 6.07516 -1.61487 9.91302 -2.77356 -0.870672 0.40284 0.370656 0 0 0 0 0 0 0 0 0 
26.982 1 402 1.14414 2.27584 8.32884 0.220579 -1.14029 4.40979 -0.105859 -0.158598 -0.294853 0 0 0 0 0 0 0 0 0 
26.982 1 408 3.22448 2.19381 10.2109 -3.19044 1.27771 -3.3765 -0.154433 -0.151111 0.33515 0 0 0 0 0 0 0 0 0 
26.982 1 445 3.21042 4.2227 8.13054 -3.54253 1.18053 0.722514 0.148466 0.191585 0.357809 0 0 0 0 0 0 0 0 0 
26.982 1 212 7.33693 2.14834 6.28217 -1.71859 -3.01824 -2.99668 0.554831 0.161052 0.0289448 0 0 0 0 0 0 0 0 0 