ITEM: TIMESTEP
12650
ITEM: NUMBER OF ATOMS
4000
ITEM: BOX BOUNDS pp pp pp
-2.64521 43.1452
0.698623 39.8014
0.71556 39.7844
ITEM: ATOMS mass type id x y z vx vy vz fx fy fz xrad yrad zrad vxrad vyrad vzrad fxrad fyrad fzrad 
26.982 1 43 -0.55023 4.70763 2.54873 -3.23964 -0.228045 -1.53346 0.314226 -0.516537 0.290305 0 0 0 0 0 0 0 0 0 
26.982 1 202 -0.585686 2.52462 4.43994 0.244175 3.81359 6.33632 0.0611983 0.407973 0.256058 0 0 0 0 0 0 0 0 0 
26.982 1 3 -0.346016 0.532553 2.49849 2.67176 2.19431 1.82012 -0.036057 0.0583447 0.614627 0 0 0 0 0 0 0 0 0 
26.982 1 4 -2.75771 2.72078 2.45847 -1.78435 3.80472 -4.59504 -0.278372 0.0816545 0.455488 0 0 0 0 0 0 0 0 0 
26.982 1 241 -2.80639 4.58624 4.55767 3.29744 2.75313 -0.690446 0.276564 -0.536398 0.149516 0 0 0 0 0 0 0 0 0 
26.982 1 245 1.70591 4.73757 4.70312 -0.423479 -3.09082 2.74272 0.316049 -0.526242 -0.277401 0 0 0 0 0 0 0 0 0 
26.982 1 8 1.6988 2.52277 2.80482 1.82206 4.11689 2.88436 0.102297 0.526629 -0.296031 0 0 0 0 0 0 0 0 0 
26.982 1 47 3.80587 4.52281 2.65185 -0.311472 -0.740077 2.30784 0.416836 0.163862 0.174885 0 0 0 0 0 0 0 0 0 
26.982 1 206 3.93723 2.68969 4.76875 -1.64336 -1.41314 -2.87931 0.228005 0.192915 -0.170303 0 0 0 0 0 0 0 0 0 
26.982 1 205 2.1869 0.607844 4.52524 4.21876 0.78723 4.9696 -0.396845 -0.268329 0.73372 0 0 0 0 0 0 0 0 0 
26.982 1 45 1.72632 4.58638 0.886879 -0.80037 -1.61544 3.60804 -0.00235949 -0.0186944 -0.460481 0 0 0 0 0 0 0 0 0 
26.982 1 249 6.03873 4.45826 4.50994 -4.52296 -4.42813 1.30992 0.37093 -0.367425 0.332497 0 0 0 0 0 0 0 0 0 
26.982 1 12 6.62221 2.60925 2.4675 1.00155 1.23506 1.42133 -0.117786 0.353405 -0.386505 0 0 0 0 0 0 0 0 0 
26.982 1 51 8.48577 4.73225 2.69366 6.21801 1.37784 -2.73199 0.542391 -0.124211 0.380507 0 0 0 0 0 0 0 0 0 
26.982 1 210 8.65755 2.65523 4.51866 -0.881851 1.32447 0.124908 0.323177 0.190546 -0.0638018 0 0 0 0 0 0 0 0 0 
26.982 1 11 8.99456 0.834172 2.51291 -2.47994 -3.27701 -1.66703 -0.421534 -0.696012 0.351867 0 0 0 0 0 0 0 0 0 
26.982 1 253 11.0622 4.80775 4.37755 -4.25835 2.54766 -3.99403 -0.171955 -0.636679 0.790154 0 0 0 0 0 0 0 0 0 
26.982 1 16 11.0805 2.65664 2.82081 2.26733 -3.95073 2.13064 0.338283 0.0221501 -0.185082 0 0 0 0 0 0 0 0 0 
26.982 1 55 13.4606 4.57752 2.69804 -0.454827 -6.12531 -1.03161 -0.00915108 0.677158 0.10827 0 0 0 0 0 0 0 0 0 
26.982 1 214 13.4351 2.61666 4.53885 -6.33111 -0.145149 1.29666 -0.187517 -0.234204 0.390059 0 0 0 0 0 0 0 0 0 
26.982 1 14 13.5133 2.75378 0.860447 1.48615 5.07388 3.94947 -0.0421989 -0.258201 -0.46838 0 0 0 0 0 0 0 0 0 
26.982 1 15 13.4497 0.738003 2.59582 3.19375 4.68335 -0.664373 -0.077117 -0.143714 0.181071 0 0 0 0 0 0 0 0 0 
26.982 1 57 15.7775 4.59169 0.701429 1.29875 1.24897 0.007908 -0.170839 0.401502 -0.0604324 0 0 0 0 0 0 0 0 0 
26.982 1 20 15.8603 2.77806 2.58461 5.35305 4.53042 -1.16034 -0.232125 -0.328088 0.457947 0 0 0 0 0 0 0 0 0 
26.982 1 257 15.6117 4.46861 4.61988 0.832535 -0.77015 1.39814 0.202707 0.462775 -0.086365 0 0 0 0 0 0 0 0 0 
26.982 1 218 18.0148 2.69202 4.61849 1.52684 -1.17198 1.67842 0.11454 0.118982 -0.262101 0 0 0 0 0 0 0 0 0 
26.982 1 59 18.1768 4.7145 2.86744 -1.27411 2.12357 0.134997 -0.16471 -0.0502305 -0.262255 0 0 0 0 0 0 0 0 0 
26.982 1 24 20.5362 2.79288 2.67063 -1.73881 1.06548 -0.989864 -0.321183 -0.606234 -0.108959 0 0 0 0 0 0 0 0 0 
26.982 1 261 20.4032 4.6499 4.72314 -1.88234 -1.33461 1.12502 0.0419437 0.214487 -0.097583 0 0 0 0 0 0 0 0 0 
26.982 1 63 22.6563 4.63739 2.80988 -3.37722 2.75556 -0.989572 -0.400243 0.497069 -0.229861 0 0 0 0 0 0 0 0 0 
26.982 1 222 22.4519 2.57024 4.67154 0.121332 -3.67202 -0.541783 0.208562 0.214494 0.228425 0 0 0 0 0 0 0 0 0 
26.982 1 28 24.593 2.732 2.793 2.46951 -2.46458 -1.27085 0.634087 -0.23784 0.195975 0 0 0 0 0 0 0 0 0 
26.982 1 265 24.7939 4.78766 4.58459 6.32232 -2.03107 2.50511 0.386567 -0.127548 0.201147 0 0 0 0 0 0 0 0 0 
26.982 1 225 24.8151 0.64224 4.69098 0.0688757 -1.32581 -4.0273 -0.146495 0.364954 -0.118141 0 0 0 0 0 0 0 0 0 
26.982 1 23 22.559 0.625376 2.62818 -2.03513 -0.888674 5.39173 -0.21837 -0.0155421 -0.0735526 0 0 0 0 0 0 0 0 0 
26.982 1 22 22.7234 2.72699 0.577573 -2.59327 -2.39905 -0.167606 -0.375241 0.0904041 0.475763 0 0 0 0 0 0 0 0 0 
26.982 1 67 27.1104 5.06732 2.75052 4.75158 -2.07703 1.09965 0.0146501 -0.496225 0.221701 0 0 0 0 0 0 0 0 0 
26.982 1 226 27.0689 2.69223 4.73317 -2.80513 0.928218 1.38657 -0.197977 0.139381 -0.453762 0 0 0 0 0 0 0 0 0 
26.982 1 32 29.3673 3.02949 2.86228 2.94275 5.02119 1.66854 -0.189321 -0.704029 -0.124822 0 0 0 0 0 0 0 0 0 
26.982 1 269 29.573 4.87911 4.68614 -2.68008 3.06744 -1.9994 -0.324413 0.0159655 -0.0801813 0 0 0 0 0 0 0 0 0 
26.982 1 229 29.4684 0.596097 4.50117 3.5354 -4.50374 -2.40868 -0.035003 0.565723 -0.194047 0 0 0 0 0 0 0 0 0 
26.982 1 27 27.1082 0.830224 2.62867 1.17352 3.57197 3.43093 0.0218213 -0.0507313 0.355879 0 0 0 0 0 0 0 0 0 
26.982 1 71 31.7434 4.79971 2.66424 -0.132137 1.62372 1.42816 0.0255511 -0.559864 0.314117 0 0 0 0 0 0 0 0 0 
26.982 1 230 31.6904 2.6712 4.54041 1.05916 7.98837 -0.138571 0.0266615 -0.230365 0.222142 0 0 0 0 0 0 0 0 0 
26.982 1 273 33.9098 4.46705 4.59418 -0.356901 -0.0167278 -0.948753 0.0492568 0.407301 -0.0514781 0 0 0 0 0 0 0 0 0 
26.982 1 36 33.8766 2.73254 2.57293 -5.68208 2.25075 -4.23707 0.153969 -0.0735686 0.200527 0 0 0 0 0 0 0 0 0 
26.982 1 31 31.6927 0.858251 2.41205 5.08058 -0.197247 -3.66032 -0.0399953 -0.158407 0.73384 0 0 0 0 0 0 0 0 0 
26.982 1 75 36.3433 4.46448 2.52049 -7.86039 -4.26158 4.02062 -0.410243 0.312917 0.186167 0 0 0 0 0 0 0 0 0 
26.982 1 234 36.182 2.73765 4.70064 2.77339 2.95645 1.00187 -0.0708105 -0.380128 -0.793281 0 0 0 0 0 0 0 0 0 
26.982 1 40 38.33 2.4076 2.5226 -1.36086 -2.14227 -1.44422 0.279602 0.371381 0.51965 0 0 0 0 0 0 0 0 0 
26.982 1 277 38.3111 4.44175 4.44563 -2.76533 0.540075 0.177291 0.427844 0.22744 0.445325 0 0 0 0 0 0 0 0 0 
26.982 1 34 36.2026 2.5681 0.568557 2.45158 2.13472 -1.96534 -0.138603 0.184355 0.727111 0 0 0 0 0 0 0 0 0 
26.982 1 77 38.5366 4.61185 0.673343 7.23609 4.1262 1.84032 0.0601929 -0.479472 -0.413794 0 0 0 0 0 0 0 0 0 
26.982 1 79 40.6606 4.35061 2.77672 5.48119 -2.81147 -1.40255 0.077102 -0.0033145 -0.19442 0 0 0 0 0 0 0 0 0 
26.982 1 238 40.6116 2.47842 4.85752 0.804917 1.35496 1.32784 -0.00186611 0.034107 -0.963503 0 0 0 0 0 0 0 0 0 
26.982 1 41 42.9713 4.79662 0.610073 -5.85655 0.497095 2.71141 0.0783822 -0.92302 0.102951 0 0 0 0 0 0 0 0 0 
26.982 1 83 -0.488098 8.5064 2.68308 -1.62776 -1.23733 4.56535 0.22616 0.247093 -0.273629 0 0 0 0 0 0 0 0 0 
26.982 1 242 -0.545001 6.49865 4.57923 3.15145 -1.83154 -0.899175 0.172417 0.324183 0.139092 0 0 0 0 0 0 0 0 0 
26.982 1 282 -0.283506 10.4064 4.61256 -2.23324 0.573746 -2.31024 -0.648866 0.332166 0.137904 0 0 0 0 0 0 0 0 0 
26.982 1 48 1.75687 6.64954 2.78364 -5.53243 -2.61019 1.47351 0.105582 -0.0457899 -0.525319 0 0 0 0 0 0 0 0 0 
26.982 1 285 1.72615 8.49561 4.70072 3.36223 -1.06456 3.96262 0.361405 -0.25896 -0.251875 0 0 0 0 0 0 0 0 0 
26.982 1 87 4.23976 8.60906 2.56838 2.16448 -4.02519 5.94728 -0.104688 -0.597013 0.356239 0 0 0 0 0 0 0 0 0 
26.982 1 246 4.0357 6.62458 4.53191 8.07296 -1.31168 6.16035 -0.05722 -0.00300243 0.380655 0 0 0 0 0 0 0 0 0 
26.982 1 46 4.26658 6.53863 0.6713 4.31441 -0.409139 0.455155 -0.10227 0.0461114 0.126746 0 0 0 0 0 0 0 0 0 
26.982 1 289 6.53109 8.57488 4.76165 -0.262531 -3.47153 1.77411 -0.0740055 -0.128001 -0.287393 0 0 0 0 0 0 0 0 0 
26.982 1 52 6.33355 6.42452 2.83956 -4.71691 1.96185 -1.33771 -0.0613318 0.641046 -0.223421 0 0 0 0 0 0 0 0 0 
26.982 1 91 9.02136 8.60409 2.80894 -2.5359 -0.923308 8.72975 -0.407889 -0.0496405 -0.385491 0 0 0 0 0 0 0 0 0 
26.982 1 250 8.70091 6.72725 4.73595 6.99196 4.25147 0.69965 0.0967288 -0.243718 -0.525709 0 0 0 0 0 0 0 0 0 
26.982 1 293 11.2393 8.57005 4.57716 2.74921 -0.293869 -4.65129 -0.263038 -0.00929159 -0.295863 0 0 0 0 0 0 0 0 0 
26.982 1 56 11.294 6.58174 2.58106 3.80313 -1.44795 -4.80743 -0.138542 0.286893 0.127449 0 0 0 0 0 0 0 0 0 
26.982 1 95 13.5006 8.41844 2.76779 4.59515 -3.10724 -4.42795 0.0829107 0.403947 -0.905142 0 0 0 0 0 0 0 0 0 
26.982 1 254 13.6429 6.69415 4.59591 1.1495 3.27023 1.0092 -0.312962 -0.788561 0.212274 0 0 0 0 0 0 0 0 0 
26.982 1 54 13.4625 6.55967 0.589031 -1.41728 -1.19784 -2.24001 0.295411 -0.0198902 0.300055 0 0 0 0 0 0 0 0 0 
26.982 1 294 13.5012 10.3994 4.54968 -3.30845 -1.111 -1.51203 0.0796986 0.537891 0.0303673 0 0 0 0 0 0 0 0 0 
26.982 1 93 11.1449 8.56644 0.909149 -4.11365 0.991844 -1.45573 0.0103461 0.490644 -0.307958 0 0 0 0 0 0 0 0 0 
26.982 1 60 15.7932 6.61902 2.59112 -4.5282 -1.10243 -2.46799 -0.0671913 -0.231882 0.156867 0 0 0 0 0 0 0 0 0 
26.982 1 297 15.7674 8.56116 4.58333 -7.54469 0.432609 -3.22403 0.103575 0.394126 0.046468 0 0 0 0 0 0 0 0 0 
26.982 1 99 18.0398 8.83792 2.67177 0.780212 6.01207 0.532451 -0.135997 -0.655766 0.337538 0 0 0 0 0 0 0 0 0 
26.982 1 258 18.0458 6.76905 4.5024 3.16716 -0.409292 4.44252 0.0613071 0.495855 -0.0179666 0 0 0 0 0 0 0 0 0 
26.982 1 298 18.0895 10.4991 4.74126 1.23851 -0.247703 2.53156 -0.0901424 0.325495 0.296419 0 0 0 0 0 0 0 0 0 
26.982 1 97 15.7748 8.62207 0.683858 2.47405 1.9704 -3.84627 -0.248426 -0.0486193 0.163714 0 0 0 0 0 0 0 0 0 
26.982 1 58 18.0851 6.7242 0.92305 0.38313 -0.458995 2.96773 -0.0901409 -0.359978 -0.400742 0 0 0 0 0 0 0 0 0 
26.982 1 64 20.3224 6.74137 2.68245 -4.94671 -4.25124 0.817961 0.0566963 -0.560869 0.0533556 0 0 0 0 0 0 0 0 0 
26.982 1 301 20.3337 8.60093 4.63148 -6.60926 -5.09581 -0.3061 -0.0753262 0.281859 0.275979 0 0 0 0 0 0 0 0 0 
26.982 1 101 20.1204 8.59276 0.653147 1.20978 4.12239 -5.8908 0.429193 -0.0253136 0.215126 0 0 0 0 0 0 0 0 0 
26.982 1 103 22.3276 8.5736 2.63243 -4.25978 2.32598 -1.57106 0.555072 0.15506 0.281449 0 0 0 0 0 0 0 0 0 
26.982 1 262 22.7084 6.73169 4.78885 -1.41405 1.1261 -3.48303 -0.39706 -0.233666 -0.531053 0 0 0 0 0 0 0 0 0 
26.982 1 305 24.7268 8.76861 4.68118 -2.25625 0.42487 0.321518 0.184171 -0.120643 -0.1085 0 0 0 0 0 0 0 0 0 
26.982 1 68 24.8201 6.90628 2.73839 1.99638 3.10479 -2.70729 0.00165055 -0.0845786 -0.175845 0 0 0 0 0 0 0 0 0 
26.982 1 62 22.6781 6.61348 0.770409 -0.973381 -2.93421 0.741317 -0.153299 0.0435341 0.158253 0 0 0 0 0 0 0 0 0 
26.982 1 105 25.0704 8.63467 0.528869 -1.42136 1.32798 2.75175 -0.245506 0.143368 0.229197 0 0 0 0 0 0 0 0 0 
26.982 1 107 27.1988 8.55876 2.67362 -2.25312 -3.56795 2.06384 -0.182681 0.0600106 -0.295333 0 0 0 0 0 0 0 0 0 
26.982 1 266 27.0367 6.92199 4.87525 -4.61745 3.97654 2.21457 0.123421 -0.117954 -0.180591 0 0 0 0 0 0 0 0 0 
26.982 1 72 29.3317 6.74848 2.62259 1.73947 -4.30834 1.4982 0.413433 -0.0194959 0.2631 0 0 0 0 0 0 0 0 0 
26.982 1 309 29.4382 8.62018 4.66094 -3.61284 4.29769 -0.788888 -0.180896 -0.0965959 -0.018136 0 0 0 0 0 0 0 0 0 
26.982 1 111 31.7543 8.52268 2.59091 1.63644 -3.25341 -0.753914 -0.0753257 0.342875 0.22147 0 0 0 0 0 0 0 0 0 
26.982 1 270 31.7542 6.71823 4.62065 0.923285 -3.058 2.48424 -0.423785 -0.285995 -0.370977 0 0 0 0 0 0 0 0 0 
26.982 1 76 34.1698 6.58819 2.74536 -2.36707 -3.1892 -3.02226 -0.249451 -0.295431 -0.267526 0 0 0 0 0 0 0 0 0 
26.982 1 313 33.9033 8.6822 4.46243 -6.33112 -0.80397 0.899863 0.222541 -0.15815 0.707446 0 0 0 0 0 0 0 0 0 
26.982 1 116 34.0005 10.4262 2.53583 -3.55741 3.61796 2.23846 -0.066631 0.79009 0.0552649 0 0 0 0 0 0 0 0 0 
26.982 1 115 36.2816 8.65149 2.65297 1.26997 -4.13951 4.74862 0.234423 -0.695854 -0.142783 0 0 0 0 0 0 0 0 0 
26.982 1 274 36.2761 6.63697 4.52864 -1.39844 0.724891 -2.66737 0.229289 -0.291709 0.141468 0 0 0 0 0 0 0 0 0 
26.982 1 80 38.525 6.41142 2.49771 -0.0802974 -7.57812 3.43508 -0.0633964 0.444848 1.02922 0 0 0 0 0 0 0 0 0 
26.982 1 317 38.7568 8.3957 4.55717 -1.7709 0.720287 -3.79186 -0.616278 0.178968 -0.384597 0 0 0 0 0 0 0 0 0 
26.982 1 74 36.4017 6.56903 0.615564 -3.35693 -2.59207 -1.379 -0.207047 -0.234909 0.297173 0 0 0 0 0 0 0 0 0 
26.982 1 84 43.1042 10.6371 2.57191 -3.21162 -1.95134 2.71314 0.251911 0.188369 0.440229 0 0 0 0 0 0 0 0 0 
26.982 1 281 43.2258 8.48602 4.71799 1.35816 -0.429308 0.958192 -0.13575 0.244181 -0.439436 0 0 0 0 0 0 0 0 0 
26.982 1 44 43.2426 6.49701 2.58839 -1.66483 -7.44266 5.05412 -0.601199 0.624213 0.192557 0 0 0 0 0 0 0 0 0 
26.982 1 119 41.1371 8.53435 2.83486 -0.236617 0.436288 1.06025 -0.324882 0.217999 -0.293897 0 0 0 0 0 0 0 0 0 
26.982 1 278 40.9252 6.46707 4.4996 1.19224 2.78634 -2.96072 -0.09645 -0.0354076 0.0438274 0 0 0 0 0 0 0 0 0 
26.982 1 123 -0.28217 12.5051 2.73337 -3.21916 0.269288 1.32266 -0.366223 0.328998 0.0501888 0 0 0 0 0 0 0 0 0 
26.982 1 322 -0.276257 14.5041 4.80128 6.78068 -0.163141 -2.48404 -0.0419796 -0.915244 -0.0262675 0 0 0 0 0 0 0 0 0 
26.982 1 321 -2.57092 12.5487 4.78947 1.73441 3.58263 2.89054 -0.0248885 -0.0964295 -0.452514 0 0 0 0 0 0 0 0 0 
26.982 1 124 -2.5067 14.5538 2.58902 -3.77742 -1.81297 -1.2375 0.100202 -0.550122 0.0101832 0 0 0 0 0 0 0 0 0 
26.982 1 121 -2.61583 12.7381 0.587634 -0.0816503 -2.07652 -2.9064 0.103466 -0.474165 -0.102986 0 0 0 0 0 0 0 0 0 
26.982 1 88 1.95547 10.3863 2.78474 -1.88327 0.143636 2.53592 -0.0949609 0.181563 0.0623076 0 0 0 0 0 0 0 0 0 
26.982 1 325 1.77084 12.4337 4.61833 -2.03799 2.11614 0.306175 0.373826 0.131004 -0.234265 0 0 0 0 0 0 0 0 0 
26.982 1 128 2.2054 14.6123 2.77851 2.48773 -3.05758 -2.75514 -0.304517 -0.456185 0.239258 0 0 0 0 0 0 0 0 0 
26.982 1 286 4.35512 10.5196 4.53219 4.23386 -0.246677 -6.36641 -0.462288 -0.215222 0.34354 0 0 0 0 0 0 0 0 0 
26.982 1 127 4.17483 12.53 2.7287 0.320268 3.52992 2.74102 0.263281 0.0135321 0.1686 0 0 0 0 0 0 0 0 0 
26.982 1 326 4.55206 14.4521 4.70806 -5.0481 -0.914366 -3.13196 -0.600417 0.283617 -0.208078 0 0 0 0 0 0 0 0 0 
26.982 1 92 6.40376 10.3877 2.74233 3.10176 -2.01963 -3.06185 0.629058 0.699659 -0.167527 0 0 0 0 0 0 0 0 0 
26.982 1 290 8.95613 10.4512 4.67493 2.69178 4.47749 -2.13959 -0.390944 0.610614 0.00022947 0 0 0 0 0 0 0 0 0 
26.982 1 329 6.50934 12.418 4.8331 2.96565 0.0744801 0.889119 0.2438 -0.142924 -0.644433 0 0 0 0 0 0 0 0 0 
26.982 1 132 6.55797 14.3441 2.64168 0.294283 -4.05921 -2.85892 -0.0578586 -0.0447445 0.231856 0 0 0 0 0 0 0 0 0 
26.982 1 131 8.74765 12.42 2.76197 -2.6721 -2.87979 0.688641 -0.15812 -0.209618 -0.216893 0 0 0 0 0 0 0 0 0 
26.982 1 330 8.71775 14.4805 4.60614 0.521677 -4.19645 2.00406 0.0423188 -0.119803 0.292134 0 0 0 0 0 0 0 0 0 
26.982 1 96 11.136 10.584 2.76213 -2.72063 1.56026 -3.66341 -0.0720463 0.0429701 -0.120696 0 0 0 0 0 0 0 0 0 
26.982 1 333 11.0591 12.5881 4.6835 1.29666 2.87544 3.62311 -0.0283244 -0.115314 0.186162 0 0 0 0 0 0 0 0 0 
26.982 1 136 10.9785 14.3063 2.73367 -1.73729 4.15074 3.76039 0.132328 0.186813 -0.227391 0 0 0 0 0 0 0 0 0 
26.982 1 135 13.3284 12.4076 2.74771 -1.8367 -3.32661 -0.918219 0.185438 0.0274567 0.210269 0 0 0 0 0 0 0 0 0 
26.982 1 334 13.4864 14.3995 4.63355 -0.989401 3.5173 -0.381979 -0.166625 -0.3126 0.434535 0 0 0 0 0 0 0 0 0 
26.982 1 94 13.4581 10.4083 0.897895 1.55299 -0.5594 5.52031 -0.042264 0.360869 0.0748087 0 0 0 0 0 0 0 0 0 
26.982 1 133 11.1048 12.4366 0.735328 -1.93887 -0.96594 -1.18147 -0.115142 0.159534 0.000991505 0 0 0 0 0 0 0 0 0 
26.982 1 100 15.7764 10.6122 2.65255 -4.42588 0.626576 2.10663 -0.217381 -0.275739 0.531112 0 0 0 0 0 0 0 0 0 
26.982 1 137 15.6559 12.4125 0.75435 2.13523 -0.340937 -3.6594 0.195885 0.261021 -0.0637599 0 0 0 0 0 0 0 0 0 
26.982 1 140 15.7473 14.3319 2.81072 -0.156239 4.92829 -2.36966 0.0405355 -0.793211 0.280528 0 0 0 0 0 0 0 0 0 
26.982 1 337 15.6927 12.4075 4.82299 -0.000717263 7.92986 2.06664 0.231453 0.153198 -0.532614 0 0 0 0 0 0 0 0 0 
26.982 1 139 18.0439 12.4374 2.78885 -2.83527 1.26786 4.07422 -0.227515 -0.297377 -0.276944 0 0 0 0 0 0 0 0 0 
26.982 1 338 18.2209 14.2366 4.72139 0.454748 0.370249 3.75206 -0.325501 0.269756 0.335202 0 0 0 0 0 0 0 0 0 
26.982 1 138 18.2328 14.3632 0.824477 2.70618 0.321803 7.50096 -0.510492 0.0165898 0.158759 0 0 0 0 0 0 0 0 0 
26.982 1 98 17.8784 10.4928 0.722196 -0.314456 -0.0446147 2.2662 0.324838 0.586697 -0.341975 0 0 0 0 0 0 0 0 0 
26.982 1 104 20.2418 10.5893 2.69731 2.04608 1.20684 0.189359 0.175956 0.104871 -0.0499415 0 0 0 0 0 0 0 0 0 
26.982 1 341 20.5305 12.4743 4.81292 -0.503062 -0.648918 -0.877066 -0.347324 0.134513 -0.108567 0 0 0 0 0 0 0 0 0 
26.982 1 144 20.2348 14.2677 2.81213 4.03101 -0.103819 0.622706 0.586738 0.755092 0.16565 0 0 0 0 0 0 0 0 0 
26.982 1 145 24.98 12.3514 0.626694 0.825469 3.80734 -0.0802902 -0.358776 -0.193655 -0.145218 0 0 0 0 0 0 0 0 0 
26.982 1 302 22.5458 10.7264 4.53132 -1.82629 0.438328 -1.77095 0.250947 -0.36779 0.312713 0 0 0 0 0 0 0 0 0 
26.982 1 102 22.5262 10.4664 0.726089 -1.30657 0.852237 -3.19415 0.222221 0.166285 -0.226449 0 0 0 0 0 0 0 0 0 
26.982 1 143 22.6915 12.5639 2.49273 0.563628 -4.07004 0.215968 -0.0179424 0.102305 0.283007 0 0 0 0 0 0 0 0 0 
26.982 1 342 22.814 14.2397 4.75765 -0.76339 2.08318 0.84451 -0.780448 0.413624 -0.31572 0 0 0 0 0 0 0 0 0 
26.982 1 148 24.9974 14.2936 2.44093 -2.53571 0.952807 5.73343 -0.200923 0.472672 0.305635 0 0 0 0 0 0 0 0 0 
26.982 1 108 24.8701 10.4955 2.59429 4.07308 -3.04877 0.109569 -0.0266438 -0.102061 0.0395331 0 0 0 0 0 0 0 0 0 
26.982 1 345 24.8173 12.5459 4.49197 -2.42458 -2.97823 -0.303102 0.482512 -0.62136 0.269129 0 0 0 0 0 0 0 0 0 
26.982 1 306 27.2321 10.5031 4.53261 -2.83762 5.65288 2.10255 -0.154729 0.223517 0.0768059 0 0 0 0 0 0 0 0 0 
26.982 1 112 29.5715 10.5006 2.65709 1.04237 -6.28198 -1.74333 -0.331112 0.0087819 0.17662 0 0 0 0 0 0 0 0 0 
26.982 1 147 27.238 12.4891 2.606 0.722847 -1.46299 1.57026 -0.0993833 0.00590917 0.466812 0 0 0 0 0 0 0 0 0 
26.982 1 346 26.9731 14.3757 4.57153 -0.660978 -0.86221 1.90803 0.520381 0.113915 -0.0584702 0 0 0 0 0 0 0 0 0 
26.982 1 152 29.4382 14.2651 2.52793 0.672062 -0.582544 1.83209 0.0311415 0.112211 0.705567 0 0 0 0 0 0 0 0 0 
26.982 1 349 29.3882 12.5294 4.61676 -4.5201 4.40599 -0.439465 0.180579 -0.0617191 0.297269 0 0 0 0 0 0 0 0 0 
26.982 1 310 31.7228 10.5431 4.61879 -0.440037 1.67012 1.11711 0.0386139 0.566738 -0.242549 0 0 0 0 0 0 0 0 0 
26.982 1 151 31.6746 12.3327 2.64125 -1.20064 1.33673 -1.79972 0.238016 0.640021 0.029684 0 0 0 0 0 0 0 0 0 
26.982 1 350 31.716 14.5545 4.47917 -1.99735 1.00335 1.88962 0.00697953 -0.748147 0.2689 0 0 0 0 0 0 0 0 0 
26.982 1 153 33.9776 12.6379 0.74551 -1.3064 4.82566 2.82748 -0.147946 -0.66866 0.0907548 0 0 0 0 0 0 0 0 0 
26.982 1 156 34.2041 14.46 2.6271 -1.59588 -4.04682 1.61729 -0.385886 0.364642 0.17554 0 0 0 0 0 0 0 0 0 
26.982 1 353 33.9278 12.6193 4.57658 5.03645 2.0591 4.27775 0.0422402 -0.213102 -0.166025 0 0 0 0 0 0 0 0 0 
26.982 1 120 38.4523 10.3674 2.6952 -0.198269 -3.92201 -2.13945 0.300099 0.144568 0.076361 0 0 0 0 0 0 0 0 0 
26.982 1 314 36.284 10.3393 4.68463 -0.101234 -2.44874 4.68466 0.0842268 0.671869 -0.170231 0 0 0 0 0 0 0 0 0 
26.982 1 155 36.2452 12.4752 2.71699 1.37616 -2.89967 -6.58754 0.0357233 -0.438047 -0.0763583 0 0 0 0 0 0 0 0 0 
26.982 1 354 36.304 14.4355 4.60449 -2.11451 0.877325 1.62866 -0.167906 0.315854 0.190464 0 0 0 0 0 0 0 0 0 
26.982 1 160 38.6573 14.5004 2.71194 -3.76309 3.31342 1.56531 0.133365 -0.224754 0.253647 0 0 0 0 0 0 0 0 0 
26.982 1 357 38.4009 12.4908 4.58213 2.03385 -3.54935 0.181865 0.438871 -0.287887 -0.0171973 0 0 0 0 0 0 0 0 0 
26.982 1 318 40.7925 10.7406 4.50103 -1.51721 4.86178 0.981879 0.0601136 -0.209827 0.308959 0 0 0 0 0 0 0 0 0 
26.982 1 159 40.9585 12.5944 2.5445 -1.87619 1.20074 -4.02641 0.0169708 -0.229804 -0.554609 0 0 0 0 0 0 0 0 0 
26.982 1 358 40.9672 14.3023 4.46661 1.1381 -0.118611 0.617243 -0.228174 0.099729 0.764826 0 0 0 0 0 0 0 0 0 
26.982 1 158 41.0184 14.627 0.538599 3.98398 3.26217 -1.08461 -0.100876 -0.333366 0.144036 0 0 0 0 0 0 0 0 0 
26.982 1 163 -0.322136 16.2744 3.02279 -0.154152 4.32936 -1.24906 0.110587 0.597132 -1.17573 0 0 0 0 0 0 0 0 0 
26.982 1 362 -0.236097 18.3811 4.70214 -2.95277 1.41696 0.0760095 -0.487734 0.148636 0.126997 0 0 0 0 0 0 0 0 0 
26.982 1 361 -2.81881 16.2587 4.56356 0.454313 -6.46652 5.93195 0.569829 0.744384 0.455277 0 0 0 0 0 0 0 0 0 
26.982 1 2205 1.80058 20.2507 4.52858 6.91636 -2.81224 -0.348647 0.256091 0.243211 0.328776 0 0 0 0 0 0 0 0 0 
26.982 1 365 1.93026 16.4791 4.72494 3.84671 -3.09436 2.89206 -0.0457709 -0.0442263 -0.0600971 0 0 0 0 0 0 0 0 0 
26.982 1 168 1.98408 18.333 2.74629 0.374114 -0.674946 5.14306 0.259604 -0.620995 -0.452612 0 0 0 0 0 0 0 0 0 
26.982 1 167 4.42314 16.411 2.57285 0.182551 -2.48069 -4.31796 -0.354682 -0.292023 0.242486 0 0 0 0 0 0 0 0 0 
26.982 1 366 4.07195 18.115 4.67002 0.785179 -0.220744 4.56532 0.20623 0.943202 -0.0103928 0 0 0 0 0 0 0 0 0 
26.982 1 165 2.18064 16.274 0.691556 2.21289 3.46754 1.43397 -0.386809 0.554461 0.0051524 0 0 0 0 0 0 0 0 0 
26.982 1 369 6.37661 16.5532 4.61468 -4.24633 -0.696779 -1.0011 0.470266 -0.788617 0.242742 0 0 0 0 0 0 0 0 0 
26.982 1 172 6.50547 18.2792 2.72953 -0.524875 0.213727 -4.6058 0.391743 0.340444 -0.486025 0 0 0 0 0 0 0 0 0 
26.982 1 171 8.74855 16.3403 2.69589 2.50278 0.652302 -0.373447 0.116678 0.239772 -0.143267 0 0 0 0 0 0 0 0 0 
26.982 1 370 8.83028 18.4912 4.58159 4.34882 -3.23086 -1.8758 0.0324529 -0.759689 -0.148129 0 0 0 0 0 0 0 0 0 
26.982 1 176 11.1358 18.2198 2.68728 3.10312 3.70253 2.57754 -0.185749 -0.0931835 0.162277 0 0 0 0 0 0 0 0 0 
26.982 1 373 11.004 16.2406 4.69369 5.58972 4.40931 2.90066 0.0362298 0.349797 0.147555 0 0 0 0 0 0 0 0 0 
26.982 1 175 13.3164 16.2853 2.95357 -2.363 5.06231 0.888103 -0.162125 0.137762 -0.924853 0 0 0 0 0 0 0 0 0 
26.982 1 374 13.5269 18.3158 4.64056 2.47156 -3.14826 -2.37818 -0.470858 0.212922 0.246712 0 0 0 0 0 0 0 0 0 
26.982 1 2015 13.408 20.2208 2.73408 -0.0772768 -1.15258 -0.489904 -0.0387092 0.0517444 -0.156498 0 0 0 0 0 0 0 0 0 
26.982 1 377 15.6935 16.3495 4.55125 -2.99871 0.0665255 -2.28841 0.155202 0.0557875 0.13049 0 0 0 0 0 0 0 0 0 
26.982 1 180 15.6383 18.2449 2.69206 4.09591 -1.79485 1.34639 0.355438 0.486614 0.214432 0 0 0 0 0 0 0 0 0 
26.982 1 179 18.0267 16.2916 2.90058 0.88256 -0.00893726 4.51705 0.145596 0.0764379 -0.115647 0 0 0 0 0 0 0 0 0 
26.982 1 378 18.0813 18.4128 4.65477 -0.378614 -0.221893 -3.1145 0.0398121 -0.634384 -0.0145863 0 0 0 0 0 0 0 0 0 
26.982 1 2019 17.9517 20.1745 2.75265 3.18351 3.42888 -4.2378 0.237536 0.284544 -0.433576 0 0 0 0 0 0 0 0 0 
26.982 1 2017 15.8656 20.2397 0.836595 -6.14656 0.742529 4.51447 -0.126402 -0.133752 -0.445604 0 0 0 0 0 0 0 0 0 
26.982 1 2217 15.8692 20.4036 4.67185 -1.78538 -0.488296 -3.93491 -0.505066 -0.580813 0.15659 0 0 0 0 0 0 0 0 0 
26.982 1 381 20.271 16.4003 4.81185 3.03103 2.53974 1.49749 0.268075 -0.160638 -0.501852 0 0 0 0 0 0 0 0 0 
26.982 1 184 20.4861 18.2942 2.57802 -2.14125 3.15305 -3.64037 -0.478233 -0.20614 0.580124 0 0 0 0 0 0 0 0 0 
26.982 1 2221 20.4226 20.2224 4.77718 -3.18535 -0.638445 2.38745 -0.333238 -0.0602802 -0.531229 0 0 0 0 0 0 0 0 0 
26.982 1 181 20.3531 16.2577 0.723506 -2.42111 0.00201841 5.29173 0.122542 0.0928255 0.247216 0 0 0 0 0 0 0 0 0 
26.982 1 183 22.7 16.2131 2.65603 8.31002 -5.92321 -3.03692 -0.430402 0.0372288 0.0583782 0 0 0 0 0 0 0 0 0 
26.982 1 382 22.5788 18.359 4.5702 -0.664496 1.17529 3.24352 0.071689 -0.201319 -0.102579 0 0 0 0 0 0 0 0 0 
26.982 1 385 24.8108 16.2998 4.49624 3.68678 4.18919 -1.48277 0.180935 -0.118268 -0.0692499 0 0 0 0 0 0 0 0 0 
26.982 1 188 24.9662 18.3196 2.76007 -0.195197 0.982941 -5.21017 -0.31715 0.172567 -0.61499 0 0 0 0 0 0 0 0 0 
26.982 1 2023 22.379 20.5291 2.70247 -0.728933 -1.74626 -0.58468 0.398767 -0.371901 -0.230808 0 0 0 0 0 0 0 0 0 
26.982 1 187 27.2594 16.3972 2.66325 6.4517 -1.20032 -0.31934 -0.47551 -0.0266005 0.146987 0 0 0 0 0 0 0 0 0 
26.982 1 386 27.0999 18.3649 4.54335 2.15452 3.54085 3.55536 0.215938 -0.0838554 0.249997 0 0 0 0 0 0 0 0 0 
26.982 1 192 29.3209 18.4162 2.53694 1.9547 0.404367 1.70323 0.114049 0.137482 0.14109 0 0 0 0 0 0 0 0 0 
26.982 1 389 29.3424 16.3265 4.39434 2.56228 1.32239 4.3829 -0.122209 -0.10385 -0.049889 0 0 0 0 0 0 0 0 0 
26.982 1 2229 29.3118 20.3322 4.52793 1.63178 -5.42341 0.498411 0.282499 -0.276024 0.208164 0 0 0 0 0 0 0 0 0 
26.982 1 189 29.3979 16.3272 0.854741 -1.97057 -1.16464 -4.63586 0.0611109 0.458146 -0.520697 0 0 0 0 0 0 0 0 0 
26.982 1 191 31.8251 16.3817 2.69543 2.25772 0.757106 3.27749 -0.130257 0.709439 -0.652164 0 0 0 0 0 0 0 0 0 
26.982 1 390 31.3243 18.2535 4.59822 -4.42027 -1.40649 -3.31294 0.57665 0.151218 0.223358 0 0 0 0 0 0 0 0 0 
26.982 1 190 31.5105 18.4102 0.599758 -0.822996 -2.11144 2.85527 0.268844 0.0525943 0.301584 0 0 0 0 0 0 0 0 0 
26.982 1 393 33.9182 16.5264 4.49736 -0.314741 0.197092 2.2017 0.177916 -0.0937455 0.410183 0 0 0 0 0 0 0 0 0 
26.982 1 196 34.0308 18.4457 2.46326 -3.38695 3.67911 -1.86515 -0.139288 0.39677 0.525735 0 0 0 0 0 0 0 0 0 
26.982 1 195 36.3098 16.442 2.6363 0.460339 -0.976605 2.46074 -0.0341277 0.215425 0.216637 0 0 0 0 0 0 0 0 0 
26.982 1 394 36.1976 18.4224 4.60774 5.91279 -2.94855 -2.99863 -0.126741 -0.27329 -0.243843 0 0 0 0 0 0 0 0 0 
26.982 1 2237 38.4862 20.299 4.68597 3.66837 -6.72374 -0.770124 0.187968 0.17957 0.358819 0 0 0 0 0 0 0 0 0 
26.982 1 397 38.409 16.4605 4.63538 3.94177 0.0279351 -0.197151 0.284281 0.202155 -0.190393 0 0 0 0 0 0 0 0 0 
26.982 1 200 38.6229 18.5156 2.74873 2.735 -0.00525556 1.38023 0.137244 -0.452061 -0.11034 0 0 0 0 0 0 0 0 0 
26.982 1 2035 36.3686 20.385 2.71156 -2.54474 1.59063 -1.59883 -0.124241 0.117072 -0.177443 0 0 0 0 0 0 0 0 0 
26.982 1 2039 41.0408 20.2407 2.62538 -0.864783 4.83022 0.767678 -0.346245 0.413604 0.392863 0 0 0 0 0 0 0 0 0 
26.982 1 164 43.41 18.375 2.66123 3.39082 -0.892659 -3.21527 -0.267453 -0.457496 0.0772158 0 0 0 0 0 0 0 0 0 
26.982 1 199 40.9747 16.2969 2.73838 -3.0673 -0.456681 -1.40055 -0.373135 0.359404 -0.168938 0 0 0 0 0 0 0 0 0 
26.982 1 398 40.8328 18.3799 4.69949 1.69122 -1.71125 2.838 0.0677032 -0.105439 -0.214665 0 0 0 0 0 0 0 0 0 
26.982 1 243 -0.306592 4.6528 6.48495 2.70861 -3.25526 2.18432 -0.391935 -0.525969 0.500464 0 0 0 0 0 0 0 0 0 
26.982 1 402 -0.445542 2.74392 8.63982 -4.7147 3.19071 -0.514971 0.22636 0.105602 0.00920103 0 0 0 0 0 0 0 0 0 
26.982 1 443 -0.34594 4.78381 10.5907 3.40989 1.33956 -1.16914 -0.0241426 -0.515157 -0.552652 0 0 0 0 0 0 0 0 0 
26.982 1 405 2.03562 0.525638 8.46564 4.41456 -3.7255 -2.59881 -0.182341 0.496494 0.169195 0 0 0 0 0 0 0 0 0 
26.982 1 208 1.88137 2.55531 6.58362 -0.690611 -5.0833 -2.2344 -0.277804 0.468572 0.206732 0 0 0 0 0 0 0 0 0 
26.982 1 445 1.84828 4.76453 8.70947 -0.493348 0.356733 1.62692 0.163252 -0.275424 -0.237499 0 0 0 0 0 0 0 0 0 
26.982 1 247 4.11387 4.60315 6.70423 6.00345 2.01584 2.76026 -0.347194 0.442651 -0.197886 0 0 0 0 0 0 0 0 0 
26.982 1 406 4.2263 2.66227 8.49823 -7.46402 -0.423813 0.270785 -0.0929284 -0.388172 0.0744433 0 0 0 0 0 0 0 0 0 
26.982 1 408 1.91589 2.57449 10.4321 3.70027 0.625194 -4.35784 0.199252 0.0506957 -0.276679 0 0 0 0 0 0 0 0 0 
26.982 1 449 6.46229 4.71043 8.38528 -0.101276 -1.46267 1.17324 0.329227 -0.286489 0.295121 0 0 0 0 0 0 0 0 0 
26.982 1 212 6.40266 2.54496 6.5719 1.37677 1.14724 -0.693791 0.0926875 0.37864 0.308467 0 0 0 0 0 0 0 0 0 
26.982 1 251 8.71125 4.62455 6.30647 -0.686862 -0.711645 3.04065 -0.0385419 -0.204557 0.474495 0 0 0 0 0 0 0 0 0 
26.982 1 410 8.90242 2.74632 8.45362 -4.40633 -3.66126 -1.47053 -0.353322 -0.183954 -0.0559994 0 0 0 0 0 0 0 0 0 
26.982 1 412 6.58288 2.8356 10.5242 -1.652 -0.287536 -3.51302 -0.175816 -0.167094 -0.596037 0 0 0 0 0 0 0 0 0 
26.982 1 451 8.71521 4.72308 10.4222 -4.33348 0.717392 3.68569 0.155274 0.0126484 -0.196971 0 0 0 0 0 0 0 0 0 
26.982 1 453 11.095 4.73568 8.44837 4.22012 -2.53265 3.83711 0.0952677 0.144074 -0.214791 0 0 0 0 0 0 0 0 0 
26.982 1 216 11.128 2.69264 6.56579 -2.89919 5.06223 -3.72398 -0.134085 -0.0240621 -0.583345 0 0 0 0 0 0 0 0 0 
26.982 1 255 13.3877 4.65673 6.39981 -0.837368 1.39959 2.74536 -0.303297 -0.0600396 0.353997 0 0 0 0 0 0 0 0 0 
26.982 1 414 13.2684 2.60764 8.51995 -3.27018 0.763267 4.7602 0.200278 0.658127 -0.190017 0 0 0 0 0 0 0 0 0 
26.982 1 417 15.8053 0.751223 8.28328 4.31027 -0.262352 -3.50265 -0.352278 -0.152528 0.949553 0 0 0 0 0 0 0 0 0 
26.982 1 457 15.5081 4.88076 8.5496 1.55398 -2.81576 1.11246 0.0658963 -0.139465 -0.00343314 0 0 0 0 0 0 0 0 0 
26.982 1 220 15.625 2.8018 6.75222 -1.20848 -2.82027 1.99436 -0.28877 0.22893 -0.570568 0 0 0 0 0 0 0 0 0 
26.982 1 259 17.9533 4.86647 6.2847 -6.84282 0.735758 -2.53526 0.205065 -0.33747 0.66167 0 0 0 0 0 0 0 0 0 
26.982 1 418 17.897 2.87899 8.27008 0.471737 -2.61869 4.09589 0.174204 0.152464 0.281459 0 0 0 0 0 0 0 0 0 
26.982 1 421 20.1736 0.789083 8.53363 4.73189 1.06916 -10.3012 0.298975 -0.314087 -0.0226255 0 0 0 0 0 0 0 0 0 
26.982 1 224 20.255 2.71284 6.65146 -5.16106 1.60925 4.60905 0.0346193 -0.019588 -0.324223 0 0 0 0 0 0 0 0 0 
26.982 1 461 20.4322 4.71267 8.48871 0.135443 0.919831 2.70043 -0.636822 0.23533 0.0815 0 0 0 0 0 0 0 0 0 
26.982 1 424 20.1686 2.67949 10.4477 2.21545 -2.36449 -0.378463 -0.0814462 0.119241 -0.17964 0 0 0 0 0 0 0 0 0 
26.982 1 263 22.7241 4.72253 6.64292 -5.52216 -1.50137 0.765235 -0.267251 -0.608607 -0.323994 0 0 0 0 0 0 0 0 0 
26.982 1 422 22.3319 2.72755 8.69941 -0.253302 3.43698 2.02711 0.462326 -0.201956 -0.692298 0 0 0 0 0 0 0 0 0 
26.982 1 428 24.6518 2.62217 10.4957 -2.52844 5.44159 -6.2502 0.432243 0.274723 0.0843811 0 0 0 0 0 0 0 0 0 
26.982 1 228 24.7095 2.73675 6.64714 4.71679 4.29864 -2.35344 0.108758 0.194642 -0.307768 0 0 0 0 0 0 0 0 0 
26.982 1 463 22.5 4.67513 10.4709 -7.0801 -2.40206 -2.85398 0.338493 0.569333 0.319621 0 0 0 0 0 0 0 0 0 
26.982 1 223 22.622 0.739375 6.652 0.435458 0.755149 -5.12873 -0.560013 -0.141353 0.037795 0 0 0 0 0 0 0 0 0 
26.982 1 465 24.7982 4.62684 8.70116 -0.388404 -2.85705 -4.76577 0.0120354 0.241514 -0.194497 0 0 0 0 0 0 0 0 0 
26.982 1 425 24.635 0.761599 8.47509 3.50817 -3.21344 1.82307 0.362376 -0.376799 0.212453 0 0 0 0 0 0 0 0 0 
26.982 1 267 26.9661 4.76877 6.475 2.23728 -0.720611 1.81413 0.205577 -0.379661 0.0284046 0 0 0 0 0 0 0 0 0 
26.982 1 426 27.0311 2.69241 8.47422 -4.75957 -1.79382 1.73233 -0.044872 0.485859 0.233918 0 0 0 0 0 0 0 0 0 
26.982 1 232 29.3724 2.72322 6.40082 -3.26159 -3.00902 2.6047 -0.0475127 -0.32819 0.122094 0 0 0 0 0 0 0 0 0 