ITEM: TIMESTEP
6550
ITEM: NUMBER OF ATOMS
4000
ITEM: BOX BOUNDS pp pp pp
-1.40543 41.9054
0.37071 40.1293
0.370682 40.1293
ITEM: ATOMS mass type id x y z vx vy vz fx fy fz xrad yrad zrad vxrad vyrad vzrad fxrad fyrad fzrad 
26.982 1 43 0.770241 4.45618 2.37943 4.10234 7.32155 1.03769 0.279964 -0.277172 0.175048 0 0 0 0 0 0 0 0 0 
26.982 1 202 0.733629 2.27127 4.39576 2.21218 1.39408 0.115842 -0.0327389 0.491113 0.104275 0 0 0 0 0 0 0 0 0 
26.982 1 201 -1.49527 0.325507 4.27798 1.73264 1.37105 -1.91488 0.178048 -0.213573 0.184094 0 0 0 0 0 0 0 0 0 
26.982 1 241 -1.35788 4.14018 4.35686 -3.47038 -5.68896 0.140242 0.00225963 0.42991 0.148806 0 0 0 0 0 0 0 0 0 
26.982 1 4 -1.4501 2.42644 2.30365 -0.0657133 0.348231 2.80693 0.331124 -0.247302 0.170572 0 0 0 0 0 0 0 0 0 
26.982 1 2 0.884608 2.53481 0.455684 1.49587 0.120603 1.99789 -0.262485 0.115602 -0.149537 0 0 0 0 0 0 0 0 0 
26.982 1 45 2.99924 4.45828 0.429063 0.101084 1.24618 -0.770809 -0.0706052 -0.260931 0.142949 0 0 0 0 0 0 0 0 0 
26.982 1 8 3.03245 2.43841 2.39813 2.78858 2.45528 -0.231746 -0.616761 0.0114281 -0.152289 0 0 0 0 0 0 0 0 0 
26.982 1 245 3.08384 4.46391 4.46129 2.10291 1.21238 -2.07448 -0.411499 0.224992 -0.762736 0 0 0 0 0 0 0 0 0 
26.982 1 205 2.92644 0.627513 4.46624 3.51854 3.37446 -2.14134 -0.165086 -0.907233 -0.203376 0 0 0 0 0 0 0 0 0 
26.982 1 47 4.97243 4.37155 2.34919 1.67064 -0.655064 2.13603 0.348294 0.455976 -0.0566629 0 0 0 0 0 0 0 0 0 
26.982 1 206 4.93786 2.40333 4.2721 0.716546 -7.61547 3.00587 0.846031 -0.0534495 0.358312 0 0 0 0 0 0 0 0 0 
26.982 1 12 7.10437 2.49708 2.31704 -3.50021 1.30975 -3.42343 0.430347 -0.452119 0.31673 0 0 0 0 0 0 0 0 0 
26.982 1 9 7.29136 0.355837 0.554717 -3.32744 1.29148 -0.780464 0.281873 0.375628 -0.766915 0 0 0 0 0 0 0 0 0 
26.982 1 249 7.22167 4.20702 4.34465 -0.83383 0.569286 -4.31522 0.361377 0.22051 0.069707 0 0 0 0 0 0 0 0 0 
26.982 1 209 7.31334 0.580978 4.23131 1.48058 2.52764 0.933294 -0.255516 -0.135327 -0.00542482 0 0 0 0 0 0 0 0 0 
26.982 1 49 7.31265 4.24311 0.442311 4.61893 -1.75151 0.458873 -0.0931564 0.692551 -0.42468 0 0 0 0 0 0 0 0 0 
26.982 1 51 9.47293 4.46313 2.46418 -5.45934 1.07656 -2.37696 -0.232538 -0.410581 -0.216679 0 0 0 0 0 0 0 0 0 
26.982 1 210 9.56513 2.35459 4.50326 2.95084 -2.7915 4.05806 -0.17777 0.14853 -0.22562 0 0 0 0 0 0 0 0 0 
26.982 1 11 9.49972 0.581701 2.33705 5.99544 4.88588 4.46274 -0.126763 -0.481223 0.379791 0 0 0 0 0 0 0 0 0 
26.982 1 16 11.5967 2.3027 2.28536 -2.93556 -2.29137 -3.87816 0.0479743 0.516106 0.231705 0 0 0 0 0 0 0 0 0 
26.982 1 253 11.6002 4.30828 4.36053 -2.53628 -2.08025 0.0752993 -0.144166 0.158266 0.0316559 0 0 0 0 0 0 0 0 0 
26.982 1 10 9.44885 2.43011 0.420221 -3.77564 -6.69264 4.6588 -0.078117 -0.0448704 -0.269927 0 0 0 0 0 0 0 0 0 
26.982 1 53 11.4553 4.45419 0.419741 3.12772 2.85159 0.455353 0.567885 0.219585 -0.0558175 0 0 0 0 0 0 0 0 0 
26.982 1 55 13.7498 4.38804 2.38001 -2.61712 0.369498 6.65479 0.15645 0.019578 -0.204814 0 0 0 0 0 0 0 0 0 
26.982 1 214 13.5694 2.46833 4.36985 -2.56658 -2.40534 2.24407 0.824898 -0.386815 -0.0793402 0 0 0 0 0 0 0 0 0 
26.982 1 20 15.8595 2.30643 2.36982 0.731654 -4.55011 3.88399 -0.0903676 0.116101 0.0299224 0 0 0 0 0 0 0 0 0 
26.982 1 15 13.6413 0.388161 2.44889 2.02194 -0.235506 7.35697 0.590872 -0.0464136 0.022613 0 0 0 0 0 0 0 0 0 
26.982 1 14 13.8364 2.60054 0.268241 -3.43705 0.0180307 -1.00412 -0.239085 -0.508916 0.431207 0 0 0 0 0 0 0 0 0 
26.982 1 257 15.9954 4.25349 4.42226 -1.59279 0.952127 -1.19043 -0.115897 0.369139 -0.286972 0 0 0 0 0 0 0 0 0 
26.982 1 218 18.142 2.25594 4.27062 -1.07668 4.19099 0.327484 -0.0328703 0.0646999 0.0725701 0 0 0 0 0 0 0 0 0 
26.982 1 59 18.0427 4.30265 2.39806 -1.60878 -3.20767 -2.21507 -0.120584 0.400841 -0.177027 0 0 0 0 0 0 0 0 0 
26.982 1 217 15.9008 0.313314 4.43043 0.0919892 0.0143528 -2.12586 -0.341385 0.0759872 -0.537447 0 0 0 0 0 0 0 0 0 
26.982 1 21 20.0495 0.435401 0.33468 3.69974 3.18678 6.48452 0.239451 -0.563116 -0.0234548 0 0 0 0 0 0 0 0 0 
26.982 1 221 20.3394 0.231608 4.2296 -1.00885 1.3885 -0.436875 -0.395488 0.266088 0.362236 0 0 0 0 0 0 0 0 0 
26.982 1 261 20.3037 4.30868 4.22149 -6.50293 -0.155094 -0.878634 -0.187039 0.0613807 0.22453 0 0 0 0 0 0 0 0 0 
26.982 1 24 20.1505 2.41982 2.25917 2.60271 5.23564 -5.19149 0.218392 -0.405245 0.120232 0 0 0 0 0 0 0 0 0 
26.982 1 63 22.2566 4.40584 2.29322 3.14247 1.10687 -2.81836 0.397194 -0.0534015 -0.0569834 0 0 0 0 0 0 0 0 0 
26.982 1 222 22.4663 2.23823 4.28725 8.50055 -1.93797 -3.6854 -0.505212 0.449517 0.129625 0 0 0 0 0 0 0 0 0 
26.982 1 28 24.4137 2.29031 2.43001 1.78212 2.53768 -0.853738 0.491197 0.400443 -0.354249 0 0 0 0 0 0 0 0 0 
26.982 1 265 24.6599 4.34947 4.44107 0.34284 -1.44104 2.83174 -0.326463 -0.306763 -0.604869 0 0 0 0 0 0 0 0 0 
26.982 1 67 26.817 4.28474 2.21003 5.7374 4.437 0.404923 -0.39068 0.348768 0.805134 0 0 0 0 0 0 0 0 0 
26.982 1 226 26.7119 2.28326 4.23086 5.1131 0.158151 -0.483116 0.0982803 0.181816 -0.104418 0 0 0 0 0 0 0 0 0 
26.982 1 269 29.0537 4.26965 4.23853 2.12687 0.925888 1.75645 -0.494294 -0.339784 0.551134 0 0 0 0 0 0 0 0 0 
26.982 1 27 26.5254 0.289304 2.14662 3.09812 -3.01136 -2.81211 0.14819 0.0113182 0.495683 0 0 0 0 0 0 0 0 0 
26.982 1 29 28.7526 0.253783 0.231693 -2.68202 2.13935 -1.90112 0.314317 0.167491 0.236951 0 0 0 0 0 0 0 0 0 
26.982 1 32 28.9488 2.16222 2.42723 2.61801 -0.580328 -1.49202 -0.153243 -0.0176647 -0.443686 0 0 0 0 0 0 0 0 0 
26.982 1 71 30.9857 4.16576 2.35484 -1.69277 6.0713 2.46681 0.684011 0.215313 0.0697242 0 0 0 0 0 0 0 0 0 
26.982 1 230 31.1516 2.05997 4.35613 -0.145265 -2.97936 -0.625231 -0.113494 0.625173 0.051322 0 0 0 0 0 0 0 0 0 
26.982 1 273 33.3457 4.21568 4.45813 -1.75283 0.216562 0.0577947 -0.313114 0.431121 -0.712609 0 0 0 0 0 0 0 0 0 
26.982 1 229 28.8112 0.284956 4.38315 1.95 2.46214 -0.0869518 0.142335 -0.395134 -0.147732 0 0 0 0 0 0 0 0 0 
26.982 1 36 33.3398 2.31222 2.46187 -5.43831 -1.82336 1.43022 -0.256109 -0.208901 -0.157341 0 0 0 0 0 0 0 0 0 
26.982 1 73 33.357 4.23356 0.563701 -1.66379 -2.14273 0.721907 -0.300236 0.229163 -0.391051 0 0 0 0 0 0 0 0 0 
26.982 1 75 35.6131 4.34931 2.43662 -1.91936 0.381786 -1.81603 -0.542269 0.0576323 -0.16858 0 0 0 0 0 0 0 0 0 
26.982 1 234 35.3172 2.32478 4.29287 -5.64776 4.68493 2.12183 0.607468 0.130977 0.0202285 0 0 0 0 0 0 0 0 0 
26.982 1 40 37.6179 2.19368 2.36257 -3.08759 3.41647 2.6052 0.140322 0.0297705 0.190794 0 0 0 0 0 0 0 0 0 
26.982 1 277 37.7227 4.16537 4.14754 -1.76884 -0.0457453 -0.577308 -0.166168 0.394859 0.573837 0 0 0 0 0 0 0 0 0 
26.982 1 35 35.5428 0.298279 2.39747 -0.521654 1.17805 -0.608197 -0.820666 0.0335327 0.0236795 0 0 0 0 0 0 0 0 0 
26.982 1 79 39.7805 4.22021 2.21866 -4.9486 -4.29648 1.45251 0.000219276 0.206279 0.391239 0 0 0 0 0 0 0 0 0 
26.982 1 238 39.747 2.15794 4.42488 -3.25776 -0.237628 2.7057 0.132034 0.0124801 -0.559191 0 0 0 0 0 0 0 0 0 
26.982 1 39 39.7662 0.382328 2.20437 3.28955 3.30525 2.02979 0.188891 -0.323238 0.666924 0 0 0 0 0 0 0 0 0 
26.982 1 38 39.8781 2.24661 0.301075 -1.55461 0.475366 -1.17999 -0.147153 0.636509 -0.0547635 0 0 0 0 0 0 0 0 0 
26.982 1 237 37.463 0.161996 4.51022 7.06011 -4.71905 -7.09723 0.431665 0.634942 -0.127636 0 0 0 0 0 0 0 0 0 
26.982 1 83 0.695739 8.3092 2.10679 -1.15925 1.91793 0.882907 -0.221791 0.244858 0.339604 0 0 0 0 0 0 0 0 0 
26.982 1 242 0.932264 6.37565 4.30198 0.721308 0.272541 2.45956 -0.583635 -0.240327 0.147243 0 0 0 0 0 0 0 0 0 
26.982 1 281 -1.49261 8.13564 4.36025 4.51771 1.04013 -1.16557 0.444839 0.496802 -0.270818 0 0 0 0 0 0 0 0 0 
26.982 1 88 2.75932 10.3088 2.15029 7.50904 1.78236 3.39544 0.199827 -0.368632 0.388034 0 0 0 0 0 0 0 0 0 
26.982 1 285 2.90028 8.28731 4.52741 2.17331 1.20505 -1.05599 0.262939 0.0321003 -0.810898 0 0 0 0 0 0 0 0 0 
26.982 1 48 2.83258 6.62029 2.35754 -1.95339 -0.269948 -5.86872 0.491065 -0.520058 -0.0737174 0 0 0 0 0 0 0 0 0 
26.982 1 87 5.17826 8.50237 2.18614 1.38714 2.03887 -0.0185151 -0.572159 -0.293542 0.23774 0 0 0 0 0 0 0 0 0 
26.982 1 246 5.20281 6.43603 4.24066 3.93026 -3.33691 -0.548875 -0.331717 0.0319694 0.0496395 0 0 0 0 0 0 0 0 0 
26.982 1 289 7.30989 8.32005 4.36256 -7.46812 1.37937 -3.98583 -0.130626 -0.0431732 0.0901776 0 0 0 0 0 0 0 0 0 
26.982 1 286 5.04654 10.3519 4.24743 -2.21291 -2.93568 1.8789 0.120181 -0.250691 0.431576 0 0 0 0 0 0 0 0 0 
26.982 1 85 2.85893 8.27239 0.224298 -2.63214 0.33196 -5.47951 0.272681 0.14803 -0.0072489 0 0 0 0 0 0 0 0 0 
26.982 1 52 7.22426 6.37583 2.36581 1.90231 5.79613 3.7877 0.279179 -0.190665 -0.00538502 0 0 0 0 0 0 0 0 0 
26.982 1 92 7.14249 10.284 2.47849 3.14176 -0.692455 5.1899 0.57247 0.637314 -0.461814 0 0 0 0 0 0 0 0 0 
26.982 1 91 9.41062 8.47978 2.39269 3.04862 1.2294 -1.74335 0.112461 -0.113163 0.122898 0 0 0 0 0 0 0 0 0 
26.982 1 250 9.53013 6.37584 4.30546 -3.84345 1.76082 -2.32678 -0.309887 0.122478 0.209033 0 0 0 0 0 0 0 0 0 
26.982 1 290 9.31878 10.3645 4.57636 -5.30148 -1.24333 -1.5806 0.380024 0.120269 -0.445273 0 0 0 0 0 0 0 0 0 
26.982 1 293 11.5915 8.38036 4.45967 0.632449 -3.29773 -4.8759 0.0206335 -0.0567526 -0.342209 0 0 0 0 0 0 0 0 0 
26.982 1 89 7.34926 8.31161 0.340846 -2.61647 -1.29972 -1.03154 -0.303307 0.227469 0.110114 0 0 0 0 0 0 0 0 0 
26.982 1 56 11.7194 6.358 2.53158 -4.54874 -3.19949 -1.60352 -0.160468 0.251608 -0.465132 0 0 0 0 0 0 0 0 0 
26.982 1 95 13.7073 8.44001 2.30056 1.3857 -5.68352 -3.13865 0.00271527 -0.615394 0.184415 0 0 0 0 0 0 0 0 0 
26.982 1 254 13.7684 6.23861 4.47539 1.69752 3.30679 -1.09039 0.134744 0.467989 -0.466562 0 0 0 0 0 0 0 0 0 
26.982 1 54 13.8071 6.45924 0.318092 4.19143 5.85643 4.5162 -0.277112 -0.0943122 0.368232 0 0 0 0 0 0 0 0 0 
26.982 1 297 15.8238 8.46609 4.30591 -0.885027 1.24417 1.33658 0.160816 -0.30211 -0.0457373 0 0 0 0 0 0 0 0 0 
26.982 1 60 15.8982 6.35394 2.36302 0.216223 -1.54629 -0.233476 0.0598761 0.111618 0.194007 0 0 0 0 0 0 0 0 0 
26.982 1 99 17.9678 8.46619 2.57747 -3.83489 -1.41036 -3.9514 0.104557 0.00692701 -0.689581 0 0 0 0 0 0 0 0 0 
26.982 1 258 18.2103 6.33968 4.40465 -4.88372 2.94813 5.79044 -0.445356 -0.204322 -0.244158 0 0 0 0 0 0 0 0 0 
26.982 1 298 18.2162 10.3158 4.60587 0.629786 -1.66708 2.13598 -0.319425 0.272799 -0.435547 0 0 0 0 0 0 0 0 0 
26.982 1 100 15.9406 10.6518 2.34685 3.84963 -1.85959 6.2543 -0.0592342 -0.551897 0.292668 0 0 0 0 0 0 0 0 0 
26.982 1 98 18.1582 10.449 0.361178 3.55263 -3.04582 -0.0173887 0.00334503 -0.414907 -0.0369881 0 0 0 0 0 0 0 0 0 
26.982 1 301 20.2168 8.45879 4.3166 -3.79776 6.93056 0.068566 0.288937 -0.609399 -0.0373612 0 0 0 0 0 0 0 0 0 
26.982 1 64 20.1493 6.41586 2.28945 -1.4543 -1.16192 1.67701 -0.112737 0.06595 -0.104761 0 0 0 0 0 0 0 0 0 
26.982 1 103 22.3713 8.17894 2.09124 4.89004 -1.5324 -0.990325 0.142894 0.516056 0.575712 0 0 0 0 0 0 0 0 0 
26.982 1 262 22.3327 6.42596 4.23741 5.21279 -1.96106 -0.50896 0.126209 -0.112224 -0.0187098 0 0 0 0 0 0 0 0 0 
26.982 1 305 24.772 8.18235 4.1488 -1.67273 -8.38142 -2.38078 -0.449397 -0.00721403 0.21838 0 0 0 0 0 0 0 0 0 
26.982 1 101 20.1937 8.39005 0.230255 0.503783 1.16211 -3.38935 0.159732 0.0127966 0.32402 0 0 0 0 0 0 0 0 0 
26.982 1 68 24.5416 6.1886 2.41147 0.771725 -1.61678 -2.6747 0.115843 0.0656613 -0.479727 0 0 0 0 0 0 0 0 0 
26.982 1 107 26.943 8.12304 2.28288 0.409869 -1.88445 3.33226 -0.415153 0.055257 0.141121 0 0 0 0 0 0 0 0 0 
26.982 1 266 26.7593 6.04343 4.33011 -7.64615 3.22036 -0.718628 0.383403 0.299541 0.148827 0 0 0 0 0 0 0 0 0 
26.982 1 309 28.9556 8.11195 4.35264 -2.2647 1.41006 -5.79449 -0.000696176 0.31198 -0.0135148 0 0 0 0 0 0 0 0 0 
26.982 1 66 26.5791 6.3199 0.292011 5.33458 -0.924409 0.326642 0.369202 -0.557322 0.440704 0 0 0 0 0 0 0 0 0 
26.982 1 109 29.0296 8.31163 0.338888 0.714623 -3.58001 -3.96785 -0.374747 -0.323638 0.0111609 0 0 0 0 0 0 0 0 0 
26.982 1 72 28.959 6.2414 2.39771 3.97437 -1.63339 2.09434 -0.025678 0.190623 -0.300606 0 0 0 0 0 0 0 0 0 
26.982 1 111 31.1587 8.27416 2.36115 -3.12071 4.59369 -0.189086 -0.0642212 -0.294343 0.146609 0 0 0 0 0 0 0 0 0 
26.982 1 270 31.1373 6.27022 4.28087 2.58004 -1.54789 3.01913 0.18829 0.064355 0.0271502 0 0 0 0 0 0 0 0 0 
26.982 1 313 33.3424 8.34566 4.27509 1.56506 1.73508 -1.53558 -0.473955 -0.0456797 0.0455529 0 0 0 0 0 0 0 0 0 
26.982 1 76 33.3456 6.2613 2.38269 -1.22801 -1.16296 -0.230293 -0.229301 -0.0728166 -0.000943703 0 0 0 0 0 0 0 0 0 
26.982 1 113 33.3262 8.24147 0.456403 -2.33094 5.83972 -0.0236191 -0.386419 -0.215872 -0.11082 0 0 0 0 0 0 0 0 0 
26.982 1 310 30.9022 10.3178 4.18733 -0.943107 -4.29077 -5.26885 0.224556 -0.821756 0.0120144 0 0 0 0 0 0 0 0 0 
26.982 1 116 33.2266 10.2866 2.23842 1.29649 4.02235 0.056964 0.0331331 -0.0594685 0.0336875 0 0 0 0 0 0 0 0 0 
26.982 1 110 30.8873 10.2684 0.586034 4.20628 -1.23748 -0.156561 0.449771 0.225769 -0.638978 0 0 0 0 0 0 0 0 0 
26.982 1 115 35.5161 8.39301 2.28797 -2.47422 -3.59088 -5.46213 -0.297988 -0.390268 -0.0112022 0 0 0 0 0 0 0 0 0 
26.982 1 274 35.3568 6.43788 4.36136 -1.25746 -0.00498399 4.75595 0.517247 -0.397319 -0.213896 0 0 0 0 0 0 0 0 0 
26.982 1 317 37.5906 8.33704 4.22375 2.61718 3.80612 -1.0993 -0.194829 -0.113595 0.349884 0 0 0 0 0 0 0 0 0 
26.982 1 114 35.2876 10.3082 0.219859 0.829581 -0.224289 -0.524838 0.370719 -0.0926564 0.287931 0 0 0 0 0 0 0 0 0 
26.982 1 117 37.4656 8.33132 0.342835 2.15742 -1.77252 2.62409 0.217392 -0.368831 -0.323215 0 0 0 0 0 0 0 0 0 
26.982 1 80 37.6441 6.30727 2.40975 7.51809 -2.83567 2.52066 -0.355845 0.0399782 -0.211731 0 0 0 0 0 0 0 0 0 
26.982 1 314 35.3697 10.2789 4.29567 3.84639 -6.53803 -7.48618 0.0755057 0.210468 -0.0610387 0 0 0 0 0 0 0 0 0 
26.982 1 120 37.6518 10.1658 2.15651 2.24473 -7.45002 -0.14542 -0.109579 0.840188 0.161345 0 0 0 0 0 0 0 0 0 
26.982 1 84 41.8422 10.33 2.35567 2.18897 -1.02042 3.69579 0.297853 -0.413275 -0.505855 0 0 0 0 0 0 0 0 0 
26.982 1 44 41.9323 6.21587 2.40943 -2.96503 -0.907601 -0.0516717 -0.0801085 0.112378 -0.18385 0 0 0 0 0 0 0 0 0 
26.982 1 119 39.7189 8.19369 2.32905 1.33748 -4.85878 0.0128009 0.339919 0.359251 0.0710099 0 0 0 0 0 0 0 0 0 
26.982 1 278 39.6967 6.29875 4.33305 -0.373948 8.46427 -1.45411 0.202005 -0.365995 -0.411358 0 0 0 0 0 0 0 0 0 
26.982 1 318 39.7805 10.2041 4.1583 -1.38106 -2.83264 0.14345 -0.116494 -0.0707077 0.41412 0 0 0 0 0 0 0 0 0 
26.982 1 123 0.785755 12.2966 2.38427 -8.97005 -2.42359 -0.106719 -0.242059 0.00307657 -0.266161 0 0 0 0 0 0 0 0 0 
26.982 1 282 0.69332 10.3114 4.30748 -2.67072 1.28969 -1.8113 -0.0564612 -0.538847 -0.145854 0 0 0 0 0 0 0 0 0 
26.982 1 322 0.612409 14.3178 4.19598 4.5175 4.02413 3.8245 0.00555905 -0.2705 -0.180716 0 0 0 0 0 0 0 0 0 
26.982 1 124 -1.52411 14.2852 2.25395 2.5229 -3.9411 1.4849 -0.0594613 -0.10905 0.157097 0 0 0 0 0 0 0 0 0 
26.982 1 325 3.00652 12.109 4.37472 -0.869025 2.29898 -1.53095 -0.598771 0.39809 -0.055655 0 0 0 0 0 0 0 0 0 
26.982 1 122 0.692086 14.2116 0.270616 -0.0244071 -1.8573 1.038 0.0199944 0.176615 0.304735 0 0 0 0 0 0 0 0 0 
26.982 1 128 2.90089 14.3157 2.29839 2.13323 0.216731 1.90279 0.0908586 -0.26412 0.103276 0 0 0 0 0 0 0 0 0 
26.982 1 82 0.726085 10.476 0.124096 -4.06243 -0.191293 -5.54176 -0.085062 -0.229059 0.602512 0 0 0 0 0 0 0 0 0 
26.982 1 125 2.9097 12.2902 0.201363 -1.54773 0.604313 -0.457654 -0.0153627 0.25176 -0.0176104 0 0 0 0 0 0 0 0 0 
26.982 1 127 4.90482 12.2219 2.26971 -4.68851 -6.77973 2.6889 0.408216 0.485939 0.0105168 0 0 0 0 0 0 0 0 0 
26.982 1 326 5.03918 14.1476 4.5256 -1.03917 0.547372 -6.05234 0.0049776 0.561483 -0.71107 0 0 0 0 0 0 0 0 0 
26.982 1 126 5.24819 14.3976 0.356905 1.84984 3.13352 1.27199 -0.205552 -0.431011 0.409127 0 0 0 0 0 0 0 0 0 
26.982 1 132 7.23222 14.1757 2.3651 -0.740329 -2.38631 -0.11964 -0.295704 0.485218 0.0306641 0 0 0 0 0 0 0 0 0 
26.982 1 329 7.32309 12.3965 4.44162 -0.387442 0.271374 0.149555 -0.487612 -0.490996 -0.107212 0 0 0 0 0 0 0 0 0 
26.982 1 129 7.36347 12.3172 0.316456 1.2486 2.06294 -0.880551 -0.357942 -0.0857226 -0.0230299 0 0 0 0 0 0 0 0 0 
26.982 1 86 5.02782 10.463 0.200271 3.08216 -5.37902 -1.60879 0.112233 -0.483621 0.0985381 0 0 0 0 0 0 0 0 0 
26.982 1 131 9.33353 12.426 2.30171 -1.71196 0.205022 -2.26743 0.320136 -0.578161 0.197983 0 0 0 0 0 0 0 0 0 
26.982 1 330 9.40485 14.1347 4.45219 3.86421 -0.251735 2.84139 0.258736 1.19605 -0.634539 0 0 0 0 0 0 0 0 0 
26.982 1 333 11.618 12.3139 4.35361 2.49765 0.306726 5.79009 -0.142556 -0.337819 0.211217 0 0 0 0 0 0 0 0 0 
26.982 1 90 9.41609 10.4061 0.318785 1.22184 1.83608 1.86858 0.0834251 -0.232997 -0.0346925 0 0 0 0 0 0 0 0 0 
26.982 1 294 13.7075 10.3058 4.159 -6.118 0.747174 -2.19797 0.142571 0.567759 0.387007 0 0 0 0 0 0 0 0 0 
26.982 1 96 11.5069 10.4592 2.25369 1.31134 -2.3879 2.07003 -0.0396972 -0.242254 0.294513 0 0 0 0 0 0 0 0 0 
26.982 1 136 11.5158 14.2938 2.52891 0.535957 -6.04265 1.31388 -0.321719 0.490674 -0.477747 0 0 0 0 0 0 0 0 0 
26.982 1 135 13.6286 12.5566 2.35577 7.66848 0.573765 1.37714 0.500118 -0.489534 -0.242971 0 0 0 0 0 0 0 0 0 
26.982 1 334 13.7204 14.2627 4.44178 2.91621 0.209164 1.18148 0.163573 0.272627 -0.0604712 0 0 0 0 0 0 0 0 0 
26.982 1 134 13.645 14.4553 0.277223 3.43665 -1.95233 -6.38869 0.319315 0.0702706 0.456572 0 0 0 0 0 0 0 0 0 
26.982 1 140 15.887 14.3266 2.49026 -2.88797 -3.62967 -3.88784 0.00494547 0.00257575 -0.5536 0 0 0 0 0 0 0 0 0 
26.982 1 137 16.2562 12.4844 0.450015 -1.22818 3.21432 -1.91343 -0.879258 0.189652 -0.606885 0 0 0 0 0 0 0 0 0 
26.982 1 133 11.6962 12.3774 0.303478 -0.906708 -4.93409 5.34002 -0.222342 0.122624 0.156422 0 0 0 0 0 0 0 0 0 
26.982 1 337 15.9724 12.4847 4.41882 2.34073 2.56994 -0.753308 0.011854 -0.544604 -0.288566 0 0 0 0 0 0 0 0 0 
26.982 1 139 18.2088 12.2544 2.43259 0.617943 -0.209807 -0.243194 0.101902 0.191647 0.167095 0 0 0 0 0 0 0 0 0 
26.982 1 338 18.2214 14.3016 4.24965 -0.588756 -6.19224 2.19588 -0.180977 -0.114638 0.332669 0 0 0 0 0 0 0 0 0 
26.982 1 341 20.3591 12.3474 4.43238 2.03757 3.85135 -5.12482 -0.142617 0.050059 -0.0142992 0 0 0 0 0 0 0 0 0 
26.982 1 138 18.24 14.3234 0.356377 -4.2515 3.67366 -2.09786 -0.181542 0.127448 0.133246 0 0 0 0 0 0 0 0 0 
26.982 1 144 20.3928 14.2417 2.36363 5.67758 2.36729 0.889537 -0.0872686 0.194887 -0.0319871 0 0 0 0 0 0 0 0 0 
26.982 1 104 20.336 10.3834 2.41998 2.3439 -1.69015 5.86946 -0.0859113 -0.08982 -0.469877 0 0 0 0 0 0 0 0 0 
26.982 1 302 22.462 10.2041 4.33398 -6.01135 1.25229 -0.685365 0.287958 -0.2572 -0.19874 0 0 0 0 0 0 0 0 0 
26.982 1 142 22.4959 14.2861 0.570951 0.574245 0.0320066 1.9598 0.129424 0.0774138 -0.134656 0 0 0 0 0 0 0 0 0 
26.982 1 143 22.5071 12.2467 2.60259 -8.69998 -3.67468 4.1421 0.0354615 -0.0659619 -0.846498 0 0 0 0 0 0 0 0 0 
26.982 1 342 22.6599 14.2738 4.37945 -3.50388 -4.31801 0.862846 -0.703901 -0.334086 -0.0633304 0 0 0 0 0 0 0 0 0 
26.982 1 148 24.6423 14.1959 2.47193 0.809257 1.8506 2.95936 -0.005311 0.137578 -0.644466 0 0 0 0 0 0 0 0 0 
26.982 1 108 24.7229 10.1134 2.24234 -1.48238 -2.19211 -2.35316 -0.396686 0.444324 0.286844 0 0 0 0 0 0 0 0 0 
26.982 1 112 28.7626 10.2741 2.30051 2.13304 3.95054 -2.40743 0.233466 -0.163118 0.0931717 0 0 0 0 0 0 0 0 0 
26.982 1 306 26.7873 10.1479 4.3011 -2.94406 1.24744 3.27189 0.173961 0.255959 -0.160763 0 0 0 0 0 0 0 0 0 
26.982 1 345 24.7587 12.1089 4.20378 3.85929 -0.963887 3.72439 -0.226803 -0.146511 0.37583 0 0 0 0 0 0 0 0 0 
26.982 1 147 26.7644 12.3032 2.09053 4.37611 3.77496 -1.72454 -0.100003 -0.164446 0.691787 0 0 0 0 0 0 0 0 0 
26.982 1 346 26.6547 14.2118 4.39722 1.33487 0.469111 -2.53402 0.569819 -0.0299622 -0.0114593 0 0 0 0 0 0 0 0 0 
26.982 1 152 28.9745 14.2654 2.24252 -1.60904 1.74677 -1.09105 0.0814626 0.129047 0.140034 0 0 0 0 0 0 0 0 0 
26.982 1 349 28.7819 12.2434 4.11203 -1.31032 1.16412 -1.50977 0.0692979 0.280199 0.55602 0 0 0 0 0 0 0 0 0 
26.982 1 151 31.1613 12.2677 2.41093 7.56874 0.398806 0.66306 -0.442883 0.533838 -0.344562 0 0 0 0 0 0 0 0 0 
26.982 1 350 31.3108 14.376 4.37443 -3.93713 -3.79398 0.594403 -1.35863 -0.618955 -0.0490882 0 0 0 0 0 0 0 0 0 
26.982 1 150 31.1159 14.3454 0.388363 1.49933 -0.385456 1.78913 -0.47836 0.137674 0.217626 0 0 0 0 0 0 0 0 0 
26.982 1 153 33.2184 12.428 0.394741 2.79491 2.42946 -3.46047 0.0099083 -0.341425 0.0866905 0 0 0 0 0 0 0 0 0 
26.982 1 156 33.1924 14.3752 2.40877 6.95157 -1.88845 1.44266 0.167325 -0.221084 -0.434757 0 0 0 0 0 0 0 0 0 
26.982 1 353 33.1863 12.1868 4.20049 4.3908 -0.910301 -0.161279 0.391801 0.0813909 0.40529 0 0 0 0 0 0 0 0 0 
26.982 1 155 35.3922 12.1786 2.22114 0.161368 -1.76432 -3.95021 0.220644 0.192096 0.515094 0 0 0 0 0 0 0 0 0 
26.982 1 354 35.1717 14.3545 4.41396 -0.456331 2.5059 3.57154 0.586694 -0.617316 0.00403589 0 0 0 0 0 0 0 0 0 
26.982 1 160 37.4642 14.1855 2.40188 0.285462 0.915005 -2.67177 -0.051272 -0.230206 0.247681 0 0 0 0 0 0 0 0 0 
26.982 1 357 37.7068 12.0385 4.23251 -2.34791 -0.364666 -0.608925 -0.534725 0.522456 -0.265135 0 0 0 0 0 0 0 0 0 
26.982 1 157 37.5974 12.3556 0.127044 -0.853404 -1.07196 -4.35068 -0.00159705 -0.697359 0.777251 0 0 0 0 0 0 0 0 0 
26.982 1 321 41.72 12.1961 4.25836 -0.227748 2.08003 -4.15073 0.392784 0.425285 0.2701 0 0 0 0 0 0 0 0 0 
26.982 1 159 39.6698 12.3 2.34691 4.56602 4.55315 -2.06317 0.0145894 -0.0884683 -0.650862 0 0 0 0 0 0 0 0 0 
26.982 1 358 39.6932 14.2164 4.34932 2.43861 1.42559 1.0739 0.209894 0.0036154 -0.409531 0 0 0 0 0 0 0 0 0 
26.982 1 158 39.6678 14.2869 0.257672 -0.144418 -0.675475 1.04426 0.078103 -0.0174481 0.126 0 0 0 0 0 0 0 0 0 
26.982 1 163 0.537812 16.2199 2.17276 0.537216 -1.78679 4.88483 0.319643 -0.362204 0.763415 0 0 0 0 0 0 0 0 0 
26.982 1 362 0.545562 18.0828 4.36268 4.64673 -5.99724 -3.30067 0.265362 0.514808 -0.380609 0 0 0 0 0 0 0 0 0 
26.982 1 164 -1.63996 18.2456 2.16977 2.9711 1.66392 0.00736302 0.278119 -0.0328322 0.960597 0 0 0 0 0 0 0 0 0 
26.982 1 168 2.82773 18.2058 2.31753 -5.0935 -3.29527 -1.0147 -0.08772 0.0203536 0.350978 0 0 0 0 0 0 0 0 0 
26.982 1 361 -1.50333 16.1692 4.34784 4.37425 1.78433 0.915012 -0.369637 0.179475 -0.38852 0 0 0 0 0 0 0 0 0 
26.982 1 365 2.86755 16.2535 4.23343 -0.363061 4.4319 -1.36583 0.00932994 0.0400483 0.220141 0 0 0 0 0 0 0 0 0 
26.982 1 167 5.11774 16.4254 2.39729 1.67317 -1.43162 1.22544 0.135875 -0.595046 0.0769017 0 0 0 0 0 0 0 0 0 
26.982 1 366 5.01408 18.3331 4.3351 -0.719393 4.33747 -1.78691 0.246568 -0.0506025 -0.173878 0 0 0 0 0 0 0 0 0 
26.982 1 169 7.42949 16.2894 0.416741 2.51794 1.53715 -1.74426 -0.430264 -0.0578962 0.206449 0 0 0 0 0 0 0 0 0 
26.982 1 172 7.27509 18.367 2.3811 3.49004 -1.24163 -6.47236 -0.180819 -0.108541 -0.162014 0 0 0 0 0 0 0 0 0 
26.982 1 369 7.22107 16.1702 4.36328 0.116431 1.93247 -0.517045 -0.0462543 0.287092 0.0735179 0 0 0 0 0 0 0 0 0 
26.982 1 2209 7.26278 20.2882 4.31785 0.0742129 -7.2408 8.6091 -0.00395951 -0.106217 0.153783 0 0 0 0 0 0 0 0 0 
26.982 1 171 9.41424 16.407 2.57385 -0.913921 0.868593 -5.51094 0.160015 -0.537119 -0.392481 0 0 0 0 0 0 0 0 0 
26.982 1 370 9.36263 18.2741 4.50678 3.03761 -2.43056 -2.67391 0.0685861 0.144715 -0.0493327 0 0 0 0 0 0 0 0 0 
26.982 1 2011 9.45652 20.2558 2.30692 2.55289 1.45724 0.864723 0.00594678 -0.0958488 0.0292796 0 0 0 0 0 0 0 0 0 
26.982 1 176 11.6319 18.3583 2.36841 -2.2899 6.92613 -1.36199 -0.194383 -0.00573424 -0.288817 0 0 0 0 0 0 0 0 0 
26.982 1 173 11.5467 16.3469 0.267787 -0.43444 2.4099 6.24768 0.329365 0.113289 0.502412 0 0 0 0 0 0 0 0 0 
26.982 1 2013 11.6222 20.3295 0.285619 3.40673 4.83802 -3.2881 -0.0409379 -0.187391 0.144944 0 0 0 0 0 0 0 0 0 
26.982 1 170 9.4848 18.2248 0.356417 -4.0393 -2.64654 -0.37767 -0.114062 0.474258 0.237971 0 0 0 0 0 0 0 0 0 
26.982 1 373 11.7223 16.468 4.41102 -0.72705 5.86597 -0.290421 -0.613681 -0.554156 0.0707173 0 0 0 0 0 0 0 0 0 
26.982 1 175 13.5808 16.2786 2.3784 -1.41471 3.59713 0.173653 0.377964 -0.210393 -0.332996 0 0 0 0 0 0 0 0 0 
26.982 1 374 13.7563 18.2233 4.2674 -1.39667 -2.32313 -0.158444 -0.00933424 0.210038 0.488268 0 0 0 0 0 0 0 0 0 
26.982 1 174 13.8327 18.4208 0.344695 -1.28237 0.215781 3.6568 -0.274575 -0.400947 0.0285446 0 0 0 0 0 0 0 0 0 
26.982 1 180 15.7675 18.1839 2.48667 -2.66911 2.09656 3.81323 0.546519 -0.258876 -0.489944 0 0 0 0 0 0 0 0 0 
26.982 1 377 15.9306 16.169 4.44754 1.53273 -2.6818 -4.5971 0.10814 0.29943 -0.0433479 0 0 0 0 0 0 0 0 0 
26.982 1 179 18.0365 16.2662 2.28613 2.84623 4.94993 2.79942 0.103421 0.147019 0.293405 0 0 0 0 0 0 0 0 0 
26.982 1 378 18.0719 18.2467 4.44667 1.33297 2.08832 -4.66065 -0.077915 -0.27783 -0.171673 0 0 0 0 0 0 0 0 0 
26.982 1 178 18.1587 18.288 0.424532 1.36562 -1.51197 2.33407 -0.195038 -0.0111573 -0.127509 0 0 0 0 0 0 0 0 0 
26.982 1 2021 20.2007 20.3509 0.317787 -0.696303 -0.791038 -4.38491 -0.0469381 -0.353019 0.610769 0 0 0 0 0 0 0 0 0 
26.982 1 177 15.8888 16.1894 0.377111 0.527079 6.6652 -3.4569 0.0357801 0.567844 0.324642 0 0 0 0 0 0 0 0 0 
26.982 1 184 20.2681 18.1546 2.37549 3.19053 -1.13532 7.60089 -0.119313 0.19049 -0.175058 0 0 0 0 0 0 0 0 0 
26.982 1 381 20.2487 16.1588 4.34421 -1.10827 1.24708 0.782873 0.325882 -0.113006 -0.176594 0 0 0 0 0 0 0 0 0 
26.982 1 183 22.6581 16.3795 2.56926 0.533724 1.86023 0.397797 -0.412741 -0.48875 -0.695958 0 0 0 0 0 0 0 0 0 
26.982 1 382 22.3485 18.3403 4.23205 0.646447 4.32489 4.27806 0.291639 0.0750813 0.723907 0 0 0 0 0 0 0 0 0 
26.982 1 188 24.6217 18.3655 2.34978 1.255 -1.82744 -3.50788 0.188714 -0.0048607 0.0981428 0 0 0 0 0 0 0 0 0 
26.982 1 385 24.7196 16.1823 4.4682 -2.93211 -4.13101 3.71946 0.289622 0.549772 -0.061089 0 0 0 0 0 0 0 0 0 
26.982 1 187 26.7635 16.1178 2.34354 -4.47622 -1.02202 1.96629 -0.119332 0.665147 0.0588478 0 0 0 0 0 0 0 0 0 
26.982 1 386 26.6284 18.3761 4.40298 -0.139379 0.439847 -0.763168 0.284808 -0.604999 -0.285995 0 0 0 0 0 0 0 0 0 
26.982 1 389 28.8005 16.2183 4.37136 -2.31083 -1.47061 -2.04347 0.349405 0.0334275 -0.0677924 0 0 0 0 0 0 0 0 0 
26.982 1 2027 26.7692 20.4539 2.39371 6.11115 1.26864 -0.112745 -0.102456 -0.505013 -0.0378442 0 0 0 0 0 0 0 0 0 
26.982 1 192 28.8384 18.3226 2.40649 -0.0673844 -0.0995538 -3.2287 -0.270897 0.0100339 0.2681 0 0 0 0 0 0 0 0 0 
26.982 1 191 31.0993 16.4575 2.46915 1.23436 2.93165 5.13404 -0.314248 -0.430885 -0.236272 0 0 0 0 0 0 0 0 0 
26.982 1 390 30.8908 18.3671 4.48967 4.36709 0.710945 -3.98119 0.139067 0.23682 -0.0171282 0 0 0 0 0 0 0 0 0 
26.982 1 393 33.1017 16.2248 4.4215 1.15363 3.19165 -4.1161 0.613811 0.884932 0.186905 0 0 0 0 0 0 0 0 0 
26.982 1 2229 28.7852 20.3378 4.49937 0.0513544 3.21119 -3.61404 0.208291 0.101421 -0.355331 0 0 0 0 0 0 0 0 0 
26.982 1 196 33.1764 18.2655 2.43125 -1.16945 -2.768 -3.19022 -0.0871832 0.224437 -0.164388 0 0 0 0 0 0 0 0 0 
26.982 1 195 35.2266 16.2995 2.54697 1.56073 8.56798 1.67627 0.289483 0.00617772 -0.716086 0 0 0 0 0 0 0 0 0 
26.982 1 394 35.3078 18.3165 4.38018 3.14492 -0.456984 -5.68703 -0.0813211 -0.233653 -0.0919056 0 0 0 0 0 0 0 0 0 
26.982 1 197 37.4944 16.1199 0.543266 1.45804 3.23598 4.50107 -0.177927 0.498004 -0.430726 0 0 0 0 0 0 0 0 0 
26.982 1 397 37.5615 16.2752 4.22053 -3.55011 0.522842 -2.41967 -0.285936 -0.109065 0.22916 0 0 0 0 0 0 0 0 0 
26.982 1 2035 35.2708 20.3211 2.39475 -2.08259 -2.34565 -5.46122 0.0401892 -0.124158 -0.0187958 0 0 0 0 0 0 0 0 0 
26.982 1 2233 33.1637 20.2955 4.4218 6.02097 -2.65167 -3.97089 -0.398191 0.214049 -0.461021 0 0 0 0 0 0 0 0 0 
26.982 1 2037 37.411 20.2151 0.367512 -3.02206 1.0659 -0.309954 0.537083 0.437498 0.328104 0 0 0 0 0 0 0 0 0 
26.982 1 161 41.6632 16.3773 0.375141 7.35364 -4.38685 0.797395 0.0892608 -0.457967 -0.620146 0 0 0 0 0 0 0 0 0 
26.982 1 200 37.4223 18.3453 2.30393 0.265305 0.899813 3.14209 0.0512071 -0.429045 0.00202135 0 0 0 0 0 0 0 0 0 
26.982 1 199 39.6385 16.2587 2.26954 3.275 2.08361 2.48589 -0.0422455 -0.043013 0.137138 0 0 0 0 0 0 0 0 0 
26.982 1 398 39.6156 18.1665 4.26722 -8.18114 -3.50926 -4.38823 -0.0784475 0.0501156 0.174183 0 0 0 0 0 0 0 0 0 
26.982 1 2201 41.7192 20.1055 4.28133 1.27203 -1.5842 -5.68389 0.487539 0.452857 -0.218608 0 0 0 0 0 0 0 0 0 
26.982 1 243 0.886718 4.36726 6.35571 -2.71434 -2.52624 3.15859 -0.690643 0.161436 -0.66081 0 0 0 0 0 0 0 0 0 
26.982 1 402 0.861689 2.39134 8.25079 -1.87946 1.9063 -5.90718 -0.348547 -0.250846 0.682389 0 0 0 0 0 0 0 0 0 
26.982 1 443 0.756692 4.29581 10.5233 0.263603 6.83716 -2.25698 0.251072 -0.104365 -0.246347 0 0 0 0 0 0 0 0 0 
26.982 1 204 -1.26032 2.33042 6.52064 1.0394 -2.75602 -5.61351 -0.541875 -0.0391836 -0.206832 0 0 0 0 0 0 0 0 0 
26.982 1 404 -1.34583 2.28203 10.2267 -0.0155459 4.72624 -7.5041 0.00809623 0.200761 0.282978 0 0 0 0 0 0 0 0 0 
26.982 1 203 0.604205 0.293853 6.4305 -0.982476 -1.595 2.12425 0.252032 -0.113387 -0.402868 0 0 0 0 0 0 0 0 0 
26.982 1 208 2.94542 2.60205 6.32621 5.0488 -1.53345 -0.295215 0.350256 -0.926699 0.134338 0 0 0 0 0 0 0 0 0 
26.982 1 445 2.80759 4.25162 8.32558 0.20744 1.45338 -1.65571 0.785667 0.442531 0.937052 0 0 0 0 0 0 0 0 0 
26.982 1 247 5.28678 4.42735 6.23531 -0.318336 1.11262 4.63431 -0.546601 -0.547953 0.37981 0 0 0 0 0 0 0 0 0 
26.982 1 406 5.06539 2.37258 8.38068 1.50361 -2.45968 -2.72471 0.075478 -0.00136833 -0.0249824 0 0 0 0 0 0 0 0 0 
26.982 1 412 7.15833 2.53616 10.5694 -4.3936 4.26798 2.35448 0.415354 -0.384703 -0.664078 0 0 0 0 0 0 0 0 0 
26.982 1 405 2.71761 0.243815 8.36809 0.795388 2.85493 3.19922 0.459692 0.263598 -0.29713 0 0 0 0 0 0 0 0 0 
26.982 1 447 5.10748 4.30341 10.4986 -1.17123 2.66391 0.245892 -0.435913 0.0372753 -0.59735 0 0 0 0 0 0 0 0 0 
26.982 1 409 7.31663 0.517579 8.5017 -2.8165 -6.08325 -2.3086 -0.244101 -0.0851268 0.00284964 0 0 0 0 0 0 0 0 0 
26.982 1 211 9.27278 0.337529 6.37958 9.7599 0.487175 4.68696 0.580756 -0.039799 -0.0248593 0 0 0 0 0 0 0 0 0 
26.982 1 449 7.31628 4.26783 8.19779 -1.38552 2.86806 2.7023 -0.101682 0.278201 0.707846 0 0 0 0 0 0 0 0 0 
26.982 1 212 7.35208 2.26638 6.50943 -0.380172 -4.14638 0.0394778 -0.299278 0.186235 -0.827948 0 0 0 0 0 0 0 0 0 
26.982 1 251 9.47096 4.48192 6.31974 2.89097 -2.16506 5.67283 -0.00859936 -0.173576 0.118436 0 0 0 0 0 0 0 0 0 
26.982 1 410 9.43122 2.42871 8.38728 4.11653 2.38741 -1.24951 -0.0308594 0.245466 0.0323927 0 0 0 0 0 0 0 0 0 
26.982 1 451 9.40257 4.46969 10.3792 -3.20074 -3.46178 0.632861 -0.102801 0.0607111 0.106362 0 0 0 0 0 0 0 0 0 