ITEM: TIMESTEP
5450
ITEM: NUMBER OF ATOMS
4000
ITEM: BOX BOUNDS pp pp pp
-1.18186 41.6819
0.290432 40.2096
0.31308 40.1869
ITEM: ATOMS mass type id x y z vx vy vz fx fy fz xrad yrad zrad vxrad vyrad vzrad fxrad fyrad fzrad 
26.982 1 3 1.02385 0.391594 2.22738 3.81401 -3.01702 -1.71768 -0.0750535 -0.13596 0.0509613 0 0 0 0 0 0 0 0 0 
26.982 1 8 3.18623 2.29395 2.36314 2.27747 -2.76 2.67703 0.0693752 -0.286308 -0.0893741 0 0 0 0 0 0 0 0 0 
26.982 1 43 1.12803 4.11851 2.30981 1.18365 -1.4036 0.60965 -0.373098 0.754422 0.0288318 0 0 0 0 0 0 0 0 0 
26.982 1 202 0.980086 2.3686 4.34307 3.48044 0.203335 0.112844 -0.00671464 -0.471047 0.161908 0 0 0 0 0 0 0 0 0 
26.982 1 205 3.03037 0.238191 4.28803 0.645165 0.0254905 -0.677698 0.425874 -0.00410988 -0.00872907 0 0 0 0 0 0 0 0 0 
26.982 1 201 -1.20654 0.38894 4.42743 4.72804 -1.34137 3.76957 0.153491 -0.316393 -0.208057 0 0 0 0 0 0 0 0 0 
26.982 1 245 3.25662 4.2998 4.36482 -6.7588 1.94271 2.76393 -0.538511 -0.224167 -0.0833599 0 0 0 0 0 0 0 0 0 
26.982 1 47 5.29954 4.15747 2.30366 -2.34813 1.11058 3.42176 0.0212035 0.297957 -0.256861 0 0 0 0 0 0 0 0 0 
26.982 1 206 5.4538 2.24923 4.20934 0.206517 -0.752913 1.75171 -0.513191 -0.253289 0.246276 0 0 0 0 0 0 0 0 0 
26.982 1 49 7.31243 4.27427 0.315853 2.77484 1.82912 0.605516 0.363091 -0.0707776 0.248665 0 0 0 0 0 0 0 0 0 
26.982 1 12 7.43229 2.01551 2.30434 -3.25631 1.81812 -4.28025 -0.0251693 0.745286 -0.493216 0 0 0 0 0 0 0 0 0 
26.982 1 249 7.45978 4.2243 4.02793 -1.4027 4.00249 -7.51446 0.159437 0.159178 0.509791 0 0 0 0 0 0 0 0 0 
26.982 1 51 9.55356 4.15755 2.23286 0.57558 0.228078 -2.26352 -0.0504177 0.324432 0.138921 0 0 0 0 0 0 0 0 0 
26.982 1 210 9.69242 2.27185 4.26904 8.33981 -0.0103019 -0.136598 -0.244327 0.312842 0.0900348 0 0 0 0 0 0 0 0 0 
26.982 1 11 9.53785 0.362641 2.04168 -2.52105 1.5132 7.47302 0.394352 -0.21147 0.368793 0 0 0 0 0 0 0 0 0 
26.982 1 10 9.65726 2.40769 0.156412 0.600143 -1.15304 1.48959 -0.334742 -0.523919 0.217588 0 0 0 0 0 0 0 0 0 
26.982 1 9 7.43241 0.250598 0.23333 -4.05617 -0.433913 2.89772 -0.0847127 -0.00250885 -0.339536 0 0 0 0 0 0 0 0 0 
26.982 1 209 7.55008 0.328465 4.32727 1.58566 -2.2207 5.80798 -0.299879 -0.224506 0.0596164 0 0 0 0 0 0 0 0 0 
26.982 1 16 11.6081 2.25403 2.2231 -1.55493 1.31302 -1.32099 0.42364 0.133877 -0.0327588 0 0 0 0 0 0 0 0 0 
26.982 1 253 11.8863 4.26092 4.27352 0.427305 -1.66056 1.61495 -0.688628 -0.0652815 -0.0149357 0 0 0 0 0 0 0 0 0 
26.982 1 55 13.7608 4.26524 2.09958 -1.28171 -2.37279 -3.7099 0.37579 -0.184268 0.229017 0 0 0 0 0 0 0 0 0 
26.982 1 214 13.9449 2.43929 4.29867 -7.80372 -3.67029 4.84049 -0.137244 -0.0576829 -0.655463 0 0 0 0 0 0 0 0 0 
26.982 1 20 15.9532 2.27181 2.08295 4.53926 1.59418 0.122077 -0.166179 0.427719 0.609248 0 0 0 0 0 0 0 0 0 
26.982 1 257 16.1109 4.40219 4.25323 2.97999 -0.628596 2.35977 -0.546138 -0.126996 -0.367495 0 0 0 0 0 0 0 0 0 
26.982 1 218 17.9651 2.40815 4.10106 0.69708 -0.774853 -0.697974 0.291514 -0.517238 0.547467 0 0 0 0 0 0 0 0 0 
26.982 1 18 18.1291 2.29812 0.218112 0.902915 3.28873 -4.99167 0.243698 0.0605049 0.0990826 0 0 0 0 0 0 0 0 0 
26.982 1 59 18.2031 4.30878 2.28895 -4.27456 0.216158 -3.64503 -0.331106 0.0164319 -0.561055 0 0 0 0 0 0 0 0 0 
26.982 1 261 20.0271 4.43912 4.30654 -2.65549 2.84098 -2.62417 0.855364 -0.650943 -0.391234 0 0 0 0 0 0 0 0 0 
26.982 1 221 20.1573 0.367675 4.2756 2.2245 0.591425 1.03754 -0.183507 -0.452374 0.239651 0 0 0 0 0 0 0 0 0 
26.982 1 24 20.2453 2.27244 2.28964 -6.59028 -4.094 3.76929 0.0785315 0.332767 -0.303088 0 0 0 0 0 0 0 0 0 
26.982 1 63 22.3614 4.26553 2.19559 5.91285 0.584767 -2.21924 -0.325242 -0.15 0.229193 0 0 0 0 0 0 0 0 0 
26.982 1 222 22.2489 2.39741 4.35215 -3.66667 2.2238 1.87154 0.0609757 -0.409554 -0.644119 0 0 0 0 0 0 0 0 0 
26.982 1 23 22.237 0.183174 2.26715 -2.42405 -4.31894 1.11771 0.409409 0.183433 0.00310791 0 0 0 0 0 0 0 0 0 
26.982 1 28 24.5231 2.36443 2.36942 -6.20855 -1.29207 4.211 -0.415524 -0.448676 0.0435033 0 0 0 0 0 0 0 0 0 
26.982 1 265 24.3951 4.2983 4.24474 -2.7121 -7.52539 2.61192 0.258743 0.131966 0.250861 0 0 0 0 0 0 0 0 0 
26.982 1 67 26.6529 4.25979 2.44914 0.267952 -2.0213 -2.09617 -0.032523 0.409412 0.00855472 0 0 0 0 0 0 0 0 0 
26.982 1 226 26.5989 2.29856 4.30868 4.03294 3.24659 -0.86567 0.139468 -0.0432258 0.237951 0 0 0 0 0 0 0 0 0 
26.982 1 32 28.685 2.35365 2.26058 4.35962 3.82814 0.100814 0.248681 -0.384229 0.211998 0 0 0 0 0 0 0 0 0 
26.982 1 269 28.8973 4.34004 4.35204 -3.56772 -8.01569 -1.16738 -0.744156 -0.397182 -0.101808 0 0 0 0 0 0 0 0 0 
26.982 1 225 24.3886 0.154828 4.23195 7.53877 -5.38545 5.72152 -0.0355563 0.277035 -0.0648009 0 0 0 0 0 0 0 0 0 
26.982 1 71 30.8988 4.26985 2.33176 2.65281 -3.81874 3.05112 0.101621 0.30719 -0.0923576 0 0 0 0 0 0 0 0 0 
26.982 1 230 30.7665 2.273 4.19987 -0.772896 -3.87284 -5.50986 0.219962 -0.130915 0.330271 0 0 0 0 0 0 0 0 0 
26.982 1 233 33.1238 0.457808 4.39546 8.29236 8.19894 3.57245 -0.111696 -0.363583 -0.0734343 0 0 0 0 0 0 0 0 0 
26.982 1 30 30.8136 2.32787 0.307175 -1.57932 -4.26773 -1.96349 0.1788 -0.247624 0.257985 0 0 0 0 0 0 0 0 0 
26.982 1 273 33.0218 4.13652 4.27545 -1.19671 2.34552 -2.22664 0.332352 0.123677 -0.147879 0 0 0 0 0 0 0 0 0 
26.982 1 36 32.8713 2.11188 2.30242 0.899287 0.282478 -1.48527 0.548325 0.741588 -0.158552 0 0 0 0 0 0 0 0 0 
26.982 1 35 35.0992 0.322623 2.17881 -4.3695 -0.906501 -5.29708 0.507223 0.135179 0.0829381 0 0 0 0 0 0 0 0 0 
26.982 1 75 35.3374 4.15119 2.33192 5.60643 1.3907 1.37293 -0.476442 0.270267 -0.207305 0 0 0 0 0 0 0 0 0 
26.982 1 234 35.2954 2.21327 4.21932 3.69045 -1.19484 5.23555 -0.26817 -0.0263704 0.0892001 0 0 0 0 0 0 0 0 0 
26.982 1 277 37.3085 4.17117 4.33166 0.0864125 0.00745026 6.30427 0.226868 0.250509 0.353438 0 0 0 0 0 0 0 0 0 
26.982 1 77 37.4734 4.2263 0.273126 2.71986 -3.3557 2.18746 0.138216 0.0952927 0.0251391 0 0 0 0 0 0 0 0 0 
26.982 1 40 37.5111 2.29172 2.39838 0.728566 -0.0883617 1.28879 -0.318769 -0.286278 -0.283242 0 0 0 0 0 0 0 0 0 
26.982 1 41 41.5796 4.28821 0.577825 -1.81745 3.83072 4.06466 0.668586 0.0613488 -0.793181 0 0 0 0 0 0 0 0 0 
26.982 1 241 41.6048 4.43991 4.24772 -2.03778 -0.388699 -2.57568 0.160673 -0.362663 0.107662 0 0 0 0 0 0 0 0 0 
26.982 1 4 41.8033 2.33528 2.34315 3.0428 -4.21423 5.53954 -0.350367 -0.504517 0.137819 0 0 0 0 0 0 0 0 0 
26.982 1 79 39.5151 4.18338 2.33629 8.22176 0.0376867 -4.72968 -0.0769942 0.212964 0.032192 0 0 0 0 0 0 0 0 0 
26.982 1 238 39.5616 2.30317 4.35889 1.83991 1.31696 -2.15319 0.0758616 -0.0607798 0.325266 0 0 0 0 0 0 0 0 0 
26.982 1 83 0.863012 8.26511 2.27092 -2.33107 5.87412 0.699668 0.0946617 -0.00526109 0.172489 0 0 0 0 0 0 0 0 0 
26.982 1 242 0.907689 6.32627 4.48759 1.7752 1.17531 -0.491451 0.188942 -0.357132 -0.536582 0 0 0 0 0 0 0 0 0 
26.982 1 285 3.03458 8.20148 4.30356 1.89891 -4.01229 -0.637819 0.0187489 -0.106795 0.0956373 0 0 0 0 0 0 0 0 0 
26.982 1 42 1.00731 6.28338 0.291256 -3.45281 3.07081 -1.28082 -0.184893 -0.172621 0.31409 0 0 0 0 0 0 0 0 0 
26.982 1 48 3.05805 6.19295 2.40743 1.72382 -2.65664 -4.37206 -0.25632 0.132059 -0.367783 0 0 0 0 0 0 0 0 0 
26.982 1 85 3.10309 8.28676 0.494384 5.15437 -3.07547 1.11568 -0.0204482 -0.0700855 -0.412819 0 0 0 0 0 0 0 0 0 
26.982 1 44 -1.32477 6.40645 2.32665 -1.1704 8.62241 3.79249 0.3805 -0.581068 -0.620621 0 0 0 0 0 0 0 0 0 
26.982 1 87 5.26344 8.31805 2.25522 -0.706122 5.30135 0.941779 -0.0538811 -0.0624928 0.801202 0 0 0 0 0 0 0 0 0 
26.982 1 246 5.09236 6.20034 4.18554 -3.69263 2.68657 -0.232011 0.833793 0.460981 0.238703 0 0 0 0 0 0 0 0 0 
26.982 1 52 7.47389 6.43997 2.32472 0.415637 -1.11208 -2.75567 -0.475412 -0.687166 0.0797578 0 0 0 0 0 0 0 0 0 
26.982 1 289 7.39667 8.35775 4.37464 -2.82831 -2.46727 -2.30024 -0.0286521 0.032991 -0.638908 0 0 0 0 0 0 0 0 0 
26.982 1 89 7.34684 8.23258 0.307845 -3.67654 1.58703 2.24741 0.101458 0.119806 -0.366429 0 0 0 0 0 0 0 0 0 
26.982 1 286 5.11932 10.2792 4.35559 1.03908 -1.17596 3.78785 0.520186 -0.0898368 -0.322223 0 0 0 0 0 0 0 0 0 
26.982 1 88 3.10246 10.3052 2.3751 1.64713 3.0307 -1.14686 -0.0796644 -0.227663 0.066673 0 0 0 0 0 0 0 0 0 
26.982 1 92 7.3886 10.2909 2.17421 0.271077 -4.0505 -1.54224 0.0757763 0.155708 0.4944 0 0 0 0 0 0 0 0 0 
26.982 1 91 9.4175 8.27846 2.06795 -2.18469 -6.5607 -1.1093 0.525444 0.255199 0.485988 0 0 0 0 0 0 0 0 0 
26.982 1 250 9.57785 6.33127 4.14072 -3.05434 0.607614 -3.22464 -0.0739267 -0.434471 0.287681 0 0 0 0 0 0 0 0 0 
26.982 1 50 9.5828 6.2608 0.314722 -1.95486 1.22906 0.266118 -0.255427 -0.181255 -0.267119 0 0 0 0 0 0 0 0 0 
26.982 1 290 9.58049 10.1636 3.99739 0.448316 -3.24613 1.07496 -0.269604 -0.228245 0.71834 0 0 0 0 0 0 0 0 0 
26.982 1 93 11.6023 8.39997 0.399155 1.50114 1.12166 1.78076 0.374152 -0.197607 0.12323 0 0 0 0 0 0 0 0 0 
26.982 1 56 11.6669 6.20597 2.27041 0.444986 -0.809223 1.28886 -0.0138949 0.438571 0.10498 0 0 0 0 0 0 0 0 0 
26.982 1 293 11.6182 8.19816 4.30761 -0.94234 -1.19872 -1.75772 0.419049 -0.0499235 -0.334801 0 0 0 0 0 0 0 0 0 
26.982 1 95 13.876 8.39728 2.35042 -1.95516 3.50701 -3.50872 -0.0436775 -0.414204 0.194973 0 0 0 0 0 0 0 0 0 
26.982 1 254 13.8124 6.18809 4.19139 -4.41265 2.34763 -4.04191 0.314623 0.400586 0.096868 0 0 0 0 0 0 0 0 0 
26.982 1 60 15.9834 6.31436 2.25649 1.08938 -0.663586 -3.95749 0.0575728 -0.130458 -0.0979397 0 0 0 0 0 0 0 0 0 
26.982 1 297 16.1508 8.16565 4.30518 1.74087 -2.04031 -1.27231 -0.487901 0.488519 -0.0999163 0 0 0 0 0 0 0 0 0 
26.982 1 294 13.9222 10.1228 4.52887 1.35404 1.37973 1.416 -0.109433 0.199981 -0.319345 0 0 0 0 0 0 0 0 0 
26.982 1 94 13.9887 10.3082 0.41422 7.80672 -1.35285 -1.65657 -0.270136 -0.0959245 -0.456033 0 0 0 0 0 0 0 0 0 
26.982 1 99 18.215 8.21508 2.22729 5.32472 7.88863 -1.71438 -0.283156 0.183882 -0.156295 0 0 0 0 0 0 0 0 0 
26.982 1 258 18.1718 6.3676 4.32404 0.0490774 -3.10162 -2.09197 -0.189162 0.379925 -0.0404151 0 0 0 0 0 0 0 0 0 
26.982 1 301 20.2809 8.28237 4.24451 3.76195 0.824151 2.47404 0.124798 0.00527156 -0.362257 0 0 0 0 0 0 0 0 0 
26.982 1 101 20.3928 8.16692 0.341572 1.47351 3.23716 -1.64516 -0.187277 0.453719 -0.349046 0 0 0 0 0 0 0 0 0 
26.982 1 64 20.0898 6.28776 2.26356 -4.42275 7.34787 2.97626 0.797971 -0.242306 -0.125632 0 0 0 0 0 0 0 0 0 
26.982 1 103 22.5483 8.29877 2.21737 -1.70236 3.96503 1.38421 -0.585914 0.308018 0.406382 0 0 0 0 0 0 0 0 0 
26.982 1 262 22.3394 6.27658 4.12626 0.810022 2.47517 -1.83786 0.142864 0.0200908 0.132072 0 0 0 0 0 0 0 0 0 
26.982 1 305 24.546 8.24282 4.34858 -1.79076 -0.663767 -0.484018 0.115227 -0.0763943 -0.383905 0 0 0 0 0 0 0 0 0 
26.982 1 302 22.5486 10.209 4.18921 -8.26247 1.77456 5.18651 -0.480902 0.295591 -0.273165 0 0 0 0 0 0 0 0 0 
26.982 1 102 22.4346 10.4001 0.113641 -5.41292 -2.24834 -1.79848 0.026405 -0.322676 0.619058 0 0 0 0 0 0 0 0 0 
26.982 1 68 24.4879 6.20084 2.13354 0.223246 -0.169901 -1.73725 -0.0601219 0.270745 0.824534 0 0 0 0 0 0 0 0 0 
26.982 1 107 26.6552 8.23983 2.10686 4.07902 5.24412 -0.463295 -0.114967 0.189851 0.64682 0 0 0 0 0 0 0 0 0 
26.982 1 266 26.5223 6.3369 4.35474 -0.700172 3.0787 -4.99359 0.116007 -0.172577 -0.20976 0 0 0 0 0 0 0 0 0 
26.982 1 108 24.6767 10.3711 2.30452 -0.60897 -0.245582 4.88045 -0.338757 -0.382248 -0.110557 0 0 0 0 0 0 0 0 0 
26.982 1 309 28.6763 8.33322 4.42797 0.797016 1.20916 4.97361 0.220419 -0.233356 -0.287505 0 0 0 0 0 0 0 0 0 
26.982 1 72 28.8084 6.33156 2.40883 1.84112 -1.38902 -0.866181 0.0291526 -0.0561241 -0.0217216 0 0 0 0 0 0 0 0 0 
26.982 1 111 30.9156 8.28321 2.35141 2.99895 0.0224534 3.41218 0.113382 -0.714134 -0.0150606 0 0 0 0 0 0 0 0 0 
26.982 1 270 30.8847 6.19815 4.57947 5.71124 -0.751579 1.11593 0.304682 0.554101 -0.836438 0 0 0 0 0 0 0 0 0 
26.982 1 112 28.9007 10.1596 2.48374 1.63717 2.20082 2.71062 -0.439736 0.21853 -0.663814 0 0 0 0 0 0 0 0 0 
26.982 1 310 31.0417 10.2449 4.17569 2.4907 -2.55343 3.01747 0.00398442 0.285607 0.799383 0 0 0 0 0 0 0 0 0 
26.982 1 313 33.0816 8.29087 4.40663 -0.0564572 -5.04726 1.89658 0.0574962 -0.431529 -0.289374 0 0 0 0 0 0 0 0 0 
26.982 1 116 32.9633 10.1782 2.1902 -0.272039 4.02041 4.30548 0.633027 0.266964 0.0523072 0 0 0 0 0 0 0 0 0 
26.982 1 76 33.0579 6.31388 2.51629 0.591146 -6.37531 -2.1628 0.0217613 -0.31864 -0.259953 0 0 0 0 0 0 0 0 0 
26.982 1 115 35.1564 8.36983 2.29874 2.77492 3.05389 1.88642 -0.00354332 -0.493239 -0.0174612 0 0 0 0 0 0 0 0 0 
26.982 1 274 35.2825 6.23403 4.2963 -1.47302 -4.45945 -2.80379 -0.150326 -0.0974273 0.128821 0 0 0 0 0 0 0 0 0 
26.982 1 117 37.4336 8.22002 0.28629 -2.7042 -0.726818 0.950276 -0.170825 -0.220094 0.268814 0 0 0 0 0 0 0 0 0 
26.982 1 80 37.4088 6.14327 2.28879 -1.75521 -2.98928 -2.90788 -0.0755809 0.140192 -0.0647528 0 0 0 0 0 0 0 0 0 
26.982 1 317 37.2509 8.26359 4.11191 1.03563 5.06875 -1.85011 0.225326 -0.0435834 0.525639 0 0 0 0 0 0 0 0 0 
26.982 1 314 35.1794 10.2863 4.28671 -2.01589 -1.73544 -1.12234 0.0763097 -0.225508 -0.237378 0 0 0 0 0 0 0 0 0 
26.982 1 74 35.4429 6.22534 0.355858 -1.79708 0.00687696 -5.2708 -0.577687 0.065504 0.238303 0 0 0 0 0 0 0 0 0 
26.982 1 281 41.552 8.08389 4.20734 5.22317 -5.50453 3.15735 -0.0140043 0.719278 0.620827 0 0 0 0 0 0 0 0 0 
26.982 1 119 39.4211 8.14341 2.24869 -2.87905 1.66087 -3.51364 -0.0960391 0.132228 0.0254142 0 0 0 0 0 0 0 0 0 
26.982 1 278 39.2659 6.1835 4.35117 3.93887 2.51996 -2.75048 0.365757 0.0409303 0.0882327 0 0 0 0 0 0 0 0 0 
26.982 1 318 39.537 10.2297 4.17723 -0.0639406 0.0926793 -0.275846 -0.357749 -0.492366 0.368801 0 0 0 0 0 0 0 0 0 
26.982 1 123 1.00993 12.1122 2.51566 1.87298 -3.47446 -4.2042 -0.338159 -0.0375168 -0.474509 0 0 0 0 0 0 0 0 0 
26.982 1 282 0.954985 10.1637 4.38852 3.24654 0.010401 0.151067 -0.427068 -0.319356 -0.221576 0 0 0 0 0 0 0 0 0 
26.982 1 322 0.988563 14.0561 4.39735 -1.22847 -2.18199 5.50014 -0.256513 0.514987 0.203127 0 0 0 0 0 0 0 0 0 
26.982 1 124 -1.06947 14.1485 2.42729 -4.66767 -0.813611 -0.708372 -0.228737 0.28581 -0.138335 0 0 0 0 0 0 0 0 0 
26.982 1 82 1.10512 10.3539 0.365535 -2.65823 2.72777 4.04547 -0.407048 -0.0617734 -0.0346224 0 0 0 0 0 0 0 0 0 
26.982 1 321 -1.29068 12.1208 4.27305 -0.743304 1.5853 -0.656437 0.373091 -0.048765 0.462325 0 0 0 0 0 0 0 0 0 
26.982 1 128 3.02671 14.0628 2.31731 1.0461 0.0830094 1.53322 0.233695 0.302009 0.238788 0 0 0 0 0 0 0 0 0 
26.982 1 86 5.33384 10.2666 0.433184 -8.58064 2.55346 -0.773594 -0.362412 0.251004 -0.714989 0 0 0 0 0 0 0 0 0 
26.982 1 125 3.27796 12.301 0.351106 -0.486459 2.45491 -1.15216 -0.249434 -0.184522 -0.421765 0 0 0 0 0 0 0 0 0 
26.982 1 325 3.00008 12.1332 4.53107 1.14254 -1.05631 1.81164 0.286829 0.349265 -0.537323 0 0 0 0 0 0 0 0 0 
26.982 1 127 5.15298 12.1826 2.29572 -1.95055 3.43458 -3.36145 0.468441 0.291041 0.504629 0 0 0 0 0 0 0 0 0 
26.982 1 326 5.25383 14.2734 4.23974 2.53766 -3.83878 -0.572635 0.0194434 -0.313588 0.155247 0 0 0 0 0 0 0 0 0 
26.982 1 126 5.40817 14.267 0.436069 2.85423 -2.7787 -0.383942 -0.653046 0.0937314 -0.193718 0 0 0 0 0 0 0 0 0 
26.982 1 132 7.285 14.2557 2.32519 1.5882 1.1134 -3.49518 0.432094 0.0950007 0.409927 0 0 0 0 0 0 0 0 0 
26.982 1 130 9.41803 14.3947 0.344368 3.09709 -9.78406 -0.688546 0.265875 -0.309584 0.115667 0 0 0 0 0 0 0 0 0 
26.982 1 329 7.28696 12.2161 4.38099 6.10177 -0.0199527 2.02401 0.0873669 0.188475 -0.63765 0 0 0 0 0 0 0 0 0 
26.982 1 131 9.48325 12.3083 2.5547 -0.556654 3.13942 -6.97996 -0.0163806 0.326206 -1.03263 0 0 0 0 0 0 0 0 0 
26.982 1 330 9.45421 14.2825 4.33552 -2.7635 -0.816126 1.07874 0.224694 0.139197 0.0315112 0 0 0 0 0 0 0 0 0 
26.982 1 333 11.602 12.2233 4.33411 -4.88347 -2.09573 -3.07763 0.6036 0.571494 -0.193753 0 0 0 0 0 0 0 0 0 
26.982 1 96 11.9161 10.3648 2.48098 -3.57215 2.4712 0.130739 -0.288106 -0.2228 -0.516915 0 0 0 0 0 0 0 0 0 
26.982 1 136 11.6331 14.3346 2.2047 -1.84524 3.45478 0.633019 0.0244929 -0.60124 0.693185 0 0 0 0 0 0 0 0 0 
26.982 1 135 13.9307 12.2849 2.16872 2.87086 -0.99623 2.95088 -0.262676 -0.0401072 0.684294 0 0 0 0 0 0 0 0 0 
26.982 1 334 13.8075 14.1721 4.22274 -1.21553 0.307087 -0.415044 -0.254804 -0.0286427 0.222743 0 0 0 0 0 0 0 0 0 
26.982 1 100 16.0216 10.3016 2.44515 0.619629 5.00646 1.58882 -0.0215501 -0.267402 -0.4484 0 0 0 0 0 0 0 0 0 
26.982 1 337 15.9575 12.1654 4.36545 8.09137 1.93777 -1.12784 -0.039166 0.25034 -0.193334 0 0 0 0 0 0 0 0 0 
26.982 1 134 13.7736 14.3059 0.449195 -1.72424 -2.58752 1.34043 0.410119 0.294858 -0.401497 0 0 0 0 0 0 0 0 0 
26.982 1 298 18.2156 10.2502 4.04399 -3.43463 -2.21676 -0.407325 -0.0309626 0.132288 0.685163 0 0 0 0 0 0 0 0 0 
26.982 1 140 15.9693 14.2819 2.48162 -0.104123 -0.405255 5.45699 -0.000554591 -0.0508278 -0.465502 0 0 0 0 0 0 0 0 0 
26.982 1 139 18.1145 12.2982 2.24034 3.87382 -4.49312 -1.84039 -0.0242872 0.224711 -0.117335 0 0 0 0 0 0 0 0 0 
26.982 1 144 20.2812 14.2855 1.91694 1.4493 1.01615 4.1376 -0.0580567 0.0336613 0.613341 0 0 0 0 0 0 0 0 0 
26.982 1 338 18.0015 14.2784 4.28576 0.505307 -0.828712 1.06315 0.457575 0.0619232 0.0594348 0 0 0 0 0 0 0 0 0 
26.982 1 341 20.1962 12.4591 4.08572 2.03221 6.93476 0.926681 0.273947 -0.126909 0.351108 0 0 0 0 0 0 0 0 0 
26.982 1 142 22.4989 14.3245 0.33164 -0.907403 1.10423 1.78113 0.0898378 -0.33834 -0.428216 0 0 0 0 0 0 0 0 0 
26.982 1 104 20.302 10.4199 2.19372 4.66431 0.0585332 -1.04374 0.428176 -0.415851 0.0542226 0 0 0 0 0 0 0 0 0 
26.982 1 143 22.3626 12.3593 2.26235 -1.02714 0.207102 -2.41436 0.196791 -0.199247 -0.140632 0 0 0 0 0 0 0 0 0 
26.982 1 342 22.507 14.3328 4.33372 0.0586646 0.716384 1.56689 -0.335223 -0.270918 -0.416611 0 0 0 0 0 0 0 0 0 
26.982 1 106 26.7815 10.3411 0.326117 -1.32182 -0.929856 -0.547785 -0.181517 -0.43164 -0.188985 0 0 0 0 0 0 0 0 0 
26.982 1 148 24.6334 14.2985 2.23284 -3.17694 0.419263 0.153057 -0.126162 -0.172764 0.297099 0 0 0 0 0 0 0 0 0 
26.982 1 345 24.4523 12.3844 4.17768 -0.12099 2.2307 0.838981 0.141804 -0.270831 0.227976 0 0 0 0 0 0 0 0 0 
26.982 1 306 26.6258 10.2754 4.28035 0.976169 0.758719 1.71713 0.0548409 -0.0361848 0.0334448 0 0 0 0 0 0 0 0 0 
26.982 1 147 26.7009 12.2986 2.23866 -3.41015 1.95115 -1.50978 0.22459 -0.199909 0.596195 0 0 0 0 0 0 0 0 0 
26.982 1 346 26.6673 14.2105 4.26724 -2.42689 0.831717 -0.0929502 0.122114 0.361925 -0.152864 0 0 0 0 0 0 0 0 0 
26.982 1 145 24.6683 12.2179 0.299277 0.497548 3.03802 -1.43925 -0.347603 0.1375 -0.100569 0 0 0 0 0 0 0 0 0 
26.982 1 110 30.9646 10.1454 0.219782 3.71273 1.83643 -4.68725 0.076318 0.118784 -0.054879 0 0 0 0 0 0 0 0 0 
26.982 1 152 28.9456 14.1638 2.38637 0.464725 5.79178 -2.8172 -0.5443 0.119721 -0.36432 0 0 0 0 0 0 0 0 0 
26.982 1 349 28.871 12.1455 4.29785 -0.0898745 -1.9722 -1.92411 -0.144927 0.474888 -0.0350878 0 0 0 0 0 0 0 0 0 
26.982 1 151 30.9919 12.1513 2.20694 5.84195 -2.53397 -5.60745 0.098963 0.162775 -0.038705 0 0 0 0 0 0 0 0 0 
26.982 1 350 31.0519 14.1785 4.11966 1.67838 -0.338415 -3.34857 0.118095 0.220694 0.496385 0 0 0 0 0 0 0 0 0 
26.982 1 353 33.2375 12.2427 4.28686 1.64683 -0.00293831 -2.45726 -0.457649 0.239493 -0.148976 0 0 0 0 0 0 0 0 0 
26.982 1 150 30.855 14.2281 0.367343 -1.06565 -0.684795 2.89421 0.237416 0.146002 -0.20313 0 0 0 0 0 0 0 0 0 
26.982 1 155 35.1547 12.4347 2.24091 -7.20824 1.15032 -4.85632 0.394893 -0.353349 0.134845 0 0 0 0 0 0 0 0 0 
26.982 1 156 33.1585 14.3755 2.27555 -2.20019 -3.65012 -1.7368 -0.0847134 -0.0546381 0.038363 0 0 0 0 0 0 0 0 0 
26.982 1 354 35.401 14.3668 4.42399 -3.07439 3.96976 -0.387666 -0.561322 -0.235488 -0.386311 0 0 0 0 0 0 0 0 0 
26.982 1 157 37.2512 12.2297 0.0381646 3.03203 -1.03954 -2.26699 0.300403 0.214892 0.615065 0 0 0 0 0 0 0 0 0 
26.982 1 114 35.3839 10.2273 0.277154 3.52407 0.779207 0.212477 -0.897821 0.102771 -0.389995 0 0 0 0 0 0 0 0 0 
26.982 1 154 35.3379 14.4279 0.226458 2.86049 -3.69617 3.87258 -0.291997 0.0748388 0.0838349 0 0 0 0 0 0 0 0 0 
26.982 1 120 37.2177 10.2635 2.17465 -1.74697 1.56841 -1.01108 0.558407 0.337885 0.383157 0 0 0 0 0 0 0 0 0 
26.982 1 84 41.4674 10.1335 2.23872 0.00531286 -4.40279 2.85855 0.801189 -0.0650999 0.036645 0 0 0 0 0 0 0 0 0 
26.982 1 160 37.4354 14.2029 2.24849 -4.07149 2.0631 -1.10824 -0.253436 -0.143495 -0.149986 0 0 0 0 0 0 0 0 0 
26.982 1 357 37.3406 12.1521 4.22804 -1.03328 0.516421 -2.52498 0.0212104 0.256722 -0.0349931 0 0 0 0 0 0 0 0 0 
26.982 1 159 39.6105 12.2298 2.40431 3.68953 2.96075 2.89025 -0.58534 0.231148 -0.698532 0 0 0 0 0 0 0 0 0 
26.982 1 358 39.4394 14.1874 4.31264 3.66308 -2.06005 -0.0209892 0.115265 -0.21231 -0.111118 0 0 0 0 0 0 0 0 0 
26.982 1 163 0.934286 16.213 2.33181 -2.16619 1.512 1.18343 -0.064134 -0.0258468 -0.0304221 0 0 0 0 0 0 0 0 0 
26.982 1 361 -1.32036 16.1208 4.2098 4.81089 -2.65868 -5.60417 0.455666 0.445265 0.310372 0 0 0 0 0 0 0 0 0 
26.982 1 362 0.951396 18.2429 4.24763 1.88599 2.35431 2.34739 -0.132062 -0.130506 0.0686536 0 0 0 0 0 0 0 0 0 
26.982 1 2003 0.91437 20.2856 2.33668 -1.22392 -2.05206 -1.732 0.661037 -0.246438 -0.0343889 0 0 0 0 0 0 0 0 0 
26.982 1 2201 -1.00354 20.3932 4.34452 4.6455 3.97716 2.53978 -0.309469 -0.757541 -0.380011 0 0 0 0 0 0 0 0 0 
26.982 1 164 -1.33763 18.2149 2.17047 7.35457 -0.677494 2.40274 0.391204 0.152779 0.58997 0 0 0 0 0 0 0 0 0 
26.982 1 168 3.08563 18.1426 2.24734 3.10852 -3.28396 -6.1272 -0.392245 0.609056 0.407838 0 0 0 0 0 0 0 0 0 
26.982 1 365 3.1301 16.0317 4.16656 -6.84285 -1.54461 -1.81136 -0.569584 0.557701 0.607151 0 0 0 0 0 0 0 0 0 
26.982 1 2205 3.14505 20.1721 4.26881 -2.23857 3.80306 -0.454737 -0.609902 0.541001 -0.231429 0 0 0 0 0 0 0 0 0 
26.982 1 167 5.07988 16.3304 2.3443 2.08687 -1.50734 -0.627356 0.764811 -0.443974 0.0264726 0 0 0 0 0 0 0 0 0 
26.982 1 366 5.19909 18.3392 4.1644 2.52661 -1.12956 -3.74772 0.162704 -0.343271 0.251944 0 0 0 0 0 0 0 0 0 
26.982 1 2007 5.13277 20.3434 2.35547 0.500416 -3.1026 0.503593 0.568043 0.198151 -0.278285 0 0 0 0 0 0 0 0 0 
26.982 1 169 7.20222 16.3932 0.466355 -3.50058 2.4156 3.38686 0.437076 -0.0705624 -0.466893 0 0 0 0 0 0 0 0 0 
26.982 1 166 5.19783 18.3112 0.435243 -0.0296206 -3.65703 0.951874 0.27543 -0.0625555 -0.524029 0 0 0 0 0 0 0 0 0 
26.982 1 172 7.41738 18.3794 2.2247 -1.3178 -0.327697 1.70015 -0.100124 -0.092022 0.256039 0 0 0 0 0 0 0 0 0 
26.982 1 369 7.32731 16.3574 4.34966 -3.71164 4.76899 -4.84502 0.0424109 -0.183223 -0.571776 0 0 0 0 0 0 0 0 0 
26.982 1 171 9.53033 16.2483 2.36761 -5.90417 -4.098 -4.77263 -0.418017 0.446479 0.0333482 0 0 0 0 0 0 0 0 0 
26.982 1 370 9.31243 18.4836 4.41652 0.341471 -1.63923 3.89369 0.669728 -0.722849 -0.492414 0 0 0 0 0 0 0 0 0 
26.982 1 176 11.6863 18.3124 2.536 -4.86625 -3.04072 -2.17475 -0.232902 -0.16894 -0.469283 0 0 0 0 0 0 0 0 0 
26.982 1 2217 15.8619 20.1327 4.28585 1.76208 -4.41311 -0.80667 0.142759 0.277709 0.0935142 0 0 0 0 0 0 0 0 0 
26.982 1 373 11.588 16.3049 4.24122 -5.80825 0.444257 0.938186 0.136654 -0.557437 0.23021 0 0 0 0 0 0 0 0 0 
26.982 1 175 13.9645 16.3033 2.41917 -1.89471 -0.0660475 -1.57235 -0.558195 -0.206331 -0.257979 0 0 0 0 0 0 0 0 0 
26.982 1 374 13.7825 18.2969 4.40993 0.74393 3.00382 3.21648 -0.174748 -0.165955 -0.0935549 0 0 0 0 0 0 0 0 0 
26.982 1 377 15.8094 16.3578 4.4146 -5.02961 -2.00001 1.95884 0.347642 -0.750959 -0.26976 0 0 0 0 0 0 0 0 0 
26.982 1 174 13.9188 18.2621 0.461905 -2.0366 2.95276 -0.291548 -0.0771915 -0.404968 -0.344509 0 0 0 0 0 0 0 0 0 
26.982 1 180 15.9674 18.1439 2.32923 -4.00094 0.676872 -3.62852 0.0917685 0.114801 0.103866 0 0 0 0 0 0 0 0 0 
26.982 1 179 18.1268 16.1579 2.30684 1.15705 -0.197965 5.41175 0.0238854 0.0840345 -0.0650192 0 0 0 0 0 0 0 0 0 
26.982 1 184 20.3107 18.2415 2.32397 3.39093 -3.70728 0.0409224 -0.134037 0.136496 0.119814 0 0 0 0 0 0 0 0 0 
26.982 1 378 18.0925 18.0663 4.27715 3.61642 0.126825 3.77305 0.0699025 0.42995 -0.224759 0 0 0 0 0 0 0 0 0 
26.982 1 178 18.2048 18.1679 0.458589 -0.938947 1.28762 2.12153 -0.142281 -0.0591597 -0.30838 0 0 0 0 0 0 0 0 0 
26.982 1 177 16.0495 16.2209 0.301602 0.452293 1.61029 -0.780102 -0.332893 0.105548 -0.130936 0 0 0 0 0 0 0 0 0 
26.982 1 381 20.2419 16.1693 4.16651 1.88598 -3.31382 -3.92711 0.188114 -0.317389 0.179468 0 0 0 0 0 0 0 0 0 
26.982 1 181 20.4627 16.4174 0.198782 -3.99134 1.50087 1.13574 -0.425577 -0.449063 0.295377 0 0 0 0 0 0 0 0 0 
26.982 1 2221 20.0248 20.3254 4.43554 0.0430464 3.83459 3.62417 0.0556552 -0.597929 -0.954542 0 0 0 0 0 0 0 0 0 
26.982 1 183 22.4516 16.2447 2.18437 -2.3387 1.35818 2.90552 0.0130199 0.156007 0.319664 0 0 0 0 0 0 0 0 0 
26.982 1 382 22.3919 18.1718 4.2841 0.434908 -2.75421 0.880117 -0.046705 0.163831 -0.0979871 0 0 0 0 0 0 0 0 0 
26.982 1 188 24.5595 18.2356 2.24633 1.19141 -0.00102509 -1.2571 -0.142006 0.02399 0.0708943 0 0 0 0 0 0 0 0 0 
26.982 1 182 22.4872 18.25 0.230153 -2.1812 -2.53095 -1.9938 0.15096 0.0338751 0.109911 0 0 0 0 0 0 0 0 0 
26.982 1 2025 24.3842 20.3303 0.409964 1.78721 0.098612 -2.07947 0.0945011 -0.310595 -0.146676 0 0 0 0 0 0 0 0 0 
26.982 1 385 24.5146 16.3069 4.18562 1.89424 -0.294443 0.940503 0.304422 -0.17243 0.187178 0 0 0 0 0 0 0 0 0 
26.982 1 187 26.7913 16.3517 2.3186 0.586319 -3.00479 -2.44935 -0.101389 -0.234496 0.0631651 0 0 0 0 0 0 0 0 0 
26.982 1 386 26.6804 18.278 4.36629 -2.00326 -1.23053 -6.46504 -0.15056 0.0665379 -0.529364 0 0 0 0 0 0 0 0 0 
26.982 1 2027 26.5412 20.2823 2.36324 2.81139 -0.015693 3.73013 0.318069 -0.0715887 -0.00660033 0 0 0 0 0 0 0 0 0 
26.982 1 192 28.7927 18.4065 2.33025 -1.58051 3.28451 -2.31109 -0.126532 -0.150733 -0.146241 0 0 0 0 0 0 0 0 0 
26.982 1 389 28.8715 16.2635 4.16485 0.168282 -2.43512 3.46615 -0.242939 0.0351261 0.562895 0 0 0 0 0 0 0 0 0 
26.982 1 2229 28.8146 20.385 4.33992 -2.15627 1.77423 -0.387046 -0.0916684 -0.346944 -0.282078 0 0 0 0 0 0 0 0 0 
26.982 1 189 28.6635 16.4165 0.257424 -3.30444 -1.35079 1.13359 0.541142 -0.466081 0.420615 0 0 0 0 0 0 0 0 0 
26.982 1 191 30.8278 16.3028 2.30689 -0.440207 -4.10334 -1.79096 0.4102 0.238069 -0.423682 0 0 0 0 0 0 0 0 0 
26.982 1 390 30.913 18.3768 4.18312 5.87187 1.70073 -2.45899 0.0810453 -0.0626276 0.129615 0 0 0 0 0 0 0 0 0 
26.982 1 393 33.1251 16.4132 4.25934 -0.288238 -4.7247 -3.19812 -0.264334 -0.0613224 -0.265671 0 0 0 0 0 0 0 0 0 
26.982 1 190 30.9017 18.3636 0.0400505 5.67702 1.46434 -2.05762 -0.317788 -0.0702107 0.693593 0 0 0 0 0 0 0 0 0 
26.982 1 2233 33.0653 20.3419 4.3333 2.28488 -1.42878 0.616885 -0.114284 -0.325936 -0.540855 0 0 0 0 0 0 0 0 0 
26.982 1 196 33.0185 18.4706 1.94842 -0.427818 1.98156 -0.586299 -0.00902227 -0.394498 0.820688 0 0 0 0 0 0 0 0 0 
26.982 1 195 35.2216 16.3501 2.32536 4.12724 -0.0195157 -0.465614 -0.0524754 0.0893104 -0.390981 0 0 0 0 0 0 0 0 0 
26.982 1 394 35.2223 18.4392 4.2668 0.852508 1.74369 -1.56804 0.0421751 -0.12454 -0.121137 0 0 0 0 0 0 0 0 0 
26.982 1 200 37.4689 18.463 2.11239 -3.71285 2.24755 -5.20614 -0.416536 -0.299583 -0.0347437 0 0 0 0 0 0 0 0 0 
26.982 1 397 37.3521 16.2933 4.00475 7.07496 -1.36361 -1.39149 0.0340822 0.156861 0.589947 0 0 0 0 0 0 0 0 0 
26.982 1 199 39.4991 16.2051 2.30044 -3.33798 -1.55888 0.829246 0.098256 0.126847 -0.0912257 0 0 0 0 0 0 0 0 0 
26.982 1 398 39.3862 18.2745 4.16702 4.91439 3.20774 3.97007 0.661945 0.04517 0.201519 0 0 0 0 0 0 0 0 0 
26.982 1 197 37.5054 16.4121 0.219133 -0.240843 1.58325 3.93104 -0.565009 -0.0389352 0.0873543 0 0 0 0 0 0 0 0 0 
26.982 1 243 0.853938 4.15752 6.32255 -1.8026 0.472891 3.45741 0.347739 0.266735 0.194481 0 0 0 0 0 0 0 0 0 
26.982 1 402 1.08025 2.30853 8.50722 -1.52455 1.64562 -2.22808 -0.252136 0.126423 -0.434151 0 0 0 0 0 0 0 0 0 
26.982 1 408 3.2065 2.18007 10.2825 -1.78237 -2.76252 0.457003 0.113483 0.00946482 0.196084 0 0 0 0 0 0 0 0 0 
26.982 1 404 -1.3035 2.29948 10.3014 0.282351 0.420241 0.848536 0.56877 -0.282763 0.617896 0 0 0 0 0 0 0 0 0 
26.982 1 405 3.05479 0.159057 8.41473 3.312 -4.4009 -0.983117 0.203647 0.348755 -0.673591 0 0 0 0 0 0 0 0 0 
26.982 1 208 3.25855 2.31251 6.11264 0.789481 2.13816 1.19564 -0.241042 -0.293655 0.753123 0 0 0 0 0 0 0 0 0 
26.982 1 445 3.23153 4.15679 8.43171 -1.64648 -0.733242 1.22012 0.0414179 0.0580475 -0.354582 0 0 0 0 0 0 0 0 0 
26.982 1 247 5.42477 4.27865 6.26788 -1.99071 3.94372 -1.75621 -0.405235 0.196864 0.196785 0 0 0 0 0 0 0 0 0 
26.982 1 406 5.36753 2.19296 8.29752 2.78387 2.04879 2.95627 -0.353701 0.607355 -0.143772 0 0 0 0 0 0 0 0 0 
26.982 1 449 7.38611 4.19847 8.45788 3.44438 -5.5599 -2.22722 0.560808 0.186376 -0.707374 0 0 0 0 0 0 0 0 0 
26.982 1 207 5.24072 0.297181 6.38853 2.46488 -0.332125 6.1247 0.0070103 -0.175711 -0.465555 0 0 0 0 0 0 0 0 0 
26.982 1 212 7.30204 2.36251 6.27213 0.703305 -2.43579 -0.879328 0.750442 -0.145691 -0.0354805 0 0 0 0 0 0 0 0 0 
26.982 1 251 9.64154 4.24019 6.43136 -1.16405 4.604 3.41799 -0.22686 -0.011906 -0.586869 0 0 0 0 0 0 0 0 0 
26.982 1 410 9.62857 2.08571 8.16608 3.21917 -4.80894 -0.911987 -0.0550694 0.813205 0.307875 0 0 0 0 0 0 0 0 0 
26.982 1 453 11.7858 4.15575 8.32368 -5.30289 1.44004 0.0990667 0.185571 0.180486 -0.228153 0 0 0 0 0 0 0 0 0 
26.982 1 211 9.62291 0.328942 6.16907 0.449159 -0.996847 -2.17801 -0.035809 -0.23652 0.133756 0 0 0 0 0 0 0 0 0 
26.982 1 417 15.9249 0.281879 8.35602 6.03181 0.823632 4.38286 0.37572 0.0166058 -0.531767 0 0 0 0 0 0 0 0 0 
26.982 1 413 11.7792 0.294587 8.33358 -1.94647 1.58009 -4.10892 0.242029 -0.12832 -0.369668 0 0 0 0 0 0 0 0 0 
26.982 1 216 11.8564 2.26546 6.23711 -0.183642 2.74341 -0.828324 -0.391655 0.0366203 0.0511907 0 0 0 0 0 0 0 0 0 
26.982 1 255 13.9226 4.33245 6.3399 1.95167 -3.36709 2.42185 -0.0829664 0.226763 0.226715 0 0 0 0 0 0 0 0 0 
26.982 1 414 13.9184 2.15199 8.29454 -6.35756 2.85273 -1.11087 -0.13632 0.527747 0.116441 0 0 0 0 0 0 0 0 0 
26.982 1 415 13.7911 0.262593 10.362 -1.26767 2.42098 4.00803 -0.00319378 0.229502 0.0987476 0 0 0 0 0 0 0 0 0 
26.982 1 416 11.7684 2.39616 10.3296 -1.50383 2.62297 -1.64411 0.180476 -0.242804 0.0102259 0 0 0 0 0 0 0 0 0 
26.982 1 457 16.0749 4.43106 8.42655 0.972605 1.23879 0.412794 -0.322384 -0.620676 -0.9533 0 0 0 0 0 0 0 0 0 
26.982 1 420 16.0083 2.15289 10.2426 0.881661 -4.40338 -0.827675 -0.0415662 0.505465 0.131171 0 0 0 0 0 0 0 0 0 
26.982 1 419 18.1646 0.191622 10.2394 -0.709523 3.07076 1.45208 -0.270491 0.295255 0.207751 0 0 0 0 0 0 0 0 0 
26.982 1 220 15.8626 2.45298 6.25639 -2.45737 2.71724 0.350778 0.636396 -0.224359 0.339669 0 0 0 0 0 0 0 0 0 