ITEM: TIMESTEP
17100
ITEM: NUMBER OF ATOMS
4000
ITEM: BOX BOUNDS pp pp pp
-3.54963 44.0496
1.00475 39.4952
1.18892 39.3111
ITEM: ATOMS mass type id x y z vx vy vz fx fy fz xrad yrad zrad vxrad vyrad vzrad fxrad fyrad fzrad 
26.982 1 202 -0.749292 4.03823 4.40458 -0.739718 3.0178 6.20592 0.173058 -0.83719 0.083217 0 0 0 0 0 0 0 0 0 
26.982 1 2 -1.86255 3.10317 1.58358 -0.645554 -0.70868 1.74518 0.327258 0.151802 0.584908 0 0 0 0 0 0 0 0 0 
26.982 1 5 0.4427 1.3426 1.61175 5.13997 3.48307 -0.0691016 0.0511697 0.345984 -0.190465 0 0 0 0 0 0 0 0 0 
26.982 1 4 -3.59821 2.90172 3.85841 3.33779 -1.92418 -2.57516 0.557468 -0.0293406 -0.224843 0 0 0 0 0 0 0 0 0 
26.982 1 241 -2.96029 5.60611 4.41028 -0.0647965 -3.1274 6.42671 -0.362611 0.461163 -0.104199 0 0 0 0 0 0 0 0 0 
26.982 1 45 0.0320032 5.32047 1.39032 -2.4674 -1.08961 -1.62065 0.166425 -0.0740003 -0.420084 0 0 0 0 0 0 0 0 0 
26.982 1 205 1.16973 1.51596 4.34185 0.0127603 -1.82153 -0.85712 0.424939 1.16296 0.308776 0 0 0 0 0 0 0 0 0 
26.982 1 245 2.07039 4.56572 4.93677 6.19768 2.62449 -3.34834 -1.12012 -0.197033 -0.146221 0 0 0 0 0 0 0 0 0 
26.982 1 8 2.24997 3.73611 2.17124 -0.307118 1.0124 -2.01001 0.226351 -0.203557 0.0879761 0 0 0 0 0 0 0 0 0 
26.982 1 47 4.31299 5.36712 3.72302 -0.996786 4.42599 -1.8641 0.452389 -0.432949 -0.0493417 0 0 0 0 0 0 0 0 0 
26.982 1 206 4.12232 2.53637 4.3271 3.46033 -4.61344 5.2162 -0.384747 0.0619237 0.0418149 0 0 0 0 0 0 0 0 0 
26.982 1 6 4.698 2.41216 1.33208 7.28751 -0.352534 1.58225 -0.336036 0.549003 0.141626 0 0 0 0 0 0 0 0 0 
26.982 1 249 6.63761 5.5162 5.28005 -4.16759 5.83002 -1.1943 -0.414256 0.265749 -0.15198 0 0 0 0 0 0 0 0 0 
26.982 1 12 6.46251 3.40076 3.33088 1.82826 0.65827 -1.44831 0.545079 0.284135 -0.536434 0 0 0 0 0 0 0 0 0 
26.982 1 51 9.07986 4.29488 2.29876 0.846352 -0.930684 -1.24052 -0.561218 0.477096 0.0834908 0 0 0 0 0 0 0 0 0 
26.982 1 210 8.98287 3.24423 4.94297 -2.4123 0.923559 -2.99899 -0.630172 -0.245946 -0.105614 0 0 0 0 0 0 0 0 0 
26.982 1 9 7.0721 1.05386 1.26599 3.26357 -2.86967 3.11529 -0.16278 -0.0565731 0.3286 0 0 0 0 0 0 0 0 0 
26.982 1 253 11.1782 4.57973 4.17825 3.35514 8.37479 -2.80058 0.667122 0.626839 0.480105 0 0 0 0 0 0 0 0 0 
26.982 1 16 11.0926 2.60827 2.56167 -3.19232 -1.68 -4.51702 0.440603 -0.969624 -0.264593 0 0 0 0 0 0 0 0 0 
26.982 1 214 13.278 2.77649 4.581 0.344451 -0.519491 -3.96022 0.222374 -0.984915 -0.706585 0 0 0 0 0 0 0 0 0 
26.982 1 53 11.7224 5.32815 1.19064 0.775998 0.3167 -1.35953 0.0128225 -0.28737 0.162321 0 0 0 0 0 0 0 0 0 
26.982 1 55 13.904 5.34054 3.41708 -4.45435 -0.697889 2.85805 -0.0510127 -0.0734192 -0.216201 0 0 0 0 0 0 0 0 0 
26.982 1 20 15.9349 3.04557 3.26316 1.97979 2.10105 4.85584 -0.0702484 -0.200023 0.357652 0 0 0 0 0 0 0 0 0 
26.982 1 257 16.0159 5.34225 5.35601 -5.37167 0.122715 2.49499 -0.103944 -0.207589 -0.296997 0 0 0 0 0 0 0 0 0 
26.982 1 57 16.1163 5.17526 1.67086 -5.83001 1.89631 -1.98312 -0.10305 -0.0259042 -0.67647 0 0 0 0 0 0 0 0 0 
26.982 1 14 13.7376 3.0932 1.57729 -2.19008 -0.208342 -0.238537 0.69062 -0.0616869 0.819019 0 0 0 0 0 0 0 0 0 
26.982 1 18 18.125 2.79471 1.3483 -3.19541 5.12623 -2.81668 0.156191 0.725094 -0.140488 0 0 0 0 0 0 0 0 0 
26.982 1 218 18.0426 3.10808 4.96356 -0.625252 0.56825 1.33981 0.348774 -0.414347 0.275854 0 0 0 0 0 0 0 0 0 
26.982 1 59 18.4196 5.09251 3.16105 4.04208 -0.952019 6.56062 -0.0847422 0.0943282 -0.327858 0 0 0 0 0 0 0 0 0 
26.982 1 24 20.4574 2.89667 2.92547 -1.2394 1.3676 -5.57347 -0.242048 0.130771 0.231236 0 0 0 0 0 0 0 0 0 
26.982 1 261 20.4527 5.05552 4.96105 -2.08905 0.502161 1.82891 0.0205659 -0.2296 0.320195 0 0 0 0 0 0 0 0 0 
26.982 1 221 20.2112 0.923308 5.01981 -1.77426 -4.45898 -0.0790536 -0.310665 0.185571 -0.177468 0 0 0 0 0 0 0 0 0 
26.982 1 63 22.4678 4.97047 2.79048 -5.27878 -0.391959 -4.1226 0.440551 -0.313374 0.0960534 0 0 0 0 0 0 0 0 0 
26.982 1 222 22.4098 3.02481 5.0328 -1.87671 1.54527 4.118 -0.0297574 0.195761 -0.267136 0 0 0 0 0 0 0 0 0 
26.982 1 28 24.9851 2.62702 2.64282 -0.566633 -1.57154 -1.73134 -0.276194 -0.00413632 0.0488876 0 0 0 0 0 0 0 0 0 
26.982 1 265 24.6998 4.72127 4.62313 2.2435 1.7103 2.17078 0.00698853 -0.0937595 0.198664 0 0 0 0 0 0 0 0 0 
26.982 1 67 26.824 4.72287 2.68563 -2.8617 -1.77875 -0.158596 0.20653 -0.5174 -0.0806173 0 0 0 0 0 0 0 0 0 
26.982 1 226 26.7578 2.3964 5.23241 -2.40692 -3.40678 -2.73752 0.967695 0.787672 -0.597968 0 0 0 0 0 0 0 0 0 
26.982 1 32 29.9558 3.52703 2.27436 2.23278 0.899462 -0.239679 -0.487362 0.323765 0.260114 0 0 0 0 0 0 0 0 0 
26.982 1 269 29.1151 4.39839 4.76702 -0.211638 -8.27819 2.23424 -0.371414 -0.284935 -0.415128 0 0 0 0 0 0 0 0 0 
26.982 1 27 27.6662 1.81553 2.53461 -5.98175 5.04987 -8.36947 0.646667 -0.0100167 0.147138 0 0 0 0 0 0 0 0 0 
26.982 1 229 29.6254 1.09008 4.6735 -4.80882 -1.37764 7.16865 -0.295833 0.119495 -0.101887 0 0 0 0 0 0 0 0 0 
26.982 1 71 31.8811 5.5101 1.93895 3.60265 1.48281 -5.61288 -0.174145 -0.290636 0.227149 0 0 0 0 0 0 0 0 0 
26.982 1 230 31.7734 3.25556 4.32407 -0.0245259 4.37639 0.943594 -0.124308 0.224252 -0.236834 0 0 0 0 0 0 0 0 0 
26.982 1 273 34.2156 4.68784 5.11097 5.10744 -3.32936 6.43878 0.114337 -0.14059 0.23161 0 0 0 0 0 0 0 0 0 
26.982 1 36 34.6375 2.77648 3.3453 4.82879 -0.958082 -2.56109 -0.0160762 0.174802 0.415309 0 0 0 0 0 0 0 0 0 
26.982 1 233 34.9197 1.01067 5.50762 3.18468 -2.07985 0.127436 -0.335248 0.101898 0.203719 0 0 0 0 0 0 0 0 0 
26.982 1 30 32.5545 2.66297 1.52491 -3.05924 2.01439 -3.69635 0.0981969 0.11707 0.12327 0 0 0 0 0 0 0 0 0 
26.982 1 73 34.4167 4.72741 1.52361 -2.79153 -1.84044 -2.06663 0.336703 -0.258232 -0.84365 0 0 0 0 0 0 0 0 0 
26.982 1 35 36.9402 1.39401 3.42093 3.75579 -4.75758 -3.81461 0.106313 -0.672432 -0.0523799 0 0 0 0 0 0 0 0 0 
26.982 1 34 36.8463 3.19983 1.26474 2.80803 -2.39447 -5.34953 -0.452985 -0.820909 0.0343961 0 0 0 0 0 0 0 0 0 
26.982 1 75 36.6149 5.00242 3.20129 -1.10907 0.943321 -4.81673 -0.705237 0.36714 0.964039 0 0 0 0 0 0 0 0 0 
26.982 1 234 36.828 3.22852 5.48666 8.01454 -0.445924 -3.64815 -1.05514 0.249253 -0.46435 0 0 0 0 0 0 0 0 0 
26.982 1 40 38.7922 3.44576 3.29385 -5.36784 1.60659 1.24653 0.179571 0.0439395 -0.383062 0 0 0 0 0 0 0 0 0 
26.982 1 277 39.4991 4.01921 5.66681 0.920283 1.29515 4.74769 0.818685 0.693863 0.625268 0 0 0 0 0 0 0 0 0 
26.982 1 237 38.8093 1.45757 5.49477 1.61107 4.67183 -2.08892 0.265309 -0.105041 -0.441615 0 0 0 0 0 0 0 0 0 
26.982 1 37 39.0147 1.42528 1.37801 -1.68819 2.55303 3.71668 -0.199733 -0.451227 -0.0810022 0 0 0 0 0 0 0 0 0 
26.982 1 1 43.0889 1.9856 1.15971 -1.07889 1.03154 -1.24591 -0.124494 -0.217188 0.195044 0 0 0 0 0 0 0 0 0 
26.982 1 41 43.4648 4.81075 1.75146 0.22377 3.74666 -1.34902 0.0509974 0.327057 -0.0454152 0 0 0 0 0 0 0 0 0 
26.982 1 79 41.8113 4.59758 3.94949 -5.55419 -1.53676 2.47172 -0.463708 0.170051 0.00658796 0 0 0 0 0 0 0 0 0 
26.982 1 238 42.3446 2.53517 5.92089 -0.327446 -1.915 3.34962 -1.0206 -0.0590981 0.323268 0 0 0 0 0 0 0 0 0 
26.982 1 39 41.204 2.07915 3.31996 -2.93745 -2.79847 0.909755 -0.164226 -0.810079 0.239531 0 0 0 0 0 0 0 0 0 
26.982 1 38 40.5422 3.61907 1.12794 -0.192307 -0.174865 -2.06628 0.350054 0.464264 0.234293 0 0 0 0 0 0 0 0 0 
26.982 1 43 -0.364398 6.69011 3.64593 0.518712 -10.2607 0.0732646 -0.513734 0.0765167 -0.0839829 0 0 0 0 0 0 0 0 0 
26.982 1 83 -0.691072 9.52831 3.20385 -2.56498 -4.3579 -8.80304 0.673641 -0.270215 0.0997502 0 0 0 0 0 0 0 0 0 
26.982 1 44 -3.1811 8.54491 3.38668 -5.28314 -9.73033 -2.00167 -0.0422315 -0.078581 0.0863081 0 0 0 0 0 0 0 0 0 
26.982 1 42 -2.041 7.0497 1.33217 -5.41873 3.71343 -1.7957 -0.522306 0.343162 -0.165473 0 0 0 0 0 0 0 0 0 
26.982 1 48 2.35595 6.6522 2.45711 1.85851 -2.94425 3.53327 -0.40938 -0.121579 0.0943879 0 0 0 0 0 0 0 0 0 
26.982 1 285 1.2939 7.95384 5.18353 -1.73649 4.7351 4.13812 0.271884 0.438159 0.409793 0 0 0 0 0 0 0 0 0 
26.982 1 87 4.8799 7.86185 3.08993 -2.70248 -0.192697 -0.804431 -0.336058 0.741503 -0.190604 0 0 0 0 0 0 0 0 0 
26.982 1 246 4.37079 7.48891 6.13299 -0.378747 8.40581 4.66887 -0.317168 -0.635233 -0.834041 0 0 0 0 0 0 0 0 0 
26.982 1 88 2.26365 9.44832 2.71306 7.07592 0.968874 0.0384565 0.23258 0.108615 0.421629 0 0 0 0 0 0 0 0 0 
26.982 1 286 4.42868 9.94493 5.02894 -4.35676 2.67643 4.16226 0.395204 -0.213771 -0.406114 0 0 0 0 0 0 0 0 0 
26.982 1 86 4.98248 10.4962 1.7465 1.12299 6.32061 3.99316 -0.563938 -0.520049 0.166662 0 0 0 0 0 0 0 0 0 
26.982 1 289 7.114 8.12688 4.68996 0.192183 -2.46417 1.7415 -0.284044 0.367597 0.048903 0 0 0 0 0 0 0 0 0 
26.982 1 52 6.97698 6.22493 2.56903 4.18754 -0.739965 3.26065 -0.0999176 -0.646991 -0.111884 0 0 0 0 0 0 0 0 0 
26.982 1 250 9.21919 6.33383 4.36909 0.00746542 -2.48691 0.887751 -0.266596 0.267481 -0.153597 0 0 0 0 0 0 0 0 0 
26.982 1 89 7.30684 8.81696 1.68047 2.4905 1.35525 -1.29997 -0.213018 0.0369878 -0.147503 0 0 0 0 0 0 0 0 0 
26.982 1 91 9.43101 9.19311 3.41373 0.700316 2.39719 -1.34985 0.220167 -0.391317 -0.0196971 0 0 0 0 0 0 0 0 0 
26.982 1 50 9.51163 6.93361 1.45912 -0.629081 0.406791 -3.68712 -0.121257 0.446507 -0.00514755 0 0 0 0 0 0 0 0 0 
26.982 1 293 11.6428 9.51385 5.19561 -3.36076 -0.642131 -1.30842 0.264266 -0.278145 0.0256847 0 0 0 0 0 0 0 0 0 
26.982 1 56 11.7404 7.29826 3.21149 -5.27527 -1.78507 -2.96505 0.135961 0.182863 0.0314477 0 0 0 0 0 0 0 0 0 
26.982 1 95 13.4643 9.61763 3.09281 -2.45707 2.71378 -6.61949 0.426828 -0.820153 -0.397208 0 0 0 0 0 0 0 0 0 
26.982 1 254 13.832 7.35287 5.24979 1.87779 1.12277 3.68611 -0.00955914 0.0251429 -0.154712 0 0 0 0 0 0 0 0 0 
26.982 1 60 16.1177 7.31862 3.42059 -0.402626 -1.67542 1.45139 -0.284139 -0.0354317 -0.117123 0 0 0 0 0 0 0 0 0 
26.982 1 297 15.7811 9.88101 4.65407 2.27772 4.24135 1.18304 -0.0891408 -0.162879 0.0758875 0 0 0 0 0 0 0 0 0 
26.982 1 97 15.9678 9.38373 1.28762 -0.170598 -4.18032 -4.33816 -0.472765 -0.695044 0.541353 0 0 0 0 0 0 0 0 0 
26.982 1 58 18.1445 7.23512 1.25898 5.69733 -3.14857 4.28796 0.436654 -0.00738588 0.737799 0 0 0 0 0 0 0 0 0 
26.982 1 99 18.1097 9.10298 3.47849 5.13445 4.18861 -5.90166 0.527949 0.963107 -0.71278 0 0 0 0 0 0 0 0 0 
26.982 1 258 18.4173 7.18478 5.147 -0.617077 5.82044 -4.52106 0.391778 -0.238884 0.381148 0 0 0 0 0 0 0 0 0 
26.982 1 64 20.6435 6.99282 3.04155 0.919636 -0.487328 -1.16548 -0.69473 0.334895 -0.244909 0 0 0 0 0 0 0 0 0 
26.982 1 301 20.5368 9.19595 5.03692 3.10837 4.2108 1.25537 0.295836 -0.684774 0.213436 0 0 0 0 0 0 0 0 0 
26.982 1 101 20.3611 9.13977 1.14323 5.69988 -3.9261 -4.61656 0.0698256 -0.773396 0.311514 0 0 0 0 0 0 0 0 0 
26.982 1 103 22.6837 8.76735 2.84598 5.12322 -0.855041 2.03186 0.186659 0.0329096 0.226256 0 0 0 0 0 0 0 0 0 
26.982 1 262 22.6515 6.95307 4.91583 4.00884 -3.39014 1.96312 0.209526 -0.0245195 -0.136752 0 0 0 0 0 0 0 0 0 
26.982 1 305 25.0232 8.62337 4.79951 -1.27333 2.93024 3.72378 0.00527295 -0.43549 -0.0230877 0 0 0 0 0 0 0 0 0 
26.982 1 68 24.7552 6.73895 2.74367 -3.19591 4.4536 -1.74449 0.121013 0.0408449 -0.0242555 0 0 0 0 0 0 0 0 0 
26.982 1 302 23.1549 10.7086 4.68968 -1.36707 5.14563 3.86394 -0.37782 -0.0442901 0.10717 0 0 0 0 0 0 0 0 0 
26.982 1 108 25.2055 10.415 2.8127 0.0669391 -3.85743 2.78359 -0.239378 0.399025 0.134353 0 0 0 0 0 0 0 0 0 
26.982 1 107 27.1965 8.45795 2.74883 0.23089 3.8828 3.48942 -0.28591 -0.295832 -0.0742731 0 0 0 0 0 0 0 0 0 
26.982 1 266 27.0301 6.5328 4.80142 -4.90213 2.11299 -5.47541 -0.0151935 -0.309561 -0.135305 0 0 0 0 0 0 0 0 0 
26.982 1 72 29.1365 6.26813 2.47161 -3.70207 3.14044 2.11327 0.0972102 0.212842 0.394872 0 0 0 0 0 0 0 0 0 
26.982 1 309 29.3711 8.03946 4.82651 0.398821 3.18593 -4.68292 0.312938 -0.321683 -0.143005 0 0 0 0 0 0 0 0 0 
26.982 1 112 29.4079 10.0865 2.80418 -3.65766 -3.77086 -0.983994 0.388588 0.105475 -0.463318 0 0 0 0 0 0 0 0 0 
26.982 1 306 27.5345 10.0934 4.88293 2.82361 0.16356 -4.30394 -0.557006 0.147823 0.0365439 0 0 0 0 0 0 0 0 0 
26.982 1 111 31.4618 8.07467 2.65582 -4.66525 5.84198 0.398602 -0.116131 0.227458 0.0724142 0 0 0 0 0 0 0 0 0 
26.982 1 270 31.6332 6.12121 4.71093 0.499368 -2.75698 1.75951 -0.242758 0.10066 -1.04948 0 0 0 0 0 0 0 0 0 
26.982 1 76 34.1953 6.61787 3.16833 -4.21529 -1.86729 -5.45571 -0.41087 0.771281 -0.123962 0 0 0 0 0 0 0 0 0 
26.982 1 313 34.2011 7.34414 5.66564 -5.86187 0.997844 3.72811 -0.261863 0.22516 0.329577 0 0 0 0 0 0 0 0 0 
26.982 1 116 33.9156 9.38389 3.61344 -1.56356 -1.32844 1.33584 0.0677875 -0.450148 -0.0711736 0 0 0 0 0 0 0 0 0 
26.982 1 310 31.4153 9.96915 4.8818 -1.32463 -4.3605 -5.48542 0.140824 -0.438605 -0.510294 0 0 0 0 0 0 0 0 0 
26.982 1 115 36.6094 7.8956 3.81822 3.46929 -1.37721 1.33457 0.162495 -0.0762042 -0.00790466 0 0 0 0 0 0 0 0 0 
26.982 1 80 39.0632 6.3131 4.02591 1.79392 2.9301 2.49698 -0.140815 -0.867347 0.352758 0 0 0 0 0 0 0 0 0 
26.982 1 317 39.5315 8.69332 5.0177 -3.25406 2.10602 -1.3355 0.383865 0.0411037 0.2378 0 0 0 0 0 0 0 0 0 
26.982 1 117 38.6941 7.94118 1.953 -2.67107 -2.83625 -1.34482 -0.139711 1.0213 0.201052 0 0 0 0 0 0 0 0 0 
26.982 1 114 36.3873 9.66777 1.74476 -2.5542 4.34036 0.709008 0.270157 0.484572 -0.265839 0 0 0 0 0 0 0 0 0 
26.982 1 120 38.8932 10.5644 3.0005 -0.178938 2.0161 -4.3679 -0.199036 -0.187294 -0.433215 0 0 0 0 0 0 0 0 0 
26.982 1 78 40.8759 6.50122 1.9533 0.716863 0.0690605 -0.447469 0.845516 -0.454041 0.0597026 0 0 0 0 0 0 0 0 0 
26.982 1 119 41.6479 9.26068 2.96608 1.91711 3.73973 -7.80478 -0.417255 -0.202731 -0.219132 0 0 0 0 0 0 0 0 0 
26.982 1 278 42.1623 7.14142 4.56156 -0.368831 -1.78367 -0.258806 0.0479694 0.0937311 -0.298864 0 0 0 0 0 0 0 0 0 
26.982 1 284 43.094 10.1149 5.47269 -2.03954 3.07356 -0.739684 0.0867325 -0.0314186 0.219268 0 0 0 0 0 0 0 0 0 
26.982 1 282 -1.98125 11.2541 4.9642 1.29529 -7.7285 6.9622 0.0614736 -0.420164 -0.707048 0 0 0 0 0 0 0 0 0 
26.982 1 123 -1.13544 12.1795 2.19667 2.12513 4.12784 -0.871995 -0.453914 0.0549014 -0.307211 0 0 0 0 0 0 0 0 0 
26.982 1 322 -1.25341 13.9235 4.10524 -5.00933 -1.32119 -1.97172 -0.559645 0.113335 -0.0215193 0 0 0 0 0 0 0 0 0 
26.982 1 122 -0.576426 15.0451 1.87123 4.87408 -3.0664 -1.56751 0.359208 0.176054 -0.439259 0 0 0 0 0 0 0 0 0 
26.982 1 124 -3.47778 13.7591 1.63665 -3.98382 7.65596 0.129282 -0.0753272 0.634856 0.419292 0 0 0 0 0 0 0 0 0 
26.982 1 325 0.660944 11.8861 4.10188 -3.68337 8.81674 -1.49176 0.490449 -0.533608 -0.546275 0 0 0 0 0 0 0 0 0 
26.982 1 128 2.01262 14.2073 3.51151 0.943922 2.00285 7.47446 0.189003 0.141686 -0.35635 0 0 0 0 0 0 0 0 0 
26.982 1 127 4.95671 12.4602 3.75573 4.45623 -4.5822 -1.24049 -0.603633 0.0367504 -0.10307 0 0 0 0 0 0 0 0 0 
26.982 1 326 4.36104 14.399 5.58184 2.3116 -2.55524 3.14383 0.584165 0.226935 -0.413624 0 0 0 0 0 0 0 0 0 
26.982 1 125 2.69123 12.0253 1.79323 2.36718 1.09548 -4.70035 -0.245118 0.284371 0.646662 0 0 0 0 0 0 0 0 0 
26.982 1 126 4.30524 14.3604 1.74813 2.68231 3.27227 -5.78265 -0.82538 -0.465092 -0.794769 0 0 0 0 0 0 0 0 0 
26.982 1 328 0.79387 13.8802 5.8961 0.879931 -1.53105 1.65508 0.22101 0.382841 0.100097 0 0 0 0 0 0 0 0 0 
26.982 1 327 2.96823 12.0843 5.60346 -0.999267 -1.62082 -5.25813 -0.790713 -0.0120712 0.0355293 0 0 0 0 0 0 0 0 0 
26.982 1 90 8.88484 10.9969 1.31752 -4.13957 -0.466814 0.664576 -0.132935 0.746972 -0.0223632 0 0 0 0 0 0 0 0 0 
26.982 1 290 9.42051 11.1375 5.36999 -0.0945455 3.89615 -1.83613 -0.285648 0.0251106 0.0469751 0 0 0 0 0 0 0 0 0 
26.982 1 92 7.02892 10.8122 3.78736 -1.38702 -4.56977 2.15928 0.296743 -0.566261 -0.223426 0 0 0 0 0 0 0 0 0 
26.982 1 329 6.98484 12.7246 5.68961 3.12312 2.14215 1.55193 0.263174 0.287187 -0.051656 0 0 0 0 0 0 0 0 0 
26.982 1 132 6.42463 14.7262 3.32538 0.0892854 0.447141 -2.24396 0.845923 -0.00403471 0.528386 0 0 0 0 0 0 0 0 0 
26.982 1 131 8.83128 13.1199 3.45013 -6.35381 3.67236 0.912783 0.137897 -0.478412 -0.666452 0 0 0 0 0 0 0 0 0 
26.982 1 129 6.53604 12.5877 1.50267 3.11763 1.77886 2.18713 0.354494 0.428168 -0.0770377 0 0 0 0 0 0 0 0 0 
26.982 1 330 8.70512 15.0401 5.2672 -4.10948 0.146613 2.80292 -0.26486 0.125107 0.334113 0 0 0 0 0 0 0 0 0 
26.982 1 130 8.44732 14.8931 1.16937 -2.55596 -7.64602 -4.81545 -0.189302 -0.152826 0.718208 0 0 0 0 0 0 0 0 0 
26.982 1 294 13.7372 11.7384 5.086 -2.47875 0.513564 7.46219 -0.293713 -0.0812292 -0.556438 0 0 0 0 0 0 0 0 0 
26.982 1 96 11.4487 11.2927 2.96914 -1.3696 -2.66372 -2.94559 -0.744006 0.683904 0.48235 0 0 0 0 0 0 0 0 0 
26.982 1 333 11.2809 13.2036 5.10245 2.03577 8.0519 2.98598 -0.170923 0.511094 -0.38489 0 0 0 0 0 0 0 0 0 
26.982 1 135 12.9818 13.6799 2.86979 0.497927 0.180873 2.47372 -0.253205 0.0398101 -0.0330273 0 0 0 0 0 0 0 0 0 
26.982 1 100 15.1345 11.771 2.61545 -0.456915 -2.17472 -0.92539 0.307953 0.380252 -0.0882286 0 0 0 0 0 0 0 0 0 
26.982 1 337 15.064 14.1147 4.6919 1.3433 4.02821 -4.00964 0.552291 -0.145499 -0.0495717 0 0 0 0 0 0 0 0 0 
26.982 1 139 16.9522 14.2327 2.55083 -2.1322 2.66033 -3.5809 -0.352745 -0.0715753 -0.229805 0 0 0 0 0 0 0 0 0 
26.982 1 298 17.3932 12.1216 4.45119 -1.49023 1.68191 -2.28416 0.0354118 -0.210888 -0.337644 0 0 0 0 0 0 0 0 0 
26.982 1 338 18.0985 14.7589 5.04294 0.378278 -1.00635 3.09874 -0.717288 -0.0169969 -0.326227 0 0 0 0 0 0 0 0 0 
26.982 1 98 17.8649 11.3561 1.44596 5.48234 -0.497231 -5.3681 -0.135226 0.171103 0.371231 0 0 0 0 0 0 0 0 0 
26.982 1 142 21.5586 15.3294 2.02888 2.05349 -4.24848 3.41371 0.0161757 -0.714907 -0.295493 0 0 0 0 0 0 0 0 0 
26.982 1 104 20.2366 11.0567 3.16498 -4.46601 -5.01146 0.712358 0.0583491 0.496789 -0.349583 0 0 0 0 0 0 0 0 0 
26.982 1 341 20.4865 13.7642 3.98797 -1.466 -4.75636 -6.04258 -0.542027 -0.272368 -0.62495 0 0 0 0 0 0 0 0 0 
26.982 1 141 19.4025 13.5973 1.40302 0.201374 4.85529 -1.5722 0.400193 -0.128262 -0.0869059 0 0 0 0 0 0 0 0 0 
26.982 1 304 20.8554 11.7879 5.88135 2.45116 -3.77123 0.484812 -0.191797 -0.173531 -0.0406499 0 0 0 0 0 0 0 0 0 
26.982 1 143 22.7047 12.7915 2.78257 1.1505 -3.22441 -4.27194 0.274129 -0.349377 -0.269404 0 0 0 0 0 0 0 0 0 
26.982 1 342 23.0503 14.3536 4.96419 -1.07589 0.326872 -1.4545 0.0500488 0.181945 0.237855 0 0 0 0 0 0 0 0 0 
26.982 1 148 25.1707 14.1345 2.88044 5.66222 -0.98269 -0.698141 0.215418 0.796142 0.13708 0 0 0 0 0 0 0 0 0 
26.982 1 345 25.3612 12.3459 4.79864 -2.32502 -5.39135 -0.274535 -0.0709711 -0.617218 -0.196639 0 0 0 0 0 0 0 0 0 
26.982 1 147 27.4722 12.1521 2.80999 -0.989085 2.27771 -1.04405 -0.282197 -0.331887 -0.00788478 0 0 0 0 0 0 0 0 0 
26.982 1 346 27.525 13.9981 4.67996 1.09236 1.44548 2.02102 0.118865 0.531318 0.334188 0 0 0 0 0 0 0 0 0 
26.982 1 152 29.6329 14.2204 2.70984 -1.87908 -5.45906 -2.38468 -0.0225691 -0.445819 0.838364 0 0 0 0 0 0 0 0 0 
26.982 1 349 29.6044 12.0649 4.68653 1.03574 -3.10584 1.45374 0.172141 0.242272 0.131147 0 0 0 0 0 0 0 0 0 
26.982 1 151 31.7412 11.9792 2.65666 -0.479942 -1.77218 -0.935301 -0.959552 -0.103004 -0.203304 0 0 0 0 0 0 0 0 0 
26.982 1 350 31.8111 14.0695 4.68009 1.52137 -4.53211 2.29224 -0.259271 -0.0977469 -0.0951947 0 0 0 0 0 0 0 0 0 
26.982 1 156 33.6866 13.9257 2.41922 2.37973 7.85349 -4.49289 0.142361 0.350873 0.301068 0 0 0 0 0 0 0 0 0 
26.982 1 353 33.5544 11.9359 4.55569 0.629399 -1.39469 1.77156 0.528973 -0.0926758 0.31172 0 0 0 0 0 0 0 0 0 
26.982 1 153 34.1977 11.3455 1.75583 -2.5933 4.85984 -2.99728 0.369176 -0.0231733 -0.465243 0 0 0 0 0 0 0 0 0 
26.982 1 155 36.2663 10.8515 4.08642 1.30528 -2.70361 0.971403 -0.281436 0.283453 0.0458653 0 0 0 0 0 0 0 0 0 
26.982 1 354 35.6583 13.6629 4.34994 -2.5971 -5.08293 -0.992597 0.692839 -0.00742644 -0.138936 0 0 0 0 0 0 0 0 0 
26.982 1 160 38.7494 13.2477 3.88209 -5.86891 2.92843 2.03716 -0.166485 -0.397663 0.0311771 0 0 0 0 0 0 0 0 0 
26.982 1 357 38.3439 10.9432 5.88858 -1.26662 0.524801 -2.20199 0.537137 -0.0385762 -0.1811 0 0 0 0 0 0 0 0 0 
26.982 1 157 38.6514 12.6413 1.1433 -6.21879 -1.10701 -3.09689 -0.0845099 0.41741 0.026588 0 0 0 0 0 0 0 0 0 
26.982 1 197 38.9726 15.2907 2.21494 -1.76436 3.11432 1.1588 0.281261 0.314787 -0.257365 0 0 0 0 0 0 0 0 0 
26.982 1 84 43.629 11.3512 2.7571 -6.35404 -7.67206 1.86348 -0.0710468 -0.375796 -0.229742 0 0 0 0 0 0 0 0 0 
26.982 1 318 40.9716 11.413 4.47037 0.840959 -4.36775 -0.633424 -0.133331 0.507478 -0.00219065 0 0 0 0 0 0 0 0 0 
26.982 1 321 43.3932 12.9094 4.93821 -2.86538 1.40272 -3.31915 0.196061 0.364103 0.107619 0 0 0 0 0 0 0 0 0 
26.982 1 159 41.414 13.4915 2.64976 -6.14838 2.55388 -3.47133 0.162756 0.0770343 0.204857 0 0 0 0 0 0 0 0 0 
26.982 1 358 41.0281 14.5039 5.14749 0.113069 0.398803 4.60125 -0.158952 -0.425 -0.0405193 0 0 0 0 0 0 0 0 0 
26.982 1 163 -2.06245 17.3736 3.55165 0.776458 2.47333 2.90761 0.25423 -0.162385 0.436484 0 0 0 0 0 0 0 0 0 
26.982 1 362 -0.247648 18.1439 5.51674 9.31937 -7.78536 -2.78379 -0.120052 0.10036 0.0323507 0 0 0 0 0 0 0 0 0 
26.982 1 162 -0.48872 17.9265 1.47336 0.226077 -4.21231 -1.12808 0.221993 0.017746 0.031928 0 0 0 0 0 0 0 0 0 
26.982 1 2003 -0.779591 20.0164 3.18872 1.67269 -1.92921 7.01076 0.0266432 -0.197812 0.0595776 0 0 0 0 0 0 0 0 0 
26.982 1 165 1.93242 16.3965 1.63733 2.6323 -0.565356 3.61837 -0.441502 -0.826776 0.312171 0 0 0 0 0 0 0 0 0 
26.982 1 365 2.22831 16.3488 5.31712 -1.20204 7.70938 4.04586 -0.252552 -0.187453 0.486844 0 0 0 0 0 0 0 0 0 
26.982 1 168 1.80519 18.3218 3.55881 -0.581863 0.696017 -0.151072 -0.34439 0.2622 -0.0578841 0 0 0 0 0 0 0 0 0 
26.982 1 167 4.31434 16.2579 3.58799 -0.20815 0.598179 -1.30394 -0.875018 0.688586 0.478642 0 0 0 0 0 0 0 0 0 
26.982 1 366 4.06476 18.549 5.477 0.197971 1.71374 -7.32605 -0.118846 -0.282858 -0.267217 0 0 0 0 0 0 0 0 0 
26.982 1 166 3.48157 18.4766 1.4632 7.76181 2.56656 3.62969 0.0639207 0.756901 -0.198023 0 0 0 0 0 0 0 0 0 
26.982 1 369 6.32217 16.8421 5.54068 -4.47364 5.7582 -4.69538 0.211897 -0.123281 -0.745658 0 0 0 0 0 0 0 0 0 
26.982 1 172 5.61572 18.7336 3.23274 1.80247 1.51575 0.0601452 0.618882 0.00777675 0.316623 0 0 0 0 0 0 0 0 0 
26.982 1 171 8.05884 16.9853 3.19553 -2.9544 1.37926 -0.971912 -0.306352 -0.237741 -0.0154176 0 0 0 0 0 0 0 0 0 
26.982 1 370 7.85064 19.1245 5.27621 1.31346 3.07972 2.43879 0.574469 -0.803461 0.360599 0 0 0 0 0 0 0 0 0 
26.982 1 169 5.53858 16.7537 1.36032 5.56191 4.33779 -5.61047 0.890596 0.0566445 -0.611533 0 0 0 0 0 0 0 0 0 
26.982 1 170 7.79481 18.9305 1.17484 1.55112 2.71258 -7.80757 -0.633851 -0.188157 0.0200217 0 0 0 0 0 0 0 0 0 
26.982 1 136 10.5454 15.4171 3.20833 6.43668 -3.50211 -3.43704 0.185005 -0.428091 -0.219433 0 0 0 0 0 0 0 0 0 
26.982 1 334 12.727 15.784 4.93169 5.33036 -4.30432 3.2243 -0.323592 -0.469746 -0.206801 0 0 0 0 0 0 0 0 0 
26.982 1 176 9.6584 19.114 3.06595 4.84084 -4.90713 -5.72724 0.831039 0.349882 0.0787417 0 0 0 0 0 0 0 0 0 
26.982 1 373 10.3058 17.3328 5.24351 4.32097 -2.39881 -1.23787 -0.0711046 0.160146 -0.107637 0 0 0 0 0 0 0 0 0 
26.982 1 175 12.1764 17.7133 2.54589 1.35014 -1.75703 6.06979 0.419503 -0.311469 0.786891 0 0 0 0 0 0 0 0 0 
26.982 1 374 11.9307 19.5714 4.6971 -1.95275 1.79803 7.35678 -0.522853 0.731728 -0.257984 0 0 0 0 0 0 0 0 0 
26.982 1 140 14.429 16.056 2.61706 8.10041 1.15465 -2.92774 0.139983 0.0757536 -0.138984 0 0 0 0 0 0 0 0 0 
26.982 1 377 14.1884 18.2059 4.46755 3.80583 -4.41051 2.4632 0.321047 0.155314 -0.489857 0 0 0 0 0 0 0 0 0 
26.982 1 179 16.5884 17.0148 4.11933 7.10108 -5.19204 -1.78776 -0.311133 -0.936084 0.301689 0 0 0 0 0 0 0 0 0 
26.982 1 178 16.1839 18.6414 2.14896 -1.58582 3.44802 3.99259 -0.0591307 0.0837112 -0.597609 0 0 0 0 0 0 0 0 0 
26.982 1 180 13.9004 20.2322 2.41813 -2.22815 0.232035 -0.928466 -0.116691 -0.0473277 0.0559861 0 0 0 0 0 0 0 0 0 
26.982 1 144 18.824 16.313 2.6169 -1.07694 -3.65858 1.27429 -0.397915 -0.732177 -0.462296 0 0 0 0 0 0 0 0 0 
26.982 1 378 18.5576 18.7493 3.66773 2.50537 -5.15093 -2.61702 0.322202 0.644638 -0.393916 0 0 0 0 0 0 0 0 0 
26.982 1 381 20.7179 16.6674 4.39607 7.84598 3.78923 3.98342 0.192401 -0.211265 -0.270943 0 0 0 0 0 0 0 0 0 
26.982 1 184 20.7843 17.8499 1.63515 -0.294358 -3.49025 -0.242117 0.0410613 0.0534821 0.81802 0 0 0 0 0 0 0 0 0 
26.982 1 379 18.5351 17.1874 5.88767 -3.90692 1.60776 1.77248 -0.0102244 0.783958 0.406347 0 0 0 0 0 0 0 0 0 
26.982 1 384 20.6269 19.151 5.52202 -2.75868 4.71024 2.50065 -0.178961 -0.886725 0.781679 0 0 0 0 0 0 0 0 0 
26.982 1 183 23.502 16.5847 3.19094 -3.99441 0.391371 -2.34665 -0.126537 -0.47806 -0.0828163 0 0 0 0 0 0 0 0 0 
26.982 1 382 22.7167 19.1856 3.75209 -4.88013 -2.10809 1.22716 -0.216924 0.197462 0.00885492 0 0 0 0 0 0 0 0 0 
26.982 1 385 25.3011 16.0767 5.08887 2.47206 -2.6131 -1.08705 0.501541 -0.102684 -0.201649 0 0 0 0 0 0 0 0 0 
26.982 1 188 25.5211 18.2875 2.98533 3.74606 1.94453 4.48553 -0.0646981 -0.544374 0.408511 0 0 0 0 0 0 0 0 0 
26.982 1 383 22.8015 17.3456 5.75437 -2.60169 -6.27231 -2.98416 0.389112 -0.380895 0.586815 0 0 0 0 0 0 0 0 0 
26.982 1 182 23.3455 18.3846 1.22311 -2.49201 2.78465 -4.33648 0.0652828 0.0435954 -0.417166 0 0 0 0 0 0 0 0 0 
26.982 1 2229 29.7489 19.7849 4.74603 0.211065 -5.67923 -4.02827 0.324376 0.764675 0.370863 0 0 0 0 0 0 0 0 0 
26.982 1 187 27.3956 16.0741 2.84715 -6.26159 -2.51842 -4.71219 -0.0663939 0.077119 0.570553 0 0 0 0 0 0 0 0 0 
26.982 1 386 27.5689 18.211 4.83982 0.608243 2.07295 -4.57795 -0.495571 -0.997259 -0.175679 0 0 0 0 0 0 0 0 0 
26.982 1 192 29.8136 18.1 2.77997 1.5366 -2.00847 -8.92208 -0.337926 0.182728 -0.110472 0 0 0 0 0 0 0 0 0 
26.982 1 389 29.6626 16.292 4.62004 -0.59251 -2.15418 -1.17267 -0.12387 -0.860063 0.23953 0 0 0 0 0 0 0 0 0 
26.982 1 2027 27.7185 20.0881 2.90807 2.43567 0.932211 1.06322 -0.454181 0.218001 0.170337 0 0 0 0 0 0 0 0 0 
26.982 1 2031 31.9288 20.1817 2.8579 5.64453 4.28421 -3.0209 -0.0384604 -0.030718 0.33416 0 0 0 0 0 0 0 0 0 
26.982 1 191 31.7186 16.0999 2.74381 -2.29045 1.78784 -4.51487 0.556257 0.0381383 -0.0844584 0 0 0 0 0 0 0 0 0 
26.982 1 390 31.9584 18.0303 4.8878 0.750954 -9.00141 5.18937 -0.258261 0.0464208 -0.956241 0 0 0 0 0 0 0 0 0 
26.982 1 393 33.9636 15.8746 4.70189 -1.22001 2.13682 -4.79532 -0.37852 0.315129 -0.455 0 0 0 0 0 0 0 0 0 
26.982 1 196 33.9019 18.1015 2.84564 1.96936 -0.196644 -3.22937 0.193734 -0.298805 -0.0585936 0 0 0 0 0 0 0 0 0 
26.982 1 2233 34.3015 20.0322 4.7819 1.92364 -4.57071 -6.78444 -0.244231 0.218157 0.238158 0 0 0 0 0 0 0 0 0 
26.982 1 195 36.1968 16.1396 3.1272 -9.42411 -5.25351 1.89049 0.169066 0.0655195 0.218941 0 0 0 0 0 0 0 0 0 
26.982 1 394 36.5082 18.2703 4.99594 3.63192 -1.81621 -4.12018 0.0107506 -0.357969 -0.267666 0 0 0 0 0 0 0 0 0 
26.982 1 397 38.7723 16.1626 5.01419 0.791886 4.52836 6.2075 -0.30899 0.0219721 -0.0524788 0 0 0 0 0 0 0 0 0 
26.982 1 200 38.4175 17.9809 2.6621 1.49418 4.12133 6.0173 0.112404 -0.221794 0.429638 0 0 0 0 0 0 0 0 0 
26.982 1 2035 36.2791 19.9372 2.63075 -0.678248 0.553143 -1.43107 -0.4624 0.339011 0.367584 0 0 0 0 0 0 0 0 0 
26.982 1 2237 38.4355 20.2281 4.74379 -3.11425 2.80923 -1.15881 -0.258914 -0.456477 0.294041 0 0 0 0 0 0 0 0 0 
26.982 1 361 43.4785 15.5264 3.81649 -0.597893 -1.41007 -3.25291 0.203859 -0.0229897 0.153241 0 0 0 0 0 0 0 0 0 
26.982 1 199 42.0545 16.0483 1.46888 -0.036349 5.05426 -0.829879 0.195947 0.146607 -0.399302 0 0 0 0 0 0 0 0 0 
26.982 1 164 43.0886 18.5501 3.15537 -0.817909 7.86658 3.06465 0.0665599 0.00054451 -0.226643 0 0 0 0 0 0 0 0 0 
26.982 1 398 41.058 16.9929 3.76755 -0.913803 -3.4681 -8.57686 -0.50529 0.268003 0.25416 0 0 0 0 0 0 0 0 0 
26.982 1 364 43.6535 17.6854 5.9457 -1.13219 -10.522 4.73139 0.0843727 -0.314648 -0.579209 0 0 0 0 0 0 0 0 0 
26.982 1 2039 40.5893 19.9873 3.29894 2.87738 -2.50261 -6.06143 0.425359 0.247025 0.0151864 0 0 0 0 0 0 0 0 0 
26.982 1 203 -1.11979 1.35053 6.45796 1.57976 -5.75818 -3.20468 0.622309 1.14477 0.169898 0 0 0 0 0 0 0 0 0 
26.982 1 243 0.102924 3.78615 7.35041 -0.479222 -1.13189 10.7257 0.0150851 0.0445685 -0.789075 0 0 0 0 0 0 0 0 0 
26.982 1 402 0.46468 1.7734 8.93889 6.05467 -1.32819 -5.48242 0.17111 0.0864272 -0.172019 0 0 0 0 0 0 0 0 0 
26.982 1 401 -2.98488 1.38525 8.57593 -6.25934 -1.13708 -1.6209 0.747301 0.163573 0.328684 0 0 0 0 0 0 0 0 0 
26.982 1 441 -2.07257 3.89851 9.29281 -0.431409 -2.07484 5.31707 0.218537 0.10219 0.317347 0 0 0 0 0 0 0 0 0 
26.982 1 204 -2.93344 3.66296 6.55193 -2.61042 -3.01247 -4.96383 0.483876 -0.565616 -0.132738 0 0 0 0 0 0 0 0 0 
26.982 1 208 2.53461 2.20853 6.72259 -5.86398 -2.04651 -3.3318 -0.0197343 0.000255051 -0.240255 0 0 0 0 0 0 0 0 0 
26.982 1 445 2.51958 4.00442 8.76356 -0.647141 -4.58038 4.44662 0.160687 0.0860388 -0.0334177 0 0 0 0 0 0 0 0 0 
26.982 1 247 4.18581 4.64542 6.51535 -5.58322 0.99745 0.227934 0.56254 -0.150507 0.392886 0 0 0 0 0 0 0 0 0 
26.982 1 406 4.85554 2.47016 8.48006 -8.19346 1.11876 3.30441 -0.20583 0.437542 0.125322 0 0 0 0 0 0 0 0 0 
26.982 1 447 4.51204 4.38224 10.7049 -7.26744 2.0649 5.45569 0.256195 -0.0414991 -0.138145 0 0 0 0 0 0 0 0 0 
26.982 1 212 6.53615 2.99513 6.17978 8.76014 0.768387 -4.84355 -0.156102 -0.256777 0.639503 0 0 0 0 0 0 0 0 0 
26.982 1 449 6.5628 4.98644 8.66984 -1.31654 1.88648 0.0577052 -0.20086 -0.573698 -0.37942 0 0 0 0 0 0 0 0 0 
26.982 1 251 8.65418 5.40055 6.97447 -1.05014 -2.64796 4.64297 0.656717 -0.088178 0.252677 0 0 0 0 0 0 0 0 0 
26.982 1 410 8.81865 2.8575 8.24106 -2.03603 1.92343 3.40492 0.379321 0.166839 -0.266429 0 0 0 0 0 0 0 0 0 
26.982 1 451 8.94665 4.95028 10.2499 -3.2834 -2.08358 -3.08913 0.164319 0.0998291 0.0990092 0 0 0 0 0 0 0 0 0 
26.982 1 412 7.05633 2.84317 10.4338 2.46085 2.64843 -0.167655 -0.108655 -0.650395 -0.234853 0 0 0 0 0 0 0 0 0 
26.982 1 453 11.1319 5.22814 8.56468 -3.84168 -3.06289 -2.6845 -0.0492657 -0.298731 -0.287688 0 0 0 0 0 0 0 0 0 
26.982 1 216 11.1787 2.77807 6.51966 0.952282 9.07977 -1.933 -0.43755 -0.336214 0.108796 0 0 0 0 0 0 0 0 0 
26.982 1 255 13.1622 4.56738 6.36298 0.852861 5.84624 -1.13765 0.468798 1.55396 0.239612 0 0 0 0 0 0 0 0 0 
26.982 1 414 13.3151 2.70466 8.22158 1.80053 -0.365451 -5.01126 0.447133 -0.044327 0.709493 0 0 0 0 0 0 0 0 0 
26.982 1 455 13.4323 4.88009 10.0743 -5.44942 5.7793 7.70841 0.10254 -0.196326 0.0412021 0 0 0 0 0 0 0 0 0 
26.982 1 416 11.0648 2.834 10.3027 0.396442 5.63406 -0.0722444 0.191628 0.246755 -0.10247 0 0 0 0 0 0 0 0 0 
26.982 1 457 15.7066 4.87384 8.08527 2.46592 2.04403 1.03089 -0.651576 0.0201336 0.104396 0 0 0 0 0 0 0 0 0 