ITEM: TIMESTEP
15350
ITEM: NUMBER OF ATOMS
4000
ITEM: BOX BOUNDS pp pp pp
-3.19396 43.694
0.790749 39.7093
0.883077 39.6169
ITEM: ATOMS mass type id x y z vx vy vz fx fy fz xrad yrad zrad vxrad vyrad vzrad fxrad fyrad fzrad 
26.982 1 43 -1.48986 5.21178 2.80453 1.25222 2.69192 4.59791 -0.012228 -0.389023 -0.271321 0 0 0 0 0 0 0 0 0 
26.982 1 202 -1.35412 2.98705 4.53546 -1.74845 3.37563 0.323015 -0.256215 -0.184594 0.232737 0 0 0 0 0 0 0 0 0 
26.982 1 964 42.7677 18.1837 18.2999 0.342606 -3.08984 3.35688 -0.420704 0.285667 -0.542479 0 0 0 0 0 0 0 0 0 
26.982 1 961 42.5004 16.4807 16.1342 -0.996469 -4.46508 0.687603 0.69279 -0.0564659 0.154025 0 0 0 0 0 0 0 0 0 
26.982 1 5 0.374175 0.873137 1.2266 -7.76626 -2.64178 0.604223 0.558424 -0.193708 -0.0802274 0 0 0 0 0 0 0 0 0 
26.982 1 245 1.36362 3.82547 5.03844 -0.54372 0.139927 5.22443 0.0832478 0.254721 0.377037 0 0 0 0 0 0 0 0 0 
26.982 1 8 0.604959 3.29731 2.61406 -2.05529 1.9268 -1.57066 0.612044 0.237471 -0.667246 0 0 0 0 0 0 0 0 0 
26.982 1 47 3.192 4.83556 3.18407 -1.34531 5.25752 4.48556 0.0775486 0.425939 0.0865967 0 0 0 0 0 0 0 0 0 
26.982 1 206 3.92937 2.19143 4.36934 -5.53452 1.48878 -0.681022 -0.28494 -0.235477 -0.0444526 0 0 0 0 0 0 0 0 0 
26.982 1 7 4.47157 0.981219 1.56593 4.47586 0.904473 0.547196 0.429893 0.347843 -0.497463 0 0 0 0 0 0 0 0 0 
26.982 1 205 0.934204 1.18536 4.29489 0.743512 2.78516 8.2817 0.0902187 0.101708 -0.381453 0 0 0 0 0 0 0 0 0 
26.982 1 249 5.87617 5.14063 4.93105 -1.68789 0.282831 1.59397 0.221563 -0.339486 -0.0514269 0 0 0 0 0 0 0 0 0 
26.982 1 12 5.66171 3.3563 2.69661 1.98717 1.88953 -9.1714 0.234143 -0.293336 -0.340688 0 0 0 0 0 0 0 0 0 
26.982 1 51 8.40467 3.97424 1.74025 -0.047164 1.23863 1.28832 0.170502 -0.362845 -0.230063 0 0 0 0 0 0 0 0 0 
26.982 1 210 9.09567 2.86578 4.41625 -1.02988 -5.77976 5.05971 0.0330973 0.208052 -0.0911375 0 0 0 0 0 0 0 0 0 
26.982 1 2225 25.0633 20.241 4.65946 -2.64435 4.59041 -1.68444 0.205482 -0.0291576 -0.0310817 0 0 0 0 0 0 0 0 0 
26.982 1 253 11.5389 4.6215 4.11784 4.72828 1.37256 0.635758 -0.150234 0.0439384 0.142314 0 0 0 0 0 0 0 0 0 
26.982 1 16 11.3663 2.6298 2.34257 4.97646 -3.58054 -3.69456 -0.272344 -0.56445 0.0658965 0 0 0 0 0 0 0 0 0 
26.982 1 55 14.192 4.73636 3.03497 4.97498 3.38514 -1.15506 0.0768104 0.216431 -0.307957 0 0 0 0 0 0 0 0 0 
26.982 1 214 13.577 2.54932 4.52591 -1.37905 -0.189413 -3.87678 0.247433 -0.267601 -0.0435764 0 0 0 0 0 0 0 0 0 
26.982 1 178 17.5579 18.9753 0.925818 -3.26393 3.61246 -0.211445 -0.265151 -0.0741764 0.130662 0 0 0 0 0 0 0 0 0 
26.982 1 811 9.07929 1.04648 18.2484 -0.240666 -1.92175 0.328509 -0.205151 -0.210807 0.043745 0 0 0 0 0 0 0 0 0 
26.982 1 20 16.5004 2.75518 2.90087 1.53758 4.21764 -1.1446 -0.660551 0.174625 -0.24412 0 0 0 0 0 0 0 0 0 
26.982 1 257 16.3584 4.67167 4.87875 -0.836365 -3.65424 1.216 -0.366772 -0.121088 -0.149963 0 0 0 0 0 0 0 0 0 
26.982 1 218 18.4719 2.79151 4.75728 3.65052 3.16123 -0.257101 0.145107 0.202282 0.37032 0 0 0 0 0 0 0 0 0 
26.982 1 19 18.511 0.76829 2.99052 0.630905 -3.17991 -0.554241 0.0320514 -0.0407647 -0.762628 0 0 0 0 0 0 0 0 0 
26.982 1 2835 35.9293 20.223 18.1424 0.240897 2.43437 4.48469 0.270551 -0.5613 0.769921 0 0 0 0 0 0 0 0 0 
26.982 1 17 16.2928 0.922225 0.922696 3.07371 -2.36665 0.344344 0.285386 -0.585529 0.237596 0 0 0 0 0 0 0 0 0 
26.982 1 59 18.5228 4.74528 2.85073 0.559785 2.38605 -0.856543 0.261434 0.27258 -0.14995 0 0 0 0 0 0 0 0 0 
26.982 1 24 20.6905 2.7458 2.7399 1.00594 2.17841 -3.15661 0.000523211 0.431774 0.602073 0 0 0 0 0 0 0 0 0 
26.982 1 261 20.623 4.89739 4.73924 -2.11679 -0.552048 -0.814574 -0.110659 -0.494712 -0.241705 0 0 0 0 0 0 0 0 0 
26.982 1 21 20.6415 0.890714 0.886249 -0.851053 -0.0238704 -0.626591 0.162155 -0.741044 0.09309 0 0 0 0 0 0 0 0 0 
26.982 1 63 22.8234 4.7712 2.89027 4.3415 0.270651 2.65596 0.340994 -0.205855 -0.401096 0 0 0 0 0 0 0 0 0 
26.982 1 222 22.8314 2.94329 4.80672 -3.38321 -2.24676 -7.87567 0.0379966 -0.468027 0.167248 0 0 0 0 0 0 0 0 0 
26.982 1 28 25.114 2.75547 2.80208 -3.44625 -6.18717 2.85818 -0.0108882 -0.40026 0.094628 0 0 0 0 0 0 0 0 0 
26.982 1 265 25.1663 4.53897 4.78099 -3.09142 -1.7386 0.857592 -0.336475 0.414427 0.0504658 0 0 0 0 0 0 0 0 0 
26.982 1 23 22.8805 0.834009 2.94094 0.360659 0.661267 -0.0732849 0.209102 0.08371 -0.0161744 0 0 0 0 0 0 0 0 0 
26.982 1 27 27.3889 0.821683 2.93814 4.32174 -0.846594 5.29596 0.322994 0.11572 -0.204076 0 0 0 0 0 0 0 0 0 
26.982 1 998 40.4066 18.2743 16.3826 5.20003 0.85134 0.247936 -0.277701 -0.236694 -0.00419989 0 0 0 0 0 0 0 0 0 
26.982 1 22 22.9922 2.66312 0.901882 -4.36298 -2.46929 -4.18398 0.0234167 0.637301 0.247856 0 0 0 0 0 0 0 0 0 
26.982 1 67 27.5433 4.75629 2.75337 3.94382 2.27876 -2.58418 -0.220692 0.193751 0.189998 0 0 0 0 0 0 0 0 0 
26.982 1 226 27.43 2.93791 4.64117 -7.12179 4.47457 -0.231263 0.477395 -0.702765 -0.0857067 0 0 0 0 0 0 0 0 0 
26.982 1 32 29.7083 2.59455 2.81159 0.50416 -0.717313 3.48652 0.0497644 0.0872395 0.0445493 0 0 0 0 0 0 0 0 0 
26.982 1 269 29.8762 4.76076 4.40233 -4.5595 -1.45174 1.17242 -0.479001 0.294068 0.336947 0 0 0 0 0 0 0 0 0 
26.982 1 2007 4.30215 20.0139 3.07828 3.30992 -6.95149 3.21084 -0.214217 0.267378 0.0796682 0 0 0 0 0 0 0 0 0 
26.982 1 2839 40.5329 20.1837 18.2808 -2.88716 -1.79244 1.12814 -0.0441282 -0.219451 0.443539 0 0 0 0 0 0 0 0 0 
26.982 1 809 6.6174 0.819635 16.2073 1.55554 0.682009 -1.56265 0.419649 0.0948115 0.214992 0 0 0 0 0 0 0 0 0 
26.982 1 2827 27.3079 20.0282 18.5135 2.95415 5.11421 -1.0063 -0.412918 0.399911 -0.169741 0 0 0 0 0 0 0 0 0 
26.982 1 71 31.8602 4.81103 2.62136 -0.410074 -2.5931 -2.29688 0.496592 -0.441978 0.123116 0 0 0 0 0 0 0 0 0 
26.982 1 230 32.0542 2.59273 4.89742 -0.681963 2.24149 -3.37276 -0.202998 -0.0662617 -0.436285 0 0 0 0 0 0 0 0 0 
26.982 1 273 33.965 4.63842 4.60439 -1.31898 3.31314 -2.14287 0.578218 0.388638 0.556174 0 0 0 0 0 0 0 0 0 
26.982 1 36 34.0793 2.63373 2.98803 -3.38001 -1.6615 0.880643 0.119421 -0.223879 -0.692941 0 0 0 0 0 0 0 0 0 
26.982 1 203 -1.24628 0.831018 6.47854 -0.522314 1.07617 -1.75869 0.13378 0.14568 0.293316 0 0 0 0 0 0 0 0 0 
26.982 1 999 40.4664 16.3489 18.3029 3.09303 5.10828 3.07308 0.00732934 -0.222543 -0.113993 0 0 0 0 0 0 0 0 0 
26.982 1 75 36.3075 4.58681 2.9078 -0.49102 1.54737 -11.716 0.203815 0.116228 0.213818 0 0 0 0 0 0 0 0 0 
26.982 1 234 36.3997 2.60191 4.86943 1.74267 -0.249645 -0.165 0.533254 0.149451 -0.107938 0 0 0 0 0 0 0 0 0 
26.982 1 40 38.5835 2.77249 3.01187 0.984183 -0.114005 3.66458 0.019567 -0.0483902 -0.0877425 0 0 0 0 0 0 0 0 0 
26.982 1 277 38.7504 4.52572 5.06295 -1.75681 4.85882 1.18826 0.080442 -0.10195 -0.342277 0 0 0 0 0 0 0 0 0 
26.982 1 417 15.9004 1.05439 8.88897 -0.617468 -0.918618 5.93021 -0.596142 -0.197399 -0.203961 0 0 0 0 0 0 0 0 0 
26.982 1 41 43.1339 4.59659 0.943887 -5.75912 7.15908 2.98115 0.0536118 0.262003 0.156358 0 0 0 0 0 0 0 0 0 
26.982 1 4 42.9961 2.49814 2.85313 2.4463 -4.01663 -4.08381 0.467738 0.676735 0.41593 0 0 0 0 0 0 0 0 0 
26.982 1 241 43.3947 4.59486 4.77822 -6.48764 7.09366 0.105756 -0.663782 0.306967 -0.0876745 0 0 0 0 0 0 0 0 0 
26.982 1 79 40.8586 4.86806 2.89435 -3.70946 -6.48141 -2.87163 0.224994 -0.413863 0.0653832 0 0 0 0 0 0 0 0 0 
26.982 1 238 41.1061 2.63642 4.91328 -1.5102 3.72162 -1.72971 -0.0432038 0.175568 0.172602 0 0 0 0 0 0 0 0 0 
26.982 1 2803 -2.04283 20.3046 17.9059 1.98742 4.86904 -1.63909 -0.186983 0.057182 0.0153296 0 0 0 0 0 0 0 0 0 
26.982 1 83 -1.34759 8.40523 3.13152 0.0517323 8.315 0.468004 -0.0652948 0.0970485 -0.221511 0 0 0 0 0 0 0 0 0 
26.982 1 242 -1.13673 5.96145 5.31168 -7.91619 -5.89929 -0.369587 0.0767321 -0.184485 -0.100596 0 0 0 0 0 0 0 0 0 
26.982 1 281 43.5811 7.93072 5.13985 -1.37396 -0.4721 1.50726 -0.085195 0.379718 -0.111367 0 0 0 0 0 0 0 0 0 
26.982 1 282 -1.03989 10.59 4.87181 -2.97196 -4.4542 3.59986 -0.0893236 -0.103934 0.348402 0 0 0 0 0 0 0 0 0 
26.982 1 2817 16.4803 20.1743 16.4685 6.9768 0.331574 3.64729 -0.388959 0.0282871 0.0286457 0 0 0 0 0 0 0 0 0 
26.982 1 48 0.818979 6.78467 3.07384 1.45337 1.17562 0.30578 0.471822 -0.556077 -0.323617 0 0 0 0 0 0 0 0 0 
26.982 1 285 0.990838 8.5051 5.06537 -1.97424 0.144607 2.90254 0.45533 0.452509 0.488961 0 0 0 0 0 0 0 0 0 
26.982 1 87 4.21769 7.79305 2.19824 -6.34884 5.32563 1.61795 -0.0264576 0.0904505 0.545055 0 0 0 0 0 0 0 0 0 
26.982 1 246 3.57052 6.96727 5.05943 -3.68582 -3.88436 1.96464 -0.143646 -0.0798517 0.0312075 0 0 0 0 0 0 0 0 0 
26.982 1 88 1.18097 9.81408 2.48019 -1.50513 1.21885 1.73789 -0.164369 -0.148842 0.0742787 0 0 0 0 0 0 0 0 0 
26.982 1 286 3.50478 9.7541 4.16597 1.88416 -2.32021 1.54477 0.579762 -0.152296 -0.130646 0 0 0 0 0 0 0 0 0 
26.982 1 289 6.49067 7.7986 4.26425 -3.09573 4.04317 -4.4737 -0.264649 0.323139 -0.435712 0 0 0 0 0 0 0 0 0 
26.982 1 52 6.41984 5.92639 2.22508 1.16798 0.403602 -3.91534 -0.312237 0.254954 -0.567819 0 0 0 0 0 0 0 0 0 
26.982 1 91 9.10747 8.76608 3.02943 1.6271 -0.20612 4.40541 0.162594 -0.0252554 0.331377 0 0 0 0 0 0 0 0 0 
26.982 1 250 8.63591 5.84063 3.75046 -2.92416 -1.9446 -0.528764 0.480663 0.122422 0.510736 0 0 0 0 0 0 0 0 0 
26.982 1 290 8.92961 10.7897 5.1797 -2.69192 0.309374 -1.86593 0.191705 -0.172207 0.198164 0 0 0 0 0 0 0 0 0 
26.982 1 50 9.35842 6.60795 1.0772 -2.31891 5.15891 -0.0148173 0.150138 0.21144 0.303865 0 0 0 0 0 0 0 0 0 
26.982 1 89 6.98062 8.57732 1.30879 6.7623 -1.37592 -2.01407 0.196643 -0.149729 0.175724 0 0 0 0 0 0 0 0 0 
26.982 1 293 11.2109 9.04813 5.00254 3.05983 4.62687 3.12977 0.0897088 0.0097997 0.0668726 0 0 0 0 0 0 0 0 0 
26.982 1 56 11.496 7.15941 2.90139 -3.16095 -0.688623 1.0993 -0.0543245 -0.265826 -0.06241 0 0 0 0 0 0 0 0 0 
26.982 1 95 13.7236 9.02827 2.42671 5.6279 -4.50375 -2.98589 -0.0546161 0.0070458 0.340653 0 0 0 0 0 0 0 0 0 
26.982 1 254 13.8154 7.085 4.51565 3.36674 6.79341 -0.332263 0.0820959 -0.153602 -0.173853 0 0 0 0 0 0 0 0 0 
26.982 1 635 36.5719 1.28257 15.0522 -3.47489 -0.118137 1.9414 -0.00606178 -0.349046 -0.0724838 0 0 0 0 0 0 0 0 0 
26.982 1 294 13.4633 10.7884 4.62779 1.22619 0.0764312 -0.656776 0.104767 -0.263616 -0.314284 0 0 0 0 0 0 0 0 0 
26.982 1 633 34.261 0.811901 12.6005 0.268826 -2.53353 4.03078 0.0783202 0.714448 0.490573 0 0 0 0 0 0 0 0 0 
26.982 1 60 16.0778 6.73258 2.7464 -3.82164 0.990271 -1.00338 0.226757 -0.0840305 0.00941192 0 0 0 0 0 0 0 0 0 
26.982 1 297 15.7646 8.87875 4.45491 3.20911 1.33407 0.0827933 0.354396 0.579423 0.103173 0 0 0 0 0 0 0 0 0 
26.982 1 99 18.3858 8.46131 2.99126 -0.232136 2.96367 3.98031 -0.204465 0.593834 0.107715 0 0 0 0 0 0 0 0 0 
26.982 1 100 15.5805 11.0184 2.32689 4.42611 -0.431791 1.82826 0.350051 0.0347802 0.14645 0 0 0 0 0 0 0 0 0 
26.982 1 258 18.3182 6.5298 4.87438 3.46655 2.88194 2.22044 0.208866 -0.148665 -0.124663 0 0 0 0 0 0 0 0 0 
26.982 1 64 20.8456 6.732 2.51838 -4.74946 -1.72218 5.94763 -0.251501 -0.124268 0.581748 0 0 0 0 0 0 0 0 0 
26.982 1 301 20.5357 8.25514 4.8423 1.00918 6.64845 -0.335052 0.17168 0.493142 0.0779504 0 0 0 0 0 0 0 0 0 
26.982 1 104 20.4739 10.5979 3.16894 -0.140414 -0.869741 0.646176 -0.113063 -0.391192 -0.121733 0 0 0 0 0 0 0 0 0 
26.982 1 103 22.9022 8.52256 2.82403 -2.20377 -2.39393 2.60654 -0.126778 -0.129435 0.0700585 0 0 0 0 0 0 0 0 0 
26.982 1 262 22.8702 6.50024 4.95698 -1.88164 -1.72526 4.1298 0.398776 0.369093 -0.450839 0 0 0 0 0 0 0 0 0 
26.982 1 305 25.0595 8.59191 4.73573 0.173186 -0.734933 -1.31436 0.303628 -0.273229 -0.0655454 0 0 0 0 0 0 0 0 0 
26.982 1 68 25.1725 6.58783 2.82532 6.66009 1.13966 0.98161 0.270073 0.054999 0.562224 0 0 0 0 0 0 0 0 0 
26.982 1 302 22.8165 10.4084 4.73325 -3.86541 -4.86009 -6.2466 -0.0594121 0.452799 0.0334573 0 0 0 0 0 0 0 0 0 
26.982 1 2433 34.0991 19.944 8.60212 -3.60291 -2.89225 -2.45179 -0.584895 0.418462 -0.198677 0 0 0 0 0 0 0 0 0 
26.982 1 107 27.432 8.69318 2.75799 0.754734 0.828469 1.71967 -0.197618 -0.199896 0.107709 0 0 0 0 0 0 0 0 0 
26.982 1 266 27.5584 6.69933 4.69194 3.2693 0.573472 3.43082 -0.0200686 -0.159796 0.222678 0 0 0 0 0 0 0 0 0 
26.982 1 72 29.9721 7.02789 2.69453 1.52819 -2.55383 -8.54451 -0.459957 -0.800356 1.04538 0 0 0 0 0 0 0 0 0 
26.982 1 309 29.6783 8.64112 4.90319 1.78993 -4.11445 2.37273 -0.203205 -0.143848 0.155224 0 0 0 0 0 0 0 0 0 
26.982 1 112 29.7687 10.3869 2.89483 5.64171 -1.21381 -0.397908 -0.000959516 -0.213895 -0.642488 0 0 0 0 0 0 0 0 0 
26.982 1 427 27.3302 0.823395 10.7191 -0.906094 -2.18324 -0.063249 -0.237108 -0.401624 -0.186549 0 0 0 0 0 0 0 0 0 
26.982 1 2435 36.0371 19.9043 10.6197 2.69837 2.26395 0.644938 0.282679 0.28612 -0.204899 0 0 0 0 0 0 0 0 0 
26.982 1 631 31.9344 0.788645 14.3602 -1.01086 -1.73762 0.823338 0.083999 0.246253 0.610457 0 0 0 0 0 0 0 0 0 
26.982 1 111 32.195 8.71415 2.79702 0.681154 1.84519 -1.31985 -0.0879448 -0.7544 0.0383509 0 0 0 0 0 0 0 0 0 
26.982 1 270 32.1124 6.65643 4.65147 -4.85667 -3.72853 1.76877 -0.169046 0.616801 0.254292 0 0 0 0 0 0 0 0 0 
26.982 1 76 34.1612 6.65376 2.68469 2.21539 6.43108 -4.94191 0.0463138 0.057403 0.137152 0 0 0 0 0 0 0 0 0 
26.982 1 313 34.333 8.56092 4.79242 4.70331 -1.06565 0.0122922 -0.471795 -0.732306 0.330486 0 0 0 0 0 0 0 0 0 
26.982 1 116 34.4686 10.3756 2.74456 -2.16177 4.73742 3.01082 -0.600248 0.448219 0.0972342 0 0 0 0 0 0 0 0 0 
26.982 1 115 36.4275 8.50903 2.96455 -4.04447 -0.945911 -1.70378 0.305711 -0.470819 -0.869019 0 0 0 0 0 0 0 0 0 
26.982 1 274 36.4561 6.61067 4.88298 -6.93484 10.2237 4.63821 -0.0254003 -0.478924 0.0640528 0 0 0 0 0 0 0 0 0 
26.982 1 80 38.5476 6.4354 3.02969 -4.07084 2.87755 -3.68429 0.0470942 0.118135 -0.460935 0 0 0 0 0 0 0 0 0 
26.982 1 317 38.6554 8.43375 4.89803 -7.09006 -2.14322 -0.222583 0.330275 0.195191 -0.0521687 0 0 0 0 0 0 0 0 0 
26.982 1 120 38.5871 10.3604 2.86039 -1.93684 6.67641 2.46365 0.111234 0.392162 0.204058 0 0 0 0 0 0 0 0 0 
26.982 1 74 36.3345 6.51646 0.891994 2.05234 -7.86924 -10.1667 0.276719 0.629031 0.509816 0 0 0 0 0 0 0 0 0 
26.982 1 609 6.67166 0.816738 12.4716 -0.570723 -0.436268 -0.112701 -0.270461 0.0497468 -0.430979 0 0 0 0 0 0 0 0 0 
26.982 1 44 43.0616 6.76367 2.73005 -8.05884 1.67254 2.58438 -0.273486 0.100029 -0.171738 0 0 0 0 0 0 0 0 0 
26.982 1 119 40.7418 8.5131 2.91303 0.283568 -1.77344 -1.47733 0.0917003 -0.540481 -0.466596 0 0 0 0 0 0 0 0 0 
26.982 1 278 41.1693 6.58867 4.9268 -7.49437 -0.267351 -0.260183 -0.211598 -0.226091 -0.149477 0 0 0 0 0 0 0 0 0 
26.982 1 84 43.3321 10.0698 3.26188 -3.45838 1.5984 1.27955 -0.000541521 -0.214777 -0.115215 0 0 0 0 0 0 0 0 0 
26.982 1 2633 33.8188 20.1242 12.6427 -0.452251 2.073 -2.86408 0.294142 -0.130094 -0.36579 0 0 0 0 0 0 0 0 0 
26.982 1 123 -1.14315 11.5455 2.37843 -0.423496 -6.45219 0.0698807 -0.246096 0.229603 -0.121672 0 0 0 0 0 0 0 0 0 
26.982 1 322 -1.18084 13.8338 4.24838 -3.42285 -4.08262 -3.00628 0.355787 -0.206413 -0.380598 0 0 0 0 0 0 0 0 0 
26.982 1 124 43.4533 13.8291 2.34135 1.76067 -0.589197 -0.790005 0.235903 0.249245 -0.000141638 0 0 0 0 0 0 0 0 0 
26.982 1 122 -0.578755 14.4795 1.45056 -1.11804 -6.91607 -3.47506 0.0282648 -0.0485757 -0.0798336 0 0 0 0 0 0 0 0 0 
26.982 1 325 1.52313 11.6074 4.60202 -1.51184 -1.60569 0.254118 -0.0644458 0.484401 -0.13403 0 0 0 0 0 0 0 0 0 
26.982 1 128 2.16716 14.5317 3.76959 2.06693 -5.98663 1.01584 -0.12006 -0.0107532 0.0199239 0 0 0 0 0 0 0 0 0 
26.982 1 127 4.48017 12.4782 3.49572 -0.906309 -0.215823 -0.587186 -0.00143678 -0.372518 0.240717 0 0 0 0 0 0 0 0 0 
26.982 1 326 4.5436 14.524 5.43735 1.29191 2.38192 -1.09479 0.0403986 0.144358 0.0178264 0 0 0 0 0 0 0 0 0 
26.982 1 125 1.65216 12.5114 1.82824 6.87929 -1.29791 8.42633 0.545344 0.38921 0.0539237 0 0 0 0 0 0 0 0 0 
26.982 1 86 4.74736 10.5087 1.3344 6.86535 -5.14127 -9.28864 -0.218037 0.0112224 -0.0245699 0 0 0 0 0 0 0 0 0 
26.982 1 92 6.71479 10.6201 3.41871 3.53523 3.95126 1.33968 0.013977 -0.238172 -0.236298 0 0 0 0 0 0 0 0 0 
26.982 1 329 6.86165 12.7499 5.30456 5.58459 0.330883 -1.91507 -0.508473 -0.122036 0.0249042 0 0 0 0 0 0 0 0 0 
26.982 1 132 6.84804 14.3475 2.89705 3.21369 -0.203251 0.557772 -0.456487 0.427518 0.328325 0 0 0 0 0 0 0 0 0 
26.982 1 131 8.86958 12.4398 2.85841 -1.01066 0.21318 4.65147 0.407888 0.102257 0.0160618 0 0 0 0 0 0 0 0 0 
26.982 1 330 8.98553 14.4389 4.79635 -0.681753 -2.54613 6.58549 0.196238 0.362654 0.0151167 0 0 0 0 0 0 0 0 0 
26.982 1 129 6.72749 12.329 1.04205 -2.69101 -6.14966 1.72155 -0.183281 0.419639 -0.0753104 0 0 0 0 0 0 0 0 0 
26.982 1 162 -0.330222 17.3633 1.23203 -0.062655 1.14414 -4.95627 -0.0910828 0.0586976 -0.260018 0 0 0 0 0 0 0 0 0 
26.982 1 613 11.0858 0.854172 12.4553 2.26657 1.99113 2.31351 -0.235815 -0.0138156 -0.188017 0 0 0 0 0 0 0 0 0 
26.982 1 96 11.282 10.8752 2.64346 -1.33263 -1.22014 -1.0694 0.164707 -0.28011 0.0872399 0 0 0 0 0 0 0 0 0 
26.982 1 333 11.2036 12.631 4.85175 0.39238 -2.31588 1.20612 0.0187282 0.0949738 -0.087476 0 0 0 0 0 0 0 0 0 
26.982 1 136 11.0994 14.8594 2.92917 -0.791771 1.12505 0.101506 0.0135033 -0.278471 -0.470166 0 0 0 0 0 0 0 0 0 
26.982 1 135 13.4184 12.8992 2.59457 -3.23627 2.35676 -1.77985 -0.17571 -0.0426905 0.0437286 0 0 0 0 0 0 0 0 0 
26.982 1 334 13.3729 14.7843 4.69368 -2.81765 0.552736 -0.767789 0.225968 -0.223689 0.251768 0 0 0 0 0 0 0 0 0 
26.982 1 140 15.533 14.746 2.60714 7.37218 0.965217 -1.03312 -0.0272304 0.0833673 0.0599884 0 0 0 0 0 0 0 0 0 
26.982 1 337 15.7031 12.608 4.59379 1.23263 -0.716583 -4.58612 0.071951 0.473701 -0.0154706 0 0 0 0 0 0 0 0 0 
26.982 1 139 17.6892 12.9943 2.36705 0.136005 1.41712 -1.09078 0.249474 -0.412137 0.170023 0 0 0 0 0 0 0 0 0 
26.982 1 338 17.9681 14.633 4.61395 5.11619 -2.23847 -3.77424 -0.232107 -0.259024 0.0322584 0 0 0 0 0 0 0 0 0 
26.982 1 298 18.0024 10.854 4.52892 -0.475195 1.75024 -1.19221 -0.156636 -0.273177 -0.613373 0 0 0 0 0 0 0 0 0 
26.982 1 341 20.0927 12.898 4.55831 3.81463 1.04648 -0.813879 0.181764 -0.456679 -0.463506 0 0 0 0 0 0 0 0 0 
26.982 1 144 20.3254 14.3597 2.29448 5.84465 -1.35685 -2.65808 -0.63462 0.840453 0.612633 0 0 0 0 0 0 0 0 0 
26.982 1 141 20.6062 12.2575 0.937349 1.44278 0.53203 -5.199 -0.190148 -0.71072 -0.776514 0 0 0 0 0 0 0 0 0 
26.982 1 2431 31.8114 20.1363 10.4869 -0.679236 -0.265609 6.23988 -0.177067 0.159228 0.232496 0 0 0 0 0 0 0 0 0 
26.982 1 108 24.8903 10.5795 2.82565 0.660432 -1.55932 2.19523 0.779286 0.0490878 -0.145102 0 0 0 0 0 0 0 0 0 
26.982 1 143 22.6162 12.3946 2.8214 4.65272 -7.52745 -7.09913 0.228181 0.133396 0.146206 0 0 0 0 0 0 0 0 0 
26.982 1 342 22.7939 14.4939 4.62299 0.0230687 0.459464 1.25662 -0.418378 -0.681159 0.143011 0 0 0 0 0 0 0 0 0 
26.982 1 148 24.9123 14.3751 2.74889 0.916197 2.37344 0.291054 0.245368 0.0296405 -0.0438005 0 0 0 0 0 0 0 0 0 
26.982 1 345 24.9778 12.4731 4.74205 3.25409 2.46702 4.09794 -0.113011 0.0711471 0.205687 0 0 0 0 0 0 0 0 0 
26.982 1 306 27.3486 10.5487 4.70269 -4.13439 -4.42607 -0.292305 -0.384703 -0.277749 0.17632 0 0 0 0 0 0 0 0 0 
26.982 1 147 27.1874 12.4561 2.75388 -4.09965 3.87958 1.49756 0.00383441 0.0177139 -0.273907 0 0 0 0 0 0 0 0 0 
26.982 1 346 27.2961 14.3768 4.66445 1.34098 2.184 -0.351689 -0.464392 0.147068 -0.302595 0 0 0 0 0 0 0 0 0 
26.982 1 152 29.4691 14.4512 2.81458 -0.835695 2.21245 -3.94622 0.0439819 -0.284209 -0.0175743 0 0 0 0 0 0 0 0 0 
26.982 1 349 29.4188 12.3128 4.57481 -3.42965 -6.50262 -1.65052 0.437311 0.464186 0.0777685 0 0 0 0 0 0 0 0 0 
26.982 1 310 32.0009 10.2098 4.8632 0.62112 3.52908 0.0762223 -0.131263 1.01272 0.297824 0 0 0 0 0 0 0 0 0 
26.982 1 151 31.9479 12.2559 2.72141 -5.96919 0.223108 3.68678 -0.293657 -0.156147 0.408954 0 0 0 0 0 0 0 0 0 
26.982 1 350 31.711 14.2543 4.65967 4.04713 -3.48486 2.54619 -0.0959804 0.190286 0.134197 0 0 0 0 0 0 0 0 0 
26.982 1 156 34.0061 14.3748 3.01451 1.55334 1.09265 2.67307 0.178159 0.337249 -0.486656 0 0 0 0 0 0 0 0 0 
26.982 1 353 33.9115 12.3992 4.73381 -1.12633 2.91985 5.31786 0.228563 -0.755327 -0.0722388 0 0 0 0 0 0 0 0 0 
26.982 1 2631 31.8456 20.2164 14.4964 -4.23445 -3.28355 3.11407 -0.161547 -0.503486 -0.204236 0 0 0 0 0 0 0 0 0 
26.982 1 314 36.346 10.3173 4.84908 6.46708 2.02256 0.949185 0.563755 0.677513 0.518753 0 0 0 0 0 0 0 0 0 
26.982 1 155 36.4595 12.3704 2.95898 -6.05753 1.05429 -4.35987 -0.20113 -0.144175 0.135246 0 0 0 0 0 0 0 0 0 
26.982 1 354 36.3088 14.4825 4.62168 -2.36812 1.68656 -2.04835 0.106964 -0.34009 -0.0170221 0 0 0 0 0 0 0 0 0 
26.982 1 160 38.8921 14.4585 2.80632 -0.00365373 0.0114678 1.17702 -0.128248 0.00678044 -0.387043 0 0 0 0 0 0 0 0 0 
26.982 1 357 38.6512 12.4655 4.66756 -1.11275 -3.04854 -0.184533 0.0965835 -0.016388 0.0413867 0 0 0 0 0 0 0 0 0 
26.982 1 411 8.70504 0.854315 10.2432 3.49151 0.104459 -3.45674 0.00601259 -0.0887228 -0.0229859 0 0 0 0 0 0 0 0 0 
26.982 1 318 41.0045 10.4169 4.66037 -3.94924 -2.37625 -0.997153 -0.137225 -0.0312685 0.481114 0 0 0 0 0 0 0 0 0 
26.982 1 321 43.4184 12.4349 4.57283 -0.756454 2.97414 0.230263 -0.601852 -0.0639694 0.624481 0 0 0 0 0 0 0 0 0 
26.982 1 159 41.0004 12.3696 2.76443 -2.29379 -5.17526 7.90305 -0.254305 -0.0666748 -0.0764074 0 0 0 0 0 0 0 0 0 
26.982 1 358 41.0709 14.3402 4.62724 -2.94651 -2.84714 0.646227 -0.150196 -0.653921 0.770934 0 0 0 0 0 0 0 0 0 
26.982 1 163 -0.516588 16.4079 3.76309 0.398724 -5.13967 -1.66771 0.230167 0.210226 -0.210175 0 0 0 0 0 0 0 0 0 
26.982 1 362 -0.49585 18.2794 5.79136 -2.99098 -5.35476 0.280065 0.023891 0.453104 0.134604 0 0 0 0 0 0 0 0 0 
26.982 1 2801 42.4866 20.1044 16.2729 -4.51831 4.28357 -2.50083 0.218419 0.338338 0.3992 0 0 0 0 0 0 0 0 0 
26.982 1 166 4.40147 18.1931 0.928102 -2.55244 -2.86537 1.15703 -0.944566 -0.424622 -0.123719 0 0 0 0 0 0 0 0 0 
26.982 1 165 2.18963 15.9812 1.25727 8.55977 -0.464738 5.22518 -0.0468459 0.473519 0.531896 0 0 0 0 0 0 0 0 0 
26.982 1 365 1.85051 16.7772 5.67095 2.74417 -3.77838 3.37079 0.185974 -0.488841 0.115878 0 0 0 0 0 0 0 0 0 
26.982 1 168 2.26286 18.0368 3.20994 3.21507 -4.4785 -1.13057 -0.174326 -0.12951 -0.0945924 0 0 0 0 0 0 0 0 0 
26.982 1 167 4.63091 16.3068 3.17797 1.88747 -6.10595 -5.50525 -0.095043 -0.205603 -0.427638 0 0 0 0 0 0 0 0 0 
26.982 1 366 4.63848 18.1293 5.14308 4.19972 1.36041 -2.27672 -0.261771 0.34839 0.209996 0 0 0 0 0 0 0 0 0 
26.982 1 2205 2.27083 19.6634 5.53954 1.85398 -0.414414 4.99698 -0.325842 0.131754 -0.125801 0 0 0 0 0 0 0 0 0 
26.982 1 1000 38.1656 18.2706 18.4054 -1.30823 2.31189 5.14586 0.575232 -0.178677 -0.304926 0 0 0 0 0 0 0 0 0 
26.982 1 369 6.77847 16.4814 5.07039 -4.07458 5.10574 2.33608 0.0653655 -0.451358 -0.266932 0 0 0 0 0 0 0 0 0 
26.982 1 172 6.57911 18.4429 2.94725 -1.04639 -1.24561 1.00281 0.295024 -0.232501 0.442258 0 0 0 0 0 0 0 0 0 
26.982 1 171 8.88171 16.6493 2.87901 5.80328 2.00684 2.28897 0.0876511 0.135817 0.282236 0 0 0 0 0 0 0 0 0 
26.982 1 370 8.91305 18.5963 4.93278 0.525786 -3.1373 2.46016 0.220862 -0.0865196 -0.403113 0 0 0 0 0 0 0 0 0 
26.982 1 169 6.74053 16.5379 1.00447 -1.98514 8.0317 0.408524 -0.518313 0.0854105 0.167874 0 0 0 0 0 0 0 0 0 
26.982 1 2627 27.4467 20.1893 14.4945 -2.73847 -2.67285 -0.56763 -0.4287 -0.518624 -0.636145 0 0 0 0 0 0 0 0 0 
26.982 1 176 10.9491 18.9342 2.75368 3.45048 3.2406 4.19342 -0.1839 -0.0339224 0.268759 0 0 0 0 0 0 0 0 0 
26.982 1 373 11.2677 16.7286 4.85573 -2.88546 -0.732184 3.99215 -0.5983 0.279066 0.325982 0 0 0 0 0 0 0 0 0 
26.982 1 175 13.081 16.9206 2.81088 -4.66476 1.39066 3.0339 0.327738 -0.11956 -0.518763 0 0 0 0 0 0 0 0 0 
26.982 1 374 13.2666 18.5936 4.90299 3.68935 0.368606 1.055 0.146032 -0.0803097 0.0933624 0 0 0 0 0 0 0 0 0 
26.982 1 2 -1.56769 2.73636 1.20719 -0.894896 4.71179 -1.25175 -0.854663 0.410361 -0.50117 0 0 0 0 0 0 0 0 0 
26.982 1 377 15.483 16.6955 4.50942 -2.18544 3.14746 -0.473572 -0.0151338 0.341077 -0.0657041 0 0 0 0 0 0 0 0 0 
26.982 1 180 15.4799 18.9713 2.59246 -4.92039 3.91622 -0.870412 -0.00891246 -0.215345 0.245421 0 0 0 0 0 0 0 0 0 
26.982 1 179 17.768 16.6559 2.77819 -1.50149 0.898883 2.95101 -0.0233826 -0.0741893 -0.450489 0 0 0 0 0 0 0 0 0 
26.982 1 378 17.7835 18.6841 4.46593 0.623992 0.674192 2.74994 0.10913 0.0552806 0.333919 0 0 0 0 0 0 0 0 0 
26.982 1 121 43.0572 11.5434 0.873752 -0.095463 -5.91671 -1.14106 0.0285553 -0.223962 0.0417435 0 0 0 0 0 0 0 0 0 
26.982 1 381 20.1852 16.2203 4.49307 3.94433 -0.881145 -7.22813 0.0870595 0.352226 -0.107355 0 0 0 0 0 0 0 0 0 
26.982 1 184 20.2282 18.6791 2.97959 -0.502399 3.38132 -2.72324 0.130782 -0.43464 -0.11782 0 0 0 0 0 0 0 0 0 
26.982 1 183 22.4548 16.409 2.90706 3.07012 4.22327 -1.03702 -0.0319965 0.4649 -0.620017 0 0 0 0 0 0 0 0 0 
26.982 1 382 22.6831 18.3455 4.8278 0.928321 3.21525 -0.855417 -0.132901 0.575068 -0.364022 0 0 0 0 0 0 0 0 0 
26.982 1 2227 27.3831 20.1114 6.65482 1.56 -4.34367 1.46162 0.124587 0.390345 -0.349369 0 0 0 0 0 0 0 0 0 
26.982 1 126 4.21563 14.1679 1.48288 5.48824 0.188521 -0.971018 0.297886 0.207698 0.0722573 0 0 0 0 0 0 0 0 0 
26.982 1 2623 22.876 20.073 14.564 0.423392 0.387795 0.027652 -0.117158 0.26912 -0.47425 0 0 0 0 0 0 0 0 0 
26.982 1 385 24.8639 16.3099 4.65846 1.70419 3.2361 -3.84095 0.52504 -0.331379 -0.309478 0 0 0 0 0 0 0 0 0 
26.982 1 188 24.9274 18.2332 2.85677 1.83041 -6.67275 -5.05057 0.138995 0.324939 -0.397217 0 0 0 0 0 0 0 0 0 
26.982 1 2229 29.6724 20.2478 4.78639 -1.96243 0.00187678 1.09525 -0.49234 0.0298388 -0.207411 0 0 0 0 0 0 0 0 0 
26.982 1 2027 27.3099 19.9707 2.60481 -2.91787 5.42759 3.6416 0.118987 0.628721 -0.105619 0 0 0 0 0 0 0 0 0 
26.982 1 187 27.3269 16.4832 2.77978 0.962453 -0.335971 3.99798 -0.198258 -0.019414 0.360071 0 0 0 0 0 0 0 0 0 
26.982 1 386 27.34 18.3565 4.64091 0.226024 -0.926095 1.48859 0.132795 -0.262353 0.421555 0 0 0 0 0 0 0 0 0 
26.982 1 192 29.7119 18.2124 2.749 -1.28128 2.5723 -1.08711 -0.233 0.444332 0.517233 0 0 0 0 0 0 0 0 0 
26.982 1 389 29.6169 16.3088 4.8295 3.48893 2.69826 -0.317497 -0.373492 0.0711215 -0.48784 0 0 0 0 0 0 0 0 0 
26.982 1 2615 13.8853 20.3017 14.5071 1.04717 4.64898 2.10226 0.125722 -0.0454012 -0.176209 0 0 0 0 0 0 0 0 0 
26.982 1 2233 34.1018 20.2149 4.56617 -6.35647 -3.88573 -4.36279 -0.0126947 -0.644795 0.33596 0 0 0 0 0 0 0 0 0 
26.982 1 191 31.8546 16.2777 2.66754 -1.10196 0.342173 1.27497 0.101749 0.147206 0.492999 0 0 0 0 0 0 0 0 0 
26.982 1 390 31.7853 18.3052 4.76214 -5.78825 -0.197756 -0.616464 0.106383 -0.00438313 -0.195988 0 0 0 0 0 0 0 0 0 
26.982 1 393 34.0102 16.4063 4.85524 -5.73082 1.20178 1.60197 -0.286583 -0.612229 -0.542626 0 0 0 0 0 0 0 0 0 
26.982 1 196 34.0699 18.2122 2.6286 -1.39675 -4.44605 -2.11649 -0.0786182 -0.43998 0.438965 0 0 0 0 0 0 0 0 0 
26.982 1 150 31.5423 14.2349 0.942823 5.08767 4.15511 1.76687 0.477737 0.567379 0.423979 0 0 0 0 0 0 0 0 0 
26.982 1 149 29.5649 12.2981 0.855836 -4.28908 1.12886 -1.31727 -0.00378239 0.137253 0.464594 0 0 0 0 0 0 0 0 0 
26.982 1 2035 36.5921 20.099 2.72762 2.34007 4.2335 0.886414 -0.153146 -0.311845 0.188172 0 0 0 0 0 0 0 0 0 
26.982 1 2237 38.7798 19.7108 4.63694 0.56963 2.14314 -4.84185 -0.461234 0.690823 0.261301 0 0 0 0 0 0 0 0 0 
26.982 1 195 36.3831 16.4012 2.75266 -1.86439 2.03672 -0.0562412 -0.0191302 -0.199621 -0.236246 0 0 0 0 0 0 0 0 0 
26.982 1 394 36.1383 18.1797 4.71921 -6.13118 1.12724 3.02934 0.584578 -0.0601157 0.12836 0 0 0 0 0 0 0 0 0 
26.982 1 397 38.5722 16.3273 4.63053 5.57082 -0.404742 1.25322 0.095012 0.33751 -0.535343 0 0 0 0 0 0 0 0 0 
26.982 1 200 38.761 18.1376 2.54984 -2.67932 -1.30231 -3.30689 0.321748 -0.354946 0.0182883 0 0 0 0 0 0 0 0 0 
26.982 1 164 43.5742 17.8668 2.51999 5.78225 -0.18673 2.2474 0.463953 0.10136 0.240642 0 0 0 0 0 0 0 0 0 
26.982 1 361 43.3916 15.8712 4.56862 3.56706 -1.24105 -1.21124 0.141517 -0.520111 -0.614846 0 0 0 0 0 0 0 0 0 
26.982 1 199 41.3439 16.0639 2.7094 -0.60768 -6.28934 -0.958875 -0.33979 0.0671214 -0.753139 0 0 0 0 0 0 0 0 0 
26.982 1 398 41.0984 18.2456 4.4764 -0.609316 5.18144 -3.70321 0.0649081 -0.618781 0.0647255 0 0 0 0 0 0 0 0 0 
26.982 1 69 29.6565 4.7243 1.02122 -3.94575 -2.87785 4.39148 0.263147 0.0593194 -0.406157 0 0 0 0 0 0 0 0 0 
26.982 1 997 38.3544 16.1529 16.5061 -3.89542 -0.762246 0.253325 0.232573 0.104532 -0.218924 0 0 0 0 0 0 0 0 0 
26.982 1 243 -0.617726 3.44647 7.21898 0.195049 -7.06833 2.16694 0.0145321 0.385565 0.00057567 0 0 0 0 0 0 0 0 0 
26.982 1 402 -0.238148 1.54478 9.22552 2.88242 -0.477733 -4.23236 -0.275 0.318443 -0.305975 0 0 0 0 0 0 0 0 0 
26.982 1 443 -0.528106 3.94715 10.9534 3.9903 -2.19857 -1.82519 -0.368167 0.297695 -0.537413 0 0 0 0 0 0 0 0 0 
26.982 1 204 43.334 2.61295 6.8501 -3.43139 1.82912 1.63425 0.293209 0.0983116 -0.490575 0 0 0 0 0 0 0 0 0 
26.982 1 208 1.81359 1.81968 6.92406 -2.10199 0.627153 -3.46904 0.00934984 0.125494 0.15847 0 0 0 0 0 0 0 0 0 
26.982 1 445 1.74258 3.96392 8.93956 6.78197 -0.73217 5.21199 -0.426757 0.0159404 -0.670863 0 0 0 0 0 0 0 0 0 
26.982 1 247 3.8235 4.0727 6.40326 -1.53365 -1.04281 0.799766 -0.177012 0.00752383 0.216932 0 0 0 0 0 0 0 0 0 
26.982 1 406 4.18793 1.98643 8.44582 -3.48628 0.402976 -1.3965 -0.170096 0.523974 -0.171428 0 0 0 0 0 0 0 0 0 
26.982 1 408 1.77615 2.20501 10.9979 -0.208344 -0.403784 2.67261 0.209301 -0.236638 0.113572 0 0 0 0 0 0 0 0 0 
26.982 1 994 36.201 17.9397 16.5483 3.19401 -0.093376 -1.42148 -0.406818 0.938128 0.361851 0 0 0 0 0 0 0 0 0 
26.982 1 449 6.53983 4.37385 7.79246 -0.566163 -0.377704 -2.34179 -0.157602 -0.23492 -0.247281 0 0 0 0 0 0 0 0 0 
26.982 1 212 6.37945 2.25615 5.9734 3.19725 4.90836 -3.50859 0.00516085 0.415933 0.278481 0 0 0 0 0 0 0 0 0 
26.982 1 251 8.90059 5.12772 6.48169 0.72909 0.650198 -1.91058 0.241838 -0.106846 -0.31616 0 0 0 0 0 0 0 0 0 
26.982 1 410 9.01838 2.69644 8.00539 -4.60035 0.762984 4.87732 -0.338711 0.223248 0.06577 0 0 0 0 0 0 0 0 0 
26.982 1 451 8.65683 4.69872 10.1455 -6.58638 -5.51929 1.18261 -0.27313 0.426388 -0.721383 0 0 0 0 0 0 0 0 0 
26.982 1 412 6.43197 2.71351 10.0771 -2.77177 6.24378 -4.47576 0.301487 -0.398907 -0.168329 0 0 0 0 0 0 0 0 0 
26.982 1 453 10.8553 5.24565 8.46125 -1.31541 8.50283 -2.69512 0.213724 -0.308116 0.396482 0 0 0 0 0 0 0 0 0 
26.982 1 216 11.4423 2.90025 6.47003 3.96333 0.934155 0.223398 -0.176297 0.685868 0.188218 0 0 0 0 0 0 0 0 0 
26.982 1 255 13.9239 4.75893 6.21459 5.29236 2.09598 0.3113 0.156617 -0.222928 -0.121377 0 0 0 0 0 0 0 0 0 