ITEM: TIMESTEP
5100
ITEM: NUMBER OF ATOMS
4000
ITEM: BOX BOUNDS pp pp pp
-1.11073 41.6107
0.287556 40.2124
0.280715 40.2193
ITEM: ATOMS mass type id x y z vx vy vz fx fy fz xrad yrad zrad vxrad vyrad vzrad fxrad fyrad fzrad 
26.982 1 3 0.986177 0.177379 2.38406 -3.49092 4.80098 -1.75211 -0.148972 0.153074 -0.356014 0 0 0 0 0 0 0 0 0 
26.982 1 8 3.14508 2.22839 2.24042 5.85706 -6.40415 -6.21198 0.164223 -0.0145594 0.173673 0 0 0 0 0 0 0 0 0 
26.982 1 43 1.10132 4.22901 2.45783 0.393575 -3.11072 -3.36124 0.119804 0.835549 -0.608515 0 0 0 0 0 0 0 0 0 
26.982 1 202 1.06742 2.35883 4.26263 2.66779 1.79788 2.006 -0.0431206 -0.358959 0.683837 0 0 0 0 0 0 0 0 0 
26.982 1 205 3.03929 0.252225 4.23138 -1.29771 1.91776 -4.95992 0.102991 -0.0387466 0.210337 0 0 0 0 0 0 0 0 0 
26.982 1 201 -1.07907 0.421982 4.3865 -5.35537 2.03964 4.11751 0.152073 -0.493583 -0.479293 0 0 0 0 0 0 0 0 0 
26.982 1 245 3.22681 4.36024 4.35909 3.16893 -3.06379 0.665035 -0.196357 0.0331414 -0.278892 0 0 0 0 0 0 0 0 0 
26.982 1 47 5.20657 4.35475 2.2458 2.32812 -4.92236 0.0323037 0.0823791 -0.131289 0.101209 0 0 0 0 0 0 0 0 0 
26.982 1 206 5.21324 2.2694 4.34415 2.59958 -1.35078 0.980176 -0.0161161 -0.200321 -0.28846 0 0 0 0 0 0 0 0 0 
26.982 1 49 7.48067 4.27477 0.321752 3.84694 -0.952921 2.64862 -0.247172 -0.0453109 -0.242039 0 0 0 0 0 0 0 0 0 
26.982 1 12 7.45426 2.37382 2.41355 1.61463 -0.572845 -1.62902 -0.59772 -0.576882 -0.446735 0 0 0 0 0 0 0 0 0 
26.982 1 249 7.27584 4.15441 4.38059 -6.04463 -3.72863 -3.37168 0.39833 0.515692 -0.303222 0 0 0 0 0 0 0 0 0 
26.982 1 51 9.38851 4.23493 2.38529 -0.58425 -1.40384 5.11994 0.365351 0.0283423 -0.144889 0 0 0 0 0 0 0 0 0 
26.982 1 210 9.48286 2.08286 4.24086 -0.641751 -2.03794 1.64294 0.0450992 0.141702 0.431445 0 0 0 0 0 0 0 0 0 
26.982 1 11 9.37748 0.220764 2.32413 2.54809 3.91494 3.70259 0.39641 -0.158978 0.144042 0 0 0 0 0 0 0 0 0 
26.982 1 10 9.68044 2.28099 0.242224 0.728734 4.14378 3.37856 -0.696614 0.183679 0.278803 0 0 0 0 0 0 0 0 0 
26.982 1 9 7.38404 0.289737 0.557529 3.51619 6.36072 2.65116 -0.0471935 0.168656 -0.660494 0 0 0 0 0 0 0 0 0 
26.982 1 209 7.21443 0.149239 4.44507 -2.04809 0.0566378 4.05147 0.486456 0.315249 -0.280882 0 0 0 0 0 0 0 0 0 
26.982 1 16 11.5849 2.47374 2.25253 3.13915 1.33873 -0.650329 0.322629 -0.485721 0.0180277 0 0 0 0 0 0 0 0 0 
26.982 1 253 11.4361 4.20659 4.33005 -2.90227 -3.52737 -0.282018 0.307749 0.139655 0.223329 0 0 0 0 0 0 0 0 0 
26.982 1 55 13.7697 4.30376 2.38514 3.85801 -0.328104 -1.93554 0.19454 -0.223648 -0.0698337 0 0 0 0 0 0 0 0 0 
26.982 1 214 13.5151 2.35001 4.58656 -3.09294 -4.12003 -1.59473 0.532108 0.211881 -0.745236 0 0 0 0 0 0 0 0 0 
26.982 1 20 15.9214 2.31654 2.48117 0.672327 0.363307 -2.3069 -0.309475 0.179833 -0.403931 0 0 0 0 0 0 0 0 0 
26.982 1 257 15.9732 4.30776 4.36796 0.406995 -0.0202437 -1.5525 -0.0735299 0.0362368 -0.353364 0 0 0 0 0 0 0 0 0 
26.982 1 218 18.1955 2.34967 4.2783 2.053 -0.712597 -3.49995 -0.538678 -0.0790725 0.0279539 0 0 0 0 0 0 0 0 0 
26.982 1 18 17.925 2.24992 0.240183 -1.59106 0.467307 5.65093 0.491431 0.295092 0.165172 0 0 0 0 0 0 0 0 0 
26.982 1 59 18.048 4.40118 2.27682 -1.30084 2.55842 -1.21429 0.112388 -0.530594 -0.127326 0 0 0 0 0 0 0 0 0 
26.982 1 261 20.1951 4.0631 4.25652 1.25466 -1.56256 1.99038 0.613144 0.555907 0.390938 0 0 0 0 0 0 0 0 0 
26.982 1 221 20.3864 0.520529 4.27828 4.11991 -2.21471 -0.701647 -0.448257 -0.240637 0.0528242 0 0 0 0 0 0 0 0 0 
26.982 1 24 20.2378 2.40265 2.10653 1.32148 1.27083 -1.54143 0.136363 0.0717663 -0.00363695 0 0 0 0 0 0 0 0 0 
26.982 1 63 22.7658 4.29413 2.31884 3.07945 -1.17545 -8.13952 -0.885824 0.00469787 -0.0509571 0 0 0 0 0 0 0 0 0 
26.982 1 222 22.5098 2.25867 4.24409 -4.20909 2.18929 0.488254 -0.0402896 0.180644 0.310894 0 0 0 0 0 0 0 0 0 
26.982 1 23 22.5261 0.445754 2.25886 -3.36152 0.89398 2.39454 -0.0888393 -0.186427 -0.261048 0 0 0 0 0 0 0 0 0 
26.982 1 28 24.7739 2.33732 2.28776 0.148845 4.50764 -2.37929 -0.291206 -0.302758 -0.229802 0 0 0 0 0 0 0 0 0 
26.982 1 265 24.6575 4.21638 4.23939 2.9722 0.22136 4.76414 0.0173864 0.302733 0.371847 0 0 0 0 0 0 0 0 0 
26.982 1 67 26.8072 4.33143 2.32243 -3.96347 0.37648 -8.29375 0.0204466 -0.033862 -0.263147 0 0 0 0 0 0 0 0 0 
26.982 1 226 26.6941 2.11022 4.25174 5.63481 1.5769 -2.90391 0.199738 0.308335 0.116241 0 0 0 0 0 0 0 0 0 
26.982 1 32 29.0141 2.28445 2.50204 1.10586 -1.26312 -0.823756 -0.171632 0.288211 -0.690313 0 0 0 0 0 0 0 0 0 
26.982 1 269 28.8785 4.32561 4.28005 -1.8343 -1.36277 1.44344 -0.100619 -0.168379 -0.324313 0 0 0 0 0 0 0 0 0 
26.982 1 225 24.6779 0.19476 4.23701 -0.0236072 -6.29097 3.90993 -0.178997 0.166957 0.0665283 0 0 0 0 0 0 0 0 0 
26.982 1 71 31.1289 4.317 2.38325 -2.02858 1.14388 -2.6683 -0.134991 0.188211 -0.355472 0 0 0 0 0 0 0 0 0 
26.982 1 230 31.0454 2.24711 4.35441 3.492 3.364 0.92152 -0.170669 -0.119987 -0.285802 0 0 0 0 0 0 0 0 0 
26.982 1 233 33.1127 0.209374 4.27061 2.23932 -6.11528 -2.45815 -0.143887 0.15832 -0.155619 0 0 0 0 0 0 0 0 0 
26.982 1 30 31.2117 2.31834 0.468486 -2.60898 4.56483 -6.53611 -0.219338 0.470591 -0.648089 0 0 0 0 0 0 0 0 0 
26.982 1 273 32.9549 4.27061 4.39107 -0.752084 2.04393 -3.40284 0.963456 0.395191 -0.68979 0 0 0 0 0 0 0 0 0 
26.982 1 36 33.359 2.47828 2.41935 -1.22681 4.5574 -0.0499974 -0.651132 -0.418258 -0.586456 0 0 0 0 0 0 0 0 0 
26.982 1 35 35.1598 0.337197 2.06562 1.50509 -6.62679 -2.46812 0.273095 -0.199256 0.279341 0 0 0 0 0 0 0 0 0 
26.982 1 75 35.3809 4.26208 2.31386 0.691683 -0.4177 1.41418 -0.61369 0.10152 -0.0145485 0 0 0 0 0 0 0 0 0 
26.982 1 234 35.2227 2.10151 4.28248 -3.61687 2.02454 -1.85861 0.131913 0.534238 0.19693 0 0 0 0 0 0 0 0 0 
26.982 1 277 37.3256 4.16694 4.1843 -0.354732 0.406653 3.35629 0.250032 0.188352 0.847223 0 0 0 0 0 0 0 0 0 
26.982 1 77 37.3264 4.32785 0.368586 -4.19078 4.94324 4.29114 0.430389 -0.0689389 -0.159714 0 0 0 0 0 0 0 0 0 
26.982 1 40 37.336 2.28106 2.26507 -3.05785 2.59031 -0.36815 0.16481 -0.216902 -0.0156736 0 0 0 0 0 0 0 0 0 
26.982 1 41 41.6685 4.37495 0.135793 3.59547 0.155762 -1.4848 -0.0899052 0.0135946 0.374031 0 0 0 0 0 0 0 0 0 
26.982 1 241 41.6202 4.28142 4.42079 -2.13137 -4.85677 -4.39719 0.19605 0.0354489 0.0126269 0 0 0 0 0 0 0 0 0 
26.982 1 4 41.7114 2.38897 2.37082 -4.44538 -3.80465 -5.30335 -0.273808 -0.279551 -0.139228 0 0 0 0 0 0 0 0 0 
26.982 1 79 39.6705 4.24611 2.39988 3.10073 3.20529 -0.400616 -0.370616 0.471468 -0.303165 0 0 0 0 0 0 0 0 0 
26.982 1 238 39.444 2.32833 4.33366 -1.8434 0.683931 -2.93695 0.0803587 -0.0890887 -0.0688921 0 0 0 0 0 0 0 0 0 
26.982 1 83 0.90472 8.39136 2.37032 -2.89476 -1.07526 -0.46493 0.307558 -0.18904 0.276341 0 0 0 0 0 0 0 0 0 
26.982 1 242 0.989803 6.28416 4.45256 -3.66111 4.99737 -6.14094 0.163328 0.25443 -0.590736 0 0 0 0 0 0 0 0 0 
26.982 1 285 3.16799 8.40053 4.38547 -0.0816098 -3.59273 -2.24364 0.0757818 -0.444126 -0.358776 0 0 0 0 0 0 0 0 0 
26.982 1 42 0.979209 6.47882 0.395768 -2.25226 0.533012 -1.80133 0.398124 -0.814579 -0.17482 0 0 0 0 0 0 0 0 0 
26.982 1 48 3.28259 6.48999 2.26316 -0.889389 -1.74132 0.0215839 -0.289383 -0.376474 0.248002 0 0 0 0 0 0 0 0 0 
26.982 1 85 3.10238 8.29724 0.27565 -7.57502 0.241889 -2.58806 0.141121 0.0362805 -0.191581 0 0 0 0 0 0 0 0 0 
26.982 1 44 -0.934519 6.24504 2.38042 -1.34332 -2.86873 -4.17931 -0.43276 0.16389 -0.0266067 0 0 0 0 0 0 0 0 0 
26.982 1 87 5.51559 8.37025 2.29854 -1.987 0.247184 -0.365705 -0.496294 -0.0933749 -0.246073 0 0 0 0 0 0 0 0 0 
26.982 1 246 5.40202 6.30898 4.28025 7.02496 1.716 0.828822 -0.42046 0.0377292 -0.220423 0 0 0 0 0 0 0 0 0 
26.982 1 52 7.39992 6.16887 2.28115 1.30776 1.13957 -3.9058 -0.172358 0.330853 -0.0713806 0 0 0 0 0 0 0 0 0 
26.982 1 289 7.37115 8.28668 4.22909 2.00489 4.3156 -1.73869 0.282092 0.0699201 0.117506 0 0 0 0 0 0 0 0 0 
26.982 1 89 7.38298 8.37583 0.198862 0.244222 -2.68621 -4.95162 0.31428 0.125886 0.315371 0 0 0 0 0 0 0 0 0 
26.982 1 286 5.25683 10.2693 4.28814 4.40556 0.715689 2.96391 0.583674 -0.104294 -0.0795671 0 0 0 0 0 0 0 0 0 
26.982 1 88 3.1982 10.1314 2.28769 0.202138 0.765385 -0.1629 -0.108629 -0.105882 0.129139 0 0 0 0 0 0 0 0 0 
26.982 1 92 7.49295 10.4687 2.094 5.76925 0.230306 -4.51192 -0.355175 -0.618327 0.151219 0 0 0 0 0 0 0 0 0 
26.982 1 91 9.3868 8.3605 2.36551 2.05283 0.300752 0.068593 0.355223 0.141258 -0.557706 0 0 0 0 0 0 0 0 0 
26.982 1 250 9.48892 6.37336 4.08003 1.39479 -1.66487 0.487227 0.00424529 -0.395657 0.785877 0 0 0 0 0 0 0 0 0 
26.982 1 50 9.55749 6.31936 0.458538 -3.56874 3.22937 4.30354 -0.13496 0.252782 -0.2379 0 0 0 0 0 0 0 0 0 
26.982 1 290 9.52528 10.2084 4.36037 6.18086 -3.81941 -2.54813 0.0903394 0.221898 -0.335955 0 0 0 0 0 0 0 0 0 
26.982 1 93 11.7116 8.27244 0.480356 1.84568 -0.824487 -1.3321 -0.0571072 0.10435 -0.415565 0 0 0 0 0 0 0 0 0 
26.982 1 56 11.7019 6.12424 2.3466 3.71905 2.06014 -0.331128 -0.217274 0.142197 -0.170947 0 0 0 0 0 0 0 0 0 
26.982 1 293 11.7438 8.23413 4.24811 3.39281 1.66722 -5.31636 -0.248105 0.331134 0.0218001 0 0 0 0 0 0 0 0 0 
26.982 1 95 13.7676 8.068 2.2428 2.57397 0.938435 0.00405748 0.184456 0.706142 0.071906 0 0 0 0 0 0 0 0 0 
26.982 1 254 13.7543 6.37447 4.2744 0.641744 -2.33494 2.28404 0.269611 -0.239279 -0.0295819 0 0 0 0 0 0 0 0 0 
26.982 1 60 15.9634 6.38185 2.27277 0.180663 -0.297763 -2.41115 0.0955815 -0.585813 0.0998438 0 0 0 0 0 0 0 0 0 
26.982 1 297 15.9356 8.13035 4.30687 -2.71843 0.914098 3.35913 0.276639 0.355216 0.31262 0 0 0 0 0 0 0 0 0 
26.982 1 294 13.9543 10.2469 4.314 0.442097 4.10868 1.00694 -0.581873 -0.0298479 9.6013e-05 0 0 0 0 0 0 0 0 0 
26.982 1 94 13.9724 10.2291 0.404043 1.08502 -3.33539 -0.922082 -0.434778 -0.278425 -0.26302 0 0 0 0 0 0 0 0 0 
26.982 1 99 18.1979 8.18176 2.49816 5.57454 -5.40395 3.3712 -0.18267 0.375299 -0.66979 0 0 0 0 0 0 0 0 0 
26.982 1 258 18.1841 6.19001 4.31274 -2.84682 -0.769977 0.673055 -0.00292366 0.107593 0.441634 0 0 0 0 0 0 0 0 0 
26.982 1 301 20.238 8.3735 4.29128 4.77904 -0.335395 -2.81117 -0.0122587 -0.612444 0.067205 0 0 0 0 0 0 0 0 0 
26.982 1 101 20.2856 8.24147 0.408326 1.23147 -2.31069 -2.31861 -0.232481 0.0559138 0.0836993 0 0 0 0 0 0 0 0 0 
26.982 1 64 20.3974 6.12698 2.43447 3.96345 2.71333 -4.30207 -0.126704 0.182162 -0.221805 0 0 0 0 0 0 0 0 0 
26.982 1 103 22.3844 8.25608 2.26012 -2.30051 -2.76162 -1.93254 -0.0749659 0.407509 0.744787 0 0 0 0 0 0 0 0 0 
26.982 1 262 22.4102 6.37019 4.31846 -1.73954 -0.234827 1.52145 0.0595676 -0.170418 -0.0766119 0 0 0 0 0 0 0 0 0 
26.982 1 305 24.3068 8.41442 4.4653 3.22066 -4.69943 1.70223 0.321125 -0.329234 -0.403773 0 0 0 0 0 0 0 0 0 
26.982 1 302 22.1642 10.298 4.41121 -4.68983 -0.285313 -1.25527 0.613776 0.178787 -0.424947 0 0 0 0 0 0 0 0 0 
26.982 1 102 22.271 10.3422 0.353374 -3.53869 -5.87146 -0.721584 0.313388 0.0995874 -0.151039 0 0 0 0 0 0 0 0 0 
26.982 1 68 24.7121 6.35661 2.26454 -4.88161 -4.16541 1.56114 0.0288537 0.146447 0.121022 0 0 0 0 0 0 0 0 0 
26.982 1 107 26.798 8.34927 2.32489 -0.153017 -0.94313 2.74536 -0.307941 0.0182048 -0.123233 0 0 0 0 0 0 0 0 0 
26.982 1 266 26.5772 6.28139 4.35757 1.03802 4.35126 -2.58537 0.286939 0.0245846 -0.105945 0 0 0 0 0 0 0 0 0 
26.982 1 108 24.4939 10.416 2.46159 0.961671 1.44107 1.61115 -0.206562 -0.567175 -0.227971 0 0 0 0 0 0 0 0 0 
26.982 1 309 28.8031 8.16492 4.30208 -1.03607 -5.83237 0.222361 -0.152639 0.232403 -0.0736715 0 0 0 0 0 0 0 0 0 
26.982 1 72 28.8405 6.29691 2.22114 -0.881504 0.14311 -0.583062 0.224659 0.230593 0.223301 0 0 0 0 0 0 0 0 0 
26.982 1 111 31.141 8.31365 2.24055 0.366217 -0.709563 -0.96589 -0.384861 -0.154432 -0.185532 0 0 0 0 0 0 0 0 0 
26.982 1 270 31.011 6.40503 4.20093 3.50727 0.693244 7.33285 -0.0184055 -0.434676 -0.350004 0 0 0 0 0 0 0 0 0 
26.982 1 112 29.0285 10.208 2.20528 -0.903791 1.01423 -3.45291 -0.55555 -0.353187 0.607358 0 0 0 0 0 0 0 0 0 
26.982 1 310 30.8979 10.2325 4.32664 -1.38668 0.589173 3.19761 0.0907342 0.143548 -0.0566292 0 0 0 0 0 0 0 0 0 
26.982 1 313 33.0725 8.38004 4.22595 -2.22121 2.68658 1.08317 0.0418432 -0.504291 0.32416 0 0 0 0 0 0 0 0 0 
26.982 1 116 33.2548 10.2092 2.27532 1.32819 -4.39391 2.69518 -0.248019 0.478222 -0.156881 0 0 0 0 0 0 0 0 0 
26.982 1 76 33.1779 6.32451 2.04994 -2.76015 -3.9428 0.10263 -0.0436113 -0.018606 0.759498 0 0 0 0 0 0 0 0 0 
26.982 1 115 35.2442 8.28959 2.34122 -1.38706 4.66679 1.72898 0.198422 -0.150975 -0.239833 0 0 0 0 0 0 0 0 0 
26.982 1 274 35.1785 6.31096 4.29135 0.650848 -0.43762 -0.495296 -0.0291545 -0.222764 0.0699247 0 0 0 0 0 0 0 0 0 
26.982 1 117 37.357 8.27814 0.226078 -5.33258 0.00604153 2.17468 0.0410344 0.0238545 0.324032 0 0 0 0 0 0 0 0 0 
26.982 1 80 37.3035 6.19226 2.43225 -3.17974 0.592715 -1.24783 0.561999 0.607652 -0.219451 0 0 0 0 0 0 0 0 0 
26.982 1 317 37.3157 8.31062 4.3082 2.45752 0.860646 -0.83158 0.247476 -0.438245 -0.0804455 0 0 0 0 0 0 0 0 0 
26.982 1 314 35.2884 10.0931 4.45312 2.48601 1.86012 -0.741866 -0.360377 0.654969 -0.469908 0 0 0 0 0 0 0 0 0 
26.982 1 74 35.3891 6.32247 0.303229 -5.35611 -0.478771 2.00403 -0.244035 0.180062 -0.193464 0 0 0 0 0 0 0 0 0 
26.982 1 281 41.5362 8.44603 4.52458 1.80059 -1.08827 1.10818 0.173931 -0.236711 -0.589184 0 0 0 0 0 0 0 0 0 
26.982 1 119 39.5245 8.40581 2.27205 -0.579875 3.22475 -2.24128 -0.262636 -0.313576 0.0971612 0 0 0 0 0 0 0 0 0 
26.982 1 278 39.6299 6.42153 4.32138 4.12584 1.79977 0.638507 -0.361858 -0.149282 -0.246401 0 0 0 0 0 0 0 0 0 
26.982 1 318 39.2752 10.2802 4.43019 -2.40095 -0.512514 -3.29611 0.525897 -0.0842181 -0.319614 0 0 0 0 0 0 0 0 0 
26.982 1 123 1.14454 12.2161 2.46338 2.04502 -1.41244 -7.54274 -0.359044 0.216488 0.00255268 0 0 0 0 0 0 0 0 0 
26.982 1 282 1.13573 10.2724 4.34368 -2.08935 -3.01757 3.32533 -0.593133 0.397171 -0.118596 0 0 0 0 0 0 0 0 0 
26.982 1 322 1.06477 14.3296 4.33241 -5.12903 -1.5458 4.24684 -0.0680755 -0.165319 0.252206 0 0 0 0 0 0 0 0 0 
26.982 1 124 -1.11351 14.3817 2.34738 -0.385167 2.32782 0.612587 -0.244729 -0.412139 0.0454413 0 0 0 0 0 0 0 0 0 
26.982 1 82 1.02229 10.4198 0.413155 4.73885 -0.368428 1.01634 -0.40255 -0.580365 -0.105986 0 0 0 0 0 0 0 0 0 
26.982 1 321 -1.13643 12.3928 4.27413 -1.83473 -1.0133 -3.10368 0.242677 -0.478532 0.285405 0 0 0 0 0 0 0 0 0 
26.982 1 128 3.15215 14.215 2.40189 -1.55066 -0.102808 -2.23792 0.28358 0.00172107 0.0333572 0 0 0 0 0 0 0 0 0 
26.982 1 86 5.20888 10.2472 0.21911 3.16282 -1.03287 -3.33615 0.156892 0.082154 -0.145771 0 0 0 0 0 0 0 0 0 
26.982 1 125 3.04995 12.0862 0.40843 5.09966 -2.53983 0.0855991 0.523492 0.689178 -0.213876 0 0 0 0 0 0 0 0 0 
26.982 1 325 3.38695 12.067 4.36235 6.13659 -1.74037 6.98374 -0.670129 0.915727 -0.148466 0 0 0 0 0 0 0 0 0 
26.982 1 127 5.2208 12.0592 2.23706 3.69198 -0.294999 -4.34599 0.229462 0.789938 0.109025 0 0 0 0 0 0 0 0 0 
26.982 1 326 5.49938 14.2326 4.34839 -3.4389 -5.78635 3.88661 -0.813078 0.182872 -0.58837 0 0 0 0 0 0 0 0 0 
26.982 1 126 5.17744 14.1743 0.228496 -1.28819 -2.8122 -0.332693 0.033119 0.0515711 0.233649 0 0 0 0 0 0 0 0 0 
26.982 1 132 7.31912 14.3306 2.09112 -5.33604 -0.709732 3.15747 0.0941778 0.284166 0.991199 0 0 0 0 0 0 0 0 0 
26.982 1 130 9.43426 14.3464 0.0109143 0.308071 -0.102815 2.13007 0.355584 0.0400573 1.23443 0 0 0 0 0 0 0 0 0 
26.982 1 329 7.47466 12.2532 4.26069 -2.4068 -3.9709 -2.64214 -0.386945 -0.000554853 -0.465419 0 0 0 0 0 0 0 0 0 
26.982 1 131 9.39584 12.243 2.15184 0.569722 -0.612494 -1.25199 0.619103 0.406125 0.1504 0 0 0 0 0 0 0 0 0 
26.982 1 330 9.4038 14.3069 4.20719 1.56802 -4.26025 5.07176 0.339971 0.0585886 -0.109783 0 0 0 0 0 0 0 0 0 
26.982 1 333 11.5374 12.2909 4.26955 1.28752 -1.7681 -2.65729 0.213864 -0.0247282 0.256437 0 0 0 0 0 0 0 0 0 
26.982 1 96 11.7153 10.3009 2.42783 -1.05733 -3.23781 -4.31541 -0.0965024 -0.147672 -0.223307 0 0 0 0 0 0 0 0 0 
26.982 1 136 11.5594 14.0432 2.27827 -2.18277 -4.37336 -3.0757 -0.0880548 0.788072 0.0437545 0 0 0 0 0 0 0 0 0 
26.982 1 135 13.7847 12.2323 2.3248 -0.397601 -6.22177 1.28697 -0.0280769 0.0953588 0.283238 0 0 0 0 0 0 0 0 0 
26.982 1 334 13.9249 14.2278 4.34813 2.92873 0.206797 1.18863 -0.588794 -0.14112 0.0822184 0 0 0 0 0 0 0 0 0 
26.982 1 100 15.8187 10.1512 2.43066 -2.44574 1.92886 -0.280715 0.834011 0.0815171 -0.329667 0 0 0 0 0 0 0 0 0 
26.982 1 337 16.0534 12.4315 4.33453 5.10803 2.42769 -0.339865 -0.0394673 -0.478122 0.0251868 0 0 0 0 0 0 0 0 0 
26.982 1 134 13.4818 14.418 0.362518 -2.26806 1.7198 -4.36 0.778212 -0.304595 -0.363371 0 0 0 0 0 0 0 0 0 
26.982 1 298 18.111 10.2991 4.28622 1.11714 -2.36214 1.4141 -0.273821 0.100486 0.265636 0 0 0 0 0 0 0 0 0 
26.982 1 140 15.8048 14.2426 2.31048 -0.754078 2.82589 -1.28059 0.408963 -0.0521567 -0.346295 0 0 0 0 0 0 0 0 0 
26.982 1 139 18.1039 12.2869 2.29978 -2.78228 -0.144986 4.97985 -0.250972 0.0740657 -0.115723 0 0 0 0 0 0 0 0 0 
26.982 1 144 20.2523 14.3331 2.32611 -1.05251 0.629031 0.837629 -0.223439 0.1507 -0.0520398 0 0 0 0 0 0 0 0 0 
26.982 1 338 18.0983 14.404 4.34466 -0.661864 -1.53933 2.40685 0.278398 -0.208561 -0.198449 0 0 0 0 0 0 0 0 0 
26.982 1 341 20.1298 12.3551 4.24313 -1.47879 -1.37242 -3.03066 0.294355 0.0928047 0.435203 0 0 0 0 0 0 0 0 0 
26.982 1 142 22.2214 14.4582 0.252732 -4.23737 -2.28415 1.56705 0.198958 -0.480959 0.116614 0 0 0 0 0 0 0 0 0 
26.982 1 104 20.2812 10.3469 2.30617 -2.64381 -3.38711 1.78209 -0.29688 -0.105185 -0.178669 0 0 0 0 0 0 0 0 0 
26.982 1 143 22.3126 12.3424 2.23548 -5.0978 6.09897 0.703172 0.152207 0.131791 0.266379 0 0 0 0 0 0 0 0 0 
26.982 1 342 22.4758 14.4803 4.26431 3.09678 -4.56574 -1.99739 -0.781626 -0.753446 -0.0410215 0 0 0 0 0 0 0 0 0 
26.982 1 106 26.4281 10.3896 0.33313 -0.487901 3.81536 0.379819 0.594012 -0.243667 0.00703405 0 0 0 0 0 0 0 0 0 
26.982 1 148 24.5371 14.1926 2.27636 -1.44951 1.38492 -0.893434 -0.133215 0.171748 0.317755 0 0 0 0 0 0 0 0 0 
26.982 1 345 24.5596 12.2534 4.36356 0.612353 8.90424 -2.51702 -0.281057 0.498733 0.00882429 0 0 0 0 0 0 0 0 0 
26.982 1 306 26.6469 10.3493 4.4229 0.556041 0.317317 1.31216 0.262167 -0.41202 -0.168246 0 0 0 0 0 0 0 0 0 
26.982 1 147 26.7205 12.185 2.35527 2.53055 4.97516 0.367587 0.108736 0.137045 0.0494304 0 0 0 0 0 0 0 0 0 
26.982 1 346 26.7169 14.2094 4.38516 7.05813 -0.157563 -4.42619 -0.492073 0.219213 -0.348849 0 0 0 0 0 0 0 0 0 
26.982 1 145 24.5394 12.2539 0.339872 3.17116 1.90991 -1.34022 -0.744955 0.0421969 -0.216193 0 0 0 0 0 0 0 0 0 
26.982 1 110 30.9369 10.1504 0.171169 2.25827 -0.724917 1.27905 0.271488 0.0627698 0.103747 0 0 0 0 0 0 0 0 0 
26.982 1 152 28.9454 14.2585 2.37545 1.51279 2.44488 -1.28858 -0.521831 -0.198972 -0.244305 0 0 0 0 0 0 0 0 0 
26.982 1 349 28.6054 12.3043 4.37639 -3.29332 -0.0186731 3.79741 0.672315 -0.500969 -0.258755 0 0 0 0 0 0 0 0 0 
26.982 1 151 30.9327 12.235 2.25676 1.52089 2.21448 -9.33637 0.325705 -0.442806 0.536815 0 0 0 0 0 0 0 0 0 
26.982 1 350 30.9229 14.1949 4.28022 2.42089 0.313189 -0.745891 0.184212 0.0781813 -0.0314163 0 0 0 0 0 0 0 0 0 
26.982 1 353 33.0598 12.2393 4.18775 -3.47567 -0.270056 -2.90911 0.0829515 -0.0639007 0.324251 0 0 0 0 0 0 0 0 0 
26.982 1 150 30.9292 14.0332 0.316465 -4.40671 -4.4507 2.88997 0.168544 0.690155 -0.317752 0 0 0 0 0 0 0 0 0 
26.982 1 155 35.3008 12.2784 2.26945 -1.78971 -4.1305 -2.59292 -0.367915 -0.205512 0.235805 0 0 0 0 0 0 0 0 0 
26.982 1 156 33.063 14.1107 2.16773 -2.97658 7.37191 5.18291 0.258354 0.120498 0.324414 0 0 0 0 0 0 0 0 0 
26.982 1 354 35.2866 14.3172 4.22543 -0.00532985 -1.31801 -0.390768 -0.453639 -0.593417 0.325826 0 0 0 0 0 0 0 0 0 
26.982 1 157 37.2667 12.2227 0.269308 3.80824 5.01942 -6.50203 0.435218 0.484903 -0.00311031 0 0 0 0 0 0 0 0 0 
26.982 1 114 35.363 10.2211 0.358081 -1.57124 2.35841 -0.417841 -0.624526 -0.106874 -0.215548 0 0 0 0 0 0 0 0 0 
26.982 1 154 35.119 14.021 0.165699 -2.05269 3.75768 -0.307062 0.208317 0.83768 0.491712 0 0 0 0 0 0 0 0 0 
26.982 1 120 37.3965 10.3189 2.20492 -1.32379 2.34042 0.928206 0.0533784 -0.254852 0.442435 0 0 0 0 0 0 0 0 0 
26.982 1 84 41.5014 10.2804 2.29336 0.762449 6.46476 -1.27199 0.382606 0.172868 0.380521 0 0 0 0 0 0 0 0 0 
26.982 1 160 37.3396 14.2318 2.28424 1.55282 3.37345 7.42701 0.415157 -0.0191255 0.0747603 0 0 0 0 0 0 0 0 0 
26.982 1 357 37.1486 12.2249 4.30925 -0.320002 -1.26836 4.55486 0.40232 0.0452354 0.0514908 0 0 0 0 0 0 0 0 0 
26.982 1 159 39.5674 12.1655 2.44916 5.13975 -0.202912 1.58441 -0.491535 0.628447 -0.471681 0 0 0 0 0 0 0 0 0 
26.982 1 358 39.4253 14.3365 4.40389 2.04527 -1.91301 3.70946 0.0827003 -0.301522 -0.439093 0 0 0 0 0 0 0 0 0 
26.982 1 163 1.02005 16.2431 2.44098 -0.665638 -2.35507 0.0904086 0.28276 0.113877 -0.263123 0 0 0 0 0 0 0 0 0 
26.982 1 361 -1.05177 16.3891 4.38619 1.74315 2.18157 7.17623 -0.0391729 -0.131698 0.303326 0 0 0 0 0 0 0 0 0 
26.982 1 362 1.03089 18.3486 4.34209 -6.04331 -0.780729 2.03562 0.179397 -0.672737 -0.0487489 0 0 0 0 0 0 0 0 0 
26.982 1 2003 0.996154 20.1871 2.28491 -1.32879 3.71275 -4.13537 0.296992 0.426584 0.00372303 0 0 0 0 0 0 0 0 0 
26.982 1 2201 -1.09415 20.0434 4.30552 -3.62213 4.17058 0.604339 -0.102821 0.0179883 0.0688718 0 0 0 0 0 0 0 0 0 
26.982 1 164 -0.995986 18.2986 2.26538 3.4617 2.74414 -4.58148 -0.367069 -0.352033 -0.146734 0 0 0 0 0 0 0 0 0 
26.982 1 168 3.12141 18.1647 2.20517 -2.11736 -0.436082 -7.38927 0.105735 0.242099 0.36312 0 0 0 0 0 0 0 0 0 
26.982 1 365 3.35046 16.2672 4.42207 -7.36698 4.03657 -4.11839 -0.401276 -0.164423 -0.512331 0 0 0 0 0 0 0 0 0 
26.982 1 2205 3.1243 20.2457 4.19466 2.09338 3.20772 3.00669 0.0723056 -0.0748884 0.0727296 0 0 0 0 0 0 0 0 0 
26.982 1 167 5.28595 16.3046 2.19039 7.00212 -3.55644 -1.41172 0.100396 -0.197204 0.48675 0 0 0 0 0 0 0 0 0 
26.982 1 366 5.3841 18.2732 4.29837 -0.273802 0.0918159 0.96574 -0.372453 0.0191754 0.0783237 0 0 0 0 0 0 0 0 0 
26.982 1 2007 5.18467 20.1198 2.23862 -1.58731 -2.71272 3.11085 0.10037 0.37513 0.270934 0 0 0 0 0 0 0 0 0 
26.982 1 169 7.37285 16.2953 0.207434 2.73396 1.85989 -8.83139 -0.0370942 -0.160953 0.0261826 0 0 0 0 0 0 0 0 0 
26.982 1 166 5.30562 18.2325 0.163763 1.94555 3.91132 0.747404 -0.341395 0.0976284 0.00459904 0 0 0 0 0 0 0 0 0 
26.982 1 172 7.40285 18.2859 2.25816 0.775104 -5.04881 1.00313 0.133609 -0.0703512 -0.211333 0 0 0 0 0 0 0 0 0 
26.982 1 369 7.45187 16.4432 4.34272 -0.098005 4.00936 -1.85755 -0.533561 -0.45909 -0.372448 0 0 0 0 0 0 0 0 0 
26.982 1 171 9.52429 16.2457 2.22468 2.63798 -2.2436 -0.592627 0.00781081 0.0232653 -0.234993 0 0 0 0 0 0 0 0 0 
26.982 1 370 9.54883 18.1174 4.27247 1.84663 2.93355 2.84157 0.437638 0.705581 -0.289839 0 0 0 0 0 0 0 0 0 
26.982 1 176 11.7588 18.3048 2.30251 2.59194 1.03667 -2.07638 -0.415265 -0.384097 0.0931738 0 0 0 0 0 0 0 0 0 
26.982 1 2217 15.9214 20.1961 4.21115 -2.22028 2.22532 4.20564 0.0647618 0.492751 0.194136 0 0 0 0 0 0 0 0 0 
26.982 1 373 11.6842 16.1735 4.21793 -1.39901 3.49405 -0.316702 -0.057486 -0.024708 0.237632 0 0 0 0 0 0 0 0 0 
26.982 1 175 13.8184 16.2681 2.39096 -4.2012 -2.9992 0.327424 -0.200035 -0.246046 -0.343126 0 0 0 0 0 0 0 0 0 
26.982 1 374 13.9452 18.0745 4.31863 -2.20987 0.0313981 0.182634 -0.216031 0.345561 0.0700035 0 0 0 0 0 0 0 0 0 
26.982 1 377 16.0158 16.0252 4.28421 5.46532 4.01725 1.94362 -0.098239 0.766342 0.344109 0 0 0 0 0 0 0 0 0 
26.982 1 174 13.7858 18.1927 0.32886 -2.37742 -2.33715 -5.04892 0.0615271 0.19599 -0.0282616 0 0 0 0 0 0 0 0 0 
26.982 1 180 15.9378 18.2341 2.2547 -0.237041 0.963726 1.56641 -0.128341 -0.0543621 0.0148332 0 0 0 0 0 0 0 0 0 
26.982 1 179 18.016 16.2987 2.1529 5.64306 -0.0559762 -8.12812 -0.0266415 -0.144486 0.337578 0 0 0 0 0 0 0 0 0 
26.982 1 184 20.0462 18.2091 2.18142 7.42084 0.578174 1.27614 0.132643 0.408846 0.203766 0 0 0 0 0 0 0 0 0 
26.982 1 378 17.9036 18.3342 4.3672 2.64211 0.294095 -1.50651 0.499767 -0.00259675 -0.557698 0 0 0 0 0 0 0 0 0 
26.982 1 178 17.9835 18.3942 0.26904 5.7861 -3.40207 3.50806 0.0943101 -0.496713 -0.319592 0 0 0 0 0 0 0 0 0 
26.982 1 177 15.8266 16.1408 0.324914 3.89206 -0.574781 3.10126 0.13055 0.219442 -0.223466 0 0 0 0 0 0 0 0 0 
26.982 1 381 20.1717 16.4717 4.27928 -0.338683 -0.870531 -4.80427 -0.0895246 -0.103566 0.0448024 0 0 0 0 0 0 0 0 0 
26.982 1 181 20.1126 16.2703 0.145387 -5.22223 3.09815 3.15198 0.250389 0.191124 0.340727 0 0 0 0 0 0 0 0 0 
26.982 1 2221 20.2397 20.1741 4.26516 -3.26607 -0.666751 0.364929 -0.224102 -0.0860293 -0.119218 0 0 0 0 0 0 0 0 0 
26.982 1 183 22.2055 16.4577 2.31445 4.53377 -1.81975 -5.79995 0.297586 -0.226293 -0.483817 0 0 0 0 0 0 0 0 0 
26.982 1 382 22.5504 18.0626 4.41873 -0.0890852 3.3213 -1.83142 -0.448692 1.04571 -0.363409 0 0 0 0 0 0 0 0 0 
26.982 1 188 24.4841 18.3385 2.27099 0.125559 1.34119 -0.961049 0.00347835 -0.188771 -0.0876013 0 0 0 0 0 0 0 0 0 
26.982 1 182 22.2026 18.4022 0.210223 3.62247 1.62106 2.77674 0.307039 -0.325383 0.491473 0 0 0 0 0 0 0 0 0 
26.982 1 2025 24.5166 20.3389 0.217386 3.32662 0.0775352 -1.82821 0.170246 -0.581451 0.205436 0 0 0 0 0 0 0 0 0 
26.982 1 385 24.3989 16.2355 4.35963 -1.83778 -2.93643 1.18652 1.10767 0.38941 -0.496144 0 0 0 0 0 0 0 0 0 
26.982 1 187 26.7151 16.1106 2.22127 1.71628 -0.862944 -2.77515 -0.299756 0.286013 0.171317 0 0 0 0 0 0 0 0 0 
26.982 1 386 26.5995 18.2981 4.19983 -0.243556 -1.65528 -3.33266 -0.146627 -0.399799 0.2232 0 0 0 0 0 0 0 0 0 
26.982 1 2027 26.7464 20.0401 2.15239 -0.0170062 -8.17696 -1.5642 -0.482486 0.556258 -0.0646982 0 0 0 0 0 0 0 0 0 
26.982 1 192 28.7262 18.2115 2.19101 -1.11664 2.06855 3.99163 0.265113 -0.492107 0.0747725 0 0 0 0 0 0 0 0 0 
26.982 1 389 28.6913 16.2435 4.2668 -3.84697 -3.55775 -0.811623 0.17893 -0.0075506 -0.189579 0 0 0 0 0 0 0 0 0 
26.982 1 2229 28.7583 20.1098 4.25487 1.08604 5.3529 -4.5738 0.294052 0.228276 -0.131985 0 0 0 0 0 0 0 0 0 
26.982 1 189 28.8347 16.1182 0.311531 1.19448 -4.15524 -3.38965 -0.0740829 0.0199651 0.314951 0 0 0 0 0 0 0 0 0 
26.982 1 191 31.0939 16.0602 2.2338 0.0234635 -2.48328 0.856225 -0.337759 0.370716 -0.15365 0 0 0 0 0 0 0 0 0 
26.982 1 390 30.9031 18.0176 4.16204 2.43829 -1.50335 0.539113 0.111688 0.43702 -0.111019 0 0 0 0 0 0 0 0 0 
26.982 1 393 33.1324 16.1963 4.21991 -0.738897 -0.298468 0.693055 -0.0974823 -0.182233 0.16038 0 0 0 0 0 0 0 0 0 
26.982 1 190 30.8885 18.2849 0.276055 -1.79441 0.850953 6.1264 0.0822364 -0.497461 0.0766189 0 0 0 0 0 0 0 0 0 
26.982 1 2233 33.1842 20.1275 4.27718 -6.45189 1.30157 -2.77907 -0.407984 -0.192941 0.127655 0 0 0 0 0 0 0 0 0 
26.982 1 196 32.984 18.1971 2.17248 -6.1738 2.08449 -3.52469 0.22237 -0.0498058 0.403829 0 0 0 0 0 0 0 0 0 
26.982 1 195 35.2491 16.0875 2.31611 2.48899 -1.51217 2.91577 -0.0854391 0.617193 -0.543675 0 0 0 0 0 0 0 0 0 
26.982 1 394 35.2495 18.1729 4.32835 -2.04859 -0.109083 -0.799946 -0.248907 -0.154437 -0.506628 0 0 0 0 0 0 0 0 0 
26.982 1 200 37.1923 18.2933 2.31698 -1.10298 -1.66878 3.36466 0.265406 -0.500714 -0.260238 0 0 0 0 0 0 0 0 0 
26.982 1 397 37.4275 16.2952 4.36652 0.282174 -1.00365 2.02238 -0.130912 -0.202607 -0.458824 0 0 0 0 0 0 0 0 0 
26.982 1 199 39.5977 16.4065 2.46397 -3.76643 0.699572 -0.76997 -0.251148 -0.554279 -0.679545 0 0 0 0 0 0 0 0 0 
26.982 1 398 39.3753 18.2279 4.35673 3.2113 4.15738 -3.83437 0.419607 0.19538 0.353112 0 0 0 0 0 0 0 0 0 
26.982 1 197 37.3503 16.1442 0.308631 -3.5203 1.60166 -0.204094 -0.112195 0.446361 0.134351 0 0 0 0 0 0 0 0 0 
26.982 1 243 1.0933 4.43977 6.43358 1.05721 3.81981 -5.42928 0.0278325 -0.571407 -0.200862 0 0 0 0 0 0 0 0 0 
26.982 1 402 0.962532 2.26597 8.21536 -0.0994661 1.37297 -0.96574 0.326034 0.014848 0.110894 0 0 0 0 0 0 0 0 0 
26.982 1 408 2.93481 2.29823 10.278 4.77516 -3.0385 -1.95734 0.498533 -0.139831 -0.335205 0 0 0 0 0 0 0 0 0 
26.982 1 404 -1.13786 2.26695 10.1495 -1.80779 3.60503 0.626221 -0.113057 0.000655025 0.5297 0 0 0 0 0 0 0 0 0 
26.982 1 405 3.13504 0.285755 8.40099 0.232702 -6.81215 -1.46352 -0.165791 0.0150765 -0.0749289 0 0 0 0 0 0 0 0 0 
26.982 1 208 3.11192 2.24153 6.23743 -1.77582 -0.261627 3.79309 0.00539669 0.246979 0.258455 0 0 0 0 0 0 0 0 0 
26.982 1 445 3.33484 4.39427 8.1831 -0.946889 2.23815 2.02056 -0.610649 -0.231922 -0.0176801 0 0 0 0 0 0 0 0 0 
26.982 1 247 5.33494 4.34079 6.18939 0.520532 -6.52864 0.797893 -0.414552 -0.200253 0.52623 0 0 0 0 0 0 0 0 0 
26.982 1 406 5.20388 2.25756 8.28978 -2.4338 -2.69433 1.43119 -0.0314182 -0.264343 -0.424461 0 0 0 0 0 0 0 0 0 
26.982 1 449 7.38414 4.36166 8.21003 3.23593 2.76384 3.84232 0.136455 -0.149421 0.067758 0 0 0 0 0 0 0 0 0 
26.982 1 207 5.07577 0.18783 6.327 1.18616 -4.94009 -3.74835 0.304331 0.597683 -0.0709324 0 0 0 0 0 0 0 0 0 
26.982 1 212 7.36535 2.21791 6.30502 1.81888 -1.16656 7.28036 -0.189825 -0.129259 0.304085 0 0 0 0 0 0 0 0 0 
26.982 1 251 9.39602 4.16406 6.15837 -1.19712 -2.81791 1.59932 0.199969 0.442304 0.179985 0 0 0 0 0 0 0 0 0 
26.982 1 410 9.52354 2.47099 8.40001 1.58973 4.69424 -4.17619 -0.0377201 -0.744964 -0.0387449 0 0 0 0 0 0 0 0 0 
26.982 1 453 11.476 4.41227 8.32479 -5.97209 -2.26809 2.31159 0.731601 -0.370178 -0.467002 0 0 0 0 0 0 0 0 0 
26.982 1 211 9.48007 0.36549 6.50697 0.729362 -2.96487 -4.56818 -0.109697 -0.362015 -0.307967 0 0 0 0 0 0 0 0 0 
26.982 1 417 16.0222 0.334669 8.33959 5.07947 4.6012 1.31449 -0.0892216 0.0885557 -0.0765733 0 0 0 0 0 0 0 0 0 
26.982 1 413 11.8629 0.367686 8.33472 -3.93468 -0.67289 1.41263 -0.621676 -0.569366 0.293353 0 0 0 0 0 0 0 0 0 
26.982 1 216 11.4824 2.13781 6.45003 2.33298 -4.72744 -0.988611 0.100526 0.902317 -0.43995 0 0 0 0 0 0 0 0 0 
26.982 1 255 13.8304 4.55872 6.12249 2.67441 -0.137669 1.62353 -0.313037 -0.656232 0.912536 0 0 0 0 0 0 0 0 0 
26.982 1 414 13.871 2.26628 8.17505 1.62463 2.07091 -1.638 -0.208579 0.541939 -0.0166199 0 0 0 0 0 0 0 0 0 
26.982 1 415 13.9965 0.306459 10.3313 4.66384 -0.747258 3.27325 -0.321307 0.00878715 -0.0226751 0 0 0 0 0 0 0 0 0 
26.982 1 416 11.8138 2.14461 10.3486 -2.80597 -0.317914 0.0189955 -0.469474 0.537919 -0.357493 0 0 0 0 0 0 0 0 0 
26.982 1 457 15.9711 4.22678 8.11615 -0.455481 5.71603 3.60262 -0.433795 0.533996 0.869841 0 0 0 0 0 0 0 0 0 
26.982 1 420 15.8429 2.41938 10.2152 2.26015 -1.54954 5.47451 0.387472 -0.381407 0.12753 0 0 0 0 0 0 0 0 0 
26.982 1 419 18.1128 0.398116 10.2838 2.001 2.07001 0.0215665 -0.347091 -0.0449443 -0.0245676 0 0 0 0 0 0 0 0 0 
26.982 1 220 16.0005 2.31188 6.31489 -0.12008 -4.34454 -0.794548 -0.259407 0.0324962 -0.117346 0 0 0 0 0 0 0 0 0 