ITEM: TIMESTEP
6800
ITEM: NUMBER OF ATOMS
4000
ITEM: BOX BOUNDS pp pp pp
-1.45624 41.9562
0.384549 40.1155
0.38587 40.1141
ITEM: ATOMS mass type id x y z vx vy vz fx fy fz xrad yrad zrad vxrad vyrad vzrad fxrad fyrad fzrad 
26.982 1 43 0.801368 4.24798 2.26366 2.74111 2.04315 2.04833 -0.0354175 0.0898293 0.104671 0 0 0 0 0 0 0 0 0 
26.982 1 202 0.724802 2.42593 4.29302 -0.0507006 -0.223561 4.87497 -0.172492 -0.0714749 0.0511062 0 0 0 0 0 0 0 0 0 
26.982 1 201 -1.56802 0.316809 4.22251 1.40458 -1.08813 -2.21299 0.170887 0.0506214 0.370103 0 0 0 0 0 0 0 0 0 
26.982 1 241 -1.39806 4.34822 4.09106 2.82961 -5.28331 -2.77376 -0.0770204 0.10584 0.627007 0 0 0 0 0 0 0 0 0 
26.982 1 4 -1.349 2.35397 2.18826 6.00066 -0.546618 -1.28062 -0.454305 -0.00593263 0.284852 0 0 0 0 0 0 0 0 0 
26.982 1 2 0.555587 2.15172 0.282976 0.1508 -0.622302 1.43858 0.631427 0.342913 -0.134391 0 0 0 0 0 0 0 0 0 
26.982 1 45 2.88401 4.27473 0.406397 -6.48998 -7.16544 4.21539 0.108959 -0.173781 0.0648668 0 0 0 0 0 0 0 0 0 
26.982 1 8 2.78711 2.09704 2.30695 -0.897142 1.14536 -1.72614 0.0499149 0.623111 -0.263369 0 0 0 0 0 0 0 0 0 
26.982 1 245 2.90074 4.29678 4.37993 -2.96905 -0.294643 -2.33932 -0.133216 -0.313311 -0.531932 0 0 0 0 0 0 0 0 0 
26.982 1 205 2.77 0.479315 4.35594 -0.31268 -1.27574 -3.99636 0.383472 -0.663908 0.193549 0 0 0 0 0 0 0 0 0 
26.982 1 47 5.08049 4.18053 2.57063 0.636055 -1.3745 2.88032 0.00502154 0.282415 -0.726629 0 0 0 0 0 0 0 0 0 
26.982 1 206 5.03539 2.28945 4.39954 0.266994 -5.30847 -3.06034 0.105424 -0.410374 0.1528 0 0 0 0 0 0 0 0 0 
26.982 1 12 7.16572 2.32446 2.22016 -1.23343 -0.995282 -1.56895 0.18542 0.526363 0.800687 0 0 0 0 0 0 0 0 0 
26.982 1 9 7.05143 0.373286 0.507744 0.268245 -0.325508 -3.42167 0.61218 -0.363678 -0.531034 0 0 0 0 0 0 0 0 0 
26.982 1 249 7.40231 4.37968 4.43838 -0.688749 3.96781 -2.38829 -0.261068 -0.423544 -0.207112 0 0 0 0 0 0 0 0 0 
26.982 1 209 7.19089 0.298102 4.08444 0.246993 -3.04623 -3.07687 0.00443922 0.0507763 0.529653 0 0 0 0 0 0 0 0 0 
26.982 1 49 7.3792 4.33275 0.377637 -0.247728 0.196398 -2.55124 -0.402517 -0.165584 0.216106 0 0 0 0 0 0 0 0 0 
26.982 1 51 9.50399 4.20845 2.49519 -0.964538 -1.05366 0.109018 -0.149317 0.638379 -0.420249 0 0 0 0 0 0 0 0 0 
26.982 1 210 9.50193 2.28857 4.27922 -2.99708 0.23295 2.89517 -0.162342 0.260356 0.802906 0 0 0 0 0 0 0 0 0 
26.982 1 11 9.41184 0.455625 2.48336 1.00028 -3.05945 -2.55933 0.0760664 -0.742756 -0.670702 0 0 0 0 0 0 0 0 0 
26.982 1 16 11.612 2.24824 2.31805 8.6749 6.65391 3.68368 0.117622 0.202225 -0.0274235 0 0 0 0 0 0 0 0 0 
26.982 1 253 11.6753 4.36955 4.2612 -1.25916 -0.163126 0.902965 -0.493758 -0.506758 0.324015 0 0 0 0 0 0 0 0 0 
26.982 1 10 9.41039 2.41917 0.506753 -4.47186 2.5455 -5.21437 0.0701113 -0.398575 -0.332324 0 0 0 0 0 0 0 0 0 
26.982 1 53 11.6616 4.44665 0.427578 2.50606 4.75154 2.8697 -0.279206 -0.119262 -0.090801 0 0 0 0 0 0 0 0 0 
26.982 1 55 13.7663 4.54143 2.33604 -0.681473 4.988 5.54979 0.171543 -0.754836 -0.599176 0 0 0 0 0 0 0 0 0 
26.982 1 214 13.7291 2.52172 4.25156 3.16422 -1.78589 2.40481 0.0480635 -0.414101 0.0451363 0 0 0 0 0 0 0 0 0 
26.982 1 20 15.9845 2.41372 2.34197 -0.973972 -1.45252 3.71894 -0.336908 0.184406 0.0296408 0 0 0 0 0 0 0 0 0 
26.982 1 15 13.8806 0.435165 2.47305 0.735062 -2.32468 -2.59 -0.273748 -0.260343 -0.289641 0 0 0 0 0 0 0 0 0 
26.982 1 14 13.7051 2.23831 0.465879 -4.85132 0.918801 -0.516722 0.161742 0.370016 -0.153893 0 0 0 0 0 0 0 0 0 
26.982 1 257 16.0151 4.15052 4.49322 1.90165 2.35239 0.952658 -0.0783362 0.912165 -0.390102 0 0 0 0 0 0 0 0 0 
26.982 1 218 18.1565 2.41367 4.42737 4.15685 0.386974 2.55353 0.155952 -0.113507 0.142339 0 0 0 0 0 0 0 0 0 
26.982 1 59 18.14 4.23466 2.3279 6.06855 1.32333 -7.00293 -0.127397 0.246685 0.0334643 0 0 0 0 0 0 0 0 0 
26.982 1 217 16.0008 0.391366 4.26759 0.73435 -0.326808 1.40642 -0.178979 0.0715999 0.435358 0 0 0 0 0 0 0 0 0 
26.982 1 21 20.4357 0.535592 0.461306 7.54851 0.4505 0.241111 -0.234283 -0.360782 -0.432367 0 0 0 0 0 0 0 0 0 
26.982 1 221 20.3207 0.425731 4.58885 -5.0958 -1.27264 -1.00223 -0.111519 -0.0331924 -0.359424 0 0 0 0 0 0 0 0 0 
26.982 1 261 20.2369 4.4109 4.44685 -2.63426 2.12597 -1.93958 0.231564 -0.32319 -0.424615 0 0 0 0 0 0 0 0 0 
26.982 1 24 20.2846 2.3104 2.38369 5.45469 -0.859667 -0.830939 0.148818 0.216677 0.728241 0 0 0 0 0 0 0 0 0 
26.982 1 63 22.3488 4.39732 2.50744 3.23304 2.18577 1.9171 -0.0117472 -0.314665 -0.140675 0 0 0 0 0 0 0 0 0 
26.982 1 222 22.6597 2.43568 4.47712 0.330616 3.14245 1.36963 -1.0773 -0.131543 0.113683 0 0 0 0 0 0 0 0 0 
26.982 1 28 24.5244 2.35036 2.58655 -0.694327 2.21846 -2.16841 0.605817 0.309978 -0.631292 0 0 0 0 0 0 0 0 0 
26.982 1 265 24.5317 4.41444 4.61269 3.26308 1.07296 2.61945 0.450031 -0.0418012 -0.610613 0 0 0 0 0 0 0 0 0 
26.982 1 67 26.7968 4.46293 2.52976 1.44215 -5.58309 6.19442 -0.354972 0.0668263 -0.496532 0 0 0 0 0 0 0 0 0 
26.982 1 226 26.8738 2.52064 4.26233 4.98223 0.771129 4.12143 -0.363409 -0.458424 0.408246 0 0 0 0 0 0 0 0 0 
26.982 1 269 28.954 4.44653 4.25756 5.33195 -1.22795 -2.34346 -0.132147 0.0476509 0.47707 0 0 0 0 0 0 0 0 0 
26.982 1 27 26.7553 0.429866 2.41019 0.819057 -5.41671 2.75679 -0.102796 -0.0286691 0.0661683 0 0 0 0 0 0 0 0 0 
26.982 1 29 28.8787 0.459895 0.415623 -5.90759 -1.00339 -1.85901 0.526613 -0.370667 0.354839 0 0 0 0 0 0 0 0 0 
26.982 1 32 28.9763 2.45037 2.43385 -3.32818 -5.8431 -4.73258 -0.0847299 -0.0781303 -0.484271 0 0 0 0 0 0 0 0 0 
26.982 1 71 31.0798 4.45196 2.35808 1.48544 -2.00315 5.64265 0.270263 -0.103067 0.0543579 0 0 0 0 0 0 0 0 0 
26.982 1 230 31.0935 2.37315 4.25972 -2.03389 -2.37072 -1.02014 0.201736 0.00411292 0.242864 0 0 0 0 0 0 0 0 0 
26.982 1 273 33.3335 4.41275 4.15797 -2.39465 -3.21147 -2.0368 -0.525514 -0.369495 0.298498 0 0 0 0 0 0 0 0 0 
26.982 1 229 28.8653 0.402549 4.25474 6.53926 5.9641 -6.89024 0.164048 -0.0875326 0.458949 0 0 0 0 0 0 0 0 0 
26.982 1 36 33.2538 2.4067 2.14692 1.11578 -0.103965 -0.383057 0.0822233 -0.0817083 0.683675 0 0 0 0 0 0 0 0 0 
26.982 1 73 33.1109 4.42488 0.383389 3.44431 -1.19522 2.28575 0.49187 0.0425484 -0.00575399 0 0 0 0 0 0 0 0 0 
26.982 1 75 35.4503 4.3946 2.22507 2.35856 0.859419 0.366554 0.0131154 0.0974967 0.0369949 0 0 0 0 0 0 0 0 0 
26.982 1 234 35.2073 2.43249 4.2142 4.71559 1.1863 -3.84774 0.390992 -0.332296 0.1957 0 0 0 0 0 0 0 0 0 
26.982 1 40 37.5123 2.19739 2.32293 2.33188 -3.93513 0.202556 0.279154 0.329256 0.0659714 0 0 0 0 0 0 0 0 0 
26.982 1 277 37.4255 4.23696 4.2087 2.5857 2.79089 -7.23425 0.40576 0.349549 0.132375 0 0 0 0 0 0 0 0 0 
26.982 1 35 35.4138 0.405127 2.39545 -0.603378 0.903841 -4.35637 -0.137038 -0.255186 -0.303731 0 0 0 0 0 0 0 0 0 
26.982 1 79 39.7151 4.41946 2.2632 -3.50677 -4.00544 1.82299 0.245386 -0.124473 0.0964097 0 0 0 0 0 0 0 0 0 
26.982 1 238 39.829 2.43602 4.17093 1.54261 -6.91971 -3.98526 -0.0424246 -0.0492417 0.212989 0 0 0 0 0 0 0 0 0 
26.982 1 39 39.8097 0.39481 2.3916 -2.43491 3.10664 3.09182 -0.187647 -0.091044 -0.330957 0 0 0 0 0 0 0 0 0 
26.982 1 38 39.7667 2.37001 0.388847 2.34914 1.96884 0.947081 -0.0173764 0.09595 -0.134556 0 0 0 0 0 0 0 0 0 
26.982 1 237 37.6152 0.373782 4.4141 -0.777003 1.63185 -1.82028 -0.393555 0.316693 -0.432971 0 0 0 0 0 0 0 0 0 
26.982 1 83 0.622347 8.50488 2.36856 -3.83874 -0.493122 0.785598 0.45224 -0.66874 -0.0361539 0 0 0 0 0 0 0 0 0 
26.982 1 242 0.764866 6.43806 4.34511 -2.02912 -2.77154 -1.38823 0.0386039 -0.356812 -0.331999 0 0 0 0 0 0 0 0 0 
26.982 1 281 -1.40951 8.10303 4.34664 -2.67042 2.31862 -1.04899 -0.188147 0.616577 -0.0466792 0 0 0 0 0 0 0 0 0 
26.982 1 88 2.87373 10.4849 2.22561 -4.29957 0.263155 -2.28072 0.177936 -0.547259 0.281058 0 0 0 0 0 0 0 0 0 
26.982 1 285 2.95569 8.50955 4.30174 2.05344 3.48318 1.30477 0.0678998 -0.441548 -0.178309 0 0 0 0 0 0 0 0 0 
26.982 1 48 2.75739 6.35146 2.3707 1.49042 -4.17243 -1.07035 0.347365 -0.090906 0.202606 0 0 0 0 0 0 0 0 0 
26.982 1 87 4.93484 8.33184 2.18979 -2.13625 3.04922 0.559053 0.431096 -0.116542 0.25673 0 0 0 0 0 0 0 0 0 
26.982 1 246 5.15893 6.26843 4.19261 0.330837 1.14636 0.1006 -0.0585088 0.395635 0.3316 0 0 0 0 0 0 0 0 0 
26.982 1 289 7.26392 8.29173 4.35829 -0.85168 7.75346 1.40566 0.0445718 -0.431669 0.145038 0 0 0 0 0 0 0 0 0 
26.982 1 286 5.25214 10.2999 4.34416 -3.40765 4.41062 2.63218 -0.207134 0.0398865 -0.104522 0 0 0 0 0 0 0 0 0 
26.982 1 85 2.85433 8.14935 0.345573 0.769578 2.403 -1.47041 -0.038421 0.0745849 0.133541 0 0 0 0 0 0 0 0 0 
26.982 1 52 7.41633 6.35233 2.36114 0.329779 -2.76298 4.15467 -0.334728 -0.0632363 0.0218428 0 0 0 0 0 0 0 0 0 
26.982 1 92 7.42328 10.1181 2.35585 -1.55256 3.29449 2.41863 -0.436449 0.162674 -0.31897 0 0 0 0 0 0 0 0 0 
26.982 1 91 9.62186 8.20673 2.40151 -2.59234 -0.876899 2.13712 -0.376946 0.126477 -0.303763 0 0 0 0 0 0 0 0 0 
26.982 1 250 9.54227 6.20711 4.44121 -1.36375 -1.79696 0.202429 -0.221339 0.0637848 -0.12878 0 0 0 0 0 0 0 0 0 
26.982 1 290 9.34084 10.124 4.36001 -3.26724 1.35361 2.19387 0.547578 0.512895 0.114336 0 0 0 0 0 0 0 0 0 
26.982 1 293 11.5834 8.16681 4.34876 -0.832921 -3.5422 0.899937 0.0762976 0.573194 0.311899 0 0 0 0 0 0 0 0 0 
26.982 1 89 7.28853 8.32198 0.24551 1.46239 0.96779 1.85636 0.107727 0.0838012 0.483999 0 0 0 0 0 0 0 0 0 
26.982 1 56 11.6805 6.3982 2.43114 -7.19016 1.63975 -4.84883 -0.322232 -0.510919 -0.680407 0 0 0 0 0 0 0 0 0 
26.982 1 95 13.7672 8.12948 2.27209 -1.70547 -0.869156 0.197005 0.213805 0.133904 0.432989 0 0 0 0 0 0 0 0 0 
26.982 1 254 13.7006 6.08604 4.38508 1.10779 1.39853 -5.24015 0.559 0.895125 0.297351 0 0 0 0 0 0 0 0 0 
26.982 1 54 13.9165 6.35309 0.175502 -1.253 0.830273 1.39435 -0.367382 -0.152261 0.548841 0 0 0 0 0 0 0 0 0 
26.982 1 297 15.9403 8.19636 4.27317 -2.6648 -3.72922 -2.92493 -0.169103 0.193315 -0.279485 0 0 0 0 0 0 0 0 0 
26.982 1 60 15.9565 6.22848 2.42499 -1.91104 -2.08881 -2.44079 0.131693 -0.524828 0.0420568 0 0 0 0 0 0 0 0 0 
26.982 1 99 18.0202 8.27218 2.34587 -2.47247 -0.017513 -3.00721 0.291032 0.143418 0.280701 0 0 0 0 0 0 0 0 0 
26.982 1 258 18.1206 6.27942 4.32426 -3.40391 -1.56147 -1.74127 -0.179823 0.0543585 0.202192 0 0 0 0 0 0 0 0 0 
26.982 1 298 18.1706 10.1677 4.4166 -0.583559 0.676205 6.42958 -0.266082 0.0405329 0.150954 0 0 0 0 0 0 0 0 0 
26.982 1 100 16.0769 10.4337 2.38422 6.48877 1.01459 0.772099 -0.167889 -0.593734 0.0744646 0 0 0 0 0 0 0 0 0 
26.982 1 98 18.1665 10.2887 0.437493 -0.110988 -0.839839 -2.60196 -0.325769 0.0656356 0.64757 0 0 0 0 0 0 0 0 0 
26.982 1 301 20.273 8.3325 4.32492 0.765506 3.63401 5.51755 -0.0443832 0.0608884 -0.148012 0 0 0 0 0 0 0 0 0 
26.982 1 64 20.2058 6.36046 2.41369 -1.48798 -0.325006 0.814168 0.186387 -0.272593 -0.0334136 0 0 0 0 0 0 0 0 0 
26.982 1 103 22.388 8.46927 2.19701 -0.303789 2.09029 -2.11058 0.057629 -0.227631 0.745925 0 0 0 0 0 0 0 0 0 
26.982 1 262 22.4233 6.3852 4.27972 -0.647686 4.68598 -6.71947 -0.00686913 0.243878 0.225231 0 0 0 0 0 0 0 0 0 
26.982 1 305 24.7859 8.33384 4.46298 0.830027 0.574873 -2.07838 -0.723609 -0.000232215 -0.0465557 0 0 0 0 0 0 0 0 0 
26.982 1 101 20.1649 8.29854 0.518051 -4.00511 5.34966 -1.00002 0.289683 0.107885 -0.425379 0 0 0 0 0 0 0 0 0 
26.982 1 68 24.5106 6.35758 2.51081 -4.57001 -3.54117 -2.70952 0.241637 0.26947 -0.114701 0 0 0 0 0 0 0 0 0 
26.982 1 107 26.7851 8.36442 2.56107 -0.807462 0.637417 0.880077 -0.183139 -0.0184968 -0.554085 0 0 0 0 0 0 0 0 0 
26.982 1 266 26.6854 6.32255 4.53292 -0.0730424 0.860901 -1.99734 0.056693 -0.127409 -0.352141 0 0 0 0 0 0 0 0 0 
26.982 1 309 28.8035 8.17816 4.2263 -6.33748 1.89675 -3.92944 0.567145 0.662754 0.573293 0 0 0 0 0 0 0 0 0 
26.982 1 66 26.6278 6.40538 0.562843 11.1042 -1.74786 -1.42122 0.285544 0.000460267 0.0397774 0 0 0 0 0 0 0 0 0 
26.982 1 109 28.9245 8.41198 0.560041 -4.51837 -6.93765 2.60079 0.00122162 -0.250278 -0.221043 0 0 0 0 0 0 0 0 0 
26.982 1 72 29.064 6.28477 2.37003 -2.9625 -0.161717 3.06631 -0.364376 0.353585 -0.408471 0 0 0 0 0 0 0 0 0 
26.982 1 111 31.2403 8.3651 2.38965 -5.18072 4.47621 -0.275944 -0.0845076 -0.248567 -0.136389 0 0 0 0 0 0 0 0 0 
26.982 1 270 31.1681 6.47725 4.35132 -7.18083 -2.68957 6.86714 -0.224088 -0.129758 -0.21843 0 0 0 0 0 0 0 0 0 
26.982 1 313 33.3206 8.32043 4.4657 -2.9538 -0.568243 -0.685002 -0.0631856 0.40489 -0.488916 0 0 0 0 0 0 0 0 0 
26.982 1 76 33.4778 6.43607 2.43846 -3.22653 3.92856 2.06959 -0.660882 0.0825839 -0.630385 0 0 0 0 0 0 0 0 0 
26.982 1 113 33.2696 8.35911 0.369136 -2.79802 1.93004 0.598739 -0.0558994 -0.34424 0.180853 0 0 0 0 0 0 0 0 0 
26.982 1 310 30.9127 10.2629 4.30539 3.06848 1.79679 -1.29913 0.20661 0.0126803 0.354445 0 0 0 0 0 0 0 0 0 
26.982 1 116 33.4319 10.32 2.3534 -1.59062 -3.8029 0.946437 -0.224551 -0.105851 -0.0406786 0 0 0 0 0 0 0 0 0 
26.982 1 110 31.0436 10.3532 0.549475 -6.13077 5.43022 -2.56875 0.217208 -0.160289 -0.218908 0 0 0 0 0 0 0 0 0 
26.982 1 115 35.4412 8.3934 2.29594 -0.530662 -2.22487 -2.75965 0.161965 -0.0094134 0.102986 0 0 0 0 0 0 0 0 0 
26.982 1 274 35.4088 6.35197 4.31252 7.9513 2.16229 -2.00612 0.620963 0.110918 0.15832 0 0 0 0 0 0 0 0 0 
26.982 1 317 37.548 8.46814 4.24018 4.91484 1.06244 -0.334763 0.104896 -0.685054 0.535424 0 0 0 0 0 0 0 0 0 
26.982 1 114 35.4397 10.4234 0.262213 0.372211 -0.197 -1.22908 0.217746 0.247576 0.198192 0 0 0 0 0 0 0 0 0 
26.982 1 117 37.6454 8.43806 0.416461 3.5447 -0.297806 4.748 0.102209 0.0767278 -0.140329 0 0 0 0 0 0 0 0 0 
26.982 1 80 37.7491 6.46021 2.37009 -1.34062 1.17786 -0.678316 -0.603235 -0.295054 -0.128283 0 0 0 0 0 0 0 0 0 
26.982 1 314 35.5211 10.2692 4.38173 5.73749 1.1966 1.32139 -0.431167 0.271191 -0.0486781 0 0 0 0 0 0 0 0 0 
26.982 1 120 37.5579 10.3445 2.43521 -0.907855 0.723896 1.28386 0.239435 0.548111 -0.593085 0 0 0 0 0 0 0 0 0 
26.982 1 84 41.978 10.2909 2.47076 0.508065 0.383543 3.0689 -0.0716255 0.111984 -0.402786 0 0 0 0 0 0 0 0 0 
26.982 1 44 42.0441 6.34383 2.29453 -3.42942 1.39184 -0.0789542 -0.341134 0.0244728 0.098059 0 0 0 0 0 0 0 0 0 
26.982 1 119 39.761 8.43664 2.37002 3.27996 -1.88944 -0.361416 0.283109 -0.22907 -0.307745 0 0 0 0 0 0 0 0 0 
26.982 1 278 39.6896 6.3907 4.25035 -2.5617 -1.29124 -5.02953 0.48386 -0.549223 -0.10768 0 0 0 0 0 0 0 0 0 
26.982 1 318 39.8783 10.2469 4.30317 1.67644 -0.980177 1.63853 -0.223034 0.405319 0.111906 0 0 0 0 0 0 0 0 0 
26.982 1 123 0.726219 12.2796 2.42744 -5.89902 6.37317 2.44695 0.0239332 0.093307 -0.431185 0 0 0 0 0 0 0 0 0 
26.982 1 282 0.846728 10.3432 4.31633 -0.119623 -0.580761 0.123226 -0.357247 -0.341597 0.320731 0 0 0 0 0 0 0 0 0 
26.982 1 322 0.96563 14.3114 4.2668 -1.62024 -0.621405 4.37064 -0.334808 0.258863 0.12716 0 0 0 0 0 0 0 0 0 
26.982 1 124 -1.37615 14.2484 2.39489 4.07398 3.02652 -6.1225 0.186983 0.265435 -0.0371613 0 0 0 0 0 0 0 0 0 
26.982 1 325 2.82323 12.2656 4.39219 -2.89894 -2.29485 1.85386 0.712743 0.117539 0.151742 0 0 0 0 0 0 0 0 0 
26.982 1 122 0.829919 14.2032 0.441192 -0.517334 -6.33776 -0.534533 -0.0736832 0.27138 0.0731742 0 0 0 0 0 0 0 0 0 
26.982 1 128 3.17862 14.2157 2.3395 8.57233 -0.445307 -0.874243 -0.55251 -0.103079 -0.272419 0 0 0 0 0 0 0 0 0 
26.982 1 82 0.795478 10.2533 0.343882 1.97381 -0.356037 -3.58645 -0.19714 0.362582 -0.0589758 0 0 0 0 0 0 0 0 0 
26.982 1 125 2.97578 12.2044 0.165177 1.96272 2.88972 -0.311206 -0.112334 0.379221 0.010246 0 0 0 0 0 0 0 0 0 
26.982 1 127 5.10534 12.1358 2.27146 2.85672 0.617518 2.2631 0.128948 0.138887 0.0927006 0 0 0 0 0 0 0 0 0 
26.982 1 326 5.0528 14.2227 4.3202 2.04627 0.500837 -2.60344 0.38005 0.155685 0.210678 0 0 0 0 0 0 0 0 0 
26.982 1 126 5.24284 14.2093 0.311825 2.7688 -0.467559 2.2614 -0.564012 0.146357 0.259199 0 0 0 0 0 0 0 0 0 
26.982 1 132 7.2852 14.2781 2.2514 5.93759 3.54479 -2.63507 -0.0527345 0.074266 0.166368 0 0 0 0 0 0 0 0 0 
26.982 1 329 7.32358 12.3824 4.1029 -3.79308 -2.48368 0.746053 -0.245027 -0.613664 0.369811 0 0 0 0 0 0 0 0 0 
26.982 1 129 7.32339 12.284 0.444005 -3.23482 2.58337 -0.229633 -0.0570559 -0.621742 -0.061529 0 0 0 0 0 0 0 0 0 
26.982 1 86 4.98307 10.2273 0.227719 -0.333388 1.00183 -1.09718 0.443021 0.212678 0.186506 0 0 0 0 0 0 0 0 0 
26.982 1 131 9.5175 12.1116 2.20043 -5.10893 -5.98352 1.27537 0.0356059 0.307915 0.291671 0 0 0 0 0 0 0 0 0 
26.982 1 330 9.44063 14.1292 4.26322 -7.61919 3.67251 2.36412 0.326006 0.331466 -0.890773 0 0 0 0 0 0 0 0 0 
26.982 1 333 11.6027 12.297 4.20695 -0.796503 -3.51931 -2.16 -0.277423 -0.737888 0.274281 0 0 0 0 0 0 0 0 0 
26.982 1 90 9.47599 10.1751 0.300683 0.1553 -0.506516 -0.713335 0.118099 -0.0902698 -0.179772 0 0 0 0 0 0 0 0 0 
26.982 1 294 13.6821 10.2329 4.11122 -4.76115 0.183841 -3.55852 0.183584 -0.0282434 0.400436 0 0 0 0 0 0 0 0 0 
26.982 1 96 11.7321 10.1733 2.22684 3.51105 2.96463 -2.22328 -0.507293 0.0805113 0.246879 0 0 0 0 0 0 0 0 0 
26.982 1 136 11.6568 14.1504 2.19447 -2.60561 -4.89329 2.83753 -0.656568 0.418758 0.348252 0 0 0 0 0 0 0 0 0 
26.982 1 135 13.8815 12.3531 2.16852 -1.3093 2.36597 1.69071 -0.15445 -0.406273 0.0799498 0 0 0 0 0 0 0 0 0 
26.982 1 334 13.68 14.0277 4.20574 -0.421812 1.26998 1.56159 0.334829 0.805241 0.588699 0 0 0 0 0 0 0 0 0 
26.982 1 134 13.6933 14.4675 0.320883 6.52718 -0.365765 -3.75874 0.389324 -0.39954 -0.295917 0 0 0 0 0 0 0 0 0 
26.982 1 140 15.8328 14.3002 2.27517 2.01914 -4.3442 2.89907 -0.15885 0.394463 0.745769 0 0 0 0 0 0 0 0 0 
26.982 1 137 16.0598 12.3228 0.510071 -2.22366 -0.655 -2.5113 -0.571117 -0.379559 -0.482563 0 0 0 0 0 0 0 0 0 
26.982 1 133 11.6971 12.2541 0.371546 2.20943 -3.37938 1.06391 -0.15539 -0.155262 -0.248161 0 0 0 0 0 0 0 0 0 
26.982 1 337 15.8792 12.1431 4.44036 0.399222 1.96024 0.428744 0.0644123 0.11169 -0.11826 0 0 0 0 0 0 0 0 0 
26.982 1 139 18.3078 12.3163 2.75885 -3.32465 -3.72475 2.18881 -0.328451 0.133638 -0.434503 0 0 0 0 0 0 0 0 0 
26.982 1 338 17.9387 14.4817 4.35172 0.605913 1.05625 2.83696 0.225151 -0.42898 0.231819 0 0 0 0 0 0 0 0 0 
26.982 1 341 20.4725 12.3153 4.54334 5.68643 2.77293 0.953851 -0.706878 0.0593883 -0.0150168 0 0 0 0 0 0 0 0 0 
26.982 1 138 17.9138 14.1598 0.60491 -2.12665 0.517787 -0.445678 0.927934 0.813707 0.164887 0 0 0 0 0 0 0 0 0 
26.982 1 144 20.3254 14.4238 2.3935 -0.633813 -5.65735 11.5713 -0.429035 -0.0702562 0.0775511 0 0 0 0 0 0 0 0 0 
26.982 1 104 20.2725 10.4326 2.43191 -1.32 -2.44863 1.48182 0.00876777 -0.417321 0.121568 0 0 0 0 0 0 0 0 0 
26.982 1 302 22.4249 10.3252 4.43207 -3.56086 3.42157 -1.84056 0.12132 0.0338858 -0.276067 0 0 0 0 0 0 0 0 0 
26.982 1 142 22.4108 14.3197 0.470235 -3.64818 -0.481526 1.83274 -0.166377 -0.243628 -0.00753027 0 0 0 0 0 0 0 0 0 
26.982 1 143 22.3413 12.3779 2.55312 -1.75984 -7.6417 -0.0920958 0.414175 -0.199032 -0.514506 0 0 0 0 0 0 0 0 0 
26.982 1 342 22.3208 14.4002 4.37728 -0.70208 1.42665 2.01141 0.184111 -0.0161527 0.413844 0 0 0 0 0 0 0 0 0 
26.982 1 148 24.4726 14.3409 2.42382 0.782115 -4.88165 -0.271757 0.210711 -0.330338 -0.0605821 0 0 0 0 0 0 0 0 0 
26.982 1 108 24.7107 10.3048 2.5612 -0.239945 1.0763 5.16523 -0.434467 0.345226 -0.00749417 0 0 0 0 0 0 0 0 0 
26.982 1 112 28.9271 10.383 2.39007 -0.0495271 1.64195 1.71222 -0.215286 -0.0476775 0.302025 0 0 0 0 0 0 0 0 0 
26.982 1 306 26.7805 10.5048 4.46049 -3.82639 2.93999 -1.36664 0.0365286 -0.245913 -0.160475 0 0 0 0 0 0 0 0 0 
26.982 1 345 24.502 12.3803 4.54712 0.246992 3.94971 0.0457754 0.0420447 0.136047 -0.829328 0 0 0 0 0 0 0 0 0 
26.982 1 147 26.6804 12.3443 2.36757 3.07791 2.97277 -0.419743 0.214328 0.295393 0.343569 0 0 0 0 0 0 0 0 0 
26.982 1 346 26.5962 14.53 4.36952 4.1653 -1.7249 2.69353 0.334788 -0.601679 -0.0629205 0 0 0 0 0 0 0 0 0 
26.982 1 152 28.985 14.3965 2.41626 -4.31917 -0.196298 0.692623 -0.110413 0.0607937 -0.157037 0 0 0 0 0 0 0 0 0 
26.982 1 349 28.8999 12.3827 4.301 0.420239 7.36073 -2.05762 -0.0981557 0.0264121 0.249035 0 0 0 0 0 0 0 0 0 
26.982 1 151 31.1931 12.3229 2.43514 -3.19859 0.903449 3.8073 -0.232612 -0.062881 -0.587524 0 0 0 0 0 0 0 0 0 
26.982 1 350 31.1715 14.1495 4.29575 1.99711 -5.7769 -1.53126 -0.0315569 0.884047 0.231081 0 0 0 0 0 0 0 0 0 
26.982 1 150 31.0791 14.3225 0.300377 1.8513 3.37963 7.77162 -0.38621 -0.00597386 0.484402 0 0 0 0 0 0 0 0 0 
26.982 1 153 33.2893 12.2847 0.398699 -1.2765 1.8032 6.10181 0.00323012 0.150792 -0.00388838 0 0 0 0 0 0 0 0 0 
26.982 1 156 33.3022 14.4257 2.21792 0.799915 0.292841 3.13357 0.186727 -0.64421 0.490802 0 0 0 0 0 0 0 0 0 
26.982 1 353 33.1936 12.1187 4.29301 4.15083 2.40615 5.0989 0.588067 0.566929 0.0384956 0 0 0 0 0 0 0 0 0 
26.982 1 155 35.5599 12.3988 2.447 2.97922 -2.87811 0.563492 -0.297361 -0.183438 -0.327643 0 0 0 0 0 0 0 0 0 
26.982 1 354 35.3883 14.264 4.39346 -2.71436 -5.97966 3.09454 0.0463497 0.304939 -0.103799 0 0 0 0 0 0 0 0 0 
26.982 1 160 37.8195 14.3797 2.39518 7.68704 -1.61806 2.40059 -0.66116 -0.0379818 -0.0241064 0 0 0 0 0 0 0 0 0 
26.982 1 357 37.6521 12.4419 4.27167 1.53008 0.410951 -4.67074 0.0512058 -0.484598 -0.0469817 0 0 0 0 0 0 0 0 0 
26.982 1 157 37.6366 12.3971 0.349596 -5.28163 -3.50959 -0.744775 0.0544527 -0.562513 0.316271 0 0 0 0 0 0 0 0 0 
26.982 1 321 42.0369 12.2531 4.34262 2.33855 -1.54248 4.72365 -0.163884 0.308517 0.106837 0 0 0 0 0 0 0 0 0 
26.982 1 159 39.8318 12.3804 2.42345 -0.947899 -0.152026 -2.60948 0.0455774 -0.517638 0.0035171 0 0 0 0 0 0 0 0 0 
26.982 1 358 40.003 14.3676 4.30882 -4.24776 0.599759 2.89422 -0.202039 0.0696271 0.214128 0 0 0 0 0 0 0 0 0 
26.982 1 158 39.7519 14.2401 0.514647 0.698132 -0.311784 -0.533564 0.619101 0.18188 -0.326972 0 0 0 0 0 0 0 0 0 
26.982 1 163 0.905723 16.2886 2.35726 5.01137 2.79645 -0.295617 -0.118855 -0.44451 0.1727 0 0 0 0 0 0 0 0 0 
26.982 1 362 0.828207 18.1204 4.39592 -1.44082 2.92237 3.21961 -0.150398 0.397938 -0.0461657 0 0 0 0 0 0 0 0 0 
26.982 1 164 -1.51691 18.3165 2.32912 -5.23087 -0.10199 3.54112 0.414192 0.125488 -0.0390921 0 0 0 0 0 0 0 0 0 
26.982 1 168 2.9168 18.2144 2.28616 -3.27446 0.134689 -0.0665307 -0.105851 -0.11397 0.111066 0 0 0 0 0 0 0 0 0 
26.982 1 361 -1.49421 16.4482 4.26711 -1.72741 0.233801 -1.50815 0.335799 -0.272787 0.103613 0 0 0 0 0 0 0 0 0 
26.982 1 365 3.06652 16.3359 4.36144 2.22802 -4.14259 -1.03114 -0.203383 -0.266059 0.123973 0 0 0 0 0 0 0 0 0 
26.982 1 167 5.01632 16.3436 2.34215 3.04611 3.20135 1.10565 0.498954 -0.149492 -0.0758397 0 0 0 0 0 0 0 0 0 
26.982 1 366 5.07542 18.3698 4.33672 1.09565 2.67038 -0.587856 0.217135 -0.991969 -0.363354 0 0 0 0 0 0 0 0 0 
26.982 1 169 7.3679 16.2013 0.371919 1.31129 -1.75046 0.303463 -0.516059 0.506924 -0.309304 0 0 0 0 0 0 0 0 0 
26.982 1 172 7.21419 18.2613 2.39911 1.06115 2.01294 1.8313 -0.24831 0.00943842 -0.183292 0 0 0 0 0 0 0 0 0 
26.982 1 369 7.3666 16.248 4.2652 0.147536 -1.79709 0.230076 -0.783714 -0.0527626 0.121067 0 0 0 0 0 0 0 0 0 
26.982 1 2209 7.21998 20.3345 4.32432 0.36069 1.80518 4.51324 0.114109 -0.250788 -0.347035 0 0 0 0 0 0 0 0 0 
26.982 1 171 9.24311 16.2838 2.34784 0.00698085 0.853635 1.34067 0.842361 -0.295591 0.157539 0 0 0 0 0 0 0 0 0 
26.982 1 370 9.29189 18.3958 4.46527 0.765996 1.64693 1.3142 0.126676 -0.297787 0.0326174 0 0 0 0 0 0 0 0 0 
26.982 1 2011 9.3573 20.1523 2.38255 -4.11165 -0.547669 -1.50623 -0.167359 0.643781 -0.0563376 0 0 0 0 0 0 0 0 0 
26.982 1 176 11.3434 18.2369 2.53951 -4.37959 4.66736 0.818659 0.462128 -0.00133237 -0.62188 0 0 0 0 0 0 0 0 0 
26.982 1 173 11.5285 16.2898 0.315731 -0.942596 -4.05741 1.30458 -0.036671 0.166946 0.0392363 0 0 0 0 0 0 0 0 0 
26.982 1 2013 11.5284 20.2858 0.430597 4.30802 2.24847 5.56257 0.193672 -0.176942 0.14468 0 0 0 0 0 0 0 0 0 
26.982 1 170 9.41916 18.2587 0.474346 1.45048 2.01246 -2.20817 -0.111435 0.0414268 -0.538197 0 0 0 0 0 0 0 0 0 
26.982 1 373 11.5835 16.1987 4.26239 -6.77141 1.96 3.00812 -0.161172 -0.511159 0.172506 0 0 0 0 0 0 0 0 0 
26.982 1 175 13.485 16.1976 2.31467 -1.07027 -2.93715 -0.339355 0.636981 0.130011 -0.0326989 0 0 0 0 0 0 0 0 0 
26.982 1 374 13.6811 18.0371 4.18588 2.61481 -2.75186 2.60959 0.0366006 0.903452 0.312878 0 0 0 0 0 0 0 0 0 
26.982 1 174 13.7855 18.2303 0.344157 2.2584 1.50809 8.84525 -0.368827 0.0729159 -0.239924 0 0 0 0 0 0 0 0 0 
26.982 1 180 15.8186 18.3267 2.32787 -4.16187 -5.01888 3.18701 0.258832 -0.0533241 0.45891 0 0 0 0 0 0 0 0 0 
26.982 1 377 15.8279 16.36 4.43013 -1.86478 -6.59416 -2.78029 -0.0213995 -0.394543 -0.206957 0 0 0 0 0 0 0 0 0 
26.982 1 179 17.9201 16.3438 2.48079 3.50294 -2.39561 0.879799 0.269317 -0.0366638 -0.552117 0 0 0 0 0 0 0 0 0 
26.982 1 378 18.0169 18.2826 4.35958 -5.16905 0.62551 -4.85518 -0.14885 0.142025 0.210123 0 0 0 0 0 0 0 0 0 
26.982 1 178 18.1332 18.3089 0.408241 -0.130182 -4.55412 0.357128 -0.297108 0.203069 -0.318106 0 0 0 0 0 0 0 0 0 
26.982 1 2021 20.1399 20.4669 0.36208 3.75005 -0.178301 7.26626 0.247752 -0.566284 0.213162 0 0 0 0 0 0 0 0 0 
26.982 1 177 15.9132 16.5213 0.485589 0.927574 -2.27087 2.64412 0.00176955 -0.995385 -0.381402 0 0 0 0 0 0 0 0 0 
26.982 1 184 20.0344 18.3197 2.36221 -0.315474 -5.43865 0.473073 0.538775 -0.0200569 -0.0109876 0 0 0 0 0 0 0 0 0 
26.982 1 381 20.1653 16.4204 4.41911 2.50333 -2.73383 3.02683 -0.0756027 -0.311973 -0.19288 0 0 0 0 0 0 0 0 0 
26.982 1 183 22.4702 16.3975 2.47712 0.941112 -0.49482 -2.13998 -0.475079 -0.0342094 0.0780206 0 0 0 0 0 0 0 0 0 
26.982 1 382 22.2493 18.4187 4.30351 0.984557 8.38432 1.22845 0.0596077 -0.0891699 0.226398 0 0 0 0 0 0 0 0 0 
26.982 1 188 24.4627 18.5744 2.36951 -1.38874 1.32078 -1.75962 0.436563 -1.11372 -0.449458 0 0 0 0 0 0 0 0 0 
26.982 1 385 24.4798 16.2959 4.50938 -0.243355 3.51558 1.10491 -0.0435077 0.300976 -0.101309 0 0 0 0 0 0 0 0 0 
26.982 1 187 26.5706 16.2738 2.26984 0.407894 1.34563 -2.85779 0.164124 0.258786 0.186281 0 0 0 0 0 0 0 0 0 
26.982 1 386 26.7308 18.2146 4.39743 3.12404 -3.86409 -4.06868 -0.00867246 -0.314905 -0.110452 0 0 0 0 0 0 0 0 0 
26.982 1 389 28.9236 16.3891 4.4882 4.65933 1.72944 -2.41991 0.140013 -0.437823 -0.0548065 0 0 0 0 0 0 0 0 0 
26.982 1 2027 26.887 20.3007 2.51834 -2.9935 -3.72845 -0.118282 -0.586845 -0.116967 -0.126335 0 0 0 0 0 0 0 0 0 
26.982 1 192 28.8511 18.0639 2.48621 2.60839 0.43699 -4.12732 0.155077 0.344649 -0.337273 0 0 0 0 0 0 0 0 0 
26.982 1 191 31.3139 16.3799 2.35644 1.16989 -2.56559 5.63296 -0.852931 -0.228771 0.177366 0 0 0 0 0 0 0 0 0 
26.982 1 390 31.1438 18.1908 4.42198 0.479445 1.89067 1.24861 -0.153126 -0.0445755 0.0420187 0 0 0 0 0 0 0 0 0 
26.982 1 393 33.3561 16.2274 4.38331 -0.640787 -3.4184 4.27259 0.0407798 -0.0677707 0.177944 0 0 0 0 0 0 0 0 0 
26.982 1 2229 28.9148 20.2172 4.26062 -3.21128 0.799743 -2.6442 0.115396 -0.208551 0.474515 0 0 0 0 0 0 0 0 0 
26.982 1 196 33.3293 18.2318 2.54374 2.05809 -5.12874 -0.97512 0.087674 0.254699 -0.502282 0 0 0 0 0 0 0 0 0 
26.982 1 195 35.469 16.293 2.27351 -0.0744463 -0.238174 -1.45823 0.00699961 -0.22313 0.178833 0 0 0 0 0 0 0 0 0 
26.982 1 394 35.6295 18.3141 4.28188 -0.891824 1.06835 -2.24916 -0.168372 -0.290168 0.257313 0 0 0 0 0 0 0 0 0 
26.982 1 197 37.6492 16.2504 0.331678 4.54338 -2.18272 0.514673 0.163795 0.0924352 -0.0566881 0 0 0 0 0 0 0 0 0 
26.982 1 397 37.7725 16.2737 4.30671 2.33705 -0.315953 2.07993 -0.157966 0.295414 0.383646 0 0 0 0 0 0 0 0 0 
26.982 1 2035 35.3758 20.1192 2.22799 -3.13839 -4.8484 -7.77441 -0.00785166 0.536379 0.489519 0 0 0 0 0 0 0 0 0 
26.982 1 2233 33.4298 20.2947 4.47146 0.355277 -3.08872 -4.35547 -0.415857 0.347051 -0.826712 0 0 0 0 0 0 0 0 0 
26.982 1 2037 37.5231 20.3383 0.502661 2.8793 2.02137 3.73823 0.62793 -0.117462 -0.428821 0 0 0 0 0 0 0 0 0 
26.982 1 161 42.1611 16.3105 0.467068 -0.0691538 -2.6225 -3.68872 -0.553745 -0.465347 -0.0187475 0 0 0 0 0 0 0 0 0 
26.982 1 200 37.6708 18.1482 2.2764 -2.42173 -3.21813 -1.63557 0.0959233 0.427639 0.241336 0 0 0 0 0 0 0 0 0 
26.982 1 199 39.7947 16.3764 2.30516 -0.777981 -3.99901 4.35523 0.387891 0.141178 -0.1759 0 0 0 0 0 0 0 0 0 
26.982 1 398 39.7644 18.4411 4.34599 0.780993 4.12479 -3.00469 0.135344 -0.59948 0.449792 0 0 0 0 0 0 0 0 0 
26.982 1 2201 42.0584 20.2821 4.42467 -2.21631 -0.76576 -0.307023 0.0921502 -0.0731728 0.0737421 0 0 0 0 0 0 0 0 0 
26.982 1 243 0.797232 4.46722 6.38821 -0.642277 3.52031 -7.6445 -0.118646 -0.81364 -0.541578 0 0 0 0 0 0 0 0 0 
26.982 1 402 0.877274 2.28543 8.27959 -2.20745 -0.813292 2.28795 -0.371598 0.38129 0.236658 0 0 0 0 0 0 0 0 0 
26.982 1 443 0.706056 4.33348 10.4592 -1.20774 0.210018 -2.53844 0.456555 0.297707 -0.230431 0 0 0 0 0 0 0 0 0 
26.982 1 204 -1.32157 2.27063 6.24925 -5.09992 -0.400973 -4.13545 -0.181551 0.243623 0.00805968 0 0 0 0 0 0 0 0 0 
26.982 1 404 -1.24693 2.48696 10.2149 -4.83995 -3.95032 1.8925 -0.41141 -0.986323 0.496705 0 0 0 0 0 0 0 0 0 
26.982 1 203 0.755302 0.397136 6.1963 0.323929 2.87411 9.2412 -0.362519 -0.328007 0.353356 0 0 0 0 0 0 0 0 0 
26.982 1 208 2.8185 2.32878 6.38472 6.23117 2.85739 -4.07713 0.491069 0.0738853 -0.106528 0 0 0 0 0 0 0 0 0 
26.982 1 445 3.05431 4.39546 8.24838 3.49021 3.42658 0.251845 -0.539651 -0.128316 0.298935 0 0 0 0 0 0 0 0 0 
26.982 1 247 5.07392 4.22053 6.25918 -1.39631 -3.91837 4.44868 0.153816 0.231109 -0.0243549 0 0 0 0 0 0 0 0 0 
26.982 1 406 5.11746 2.3248 8.39288 -1.81765 -3.92993 -3.71728 -0.210763 0.213365 -0.599118 0 0 0 0 0 0 0 0 0 
26.982 1 412 7.24595 2.24509 10.3994 -0.225446 0.988364 -3.26203 0.342999 0.215348 -0.454015 0 0 0 0 0 0 0 0 0 
26.982 1 405 2.83012 0.341064 8.33332 1.88398 3.38694 1.85748 0.303568 -0.224426 -0.255887 0 0 0 0 0 0 0 0 0 
26.982 1 447 5.0238 4.31058 10.2438 -3.38294 -4.2786 -2.2975 -0.289391 -0.351771 0.165295 0 0 0 0 0 0 0 0 0 
26.982 1 409 7.42994 0.275174 8.36889 -0.881368 -0.354563 3.36718 -0.262379 0.42786 0.0381461 0 0 0 0 0 0 0 0 0 
26.982 1 211 9.32631 0.279659 6.20529 4.10126 -0.234088 -3.29585 0.457978 -0.0382435 0.180633 0 0 0 0 0 0 0 0 0 
26.982 1 449 7.09371 4.23566 8.22293 -4.30735 0.750927 -2.52047 0.509595 -0.192456 0.331347 0 0 0 0 0 0 0 0 0 
26.982 1 212 7.36431 2.20081 6.28712 -1.45418 -1.81374 -4.47017 -0.214605 0.263048 -0.00349059 0 0 0 0 0 0 0 0 0 
26.982 1 251 9.51988 4.19263 6.46672 7.84925 0.345325 -0.605244 -0.150762 0.0635204 -0.37079 0 0 0 0 0 0 0 0 0 
26.982 1 410 9.41374 2.33533 8.47641 3.92748 4.55857 0.198255 -0.0244007 -0.188656 -0.253577 0 0 0 0 0 0 0 0 0 
26.982 1 451 9.3505 4.32729 10.3664 -5.1648 -3.65573 -3.02754 -0.0731158 0.290194 -0.0488748 0 0 0 0 0 0 0 0 0 