ITEM: TIMESTEP
15950
ITEM: NUMBER OF ATOMS
4000
ITEM: BOX BOUNDS pp pp pp
-3.31591 43.8159
0.856921 39.6431
0.993006 39.507
ITEM: ATOMS mass type id x y z vx vy vz fx fy fz xrad yrad zrad vxrad vyrad vzrad fxrad fyrad fzrad 
26.982 1 43 -1.90599 5.70894 2.51268 -0.443676 -3.3372 -1.19858 -0.0280258 -0.0970814 0.247368 0 0 0 0 0 0 0 0 0 
26.982 1 202 -1.40779 3.44642 4.19651 -0.109692 0.373031 -3.34893 -0.346966 0.348819 0.0669241 0 0 0 0 0 0 0 0 0 
26.982 1 964 42.9163 18.1742 17.9924 2.22417 0.582328 -0.815799 -0.126325 -0.170122 -0.696818 0 0 0 0 0 0 0 0 0 
26.982 1 961 42.7019 16.1544 15.9903 0.321629 -4.3856 1.58616 0.168075 -0.188423 -0.181094 0 0 0 0 0 0 0 0 0 
26.982 1 5 -0.00215053 1.36863 1.54027 -1.65591 -1.96058 0.802079 0.285698 -0.198157 0.0884321 0 0 0 0 0 0 0 0 0 
26.982 1 245 1.59441 4.3209 4.86165 -0.925679 2.0253 -4.86041 0.283642 -0.107901 -0.795231 0 0 0 0 0 0 0 0 0 
26.982 1 8 1.86045 3.61364 1.83765 -1.14491 1.81073 -7.17182 -0.945288 -0.106965 0.322382 0 0 0 0 0 0 0 0 0 
26.982 1 47 3.78793 5.09989 2.82277 2.64506 -2.20871 -0.477501 0.312172 0.369429 0.91132 0 0 0 0 0 0 0 0 0 
26.982 1 206 3.82572 2.51711 3.64115 -2.89812 -2.08421 1.48713 -0.01084 -0.0505966 0.27273 0 0 0 0 0 0 0 0 0 
26.982 1 19 18.4587 0.938696 2.67136 -1.91089 -2.14677 -3.72305 -0.0959198 0.499998 0.266018 0 0 0 0 0 0 0 0 0 
26.982 1 205 0.724642 1.73049 4.26803 5.48427 -0.824467 -5.27828 0.417564 -0.105976 -0.133808 0 0 0 0 0 0 0 0 0 
26.982 1 249 6.54175 5.29496 4.73661 -1.37043 0.745913 -2.57063 0.638 0.149206 -0.394648 0 0 0 0 0 0 0 0 0 
26.982 1 12 6.49562 2.96161 2.67258 3.6397 -1.6731 3.84088 -0.497391 -0.109437 0.277849 0 0 0 0 0 0 0 0 0 
26.982 1 51 8.58774 4.44034 1.86896 0.372558 4.77966 1.02883 0.10619 0.436229 0.0151587 0 0 0 0 0 0 0 0 0 
26.982 1 210 8.78527 3.2706 4.3831 2.77368 -6.11875 -0.520409 -0.0546277 -0.225606 -0.108402 0 0 0 0 0 0 0 0 0 
26.982 1 113 34.0211 8.50525 0.967862 4.59912 0.0100419 2.9874 0.144225 -0.363736 0.582231 0 0 0 0 0 0 0 0 0 
26.982 1 253 11.151 4.65365 3.82208 -4.08616 6.31912 4.74067 0.245147 -0.0326577 0.396371 0 0 0 0 0 0 0 0 0 
26.982 1 16 10.8255 2.74375 1.84771 -1.75792 4.61258 -4.59966 0.524546 -0.402712 0.696986 0 0 0 0 0 0 0 0 0 
26.982 1 55 14.208 5.29462 3.24371 -2.76492 -1.02819 6.73048 -0.436178 -0.117285 -0.231507 0 0 0 0 0 0 0 0 0 
26.982 1 214 13.1858 2.69745 4.1146 1.35884 4.45451 -1.58212 0.274486 0.192734 0.0699891 0 0 0 0 0 0 0 0 0 
26.982 1 70 31.7275 6.60126 0.82488 -0.229294 -1.6276 -2.32723 0.362837 0.0702283 1.02184 0 0 0 0 0 0 0 0 0 
26.982 1 811 9.70729 1.23979 18.2295 0.798845 2.02578 1.95427 0.387597 -0.620164 -0.0686009 0 0 0 0 0 0 0 0 0 
26.982 1 20 16.028 3.14469 3.21038 -2.69559 -2.77654 1.04253 0.319094 -0.405318 -0.160108 0 0 0 0 0 0 0 0 0 
26.982 1 257 16.2083 5.1895 4.99452 0.880467 0.186587 1.61677 0.155357 -0.150682 0.0938599 0 0 0 0 0 0 0 0 0 
26.982 1 218 18.4081 3.16639 4.66633 -2.13042 -0.746016 6.45609 0.0322775 -0.351244 0.345382 0 0 0 0 0 0 0 0 0 
26.982 1 110 31.9228 10.4566 1.12498 5.14008 -4.18515 2.94658 -0.154571 -0.0683973 -0.134851 0 0 0 0 0 0 0 0 0 
26.982 1 2835 36.3976 19.8712 18.4986 -2.96626 -0.361179 -2.93589 0.326551 0.112656 -0.453184 0 0 0 0 0 0 0 0 0 
26.982 1 417 16.341 1.13292 8.38323 3.41894 -1.92468 6.9865 -0.605315 0.0929957 -0.269378 0 0 0 0 0 0 0 0 0 
26.982 1 59 18.2405 5.0581 2.75415 -3.55276 -6.9691 1.77018 0.338459 0.684465 0.860791 0 0 0 0 0 0 0 0 0 
26.982 1 24 20.544 3.17741 2.83345 -1.46545 1.2873 0.329334 -0.0957602 -0.249316 0.220141 0 0 0 0 0 0 0 0 0 
26.982 1 261 20.4147 5.21637 4.85027 -0.481572 5.24674 -2.52486 -0.00793593 -0.303604 -0.284076 0 0 0 0 0 0 0 0 0 
26.982 1 154 36.2922 14.3083 1.3438 5.28437 0.140093 -0.680731 0.137412 -0.132659 -0.211949 0 0 0 0 0 0 0 0 0 
26.982 1 63 22.7017 4.96547 2.94823 2.6728 -2.40499 -6.96198 0.165641 -0.165651 -0.105374 0 0 0 0 0 0 0 0 0 
26.982 1 222 22.6808 2.91583 4.6904 5.35567 4.24045 -4.73454 0.29912 0.293563 -0.635158 0 0 0 0 0 0 0 0 0 
26.982 1 28 25.0322 2.78641 2.8777 -0.547248 1.11755 -1.45379 -0.291192 -0.184472 0.000776552 0 0 0 0 0 0 0 0 0 
26.982 1 265 24.9172 4.89807 4.69511 -3.55903 -0.0498351 -1.76933 -0.18447 -0.142125 0.380282 0 0 0 0 0 0 0 0 0 
26.982 1 813 11.7162 1.178 15.9661 1.49094 0.241753 -0.00119835 -0.219663 -0.230354 0.347225 0 0 0 0 0 0 0 0 0 
26.982 1 118 40.4737 10.6118 1.18658 1.24402 -2.50478 -0.428414 -0.249423 0.519451 -0.144102 0 0 0 0 0 0 0 0 0 
26.982 1 998 40.5843 18.2308 16.2256 -2.58612 -2.06288 0.554506 0.302738 -0.708015 -0.391625 0 0 0 0 0 0 0 0 0 
26.982 1 211 9.06128 1.05907 6.15555 0.958346 0.263093 2.93182 0.345969 -0.375011 -0.577376 0 0 0 0 0 0 0 0 0 
26.982 1 67 27.1386 4.65149 2.94327 -4.19533 -1.4494 -2.69506 0.626945 -0.110342 0.0154892 0 0 0 0 0 0 0 0 0 
26.982 1 226 27.2093 2.79084 4.79896 0.800498 -5.23818 3.64012 0.0186568 0.122165 0.163154 0 0 0 0 0 0 0 0 0 
26.982 1 32 29.6019 2.95376 3.16435 1.03063 3.36839 2.31472 -0.241273 -0.450581 -0.0816966 0 0 0 0 0 0 0 0 0 
26.982 1 269 29.4326 4.69402 5.15446 -0.682 -3.73552 -0.0849171 0.0519014 0.278221 -0.165678 0 0 0 0 0 0 0 0 0 
26.982 1 57 16.2395 5.31045 0.998393 7.16638 6.5186 0.121393 -0.179131 -0.379584 0.0142973 0 0 0 0 0 0 0 0 0 
26.982 1 2839 40.7636 20.1303 18.0426 1.11616 4.38909 6.11555 0.163105 0.109811 0.211287 0 0 0 0 0 0 0 0 0 
26.982 1 26 27.4199 2.6027 1.14296 -2.69926 -0.844819 1.90721 0.116584 0.636044 -0.120285 0 0 0 0 0 0 0 0 0 
26.982 1 2621 20.8701 20.1473 12.8232 -3.24043 4.85482 -1.74043 0.0571571 0.599544 0.466393 0 0 0 0 0 0 0 0 0 
26.982 1 71 31.905 4.57461 3.26499 0.13164 0.210037 -2.30829 -0.212211 0.352614 -0.698948 0 0 0 0 0 0 0 0 0 
26.982 1 230 31.8903 2.78931 5.17821 6.06422 1.02266 -3.36911 -0.266035 -0.506902 0.480398 0 0 0 0 0 0 0 0 0 
26.982 1 273 34.1008 4.63836 5.11155 1.7806 -1.01736 -1.34468 -0.139361 0.46827 0.416796 0 0 0 0 0 0 0 0 0 
26.982 1 36 34.177 2.60099 3.40696 -1.65957 3.95511 -6.17041 -0.0846011 0.0239313 -0.336779 0 0 0 0 0 0 0 0 0 
26.982 1 203 -1.18002 1.46096 6.30225 0.0354811 -5.13509 -0.83673 -0.562004 0.303925 0.179837 0 0 0 0 0 0 0 0 0 
26.982 1 999 40.8381 16.1375 18.147 0.349999 4.0472 -0.215443 0.0586259 -0.228929 0.02872 0 0 0 0 0 0 0 0 0 
26.982 1 75 36.2733 4.78904 3.28021 -4.51215 4.24017 -6.34182 -0.0220932 0.190152 -0.243229 0 0 0 0 0 0 0 0 0 
26.982 1 234 36.4606 3.02821 5.27225 -5.42201 0.021393 4.42608 -0.540083 -1.03859 0.138815 0 0 0 0 0 0 0 0 0 
26.982 1 40 38.3257 2.81793 3.49738 0.853333 -2.75015 -2.63647 0.616124 0.141439 -0.628341 0 0 0 0 0 0 0 0 0 
26.982 1 277 38.5061 5.01099 5.29481 -1.48757 -4.21348 -7.6495 0.407953 -0.227833 -0.948756 0 0 0 0 0 0 0 0 0 
26.982 1 23 22.6051 0.918325 2.64887 3.55165 -5.14085 0.316823 0.561958 0.283611 0.708711 0 0 0 0 0 0 0 0 0 
26.982 1 41 42.8026 4.89985 1.19328 -3.6221 0.412958 2.4435 -0.00326263 -0.105764 0.14447 0 0 0 0 0 0 0 0 0 
26.982 1 4 42.7733 2.77277 3.27979 1.90004 -5.42248 1.20868 0.409934 -0.244357 -0.354499 0 0 0 0 0 0 0 0 0 
26.982 1 241 43.0964 5.10864 4.60299 6.25178 -0.734241 0.99174 0.255106 0.0894233 0.352433 0 0 0 0 0 0 0 0 0 
26.982 1 79 40.6474 4.63603 3.14729 -2.73963 0.149422 -1.21579 -0.293936 0.175413 -0.0360148 0 0 0 0 0 0 0 0 0 
26.982 1 238 40.7196 2.67983 5.14175 -6.18691 0.103483 -4.43732 -0.0128108 0.0191 0.209101 0 0 0 0 0 0 0 0 0 
26.982 1 129 6.8753 12.6919 1.42135 7.78114 -2.53131 -1.95213 -0.0593236 0.137316 -0.34674 0 0 0 0 0 0 0 0 0 
26.982 1 83 -1.42767 8.63078 3.16943 4.82485 -0.271628 4.4275 -0.340093 -0.224292 -0.474325 0 0 0 0 0 0 0 0 0 
26.982 1 242 -1.2 6.37039 5.01636 5.83537 -4.6316 -0.191692 -0.0245771 0.0946338 -0.0895974 0 0 0 0 0 0 0 0 0 
26.982 1 281 43.5577 8.0684 5.51192 2.35086 0.55815 -0.278768 0.291204 -0.117895 -0.260113 0 0 0 0 0 0 0 0 0 
26.982 1 282 -1.48934 10.7495 5.03529 2.43018 -7.57808 0.737026 -0.0774075 -0.425531 0.129296 0 0 0 0 0 0 0 0 0 
26.982 1 2817 16.4026 19.6224 16.5933 -0.0642894 -3.20313 -1.61034 -0.482271 0.0942314 0.103308 0 0 0 0 0 0 0 0 0 
26.982 1 48 1.12495 6.4764 2.88768 -5.05764 -6.74035 3.21902 -0.0924 0.135275 0.37111 0 0 0 0 0 0 0 0 0 
26.982 1 285 0.832109 8.77643 4.77756 6.10111 -1.8063 -3.46206 -0.0536057 -0.41509 0.343598 0 0 0 0 0 0 0 0 0 
26.982 1 87 3.36897 8.01043 2.03004 -5.51143 2.93481 -4.33374 0.485689 0.0775898 0.259299 0 0 0 0 0 0 0 0 0 
26.982 1 246 3.31096 7.11125 4.82341 1.68504 -0.925004 -3.1611 -0.155849 -0.166028 -0.61737 0 0 0 0 0 0 0 0 0 
26.982 1 88 1.12901 9.60547 2.19803 0.68558 4.10334 -2.64306 0.155801 0.286608 -0.173914 0 0 0 0 0 0 0 0 0 
26.982 1 286 4.44842 9.63771 4.19238 -1.04424 -3.80133 -0.637822 -0.385787 -0.151818 -0.31294 0 0 0 0 0 0 0 0 0 
26.982 1 289 6.96074 8.20645 4.16013 -0.641954 2.28796 2.82084 0.416331 -0.341321 -0.761978 0 0 0 0 0 0 0 0 0 
26.982 1 52 6.1223 6.23397 2.06418 -1.14485 -1.7423 -1.32477 0.418243 0.246005 0.00077456 0 0 0 0 0 0 0 0 0 
26.982 1 91 9.77854 9.13032 3.19496 1.83346 1.06554 3.4154 -0.318587 -0.380994 0.102611 0 0 0 0 0 0 0 0 0 
26.982 1 250 9.05875 6.29624 3.90385 4.38193 4.77496 -1.74491 -0.0692611 0.661417 0.14952 0 0 0 0 0 0 0 0 0 
26.982 1 290 9.30352 11.1121 5.11087 -5.67884 -1.9975 -3.09761 0.604996 -0.0280769 0.14211 0 0 0 0 0 0 0 0 0 
26.982 1 50 9.99173 6.91213 1.15786 0.202936 2.00381 -6.28105 0.267388 0.321349 0.754657 0 0 0 0 0 0 0 0 0 
26.982 1 89 7.65013 8.70978 1.35109 -4.56743 -3.19136 -3.33671 0.104989 0.0636915 0.968724 0 0 0 0 0 0 0 0 0 
26.982 1 293 11.8662 9.40082 5.02565 0.695781 -5.69997 2.27624 -0.298461 -0.674915 0.200142 0 0 0 0 0 0 0 0 0 
26.982 1 56 12.0165 7.44264 3.20879 2.11526 0.649513 -0.16619 0.0504992 -0.547229 -0.161437 0 0 0 0 0 0 0 0 0 
26.982 1 95 13.866 9.79238 2.82468 -5.16413 -2.531 0.082851 -0.310109 -0.506097 -0.0962846 0 0 0 0 0 0 0 0 0 
26.982 1 254 14.34 7.33855 5.0891 -4.50758 1.39393 -2.64165 -1.02053 0.246506 -0.401418 0 0 0 0 0 0 0 0 0 
26.982 1 635 36.9125 1.25401 15.473 3.09903 -2.88912 -1.69237 0.0619187 -0.461216 -0.48027 0 0 0 0 0 0 0 0 0 
26.982 1 294 13.4468 11.4604 4.91145 0.403415 3.84783 -7.5694 0.567714 0.483702 -0.170708 0 0 0 0 0 0 0 0 0 
26.982 1 633 35.1373 1.79662 13.1233 3.15198 -2.10811 6.2519 -0.390832 -0.16634 0.52768 0 0 0 0 0 0 0 0 0 
26.982 1 60 16.1702 7.2112 2.98918 -1.17284 0.995263 -4.75164 0.301762 0.446592 -0.185214 0 0 0 0 0 0 0 0 0 
26.982 1 297 15.9834 9.746 4.45953 0.88358 -3.13962 3.68358 -0.0293753 -0.258141 -0.0135172 0 0 0 0 0 0 0 0 0 
26.982 1 99 18.3487 9.21933 2.99877 -4.3792 3.61927 -5.86102 0.199033 0.358267 -0.383894 0 0 0 0 0 0 0 0 0 
26.982 1 100 15.5484 11.9562 2.38577 -0.125302 -3.21094 -1.27738 -0.055851 0.00424915 -0.287692 0 0 0 0 0 0 0 0 0 
26.982 1 258 18.3049 7.28721 4.72373 1.34834 1.45519 1.54373 0.208479 -0.503891 0.426928 0 0 0 0 0 0 0 0 0 
26.982 1 64 20.5823 6.83202 2.68646 -0.969221 0.228041 4.53119 0.0141833 0.200723 0.661252 0 0 0 0 0 0 0 0 0 
26.982 1 301 20.6199 8.91171 4.67306 -2.00698 2.15436 -6.31258 0.116906 0.682977 -0.142715 0 0 0 0 0 0 0 0 0 
26.982 1 104 20.3482 11.0548 2.64829 0.4705 -0.871071 3.16203 0.47198 -0.100391 0.169019 0 0 0 0 0 0 0 0 0 
26.982 1 103 23 8.86515 2.87537 -3.48429 3.62587 0.984176 -0.407485 -0.436138 0.115538 0 0 0 0 0 0 0 0 0 
26.982 1 262 22.5818 7.0159 4.78424 0.308218 2.19986 0.877492 0.705378 -0.283729 0.144935 0 0 0 0 0 0 0 0 0 
26.982 1 305 25.0624 8.59714 4.98613 -0.895618 2.97607 3.57612 -0.00701004 0.413517 -0.288444 0 0 0 0 0 0 0 0 0 
26.982 1 68 24.986 6.77537 2.84526 3.73386 -2.0772 -2.71802 0.153621 0.47077 0.14964 0 0 0 0 0 0 0 0 0 
26.982 1 302 22.9118 10.9018 4.69433 -1.02768 -1.48616 5.77801 -0.638936 -0.283108 0.320121 0 0 0 0 0 0 0 0 0 
26.982 1 109 29.7501 8.57057 1.23452 0.190344 -0.726035 2.10033 -0.805547 0.10748 -0.612918 0 0 0 0 0 0 0 0 0 
26.982 1 107 27.3858 8.60709 3.15861 -7.20112 3.16492 3.51561 -0.243855 0.297814 -0.329678 0 0 0 0 0 0 0 0 0 
26.982 1 266 27.1017 6.50974 4.86916 2.43839 -4.12408 -6.8232 0.405296 0.516837 -0.0402918 0 0 0 0 0 0 0 0 0 
26.982 1 72 29.5904 6.51614 3.11536 -1.85897 5.35686 3.75945 -0.144192 -0.678077 -0.439672 0 0 0 0 0 0 0 0 0 
26.982 1 309 29.5688 8.45147 4.827 -0.711653 0.13467 0.0107802 -0.231779 0.326427 0.67164 0 0 0 0 0 0 0 0 0 
26.982 1 112 29.5859 10.7028 3.06455 -1.17183 -4.10028 2.95909 -0.345773 -0.296856 -0.198072 0 0 0 0 0 0 0 0 0 
26.982 1 78 40.579 6.65067 1.19886 -0.774593 3.53734 -2.3288 -0.32742 -0.260999 0.0187752 0 0 0 0 0 0 0 0 0 
26.982 1 157 38.419 12.4799 1.21612 2.98298 -1.24876 3.5488 0.00239339 0.182267 -0.0323792 0 0 0 0 0 0 0 0 0 
26.982 1 2627 27.5834 20.2373 14.7066 -3.07999 0.516102 -1.81464 -0.748646 0.115452 0.218765 0 0 0 0 0 0 0 0 0 
26.982 1 111 31.5789 8.48691 3.04083 -6.61242 -4.32065 -0.450662 1.09621 -0.0253615 -0.00349756 0 0 0 0 0 0 0 0 0 
26.982 1 270 31.7453 6.56227 4.94064 -1.71513 3.09555 -0.645183 0.139877 0.142573 0.782297 0 0 0 0 0 0 0 0 0 
26.982 1 76 33.9975 6.54023 3.04186 -2.51004 -4.51641 4.61182 -0.174324 0.522802 0.0828927 0 0 0 0 0 0 0 0 0 
26.982 1 313 33.9208 8.44652 5.0896 -0.877616 -5.70358 5.0284 -0.213402 -0.137794 -0.0196594 0 0 0 0 0 0 0 0 0 
26.982 1 116 33.8135 10.3695 3.15965 -4.83096 -0.647686 -4.62107 0.0748065 0.00200324 -0.269345 0 0 0 0 0 0 0 0 0 
26.982 1 115 36.0244 8.54886 3.21635 1.1038 -0.971225 -4.22113 0.273813 0.264831 -0.143264 0 0 0 0 0 0 0 0 0 
26.982 1 274 36.2363 6.77936 5.23768 1.55878 3.01985 2.43435 -0.0262143 0.0740101 0.157615 0 0 0 0 0 0 0 0 0 
26.982 1 80 38.4314 6.91798 3.03215 8.5669 -2.40541 4.47851 -0.212208 -1.45396 0.459953 0 0 0 0 0 0 0 0 0 
26.982 1 317 38.5977 8.45625 5.03124 -1.28955 11.6204 -1.0866 0.123298 0.549862 0.528637 0 0 0 0 0 0 0 0 0 
26.982 1 120 38.3407 10.5808 3.15496 -1.62727 -1.68467 -1.34855 -0.0201124 -0.271188 0.295462 0 0 0 0 0 0 0 0 0 
26.982 1 2819 18.4901 19.8673 18.6811 2.02518 -0.50321 5.90364 0.116418 -0.369996 0.268842 0 0 0 0 0 0 0 0 0 
26.982 1 174 11.881 20.0357 0.958852 -5.67547 -2.21514 -1.26912 0.0612438 -0.590053 0.187529 0 0 0 0 0 0 0 0 0 
26.982 1 44 42.989 7.09119 2.95267 -4.85678 4.29735 1.76971 -0.102263 0.562582 -0.127405 0 0 0 0 0 0 0 0 0 
26.982 1 119 40.4505 8.63855 3.11656 1.60103 -1.40879 -3.99849 0.409392 0.238813 -0.306903 0 0 0 0 0 0 0 0 0 
26.982 1 278 40.8706 6.80527 4.99363 2.2024 -5.68061 -1.26656 0.0443507 -0.470009 -0.411054 0 0 0 0 0 0 0 0 0 
26.982 1 84 43.0942 10.0513 3.43497 4.43608 -2.56549 0.93179 0.221913 0.318929 0.0134266 0 0 0 0 0 0 0 0 0 
26.982 1 2633 33.9363 20.3512 12.8143 -1.55642 0.101345 -6.70421 0.377387 -0.764753 -0.954429 0 0 0 0 0 0 0 0 0 
26.982 1 123 -1.01594 11.4655 2.16788 -6.37022 1.1056 -0.172847 0.100054 -0.167324 -0.0193136 0 0 0 0 0 0 0 0 0 
26.982 1 322 -0.780864 13.2498 4.10094 -2.27298 5.72181 2.18966 0.303288 0.552181 0.281456 0 0 0 0 0 0 0 0 0 
26.982 1 124 -3.22119 12.9979 2.55952 -3.85937 1.24238 3.02947 -0.280656 -0.140482 -0.151216 0 0 0 0 0 0 0 0 0 
26.982 1 122 0.186909 14.1522 1.58828 -1.01569 2.45654 3.00618 -0.373733 -0.337828 -0.171194 0 0 0 0 0 0 0 0 0 
26.982 1 325 1.47382 11.4751 4.31396 0.0962423 7.1134 0.0857239 -0.415847 -0.235851 -0.603639 0 0 0 0 0 0 0 0 0 
26.982 1 128 2.317 14.126 3.65204 -2.2031 -0.0409424 -3.6205 -0.0258878 0.291582 0.364327 0 0 0 0 0 0 0 0 0 
26.982 1 127 4.86152 12.4056 3.42837 -4.04925 6.03005 -1.98383 0.118588 0.148848 0.0991422 0 0 0 0 0 0 0 0 0 
26.982 1 326 4.9081 14.5625 5.27325 2.63936 -2.34047 -1.22438 -0.311424 -0.275329 0.443609 0 0 0 0 0 0 0 0 0 
26.982 1 125 2.63089 12.1228 1.8065 -4.36059 -6.01154 3.57414 0.0199104 -0.174112 -0.334741 0 0 0 0 0 0 0 0 0 
26.982 1 86 5.1563 10.2097 1.66999 -7.52815 0.213168 -4.69107 -0.33553 0.213223 -0.324527 0 0 0 0 0 0 0 0 0 
26.982 1 92 7.26466 10.8058 3.29998 -0.904727 0.621486 -4.79473 0.209541 -0.163365 -0.146856 0 0 0 0 0 0 0 0 0 
26.982 1 329 7.363 12.9155 5.06792 2.22409 2.54072 1.5462 -0.515296 0.562568 0.627798 0 0 0 0 0 0 0 0 0 
26.982 1 132 6.70019 14.8481 3.13871 -3.49131 7.3856 -7.27185 -0.28851 0.0944575 0.187115 0 0 0 0 0 0 0 0 0 
26.982 1 131 9.15472 13.1816 3.02685 -0.510713 1.77045 -1.38219 -0.0498405 0.481088 0.54245 0 0 0 0 0 0 0 0 0 
26.982 1 330 8.99241 15.3923 5.17706 -6.09301 -3.51731 1.62921 0.141419 -0.551578 -0.446613 0 0 0 0 0 0 0 0 0 
26.982 1 77 38.3643 4.7343 1.32301 1.61332 -0.896816 1.04963 0.383494 -0.585272 0.100727 0 0 0 0 0 0 0 0 0 
26.982 1 2803 -2.34345 20.2958 17.5953 -1.81 -2.20944 0.469986 0.413829 -0.938203 -0.121862 0 0 0 0 0 0 0 0 0 
26.982 1 613 11.8604 0.899138 12.015 -3.43659 5.29235 3.10988 -0.298163 0.224214 -0.0325471 0 0 0 0 0 0 0 0 0 
26.982 1 96 11.5465 11.5209 2.87386 -1.91707 -2.97229 -3.9972 0.426113 0.226183 0.648651 0 0 0 0 0 0 0 0 0 
26.982 1 333 11.3488 13.5039 4.9958 -2.49858 -0.713109 5.03716 0.0613844 -0.368359 -0.0834554 0 0 0 0 0 0 0 0 0 
26.982 1 136 10.9254 15.5656 3.2393 2.63828 3.5907 -0.546439 -0.261859 -0.590569 -0.389386 0 0 0 0 0 0 0 0 0 
26.982 1 135 13.4364 13.9329 2.61206 -2.56407 -1.9461 -3.76221 -0.392395 -0.569887 0.662845 0 0 0 0 0 0 0 0 0 
26.982 1 334 13.4343 15.6553 4.88722 3.29612 -0.359852 -1.35491 -0.208288 -0.294031 -0.208241 0 0 0 0 0 0 0 0 0 
26.982 1 140 15.2267 16.1568 2.77066 -5.01714 4.3189 -0.450373 -0.0466118 -0.395767 0.345606 0 0 0 0 0 0 0 0 0 
26.982 1 337 15.602 13.6842 4.45706 -3.00853 3.73318 -1.28732 -0.366292 0.123916 0.0135529 0 0 0 0 0 0 0 0 0 
26.982 1 139 17.5175 14.0849 2.14539 5.03235 1.75987 -0.86727 -0.27356 0.256698 -0.713675 0 0 0 0 0 0 0 0 0 
26.982 1 338 18.2901 14.4483 4.5674 0.597887 -2.81884 0.307103 0.407465 0.670186 0.617849 0 0 0 0 0 0 0 0 0 
26.982 1 298 17.9302 11.9349 4.03174 -3.56775 -4.25533 6.56714 -0.0878014 -0.620309 -0.063449 0 0 0 0 0 0 0 0 0 
26.982 1 341 20.6536 13.059 4.58019 -0.169274 2.02467 2.1393 -0.0388563 -0.567326 -0.192561 0 0 0 0 0 0 0 0 0 
26.982 1 144 20.2774 15.7497 2.18357 -3.37449 3.13293 -2.16351 -0.0937865 -0.464747 -0.110465 0 0 0 0 0 0 0 0 0 
26.982 1 39 40.6152 0.956142 3.01853 0.0876376 -2.66662 -0.439776 0.0958779 0.269427 0.0402823 0 0 0 0 0 0 0 0 0 
26.982 1 2233 34.1411 20.188 5.10942 1.90561 2.84504 -4.57895 0.120226 -0.666492 -0.671238 0 0 0 0 0 0 0 0 0 
26.982 1 108 25.0747 10.6463 2.95836 -8.55332 -1.95292 5.01433 0.40397 -0.114253 -0.280938 0 0 0 0 0 0 0 0 0 
26.982 1 143 22.6493 12.7269 2.68467 -6.0571 -0.244616 -1.98864 0.432952 0.12294 0.380359 0 0 0 0 0 0 0 0 0 
26.982 1 342 23.0182 14.4451 5.03253 0.290711 0.792849 3.61276 0.0212539 0.201534 -0.417992 0 0 0 0 0 0 0 0 0 
26.982 1 148 25.1674 14.5958 2.87764 -1.33212 -6.01145 3.57495 -0.397883 -0.0205286 0.182397 0 0 0 0 0 0 0 0 0 
26.982 1 345 25.092 12.5978 4.79107 -3.17823 2.29298 7.60663 0.222762 0.164313 -0.0078924 0 0 0 0 0 0 0 0 0 
26.982 1 306 27.3079 10.8035 4.96421 -1.56149 -1.79722 -1.98808 -0.071651 -0.594478 0.137025 0 0 0 0 0 0 0 0 0 
26.982 1 147 27.4817 12.5337 2.9859 3.76977 1.53833 -6.56464 -0.194991 -0.378865 -0.363057 0 0 0 0 0 0 0 0 0 
26.982 1 346 27.4439 14.4428 4.72089 6.33221 -1.89914 5.64085 0.042739 0.548274 0.407563 0 0 0 0 0 0 0 0 0 
26.982 1 152 29.7479 14.3238 2.91291 -2.57577 -1.51251 -4.78789 -0.187186 0.244564 0.00185482 0 0 0 0 0 0 0 0 0 
26.982 1 349 29.7725 12.6166 5.1348 3.85185 1.34445 5.15445 -0.361974 -0.405349 0.0366241 0 0 0 0 0 0 0 0 0 
26.982 1 310 31.6287 10.5046 4.93564 4.30969 -1.80832 1.37937 0.170086 -0.195392 0.483525 0 0 0 0 0 0 0 0 0 
26.982 1 151 31.7008 12.3941 2.96484 -2.65071 -1.18982 -2.27529 0.434956 0.390339 -0.149182 0 0 0 0 0 0 0 0 0 
26.982 1 350 31.9194 14.3437 4.97083 -2.23873 -0.347919 5.73353 -0.421707 0.418396 0.103333 0 0 0 0 0 0 0 0 0 
26.982 1 156 33.9141 14.3246 2.95993 -4.21106 3.80324 -3.22718 -0.00160022 -0.307243 -0.0874096 0 0 0 0 0 0 0 0 0 
26.982 1 353 33.7375 12.3913 5.08573 0.17229 2.38548 -0.610442 0.448123 0.145728 -0.825986 0 0 0 0 0 0 0 0 0 
26.982 1 117 38.4639 8.54896 1.05473 -2.52029 -2.14426 -3.66161 0.279754 0.960236 0.0055864 0 0 0 0 0 0 0 0 0 
26.982 1 314 36.4223 9.73255 5.79248 -1.25546 -3.97153 5.55607 -0.213221 0.236317 0.207515 0 0 0 0 0 0 0 0 0 
26.982 1 155 36.0139 12.0244 3.42941 -2.92056 -0.0477237 -1.40982 0.288918 0.269501 0.0247189 0 0 0 0 0 0 0 0 0 
26.982 1 354 35.8453 14.358 4.91388 4.30245 -2.49496 -0.260728 0.52601 -0.871312 0.0375262 0 0 0 0 0 0 0 0 0 
26.982 1 160 38.4015 14.143 3.49439 -3.36344 -5.01207 -3.4116 -0.435923 -0.0076841 0.265952 0 0 0 0 0 0 0 0 0 
26.982 1 357 38.5378 11.7 5.71136 3.86112 -1.51235 -1.32761 -0.459508 0.0837536 -0.486761 0 0 0 0 0 0 0 0 0 
26.982 1 2205 1.8476 20.1837 5.71205 -5.42364 -1.00246 1.36423 -0.444121 -0.212081 0.0579558 0 0 0 0 0 0 0 0 0 
26.982 1 318 40.7365 10.5174 4.96536 8.15721 -2.33459 -3.22121 0.534067 -0.0652851 -0.216715 0 0 0 0 0 0 0 0 0 
26.982 1 321 42.7487 12.6621 5.06431 1.64583 3.06157 2.76126 -0.170641 0.122115 -0.386788 0 0 0 0 0 0 0 0 0 
26.982 1 159 40.5527 12.5364 3.1379 1.84196 1.27668 -5.34224 0.307826 0.200151 0.0674321 0 0 0 0 0 0 0 0 0 
26.982 1 358 40.5914 14.4001 5.42939 0.794266 -0.298159 4.01813 0.0365684 -1.03095 -0.649596 0 0 0 0 0 0 0 0 0 
26.982 1 163 0.0461438 16.1597 3.5459 0.784722 -2.83419 2.74104 -0.186789 -0.385398 0.785122 0 0 0 0 0 0 0 0 0 
26.982 1 362 -0.170052 18.1054 5.63253 -3.02132 1.16486 -1.04006 -0.274846 0.289615 0.187744 0 0 0 0 0 0 0 0 0 
26.982 1 97 16.1856 9.47595 1.24687 -3.50197 -0.818367 0.31997 -0.0975112 -0.157743 -0.40383 0 0 0 0 0 0 0 0 0 
26.982 1 166 3.54508 18.4983 1.30264 4.73117 -1.55479 1.61645 -0.0757746 -0.0666683 -0.0510802 0 0 0 0 0 0 0 0 0 
26.982 1 165 2.01373 16.2318 1.56335 1.65704 1.7611 -1.88189 0.04313 -0.0567083 0.407919 0 0 0 0 0 0 0 0 0 
26.982 1 365 2.2758 16.2899 5.75204 0.0933994 3.28821 0.653484 0.25736 -0.638078 -0.543151 0 0 0 0 0 0 0 0 0 
26.982 1 168 1.83121 18.2051 3.81544 -2.33874 0.574347 -1.45146 0.185486 0.535031 -0.77052 0 0 0 0 0 0 0 0 0 
26.982 1 167 4.00136 16.5669 3.50817 0.222926 -4.62612 -0.712108 0.532982 -0.171584 -0.118916 0 0 0 0 0 0 0 0 0 
26.982 1 366 4.25823 18.5703 5.47817 0.714078 2.92083 -6.2206 -0.432612 -0.201551 0.0620855 0 0 0 0 0 0 0 0 0 
26.982 1 14 14.0988 2.99925 1.33474 1.32386 1.42046 -0.731612 0.0834164 0.566864 -0.163589 0 0 0 0 0 0 0 0 0 
26.982 1 1000 38.595 18.0935 18.2044 7.08538 -1.64092 -4.93318 -0.189995 -0.50487 -0.031867 0 0 0 0 0 0 0 0 0 
26.982 1 369 6.49775 16.8262 5.20762 -3.49228 -0.436706 5.91745 -0.0170391 0.236799 -0.164981 0 0 0 0 0 0 0 0 0 
26.982 1 172 5.6649 19.0086 3.2016 -2.71062 -3.96669 3.79481 0.746461 -0.418384 -0.11911 0 0 0 0 0 0 0 0 0 
26.982 1 171 8.2002 17.2572 3.03944 -5.59253 0.159312 -1.80809 -0.0419892 0.278856 0.296439 0 0 0 0 0 0 0 0 0 
26.982 1 370 7.91339 19.1446 5.17734 -2.35025 -0.793181 -5.86205 0.426246 -0.0797677 -0.157926 0 0 0 0 0 0 0 0 0 
26.982 1 169 5.95434 17.0479 1.33598 -2.8717 -6.11584 -1.2281 -0.113668 -0.54466 -0.352529 0 0 0 0 0 0 0 0 0 
26.982 1 74 36.4766 6.57969 1.17715 1.20929 0.0783314 0.933967 -1.34103 0.291796 0.234847 0 0 0 0 0 0 0 0 0 
26.982 1 176 10.0473 19.4177 3.12028 -3.49073 -1.4225 1.0781 -0.089874 0.330282 0.132802 0 0 0 0 0 0 0 0 0 
26.982 1 373 10.9386 17.4487 5.20415 1.08468 2.6112 1.03264 0.449732 0.359098 0.0993468 0 0 0 0 0 0 0 0 0 
26.982 1 175 12.3594 17.718 2.85189 1.94018 -4.81731 1.4843 0.529905 0.807081 0.249351 0 0 0 0 0 0 0 0 0 
26.982 1 374 12.2504 20.1537 4.83187 -3.50833 5.81486 1.50097 0.111875 -0.286405 -0.0619947 0 0 0 0 0 0 0 0 0 
26.982 1 2 -1.9768 3.1432 1.31982 -5.64633 0.916256 -4.24105 -0.623526 0.0276307 -0.224742 0 0 0 0 0 0 0 0 0 
26.982 1 377 14.3871 18.3516 4.51839 -1.93975 0.389942 5.4116 0.0716303 -0.389137 0.0715205 0 0 0 0 0 0 0 0 0 
26.982 1 93 11.8299 9.38897 1.00401 -4.42005 -3.78402 -1.5797 -0.409911 -0.435898 0.015773 0 0 0 0 0 0 0 0 0 
26.982 1 179 17.8476 16.9198 3.14922 -5.01088 -0.259854 -0.288754 -0.0395948 -0.871561 -0.734107 0 0 0 0 0 0 0 0 0 
26.982 1 378 18.5639 18.9275 4.37762 1.50965 2.57104 -2.9127 -0.0254555 0.961565 0.609515 0 0 0 0 0 0 0 0 0 
26.982 1 3 -2.13877 0.882035 3.5531 -0.379981 0.529873 0.0182423 0.317194 0.0383895 -0.185197 0 0 0 0 0 0 0 0 0 
26.982 1 381 20.7451 16.2468 4.82113 0.744761 -1.43973 2.20212 0.431467 0.483184 -0.571035 0 0 0 0 0 0 0 0 0 
26.982 1 184 20.7222 18.534 2.83146 -3.08219 -7.84384 -2.98344 0.0479789 -0.62121 -0.0595075 0 0 0 0 0 0 0 0 0 
26.982 1 183 23.0316 16.6829 3.06693 1.14291 -2.21737 -0.222149 -0.339563 -0.765299 -0.199273 0 0 0 0 0 0 0 0 0 
26.982 1 382 22.8203 18.6181 4.85306 0.859049 -1.50402 2.9687 0.270434 0.0222538 0.253165 0 0 0 0 0 0 0 0 0 
26.982 1 198 41.1846 17.8828 1.62015 1.22324 -1.10747 -2.94178 0.246044 -0.379535 0.162933 0 0 0 0 0 0 0 0 0 
26.982 1 126 4.26233 14.494 1.52776 0.800923 -4.11182 -2.91729 0.477924 0.127201 0.122191 0 0 0 0 0 0 0 0 0 
26.982 1 34 36.139 2.60108 1.49354 -0.5111 0.378511 -4.70546 0.208287 0.104556 -0.323624 0 0 0 0 0 0 0 0 0 
26.982 1 385 25.2603 16.451 4.85117 -1.59491 5.14 1.36969 -0.0677628 -0.180864 -0.124779 0 0 0 0 0 0 0 0 0 
26.982 1 188 25.2577 18.2538 2.89412 -0.156266 0.48149 8.41766 -0.0195495 0.148795 0.254475 0 0 0 0 0 0 0 0 0 
26.982 1 189 29.8478 16.4243 1.04258 -0.149629 -4.47476 -3.09393 -0.0215954 -0.211439 0.133682 0 0 0 0 0 0 0 0 0 
26.982 1 130 8.46811 15.342 1.15415 -2.68994 -2.70372 -1.00066 0.0426669 -0.501557 0.0758941 0 0 0 0 0 0 0 0 0 
26.982 1 187 27.5127 16.3443 2.71383 3.35798 0.747187 -2.41103 0.0690497 0.0454461 0.49159 0 0 0 0 0 0 0 0 0 
26.982 1 386 27.4747 18.2564 4.75216 5.12065 -0.285214 1.48874 -0.16259 -0.0363579 0.329273 0 0 0 0 0 0 0 0 0 
26.982 1 192 29.7469 18.3275 2.9203 -1.63308 -2.62813 -0.450913 0.116498 -0.220178 0.184725 0 0 0 0 0 0 0 0 0 
26.982 1 389 29.6142 16.4299 4.81147 1.10113 -4.41523 0.0689007 0.122672 -0.474593 0.0721536 0 0 0 0 0 0 0 0 0 
26.982 1 2435 36.3387 19.9678 10.7666 -0.204504 3.47165 -1.23641 -0.597344 0.409831 -0.562086 0 0 0 0 0 0 0 0 0 
26.982 1 114 36.1955 10.3473 1.17 -1.68226 -1.13683 10.6214 0.236469 0.616899 0.439007 0 0 0 0 0 0 0 0 0 
26.982 1 191 31.9738 16.3852 3.04795 -2.19855 -3.026 2.29848 -0.341031 0.00204392 -0.432621 0 0 0 0 0 0 0 0 0 
26.982 1 390 31.8679 18.298 4.99412 0.587151 -2.02962 3.56866 0.320819 0.257175 -0.314235 0 0 0 0 0 0 0 0 0 
26.982 1 393 34.0313 16.3692 4.77903 1.67842 -2.69697 -0.838173 -0.0591267 -0.156268 0.832878 0 0 0 0 0 0 0 0 0 
26.982 1 196 34.3776 18.2141 3.04435 -4.95158 0.27421 1.5406 -0.12054 0.945009 -0.105146 0 0 0 0 0 0 0 0 0 
26.982 1 2029 29.8009 19.9346 0.92071 2.23228 -1.69341 -2.61778 0.0843253 0.882668 0.167951 0 0 0 0 0 0 0 0 0 
26.982 1 1061 20.3768 4.58609 20.1135 -3.74177 3.39013 -0.637379 0.0538932 0.336037 -0.304452 0 0 0 0 0 0 0 0 0 
26.982 1 1106 27.4073 10.3351 20.3677 0.549742 -2.56306 4.60994 0.163242 -0.617901 -0.794876 0 0 0 0 0 0 0 0 0 
26.982 1 2237 38.7659 20.3689 5.00845 0.908169 -3.10675 4.18819 -0.48885 -0.733624 0.460446 0 0 0 0 0 0 0 0 0 
26.982 1 195 36.3859 16.2105 3.24815 2.7406 -1.69693 -0.00400435 0.441523 0.763471 -0.238939 0 0 0 0 0 0 0 0 0 
26.982 1 394 36.4604 18.3708 5.24105 -1.15486 7.04198 -6.10598 0.0417576 -0.0696214 -0.604031 0 0 0 0 0 0 0 0 0 
26.982 1 397 38.5552 16.47 5.25754 -1.0738 0.468313 0.717153 -0.746821 -0.384825 -0.641154 0 0 0 0 0 0 0 0 0 
26.982 1 200 38.824 18.2989 3.11667 1.14811 3.98567 1.62918 -0.215243 0.219455 0.36152 0 0 0 0 0 0 0 0 0 
26.982 1 164 -3.33724 17.2154 2.9471 -5.96867 -4.26615 -2.39644 0.0150297 0.474538 -0.074126 0 0 0 0 0 0 0 0 0 
26.982 1 361 -2.84996 14.9796 4.30932 -0.578914 -2.03186 -3.80242 -0.0142539 0.0512466 0.432929 0 0 0 0 0 0 0 0 0 
26.982 1 199 41.9117 15.076 2.8051 -0.787452 -2.42038 -2.95332 -0.204244 -0.609021 -0.403071 0 0 0 0 0 0 0 0 0 
26.982 1 398 41.1531 16.9806 4.297 -0.193215 2.51458 -4.99163 0.201137 0.923282 -0.115637 0 0 0 0 0 0 0 0 0 
26.982 1 3001 43.0272 20.0118 19.9206 -2.14236 -2.68237 -0.498365 -0.481879 0.159899 0.132708 0 0 0 0 0 0 0 0 0 
26.982 1 997 38.6688 15.9689 16.3204 3.96438 3.9496 -4.22685 -0.318836 0.486263 -0.191691 0 0 0 0 0 0 0 0 0 
26.982 1 243 -0.379346 4.23206 6.71609 -3.03875 -3.28169 -0.921077 -0.310938 -0.367282 0.574082 0 0 0 0 0 0 0 0 0 
26.982 1 402 0.984486 1.82955 7.94041 7.67884 2.65037 1.54579 -0.399524 0.220277 0.873617 0 0 0 0 0 0 0 0 0 
26.982 1 443 0.568888 3.90582 10.0738 5.56977 0.217781 -1.01989 0.00190036 -1.31501 0.469977 0 0 0 0 0 0 0 0 0 
26.982 1 204 -3.36718 3.44077 6.54052 -4.74158 1.06084 -5.31901 0.334807 -0.442248 0.104755 0 0 0 0 0 0 0 0 0 
26.982 1 208 2.87233 2.10792 6.17158 -1.30451 2.79041 -0.728036 0.53162 -0.10367 -0.45344 0 0 0 0 0 0 0 0 0 
26.982 1 445 2.59374 4.22203 8.19181 -0.502783 0.0148209 -1.31017 -0.640938 -0.149027 -0.323996 0 0 0 0 0 0 0 0 0 
26.982 1 247 4.26372 4.68684 5.7853 -0.158364 -1.40432 1.38844 -0.553305 -0.452839 0.189626 0 0 0 0 0 0 0 0 0 
26.982 1 406 4.70665 2.52866 8.16703 -1.84315 3.70594 0.018153 0.224473 -0.63469 -0.225204 0 0 0 0 0 0 0 0 0 
26.982 1 408 2.72529 2.00985 10.3908 3.1348 2.22787 1.63051 0.67638 0.215095 -0.855887 0 0 0 0 0 0 0 0 0 
26.982 1 994 36.2555 18.0026 16.4541 3.59607 5.19336 -3.23701 0.243752 0.0758825 -0.0674779 0 0 0 0 0 0 0 0 0 
26.982 1 449 6.50947 4.56208 7.56115 2.04603 0.80316 1.19882 0.304407 0.886185 0.387347 0 0 0 0 0 0 0 0 0 
26.982 1 212 6.37704 2.54695 5.71751 2.79914 -3.44694 1.38504 0.0197955 0.31033 -0.241393 0 0 0 0 0 0 0 0 0 
26.982 1 251 9.1278 5.23515 6.49355 4.68614 -1.20372 2.7509 -0.291583 0.129994 -0.153148 0 0 0 0 0 0 0 0 0 
26.982 1 410 9.09851 2.95959 8.08832 6.97256 0.194742 -3.69286 -0.027725 -0.0684566 0.153511 0 0 0 0 0 0 0 0 0 
26.982 1 451 8.88079 4.87349 10.0751 2.28968 1.91287 5.69261 0.0174475 0.198436 0.0265274 0 0 0 0 0 0 0 0 0 
26.982 1 412 6.96271 2.88421 9.81931 -0.311141 -5.61311 -5.66169 0.103132 -0.0394497 0.361753 0 0 0 0 0 0 0 0 0 
26.982 1 453 11.1601 5.23998 8.45747 -3.48308 0.978227 0.759065 -0.288593 -0.215141 -0.372168 0 0 0 0 0 0 0 0 0 
26.982 1 216 11.1356 3.10247 6.19827 4.21935 1.29693 0.245825 -0.112924 -0.170471 0.0148675 0 0 0 0 0 0 0 0 0 
26.982 1 255 13.5086 4.66622 6.07865 -2.85616 5.89636 5.20246 -0.00594125 -0.0356684 -0.17492 0 0 0 0 0 0 0 0 0 
26.982 1 414 13.5035 2.29493 7.49119 2.86196 -5.8163 6.84413 0.609866 -0.432753 -0.485492 0 0 0 0 0 0 0 0 0 