ITEM: TIMESTEP
9700
ITEM: NUMBER OF ATOMS
4000
ITEM: BOX BOUNDS pp pp pp
-2.04564 42.5456
0.564145 39.9359
0.559472 39.9405
ITEM: ATOMS mass type id x y z vx vy vz fx fy fz xrad yrad zrad vxrad vyrad vzrad fxrad fyrad fzrad 
26.982 1 43 0.192858 4.48667 2.37759 0.0819253 0.105699 0.112106 -0.104826 0.173559 0.656622 0 0 0 0 0 0 0 0 0 
26.982 1 202 0.289854 2.48302 4.49227 -2.50734 2.76592 -0.835581 -0.290424 0.40851 0.607026 0 0 0 0 0 0 0 0 0 
26.982 1 4 -1.9036 2.39609 2.83333 1.04107 -0.14194 -0.948956 -0.531249 0.326268 -0.737324 0 0 0 0 0 0 0 0 0 
26.982 1 8 2.31719 2.61808 2.77111 -1.28499 -1.6569 3.75488 0.727917 -0.151075 -0.40272 0 0 0 0 0 0 0 0 0 
26.982 1 205 2.78038 0.26115 4.37997 4.54393 -4.93315 4.65714 -0.684805 0.70453 -0.585648 0 0 0 0 0 0 0 0 0 
26.982 1 241 -2.13673 4.48501 4.45335 -0.0421914 -1.8265 3.97693 0.0109013 0.305671 -0.117807 0 0 0 0 0 0 0 0 0 
26.982 1 201 -2.01327 0.41844 4.61041 2.07661 1.9225 -1.9989 0.218623 0.129941 0.236801 0 0 0 0 0 0 0 0 0 
26.982 1 3 0.209972 0.624229 2.66267 3.62858 0.924131 -0.118324 0.450343 -0.753422 -0.103871 0 0 0 0 0 0 0 0 0 
26.982 1 41 -2.11735 4.41259 0.659287 -1.22765 -6.93261 2.09592 0.370916 0.0872286 -0.00152631 0 0 0 0 0 0 0 0 0 
26.982 1 45 2.56363 4.53459 0.574112 -2.50276 -2.58866 3.11245 -0.10808 -0.0291562 0.0691824 0 0 0 0 0 0 0 0 0 
26.982 1 245 2.51747 4.63484 4.66129 3.84232 1.63028 2.13867 -0.218028 -0.568387 0.0452855 0 0 0 0 0 0 0 0 0 
26.982 1 47 4.81039 4.51731 2.60907 -7.32987 2.36369 7.45178 -0.0355753 -0.132479 -0.0767071 0 0 0 0 0 0 0 0 0 
26.982 1 206 4.69485 2.53016 4.58674 2.31786 1.02087 -0.999092 0.335864 -0.0726719 -0.556681 0 0 0 0 0 0 0 0 0 
26.982 1 12 6.9973 2.60834 2.38885 1.09118 -3.37133 -0.523474 -0.23365 -0.075908 0.62791 0 0 0 0 0 0 0 0 0 
26.982 1 6 4.68358 2.64177 0.658121 1.41038 -2.26926 -1.32181 0.0831019 -0.103185 -0.151469 0 0 0 0 0 0 0 0 0 
26.982 1 7 4.97306 0.514571 2.59604 2.59 0.913733 -3.132 -0.410507 0.496219 -0.541645 0 0 0 0 0 0 0 0 0 
26.982 1 49 7.21087 4.48432 0.456132 -2.51213 -5.37055 0.368551 -0.745005 0.847728 0.151078 0 0 0 0 0 0 0 0 0 
26.982 1 249 7.02696 4.52276 4.49914 5.2362 -3.90218 -0.746284 -0.0100717 -0.373048 -0.0231943 0 0 0 0 0 0 0 0 0 
26.982 1 209 6.98379 0.438557 4.51204 2.13145 -3.54565 5.6933 0.0284179 0.515962 -0.125363 0 0 0 0 0 0 0 0 0 
26.982 1 51 9.33857 4.6335 2.52467 -1.62778 -0.81603 -0.576635 -0.347033 -0.493429 0.279406 0 0 0 0 0 0 0 0 0 
26.982 1 210 9.22491 2.52456 4.47556 -0.227624 -3.46187 0.968528 -0.396967 0.242743 0.360279 0 0 0 0 0 0 0 0 0 
26.982 1 10 9.01208 2.60137 0.460139 -0.704684 4.90145 2.16382 0.620511 -0.289445 0.271896 0 0 0 0 0 0 0 0 0 
26.982 1 16 11.3404 2.57414 2.50448 -1.23902 -2.68448 4.07301 -0.0625309 0.2364 0.0041037 0 0 0 0 0 0 0 0 0 
26.982 1 253 11.3465 4.53851 4.48574 -5.52505 -2.76439 2.80891 0.276706 0.0283253 0.199029 0 0 0 0 0 0 0 0 0 
26.982 1 55 13.7252 4.4996 2.57594 5.0907 2.49317 -1.99917 -0.203729 0.145503 -0.223423 0 0 0 0 0 0 0 0 0 
26.982 1 214 13.4562 2.55279 4.52257 2.90828 4.77837 0.781651 0.40685 -0.00130109 -0.0323439 0 0 0 0 0 0 0 0 0 
26.982 1 14 13.6399 2.43002 0.840175 5.94767 -0.890186 -2.75487 -0.101528 0.406979 -0.81498 0 0 0 0 0 0 0 0 0 
26.982 1 217 15.7729 0.609853 4.47894 1.10751 1.51313 -2.4182 0.0601233 -0.426265 -0.0829732 0 0 0 0 0 0 0 0 0 
26.982 1 213 11.3122 0.495563 4.45183 1.19649 -0.0969883 -3.91461 0.157782 0.29411 0.234443 0 0 0 0 0 0 0 0 0 
26.982 1 257 15.9025 4.36698 4.53106 -4.22691 1.53606 -1.59757 0.0644847 0.462462 -0.247073 0 0 0 0 0 0 0 0 0 
26.982 1 20 15.8316 2.52477 2.49737 -4.16603 -1.20882 5.41007 0.207239 -0.0303183 -0.0256003 0 0 0 0 0 0 0 0 0 
26.982 1 218 18.0615 2.5237 4.44391 -1.45912 -1.50591 -2.85811 0.18198 0.13918 0.156981 0 0 0 0 0 0 0 0 0 
26.982 1 59 18.1905 4.45907 2.47925 -0.343585 -2.75182 -0.605917 -0.290923 -0.0142647 0.133104 0 0 0 0 0 0 0 0 0 
26.982 1 18 18.0594 2.51109 0.51886 1.45142 -3.37829 -3.94986 0.261281 -0.283253 0.0887887 0 0 0 0 0 0 0 0 0 
26.982 1 24 20.3184 2.35259 2.64232 0.422181 0.516197 6.01457 -0.278845 0.781734 -0.522385 0 0 0 0 0 0 0 0 0 
26.982 1 261 20.4104 4.77274 4.4921 -0.638455 3.83296 -3.00352 -0.473806 -0.302811 -0.0071139 0 0 0 0 0 0 0 0 0 
26.982 1 63 22.4108 4.66553 2.64401 -6.44779 0.126124 4.57115 0.223253 -0.166286 -0.134381 0 0 0 0 0 0 0 0 0 
26.982 1 222 22.3938 2.57716 4.59024 -0.513797 0.848643 -3.63121 0.287274 0.195072 -0.122463 0 0 0 0 0 0 0 0 0 
26.982 1 28 24.6486 2.6839 2.65061 2.23973 1.53268 -0.729566 -0.0070297 -0.115748 -0.106155 0 0 0 0 0 0 0 0 0 
26.982 1 225 24.6693 0.622282 4.45995 0.187654 1.4349 -0.6414 0.206624 0.285074 -0.0618984 0 0 0 0 0 0 0 0 0 
26.982 1 265 24.7313 4.5623 4.61581 -3.42346 1.62959 -0.18114 0.0196442 -0.21969 -0.214618 0 0 0 0 0 0 0 0 0 
26.982 1 67 26.8848 4.64355 2.39919 4.99372 -1.92182 4.11446 0.330051 -0.330804 0.886309 0 0 0 0 0 0 0 0 0 
26.982 1 226 27.0689 2.67065 4.41863 -3.16954 -2.96466 -0.0803549 -0.216914 0.045452 0.400137 0 0 0 0 0 0 0 0 0 
26.982 1 26 26.876 2.56345 0.642321 -0.259313 -1.91455 -1.52797 0.216603 0.341817 -0.115603 0 0 0 0 0 0 0 0 0 
26.982 1 32 29.2399 2.59057 2.67125 0.428088 0.369609 2.57981 0.178176 -0.0334539 -0.464599 0 0 0 0 0 0 0 0 0 
26.982 1 269 29.3159 4.60169 4.46255 0.865368 -0.900381 -2.77482 -0.487063 -0.00569702 -0.073744 0 0 0 0 0 0 0 0 0 
26.982 1 71 31.4848 4.47142 2.40261 -2.92438 2.79046 -0.137157 -0.15989 0.191821 0.397048 0 0 0 0 0 0 0 0 0 
26.982 1 230 31.5462 2.44667 4.61855 2.97882 2.55813 -1.03195 -0.102466 0.263535 -0.536942 0 0 0 0 0 0 0 0 0 
26.982 1 273 33.628 4.54962 4.56094 -2.44662 0.460125 2.05478 -0.276274 0.0951704 -0.230747 0 0 0 0 0 0 0 0 0 
26.982 1 31 31.4243 0.519812 2.59928 -5.05441 -2.88768 6.05415 -0.384256 0.306449 0.0711007 0 0 0 0 0 0 0 0 0 
26.982 1 36 33.534 2.48596 2.51731 -2.50402 -5.67467 -0.29617 0.215839 0.562007 0.185125 0 0 0 0 0 0 0 0 0 
26.982 1 233 33.7233 0.613572 4.3878 -1.39614 -5.00408 4.32831 0.0277377 0.0138898 0.504006 0 0 0 0 0 0 0 0 0 
26.982 1 73 33.7538 4.33823 0.538314 -4.77949 8.67398 -0.118945 -0.160717 0.555541 -0.0788748 0 0 0 0 0 0 0 0 0 
26.982 1 75 35.6479 4.52433 2.65936 -0.543632 -1.65745 1.6095 0.426823 -0.0419246 -0.282056 0 0 0 0 0 0 0 0 0 
26.982 1 234 35.8489 2.68287 4.68042 -3.14821 -4.01841 -1.9219 -0.170733 -0.589832 -0.99826 0 0 0 0 0 0 0 0 0 
26.982 1 77 38.0789 4.63937 0.597 0.99403 -1.80301 2.21854 -0.17552 -0.0732237 -0.318944 0 0 0 0 0 0 0 0 0 
26.982 1 277 38.0109 4.43694 4.48532 -1.02721 2.93688 -5.93472 -0.0515613 0.414604 -0.0493365 0 0 0 0 0 0 0 0 0 
26.982 1 34 36.0516 2.56224 0.502182 1.19663 -2.05836 -1.11693 -0.583296 0.452853 0.116816 0 0 0 0 0 0 0 0 0 
26.982 1 40 37.8537 2.53795 2.54009 -0.0992838 -3.66113 0.994844 0.366526 0.0836326 0.0592466 0 0 0 0 0 0 0 0 0 
26.982 1 237 38.1053 0.739079 4.66354 0.839857 1.40434 0.688904 -0.0185353 -0.414757 -0.349304 0 0 0 0 0 0 0 0 0 
26.982 1 79 40.1311 4.67438 2.31884 1.11907 2.88532 4.8424 0.321643 0.0601357 0.686019 0 0 0 0 0 0 0 0 0 
26.982 1 238 40.1528 2.67444 4.27905 -0.741611 -2.00588 6.25784 0.355369 -0.152703 0.140278 0 0 0 0 0 0 0 0 0 
26.982 1 38 40.4097 2.54113 0.636475 0.103748 1.05038 -2.25463 -0.117899 -0.351536 0.056391 0 0 0 0 0 0 0 0 0 
26.982 1 83 0.0314858 8.32811 2.73642 -0.953447 2.02867 2.29166 0.628173 0.440022 -0.561616 0 0 0 0 0 0 0 0 0 
26.982 1 242 0.0387482 6.44312 4.6179 -0.283721 3.36777 -3.5089 0.338264 -0.554226 -0.520147 0 0 0 0 0 0 0 0 0 
26.982 1 84 -1.96503 10.4468 2.32753 -0.583846 -1.59824 4.09771 -0.112583 -0.214516 0.328102 0 0 0 0 0 0 0 0 0 
26.982 1 281 -2.19072 8.53789 4.46214 5.93554 -1.02456 2.66899 0.227755 -0.154505 -0.0493692 0 0 0 0 0 0 0 0 0 
26.982 1 44 -2.04613 6.53445 2.53374 3.38237 -3.3664 -1.35041 -0.381672 -0.38902 0.138888 0 0 0 0 0 0 0 0 0 
26.982 1 42 0.156299 6.53434 0.642603 -1.70966 -0.00979622 -6.29586 0.188497 0.124476 -0.380094 0 0 0 0 0 0 0 0 0 
26.982 1 285 2.62221 8.33486 4.5476 -4.11099 -3.08756 2.42028 -0.55881 -0.269782 0.0231318 0 0 0 0 0 0 0 0 0 
26.982 1 85 2.39453 8.45689 0.635415 2.15613 -4.5473 -0.176468 -0.0738996 -0.302703 -0.155773 0 0 0 0 0 0 0 0 0 
26.982 1 48 2.46968 6.27872 2.57903 6.28444 -1.55278 0.618211 -0.107389 0.655685 -0.0734893 0 0 0 0 0 0 0 0 0 
26.982 1 87 4.75504 8.43771 2.73213 -1.71727 2.87717 -3.374 0.136474 -0.228554 -0.556674 0 0 0 0 0 0 0 0 0 
26.982 1 246 4.72983 6.42762 4.5238 -4.43401 -2.72532 -0.080263 0.148582 -0.294752 0.179655 0 0 0 0 0 0 0 0 0 
26.982 1 88 2.46782 10.184 2.69637 -1.28329 -5.00448 0.944478 -0.197 0.562085 -0.610637 0 0 0 0 0 0 0 0 0 
26.982 1 46 4.82335 6.46023 0.635635 -0.713773 -0.312054 0.718316 -0.13587 0.312751 0.0589413 0 0 0 0 0 0 0 0 0 
26.982 1 289 7.05227 8.55941 4.66865 1.31024 0.61426 -0.138539 0.143361 -0.236856 -0.370695 0 0 0 0 0 0 0 0 0 
26.982 1 89 6.98638 8.44608 0.710713 -0.929406 3.6754 8.0481 0.00197791 0.390556 -0.410541 0 0 0 0 0 0 0 0 0 
26.982 1 52 6.99843 6.57148 2.62433 0.53658 1.02062 -3.95754 -0.0560293 -0.474127 0.022501 0 0 0 0 0 0 0 0 0 
26.982 1 91 9.20352 8.29635 2.55189 1.03008 -0.826473 0.256517 0.143493 0.543576 0.297313 0 0 0 0 0 0 0 0 0 
26.982 1 250 9.17475 6.39134 4.70266 -3.53309 -1.58534 -0.850605 -0.0235897 0.409431 -0.196143 0 0 0 0 0 0 0 0 0 
26.982 1 290 9.14745 10.4913 4.46972 -0.303764 -1.42177 -0.0475312 0.427163 -0.291336 0.100412 0 0 0 0 0 0 0 0 0 
26.982 1 90 9.19701 10.5345 0.536285 -0.650693 2.8796 -6.53107 -0.459284 -0.540499 0.439426 0 0 0 0 0 0 0 0 0 
26.982 1 293 11.594 8.46704 4.52588 -0.681813 0.4403 -1.0219 -0.451912 -0.154867 0.228363 0 0 0 0 0 0 0 0 0 
26.982 1 56 11.4713 6.47969 2.60959 1.76844 3.52917 -0.817042 0.193751 0.0663961 -0.339608 0 0 0 0 0 0 0 0 0 
26.982 1 95 13.6922 8.59743 2.51246 3.6316 9.43912 2.60207 -0.116663 -0.762183 -0.329279 0 0 0 0 0 0 0 0 0 
26.982 1 254 13.7146 6.39116 4.49757 -3.00318 3.45513 0.553779 -0.212199 0.434081 0.0463347 0 0 0 0 0 0 0 0 0 
26.982 1 294 13.5357 10.3833 4.405 -4.68592 -1.47725 0.542407 0.259915 0.382943 0.627161 0 0 0 0 0 0 0 0 0 
26.982 1 100 15.956 10.3016 2.45311 3.30846 -0.660432 -0.731729 -0.0988406 0.111727 -0.0648318 0 0 0 0 0 0 0 0 0 
26.982 1 93 11.3121 8.44769 0.550379 1.383 -0.421132 0.700366 0.202042 0.0518668 0.069886 0 0 0 0 0 0 0 0 0 
26.982 1 60 15.8303 6.48289 2.56094 -6.37448 -0.771227 0.581526 -0.129212 0.0176969 -0.109971 0 0 0 0 0 0 0 0 0 
26.982 1 297 15.9615 8.53446 4.4935 0.645826 4.78468 -0.318317 -0.493303 -0.185447 0.104591 0 0 0 0 0 0 0 0 0 
26.982 1 99 18.1422 8.57157 2.61068 -1.06202 3.90615 -1.48277 -0.0372841 -0.121456 -0.563236 0 0 0 0 0 0 0 0 0 
26.982 1 258 17.8809 6.59189 4.3612 -1.24052 -0.198011 0.36456 0.514918 -0.765728 0.5079 0 0 0 0 0 0 0 0 0 
26.982 1 64 19.9811 6.48277 2.20767 -0.729736 -2.90973 6.38527 0.500916 0.0271799 0.752279 0 0 0 0 0 0 0 0 0 
26.982 1 104 20.3816 10.5597 2.43994 -5.47192 2.44538 3.57269 -0.144412 -0.585991 0.275474 0 0 0 0 0 0 0 0 0 
26.982 1 301 20.1336 8.44292 4.48661 4.30125 -0.994213 -1.02773 0.434173 0.0789815 -0.153151 0 0 0 0 0 0 0 0 0 
26.982 1 103 22.414 8.51367 2.51207 0.124381 -0.098956 3.82747 0.2868 -0.619454 -0.0675766 0 0 0 0 0 0 0 0 0 
26.982 1 262 22.4385 6.68671 4.57178 1.06854 -3.34075 -1.53628 0.0952374 -0.153904 0.0306909 0 0 0 0 0 0 0 0 0 
26.982 1 105 24.7993 8.42982 0.571982 1.03923 -0.546325 -0.451747 -0.415109 -0.124558 -0.0637 0 0 0 0 0 0 0 0 0 
26.982 1 305 24.6492 8.47887 4.51876 -0.376412 -0.58914 -3.27082 0.0571877 0.152265 0.180583 0 0 0 0 0 0 0 0 0 
26.982 1 68 24.7124 6.55414 2.61996 -1.71697 0.833512 2.81646 -0.24568 -0.0845132 -0.072163 0 0 0 0 0 0 0 0 0 
26.982 1 107 27.0378 8.56383 2.60121 3.80827 -3.80959 -2.88601 -0.129479 -0.323313 0.20615 0 0 0 0 0 0 0 0 0 
26.982 1 266 26.933 6.54015 4.59988 -5.14218 -0.307145 -2.11529 0.191559 -0.391565 -0.351548 0 0 0 0 0 0 0 0 0 
26.982 1 306 26.7762 10.3475 4.69713 -0.956145 -1.25892 -1.93739 0.440318 0.274853 -0.34322 0 0 0 0 0 0 0 0 0 
26.982 1 72 29.0701 6.68602 2.53689 2.523 1.06535 3.05355 0.021782 -0.416859 -0.209543 0 0 0 0 0 0 0 0 0 
26.982 1 309 29.1688 8.46198 4.70525 2.55065 4.4947 -2.39508 -0.128297 0.223208 0.0573018 0 0 0 0 0 0 0 0 0 
26.982 1 112 29.3722 10.3155 2.64225 0.326348 -7.1782 -0.154625 -0.944784 0.261978 -0.287373 0 0 0 0 0 0 0 0 0 
26.982 1 111 31.3235 8.49575 2.71041 -3.62399 -4.12264 -1.88693 0.58769 -0.0541836 -0.168863 0 0 0 0 0 0 0 0 0 
26.982 1 270 31.2431 6.47278 4.45375 1.06773 -2.67491 -3.63606 0.738121 0.203927 0.132097 0 0 0 0 0 0 0 0 0 
26.982 1 110 31.5408 10.4292 0.631525 4.13472 1.67249 1.15694 -0.168623 0.142934 -0.170833 0 0 0 0 0 0 0 0 0 
26.982 1 313 33.6587 8.50791 4.43266 5.28297 5.4449 1.78457 -0.241912 -0.286468 0.536237 0 0 0 0 0 0 0 0 0 
26.982 1 76 33.7157 6.59028 2.48238 0.980927 3.34567 -3.26683 -0.409884 -0.282792 0.0418681 0 0 0 0 0 0 0 0 0 
26.982 1 116 33.6262 10.3707 2.6184 0.534216 3.93466 -6.22898 0.0115898 0.361222 -0.123286 0 0 0 0 0 0 0 0 0 
26.982 1 115 35.9069 8.45923 2.46812 2.2925 -0.875238 -0.739476 0.0100018 0.522397 0.335762 0 0 0 0 0 0 0 0 0 
26.982 1 274 35.8232 6.63148 4.54666 3.71527 -3.33935 -1.85644 -0.290753 -0.346557 -0.248846 0 0 0 0 0 0 0 0 0 
26.982 1 314 35.8614 10.4558 4.55081 1.97107 -1.71692 5.2325 -0.0930789 -0.135402 -0.486115 0 0 0 0 0 0 0 0 0 
26.982 1 80 37.9724 6.55998 2.554 1.24551 2.20465 0.128822 0.157483 -0.0642671 -0.0290795 0 0 0 0 0 0 0 0 0 
26.982 1 117 38.0938 8.51249 0.384516 1.97125 -0.84677 1.41748 0.0701145 -0.074505 0.474101 0 0 0 0 0 0 0 0 0 
26.982 1 114 35.927 10.2944 0.49958 -4.85067 0.748939 -0.562919 -0.0145122 0.135628 -0.0661459 0 0 0 0 0 0 0 0 0 
26.982 1 317 38.0272 8.53656 4.47446 -0.706647 -3.66165 5.19342 0.0766177 0.687592 -0.333163 0 0 0 0 0 0 0 0 0 
26.982 1 119 40.3015 8.48136 2.44171 -0.803194 -2.25379 0.477884 -0.0721836 -0.00409026 -0.123318 0 0 0 0 0 0 0 0 0 
26.982 1 278 40.0704 6.60874 4.50691 1.1962 -0.173747 -2.45234 0.570335 -0.349957 -0.247813 0 0 0 0 0 0 0 0 0 
26.982 1 118 40.364 10.6648 0.5692 -0.729391 -0.74749 0.97488 -0.207387 -0.360568 -0.027578 0 0 0 0 0 0 0 0 0 
26.982 1 81 42.5737 8.34051 0.459201 -0.137702 0.427793 -3.00386 0.233455 0.804482 0.511858 0 0 0 0 0 0 0 0 0 
26.982 1 282 0.229328 10.4472 4.43609 1.59738 -4.37257 -0.239887 -0.254336 -0.131466 0.36486 0 0 0 0 0 0 0 0 0 
26.982 1 123 0.143756 12.3793 2.50218 4.31547 1.83678 -2.79805 0.42989 0.103772 -0.175436 0 0 0 0 0 0 0 0 0 
26.982 1 322 0.42586 14.4637 4.51033 2.56905 3.48732 2.156 -0.339441 -0.480872 -0.281031 0 0 0 0 0 0 0 0 0 
26.982 1 124 -1.88679 14.3626 2.321 -0.574319 0.286928 -2.99298 -0.430671 -0.100456 1.05978 0 0 0 0 0 0 0 0 0 
26.982 1 325 2.46316 12.2985 4.37649 2.01119 -2.7168 0.0148091 0.00203974 0.463338 -4.75304e-05 0 0 0 0 0 0 0 0 0 
26.982 1 82 0.103432 10.4523 0.445422 1.45353 2.95765 0.807362 0.404467 -0.207025 0.0386321 0 0 0 0 0 0 0 0 0 
26.982 1 86 4.70002 10.3536 0.692312 0.0506004 -0.15889 1.71837 0.0345511 -0.0958112 -0.0935462 0 0 0 0 0 0 0 0 0 
26.982 1 126 4.60588 14.3183 0.464222 -1.1465 -5.85015 -1.76102 0.299719 -0.0199439 0.143272 0 0 0 0 0 0 0 0 0 
26.982 1 128 2.36829 14.3288 2.40194 2.20486 2.00115 0.328736 0.282395 0.0996626 0.26244 0 0 0 0 0 0 0 0 0 
26.982 1 286 4.71377 10.4573 4.43282 -3.04832 3.90243 1.33027 0.124658 0.391297 0.387237 0 0 0 0 0 0 0 0 0 
26.982 1 127 4.71274 12.3827 2.43918 -4.04486 -2.3044 -3.16263 -0.0684343 0.279062 0.486583 0 0 0 0 0 0 0 0 0 
26.982 1 326 4.68146 14.467 4.55621 -1.97776 4.84472 4.54321 -0.0227837 -0.0128656 -0.480609 0 0 0 0 0 0 0 0 0 
26.982 1 329 6.9932 12.3314 4.58859 0.894173 1.92344 0.906968 -0.221331 0.327325 0.0472294 0 0 0 0 0 0 0 0 0 
26.982 1 132 6.89179 14.3017 2.63133 -1.55709 -0.589569 -1.90339 0.0132096 0.013848 -0.292089 0 0 0 0 0 0 0 0 0 
26.982 1 129 6.80981 12.3076 0.478247 -4.47959 -2.10413 -2.2682 0.306554 0.316765 -0.165443 0 0 0 0 0 0 0 0 0 
26.982 1 92 7.00518 10.524 2.64765 -1.54577 -0.0849155 -3.2423 -0.0561816 -0.32056 -0.552549 0 0 0 0 0 0 0 0 0 
26.982 1 131 9.2173 12.529 2.52073 -0.706036 -2.90404 2.34019 -0.099713 -0.123541 -0.0287502 0 0 0 0 0 0 0 0 0 
26.982 1 330 9.27429 14.4001 4.5966 1.48641 3.61125 3.42055 -0.0932995 -0.150734 -0.610496 0 0 0 0 0 0 0 0 0 
26.982 1 130 9.0068 14.3011 0.359405 1.9251 4.35775 -5.42612 -0.198349 -0.331213 0.553942 0 0 0 0 0 0 0 0 0 
26.982 1 96 11.3098 10.443 2.52359 0.00248498 -2.38764 -0.221423 0.00151717 0.111128 0.0820516 0 0 0 0 0 0 0 0 0 
26.982 1 133 11.3412 12.334 0.368686 -2.06775 0.823306 -6.57239 0.425221 0.104841 1.27386 0 0 0 0 0 0 0 0 0 
26.982 1 137 15.9223 12.266 0.615614 0.0752454 -1.12082 -2.04002 -0.0295388 0.057338 -0.485101 0 0 0 0 0 0 0 0 0 
26.982 1 333 11.5347 12.578 4.43103 -2.25985 -3.65136 0.595528 -0.260152 -0.829616 0.124092 0 0 0 0 0 0 0 0 0 
26.982 1 136 11.4396 14.2566 2.34142 0.879267 -2.9635 1.35778 0.0663242 0.477925 0.108844 0 0 0 0 0 0 0 0 0 
26.982 1 135 13.789 12.25 2.44089 0.399713 0.996773 2.35465 -0.177082 0.117346 0.35057 0 0 0 0 0 0 0 0 0 
26.982 1 334 13.7547 14.1575 4.45594 -2.46216 1.01919 -3.00901 -0.087934 0.598483 -0.139333 0 0 0 0 0 0 0 0 0 
26.982 1 337 15.946 12.1391 4.4825 1.3217 -3.59056 1.01251 -0.200237 0.332394 -0.224174 0 0 0 0 0 0 0 0 0 
26.982 1 298 18.1026 10.4486 4.59609 -2.91021 -3.25007 -0.112271 0.0378897 -0.173247 0.168782 0 0 0 0 0 0 0 0 0 
26.982 1 140 16.0391 14.2546 2.52034 -2.56074 -9.37184 1.30732 -0.392228 0.237338 0.144055 0 0 0 0 0 0 0 0 0 
26.982 1 139 18.2207 12.2854 2.60923 -5.73823 1.97561 -0.26262 -0.414637 0.323636 -0.14016 0 0 0 0 0 0 0 0 0 
26.982 1 338 18.0272 14.5523 4.37925 5.09151 0.340083 1.37348 0.468414 -0.435038 0.122299 0 0 0 0 0 0 0 0 0 
26.982 1 302 22.4961 10.365 4.35785 1.47073 1.89765 5.21807 -0.100403 0.365412 0.549685 0 0 0 0 0 0 0 0 0 
26.982 1 142 22.6767 14.2993 0.488189 0.441053 -1.13671 -1.02101 -0.421447 0.248094 0.0542334 0 0 0 0 0 0 0 0 0 
26.982 1 341 20.2918 12.2053 4.53685 0.570997 0.859464 5.77794 0.219804 0.716699 0.019321 0 0 0 0 0 0 0 0 0 
26.982 1 144 20.2403 14.453 2.46357 -2.86605 -1.55062 0.261121 0.144313 -0.357805 0.275735 0 0 0 0 0 0 0 0 0 
26.982 1 143 22.5919 12.4769 2.49638 -3.65359 -1.14447 5.74428 -0.10384 -0.0615266 0.10109 0 0 0 0 0 0 0 0 0 
26.982 1 342 22.5818 14.4139 4.4386 1.81875 -0.111634 3.70418 -0.188818 -0.109953 -0.163622 0 0 0 0 0 0 0 0 0 
26.982 1 148 24.8432 14.2958 2.34238 -0.441984 -4.80814 -0.817992 -0.172375 0.433612 0.589528 0 0 0 0 0 0 0 0 0 
26.982 1 345 24.8552 12.4194 4.37487 2.16184 1.90769 1.10213 -0.251229 0.359404 0.0964428 0 0 0 0 0 0 0 0 0 
26.982 1 108 24.711 10.4201 2.52498 0.612615 2.42995 1.54959 -0.0732281 -0.172558 0.012558 0 0 0 0 0 0 0 0 0 
26.982 1 147 26.8867 12.269 2.35182 -2.16744 -3.22876 -4.08859 0.500588 -0.00814683 0.671985 0 0 0 0 0 0 0 0 0 
26.982 1 346 27.0211 14.4211 4.31695 3.96743 0.683433 -1.77233 -0.175763 0.12326 0.0396258 0 0 0 0 0 0 0 0 0 
26.982 1 152 29.2425 14.3424 2.61964 -2.56333 2.4206 5.26865 -0.0270495 -0.253032 -0.565319 0 0 0 0 0 0 0 0 0 
26.982 1 149 29.2201 12.2761 0.630411 2.53247 -1.15381 -3.97464 -0.0173951 0.159694 -0.0936863 0 0 0 0 0 0 0 0 0 
26.982 1 310 31.2055 10.5668 4.59445 -1.0298 0.0237449 1.67853 0.574207 -0.14826 0.517775 0 0 0 0 0 0 0 0 0 
26.982 1 349 29.0147 12.4457 4.44551 1.05929 0.552384 0.420186 0.303232 -0.175434 0.0901316 0 0 0 0 0 0 0 0 0 
26.982 1 151 31.3844 12.3216 2.6484 -0.142707 3.76751 2.96832 0.253883 0.415123 -0.498861 0 0 0 0 0 0 0 0 0 
26.982 1 350 31.6066 14.3007 4.49021 -1.19873 -1.01635 2.70446 -0.298332 0.210017 -0.125706 0 0 0 0 0 0 0 0 0 
26.982 1 353 33.7107 12.4849 4.46184 -3.86346 -2.96943 3.58569 -0.17329 -0.321599 -0.0170546 0 0 0 0 0 0 0 0 0 
26.982 1 150 31.3619 14.3404 0.580798 -0.54899 -3.21099 2.4096 0.026479 -0.395168 -0.398286 0 0 0 0 0 0 0 0 0 
26.982 1 156 33.6284 14.4317 2.33796 0.786266 1.57058 -3.37904 0.097751 -0.078164 0.270331 0 0 0 0 0 0 0 0 0 
26.982 1 155 35.8601 12.2716 2.43281 0.654791 -4.71166 1.82392 0.288427 0.298925 0.335923 0 0 0 0 0 0 0 0 0 
26.982 1 354 35.7141 14.4403 4.30781 0.549708 -0.303681 -1.39361 0.448902 0.0579645 0.43361 0 0 0 0 0 0 0 0 0 
26.982 1 153 33.781 12.3084 0.661832 -1.10378 -3.41375 -1.71371 -0.421905 0.0635045 -0.402276 0 0 0 0 0 0 0 0 0 
26.982 1 318 40.3532 10.5213 4.3541 -1.48755 -2.06932 -0.548454 -0.0374865 0.0242258 0.393547 0 0 0 0 0 0 0 0 0 
26.982 1 321 42.5724 12.5133 4.3498 -0.468891 0.205069 -1.94858 0.274335 0.0763625 0.563353 0 0 0 0 0 0 0 0 0 
26.982 1 357 38.1383 12.3885 4.48362 -0.159001 0.641212 4.89504 -0.135121 0.337909 0.153897 0 0 0 0 0 0 0 0 0 
26.982 1 120 38.2594 10.546 2.51333 0.085642 2.48173 -4.26924 -0.482169 -0.374371 -0.197369 0 0 0 0 0 0 0 0 0 
26.982 1 160 38.1028 14.4422 2.54621 2.04603 3.39977 4.10471 -0.265365 -0.429913 0.375263 0 0 0 0 0 0 0 0 0 
26.982 1 159 40.4743 12.4557 2.53841 0.0466294 0.876282 6.95895 -0.311599 0.333472 -0.0791375 0 0 0 0 0 0 0 0 0 
26.982 1 358 40.4057 14.3747 4.54252 6.49686 -7.0281 -7.32088 -0.407687 -0.199203 -0.0947011 0 0 0 0 0 0 0 0 0 
26.982 1 163 0.119546 16.2198 2.43516 -0.206504 2.4771 -0.221596 0.427926 0.590945 0.588277 0 0 0 0 0 0 0 0 0 
26.982 1 362 0.300846 18.2266 4.48284 -1.57718 2.58653 -1.20032 -0.0625112 -0.0684462 -0.456869 0 0 0 0 0 0 0 0 0 
26.982 1 365 2.49196 16.4145 4.38389 2.66199 -0.0649548 2.03623 0.206727 -0.361821 0.381854 0 0 0 0 0 0 0 0 0 
26.982 1 361 -2.0642 16.0403 4.52685 -0.148496 -1.52726 -3.1566 0.376504 0.56301 -0.385685 0 0 0 0 0 0 0 0 0 
26.982 1 168 2.52455 18.3395 2.58864 4.07382 -3.58545 -2.992 -0.505405 -0.144605 -0.582862 0 0 0 0 0 0 0 0 0 
26.982 1 2003 0.309859 20.346 2.45118 2.12294 0.225076 2.1125 -0.0873398 -0.480257 0.339866 0 0 0 0 0 0 0 0 0 
26.982 1 165 2.53076 16.3146 0.444274 2.04985 -1.96787 1.82077 -0.170693 0.319028 0.336286 0 0 0 0 0 0 0 0 0 
26.982 1 162 0.0622904 18.1374 0.536212 0.732225 1.69327 4.06891 0.447572 0.0827316 -0.0438337 0 0 0 0 0 0 0 0 0 
26.982 1 166 4.69524 18.2425 0.541007 4.68858 -1.17651 1.67513 -0.0832163 0.262222 -0.707959 0 0 0 0 0 0 0 0 0 
26.982 1 167 4.73221 16.4145 2.50426 -1.13661 -3.32622 -0.517246 -0.129592 -0.473032 0.265331 0 0 0 0 0 0 0 0 0 
26.982 1 366 4.8174 18.3862 4.60145 -7.90741 4.13439 1.29662 -0.171365 0.0527821 -0.394346 0 0 0 0 0 0 0 0 0 
26.982 1 369 7.11049 16.2862 4.55344 1.48697 0.50237 -0.440378 -0.349063 0.321148 -0.296311 0 0 0 0 0 0 0 0 0 
26.982 1 172 6.82623 18.3088 2.49058 -1.89873 -4.36462 -1.57174 0.320148 -0.182249 0.173286 0 0 0 0 0 0 0 0 0 
26.982 1 169 6.93038 16.2489 0.614597 -1.66697 0.996135 -0.120711 -0.175996 -0.183714 -0.077843 0 0 0 0 0 0 0 0 0 
26.982 1 171 9.27798 16.1946 2.49185 5.88987 2.51116 -1.14582 -0.168828 -0.264507 -0.0143677 0 0 0 0 0 0 0 0 0 
26.982 1 370 9.32026 18.0531 4.44607 0.118817 -1.16623 3.95536 -0.0878299 0.530713 0.353173 0 0 0 0 0 0 0 0 0 
26.982 1 176 11.3864 18.3003 2.5446 -1.38101 -2.89171 0.392868 -0.00185917 -0.33727 0.0409278 0 0 0 0 0 0 0 0 0 
26.982 1 170 9.14476 18.1327 0.588784 2.07115 0.00119262 -5.5763 -0.198866 0.745356 0.256382 0 0 0 0 0 0 0 0 0 
26.982 1 173 11.2399 16.3209 0.410863 -0.66178 1.44566 -1.37905 0.534316 -0.241309 0.294225 0 0 0 0 0 0 0 0 0 
26.982 1 373 11.547 16.3167 4.53982 -3.94066 -4.70864 -2.60627 0.015565 -0.498018 0.00203335 0 0 0 0 0 0 0 0 0 
26.982 1 175 13.7454 16.3025 2.51285 0.470098 1.57757 -1.26195 0.00423907 -0.122061 0.0655721 0 0 0 0 0 0 0 0 0 
26.982 1 374 13.6342 18.1846 4.6121 -2.49396 2.13489 -6.72933 0.0383147 -0.12899 0.0262124 0 0 0 0 0 0 0 0 0 
26.982 1 180 15.9446 18.3324 2.43356 -0.630895 -3.26048 3.88426 -0.684492 0.0169919 -0.422013 0 0 0 0 0 0 0 0 0 
26.982 1 174 13.3173 18.2094 0.573196 -1.24452 -2.09269 -4.67496 0.697914 0.0371986 -0.144039 0 0 0 0 0 0 0 0 0 
26.982 1 377 16.0076 16.4573 4.47575 3.64627 2.80208 -0.388556 -0.375998 -0.232486 -0.0371708 0 0 0 0 0 0 0 0 0 
26.982 1 178 18.1623 18.3863 0.581226 -0.269458 2.24133 -3.8442 -0.348238 -0.0264017 -0.295903 0 0 0 0 0 0 0 0 0 
26.982 1 179 18.0138 16.5424 2.44916 -2.17775 2.87615 -1.18735 0.24997 -0.725053 -0.0990504 0 0 0 0 0 0 0 0 0 
26.982 1 378 18.0411 18.5603 4.31223 2.61267 -5.52638 4.42969 0.10791 -0.539147 0.326869 0 0 0 0 0 0 0 0 0 
26.982 1 184 20.3199 18.4258 2.36774 -0.405108 0.503277 -2.09327 0.261018 -0.527576 0.263615 0 0 0 0 0 0 0 0 0 
26.982 1 2221 20.3073 20.2199 4.34382 -6.05858 0.214419 -2.43846 -0.0562496 0.444606 0.278864 0 0 0 0 0 0 0 0 0 
26.982 1 181 20.2608 16.2824 0.509185 1.8964 -1.81597 -2.06524 0.329568 0.237371 0.15984 0 0 0 0 0 0 0 0 0 
26.982 1 381 20.2917 16.3267 4.24437 -6.7357 1.83674 3.26298 0.0688545 0.569424 0.821358 0 0 0 0 0 0 0 0 0 
26.982 1 183 22.5662 16.2776 2.49718 -2.06939 3.69585 -4.40144 -0.0774727 0.345403 -0.36385 0 0 0 0 0 0 0 0 0 
26.982 1 382 22.4831 18.4773 4.37775 -1.58243 5.93651 -3.99248 0.00470101 -0.576169 0.43365 0 0 0 0 0 0 0 0 0 
26.982 1 385 24.7482 16.3863 4.38408 0.7925 2.50457 0.908833 0.201929 -0.13163 0.15351 0 0 0 0 0 0 0 0 0 
26.982 1 188 24.7465 18.2117 2.47068 4.43732 -1.49999 -1.37623 0.0849413 0.224264 0.0545293 0 0 0 0 0 0 0 0 0 
26.982 1 185 24.7185 16.3599 0.475149 -3.75224 4.27205 2.66142 -0.0292602 0.0558269 0.031127 0 0 0 0 0 0 0 0 0 
26.982 1 187 27.0672 16.3569 2.43845 2.88772 -1.12742 0.866185 -0.185476 -0.0834214 0.142901 0 0 0 0 0 0 0 0 0 
26.982 1 386 26.9199 18.3035 4.46644 -2.71953 4.29035 3.61829 0.0770829 0.153779 0.000399119 0 0 0 0 0 0 0 0 0 
26.982 1 192 29.2915 18.4423 2.50424 -2.44279 4.92667 -0.462055 -0.155984 -0.417606 0.631507 0 0 0 0 0 0 0 0 0 
26.982 1 389 29.4716 16.2897 4.3992 -6.87854 1.61721 2.67726 -0.503254 0.584171 0.190798 0 0 0 0 0 0 0 0 0 
26.982 1 2027 27.1249 20.3054 2.57101 -1.21989 0.596213 4.98316 -0.332139 -0.195529 0.170837 0 0 0 0 0 0 0 0 0 
26.982 1 189 29.2215 16.3158 0.747799 2.78978 -2.38631 3.6483 -0.0887393 0.029431 -0.62397 0 0 0 0 0 0 0 0 0 
26.982 1 186 26.9918 18.347 0.613459 -1.95324 -0.34381 4.4157 0.215817 0.248838 0.000288634 0 0 0 0 0 0 0 0 0 
26.982 1 2229 29.0789 20.2058 4.72946 2.23443 -2.59496 -1.42099 0.431501 -0.0398925 -0.144142 0 0 0 0 0 0 0 0 0 
26.982 1 191 31.5102 16.2108 2.53751 -0.815716 0.383209 0.485714 0.0438616 0.544803 0.0570426 0 0 0 0 0 0 0 0 0 
26.982 1 390 31.5535 18.4521 4.56352 -4.58104 2.81818 3.24567 -0.500358 -0.0971972 -0.35637 0 0 0 0 0 0 0 0 0 
26.982 1 190 31.2811 18.1998 0.562394 0.680185 -0.256437 0.760268 0.372382 0.11003 -0.264232 0 0 0 0 0 0 0 0 0 
26.982 1 2031 31.5192 20.2392 2.45836 -1.21867 -2.48199 -0.491887 -0.140515 -0.0152028 -0.150997 0 0 0 0 0 0 0 0 0 
26.982 1 196 33.5568 18.3431 2.53634 -0.434069 0.963479 1.70934 0.288163 -0.0429411 -0.388693 0 0 0 0 0 0 0 0 0 
26.982 1 193 33.6562 16.47 0.459859 1.74684 1.1625 0.787753 -0.0378242 -0.254011 0.131415 0 0 0 0 0 0 0 0 0 
26.982 1 393 33.5952 16.4205 4.52456 2.82092 3.35789 -7.20749 0.262807 -0.521254 -0.315942 0 0 0 0 0 0 0 0 0 
26.982 1 195 35.8435 16.4455 2.45205 -0.0304921 4.93217 3.51401 -0.168471 -0.0672785 -0.13345 0 0 0 0 0 0 0 0 0 
26.982 1 394 35.778 18.2102 4.52954 5.65714 5.37579 -6.11851 0.692006 0.211889 -0.149978 0 0 0 0 0 0 0 0 0 
26.982 1 397 38.0982 16.3968 4.49502 -1.48087 0.624112 3.52741 -0.395219 -0.305229 0.331732 0 0 0 0 0 0 0 0 0 
26.982 1 200 37.9754 18.3581 2.54207 3.67731 2.42921 0.77574 -0.0872866 -0.151713 -0.25172 0 0 0 0 0 0 0 0 0 
26.982 1 2035 35.9453 20.3109 2.53507 -0.683049 0.609574 2.08807 -0.141308 -0.0439069 -0.154499 0 0 0 0 0 0 0 0 0 
26.982 1 2233 33.8783 20.2411 4.51849 3.71257 -1.58682 0.995639 -0.435526 -0.0150337 0.110297 0 0 0 0 0 0 0 0 0 
26.982 1 2033 33.6562 20.3978 0.496782 -0.435951 6.90586 -3.53061 0.13684 -0.609306 0.304438 0 0 0 0 0 0 0 0 0 
26.982 1 194 35.9053 18.5052 0.39288 -3.73514 -2.5583 -3.81256 -0.39393 -0.372891 0.735507 0 0 0 0 0 0 0 0 0 
26.982 1 164 42.7679 18.2947 2.53161 -0.492344 0.234155 -5.42714 -0.588998 -0.53635 0.172041 0 0 0 0 0 0 0 0 0 
26.982 1 2237 38.1442 20.2496 4.42289 -0.931408 -1.95035 -3.78512 -0.281074 0.332763 0.56946 0 0 0 0 0 0 0 0 0 
26.982 1 199 40.1661 16.3744 2.60813 0.378035 1.3483 4.03843 0.482813 -0.352094 -0.512901 0 0 0 0 0 0 0 0 0 
26.982 1 398 40.2921 18.2687 4.33874 -1.196 4.87643 2.64648 0.360895 0.49049 0.265526 0 0 0 0 0 0 0 0 0 
26.982 1 198 40.0713 18.3737 0.680134 2.11656 3.54357 -2.5198 0.643735 -0.321176 -0.457766 0 0 0 0 0 0 0 0 0 
26.982 1 2037 38.1504 20.4496 0.540608 -0.44283 -4.61651 1.98065 -0.307201 -0.462702 -0.209262 0 0 0 0 0 0 0 0 0 
26.982 1 243 0.104705 4.45958 6.47683 -4.01748 -1.8104 2.58824 0.376296 0.357672 -0.370119 0 0 0 0 0 0 0 0 0 
26.982 1 402 0.133711 2.67295 8.36262 1.02079 2.5432 -1.56897 0.0811969 -0.472417 0.505657 0 0 0 0 0 0 0 0 0 
26.982 1 204 -2.03403 2.54998 6.38919 -6.39767 5.0134 3.40559 -0.316945 0.216312 -0.0224836 0 0 0 0 0 0 0 0 0 
26.982 1 445 2.48525 4.40168 8.3255 0.207319 -3.35719 -1.48251 0.0181265 -0.0362587 -0.0443311 0 0 0 0 0 0 0 0 0 
26.982 1 408 2.31095 2.46629 10.4038 1.31579 2.5828 -6.96225 0.360308 -0.0244478 -0.336858 0 0 0 0 0 0 0 0 0 
26.982 1 208 2.51595 2.26864 6.18286 2.82446 -2.25644 1.43407 -0.197806 0.656556 0.40481 0 0 0 0 0 0 0 0 0 
26.982 1 207 4.75183 0.414145 6.44362 -4.38811 -6.82896 -0.402125 0.00601357 0.226183 0.0807385 0 0 0 0 0 0 0 0 0 
26.982 1 247 4.83408 4.35324 6.56972 -0.846068 4.26319 2.0632 -0.160826 0.339811 -0.0870186 0 0 0 0 0 0 0 0 0 
26.982 1 406 4.63276 2.38967 8.50151 2.76229 -1.64384 -2.88946 0.218875 0.590805 -0.470525 0 0 0 0 0 0 0 0 0 
26.982 1 407 4.63898 0.505702 10.2564 2.36896 0.387252 -6.5881 0.144951 -0.107773 0.632739 0 0 0 0 0 0 0 0 0 
26.982 1 447 4.62942 4.4201 10.4555 -1.23968 1.7583 5.16963 -0.139613 -0.0370826 -0.271807 0 0 0 0 0 0 0 0 0 
26.982 1 449 6.897 4.55489 8.58559 3.98576 -2.84528 0.601474 0.116906 -0.0517862 -0.343014 0 0 0 0 0 0 0 0 0 
26.982 1 212 6.91163 2.36229 6.42207 -3.20095 -1.05048 -1.9632 0.22933 0.456685 0.27323 0 0 0 0 0 0 0 0 0 
26.982 1 251 9.12824 4.42953 6.6643 0.673663 -3.63338 1.48052 0.0238103 -0.170706 -0.15243 0 0 0 0 0 0 0 0 0 
26.982 1 410 9.18262 2.33389 8.49041 -0.221198 -2.10402 -0.54664 -0.0654232 0.766783 -0.0945524 0 0 0 0 0 0 0 0 0 
26.982 1 453 11.4352 4.50877 8.4579 -0.700612 2.08518 -1.99306 -0.163569 -0.256518 0.00591859 0 0 0 0 0 0 0 0 0 