ITEM: TIMESTEP
8300
ITEM: NUMBER OF ATOMS
4000
ITEM: BOX BOUNDS pp pp pp
-1.7611 42.2611
0.470256 40.0297
0.498906 40.0011
ITEM: ATOMS mass type id x y z vx vy vz fx fy fz xrad yrad zrad vxrad vyrad vzrad fxrad fyrad fzrad 
26.982 1 43 0.534429 4.39501 2.38318 -2.32241 5.31371 -0.556974 -0.0870723 0.130593 -0.197322 0 0 0 0 0 0 0 0 0 
26.982 1 202 0.459163 2.65718 4.59496 1.61035 -0.576469 -4.67889 -0.162338 -0.366988 -0.268674 0 0 0 0 0 0 0 0 0 
26.982 1 4 -1.71368 2.49743 2.39611 -5.68406 -1.41264 1.7757 -0.0721004 -0.627077 0.0101164 0 0 0 0 0 0 0 0 0 
26.982 1 2 0.547606 2.44268 0.530369 -1.39951 -3.88883 1.3245 -0.215387 -0.231614 -0.320341 0 0 0 0 0 0 0 0 0 
26.982 1 8 2.67931 2.55197 2.48405 -0.106393 -0.949361 3.2567 0.1369 -0.0752157 0.172942 0 0 0 0 0 0 0 0 0 
26.982 1 45 2.86565 4.38453 0.384391 -4.20054 -3.96208 -2.35831 -0.464895 -0.0165365 0.155176 0 0 0 0 0 0 0 0 0 
26.982 1 205 2.54058 0.360664 4.3518 -0.502824 -2.99954 -0.791737 0.224044 0.436622 0.192734 0 0 0 0 0 0 0 0 0 
26.982 1 245 2.60263 4.56363 4.513 1.16715 -3.79903 -2.03169 0.236691 -0.338681 -0.31738 0 0 0 0 0 0 0 0 0 
26.982 1 47 5.02538 4.38351 2.6215 5.41612 4.17112 0.713603 -0.460392 0.0506714 -0.408096 0 0 0 0 0 0 0 0 0 
26.982 1 206 4.66329 2.40616 4.52131 -0.0995265 1.4448 -2.57931 0.188582 -0.0629411 -0.0721923 0 0 0 0 0 0 0 0 0 
26.982 1 12 7.0595 2.45318 2.58527 1.61694 2.99615 -1.18429 0.0411191 -0.1066 -0.215851 0 0 0 0 0 0 0 0 0 
26.982 1 249 6.84678 4.54893 4.62135 0.854435 -0.267357 1.2609 0.773487 -0.311743 -0.419055 0 0 0 0 0 0 0 0 0 
26.982 1 6 4.94272 2.31838 0.553666 -3.41063 -2.54202 -1.47844 -0.0488473 0.182173 0.0395415 0 0 0 0 0 0 0 0 0 
26.982 1 209 6.84078 0.527605 4.4842 -2.35391 -0.487086 -0.789029 0.327949 -0.201767 0.279345 0 0 0 0 0 0 0 0 0 
26.982 1 51 9.23641 4.38392 2.54424 0.71088 2.48132 -0.184193 -0.12434 -0.0640841 -0.14445 0 0 0 0 0 0 0 0 0 
26.982 1 210 9.22158 2.40337 4.47859 -4.00542 2.13504 4.92301 -0.158495 0.271608 -0.104287 0 0 0 0 0 0 0 0 0 
26.982 1 53 11.5501 4.45069 0.406655 -6.69269 -5.17544 2.18021 -0.148024 -0.19108 0.489681 0 0 0 0 0 0 0 0 0 
26.982 1 10 9.33553 2.49791 0.520186 -2.74831 -1.44843 -2.82469 -0.24049 -0.324423 0.143052 0 0 0 0 0 0 0 0 0 
26.982 1 16 11.4538 2.45346 2.44114 6.54631 3.80202 0.21295 0.0672657 -0.0311903 -0.202718 0 0 0 0 0 0 0 0 0 
26.982 1 253 11.4694 4.32891 4.33986 -1.742 0.153688 4.1008 -0.149506 0.208247 0.66114 0 0 0 0 0 0 0 0 0 
26.982 1 55 13.762 4.35121 2.57454 3.63184 4.48224 -6.76051 -0.130926 -0.0259957 -0.439165 0 0 0 0 0 0 0 0 0 
26.982 1 214 13.6054 2.47318 4.53101 -7.60187 -3.86962 0.440598 0.233175 -0.143106 -0.183276 0 0 0 0 0 0 0 0 0 
26.982 1 257 15.9072 4.46904 4.65803 0.864647 0.436983 1.0215 0.022129 0.124014 -0.451556 0 0 0 0 0 0 0 0 0 
26.982 1 15 13.6145 0.475076 2.52593 0.796201 -1.26036 1.76233 0.213718 -0.00627436 0.192184 0 0 0 0 0 0 0 0 0 
26.982 1 17 15.5958 0.445264 0.478421 0.361259 -0.275214 3.78684 0.559301 -0.0452798 0.228268 0 0 0 0 0 0 0 0 0 
26.982 1 14 13.6981 2.51107 0.383507 -3.23715 2.33536 -2.81334 -0.208859 0.197643 0.857822 0 0 0 0 0 0 0 0 0 
26.982 1 20 15.9467 2.46146 2.54934 0.732519 -1.86053 0.685148 -0.269403 0.0167101 -0.000676214 0 0 0 0 0 0 0 0 0 
26.982 1 218 18.0296 2.47606 4.58914 -0.063163 2.15449 4.69007 0.0984488 -0.160356 -0.492816 0 0 0 0 0 0 0 0 0 
26.982 1 59 18.0903 4.55856 2.47745 2.16052 -1.78725 -3.02059 0.194736 -0.130577 0.270894 0 0 0 0 0 0 0 0 0 
26.982 1 24 20.2774 2.59203 2.59091 -6.44598 -2.43725 0.768022 -0.0669956 -0.230353 -0.481385 0 0 0 0 0 0 0 0 0 
26.982 1 261 20.2507 4.37064 4.59152 -3.4897 2.43919 2.82276 -0.0522474 0.569655 -0.220753 0 0 0 0 0 0 0 0 0 
26.982 1 217 15.8063 0.463516 4.50204 3.1892 0.372884 -1.28623 -0.194215 0.0782103 0.0309308 0 0 0 0 0 0 0 0 0 
26.982 1 57 16.062 4.35724 0.503316 2.62608 -5.25372 -1.90433 -0.444557 0.359666 0.339933 0 0 0 0 0 0 0 0 0 
26.982 1 61 20.2433 4.28494 0.357764 7.37924 -1.63404 4.37126 0.237036 0.850842 0.664377 0 0 0 0 0 0 0 0 0 
26.982 1 18 18.0955 2.47914 0.611953 0.870477 2.52827 -2.36178 -0.145661 0.0471083 -0.0899016 0 0 0 0 0 0 0 0 0 
26.982 1 63 22.4519 4.54578 2.48803 1.48632 -1.0753 -1.17028 -0.319523 -0.109964 -0.00773946 0 0 0 0 0 0 0 0 0 
26.982 1 222 22.4103 2.56707 4.44549 -0.603213 0.045913 -0.440489 0.4031 -0.272738 0.00180713 0 0 0 0 0 0 0 0 0 
26.982 1 22 22.5085 2.53123 0.488104 -0.253418 -2.59011 -0.55487 -0.196073 -0.576669 0.211685 0 0 0 0 0 0 0 0 0 
26.982 1 28 24.8579 2.49021 2.4516 -1.24734 6.09909 -5.08006 -0.340113 -0.201481 -0.287592 0 0 0 0 0 0 0 0 0 
26.982 1 265 24.5731 4.48133 4.39229 -2.75529 7.37239 6.19901 0.189361 -0.00134234 0.153985 0 0 0 0 0 0 0 0 0 
26.982 1 67 26.7757 4.54533 2.18218 0.500382 6.12422 -1.67779 0.108898 -0.555848 0.443067 0 0 0 0 0 0 0 0 0 
26.982 1 226 26.9207 2.66126 4.47983 2.41365 2.8935 -4.95778 0.149039 -0.41063 -0.399125 0 0 0 0 0 0 0 0 0 
26.982 1 32 28.9219 2.54806 2.48472 -3.07519 -0.464821 4.40756 0.134619 -0.0276791 0.0523222 0 0 0 0 0 0 0 0 0 
26.982 1 25 24.6042 0.42329 0.312943 -5.431 2.79816 -0.674599 0.126176 0.212972 0.532008 0 0 0 0 0 0 0 0 0 
26.982 1 29 29.0752 0.588008 0.52291 0.912007 2.38373 3.45977 0.153351 -0.388511 -0.0308177 0 0 0 0 0 0 0 0 0 
26.982 1 269 29.1063 4.63993 4.47367 1.04726 0.52856 -0.179652 0.0541655 -0.212607 -0.106795 0 0 0 0 0 0 0 0 0 
26.982 1 71 31.3229 4.45813 2.47576 2.94358 -1.29945 4.65769 -0.033751 0.719819 -0.413461 0 0 0 0 0 0 0 0 0 
26.982 1 230 31.1425 2.65593 4.26884 2.71266 -0.950676 -3.44259 0.231784 -0.808843 0.62194 0 0 0 0 0 0 0 0 0 
26.982 1 273 33.5254 4.50438 4.59962 -0.763052 6.76699 -3.03616 0.184073 0.112657 -0.453333 0 0 0 0 0 0 0 0 0 
26.982 1 31 31.27 0.420784 2.58474 4.18781 6.18914 2.63752 -0.421277 0.466797 -0.484059 0 0 0 0 0 0 0 0 0 
26.982 1 36 33.5484 2.5587 2.53464 -0.555787 -4.0763 1.2034 -0.288679 0.143826 0.00150356 0 0 0 0 0 0 0 0 0 
26.982 1 75 35.7154 4.3601 2.32103 0.468035 2.5711 3.16526 -0.178503 0.341542 0.421611 0 0 0 0 0 0 0 0 0 
26.982 1 234 35.8156 2.41234 4.56941 -2.01724 4.48599 0.322728 -0.287628 0.380461 -0.382109 0 0 0 0 0 0 0 0 0 
26.982 1 40 37.709 2.35168 2.27588 1.32278 0.512725 -0.185353 0.253034 0.304371 0.319857 0 0 0 0 0 0 0 0 0 
26.982 1 237 37.9095 0.574352 4.42819 1.75414 0.75191 -4.39924 -0.0021341 0.142011 0.230013 0 0 0 0 0 0 0 0 0 
26.982 1 77 37.6358 4.38334 0.302354 3.02172 -0.507673 0.818719 0.495571 0.077252 0.464954 0 0 0 0 0 0 0 0 0 
26.982 1 1 42.3321 0.406562 0.288515 -2.20917 -1.15701 4.79365 0.097952 0.265506 0.579115 0 0 0 0 0 0 0 0 0 
26.982 1 39 40.079 0.636561 2.29658 -1.43147 -1.22183 -2.85067 0.242025 -0.197523 0.116452 0 0 0 0 0 0 0 0 0 
26.982 1 277 37.9026 4.44376 4.31887 -0.828598 1.07721 1.02623 -0.228435 -0.463303 0.269706 0 0 0 0 0 0 0 0 0 
26.982 1 241 42.1575 4.39643 4.27364 -1.97266 -0.909189 -1.53718 0.41476 0.257666 0.291579 0 0 0 0 0 0 0 0 0 
26.982 1 79 40.1076 4.4252 2.43672 3.42551 -0.153715 -4.48969 -0.304026 -0.166576 -0.263996 0 0 0 0 0 0 0 0 0 
26.982 1 238 40.1087 2.44012 4.30486 -0.981005 3.50923 2.98139 -0.222276 -0.223814 0.307696 0 0 0 0 0 0 0 0 0 
26.982 1 38 39.7098 2.55525 0.286314 1.65555 -5.36992 -1.25301 0.904182 0.0764079 0.242782 0 0 0 0 0 0 0 0 0 
26.982 1 83 0.288727 8.43507 2.58684 4.68251 0.603866 -0.224688 0.134319 0.176002 -0.309318 0 0 0 0 0 0 0 0 0 
26.982 1 242 0.50701 6.25953 4.26969 -2.00571 0.859397 0.33604 -0.384691 0.42581 0.0943698 0 0 0 0 0 0 0 0 0 
26.982 1 285 2.65694 8.25858 4.34454 -2.41101 3.88177 0.647334 -0.217311 0.326872 -0.214413 0 0 0 0 0 0 0 0 0 
26.982 1 84 -1.96783 10.3934 2.40825 3.86488 0.301479 -0.356358 0.549617 -0.375584 0.485001 0 0 0 0 0 0 0 0 0 
26.982 1 85 2.50469 8.5441 0.656471 -4.12187 -1.59874 6.04402 0.249796 -0.00672265 -0.0929255 0 0 0 0 0 0 0 0 0 
26.982 1 281 -1.82778 8.45617 4.42605 -2.96342 -1.09199 -4.22024 0.062385 0.440822 -0.390153 0 0 0 0 0 0 0 0 0 
26.982 1 282 0.479042 10.4755 4.52685 1.44023 -3.78662 -3.80566 -0.366529 -0.201057 0.209977 0 0 0 0 0 0 0 0 0 
26.982 1 48 2.87193 6.26289 2.27237 0.910084 -4.07475 1.46208 -0.526945 0.254352 0.42608 0 0 0 0 0 0 0 0 0 
26.982 1 87 4.95018 8.42334 2.61629 3.70234 2.96992 0.90589 -0.515009 0.506994 -0.364896 0 0 0 0 0 0 0 0 0 
26.982 1 246 4.82945 6.58119 4.47597 0.158915 -5.05109 5.07698 0.035044 -0.640073 0.125307 0 0 0 0 0 0 0 0 0 
26.982 1 289 7.09751 8.48787 4.60698 4.48774 -2.81652 0.26681 0.236021 -0.352036 -0.326024 0 0 0 0 0 0 0 0 0 
26.982 1 88 2.52544 10.3664 2.69578 3.79894 -3.00409 4.07183 0.120221 0.148871 -0.558982 0 0 0 0 0 0 0 0 0 
26.982 1 86 4.88096 10.2875 0.439391 2.76207 -0.946452 3.78901 -0.224425 0.109214 -0.219548 0 0 0 0 0 0 0 0 0 
26.982 1 89 7.02031 8.40686 0.452901 -0.878129 4.56812 7.07418 0.44105 -0.139362 0.349383 0 0 0 0 0 0 0 0 0 
26.982 1 52 6.89178 6.49399 2.54953 3.84594 2.3207 -2.45878 0.719757 -0.194851 -0.0705376 0 0 0 0 0 0 0 0 0 
26.982 1 91 9.29345 8.31683 2.50999 3.08436 -2.00964 4.92788 -0.157801 0.360159 0.101709 0 0 0 0 0 0 0 0 0 
26.982 1 250 9.12978 6.35651 4.34959 -0.285939 1.86018 -2.08154 0.0353746 -0.418965 0.275822 0 0 0 0 0 0 0 0 0 
26.982 1 293 11.4015 8.24513 4.44105 -0.60449 -2.00625 4.03672 0.364403 0.279064 -0.00500556 0 0 0 0 0 0 0 0 0 
26.982 1 290 9.27375 10.4409 4.41085 -0.328167 1.02502 -1.46283 0.085342 -0.296831 -0.240755 0 0 0 0 0 0 0 0 0 
26.982 1 96 11.4808 10.3813 2.48009 2.17416 -3.6029 4.50711 -0.556057 -0.020101 0.392242 0 0 0 0 0 0 0 0 0 
26.982 1 50 9.30309 6.42562 0.607789 -0.740009 1.48874 6.04383 -0.249671 -0.0561092 -0.399211 0 0 0 0 0 0 0 0 0 
26.982 1 56 11.4093 6.24703 2.4649 -0.70735 -6.11814 -0.429012 0.157451 0.241259 0.00321085 0 0 0 0 0 0 0 0 0 
26.982 1 95 13.5229 8.1617 2.42962 -5.2228 -0.989209 -3.44706 0.422829 0.369778 0.128968 0 0 0 0 0 0 0 0 0 
26.982 1 254 13.6673 6.3231 4.48217 5.5396 -1.26409 -2.36654 -0.012201 0.046329 0.203512 0 0 0 0 0 0 0 0 0 
26.982 1 60 15.8606 6.25261 2.51171 -0.0937469 -3.33978 -0.279958 0.0403267 0.267653 0.0133188 0 0 0 0 0 0 0 0 0 
26.982 1 97 15.8179 8.33901 0.677053 -1.12779 -3.43331 -3.31703 0.0509899 0.188248 -0.0504829 0 0 0 0 0 0 0 0 0 
26.982 1 54 13.6106 6.2653 0.441176 3.14555 -3.34166 -1.08123 0.494316 0.0828157 0.593482 0 0 0 0 0 0 0 0 0 
26.982 1 297 16.015 8.16552 4.54815 2.3572 1.8055 -2.38602 -0.481788 0.0861519 0.139106 0 0 0 0 0 0 0 0 0 
26.982 1 99 18.1628 8.29157 2.80571 0.3056 -1.4783 -5.50976 -0.734264 0.159536 -0.680787 0 0 0 0 0 0 0 0 0 
26.982 1 258 18.1443 6.33016 4.76693 0.91672 1.27936 1.99229 -0.0596044 -0.060357 -0.512261 0 0 0 0 0 0 0 0 0 
26.982 1 58 18.1782 6.62844 0.488413 0.264924 1.87395 -6.74317 -0.190438 -0.459576 0.670581 0 0 0 0 0 0 0 0 0 
26.982 1 64 20.241 6.4616 2.52027 0.490736 0.166153 0.748645 0.274287 -0.628306 0.204202 0 0 0 0 0 0 0 0 0 
26.982 1 104 20.0596 10.5276 2.59628 -0.748358 0.990947 -1.97297 0.0678591 -0.335473 -0.0983106 0 0 0 0 0 0 0 0 0 
26.982 1 102 22.291 10.3594 0.664259 1.00958 -5.31604 -4.84846 0.240996 0.164628 -0.125502 0 0 0 0 0 0 0 0 0 
26.982 1 301 20.1843 8.5252 4.41535 -5.17808 -4.16199 1.2714 0.530181 -0.103269 0.782888 0 0 0 0 0 0 0 0 0 
26.982 1 103 22.404 8.43581 2.7185 1.11692 -2.40264 3.27057 0.0148105 0.095173 -0.31634 0 0 0 0 0 0 0 0 0 
26.982 1 262 22.4821 6.47003 4.64442 -0.276487 -5.37266 3.09386 -0.233473 -0.343601 -0.537567 0 0 0 0 0 0 0 0 0 
26.982 1 68 24.4689 6.44292 2.42286 3.11683 -5.24336 -2.12347 0.316263 0.103476 0.0447029 0 0 0 0 0 0 0 0 0 
26.982 1 302 22.3319 10.654 4.5544 -0.721356 1.24308 1.40996 -0.133681 -0.824495 0.288536 0 0 0 0 0 0 0 0 0 
26.982 1 62 22.4453 6.45344 0.376776 -0.0749649 3.18186 -2.58819 -0.253575 -0.116803 0.403526 0 0 0 0 0 0 0 0 0 
26.982 1 105 24.6282 8.59596 0.753949 2.46323 -1.61776 3.64873 -0.0670147 -0.0598942 -0.523491 0 0 0 0 0 0 0 0 0 
26.982 1 305 24.5604 8.36562 4.56115 -3.60737 -1.6397 -2.37489 0.478324 0.00569894 -0.0768927 0 0 0 0 0 0 0 0 0 
26.982 1 107 26.8378 8.37812 2.50437 -5.29607 -1.79625 1.9501 -0.177856 0.254812 -0.0513433 0 0 0 0 0 0 0 0 0 
26.982 1 266 26.7711 6.34878 4.2851 1.7585 4.91474 -4.51746 -0.0613245 0.280139 0.432133 0 0 0 0 0 0 0 0 0 
26.982 1 306 26.9886 10.1918 4.4745 1.22719 4.21108 -4.41138 -0.431111 0.63308 0.332653 0 0 0 0 0 0 0 0 0 
26.982 1 72 29.0391 6.55216 2.51972 4.4678 -6.40941 -0.796062 0.429965 -0.394654 -0.520029 0 0 0 0 0 0 0 0 0 
26.982 1 309 29.0258 8.38433 4.43475 3.34892 -5.46514 0.728408 0.127535 0.135468 0.290859 0 0 0 0 0 0 0 0 0 
26.982 1 111 31.289 8.3548 2.48486 1.35382 -2.37242 1.44389 -0.0879268 0.225602 -0.0495665 0 0 0 0 0 0 0 0 0 
26.982 1 270 31.3769 6.51363 4.52866 2.05077 0.376098 1.54554 -0.252729 -0.446301 0.198953 0 0 0 0 0 0 0 0 0 
26.982 1 313 33.4844 8.31666 4.32646 5.33527 -2.74343 1.41877 0.285518 0.406986 0.401527 0 0 0 0 0 0 0 0 0 
26.982 1 76 33.4494 6.37996 2.50775 -2.09038 -4.66629 1.40729 0.308224 -0.218812 -0.403127 0 0 0 0 0 0 0 0 0 
26.982 1 310 31.4603 10.492 4.3654 0.496521 -3.36762 4.21471 -0.520631 -0.421394 -0.000659445 0 0 0 0 0 0 0 0 0 
26.982 1 116 33.6601 10.3495 2.35519 5.91011 1.41168 2.60739 -0.312787 -0.295633 0.29235 0 0 0 0 0 0 0 0 0 
26.982 1 115 35.7748 8.38485 2.2472 1.72321 0.143679 -3.31323 -0.287268 -0.10355 0.22777 0 0 0 0 0 0 0 0 0 
26.982 1 274 35.7558 6.44679 4.32151 -5.57866 -2.49685 -2.52916 -0.179476 -0.0873711 0.0837255 0 0 0 0 0 0 0 0 0 
26.982 1 317 37.9131 8.29708 4.46288 -0.0561597 -0.978393 -1.66362 -0.370026 0.496502 -0.25953 0 0 0 0 0 0 0 0 0 
26.982 1 314 35.8282 10.322 4.3164 -3.30651 -5.53916 1.03442 -0.0344969 -0.108121 0.243985 0 0 0 0 0 0 0 0 0 
26.982 1 74 35.5641 6.43314 0.279315 2.68673 5.15159 2.16973 0.198714 -0.126305 0.273212 0 0 0 0 0 0 0 0 0 
26.982 1 44 42.1485 6.4797 2.41669 1.28017 -0.605764 -0.480345 0.30928 -0.0816156 0.23499 0 0 0 0 0 0 0 0 0 
26.982 1 80 37.9896 6.32562 2.4217 -1.18215 -1.50998 1.36889 -0.398504 0.119316 -0.61841 0 0 0 0 0 0 0 0 0 
26.982 1 119 39.932 8.29239 2.41857 -1.17855 -1.22915 4.72176 0.408356 -0.053216 -0.00544845 0 0 0 0 0 0 0 0 0 
26.982 1 278 39.8736 6.40327 4.50926 -2.93137 1.70414 -1.93038 0.504834 0.00667105 -0.332999 0 0 0 0 0 0 0 0 0 
26.982 1 318 40.0912 10.4506 4.36887 -1.14295 -2.35438 0.181341 -0.239019 -0.171171 0.151246 0 0 0 0 0 0 0 0 0 
26.982 1 118 40.0837 10.2077 0.482349 -2.09564 2.93906 -4.31966 -0.228558 0.404433 -0.298803 0 0 0 0 0 0 0 0 0 
26.982 1 81 42.3285 8.44355 0.405344 -3.9012 1.51136 3.69723 -0.146261 -0.198571 0.202871 0 0 0 0 0 0 0 0 0 
26.982 1 117 37.8561 8.41715 0.385955 -3.56049 0.755702 4.28515 -0.0671431 -0.253071 -0.0582417 0 0 0 0 0 0 0 0 0 
26.982 1 121 -1.7703 12.2467 0.594135 -3.55103 1.12171 6.81629 -0.00718827 0.824525 -0.470474 0 0 0 0 0 0 0 0 0 
26.982 1 123 0.46044 12.3953 2.50398 -2.05732 2.74978 -3.87528 -0.273915 -0.0554496 -0.0852705 0 0 0 0 0 0 0 0 0 
26.982 1 322 0.531802 14.3236 4.54299 -7.313 1.5799 -0.822781 -0.0715286 -0.0608306 -0.474817 0 0 0 0 0 0 0 0 0 
26.982 1 124 -1.71401 14.4257 2.36558 -1.12086 3.61896 -1.09465 0.103921 -0.240499 0.592095 0 0 0 0 0 0 0 0 0 
26.982 1 321 -1.90328 12.409 4.41804 3.37993 4.73244 -5.95469 0.404719 -0.0797106 -0.311463 0 0 0 0 0 0 0 0 0 
26.982 1 126 4.99968 14.0863 0.366873 0.354872 -2.5632 0.00523853 -0.241824 0.376682 0.378241 0 0 0 0 0 0 0 0 0 
26.982 1 325 2.74387 12.2552 4.65136 -0.978991 2.71068 -3.64186 -0.305435 -0.415131 -0.628124 0 0 0 0 0 0 0 0 0 
26.982 1 128 2.73233 14.1173 2.54111 -1.72922 -1.65134 -2.18492 -0.0161989 0.452739 0.157268 0 0 0 0 0 0 0 0 0 
26.982 1 286 5.07752 10.499 4.62579 -1.63972 2.09289 -1.42942 -0.504815 -0.429178 -0.516186 0 0 0 0 0 0 0 0 0 
26.982 1 127 4.76762 11.99 2.44575 1.90111 -6.03384 0.157082 -0.169491 0.916698 -0.0823175 0 0 0 0 0 0 0 0 0 
26.982 1 326 4.83036 14.0655 4.44621 -5.06949 -7.13096 -1.25075 0.272932 0.259696 -0.140885 0 0 0 0 0 0 0 0 0 
26.982 1 129 7.09989 12.1825 0.604342 -2.01009 -2.02489 -3.04926 -0.250873 0.248221 -0.350464 0 0 0 0 0 0 0 0 0 
26.982 1 125 2.55443 12.5924 0.482804 -1.87577 -1.37072 2.89429 0.142727 -0.997259 -0.518426 0 0 0 0 0 0 0 0 0 
26.982 1 92 6.92326 10.3006 2.5353 -0.989642 2.96474 2.07267 0.800677 -0.215371 -0.101011 0 0 0 0 0 0 0 0 0 
26.982 1 329 6.99964 12.4081 4.25359 -3.89179 1.19225 -1.78749 0.469614 -0.1714 0.434786 0 0 0 0 0 0 0 0 0 
26.982 1 132 7.04801 14.3568 2.44958 -1.45918 0.704518 2.36595 0.0795341 -0.318709 -0.217303 0 0 0 0 0 0 0 0 0 
26.982 1 131 9.28603 12.4324 2.21775 2.13953 -0.567673 -2.22947 0.0363964 -0.621129 1.12451 0 0 0 0 0 0 0 0 0 
26.982 1 330 9.1968 14.2898 4.39691 1.61933 -1.99155 -1.11938 -0.0125617 -0.0321852 0.176562 0 0 0 0 0 0 0 0 0 
26.982 1 133 11.475 12.4767 0.463089 -1.81428 -1.7655 0.669719 -0.0723021 -0.151142 -0.23734 0 0 0 0 0 0 0 0 0 
26.982 1 130 9.27392 14.1715 0.367961 -2.37336 -5.00562 -2.4853 -0.0795984 0.952707 -0.0492743 0 0 0 0 0 0 0 0 0 
26.982 1 137 15.7986 12.4568 0.662228 -0.00708504 3.35906 2.33985 -0.0509713 -0.541363 0.231973 0 0 0 0 0 0 0 0 0 
26.982 1 333 11.2925 12.5296 4.59952 -2.67347 -2.56044 7.57162 0.399057 -0.648003 -0.502152 0 0 0 0 0 0 0 0 0 
26.982 1 294 13.6879 10.2008 4.33176 6.51363 -1.18792 -2.03076 -0.485886 -0.0788869 0.498149 0 0 0 0 0 0 0 0 0 
26.982 1 136 11.4292 14.4011 2.4729 2.88814 1.96915 -2.90238 0.0419143 -0.130242 0.114816 0 0 0 0 0 0 0 0 0 
26.982 1 135 13.4457 12.4011 2.56132 -4.64882 -5.13706 -1.93915 0.364256 -0.140416 0.0957142 0 0 0 0 0 0 0 0 0 
26.982 1 334 13.3869 14.3073 4.47497 2.73182 -3.64798 -2.88765 0.603247 0.150102 -0.0298654 0 0 0 0 0 0 0 0 0 
26.982 1 134 13.6344 14.3984 0.675875 4.76265 2.76573 -4.02781 0.219631 -0.0522875 -0.403679 0 0 0 0 0 0 0 0 0 
26.982 1 298 17.7981 10.5244 4.59137 2.73779 -4.55558 0.249405 0.57527 -0.0773378 -0.0539023 0 0 0 0 0 0 0 0 0 
26.982 1 100 15.734 10.3107 2.64228 1.21286 -0.493855 0.34381 0.314438 -0.0614568 -0.725601 0 0 0 0 0 0 0 0 0 
26.982 1 98 18.051 10.1737 0.643406 -2.71287 -1.00573 0.234326 -0.109437 0.248062 -0.0110013 0 0 0 0 0 0 0 0 0 
26.982 1 337 15.6126 12.3068 4.48158 5.79511 4.51509 -5.45858 0.383211 0.466309 -0.146796 0 0 0 0 0 0 0 0 0 
26.982 1 140 15.8352 14.4347 2.60937 3.31962 -0.502596 0.901131 -0.22642 -0.124595 -0.199898 0 0 0 0 0 0 0 0 0 
26.982 1 139 18.0308 12.3962 2.53137 1.32456 -2.42283 2.98007 -0.355011 -0.146277 0.076356 0 0 0 0 0 0 0 0 0 
26.982 1 338 17.8906 14.3918 4.4417 2.30636 2.66114 -1.54552 0.207388 -0.0107352 0.34983 0 0 0 0 0 0 0 0 0 
26.982 1 138 18.1363 14.4333 0.741519 -0.98071 1.35475 1.17178 -0.3876 0.034407 -0.0864271 0 0 0 0 0 0 0 0 0 
26.982 1 142 22.4896 14.2504 0.776973 -1.18936 -1.69733 -0.335172 -0.180328 0.295355 -0.403368 0 0 0 0 0 0 0 0 0 
26.982 1 141 20.1045 12.4643 0.53979 0.489021 2.7755 1.19759 0.206068 -0.713038 0.320836 0 0 0 0 0 0 0 0 0 
26.982 1 341 19.9339 12.4497 4.75031 -2.32467 6.98804 7.69253 0.350907 -0.0898357 -0.286623 0 0 0 0 0 0 0 0 0 
26.982 1 144 20.2707 14.3915 2.69695 1.37387 1.74778 2.1522 -0.269052 0.0802611 -0.268298 0 0 0 0 0 0 0 0 0 
26.982 1 143 22.0719 12.3355 2.59723 3.44859 -0.988177 1.33453 0.625572 0.196813 -0.190158 0 0 0 0 0 0 0 0 0 
26.982 1 342 22.4356 14.2897 4.54178 1.677 3.48061 -8.79652 -0.0485307 0.0169454 -0.0816662 0 0 0 0 0 0 0 0 0 
26.982 1 148 24.8272 14.3165 2.41413 -5.98152 1.19981 -0.518424 -0.327563 0.00728728 0.46269 0 0 0 0 0 0 0 0 0 
26.982 1 345 24.4674 12.4532 4.51976 -0.633884 5.19368 -2.40196 0.727454 0.238419 -0.0336982 0 0 0 0 0 0 0 0 0 
26.982 1 108 24.5994 10.408 2.81411 -0.376623 5.93217 0.283919 -0.0789902 -0.0804958 -0.301484 0 0 0 0 0 0 0 0 0 
26.982 1 112 29.0403 10.3364 2.45299 1.55813 -0.770219 -6.3042 0.391993 0.00193735 0.0671151 0 0 0 0 0 0 0 0 0 
26.982 1 147 26.8399 12.183 2.46186 1.05736 0.382369 0.856318 0.178086 0.564537 0.713357 0 0 0 0 0 0 0 0 0 
26.982 1 346 26.883 14.2313 4.52678 3.76316 5.9227 -0.557232 -0.0995422 -0.0423869 -0.291775 0 0 0 0 0 0 0 0 0 
26.982 1 152 28.9681 14.283 2.45658 0.972074 -4.32487 6.39383 0.453049 0.0961246 0.342879 0 0 0 0 0 0 0 0 0 
26.982 1 349 29.104 12.3441 4.29941 -3.20105 3.45529 -4.65755 0.0180938 -0.22128 0.1956 0 0 0 0 0 0 0 0 0 
26.982 1 151 31.41 12.324 2.34508 -1.55336 0.346038 0.968314 -0.440978 0.0347989 0.232697 0 0 0 0 0 0 0 0 0 
26.982 1 350 31.3573 14.1943 4.30424 -1.50263 -3.44959 -0.540428 -0.251711 -0.29011 0.00593246 0 0 0 0 0 0 0 0 0 
26.982 1 156 33.4821 14.0913 2.44609 -0.756956 1.53267 3.76445 0.45982 0.733012 -0.238109 0 0 0 0 0 0 0 0 0 
26.982 1 353 33.5469 12.2737 4.40814 3.05766 2.8929 -0.675489 0.0872974 0.161057 -0.0984637 0 0 0 0 0 0 0 0 0 
26.982 1 154 35.7904 14.2499 0.428123 1.50884 -0.20843 1.10151 -0.24829 -0.113135 0.337774 0 0 0 0 0 0 0 0 0 
26.982 1 155 35.6883 12.2184 2.38558 0.202653 -4.27708 0.0651739 0.337943 0.442584 0.136708 0 0 0 0 0 0 0 0 0 
26.982 1 354 35.7578 14.1676 4.39293 3.5628 -1.56451 -2.43921 0.114213 0.215199 -0.241674 0 0 0 0 0 0 0 0 0 
26.982 1 357 37.9495 12.3168 4.55402 -1.67872 0.00452967 1.80549 -0.207514 -0.185007 -0.284849 0 0 0 0 0 0 0 0 0 
26.982 1 120 37.954 10.2685 2.36219 3.3468 3.63604 -0.0523471 -0.201604 0.337157 0.378006 0 0 0 0 0 0 0 0 0 
26.982 1 160 37.9649 14.2389 2.37966 2.16213 -0.549541 -3.77762 -0.424827 0.0109532 0.137885 0 0 0 0 0 0 0 0 0 
26.982 1 159 39.9606 12.368 2.33349 0.514433 -6.72895 -1.51329 0.187492 -0.0107928 0.196875 0 0 0 0 0 0 0 0 0 
26.982 1 358 39.961 14.3933 4.46523 4.00393 0.686549 -4.8127 0.37638 -0.146028 -0.135992 0 0 0 0 0 0 0 0 0 
26.982 1 163 0.596552 16.3216 2.4422 0.653464 -6.61557 2.53737 -0.340447 -0.916645 0.461138 0 0 0 0 0 0 0 0 0 
26.982 1 362 0.543212 18.1886 4.40634 4.38151 -1.91357 -3.09126 0.0861176 0.318997 0.30145 0 0 0 0 0 0 0 0 0 
26.982 1 164 -1.71115 18.2701 2.55665 2.83087 -3.27672 -4.32062 -0.0862355 -0.280947 0.293787 0 0 0 0 0 0 0 0 0 
26.982 1 365 2.75834 16.2144 4.30346 -4.74926 0.0153269 -3.9953 0.0171197 -0.235757 0.622311 0 0 0 0 0 0 0 0 0 
26.982 1 361 -1.4763 16.3001 4.57344 -0.513133 5.75652 -0.555132 -0.654946 -0.257403 -0.381763 0 0 0 0 0 0 0 0 0 
26.982 1 166 5.09662 18.0125 0.446807 3.13595 3.28938 1.61144 -0.546165 0.270013 0.174367 0 0 0 0 0 0 0 0 0 
26.982 1 168 2.76977 18.1728 2.57863 -0.451001 1.67002 0.446106 0.0286254 0.299077 -0.638093 0 0 0 0 0 0 0 0 0 
26.982 1 167 4.91916 16.1165 2.41884 -2.01294 1.70745 -2.37841 -0.23803 0.123358 0.0680667 0 0 0 0 0 0 0 0 0 
26.982 1 366 4.87492 18.3221 4.43937 0.206096 -0.352933 0.0611281 0.134011 -0.476649 0.00137725 0 0 0 0 0 0 0 0 0 
26.982 1 369 7.02973 16.3312 4.34202 5.17468 -2.47022 4.84785 -0.166438 -0.313195 0.18532 0 0 0 0 0 0 0 0 0 
26.982 1 172 6.99657 18.2472 2.45296 -1.62974 0.755525 3.02352 0.272235 -0.146782 -0.16963 0 0 0 0 0 0 0 0 0 
26.982 1 169 7.07927 16.1456 0.447891 5.95371 -1.36223 2.19521 0.379319 0.166485 -0.170024 0 0 0 0 0 0 0 0 0 
26.982 1 171 9.36634 16.1234 2.44745 -0.25594 -1.14957 -1.61791 -0.365302 0.622652 -0.431909 0 0 0 0 0 0 0 0 0 
26.982 1 370 9.13844 18.1245 4.39456 -4.01112 -1.50867 -2.06748 0.40731 0.217193 0.0572815 0 0 0 0 0 0 0 0 0 
26.982 1 176 11.4325 18.2541 2.46247 -3.72193 -0.295758 -2.68186 0.0556782 -0.102177 0.0357961 0 0 0 0 0 0 0 0 0 
26.982 1 2209 7.203 20.2082 4.38549 -1.85021 -3.24009 -3.42148 -0.277322 -0.107716 0.424735 0 0 0 0 0 0 0 0 0 
26.982 1 170 9.15785 18.3325 0.405149 -0.256007 1.56976 3.74724 0.461425 -0.517201 0.0898874 0 0 0 0 0 0 0 0 0 
26.982 1 2213 11.5601 20.3266 4.43952 -1.82726 -1.88713 -2.55558 -0.0347809 -0.373405 0.17277 0 0 0 0 0 0 0 0 0 
26.982 1 373 11.4328 16.2981 4.61389 2.27111 4.16915 -1.85091 -0.213724 0.0852867 -0.429177 0 0 0 0 0 0 0 0 0 
26.982 1 175 13.728 16.3737 2.63451 -1.02293 2.29318 -0.433995 -0.28499 0.070962 -0.230614 0 0 0 0 0 0 0 0 0 
26.982 1 374 13.6975 18.2659 4.69934 1.96125 -0.443391 2.20561 0.22174 0.198455 -0.907229 0 0 0 0 0 0 0 0 0 
26.982 1 377 15.8473 16.4145 4.54079 -1.84042 0.0716285 1.95871 -0.00646661 -0.0184595 0.293181 0 0 0 0 0 0 0 0 0 
26.982 1 180 15.7056 18.3885 2.57351 -4.2857 6.70613 -0.847699 0.352878 -0.232981 0.0576009 0 0 0 0 0 0 0 0 0 
26.982 1 174 13.6089 18.3402 0.515805 3.07157 7.31898 2.39246 -0.0670005 -0.582725 -0.0274119 0 0 0 0 0 0 0 0 0 
26.982 1 2021 20.2977 20.2023 0.448135 -0.818419 -3.02073 -5.93373 0.0687883 -0.0417919 -0.511135 0 0 0 0 0 0 0 0 0 
26.982 1 178 18.05 18.3665 0.646734 0.415128 -0.925598 -0.593426 -0.0514757 -0.107976 -0.187685 0 0 0 0 0 0 0 0 0 
26.982 1 179 17.8793 16.5255 2.60389 -0.961839 -2.24983 2.3598 0.304245 -0.283495 -0.0540116 0 0 0 0 0 0 0 0 0 
26.982 1 378 18.2867 18.5224 4.44602 0.0155004 -4.59201 -0.229278 -0.694809 -0.352137 0.19746 0 0 0 0 0 0 0 0 0 
26.982 1 184 20.2591 18.4433 2.50872 3.0374 2.01267 0.0974616 0.138103 -0.332921 -0.106629 0 0 0 0 0 0 0 0 0 
26.982 1 2217 15.9204 20.4392 4.44899 5.09225 -2.74629 -0.236531 0.170769 -0.378537 0.18717 0 0 0 0 0 0 0 0 0 
26.982 1 2017 15.883 20.188 0.584309 -3.12138 -3.87867 -2.34484 0.191019 0.34799 -0.456682 0 0 0 0 0 0 0 0 0 
26.982 1 2221 20.3792 20.3288 4.44463 -3.02801 2.07209 1.28533 -0.432582 0.218015 0.419899 0 0 0 0 0 0 0 0 0 
26.982 1 181 20.2072 16.3969 0.653131 1.59171 -1.32288 -2.58917 0.337754 -0.145997 -0.163509 0 0 0 0 0 0 0 0 0 
26.982 1 182 22.6135 18.2727 0.755391 1.79701 1.29432 -0.792383 -0.678059 0.0342299 -1.08878 0 0 0 0 0 0 0 0 0 
26.982 1 381 20.2429 16.4154 4.4483 0.609499 -0.605469 -0.00717813 -0.254565 -0.0379816 0.0791527 0 0 0 0 0 0 0 0 0 
26.982 1 183 22.4782 16.3584 2.73091 0.846307 -2.79752 1.80437 -0.189925 -0.0282297 -0.229587 0 0 0 0 0 0 0 0 0 
26.982 1 382 22.4294 18.5366 4.51786 2.73123 0.220772 4.53664 0.00594248 -0.86242 -0.014976 0 0 0 0 0 0 0 0 0 
26.982 1 385 24.5933 16.3965 4.46334 0.0414603 5.45018 1.43899 0.250727 -0.262078 -0.257269 0 0 0 0 0 0 0 0 0 
26.982 1 2023 22.5508 20.1971 2.45244 1.33647 -3.27691 -0.699668 -0.00196128 0.513602 0.180926 0 0 0 0 0 0 0 0 0 
26.982 1 188 24.7235 18.4026 2.51482 0.729074 2.75208 0.556022 0.0543538 -0.537434 0.377912 0 0 0 0 0 0 0 0 0 
26.982 1 187 26.9265 16.1294 2.47312 1.50916 -0.524531 -1.09983 -0.375889 0.260409 0.212943 0 0 0 0 0 0 0 0 0 
26.982 1 386 26.8613 18.2999 4.33924 0.149884 0.474744 0.0506765 0.120975 0.186861 -0.00462365 0 0 0 0 0 0 0 0 0 
26.982 1 192 29.1265 18.0908 2.39721 -1.37095 4.20394 -3.0199 -0.0731254 0.430471 0.195874 0 0 0 0 0 0 0 0 0 
26.982 1 389 29.048 16.4448 4.48402 -1.25612 -0.176591 -0.962462 0.0934724 -0.910404 -0.255165 0 0 0 0 0 0 0 0 0 
26.982 1 2025 24.8211 20.1781 0.553404 0.992457 0.62132 3.32265 -0.0529306 0.282642 -0.621801 0 0 0 0 0 0 0 0 0 
26.982 1 2027 26.9613 20.1868 2.34829 0.179274 2.67446 3.49637 0.23226 0.0108686 0.616122 0 0 0 0 0 0 0 0 0 
26.982 1 2225 24.5889 20.2675 4.59598 -1.83534 1.39989 -1.12184 0.253481 0.347121 -0.251859 0 0 0 0 0 0 0 0 0 
26.982 1 189 29.0334 16.154 0.547022 1.67853 -1.08756 0.200788 0.237225 0.188789 -0.562963 0 0 0 0 0 0 0 0 0 
26.982 1 2229 29.198 20.1814 4.5094 0.923958 -2.43291 -1.84907 -0.477441 -0.161234 -0.402968 0 0 0 0 0 0 0 0 0 
26.982 1 191 31.3077 16.3059 2.58338 -1.65279 0.602283 1.69129 0.105101 -0.175705 -0.0501831 0 0 0 0 0 0 0 0 0 
26.982 1 390 31.2907 18.2502 4.57151 -0.584507 3.04894 -2.0301 0.358141 0.270718 -0.254872 0 0 0 0 0 0 0 0 0 
26.982 1 196 33.5684 18.116 2.52862 4.49338 1.42898 -0.389176 -0.173741 0.160281 -0.201308 0 0 0 0 0 0 0 0 0 
26.982 1 190 31.4102 18.2113 0.564207 -0.00217076 -5.65523 -4.48975 -0.0605524 -0.21533 -0.459662 0 0 0 0 0 0 0 0 0 
26.982 1 193 33.5264 16.1552 0.447957 3.01249 -1.8134 -1.4991 0.3 0.0787548 0.170806 0 0 0 0 0 0 0 0 0 
26.982 1 393 33.6267 16.0971 4.46002 0.678116 3.10762 -1.34201 0.124088 0.124529 -0.511076 0 0 0 0 0 0 0 0 0 
26.982 1 195 35.813 16.3095 2.41771 0.388983 10.5336 -2.21945 -0.190015 -0.375329 0.134799 0 0 0 0 0 0 0 0 0 
26.982 1 394 35.5248 18.1747 4.51112 0.886247 0.996557 0.49241 0.643107 0.168926 -0.1329 0 0 0 0 0 0 0 0 0 
26.982 1 2237 37.6057 20.2792 4.42185 3.0013 3.53159 2.91418 0.603864 -0.148659 0.107859 0 0 0 0 0 0 0 0 0 
26.982 1 397 37.8764 16.2918 4.52758 0.307114 1.55023 -0.802764 0.0578911 -0.128672 -0.19622 0 0 0 0 0 0 0 0 0 
26.982 1 200 37.9249 18.2531 2.51547 -4.68021 -3.21909 2.31885 -0.251815 -0.00287418 -0.0743198 0 0 0 0 0 0 0 0 0 
26.982 1 199 39.986 16.2948 2.4135 1.16078 -1.47338 -2.39851 0.376104 0.078907 0.649087 0 0 0 0 0 0 0 0 0 
26.982 1 398 40.0759 18.3672 4.37173 2.00447 0.936524 1.32961 -0.162973 -0.31726 0.169222 0 0 0 0 0 0 0 0 0 
26.982 1 243 0.370414 4.59297 6.46842 1.10917 2.67988 -7.44631 -0.172703 -0.098806 -0.0396553 0 0 0 0 0 0 0 0 0 
26.982 1 402 0.367656 2.43261 8.37103 0.614593 -6.26298 -6.95081 -0.201637 0.234287 -0.186158 0 0 0 0 0 0 0 0 0 
26.982 1 203 0.496206 0.518865 6.46485 -3.28946 -0.691949 -0.631915 -0.465916 -0.0153845 -0.375488 0 0 0 0 0 0 0 0 0 
26.982 1 204 -1.88022 2.53897 6.4303 4.97335 3.42753 -2.06697 0.330687 -0.262704 -0.261808 0 0 0 0 0 0 0 0 0 
26.982 1 441 -1.87352 4.49756 8.26578 -0.654142 3.34841 -0.0821765 0.0726299 0.305232 0.296184 0 0 0 0 0 0 0 0 0 
26.982 1 405 2.42466 0.545766 8.42754 2.32434 7.55341 2.89623 0.396083 -0.128629 0.331616 0 0 0 0 0 0 0 0 0 
26.982 1 208 2.60459 2.53918 6.5147 1.35629 -1.65352 3.4464 -0.0895084 -0.451055 -0.641637 0 0 0 0 0 0 0 0 0 
26.982 1 207 4.67522 0.552103 6.57691 0.468642 2.18267 -2.3454 0.108238 -0.164934 -0.243414 0 0 0 0 0 0 0 0 0 
26.982 1 445 2.56173 4.47138 8.22873 0.938255 2.12692 -2.1765 0.157253 0.649927 0.41498 0 0 0 0 0 0 0 0 0 
26.982 1 247 4.75971 4.4782 6.26587 -0.664552 1.52163 4.16218 -0.0720487 0.0659102 0.67124 0 0 0 0 0 0 0 0 0 
26.982 1 406 4.67869 2.57117 8.46691 -4.38067 8.40624 4.91525 0.392526 -0.277838 -0.525231 0 0 0 0 0 0 0 0 0 
26.982 1 449 6.90264 4.39678 8.47088 -4.51011 -1.02161 4.96549 0.106137 -0.242022 -0.510351 0 0 0 0 0 0 0 0 0 
26.982 1 212 7.13503 2.54216 6.45002 2.70451 -1.11887 -1.67404 -0.613822 -0.381831 0.0433891 0 0 0 0 0 0 0 0 0 
26.982 1 251 9.22132 4.34576 6.59639 -0.925265 1.50733 0.856297 0.127022 0.314482 -0.412367 0 0 0 0 0 0 0 0 0 
26.982 1 410 9.0298 2.30491 8.50846 0.665245 -2.29978 2.08595 0.353058 0.28944 -0.398085 0 0 0 0 0 0 0 0 0 
26.982 1 216 11.3981 2.38779 6.35437 2.40297 -2.04274 -2.61713 0.0720016 0.196073 0.555418 0 0 0 0 0 0 0 0 0 