ITEM: TIMESTEP
17000
ITEM: NUMBER OF ATOMS
4000
ITEM: BOX BOUNDS pp pp pp
-3.52931 44.0293
0.955478 39.5445
1.18872 39.3113
ITEM: ATOMS mass type id x y z vx vy vz fx fy fz xrad yrad zrad vxrad vyrad vzrad fxrad fyrad fzrad 
26.982 1 43 -0.67327 6.90105 3.19057 -2.45014 4.14234 5.47318 -0.0024934 0.288911 1.05159 0 0 0 0 0 0 0 0 0 
26.982 1 202 -0.758579 3.60779 4.05477 -1.94607 -6.10314 -4.01055 -0.203708 0.649216 0.00597297 0 0 0 0 0 0 0 0 0 
26.982 1 235 36.8307 1.29699 7.41165 -1.19473 0.405069 5.89262 -0.107672 0.287832 0.104857 0 0 0 0 0 0 0 0 0 
26.982 1 205 1.10775 1.87133 4.50232 2.22072 1.89162 -1.53787 0.490377 0.0964615 0.240372 0 0 0 0 0 0 0 0 0 
26.982 1 2 -1.75632 3.1285 1.42714 4.00196 4.09756 7.3141 -0.0206229 -0.313885 0.467768 0 0 0 0 0 0 0 0 0 
26.982 1 245 1.98883 4.79664 4.71121 -5.56195 -6.8261 -3.28329 -0.466 -1.00392 1.54809 0 0 0 0 0 0 0 0 0 
26.982 1 8 1.99901 3.59905 2.37891 1.50752 7.28659 3.84126 0.368349 -0.397267 -0.186082 0 0 0 0 0 0 0 0 0 
26.982 1 47 4.46066 4.85811 3.60855 -4.71421 9.99486 1.03177 0.147076 0.0177718 0.219577 0 0 0 0 0 0 0 0 0 
26.982 1 206 4.02054 2.21522 4.25663 -7.1428 5.29595 -2.07302 0.0819267 0.491859 0.062942 0 0 0 0 0 0 0 0 0 
26.982 1 249 6.81337 5.43302 5.28067 0.161128 1.48573 -3.33094 -0.335133 -0.479974 0.190327 0 0 0 0 0 0 0 0 0 
26.982 1 12 6.50995 3.12801 3.27199 2.5227 1.77502 -2.87604 0.34893 0.48006 0.0586272 0 0 0 0 0 0 0 0 0 
26.982 1 51 9.21661 4.37806 2.59135 -5.78703 2.7335 -0.0467765 -0.418611 0.0903618 -0.508836 0 0 0 0 0 0 0 0 0 
26.982 1 210 8.79536 3.05179 4.90509 -11.2827 -2.22495 3.99933 0.521914 0.00908489 0.283995 0 0 0 0 0 0 0 0 0 
26.982 1 212 6.53731 2.54712 6.29844 1.5631 5.63121 -1.86223 -0.0943096 0.0965407 0.0723146 0 0 0 0 0 0 0 0 0 
26.982 1 253 11.4001 4.44934 4.53241 -0.636374 5.7721 4.92469 -0.12666 -0.0901837 -0.282631 0 0 0 0 0 0 0 0 0 
26.982 1 16 11.204 2.35455 2.60344 -0.157064 -5.36902 -2.54561 0.376139 0.0362021 0.0530292 0 0 0 0 0 0 0 0 0 
26.982 1 214 13.4436 2.24871 4.3919 -2.49491 -0.617217 4.76821 0.11567 0.307965 -0.231672 0 0 0 0 0 0 0 0 0 
26.982 1 18 18.1834 3.06998 1.41246 1.56125 -2.72109 2.23305 0.458628 -0.579537 -0.289103 0 0 0 0 0 0 0 0 0 
26.982 1 55 13.9474 5.26523 3.19352 1.38028 -0.174988 -2.73635 0.28474 -0.0989116 0.243552 0 0 0 0 0 0 0 0 0 
26.982 1 20 16.2451 2.78281 3.59427 -1.57442 3.13552 2.25908 -0.401507 -0.297225 -0.811976 0 0 0 0 0 0 0 0 0 
26.982 1 257 16.2744 4.89043 5.03959 -0.304223 0.637555 -6.08377 -0.355902 0.595633 0.863919 0 0 0 0 0 0 0 0 0 
26.982 1 57 16.281 4.90439 1.42178 -0.0656371 3.7977 -5.37267 -0.373334 0.182668 0.327214 0 0 0 0 0 0 0 0 0 
26.982 1 14 14.1498 3.02974 1.6237 -4.6101 3.53828 2.17202 0.0817361 -0.112983 0.491899 0 0 0 0 0 0 0 0 0 
26.982 1 35 36.8306 1.09436 3.48604 1.61418 -0.428646 5.37189 -0.127053 0.66354 -0.408334 0 0 0 0 0 0 0 0 0 
26.982 1 218 18.447 2.8641 5.1292 -7.34105 -2.05741 -7.6011 -0.172569 0.278864 0.157485 0 0 0 0 0 0 0 0 0 
26.982 1 59 18.3893 4.96157 3.36314 1.20054 3.12265 -6.05476 0.132124 0.0840457 -0.618006 0 0 0 0 0 0 0 0 0 
26.982 1 24 20.4454 2.95875 2.99816 -3.03319 1.41617 0.908346 0.0929433 -0.225016 0.318493 0 0 0 0 0 0 0 0 0 
26.982 1 261 20.5705 4.82664 5.06746 -0.0746096 2.40123 0.712432 -0.326359 -0.088355 -0.442788 0 0 0 0 0 0 0 0 0 
26.982 1 1198 41.2172 17.9368 19.6711 -2.09372 1.09077 8.11159 -0.173561 -0.163586 -0.292175 0 0 0 0 0 0 0 0 0 
26.982 1 5 0.45016 1.25714 1.98403 -1.25071 2.14139 -6.81327 -0.154085 -0.143079 -0.644848 0 0 0 0 0 0 0 0 0 
26.982 1 63 22.5913 4.77939 3.00461 3.71766 2.25226 -2.55702 0.161034 -0.18988 -0.103855 0 0 0 0 0 0 0 0 0 
26.982 1 222 22.6232 2.69666 4.83125 2.42825 0.200508 -4.26736 -0.46909 0.636533 0.416173 0 0 0 0 0 0 0 0 0 
26.982 1 28 24.8871 2.54398 3.01198 0.306527 -0.308363 -5.61598 0.0752108 0.132801 -0.378981 0 0 0 0 0 0 0 0 0 
26.982 1 265 25.0451 4.4336 4.99887 -4.08802 2.86414 -2.3681 -0.751946 0.231455 -0.348825 0 0 0 0 0 0 0 0 0 
26.982 1 1161 43.493 16.0246 19.1912 0.505919 7.51741 -1.14877 0.0634114 -0.165222 0.513608 0 0 0 0 0 0 0 0 0 
26.982 1 34 36.6706 3.048 1.48577 -0.918425 -1.02583 2.58265 0.0126285 0.058321 -0.287776 0 0 0 0 0 0 0 0 0 
26.982 1 67 27.1582 4.26264 2.74857 0.682544 0.522008 -2.46421 -0.243539 0.429438 0.018234 0 0 0 0 0 0 0 0 0 
26.982 1 226 27.0598 2.72045 5.09232 4.01408 3.22236 -2.00643 0.0878823 -0.343038 0.234394 0 0 0 0 0 0 0 0 0 
26.982 1 32 29.6188 3.39617 2.18483 -1.9191 4.04078 -1.31028 0.238067 -0.11397 0.854058 0 0 0 0 0 0 0 0 0 
26.982 1 269 29.2894 4.42289 4.85353 -4.32609 2.06946 -3.51996 -0.497364 -0.130095 -0.476758 0 0 0 0 0 0 0 0 0 
26.982 1 2427 27.8328 19.8613 10.8828 -4.99268 9.24539 3.70381 -0.58268 -0.101861 0.258854 0 0 0 0 0 0 0 0 0 
26.982 1 71 31.956 4.99421 2.26603 -0.847766 -3.2313 -5.50385 -0.3658 0.660537 -0.156327 0 0 0 0 0 0 0 0 0 
26.982 1 230 31.6384 3.2955 4.26606 -1.81236 -0.345029 -0.189687 0.313298 -0.465063 0.125448 0 0 0 0 0 0 0 0 0 
26.982 1 273 33.7783 4.94848 5.10755 -1.64287 1.17955 2.80433 0.621701 -0.642764 -0.170576 0 0 0 0 0 0 0 0 0 
26.982 1 36 34.4947 2.8078 3.40008 1.77945 -1.99471 1.47494 -0.0926889 0.207482 0.31091 0 0 0 0 0 0 0 0 0 
26.982 1 833 32.943 1.42545 15.786 -2.19662 -2.5223 -4.73758 -0.0865062 -0.564159 0.0449024 0 0 0 0 0 0 0 0 0 
26.982 1 2823 23.5693 19.3585 18.8787 -0.985982 1.6111 1.46375 0.125655 0.0469889 0.233973 0 0 0 0 0 0 0 0 0 
26.982 1 75 36.1746 5.15518 3.35252 5.24147 -2.60582 7.13033 0.377001 -0.13052 0.216676 0 0 0 0 0 0 0 0 0 
26.982 1 234 36.2893 3.26046 5.50319 -8.35841 -1.4423 0.235517 0.238914 0.258127 -0.083022 0 0 0 0 0 0 0 0 0 
26.982 1 40 38.7069 3.35647 3.28972 4.85532 -1.71776 -6.44669 0.0463311 0.244993 0.218371 0 0 0 0 0 0 0 0 0 
26.982 1 277 39.654 4.11156 5.92437 6.28012 -3.8636 -3.07255 -0.188169 0.162236 0.269864 0 0 0 0 0 0 0 0 0 
26.982 1 33 34.7463 1.032 1.35579 5.08324 2.45717 -2.48642 0.139241 -0.431046 0.0730979 0 0 0 0 0 0 0 0 0 
26.982 1 2025 25.3917 20.0309 1.25494 -0.591877 9.59594 0.0963402 0.252127 0.780511 -0.169677 0 0 0 0 0 0 0 0 0 
26.982 1 237 38.7552 1.68882 5.36804 -3.26305 -4.54923 -0.308903 0.17288 -0.75671 0.150865 0 0 0 0 0 0 0 0 0 
26.982 1 37 39.0169 1.43316 1.41365 1.11647 -3.95767 -4.76058 -0.182655 -0.117321 -0.0950826 0 0 0 0 0 0 0 0 0 
26.982 1 41 43.4656 4.87665 1.70758 -3.72572 -1.64761 -3.20429 0.286183 -0.209159 -0.277592 0 0 0 0 0 0 0 0 0 
26.982 1 4 44.1015 2.94132 3.8151 7.44507 -0.0563337 4.03614 -0.142841 -0.0337339 -0.0140623 0 0 0 0 0 0 0 0 0 
26.982 1 241 -3.02734 5.82871 3.87968 2.45248 3.53227 0.842736 0.0928409 -0.0837041 0.703996 0 0 0 0 0 0 0 0 0 
26.982 1 79 41.6913 4.54213 3.98577 0.141133 0.734288 -1.61186 0.134539 0.44945 -0.095225 0 0 0 0 0 0 0 0 0 
26.982 1 238 42.065 2.68316 5.91306 -4.76366 0.975583 -1.28054 -0.13161 -0.139717 0.321264 0 0 0 0 0 0 0 0 0 
26.982 1 142 21.2569 15.2496 1.92287 3.8292 -2.83365 -6.76995 0.252384 -0.230827 0.407323 0 0 0 0 0 0 0 0 0 
26.982 1 39 41.0822 1.72697 3.40065 2.79757 4.12353 -1.13149 0.107515 0.0401143 0.0577342 0 0 0 0 0 0 0 0 0 
26.982 1 90 8.93061 10.9672 1.22498 1.15655 2.11913 -7.0675 0.0659623 0.75103 1.13671 0 0 0 0 0 0 0 0 0 
26.982 1 83 -0.207497 9.50251 3.57005 -3.53799 -2.66593 0.387914 0.00902965 -0.0444855 -0.17076 0 0 0 0 0 0 0 0 0 
26.982 1 242 -0.642385 6.06585 5.714 1.39227 2.31224 -3.4627 0.109363 0.0610671 0.302527 0 0 0 0 0 0 0 0 0 
26.982 1 281 -2.55055 8.13946 5.72201 -2.47007 -4.49102 6.57088 0.254403 -0.23898 0.621849 0 0 0 0 0 0 0 0 0 
26.982 1 282 -1.83896 11.1507 4.65263 -1.06843 3.40437 -2.61539 -0.286808 0.313276 -0.181331 0 0 0 0 0 0 0 0 0 
26.982 1 48 2.22421 6.34376 2.85509 7.88684 -1.17427 -1.68843 -0.13194 0.93184 -1.20982 0 0 0 0 0 0 0 0 0 
26.982 1 285 1.68809 8.26158 5.13393 -0.0796317 -5.1001 -0.736133 -0.168816 -0.593509 0.413504 0 0 0 0 0 0 0 0 0 
26.982 1 87 4.56712 7.68902 2.71472 -1.22802 5.27156 4.05731 0.710603 -0.125273 0.683381 0 0 0 0 0 0 0 0 0 
26.982 1 246 4.30649 7.09608 5.37023 0.507689 -3.26787 1.39643 -0.038951 -0.117954 0.428364 0 0 0 0 0 0 0 0 0 
26.982 1 88 2.52215 9.14796 2.84355 -8.19201 0.498371 2.30741 -0.380551 0.931255 -0.290746 0 0 0 0 0 0 0 0 0 
26.982 1 286 4.62661 9.90864 4.9005 5.4551 0.461565 -1.03987 -0.179405 -0.362892 -0.314408 0 0 0 0 0 0 0 0 0 
26.982 1 86 4.78701 10.4392 1.91946 -8.82289 0.198446 -1.65909 0.201388 -0.562468 -0.519148 0 0 0 0 0 0 0 0 0 
26.982 1 289 6.86411 8.17392 4.58226 1.57091 2.5392 4.04144 0.214873 0.192991 -0.150097 0 0 0 0 0 0 0 0 0 
26.982 1 52 6.68949 6.13271 2.52676 -3.83289 -4.47435 -2.17326 0.88748 -0.306234 0.0670844 0 0 0 0 0 0 0 0 0 
26.982 1 91 9.64256 9.09669 3.53743 1.51157 -1.01272 -2.72098 -0.79126 -0.625361 -0.0389624 0 0 0 0 0 0 0 0 0 
26.982 1 250 9.18433 6.39204 4.41728 -0.66497 -0.782156 -3.73478 0.0472869 0.10744 -0.35634 0 0 0 0 0 0 0 0 0 
26.982 1 89 7.20115 8.81913 1.67542 3.67978 5.94841 2.34492 -0.25398 -0.125136 0.292954 0 0 0 0 0 0 0 0 0 
26.982 1 50 9.49371 7.12898 1.53335 -1.97665 -0.500446 1.93226 0.44867 -0.109344 0.269095 0 0 0 0 0 0 0 0 0 
26.982 1 293 11.8556 9.3186 5.26747 1.36529 4.78856 -0.755312 -0.130571 0.0209848 0.18182 0 0 0 0 0 0 0 0 0 
26.982 1 56 11.7429 7.06318 3.33711 4.46223 3.2859 -3.11341 0.00920244 0.492538 0.097955 0 0 0 0 0 0 0 0 0 
26.982 1 95 13.5569 9.38342 2.90632 1.5799 -7.38597 -3.73379 0.371661 0.155732 0.459243 0 0 0 0 0 0 0 0 0 
26.982 1 227 27.0585 1.56512 7.80649 -5.46244 7.14163 9.09828 -0.166946 -0.419418 -0.251771 0 0 0 0 0 0 0 0 0 
26.982 1 254 13.9889 7.32816 5.10995 1.81698 -0.913138 1.13805 -0.210982 -0.0600925 0.15072 0 0 0 0 0 0 0 0 0 
26.982 1 60 16.1326 7.08116 3.34107 -4.36964 2.91927 -1.04527 0.020482 0.25906 -0.0571385 0 0 0 0 0 0 0 0 0 
26.982 1 297 15.6159 9.57309 4.86118 3.53946 0.048199 2.76522 -0.0550266 0.192624 -0.601407 0 0 0 0 0 0 0 0 0 
26.982 1 2825 25.6655 19.5755 17.021 5.59078 1.49047 -1.43079 0.101126 0.0172424 -0.697686 0 0 0 0 0 0 0 0 0 
26.982 1 97 15.977 9.14866 1.47815 -8.6994 0.926606 3.45086 0.0153595 -0.146325 0.55394 0 0 0 0 0 0 0 0 0 
26.982 1 99 18.3589 9.35549 3.52853 1.16041 2.88785 -1.18153 -0.43534 -0.488872 0.0339305 0 0 0 0 0 0 0 0 0 
26.982 1 258 18.3312 6.98893 5.14071 6.05574 -4.13652 3.31073 0.281554 0.265968 0.251646 0 0 0 0 0 0 0 0 0 
26.982 1 64 20.3404 6.96719 3.13976 -6.5556 -0.278545 -3.48176 0.377323 0.149641 -0.178194 0 0 0 0 0 0 0 0 0 
26.982 1 301 20.6693 9.10584 5.0245 -3.64443 0.814363 -0.497683 -0.15036 -0.849405 0.0660544 0 0 0 0 0 0 0 0 0 
26.982 1 103 22.6628 8.78603 2.743 -1.50627 1.00162 -1.72402 -0.230541 -0.0611071 0.306825 0 0 0 0 0 0 0 0 0 
26.982 1 262 22.7464 6.78703 4.79424 -1.56515 6.30485 3.58328 -0.0180748 0.0642192 -0.153276 0 0 0 0 0 0 0 0 0 
26.982 1 305 25.0611 8.44707 4.78317 2.64779 -6.43264 -5.73566 -0.206879 0.100686 -0.0874345 0 0 0 0 0 0 0 0 0 
26.982 1 68 24.8657 6.4056 2.73756 0.200461 1.28548 1.8957 0.0852033 0.375345 0.254508 0 0 0 0 0 0 0 0 0 
26.982 1 431 31.0987 1.99678 11.6406 0.226 0.922908 0.300122 0.138238 -0.0220206 0.406538 0 0 0 0 0 0 0 0 0 
26.982 1 77 38.6999 5.40088 1.50965 -1.18993 0.632702 -3.15419 -0.160429 -0.275391 -0.705124 0 0 0 0 0 0 0 0 0 
26.982 1 107 27.0436 8.41474 2.81264 2.79265 -1.05511 0.963646 -0.244014 -0.53878 -0.331529 0 0 0 0 0 0 0 0 0 
26.982 1 266 27.0128 6.22159 4.67909 0.938249 0.247391 2.34691 0.353369 0.258602 0.270343 0 0 0 0 0 0 0 0 0 
26.982 1 72 29.2772 6.47454 2.73288 2.5484 4.89346 0.0113117 -0.202379 -0.892477 -0.127712 0 0 0 0 0 0 0 0 0 
26.982 1 309 29.4496 8.1737 4.83846 1.43435 -2.5293 -4.93865 -0.0280929 -0.491973 0.223788 0 0 0 0 0 0 0 0 0 
26.982 1 112 29.2606 10.0538 2.92803 7.55504 -3.49572 -0.153605 0.522405 0.695519 -0.565227 0 0 0 0 0 0 0 0 0 
26.982 1 631 30.6051 1.06336 14.2816 0.903256 -0.527849 -3.31719 0.0985015 -0.288127 -0.235037 0 0 0 0 0 0 0 0 0 
26.982 1 45 0.0478187 5.20519 1.49244 4.95878 -4.4628 2.83503 0.0993412 0.0616591 -0.954331 0 0 0 0 0 0 0 0 0 
26.982 1 2417 15.8662 20.0617 8.8445 0.75885 2.79317 1.79465 -0.501089 -0.336102 0.167854 0 0 0 0 0 0 0 0 0 
26.982 1 111 31.4459 8.24388 2.7329 0.974901 -3.25464 -4.6937 0.174335 -0.0417156 0.319571 0 0 0 0 0 0 0 0 0 
26.982 1 270 31.4369 6.17986 4.81717 3.47373 -3.72708 -5.39595 -0.0370055 0.43917 -0.289276 0 0 0 0 0 0 0 0 0 
26.982 1 76 33.8571 6.72986 2.92028 4.67603 -0.255763 -2.34029 0.280103 0.50825 0.350594 0 0 0 0 0 0 0 0 0 
26.982 1 313 34.0176 7.52801 5.71648 1.04654 -1.44588 6.89543 0.331594 -0.00319578 -0.0896417 0 0 0 0 0 0 0 0 0 
26.982 1 116 34.1429 9.40607 3.83046 -5.0469 -3.64226 -2.15436 0.111165 0.0185386 -0.560582 0 0 0 0 0 0 0 0 0 
26.982 1 310 31.5993 10.1095 4.73291 -3.15321 -4.74165 0.808433 0.00881912 -0.0580985 0.130037 0 0 0 0 0 0 0 0 0 
26.982 1 433 34.3108 0.93986 8.96292 -0.584623 -2.30975 5.05666 0.0904297 0.308067 0.306411 0 0 0 0 0 0 0 0 0 
26.982 1 115 36.7497 7.88056 3.96112 -0.166294 -0.44379 -1.21378 -0.303204 0.236884 -0.417383 0 0 0 0 0 0 0 0 0 
26.982 1 274 36.745 6.08963 5.90205 -1.40951 -2.16815 5.25301 -0.212239 -0.344884 0.322365 0 0 0 0 0 0 0 0 0 
26.982 1 80 39.0086 5.96819 4.1415 -2.903 0.258704 -4.52022 0.0525179 -0.243244 0.228363 0 0 0 0 0 0 0 0 0 
26.982 1 317 39.6945 8.38075 5.06116 2.07778 -1.25237 8.79731 0.01719 0.663288 -0.245407 0 0 0 0 0 0 0 0 0 
26.982 1 117 38.9806 7.84515 2.32525 -3.34287 4.48425 -1.54986 -0.0921497 1.16991 -0.394697 0 0 0 0 0 0 0 0 0 
26.982 1 314 36.8134 9.03348 6.3132 -0.354505 -4.78895 0.998523 -0.915138 0.11816 0.0256958 0 0 0 0 0 0 0 0 0 
26.982 1 6 4.48102 2.95167 1.3165 -1.46966 0.483227 -1.51521 -0.282333 -1.10173 0.202413 0 0 0 0 0 0 0 0 0 
26.982 1 114 36.5861 9.74922 1.8738 2.13963 0.419674 -0.822522 0.0172535 -0.0319212 -0.198482 0 0 0 0 0 0 0 0 0 
26.982 1 78 41.4105 6.52728 2.03754 -3.91766 -7.2999 -3.3692 -0.0990633 0.118691 0.269697 0 0 0 0 0 0 0 0 0 
26.982 1 44 -3.0347 8.83174 3.3916 0.844849 2.24475 -1.40522 -0.002662 0.365103 -0.476219 0 0 0 0 0 0 0 0 0 
26.982 1 119 41.4526 9.37535 2.89112 -0.53018 0.236052 -0.570025 0.115845 -0.531633 0.295551 0 0 0 0 0 0 0 0 0 
26.982 1 278 42.4937 7.47779 4.68865 -3.28978 -7.84695 -1.2955 -0.413319 -0.16004 -0.078561 0 0 0 0 0 0 0 0 0 
26.982 1 84 43.5191 11.3497 2.60572 0.910741 -9.10721 -3.45622 0.422436 0.271564 0.110082 0 0 0 0 0 0 0 0 0 
26.982 1 318 41.1995 11.5844 4.51528 -0.462832 -1.06956 6.31326 -0.623197 0.269684 -0.314953 0 0 0 0 0 0 0 0 0 
26.982 1 123 -1.03334 12.3465 2.18834 -5.32291 -1.91345 -1.74591 0.120368 -0.490352 0.221505 0 0 0 0 0 0 0 0 0 
26.982 1 322 -1.46366 14.1316 4.22426 7.18653 -0.32154 -2.87467 0.0756384 -0.35969 -0.58592 0 0 0 0 0 0 0 0 0 
26.982 1 122 -0.662845 15.1832 1.8566 -5.55248 3.31313 4.06925 0.757587 -0.396542 -0.352434 0 0 0 0 0 0 0 0 0 
26.982 1 361 43.3596 15.5001 4.12836 4.83137 -0.263031 -1.12961 -0.0211843 0.226576 0.0484491 0 0 0 0 0 0 0 0 0 
26.982 1 325 0.971016 11.8279 4.11252 5.42748 -3.41163 0.342469 -0.0756234 -0.692995 -0.31015 0 0 0 0 0 0 0 0 0 
26.982 1 128 1.42363 14.2113 3.37615 5.81965 -4.84014 -2.16976 0.623866 0.779411 -0.438133 0 0 0 0 0 0 0 0 0 
26.982 1 127 4.5587 12.384 3.66041 1.47872 -3.34356 0.460207 -0.117888 0.615859 0.111925 0 0 0 0 0 0 0 0 0 
26.982 1 326 4.69344 14.3551 5.67896 -0.142698 4.6245 -2.29928 -0.420119 0.0591009 -0.338022 0 0 0 0 0 0 0 0 0 
26.982 1 125 2.45298 11.9572 1.73856 0.0152547 -7.1239 4.0744 0.69819 0.448257 1.06789 0 0 0 0 0 0 0 0 0 
26.982 1 126 3.99379 14.4332 1.51764 0.0630213 -3.63524 0.0212565 0.0873104 -0.580498 0.199976 0 0 0 0 0 0 0 0 0 
26.982 1 101 20.1048 9.29937 1.3034 -3.25519 -3.10969 7.2788 0.471066 -0.580667 -0.0823131 0 0 0 0 0 0 0 0 0 
26.982 1 290 9.40479 11.0304 5.42291 -3.77865 -1.28007 0.484603 0.159483 -0.136976 0.1513 0 0 0 0 0 0 0 0 0 
26.982 1 92 7.0626 10.8982 3.4042 3.7093 -1.24406 -1.62648 -0.0388305 -0.410196 0.389583 0 0 0 0 0 0 0 0 0 
26.982 1 329 7.1194 12.7264 5.33856 0.137102 6.07991 -4.08806 -0.278599 0.12611 0.692398 0 0 0 0 0 0 0 0 0 
26.982 1 132 6.40176 14.5051 3.40603 9.739 -1.65239 6.82015 -0.225837 0.488317 0.233332 0 0 0 0 0 0 0 0 0 
26.982 1 131 8.90564 12.9139 3.35069 3.22174 -5.25006 -1.72678 0.236833 0.259436 -0.488708 0 0 0 0 0 0 0 0 0 
26.982 1 201 -3.41499 1.02903 6.04918 -4.87606 -7.61948 0.765118 -0.128047 -0.716744 -0.50034 0 0 0 0 0 0 0 0 0 
26.982 1 3033 34.783 19.9621 20.1087 4.25462 1.72075 -3.74604 0.779281 0.203049 -0.237439 0 0 0 0 0 0 0 0 0 
26.982 1 294 13.3821 11.5812 4.85039 5.08748 0.57718 -2.97286 0.17045 0.0270378 0.0828706 0 0 0 0 0 0 0 0 0 
26.982 1 96 11.2271 11.0889 3.03794 2.5787 1.22265 -1.92174 -0.0497177 1.06134 0.541342 0 0 0 0 0 0 0 0 0 
26.982 1 333 11.122 13.3539 5.23249 1.81915 0.909375 1.19487 -0.111906 -0.566644 -0.640947 0 0 0 0 0 0 0 0 0 
26.982 1 135 12.7993 13.5977 2.87082 1.17039 3.08269 -5.16411 0.0122738 0.0434806 0.106356 0 0 0 0 0 0 0 0 0 
26.982 1 100 15.0853 11.9156 2.56806 1.70014 5.64434 -2.77605 0.529287 -0.391245 0.475368 0 0 0 0 0 0 0 0 0 
26.982 1 337 15.22 13.9676 4.97646 1.48764 1.15086 1.58771 -0.125664 -0.217025 -0.516463 0 0 0 0 0 0 0 0 0 
26.982 1 139 16.6701 14.0817 2.33063 2.04177 1.73487 0.824798 0.397923 -0.261164 0.404623 0 0 0 0 0 0 0 0 0 
26.982 1 298 17.6554 11.8711 4.58252 -2.38508 -2.3501 -5.09215 -0.207115 0.0887573 -0.183208 0 0 0 0 0 0 0 0 0 
26.982 1 2627 27.8483 19.7697 14.6801 4.29459 -3.93421 -4.17958 -0.384599 0.009021 0.162318 0 0 0 0 0 0 0 0 0 
26.982 1 104 20.5398 11.2293 3.06714 -3.60172 2.17016 -1.86987 0.20456 0.137635 0.204183 0 0 0 0 0 0 0 0 0 
26.982 1 338 17.9759 14.7175 5.01913 -4.92608 4.0136 -0.553383 -0.151812 0.154005 -0.00671479 0 0 0 0 0 0 0 0 0 
26.982 1 341 20.1309 13.7585 4.0734 1.98773 5.30937 -3.64041 0.686575 -0.406602 -0.38965 0 0 0 0 0 0 0 0 0 
26.982 1 144 18.299 16.2227 2.28877 -0.209339 -1.95733 -6.57784 0.581637 -0.14404 0.431192 0 0 0 0 0 0 0 0 0 
26.982 1 302 22.8568 10.6533 4.89477 -0.893635 -3.06148 -4.73671 0.645071 0.0456004 -0.26711 0 0 0 0 0 0 0 0 0 
26.982 1 108 24.8255 10.505 2.74698 3.75954 5.67802 -2.36432 0.422779 0.0625312 0.506752 0 0 0 0 0 0 0 0 0 
26.982 1 143 23.1116 12.7709 2.79903 -4.76131 -3.18362 0.500008 -0.515271 0.205644 -0.0835813 0 0 0 0 0 0 0 0 0 
26.982 1 342 23.0848 14.4217 5.08286 -0.23723 -0.629091 2.96685 0.0801088 0.158365 -0.0528308 0 0 0 0 0 0 0 0 0 
26.982 1 148 25.4293 14.3592 2.9714 -6.01898 2.08953 -0.391154 -0.354704 0.0666783 -0.240531 0 0 0 0 0 0 0 0 0 
26.982 1 345 25.1605 12.3255 4.87872 3.481 -4.51836 -2.46477 0.163568 0.0365843 -0.131284 0 0 0 0 0 0 0 0 0 
26.982 1 306 27.3494 10.1182 4.83097 -1.81554 -5.61165 2.26506 -0.357395 0.561985 0.351433 0 0 0 0 0 0 0 0 0 
26.982 1 147 27.4002 12.2309 2.97084 1.44162 -6.04496 -2.28158 -0.172932 -0.159887 -0.130056 0 0 0 0 0 0 0 0 0 
26.982 1 346 27.4545 14.1781 4.85875 -0.557654 -0.784561 -4.33384 0.423363 0.0696623 0.20834 0 0 0 0 0 0 0 0 0 
26.982 1 152 29.506 14.1998 2.83254 1.41151 -1.45914 -0.195257 0.333666 0.0108082 0.622267 0 0 0 0 0 0 0 0 0 
26.982 1 349 29.5892 12.0041 4.97853 2.81106 4.45546 -1.83412 -0.19708 0.52096 -0.677969 0 0 0 0 0 0 0 0 0 
26.982 1 2629 29.9209 19.7631 12.6974 -0.844967 0.0666277 -1.86177 0.119331 -0.187425 -0.181922 0 0 0 0 0 0 0 0 0 
26.982 1 27 27.7081 1.42542 2.77615 2.17337 5.43446 1.57961 0.460844 0.14842 0.064245 0 0 0 0 0 0 0 0 0 
26.982 1 151 31.5068 12.2805 2.83056 -2.1273 -3.04037 -4.17319 -0.164989 -0.572228 -0.263506 0 0 0 0 0 0 0 0 0 
26.982 1 350 31.7876 14.0145 4.87029 -1.98491 -1.36837 -0.277697 -0.384699 0.557102 -0.267571 0 0 0 0 0 0 0 0 0 
26.982 1 156 33.7932 13.9636 2.50546 -2.09831 -3.60454 1.27892 -0.199058 0.0159678 0.243309 0 0 0 0 0 0 0 0 0 
26.982 1 353 33.7568 12.098 4.55822 0.0443689 -3.96445 7.07349 0.139028 -0.110462 -0.336685 0 0 0 0 0 0 0 0 0 
26.982 1 1042 0.0680384 6.65073 19.8305 1.59465 -2.83397 0.344351 0.179646 -0.237094 -0.547373 0 0 0 0 0 0 0 0 0 
26.982 1 2625 25.5021 19.8391 13.1214 0.831023 -4.03258 -1.98366 0.153027 -0.440578 -0.324959 0 0 0 0 0 0 0 0 0 
26.982 1 58 18.1693 7.13217 1.41023 -0.458538 3.14494 -1.63612 0.18917 -0.062631 0.410914 0 0 0 0 0 0 0 0 0 
26.982 1 38 41.0905 3.67062 1.29287 -0.628855 0.892074 -0.622195 -0.982344 0.229211 0.0111244 0 0 0 0 0 0 0 0 0 
26.982 1 120 39.0054 10.6385 3.02747 -5.74472 0.914051 5.82307 -0.000465975 -0.469113 -0.269808 0 0 0 0 0 0 0 0 0 
26.982 1 155 36.3054 11.1133 4.03827 -4.63231 0.0254134 -2.06519 0.106758 -0.204524 0.211584 0 0 0 0 0 0 0 0 0 
26.982 1 354 36.2541 13.7942 4.15002 3.63708 1.53112 4.40686 -0.927737 0.257646 0.25709 0 0 0 0 0 0 0 0 0 
26.982 1 160 38.7544 13.191 3.87412 -4.63216 -6.44154 5.79213 0.86213 0.101412 -0.500267 0 0 0 0 0 0 0 0 0 
26.982 1 357 38.5636 10.9784 5.64767 1.41585 -2.66278 -2.11845 0.14403 -0.0403481 0.153421 0 0 0 0 0 0 0 0 0 
26.982 1 124 -3.22787 14.1772 1.96739 -1.11829 0.413917 -6.33573 0.0734001 -0.440128 -0.177287 0 0 0 0 0 0 0 0 0 
26.982 1 321 43.583 12.8743 4.83547 -2.64667 1.00071 6.545 0.0387178 0.361702 0.399523 0 0 0 0 0 0 0 0 0 
26.982 1 159 41.8544 13.4921 2.5941 4.37189 -1.43128 0.454434 -0.749719 -0.0412155 0.0313609 0 0 0 0 0 0 0 0 0 
26.982 1 358 40.9452 14.434 5.16751 -0.184654 -1.26426 0.466967 0.0915716 -0.0974597 -0.194181 0 0 0 0 0 0 0 0 0 
26.982 1 199 42.0735 16.0307 1.52881 -1.9609 -1.04443 0.835869 0.918062 -0.171702 -0.460422 0 0 0 0 0 0 0 0 0 
26.982 1 163 -1.71324 16.9152 3.36392 1.48603 3.06568 4.05438 -0.763968 0.428769 1.01797 0 0 0 0 0 0 0 0 0 
26.982 1 362 -0.889202 18.6671 5.30997 0.707358 -1.16388 -4.02855 -0.0195965 -0.8175 1.06638 0 0 0 0 0 0 0 0 0 
26.982 1 2621 21.1919 19.5973 12.6048 3.18538 -0.492642 3.19336 -0.0898294 0.119668 0.445369 0 0 0 0 0 0 0 0 0 
26.982 1 1069 28.6007 4.8665 20.0914 3.73439 -4.46411 -8.69964 0.0523733 -0.0486171 -0.38691 0 0 0 0 0 0 0 0 0 
26.982 1 129 6.38854 12.7721 1.31381 3.73599 -1.34105 -1.68997 -0.175455 -0.259064 0.183414 0 0 0 0 0 0 0 0 0 
26.982 1 1033 33.2897 1.41201 19.5733 -0.58352 -0.404227 -4.5182 0.373339 -0.0165251 0.0323449 0 0 0 0 0 0 0 0 0 
26.982 1 629 28.4422 1.08868 12.3741 2.2946 -1.05609 -0.78051 -0.00753997 -0.646938 0.252602 0 0 0 0 0 0 0 0 0 
26.982 1 165 1.83371 16.3652 1.56351 -2.20181 -4.30266 -0.463476 -0.877617 -0.594081 -0.0522329 0 0 0 0 0 0 0 0 0 
26.982 1 365 1.91931 16.2721 5.52023 2.12795 -2.72054 -3.69752 0.138268 -0.553302 -0.144263 0 0 0 0 0 0 0 0 0 
26.982 1 168 1.35987 18.2531 3.75755 6.66422 -0.921402 -2.05619 0.16125 0.183989 -0.26902 0 0 0 0 0 0 0 0 0 
26.982 1 167 3.80726 16.5545 3.31114 5.13849 2.71809 6.61919 0.366753 -0.222927 0.862386 0 0 0 0 0 0 0 0 0 
26.982 1 366 3.84259 18.396 5.71476 4.57831 -1.25615 -0.700303 0.100688 0.372998 -0.617609 0 0 0 0 0 0 0 0 0 
26.982 1 429 29.0494 1.87511 9.6899 3.2186 -2.33178 -1.53831 0.0217108 -0.426462 -0.0703742 0 0 0 0 0 0 0 0 0 
26.982 1 330 8.87643 14.8915 5.39716 -2.67059 -2.31021 0.93308 -0.329328 0.19 -0.295542 0 0 0 0 0 0 0 0 0 
26.982 1 369 6.25504 16.449 5.6135 4.02856 -4.78692 -3.15436 0.284052 0.585306 -0.0543296 0 0 0 0 0 0 0 0 0 
26.982 1 172 5.71998 18.6569 3.63577 -0.309128 0.149019 -0.209543 -0.369813 -0.144073 -0.705406 0 0 0 0 0 0 0 0 0 
26.982 1 171 7.99246 17.034 3.42353 3.49967 1.27777 -0.295601 -0.346382 -0.559345 -0.388307 0 0 0 0 0 0 0 0 0 
26.982 1 370 7.71139 18.9405 5.55745 3.61802 -1.69545 0.373299 0.369697 -0.432579 -0.772328 0 0 0 0 0 0 0 0 0 
26.982 1 162 -0.380423 17.9659 1.44813 3.32787 -1.18198 -1.05917 -0.116266 0.460014 -0.071553 0 0 0 0 0 0 0 0 0 
26.982 1 835 35.2031 1.92966 17.3719 2.91379 2.15255 -4.09689 0.232282 -0.483353 -0.0976331 0 0 0 0 0 0 0 0 0 
26.982 1 136 10.346 15.3255 2.84186 6.73711 1.53796 2.64079 -0.499206 0.0231052 0.643528 0 0 0 0 0 0 0 0 0 
26.982 1 334 12.5554 15.6645 4.64824 -5.5297 3.93703 4.37658 -0.0654047 -0.0516441 -0.2089 0 0 0 0 0 0 0 0 0 
26.982 1 176 9.51712 19.2073 2.85375 1.30972 0.632873 2.6397 0.350731 0.45401 1.00066 0 0 0 0 0 0 0 0 0 
26.982 1 373 10.1516 17.2816 4.93619 -2.37534 5.93531 5.82141 0.106342 0.15788 0.272717 0 0 0 0 0 0 0 0 0 
26.982 1 175 11.9615 17.6757 2.7386 3.06714 -4.93551 -2.31714 0.303284 0.164403 0.156222 0 0 0 0 0 0 0 0 0 
26.982 1 374 11.8288 19.6653 4.86999 3.12226 -2.1821 -5.8246 -0.269635 0.389574 -0.764508 0 0 0 0 0 0 0 0 0 
26.982 1 140 14.6095 15.9344 2.6151 -3.70329 2.88166 0.156289 -0.729182 -0.430759 0.0681654 0 0 0 0 0 0 0 0 0 
26.982 1 377 14.1302 18.2238 4.6006 1.75671 6.84825 -2.74861 -0.289664 -0.126044 -0.463737 0 0 0 0 0 0 0 0 0 
26.982 1 179 16.3161 16.6596 4.37948 0.410894 3.92531 -0.230353 0.116749 0.0394328 0.208308 0 0 0 0 0 0 0 0 0 
26.982 1 2801 42.9288 20.1479 15.2954 -3.91763 5.10805 0.390897 0.0106913 0.20144 0.116604 0 0 0 0 0 0 0 0 0 
26.982 1 178 16.1798 18.4049 2.1219 0.863904 4.38633 -6.09882 -0.499622 -0.15282 -0.38188 0 0 0 0 0 0 0 0 0 
26.982 1 378 18.3646 18.5906 3.51126 0.186609 8.1775 2.09878 0.458279 0.883743 0.211331 0 0 0 0 0 0 0 0 0 
26.982 1 381 20.8032 16.3462 4.47394 3.2398 1.61606 -10.8077 -0.502232 0.12908 0.466186 0 0 0 0 0 0 0 0 0 
26.982 1 184 20.7178 18.1226 2.27565 1.48089 -0.895024 -2.11186 0.0553348 -0.354528 -0.41236 0 0 0 0 0 0 0 0 0 
26.982 1 183 23.2451 16.4108 3.08449 -4.10346 -2.8861 4.73625 0.666541 -0.156171 0.0981314 0 0 0 0 0 0 0 0 0 
26.982 1 382 22.8603 19.05 3.86161 -2.53027 3.92943 3.39051 0.216623 0.415403 -0.276724 0 0 0 0 0 0 0 0 0 
26.982 1 385 25.5938 16.0972 5.06941 -1.3378 -2.02839 1.62821 -0.119512 0.252868 -0.0982364 0 0 0 0 0 0 0 0 0 
26.982 1 188 25.5851 18.0631 3.05395 2.71896 0.205992 -4.98292 -0.22682 -0.0800322 0.3528 0 0 0 0 0 0 0 0 0 
26.982 1 2225 25.4328 20.1447 4.7299 -3.9617 1.68288 3.48445 0.094318 0.385841 -0.162571 0 0 0 0 0 0 0 0 0 
26.982 1 53 11.7224 5.05578 1.5476 1.33434 2.9521 -3.56016 -0.0756394 -0.0508275 -0.328427 0 0 0 0 0 0 0 0 0 
26.982 1 427 26.351 0.997315 10.4714 -3.28452 -1.41132 3.72983 0.274015 -0.635319 0.625807 0 0 0 0 0 0 0 0 0 
26.982 1 2229 29.8148 20.2737 4.96768 -3.47365 3.82013 5.24895 0.0115061 -0.317129 -0.393609 0 0 0 0 0 0 0 0 0 
26.982 1 187 27.662 16.2597 2.90643 -1.54776 0.57824 2.30081 -0.166622 -0.0443991 0.55969 0 0 0 0 0 0 0 0 0 
26.982 1 386 27.6955 18.1574 4.98421 -8.69588 -5.40429 3.98851 -0.201434 -0.1883 -0.0103074 0 0 0 0 0 0 0 0 0 
26.982 1 192 29.5961 18.2374 3.0549 -5.2462 -0.428013 0.653099 0.603509 0.101193 -0.319462 0 0 0 0 0 0 0 0 0 
26.982 1 389 29.7997 16.0465 5.04995 0.2138 -2.40974 1.77716 -0.502057 -0.0384938 -0.388543 0 0 0 0 0 0 0 0 0 
26.982 1 2027 27.5743 20.1486 3.07986 -3.53024 -3.31378 1.92461 0.204424 0.456353 -0.435655 0 0 0 0 0 0 0 0 0 
26.982 1 154 36.3031 14.4369 1.33035 -3.85192 6.15356 -4.74331 0.285474 -0.341201 -0.467243 0 0 0 0 0 0 0 0 0 
26.982 1 2423 23.4007 19.7468 10.8527 -1.26131 -2.18425 -5.1349 -0.0971605 -0.0326279 0.0425427 0 0 0 0 0 0 0 0 0 
26.982 1 1197 39.332 15.6848 19.9272 -1.2087 -3.89113 2.06989 -0.463131 0.421443 -0.26934 0 0 0 0 0 0 0 0 0 
26.982 1 191 31.7721 16.2381 2.84789 8.12644 0.870168 -1.381 0.141062 -0.514534 0.259193 0 0 0 0 0 0 0 0 0 
26.982 1 390 31.7747 18.128 4.73975 0.167912 0.645957 -1.34045 0.429466 0.41966 -0.336374 0 0 0 0 0 0 0 0 0 
26.982 1 393 34.0576 15.8104 4.47446 -1.19698 1.75322 1.41804 -0.49775 0.159127 0.149571 0 0 0 0 0 0 0 0 0 
26.982 1 196 34.3193 18.2434 3.01673 0.498844 -3.58745 -3.51998 -1.08632 -0.337428 0.146328 0 0 0 0 0 0 0 0 0 
26.982 1 30 32.4717 2.53732 1.60843 1.28112 -0.652993 -2.06631 0.102516 0.556067 0.0240063 0 0 0 0 0 0 0 0 0 
26.982 1 811 9.41922 0.896204 18.4228 -0.790925 -7.45081 2.36112 0.238178 -0.27896 0.377572 0 0 0 0 0 0 0 0 0 
26.982 1 195 36.2932 16.3479 3.09474 3.15742 -2.71744 6.61946 0.475793 0.299975 -0.192257 0 0 0 0 0 0 0 0 0 
26.982 1 394 36.4998 18.1486 5.10572 -3.4807 0.760664 -1.77774 0.0603082 0.174349 0.1062 0 0 0 0 0 0 0 0 0 
26.982 1 397 38.6279 16.0025 4.75585 -1.23802 -2.65624 -1.73962 -0.250202 0.235541 0.229007 0 0 0 0 0 0 0 0 0 
26.982 1 200 38.6603 18.1199 2.71068 4.33423 -5.69196 -4.19133 -0.784816 -0.116396 0.0703408 0 0 0 0 0 0 0 0 0 
26.982 1 197 39.7133 15.3808 2.1802 -6.01752 -2.94528 -0.434298 -0.992822 -0.010234 -0.0844536 0 0 0 0 0 0 0 0 0 
26.982 1 229 29.9829 1.20084 5.0956 -3.05837 5.12415 -3.12165 -0.162999 -0.43821 -0.986942 0 0 0 0 0 0 0 0 0 
26.982 1 231 32.1766 1.18987 6.82296 4.15897 5.7121 0.620288 -0.150183 -0.223614 0.0490192 0 0 0 0 0 0 0 0 0 
26.982 1 164 43.2372 18.1496 2.7893 -4.15894 3.32254 -2.14859 0.213423 0.0952323 0.0757478 0 0 0 0 0 0 0 0 0 
26.982 1 398 40.9794 17.3584 4.02783 -3.41825 3.55432 2.65399 0.126734 -0.447966 0.0990809 0 0 0 0 0 0 0 0 0 
26.982 1 166 3.2397 18.476 1.37901 -2.59534 1.4675 -3.26851 0.474049 0.772951 -0.0978946 0 0 0 0 0 0 0 0 0 
26.982 1 153 34.2833 11.4676 1.69896 2.93406 -8.34683 -3.63953 0.0734037 -0.201357 0.0855746 0 0 0 0 0 0 0 0 0 
26.982 1 203 -0.880321 1.23421 6.53382 2.9824 2.00062 -0.392274 -0.362392 1.29428 0.156474 0 0 0 0 0 0 0 0 0 
26.982 1 243 0.394247 3.91725 6.99347 1.84829 -3.94068 -0.165142 -0.410083 -0.572923 -0.759835 0 0 0 0 0 0 0 0 0 
26.982 1 402 0.533973 1.99962 8.9067 -3.6944 0.613799 0.524869 -0.308291 -0.246524 0.0972901 0 0 0 0 0 0 0 0 0 
26.982 1 443 0.521334 4.06292 10.9241 0.351341 -5.90655 1.8967 -0.568479 -0.145133 -0.164504 0 0 0 0 0 0 0 0 0 
26.982 1 401 -2.83412 1.27196 8.85766 6.30386 -0.266226 -0.135158 0.0768346 0.299119 0.0185474 0 0 0 0 0 0 0 0 0 
26.982 1 441 -1.85041 3.8651 9.34318 0.501022 3.64132 0.241609 -0.118389 -0.0212892 -0.256274 0 0 0 0 0 0 0 0 0 
26.982 1 208 2.6474 2.25908 6.81939 3.43893 -0.406383 -0.829793 -0.0535065 0.0385031 -0.147989 0 0 0 0 0 0 0 0 0 
26.982 1 445 2.45497 4.18929 8.94387 1.50236 1.28185 -1.6843 0.421745 -0.249125 -0.583753 0 0 0 0 0 0 0 0 0 
26.982 1 247 4.3159 4.47977 6.6209 2.33433 3.41724 3.42121 0.144403 -0.119258 -0.396742 0 0 0 0 0 0 0 0 0 
26.982 1 406 4.72479 2.36292 8.65945 -0.852863 2.92342 4.13442 0.847503 0.0702336 -0.455986 0 0 0 0 0 0 0 0 0 
26.982 1 408 2.89989 2.00194 10.5013 3.06381 -0.560156 0.53663 -0.113146 0.356753 0.76529 0 0 0 0 0 0 0 0 0 
26.982 1 447 4.94807 4.44617 10.5174 -0.554512 -1.16235 0.633924 -0.242765 -0.344393 -0.513659 0 0 0 0 0 0 0 0 0 
26.982 1 449 6.87215 4.60769 8.1874 -1.9546 2.37732 5.68138 -0.644192 0.0280812 0.209353 0 0 0 0 0 0 0 0 0 