ITEM: TIMESTEP
2650
ITEM: NUMBER OF ATOMS
4000
ITEM: BOX BOUNDS pp pp pp
-0.612787 41.1128
0.116045 40.384
0.115069 40.3849
ITEM: ATOMS mass type id x y z vx vy vz fx fy fz xrad yrad zrad vxrad vyrad vzrad fxrad fyrad fzrad 
26.982 1 3 1.39113 0.175646 2.1896 -1.85652 -7.18726 -4.31388 0.576477 0.0193305 -0.34724 0 0 0 0 0 0 0 0 0 
26.982 1 8 3.53508 2.11761 2.021 -1.40001 2.62253 -1.78184 0.00756385 -0.0966944 0.120897 0 0 0 0 0 0 0 0 0 
26.982 1 43 1.44646 3.96102 2.14438 3.00194 -2.77123 0.596001 -0.136067 0.237729 0.0491025 0 0 0 0 0 0 0 0 0 
26.982 1 202 1.40405 2.07319 4.20934 -3.23303 1.01072 -0.359721 0.180246 -0.0801942 0.0693011 0 0 0 0 0 0 0 0 0 
26.982 1 241 -0.790492 4.05256 4.0378 4.57134 3.31433 0.501259 0.132008 -0.0786777 0.498284 0 0 0 0 0 0 0 0 0 
26.982 1 201 -0.622822 0.114408 4.19477 0.38996 -2.25833 -2.50488 0.0821758 -0.219871 0.191223 0 0 0 0 0 0 0 0 0 
26.982 1 245 3.47192 4.04465 4.07576 2.84763 0.732854 -0.128245 0.0808409 0.28762 0.157401 0 0 0 0 0 0 0 0 0 
26.982 1 47 5.51865 4.16526 2.15973 5.22129 0.57016 -5.91021 0.212175 0.0506847 -0.217513 0 0 0 0 0 0 0 0 0 
26.982 1 206 5.67899 2.12922 4.06464 4.74876 0.874773 -3.29977 0.193416 -0.000861205 0.283679 0 0 0 0 0 0 0 0 0 
26.982 1 6 5.70602 2.30248 0.0351052 -1.65982 1.44335 3.35156 -0.368054 -0.637612 -0.0254501 0 0 0 0 0 0 0 0 0 
26.982 1 12 7.61459 2.14679 2.11041 1.3428 -1.61474 -1.04544 0.458776 0.0191622 -0.239625 0 0 0 0 0 0 0 0 0 
26.982 1 249 7.74112 4.16529 4.14996 -3.6807 2.78319 0.0882785 0.0538832 -0.0584299 -0.321219 0 0 0 0 0 0 0 0 0 
26.982 1 10 9.82513 2.09721 0.0596037 -6.52741 2.5599 -0.537841 -0.408942 0.0713958 -0.0646049 0 0 0 0 0 0 0 0 0 
26.982 1 16 11.7185 2.19661 2.08544 5.33065 -0.943435 0.226178 0.543518 -0.0812958 0.295427 0 0 0 0 0 0 0 0 0 
26.982 1 51 9.73548 4.34802 1.8962 0.686982 -4.05198 -5.26922 -0.291966 -0.509705 0.621509 0 0 0 0 0 0 0 0 0 
26.982 1 53 11.7701 4.09859 0.121904 2.10858 -0.653821 -2.1661 0.490049 0.290327 -0.306436 0 0 0 0 0 0 0 0 0 
26.982 1 210 9.64432 2.15717 3.98537 -0.371365 -0.540004 -0.793883 0.503294 0.24725 0.306761 0 0 0 0 0 0 0 0 0 
26.982 1 13 12.0241 0.180965 -0.112623 -2.92719 6.40815 -3.09407 -0.3307 0.000796954 0.514057 0 0 0 0 0 0 0 0 0 
26.982 1 253 12.0938 4.17757 4.23615 -2.72473 2.09356 4.01677 -0.825534 -0.130089 -0.62845 0 0 0 0 0 0 0 0 0 
26.982 1 20 16.1509 2.1701 2.29122 -0.688134 -3.77284 -5.29016 0.0570903 -0.0162343 -0.389196 0 0 0 0 0 0 0 0 0 
26.982 1 55 13.9826 4.10105 2.06776 -2.17567 1.31418 -6.35388 -0.112449 0.236992 -0.113567 0 0 0 0 0 0 0 0 0 
26.982 1 57 16.1363 4.07018 0.0756828 0.982116 -1.28983 -2.08801 -0.225669 0.304824 -0.105778 0 0 0 0 0 0 0 0 0 
26.982 1 214 13.9948 2.17462 4.0804 2.51527 -1.69829 -0.706506 -0.338355 -0.506076 0.0933562 0 0 0 0 0 0 0 0 0 
26.982 1 257 15.8641 4.16112 4.12377 1.2619 1.88425 -1.75525 0.462266 0.175985 0.283745 0 0 0 0 0 0 0 0 0 
26.982 1 213 11.8476 0.103066 4.16241 4.23666 -1.10649 -0.866842 0.181293 0.301698 -0.514049 0 0 0 0 0 0 0 0 0 
26.982 1 15 14.023 0.264463 1.89804 -0.950919 -1.23725 -2.58664 -0.48063 -0.402527 0.753796 0 0 0 0 0 0 0 0 0 
26.982 1 217 16.0683 0.0309095 4.00387 -6.26694 -1.4857 -1.51863 0.0420459 0.214884 0.285593 0 0 0 0 0 0 0 0 0 
26.982 1 14 14.0183 2.24323 0.0659128 -2.40341 -3.16109 0.725894 -0.242996 0.01032 -0.170047 0 0 0 0 0 0 0 0 0 
26.982 1 218 17.9952 2.25999 4.40128 -0.921232 0.614232 -2.04061 0.160285 -0.417527 -0.650293 0 0 0 0 0 0 0 0 0 
26.982 1 18 18.165 2.18034 -0.0194175 -1.48233 -1.65425 0.959625 0.206483 -0.157691 0.421303 0 0 0 0 0 0 0 0 0 
26.982 1 59 18.1779 4.04907 2.03385 1.32082 -0.725369 -1.83241 0.012395 0.117011 0.433865 0 0 0 0 0 0 0 0 0 
26.982 1 19 18.3136 0.133433 2.19797 -3.30765 1.13515 3.94785 -0.668262 0.0792483 0.0234555 0 0 0 0 0 0 0 0 0 
26.982 1 22 22.389 2.06133 -0.0268262 3.00048 -7.07743 -2.91907 0.0306469 0.220721 0.614273 0 0 0 0 0 0 0 0 0 
26.982 1 24 20.3338 2.03141 2.13294 -2.36295 -4.89619 0.822341 -0.0796375 0.464681 0.203957 0 0 0 0 0 0 0 0 0 
26.982 1 63 22.2273 4.17979 2.09159 0.947667 3.19088 -4.15586 0.52341 -0.68092 0.0433176 0 0 0 0 0 0 0 0 0 
26.982 1 222 22.185 2.16057 4.19796 -6.21827 -0.718641 3.09503 0.0652644 -0.00987248 -0.461398 0 0 0 0 0 0 0 0 0 
26.982 1 261 20.1602 4.08807 4.04118 2.61119 0.604942 -4.08418 -0.119983 0.22427 0.360154 0 0 0 0 0 0 0 0 0 
26.982 1 28 24.3603 2.02706 1.94416 3.36184 -2.75367 -5.00315 0.217642 0.493387 0.478238 0 0 0 0 0 0 0 0 0 
26.982 1 27 26.527 0.0167558 1.8589 -2.21823 2.96153 0.88686 0.0628737 -0.0425902 1.1906 0 0 0 0 0 0 0 0 0 
26.982 1 67 26.418 4.29422 2.01586 5.57666 -4.41511 1.84211 0.162219 -0.528932 0.330405 0 0 0 0 0 0 0 0 0 
26.982 1 226 26.3458 2.12302 4.03162 1.60678 7.18026 0.942342 0.04598 -0.331914 -0.258359 0 0 0 0 0 0 0 0 0 
26.982 1 265 24.3655 4.23104 4.05284 0.185131 2.16102 6.53929 -0.14783 -0.134765 -0.116525 0 0 0 0 0 0 0 0 0 
26.982 1 26 26.4422 1.94103 0.0528946 5.30643 1.2935 -4.96702 0.0295999 0.762696 0.115986 0 0 0 0 0 0 0 0 0 
26.982 1 30 30.6242 2.06396 0.214715 -1.27792 4.60007 -4.12841 -0.179658 -0.0775869 -0.0149338 0 0 0 0 0 0 0 0 0 
26.982 1 32 28.4353 2.1331 2.04673 -2.25868 1.33058 -1.69078 0.0697006 -0.323598 -0.168144 0 0 0 0 0 0 0 0 0 
26.982 1 71 30.7609 4.03154 2.12658 7.98229 2.35697 -3.07298 -0.2595 0.606612 -0.144872 0 0 0 0 0 0 0 0 0 
26.982 1 230 30.576 2.14314 3.88041 5.58974 5.86405 -3.67759 0.0896377 -0.452006 0.646875 0 0 0 0 0 0 0 0 0 
26.982 1 269 28.4765 4.024 3.96762 -3.50201 -0.677207 -1.12743 0.0769962 0.432098 0.549955 0 0 0 0 0 0 0 0 0 
26.982 1 36 32.7744 2.13038 2.13544 1.36069 -2.4427 4.46329 -0.0274622 -0.329951 0.165351 0 0 0 0 0 0 0 0 0 
26.982 1 73 32.6608 4.05361 0.00886575 4.34987 2.22264 -4.95026 0.0395619 0.401486 0.286838 0 0 0 0 0 0 0 0 0 
26.982 1 273 32.6651 4.08778 4.15467 -3.51897 -1.07728 5.64947 0.0253259 -0.0155229 0.282149 0 0 0 0 0 0 0 0 0 
26.982 1 229 28.5468 0.0198564 3.996 2.22163 -1.99564 1.65839 -0.107483 0.157189 0.0636366 0 0 0 0 0 0 0 0 0 
26.982 1 31 30.7348 -0.0267513 2.08906 3.12515 2.73651 1.78123 -0.294251 0.295238 0.229732 0 0 0 0 0 0 0 0 0 
26.982 1 29 28.6035 -0.0343978 0.0912532 -2.77978 3.58834 -5.6812 -0.122147 -0.145988 0.612014 0 0 0 0 0 0 0 0 0 
26.982 1 33 32.651 0.150306 0.0579162 -3.53334 -2.1813 3.99133 0.343701 -0.715489 0.603328 0 0 0 0 0 0 0 0 0 
26.982 1 35 34.8886 0.0982946 2.12269 2.65331 -3.1593 -4.21838 -0.325431 -0.148744 0.123868 0 0 0 0 0 0 0 0 0 
26.982 1 75 34.7572 4.06283 2.07294 5.2709 -2.1132 4.62525 0.285048 0.278161 0.239985 0 0 0 0 0 0 0 0 0 
26.982 1 234 34.7678 2.13499 4.3722 -4.94393 2.54747 -6.75329 0.148054 -0.0400181 -0.471441 0 0 0 0 0 0 0 0 0 
26.982 1 34 34.6685 2.08932 0.189923 -1.54774 3.35458 4.69064 0.581543 -0.270344 -0.0980438 0 0 0 0 0 0 0 0 0 
26.982 1 233 32.7777 0.161842 4.17032 2.49332 -1.39997 -3.84838 -0.165643 -0.0837431 -0.120475 0 0 0 0 0 0 0 0 0 
26.982 1 237 36.7816 0.0614915 4.21319 1.21582 -5.52123 -5.31125 0.236624 0.0721909 -0.166063 0 0 0 0 0 0 0 0 0 
26.982 1 4 41.1007 1.9439 2.1374 4.14644 3.10377 -1.59585 -0.337904 0.51147 0.0526452 0 0 0 0 0 0 0 0 0 
26.982 1 40 36.8473 2.04079 2.25554 -4.27771 -0.0952724 -2.16761 -0.0949446 0.508315 -0.156174 0 0 0 0 0 0 0 0 0 
26.982 1 79 38.7641 4.12958 2.32081 -2.43598 3.06286 0.945286 0.261192 -0.283346 -0.438829 0 0 0 0 0 0 0 0 0 
26.982 1 238 38.9887 1.95844 4.28372 0.132918 -8.63739 3.34751 -0.078293 0.462844 -0.227094 0 0 0 0 0 0 0 0 0 
26.982 1 277 36.7845 4.09219 4.33809 -2.99016 -1.6739 -1.02785 0.214901 -0.252091 -0.359255 0 0 0 0 0 0 0 0 0 
26.982 1 37 36.8701 0.171307 0.0737047 1.6007 -5.58819 0.355408 -0.0104688 -0.239307 0.129909 0 0 0 0 0 0 0 0 0 
26.982 1 38 39.0335 2.04543 0.209942 -0.317926 -1.06396 -5.19371 -0.350244 0.31907 0.0148393 0 0 0 0 0 0 0 0 0 
26.982 1 41 40.9434 4.1024 0.256643 1.45085 -1.31198 1.63826 0.0256009 -0.220731 -0.136548 0 0 0 0 0 0 0 0 0 
26.982 1 83 1.26956 8.18366 2.11249 -2.10008 -2.25787 -2.15781 0.0640737 0.0316826 -0.0182941 0 0 0 0 0 0 0 0 0 
26.982 1 242 1.24217 6.08874 4.17232 -3.30586 -0.454674 -1.04968 0.498248 0.187899 -0.0619107 0 0 0 0 0 0 0 0 0 
26.982 1 44 -0.57567 6.01566 2.13824 -2.40477 -1.06972 -0.596487 -0.545417 0.436505 0.187137 0 0 0 0 0 0 0 0 0 
26.982 1 281 -0.822368 8.18336 4.2018 2.76254 -4.91194 3.85147 0.492932 -0.272102 -0.516272 0 0 0 0 0 0 0 0 0 
26.982 1 48 3.34696 6.12199 2.3455 -1.71018 1.94388 4.11132 -0.0219797 -0.142409 -0.657798 0 0 0 0 0 0 0 0 0 
26.982 1 285 3.52201 8.2818 3.89138 -2.52705 -0.866716 0.213364 0.106529 -0.330386 0.787534 0 0 0 0 0 0 0 0 0 
26.982 1 46 5.41572 6.1415 0.124946 2.90589 0.622667 -4.04914 0.423151 0.0497652 -0.115672 0 0 0 0 0 0 0 0 0 
26.982 1 52 7.59392 6.1861 2.01518 -0.23415 5.85793 -1.57079 0.229376 -0.0556434 0.0568883 0 0 0 0 0 0 0 0 0 
26.982 1 87 5.58777 8.054 2.05851 0.436517 2.08261 1.27414 0.150061 0.74256 -0.157457 0 0 0 0 0 0 0 0 0 
26.982 1 86 5.56425 10.4258 0.00371772 -3.39431 -0.895314 0.016679 0.317475 -0.40237 -0.0230306 0 0 0 0 0 0 0 0 0 
26.982 1 246 5.5871 6.18009 4.04822 -5.88713 -0.320794 -6.67848 0.0134709 -0.112425 0.233128 0 0 0 0 0 0 0 0 0 
26.982 1 289 7.82355 8.26226 4.17586 -3.65004 2.22365 3.61017 -0.394237 -0.142316 -0.251733 0 0 0 0 0 0 0 0 0 
26.982 1 286 5.63505 10.1706 4.24108 -0.203905 4.35809 1.77367 -0.351739 -0.0182517 -0.468531 0 0 0 0 0 0 0 0 0 
26.982 1 56 11.861 6.06011 2.04616 -0.201192 0.378687 -1.1882 0.136799 0.267166 0.247352 0 0 0 0 0 0 0 0 0 
26.982 1 91 9.76135 8.17729 2.26327 0.420492 -2.00133 5.91305 -0.0746161 0.035145 -0.656308 0 0 0 0 0 0 0 0 0 
26.982 1 250 9.74164 6.14592 4.10753 -2.60265 4.97092 1.22651 0.286746 -0.131423 0.0294748 0 0 0 0 0 0 0 0 0 
26.982 1 293 11.8515 8.11449 4.05246 -1.12353 -0.337442 3.8701 0.0221693 -0.257644 0.453915 0 0 0 0 0 0 0 0 0 
26.982 1 50 9.83529 6.38227 0.0610771 6.08489 1.48204 0.632504 -0.0429358 -0.319357 -0.0471017 0 0 0 0 0 0 0 0 0 
26.982 1 95 13.8758 8.14315 2.16284 0.555041 -0.385499 5.24281 0.648936 -0.0659587 -0.0890983 0 0 0 0 0 0 0 0 0 
26.982 1 254 13.9755 6.1813 4.1388 -0.16431 -3.62872 2.26228 0.114693 0.0793599 -0.119955 0 0 0 0 0 0 0 0 0 
26.982 1 94 14.1079 10.2288 0.0333351 0.320191 3.81012 3.46072 0.0713068 -0.236344 0.519976 0 0 0 0 0 0 0 0 0 
26.982 1 96 11.8685 10.0758 2.29869 -0.392891 -0.79782 1.46802 -0.12606 0.713248 -0.460006 0 0 0 0 0 0 0 0 0 
26.982 1 100 16.0974 9.96392 2.15021 -1.48228 5.60754 -0.566296 -0.0876972 0.837622 -0.179066 0 0 0 0 0 0 0 0 0 
26.982 1 294 13.9937 10.1258 4.1742 0.458694 7.30472 0.925983 0.0356749 0.341658 -0.0558017 0 0 0 0 0 0 0 0 0 
26.982 1 98 18.217 10.255 -0.0442473 2.75462 -5.85542 0.483285 -0.335037 -0.390541 0.220798 0 0 0 0 0 0 0 0 0 
26.982 1 60 16.1142 6.09843 2.12831 1.35531 -1.36444 5.10168 -0.0973372 0.316761 -0.177734 0 0 0 0 0 0 0 0 0 
26.982 1 297 16.0747 8.24961 4.20807 -2.67328 -2.32476 -2.64757 -0.0623829 -0.519041 -0.188213 0 0 0 0 0 0 0 0 0 
26.982 1 99 18.2869 8.09223 1.94092 0.733384 6.05295 -2.42292 -0.199648 -0.0769078 0.322662 0 0 0 0 0 0 0 0 0 
26.982 1 258 18.0557 6.14103 4.13748 1.18672 1.00729 1.1164 0.331054 -0.105828 -0.383959 0 0 0 0 0 0 0 0 0 
26.982 1 301 20.0559 8.32104 4.08948 3.76305 1.5509 0.966919 0.791162 -0.69191 -0.276983 0 0 0 0 0 0 0 0 0 
26.982 1 298 18.1568 10.1913 4.06643 7.2447 -5.77528 -0.0739603 -0.339758 0.0635579 -0.0828518 0 0 0 0 0 0 0 0 0 
26.982 1 101 20.3922 8.21553 0.0855977 3.81121 -2.27828 -0.147577 0.00942797 -0.0947313 0.10755 0 0 0 0 0 0 0 0 0 
26.982 1 64 20.3719 6.03696 2.13665 -0.217394 -0.19568 3.69535 -0.622445 0.712021 -0.0958484 0 0 0 0 0 0 0 0 0 
26.982 1 103 22.2726 8.17131 2.22097 -2.48935 -2.28337 3.21576 -0.0828048 0.134311 -0.25025 0 0 0 0 0 0 0 0 0 
26.982 1 262 22.3067 6.14388 4.17869 0.499812 -5.92803 3.69805 -0.0796014 0.177653 -0.162118 0 0 0 0 0 0 0 0 0 
26.982 1 105 24.4126 8.17021 0.236922 -2.53228 -3.047 -1.81748 0.231284 -0.116417 -0.33432 0 0 0 0 0 0 0 0 0 
26.982 1 302 22.4438 10.261 4.02258 -4.18923 -2.12076 -6.12898 -0.790959 -0.417927 0.237374 0 0 0 0 0 0 0 0 0 
26.982 1 102 22.5003 10.2051 0.116679 4.96979 3.66435 3.71427 -0.602738 -0.192818 0.244047 0 0 0 0 0 0 0 0 0 
26.982 1 68 24.2069 6.1277 1.97085 -2.83448 -0.342971 0.859146 0.674977 0.126086 0.723277 0 0 0 0 0 0 0 0 0 
26.982 1 107 26.4168 8.18587 2.16354 -3.82381 0.212606 0.84483 0.144965 -0.46649 0.168304 0 0 0 0 0 0 0 0 0 
26.982 1 266 26.4292 6.20682 4.17625 6.03765 -0.628602 -6.10811 -0.026112 -0.251696 -0.237758 0 0 0 0 0 0 0 0 0 
26.982 1 305 24.3015 8.13821 4.13194 -3.07848 -4.8025 2.13607 0.445337 0.157725 0.00734837 0 0 0 0 0 0 0 0 0 
26.982 1 106 26.5614 10.1568 0.254743 2.48203 -3.50715 -2.26876 0.178633 -0.184932 -0.388455 0 0 0 0 0 0 0 0 0 
26.982 1 306 26.5646 10.2843 4.19514 -1.75481 0.476294 1.24661 -0.433636 -0.0611254 0.142213 0 0 0 0 0 0 0 0 0 
26.982 1 72 28.6679 6.01966 2.23763 0.271219 2.08737 2.55153 -0.19294 0.379734 -0.155574 0 0 0 0 0 0 0 0 0 
26.982 1 70 30.7242 6.10873 0.31321 -2.67615 -2.64466 2.7619 0.112776 -0.0774977 -0.643965 0 0 0 0 0 0 0 0 0 
26.982 1 111 30.5931 8.16617 2.13403 1.52623 6.93827 -4.50215 0.378409 0.00591603 0.452445 0 0 0 0 0 0 0 0 0 
26.982 1 270 30.6823 6.12714 4.26022 -1.67834 0.424018 2.56773 -0.122261 -0.059199 -0.0858901 0 0 0 0 0 0 0 0 0 
26.982 1 309 28.6063 8.16526 4.04628 3.62586 0.103025 -4.64264 0.0842152 -0.239009 0.492989 0 0 0 0 0 0 0 0 0 
26.982 1 112 28.4307 10.0949 2.29768 0.669141 -1.54343 1.15234 0.440067 0.631518 -0.518992 0 0 0 0 0 0 0 0 0 
26.982 1 76 32.7199 6.15261 2.20503 -1.67936 -1.32018 -2.83343 0.0182631 -0.176364 -0.21331 0 0 0 0 0 0 0 0 0 
26.982 1 113 32.6515 8.3497 0.250588 -0.554518 2.69044 -5.52156 0.186058 -0.287345 0.000106528 0 0 0 0 0 0 0 0 0 
26.982 1 74 34.8915 6.06819 0.0442 3.67403 0.0211895 -2.69077 -0.383368 -0.194613 0.742013 0 0 0 0 0 0 0 0 0 
26.982 1 115 34.7228 7.98347 2.34152 -2.57832 4.92853 7.42889 0.310214 0.303185 -0.632286 0 0 0 0 0 0 0 0 0 
26.982 1 274 34.7214 5.95542 4.23588 2.21094 -0.612435 1.01249 0.0237086 0.346968 -0.211954 0 0 0 0 0 0 0 0 0 
26.982 1 313 32.8132 8.05604 4.29847 -4.07746 -2.10304 0.538145 -0.323719 0.0418543 -0.305671 0 0 0 0 0 0 0 0 0 
26.982 1 117 37.0056 8.10805 0.0657177 2.58778 0.0459186 -0.0814996 -0.374797 -0.105065 0.447281 0 0 0 0 0 0 0 0 0 
26.982 1 120 36.9688 10.06 2.16867 -0.407267 2.14629 4.22676 -0.256705 0.0654006 0.162087 0 0 0 0 0 0 0 0 0 
26.982 1 80 36.8916 6.12656 2.27567 1.41494 -3.36062 -1.9566 -0.269194 -0.183157 -0.548024 0 0 0 0 0 0 0 0 0 
26.982 1 119 39.0015 8.07555 2.0035 1.29398 -1.23446 -0.690838 -0.00609824 0.0915061 0.584348 0 0 0 0 0 0 0 0 0 
26.982 1 278 38.8546 6.15905 4.25519 -0.173759 -1.33432 3.72319 0.435406 -0.363213 -0.363264 0 0 0 0 0 0 0 0 0 
26.982 1 317 36.8157 8.08425 4.16701 1.12441 -2.24391 -2.42267 0.18149 0.532072 0.147568 0 0 0 0 0 0 0 0 0 
26.982 1 81 41.0535 8.13867 0.0820329 -2.70113 -3.51966 1.27798 0.0566976 0.0234471 -0.0162114 0 0 0 0 0 0 0 0 0 
26.982 1 78 39.0033 6.09491 0.175614 1.9419 0.123195 1.96392 -0.161479 -0.191232 -0.0565779 0 0 0 0 0 0 0 0 0 
26.982 1 88 3.5215 10.1593 1.87933 -0.341835 -1.69285 1.22268 0.0566617 -0.00513773 0.38784 0 0 0 0 0 0 0 0 0 
26.982 1 123 1.53848 11.9966 2.18598 -1.29317 -1.98379 -0.225027 -0.554321 0.163506 -0.321821 0 0 0 0 0 0 0 0 0 
26.982 1 128 3.25576 14.14 2.09312 -0.609169 4.76387 1.29953 0.420859 0.304676 0.329075 0 0 0 0 0 0 0 0 0 
26.982 1 282 1.50998 9.98665 4.22372 -0.741274 5.78028 2.60283 -0.550114 0.38861 -0.367115 0 0 0 0 0 0 0 0 0 
26.982 1 322 1.263 14.286 4.20825 6.82127 -3.13119 3.23178 0.654593 -0.298489 -0.610858 0 0 0 0 0 0 0 0 0 
26.982 1 84 -0.829905 10.1824 2.04735 -1.33793 2.72204 -0.0359002 0.581731 -0.343947 0.217361 0 0 0 0 0 0 0 0 0 
26.982 1 124 -0.662269 14.2237 2.0786 -0.966242 -3.6493 -0.150071 -0.0698488 -0.081884 0.03123 0 0 0 0 0 0 0 0 0 
26.982 1 321 -0.580837 12.2227 3.95407 -1.18122 -4.60308 1.50343 -0.0752498 -0.530764 0.479084 0 0 0 0 0 0 0 0 0 
26.982 1 122 1.31401 14.1247 0.175592 -0.714725 0.132757 -2.63854 0.276721 0.0123574 -0.0451633 0 0 0 0 0 0 0 0 0 
26.982 1 125 3.56241 12.3064 0.0955487 2.80095 0.14944 3.58309 -0.53642 -0.44199 -0.500338 0 0 0 0 0 0 0 0 0 
26.982 1 325 3.48793 12.1666 4.16918 3.43283 -2.14039 2.85207 0.273259 0.0142633 -0.258022 0 0 0 0 0 0 0 0 0 
26.982 1 127 5.54859 12.1702 2.1734 -2.65482 1.45206 -2.83878 -0.0771261 0.00780295 -0.191562 0 0 0 0 0 0 0 0 0 
26.982 1 326 5.59246 14.1013 4.0425 2.37102 -7.41936 -0.464908 -0.0271515 0.221742 0.260374 0 0 0 0 0 0 0 0 0 
26.982 1 126 5.41272 14.1693 0.173776 2.05374 0.711533 -0.0907097 0.57886 0.253185 -0.485816 0 0 0 0 0 0 0 0 0 
26.982 1 92 7.55623 10.2474 2.11025 -3.39198 1.03976 0.167524 0.311896 -0.306858 -0.296752 0 0 0 0 0 0 0 0 0 
26.982 1 129 7.67335 12.3612 0.0654965 0.389491 0.39837 -0.752741 -0.0835371 -0.411853 -0.184656 0 0 0 0 0 0 0 0 0 
26.982 1 132 7.70626 14.2232 1.99508 1.33637 0.938762 -0.627036 0.0998731 -0.0157755 0.160931 0 0 0 0 0 0 0 0 0 
26.982 1 329 7.60616 12.1669 4.08311 -2.4903 0.755547 1.69005 0.279908 0.190298 0.0882492 0 0 0 0 0 0 0 0 0 
26.982 1 131 9.80683 12.2648 2.07079 -1.02487 -0.613419 -1.81176 -0.138432 -0.224091 0.0323308 0 0 0 0 0 0 0 0 0 
26.982 1 290 9.74063 10.2559 4.08759 -3.28675 1.39705 -1.4338 -0.183096 0.0518842 0.0807418 0 0 0 0 0 0 0 0 0 
26.982 1 330 9.653 14.2608 4.06951 5.60898 -2.9392 2.09755 0.457249 -0.216344 -0.141224 0 0 0 0 0 0 0 0 0 
26.982 1 134 14.0873 13.9393 0.0527329 2.90799 3.86564 -3.07675 -0.300439 0.687126 -0.096025 0 0 0 0 0 0 0 0 0 
26.982 1 136 11.9653 14.2526 2.07063 -0.815068 -0.725615 3.36115 -0.0958841 -0.401944 0.278259 0 0 0 0 0 0 0 0 0 
26.982 1 333 11.7089 12.1806 4.11045 -1.33396 -2.29473 -0.980334 0.452934 0.264975 -0.0373129 0 0 0 0 0 0 0 0 0 
26.982 1 135 13.8358 12.07 2.04648 -7.29324 -5.77608 -2.8261 0.585309 -0.00082814 0.514756 0 0 0 0 0 0 0 0 0 
26.982 1 140 16.1539 14.1533 1.99643 6.06415 -4.78858 0.460774 -0.0992291 -0.198407 0.562483 0 0 0 0 0 0 0 0 0 
26.982 1 334 13.8638 14.0104 4.10517 4.2043 0.996503 -2.36744 0.359131 0.302122 -0.0460426 0 0 0 0 0 0 0 0 0 
26.982 1 337 16.0985 12.2645 4.20512 -1.23311 0.762674 3.79125 -0.243791 -0.234303 -0.529334 0 0 0 0 0 0 0 0 0 
26.982 1 141 20.1145 12.1759 0.0522116 0.198406 0.34014 -0.186065 0.881365 0.101437 0.410169 0 0 0 0 0 0 0 0 0 
26.982 1 139 18.1982 12.1156 2.03411 -1.6624 0.871116 -1.00557 -0.413408 0.180299 0.333492 0 0 0 0 0 0 0 0 0 
26.982 1 144 20.2903 14.1044 2.00565 -1.51123 3.21695 4.73391 -0.0198856 0.263748 0.764913 0 0 0 0 0 0 0 0 0 
26.982 1 338 18.291 14.127 4.1461 6.04643 -3.48517 -0.322084 -0.305057 0.38427 -0.35977 0 0 0 0 0 0 0 0 0 
26.982 1 138 18.3618 14.3139 0.172243 2.21938 0.00497148 0.606525 -0.702066 -0.103654 -0.467002 0 0 0 0 0 0 0 0 0 
26.982 1 142 22.3345 14.2138 0.0270837 -3.82086 3.60028 2.86206 0.022515 -0.227314 0.142309 0 0 0 0 0 0 0 0 0 
26.982 1 104 20.186 10.1959 2.03127 -4.42788 -0.219709 2.98515 0.436178 0.0378221 0.121946 0 0 0 0 0 0 0 0 0 
26.982 1 143 22.2271 12.2779 1.93134 -0.791458 1.39706 -3.97574 0.416905 -0.317826 0.5226 0 0 0 0 0 0 0 0 0 
26.982 1 341 20.1911 12.0926 4.24323 0.598028 1.08714 -0.232261 0.453667 0.135223 -0.668302 0 0 0 0 0 0 0 0 0 
26.982 1 342 22.2085 14.2011 4.26553 -1.37944 -3.154 1.30629 -0.0974935 0.0171147 -0.347933 0 0 0 0 0 0 0 0 0 
26.982 1 108 24.53 10.2182 2.14901 0.342631 -3.96086 -1.01646 -0.495749 -0.078424 0.153106 0 0 0 0 0 0 0 0 0 
26.982 1 147 26.4212 12.1458 2.13686 -6.32379 3.34028 -1.22762 0.188964 0.499074 0.390229 0 0 0 0 0 0 0 0 0 
26.982 1 148 24.403 14.2334 2.11188 -1.11207 -3.25985 2.40594 -0.211739 -0.254562 -0.158645 0 0 0 0 0 0 0 0 0 
26.982 1 345 24.1393 12.1956 4.16385 -3.87882 -0.647094 2.95096 0.708943 0.233837 -0.236803 0 0 0 0 0 0 0 0 0 
26.982 1 346 26.1521 14.2146 4.14614 2.59068 -2.74415 -4.1693 0.847694 -0.116227 -0.232552 0 0 0 0 0 0 0 0 0 
26.982 1 152 28.5105 14.1785 2.14087 1.48056 6.32422 -5.13032 0.0129883 -0.172051 0.292733 0 0 0 0 0 0 0 0 0 
26.982 1 116 32.7491 10.1954 2.38578 -3.99213 -2.61283 0.756548 0.0240941 -0.140828 -0.548306 0 0 0 0 0 0 0 0 0 
26.982 1 110 30.3969 10.2285 0.278209 -0.562058 0.0705421 4.14331 0.723203 -0.101057 -0.0117405 0 0 0 0 0 0 0 0 0 
26.982 1 149 28.5206 12.2109 0.220997 -1.99137 1.60824 -2.69515 -0.00298523 -0.0454174 -0.0264701 0 0 0 0 0 0 0 0 0 
26.982 1 151 30.6097 12.2096 2.22998 -4.26189 -3.29834 -3.03263 0.0672595 0.259099 -0.137639 0 0 0 0 0 0 0 0 0 
26.982 1 310 30.641 10.2677 4.06155 -0.730415 3.57108 1.21383 -0.222243 -0.194664 0.515027 0 0 0 0 0 0 0 0 0 
26.982 1 349 28.5566 12.3878 4.38275 -3.71083 -0.229853 -0.679276 -0.0893552 -0.458083 -0.805795 0 0 0 0 0 0 0 0 0 
26.982 1 350 30.6142 14.2788 4.32845 5.36691 2.7556 5.4139 0.0558325 -0.0293427 -0.433049 0 0 0 0 0 0 0 0 0 
26.982 1 155 34.7677 12.1986 2.1739 -1.6309 0.909301 0.587047 0.293431 -0.0997854 0.165951 0 0 0 0 0 0 0 0 0 
26.982 1 156 32.6365 14.2988 2.15864 -2.61935 -0.434866 6.48171 0.0945675 -0.526115 0.10682 0 0 0 0 0 0 0 0 0 
26.982 1 314 34.8995 10.1879 4.13827 -5.02095 7.09771 3.85539 0.100689 -0.0806774 0.277318 0 0 0 0 0 0 0 0 0 
26.982 1 353 32.8173 12.2892 4.17747 1.71824 1.81751 -2.42295 -0.252876 0.283636 0.294182 0 0 0 0 0 0 0 0 0 
26.982 1 354 34.8848 14.2815 4.22032 5.29606 5.88097 5.97467 -0.0736805 -0.2495 0.131645 0 0 0 0 0 0 0 0 0 
26.982 1 154 34.8081 14.052 0.205852 2.05124 -2.13347 -0.359896 -0.267596 0.553413 0.0981688 0 0 0 0 0 0 0 0 0 
26.982 1 318 39.0015 10.1144 4.27266 -3.68276 -6.23658 1.48418 -0.180331 0.0670691 -0.140816 0 0 0 0 0 0 0 0 0 
26.982 1 159 38.9599 12.045 2.1715 -2.0669 0.163119 -2.18019 -0.242966 0.396071 -0.146085 0 0 0 0 0 0 0 0 0 
26.982 1 160 36.9892 14.1669 2.23077 -3.00699 0.6609 -0.74792 -0.527572 -0.430113 0.0720987 0 0 0 0 0 0 0 0 0 
26.982 1 357 36.9618 12.0901 4.39699 4.49064 -0.629638 -5.00978 -0.0946144 0.0430373 -0.567139 0 0 0 0 0 0 0 0 0 
26.982 1 358 38.9915 14.0558 4.14954 -4.18061 -0.939077 -4.39771 0.0338863 0.38078 0.195406 0 0 0 0 0 0 0 0 0 
26.982 1 118 38.8855 10.1491 0.00495157 -2.3954 1.5981 1.45672 0.145979 0.0272685 0.343274 0 0 0 0 0 0 0 0 0 
26.982 1 163 1.39875 16.3902 2.23012 -2.25285 0.401352 -2.36774 0.102521 -0.386245 -0.269743 0 0 0 0 0 0 0 0 0 
26.982 1 164 -0.680857 18.2351 2.13672 1.48685 -0.798853 3.06185 0.0295638 -0.426861 -0.204855 0 0 0 0 0 0 0 0 0 
26.982 1 168 3.81294 18.0666 2.18405 -3.14708 1.41537 -0.743239 -0.794013 -0.0880119 -0.0985448 0 0 0 0 0 0 0 0 0 
26.982 1 361 -0.745407 16.167 4.12485 -1.01325 1.23434 -1.85766 0.172647 0.141612 -0.25155 0 0 0 0 0 0 0 0 0 
26.982 1 362 1.68423 18.1801 4.33306 2.77798 -1.4896 5.98463 -0.293984 0.224361 -0.46872 0 0 0 0 0 0 0 0 0 
26.982 1 365 3.46922 16.0323 4.14995 -4.96802 1.91549 -2.88426 0.432879 0.478492 -0.132153 0 0 0 0 0 0 0 0 0 
26.982 1 2003 1.57642 20.1206 2.14319 8.17502 2.68789 -1.27451 0.207459 0.298716 0.146785 0 0 0 0 0 0 0 0 0 
26.982 1 2205 3.87724 20.1639 4.08417 -0.170171 -2.35715 0.107274 -0.880754 -0.0546107 -0.080102 0 0 0 0 0 0 0 0 0 
26.982 1 167 5.69488 16.0748 2.122 1.82483 -2.20675 -1.11268 -0.257439 0.290546 -0.233868 0 0 0 0 0 0 0 0 0 
26.982 1 366 5.85884 18.0583 4.11077 -0.137187 1.11697 6.04783 -0.52081 0.275342 0.246723 0 0 0 0 0 0 0 0 0 
26.982 1 369 7.74284 16.1572 4.04857 -5.63275 1.99452 3.65699 0.23978 -0.235358 -0.110613 0 0 0 0 0 0 0 0 0 
26.982 1 2007 5.6168 19.9532 1.96568 3.05824 0.184123 -4.70439 0.618701 0.922548 0.444246 0 0 0 0 0 0 0 0 0 
26.982 1 165 3.52371 16.2057 0.083678 -1.06233 -0.238648 0.510268 0.0430449 0.00216891 0.173866 0 0 0 0 0 0 0 0 0 
26.982 1 172 7.75125 18.184 2.01548 -5.38893 -0.238976 2.51745 -0.11872 -0.0131339 -0.15184 0 0 0 0 0 0 0 0 0 
26.982 1 171 9.9167 16.2246 1.98786 0.837619 3.42958 -2.19523 -0.27654 -0.283015 0.234229 0 0 0 0 0 0 0 0 0 
26.982 1 370 9.68156 18.2188 3.93919 -2.65837 0.224022 -1.18524 0.596316 -0.175427 0.170322 0 0 0 0 0 0 0 0 0 
26.982 1 2209 7.70969 20.0972 4.20034 1.68785 -2.04659 0.130706 -0.0194427 0.613713 -0.197097 0 0 0 0 0 0 0 0 0 
26.982 1 176 11.9436 18.2638 2.05832 3.47555 -0.369223 5.06625 -0.329275 -0.229079 0.2613 0 0 0 0 0 0 0 0 0 
26.982 1 373 11.809 16.2774 4.13095 2.19678 -0.907492 -2.84568 0.325747 -0.193597 -0.302351 0 0 0 0 0 0 0 0 0 
26.982 1 175 14.1609 16.1676 2.08452 -3.36728 1.3353 0.303077 -0.309773 -0.306981 0.312681 0 0 0 0 0 0 0 0 0 
26.982 1 374 13.9321 18.1921 4.03556 -0.537747 3.95515 -5.42605 0.227388 0.0525206 0.0681278 0 0 0 0 0 0 0 0 0 
26.982 1 377 16.13 16.094 4.16891 -0.543495 0.940616 -5.21418 0.0510326 0.00808986 -0.398425 0 0 0 0 0 0 0 0 0 
26.982 1 2015 14.1662 20.3258 2.0366 -2.22512 6.13272 -3.99912 -0.253028 -0.373259 0.287073 0 0 0 0 0 0 0 0 0 
26.982 1 174 13.9242 18.1663 0.263796 1.34079 -0.0383717 -3.75227 0.432192 0.221307 -0.534032 0 0 0 0 0 0 0 0 0 
26.982 1 2221 20.0948 20.4061 4.07135 -1.38327 3.84858 4.77302 0.5829 -0.326585 0.225657 0 0 0 0 0 0 0 0 0 
26.982 1 177 16.1158 16.0959 0.0696024 1.71054 0.364839 5.64949 -0.0354313 0.0111567 -0.282222 0 0 0 0 0 0 0 0 0 
26.982 1 180 16.1583 18.1589 2.11995 -3.52615 2.29828 -0.37584 0.0236002 0.0570251 -0.131397 0 0 0 0 0 0 0 0 0 
26.982 1 178 18.0973 18.1784 0.076017 -0.0990732 -5.0082 -1.28479 0.255855 0.104445 0.0750406 0 0 0 0 0 0 0 0 0 
26.982 1 179 18.2391 16.1264 2.11871 -1.60537 1.34095 5.79717 -0.0196965 0.365242 0.273025 0 0 0 0 0 0 0 0 0 
26.982 1 184 20.1913 18.303 2.10671 0.197125 4.14645 0.226936 -0.120389 -0.339869 0.189105 0 0 0 0 0 0 0 0 0 
26.982 1 378 18.1954 18.2034 4.1294 -1.43611 0.552512 1.84337 0.100931 -0.240444 -0.0905235 0 0 0 0 0 0 0 0 0 
26.982 1 2017 16.1421 20.1906 -0.0314929 -6.3965 -1.54573 -8.15671 -0.255373 0.115872 0.371335 0 0 0 0 0 0 0 0 0 
26.982 1 2019 18.3417 20.397 2.04321 0.188113 0.369468 -0.703157 -0.653607 -0.295402 -0.204104 0 0 0 0 0 0 0 0 0 
26.982 1 2217 16.2638 20.2285 3.87632 -1.74025 -6.39455 -2.37486 -0.391451 0.169639 0.594597 0 0 0 0 0 0 0 0 0 
26.982 1 183 22.3116 16.1195 2.14194 -4.20868 2.86812 -0.440075 0.00364325 0.311443 0.198034 0 0 0 0 0 0 0 0 0 
26.982 1 381 20.2939 16.2296 4.16453 -1.31483 0.280164 1.51443 -0.129551 0.082475 -0.086099 0 0 0 0 0 0 0 0 0 
26.982 1 382 22.2493 18.4047 4.12487 -0.99978 -2.98926 -1.38728 -0.0799075 -0.408524 -0.174964 0 0 0 0 0 0 0 0 0 
26.982 1 2023 22.2608 20.1999 2.03486 -3.76858 1.06606 2.47158 0.307378 0.763116 0.443337 0 0 0 0 0 0 0 0 0 
26.982 1 188 24.521 18.259 2.30086 -1.99058 -6.80786 4.45012 -0.764719 -0.0236621 -0.537127 0 0 0 0 0 0 0 0 0 
26.982 1 385 24.2623 16.2146 4.13173 0.432887 -3.87785 0.462699 0.0295692 0.281814 0.078419 0 0 0 0 0 0 0 0 0 
26.982 1 187 26.602 16.4023 2.06274 -2.3682 0.244671 3.8933 -0.984884 -0.754022 -0.033115 0 0 0 0 0 0 0 0 0 
26.982 1 386 26.4048 18.2589 4.16064 -1.38934 -1.00229 -1.93994 0.298661 0.0305933 0.151015 0 0 0 0 0 0 0 0 0 
26.982 1 2027 26.3547 20.2759 2.17017 -1.05925 -0.649309 -2.19744 0.401748 0.112104 -0.124134 0 0 0 0 0 0 0 0 0 
26.982 1 191 30.4497 16.1889 2.09632 3.36488 -0.0582942 -0.0387553 0.329441 0.102278 0.364099 0 0 0 0 0 0 0 0 0 
26.982 1 192 28.5254 18.1573 2.0168 -3.83896 0.800514 -6.22329 0.440081 0.961829 0.657461 0 0 0 0 0 0 0 0 0 
26.982 1 389 28.2691 16.1028 4.03676 2.20592 -5.26043 -0.465031 0.864797 0.174201 0.744405 0 0 0 0 0 0 0 0 0 
26.982 1 390 30.8136 18.1548 4.26295 -7.33523 -0.751671 0.0995368 -0.566204 0.0377762 -0.429231 0 0 0 0 0 0 0 0 0 
26.982 1 2229 28.3996 20.4454 4.10696 -4.50677 -1.82064 -2.58031 0.656658 -1.07387 0.0243196 0 0 0 0 0 0 0 0 0 
26.982 1 194 34.8022 18.1381 0.15214 1.03303 -2.78295 1.44265 -0.0903429 -0.0268185 0.0592888 0 0 0 0 0 0 0 0 0 
26.982 1 195 34.6912 16.2152 2.2087 -3.32122 1.86115 -1.49861 0.338754 -0.119038 -0.142749 0 0 0 0 0 0 0 0 0 
26.982 1 196 32.607 18.0992 2.24881 -1.19318 -0.517782 -0.555743 0.248766 0.0221125 -0.550111 0 0 0 0 0 0 0 0 0 
26.982 1 393 32.6891 16.1233 4.25026 -5.37149 2.47583 4.18089 0.252375 0.132947 0.320075 0 0 0 0 0 0 0 0 0 
26.982 1 394 34.9048 18.231 4.17344 -2.6801 -3.99733 -2.21964 0.12632 -0.408251 0.27195 0 0 0 0 0 0 0 0 0 
26.982 1 2233 32.9495 19.9917 4.23788 0.321355 1.92765 0.691673 -0.833619 0.79976 -0.231849 0 0 0 0 0 0 0 0 0 
26.982 1 2237 36.9479 20.2817 4.25716 2.66945 1.34588 -1.50052 0.0881355 -0.423325 -0.291123 0 0 0 0 0 0 0 0 0 
26.982 1 199 38.89 16.1287 2.10103 4.72339 2.67064 -0.910144 0.689411 0.226669 0.482458 0 0 0 0 0 0 0 0 0 
26.982 1 200 36.844 18.2641 2.20104 1.93061 3.6054 3.20093 0.312169 -0.151682 0.0996968 0 0 0 0 0 0 0 0 0 
26.982 1 397 36.9671 16.2582 4.21508 5.15962 0.262085 -0.30038 -0.0787644 -0.307916 0.107498 0 0 0 0 0 0 0 0 0 
26.982 1 398 38.8961 18.1972 4.24623 2.12359 -1.08627 -1.20951 0.222624 0.00589625 -0.67362 0 0 0 0 0 0 0 0 0 
26.982 1 197 36.9097 16.185 0.362437 1.65017 -0.671741 -1.7013 -0.451599 0.0495745 -0.664532 0 0 0 0 0 0 0 0 0 
26.982 1 2039 38.9932 20.28 2.22393 -0.0221026 -2.91385 -1.30347 -0.277842 -0.0935619 -0.24232 0 0 0 0 0 0 0 0 0 
26.982 1 208 3.71607 2.18814 5.96567 -1.1699 3.11277 0.357471 -0.0907011 -0.26271 0.796881 0 0 0 0 0 0 0 0 0 
26.982 1 243 1.37114 4.07869 6.12649 -2.165 -1.36378 -5.24067 0.263893 0.216712 -0.343259 0 0 0 0 0 0 0 0 0 
26.982 1 402 1.50841 2.12775 7.89704 3.05974 -0.33891 -0.412393 0.619616 -0.414273 0.843525 0 0 0 0 0 0 0 0 0 
26.982 1 441 -0.536762 3.93436 8.18065 4.06231 -0.641994 -1.09045 -0.480184 0.572248 -0.0973422 0 0 0 0 0 0 0 0 0 
26.982 1 401 -0.646683 0.135263 8.32663 1.47524 -5.81551 5.26811 0.744044 -0.399158 -0.225556 0 0 0 0 0 0 0 0 0 
26.982 1 204 -0.604869 2.00833 6.2539 4.82769 2.11151 -2.90866 -0.0355925 0.158174 -0.614258 0 0 0 0 0 0 0 0 0 
26.982 1 445 3.71329 4.22856 8.06738 2.73403 1.71186 -5.80237 -0.295784 -0.444878 0.0413001 0 0 0 0 0 0 0 0 0 
26.982 1 408 3.58814 2.2305 10.0542 -3.47691 -2.29383 3.56053 -0.222275 -0.413608 0.0965869 0 0 0 0 0 0 0 0 0 
26.982 1 212 7.78021 2.21649 6.38429 -2.59894 -2.66305 4.05049 -0.0158791 -0.23968 -0.513181 0 0 0 0 0 0 0 0 0 
26.982 1 247 5.82171 4.16423 6.10115 1.98897 3.67159 -1.95026 -0.504272 -0.199231 0.00147867 0 0 0 0 0 0 0 0 0 
26.982 1 406 5.72177 2.02563 8.30574 -1.41054 -2.17252 1.67571 -0.121271 0.174727 -0.654167 0 0 0 0 0 0 0 0 0 