LAMMPS (28 Jun 2014)
# Input file for uniaxial tensile loading of single crystal aluminum
# Mark Tschopp, November 2010

# ------------------------ INITIALIZATION ----------------------------
units 		metal
dimension	3
boundary	p	p	p
atom_style	atomic
variable latparam equal 4.05

# ----------------------- ATOM DEFINITION ----------------------------
lattice		fcc ${latparam}
lattice		fcc 4.05
Lattice spacing in x,y,z = 4.05 4.05 4.05
region		whole block 0 10 0 10 0 10
create_box	1 whole
Created orthogonal box = (0 0 0) to (40.5 40.5 40.5)
  1 by 2 by 2 MPI processor grid
lattice 	fcc ${latparam} orient x 1 0 0 orient y 0 1 0 orient z 0 0 1
lattice 	fcc 4.05 orient x 1 0 0 orient y 0 1 0 orient z 0 0 1
Lattice spacing in x,y,z = 4.05 4.05 4.05
create_atoms	1 region whole
Created 4000 atoms

# ------------------------ FORCE FIELDS ------------------------------
pair_style	eam/alloy
pair_coeff	* * Al99.NegFRho.NegRhoR.ZeroPhiR.eam.alloy Al

# ------------------------- SETTINGS ---------------------------------
compute csym all centro/atom fcc
compute peratom all pe/atom

######################################
# EQUILIBRATION
reset_timestep	0
timestep 0.001
velocity all create 300 12345 mom yes rot no
fix 1 all npt temp 300 300 1 iso 0 0 1 drag 1

# Set thermo output
thermo 1000
thermo_style custom step lx ly lz press pxx pyy pzz pe temp

# Run for at least 10 picosecond (assuming 1 fs timestep)
run 20000
Memory usage per processor = 3.04301 Mbytes
Step Lx Ly Lz Press Pxx Pyy Pzz PotEng Temp 
       0         40.5         40.5         40.5    2477.2889    2428.1557    2515.8197    2487.8912    -13444.32          300 
    1000    40.557293    40.557293    40.557293    866.00331    854.59974    838.17669    905.23348   -13365.439    165.23328 
    2000    40.571166    40.571166    40.571166    262.62381    197.32222    290.64984    299.89938   -13360.757    178.78916 
    3000    40.580043    40.580043    40.580043    103.89155    18.646105    200.44188    92.586672   -13354.291    189.28096 
    4000    40.587798    40.587798    40.587798    65.165216    19.605586     39.24063    136.64943   -13344.785    193.88501 
    5000    40.592759    40.592759    40.592759    181.14529    268.38416     241.1875    33.864202    -13338.55    204.57153 
    6000    40.599895    40.599895    40.599895     85.45322    96.231479   -17.707135    177.83532    -13331.63     213.4271 
    7000    40.607474    40.607474    40.607474   -22.597071   -30.185873    68.497525   -106.10287   -13326.048    224.12328 
    8000    40.612162    40.612162    40.612162     44.11698    23.543046    84.146259    24.661635   -13322.573    237.88313 
    9000    40.617628    40.617628    40.617628   -5.4866044   -92.119442    104.69566   -29.036027   -13320.218    252.62263 
   10000    40.625749    40.625749    40.625749   -54.994846   -36.633849    21.728311     -150.079   -13310.617    251.91924 
   11000    40.629196    40.629196    40.629196   -4.3592509   -268.47858    136.79738    118.60344   -13307.233    261.68714 
   12000    40.632456    40.632456    40.632456   -78.407635     53.86372   -119.95553    -169.1311   -13305.517    273.00029 
   13000    40.638982    40.638982    40.638982   -132.60767   -229.67213   -318.41747    150.26659   -13302.252    279.56214 
   14000    40.639496    40.639496    40.639496    3.1667178   -299.99697    87.998031    221.49909   -13298.223    282.88502 
   15000    40.641626    40.641626    40.641626    79.686742    348.39633    -170.4251    61.088997   -13295.757    287.51385 
   16000    40.641835    40.641835    40.641835     186.0492    174.85991    80.225706    303.06198   -13295.632    295.01903 
   17000    40.647738    40.647738    40.647738   -87.605975   -260.39041   -130.58924    128.16173   -13292.314     294.7373 
   18000    40.648732    40.648732    40.648732   -20.899305    1.4917375   -41.432611    -22.75704   -13292.999    300.70544 
   19000    40.647515    40.647515    40.647515    92.201278   -36.387285    239.35811    73.633007   -13290.023    298.23879 
   20000     40.64933     40.64933     40.64933    -115.6547   -19.533785   -131.05646   -196.37384   -13291.184    302.43852 
Loop time of 388.476 on 4 procs for 20000 steps with 4000 atoms

Pair  time (%) = 270.031 (69.5103)
Neigh time (%) = 0 (0)
Comm  time (%) = 83.5279 (21.5014)
Outpt time (%) = 0.00242645 (0.000624607)
Other time (%) = 34.9146 (8.98759)

Nlocal:    1000 ave 1000 max 1000 min
Histogram: 4 0 0 0 0 0 0 0 0 0
Nghost:    4235 ave 4235 max 4235 min
Histogram: 4 0 0 0 0 0 0 0 0 0
Neighs:    70000 ave 72653 max 67302 min
Histogram: 1 0 1 0 0 0 0 1 0 1
FullNghs:  0 ave 0 max 0 min
Histogram: 4 0 0 0 0 0 0 0 0 0

Total # of neighbors = 280000
Ave neighs/atom = 70
Neighbor list builds = 0
Dangerous builds = 0
unfix 1

# Store final cell length for strain calculations
variable tmp equal "lx"
variable L0 equal ${tmp}
variable L0 equal 40.6493303147943
print "Initial Length, L0: ${L0}"
Initial Length, L0: 40.6493303147943

######################################
# DEFORMATION
reset_timestep	0

fix		1 all npt temp 300 300 1 y 0 0 1 z 0 0 1 drag 1
variable srate equal 1.0e10
variable srate1 equal "v_srate / 1.0e12"
fix		2 all deform 1 x erate ${srate1} units box remap x
fix		2 all deform 1 x erate 0.01 units box remap x

# Output strain and stress info to file
# for units metal, pressure is in [bars] = 100 [kPa] = 1/10000 [GPa]
# p2, p3, p4 are in GPa
variable strain equal "(lx - v_L0)/v_L0"
variable p1 equal "v_strain"
variable p2 equal "-pxx/10000"
variable p3 equal "-pyy/10000"
variable p4 equal "-pzz/10000"
fix def1 all print 20 "${p1} ${p2} ${p3} ${p4}" file  Al99.NegFRho.NegRhoR.ZeroPhiR.eam.alloy.def1.txt screen no

# Use cfg for AtomEye
#dump 		1 all cfg 250 dump.tensile_*.cfg id type xs ys zs c_csym c_peratom fx fy fz
#dump_modify 1 element Al

# Display thermo
thermo 	1000
thermo_style	custom step v_strain temp v_p2 v_p3 v_p4 ke pe press

run		20000
Memory usage per processor = 3.04301 Mbytes
Step strain Temp p2 p3 p4 KinEng PotEng Press 
       0 3.4959628e-16    302.43852 0.0019533785  0.013105646  0.019637384     156.3339   -13291.184    -115.6547 
    1000         0.01    294.70193    0.6598751  0.024998001  0.041577736    152.33476   -13284.719   -2421.5028 
    2000         0.02    299.09597    1.2681801 -0.013967266 -0.032003543    154.60609   -13281.631    -4074.031 
    3000         0.03    295.49845    1.8748763 -0.024421234 -0.043284786    152.74649   -13271.678    -6023.901 
    4000         0.04    302.58633     2.531284  0.049021552  0.022511058     156.4103   -13264.621   -8676.0554 
    5000         0.05    299.20802    3.0815075 -0.011917126 -0.026813509    154.66401   -13249.617    -10142.59 
    6000         0.06    299.03712     3.726559  0.038363316 -0.015637747    154.57567   -13233.767   -12497.615 
    7000         0.07    298.17229    4.2853907  0.025831953 -0.017768617    154.12863   -13215.153   -14311.513 
    8000         0.08    300.38506    4.8432593 -0.0093228137  0.021649864    155.27244   -13195.869   -16185.288 
    9000         0.09    301.10865    5.4066716  0.046559184 0.0036020331    155.64647   -13173.572   -18189.443 
   10000          0.1    298.97771     5.941766 -0.015900023  0.035104086    154.54496   -13147.578     -19869.9 
   11000         0.11    303.79941     6.475555  0.022664471 0.0057189095    157.03735    -13122.96   -21679.795 
   12000         0.12    294.47762    6.9673158  0.031627665 0.0015419794    152.21881   -13088.834   -23334.952 
   13000         0.13    291.54122    7.4311815 -0.011142762   0.06458992    150.70095   -13055.926   -24948.762 
   14000         0.14    292.68456    7.7201858 -0.019455044 -0.064036211    151.29196    -13023.27   -25455.648 
   15000         0.15    299.71096    7.3091621  -0.02374553  0.075381632    154.92399   -12992.433   -24535.994 
   16000         0.16    385.90198    2.1800734 -0.0067717258  0.088358366     199.4771   -13030.076    -7538.867 
   17000         0.17    410.03559    1.6063861  0.038147546 0.0089368337    211.95204   -13057.969   -5511.5682 
   18000         0.18    414.25598     1.688312 -0.052595855 -0.031734193     214.1336   -13079.595   -5346.6066 
   19000         0.19    421.12798    1.6151086 -0.010722293 -0.057526832    217.68582   -13102.482   -5156.1983 
   20000          0.2     402.9493    1.9689515 -0.016117754 -0.042111314    208.28905   -13111.199   -6369.0746 
Loop time of 531.102 on 4 procs for 20000 steps with 4000 atoms

Pair  time (%) = 368.997 (69.4777)
Neigh time (%) = 0.566959 (0.106751)
Comm  time (%) = 113.876 (21.4416)
Outpt time (%) = 0.00463909 (0.000873484)
Other time (%) = 47.6564 (8.97312)

Nlocal:    1000 ave 1008 max 991 min
Histogram: 1 0 0 0 1 0 1 0 0 1
Nghost:    3738.75 ave 3756 max 3728 min
Histogram: 1 0 1 1 0 0 0 0 0 1
Neighs:    68982.5 ave 70703 max 67523 min
Histogram: 1 1 0 0 0 0 1 0 0 1
FullNghs:  0 ave 0 max 0 min
Histogram: 4 0 0 0 0 0 0 0 0 0

Total # of neighbors = 275930
Ave neighs/atom = 68.9825
Neighbor list builds = 86
Dangerous builds = 0

######################################
# SIMULATION DONE
print "All done"
All done
