LAMMPS (28 Jun 2014)
# Input file for uniaxial tensile loading of single crystal aluminum
# Mark Tschopp, November 2010

# ------------------------ INITIALIZATION ----------------------------
units 		metal
dimension	3
boundary	p	p	p
atom_style	atomic
variable latparam equal 4.05

# ----------------------- ATOM DEFINITION ----------------------------
lattice		fcc ${latparam}
lattice		fcc 4.05
Lattice spacing in x,y,z = 4.05 4.05 4.05
region		whole block 0 10 0 10 0 10
create_box	1 whole
Created orthogonal box = (0 0 0) to (40.5 40.5 40.5)
  1 by 2 by 2 MPI processor grid
lattice 	fcc ${latparam} orient x 1 0 0 orient y 0 1 0 orient z 0 0 1
lattice 	fcc 4.05 orient x 1 0 0 orient y 0 1 0 orient z 0 0 1
Lattice spacing in x,y,z = 4.05 4.05 4.05
create_atoms	1 region whole
Created 4000 atoms

# ------------------------ FORCE FIELDS ------------------------------
pair_style	eam/alloy
pair_coeff	* * Al99.NegFRho.ZeroRhoR.ZeroPhiR.eam.alloy Al

# ------------------------- SETTINGS ---------------------------------
compute csym all centro/atom fcc
compute peratom all pe/atom

######################################
# EQUILIBRATION
reset_timestep	0
timestep 0.001
velocity all create 300 12345 mom yes rot no
fix 1 all npt temp 300 300 1 iso 0 0 1 drag 1

# Set thermo output
thermo 1000
thermo_style custom step lx ly lz press pxx pyy pzz pe temp

# Run for at least 10 picosecond (assuming 1 fs timestep)
run 20000
Memory usage per processor = 3.04301 Mbytes
Step Lx Ly Lz Press Pxx Pyy Pzz PotEng Temp 
       0         40.5         40.5         40.5    2496.1253    2446.9922    2534.6562    2506.7276    -13448.64          300 
    1000     40.55756     40.55756     40.55756    866.73624    855.28229     838.9536    905.97284   -13369.763    165.23403 
    2000    40.571436    40.571436    40.571436    263.34107    198.37193    290.90353    300.74775   -13365.075    178.77825 
    3000     40.58031     40.58031     40.58031    104.36157    19.239229    201.08635    92.759136   -13358.623     189.2957 
    4000    40.588057    40.588057    40.588057    64.957113    19.804507     38.95196    136.11487   -13349.119     193.9043 
    5000    40.593003    40.593003    40.593003    183.03967    268.62554     242.8957    37.597786    -13342.88    204.58131 
    6000    40.600141    40.600141    40.600141     86.32337    99.588549   -18.394967    177.77653   -13335.961    213.43994 
    7000    40.607717    40.607717    40.607717   -21.131303   -26.426311    68.941585   -105.90918   -13330.396    224.17057 
    8000    40.612348    40.612348    40.612348    52.093816    30.915373    95.021919    30.344155    -13326.78    237.65745 
    9000    40.617885    40.617885    40.617885    -3.825949   -93.970944    105.15147   -22.658374   -13324.525    252.58991 
   10000    40.625958    40.625958    40.625958   -49.163227   -32.737534    30.175869   -144.92802   -13314.913    251.86646 
   11000    40.629272    40.629272    40.629272    4.2812636   -249.85773    135.42138    127.28014   -13311.547    261.66887 
   12000    40.632798    40.632798    40.632798   -90.282756     38.85569   -141.11459   -168.58936   -13309.953    273.21726 
   13000    40.639555    40.639555    40.639555   -164.59563   -259.01103   -347.60344    112.82757   -13306.622    279.65361 
   14000    40.640267    40.640267    40.640267    -30.99388   -321.95996    66.046306    162.93201   -13302.504    282.80707 
   15000    40.641167    40.641167    40.641167    121.48849     373.5535   -127.11852    118.03049   -13299.732    286.84462 
   16000    40.641283    40.641283    40.641283    245.43386    307.50078    36.484496    392.31629   -13299.619    294.36779 
   17000    40.647716    40.647716    40.647716   -7.2846522   -163.35242    60.388491    81.109974   -13296.424    294.31361 
   18000    40.650228    40.650228    40.650228   -82.389313    -1.572154   -29.305515   -216.29027   -13295.886    297.94337 
   19000    40.649059    40.649059    40.649059    50.099694     95.61725   -24.472659    79.154492   -13295.257    299.96107 
   20000    40.651589    40.651589    40.651589   -63.745871    124.58301   -99.222576   -216.59805   -13293.873    299.20609 
Loop time of 208.252 on 4 procs for 20000 steps with 4000 atoms

Pair  time (%) = 185.133 (88.8988)
Neigh time (%) = 0 (0)
Comm  time (%) = 16.9553 (8.14174)
Outpt time (%) = 0.002873 (0.00137958)
Other time (%) = 6.16028 (2.95809)

Nlocal:    1000 ave 1000 max 1000 min
Histogram: 4 0 0 0 0 0 0 0 0 0
Nghost:    4235 ave 4235 max 4235 min
Histogram: 4 0 0 0 0 0 0 0 0 0
Neighs:    70000 ave 72653 max 67302 min
Histogram: 1 0 1 0 0 0 0 1 0 1
FullNghs:  0 ave 0 max 0 min
Histogram: 4 0 0 0 0 0 0 0 0 0

Total # of neighbors = 280000
Ave neighs/atom = 70
Neighbor list builds = 0
Dangerous builds = 0
unfix 1

# Store final cell length for strain calculations
variable tmp equal "lx"
variable L0 equal ${tmp}
variable L0 equal 40.6515885692773
print "Initial Length, L0: ${L0}"
Initial Length, L0: 40.6515885692773

######################################
# DEFORMATION
reset_timestep	0

fix		1 all npt temp 300 300 1 y 0 0 1 z 0 0 1 drag 1
variable srate equal 1.0e10
variable srate1 equal "v_srate / 1.0e12"
fix		2 all deform 1 x erate ${srate1} units box remap x
fix		2 all deform 1 x erate 0.01 units box remap x

# Output strain and stress info to file
# for units metal, pressure is in [bars] = 100 [kPa] = 1/10000 [GPa]
# p2, p3, p4 are in GPa
variable strain equal "(lx - v_L0)/v_L0"
variable p1 equal "v_strain"
variable p2 equal "-pxx/10000"
variable p3 equal "-pyy/10000"
variable p4 equal "-pzz/10000"
fix def1 all print 20 "${p1} ${p2} ${p3} ${p4}" file  Al99.NegFRho.ZeroRhoR.ZeroPhiR.eam.alloy.def1.txt screen no

# Use cfg for AtomEye
#dump 		1 all cfg 250 dump.tensile_*.cfg id type xs ys zs c_csym c_peratom fx fy fz
#dump_modify 1 element Al

# Display thermo
thermo 	1000
thermo_style	custom step v_strain temp v_p2 v_p3 v_p4 ke pe press

run		20000
Memory usage per processor = 3.04301 Mbytes
Step strain Temp p2 p3 p4 KinEng PotEng Press 
       0 1.0487306e-15    299.20609 -0.012458301 0.0099222576  0.021659805    154.66302   -13293.873   -63.745871 
    1000         0.01     295.7735    0.6473285   0.01495184 0.0028473104    152.88867   -13289.605   -2217.0922 
    2000         0.02    301.63394    1.2803193  0.013676007  0.013764727      155.918   -13287.235   -4359.2001 
    3000         0.03    303.10239    1.9092904  0.035647833 -0.0039633294    156.67706    -13279.93   -6469.9164 
    4000         0.04    297.16344     2.532849   0.00172034 -0.0031410565    153.60715   -13266.094   -8438.0941 
    5000         0.05    297.91468     3.134186 -0.0020176919 -0.019478923    153.99547   -13253.142   -10375.631 
    6000         0.06    297.53375    3.6986684 -0.019046616 -0.075511536    153.79856   -13237.171   -12013.701 
    7000         0.07    298.20689    4.2761893 -0.012710394  0.010397262    154.14652   -13219.377   -14246.254 
    8000         0.08    297.79018    4.8427156  0.011862936  0.037469971    153.93112   -13198.706   -16306.829 
    9000         0.09    298.16531    5.4130563  0.037366656  0.067959491    154.12502   -13176.154   -18394.608 
   10000          0.1    299.81255    5.9340877 -0.0050305548 -0.035650205     154.9765   -13152.144    -19644.69 
   11000         0.11    300.45182    6.4647863 -0.017623998  0.042188151    155.30695   -13125.387   -21631.168 
   12000         0.12    289.03909    6.9244097 -0.052718811 -0.068068235    149.40758   -13090.155   -22678.742 
   13000         0.13    296.84932    7.4402974  -0.02339295 -0.020278903    153.44477   -13062.756   -24655.419 
   14000         0.14    290.48002    7.7316601 -0.009585247 -0.045756307    150.15241    -13026.16   -25587.729 
   15000         0.15    290.47413    7.7753761 -0.050443188 0.0058133749    150.14937   -12991.273   -25769.154 
   16000         0.16     360.8967    3.4126897  -0.10501932 -0.073277602    186.55159   -13011.447   -10781.309 
   17000         0.17    408.93021    1.9376224 -0.078412857  0.046523625    211.38066    -13046.27   -6352.4438 
   18000         0.18    425.79667     1.090722 -0.046033486  0.016354486    220.09912   -13074.304   -3536.8101 
   19000         0.19    432.21925    1.0071958  0.036323772 -0.045916007    223.41902   -13102.582   -3325.3452 
   20000          0.2    432.71298    1.5015666  0.014626348  0.067164968    223.67424   -13127.971   -5277.8597 
Loop time of 268.685 on 4 procs for 20000 steps with 4000 atoms

Pair  time (%) = 238.562 (88.7886)
Neigh time (%) = 0.511499 (0.190371)
Comm  time (%) = 20.6132 (7.67189)
Outpt time (%) = 0.00278705 (0.00103729)
Other time (%) = 8.99598 (3.34815)

Nlocal:    1000 ave 1015 max 992 min
Histogram: 1 1 1 0 0 0 0 0 0 1
Nghost:    3757.75 ave 3773 max 3744 min
Histogram: 1 0 0 0 2 0 0 0 0 1
Neighs:    69310.8 ave 70017 max 67880 min
Histogram: 1 0 0 0 0 0 0 1 0 2
FullNghs:  0 ave 0 max 0 min
Histogram: 4 0 0 0 0 0 0 0 0 0

Total # of neighbors = 277243
Ave neighs/atom = 69.3107
Neighbor list builds = 87
Dangerous builds = 0

######################################
# SIMULATION DONE
print "All done"
All done
