
# ----------------------- ATOM DEFINITION ----------------------------
lattice		fcc ${latparam}
lattice		fcc 4.05
Lattice spacing in x,y,z = 4.05 4.05 4.05
region		whole block 0 10 0 10 0 10
create_box	1 whole
Created orthogonal box = (0 0 0) to (40.5 40.5 40.5)
  1 by 2 by 2 MPI processor grid
lattice 	fcc ${latparam} orient x 1 0 0 orient y 0 1 0 orient z 0 0 1
lattice 	fcc 4.05 orient x 1 0 0 orient y 0 1 0 orient z 0 0 1
Lattice spacing in x,y,z = 4.05 4.05 4.05
create_atoms	1 region whole
Created 4000 atoms

# ------------------------ FORCE FIELDS ------------------------------

#****************USE THIS TO TEST******************
pair_style	eam/rad
pair_coeff 			* * Al99.PC0.025.eam.alloy.rad.txt Al # pc = 0.25

# ------------------------- SETTINGS ---------------------------------
compute csym all centro/atom fcc
compute peratom all pe/atom

######################################
# EQUILIBRATION
reset_timestep	0
timestep	0.001 # default
# timestep	0.0001 # tiny time step
velocity all create 300 12345 mom yes rot no
fix 1 all npt temp 300 300 1 iso 0 0 1 drag 1

# Set thermo output
thermo 50
# thermo 1 # debug mode

# thermo_style custom step lx ly lz press pxx pyy pzz pe temp
# IMPLEMENTATION HERE

# VERSION add rad variables .v1 .v2
# thermo_style custom step lx ly lz press pxx pyy pzz pxxrad pyyrad pzzrad pe temp

# VERSION ublb separation .v3
thermo_style custom step lx ly lz press pxx pxxub pxxlb pyy pyyub pyylb pzz pzzub pzzlb pe temp

# Run for at least 10 picosecond (assuming 1 fs timestep)
run 	20000 # default
Memory usage per processor = 7.82687 Mbytes
Step Lx Ly Lz Press Pxx Pxxub Pxxlb Pyy Pyyub Pyylb Pzz Pzzub Pzzlb PotEng Temp 
       0         40.5         40.5         40.5    2496.1233    2446.9902     7603.238    7398.1583    2534.6541    7481.7253    7276.6456    2506.7256    7650.0292    7444.9494       -13440          300 
      50      40.5611      40.5611      40.5611    907.43706    837.10986    940.21153    734.00396    946.43161    1049.5592    843.29954    938.76971    1041.8968    835.63821   -13338.819    103.27149 
     100    40.636867    40.636867    40.636867   -4611.4186   -4606.0751   -4504.2409   -4708.0595   -4633.2987   -4531.4683   -4735.2704   -4594.8821   -4493.0405   -4696.8754   -13373.529    171.80729 
     150    40.566371    40.566371    40.566371    544.64066    509.57779    612.49344    406.65209    622.24374    725.15283    519.32203    502.10046    605.03824    399.14627   -13348.908    124.16109 
     200    40.511722    40.511722    40.511722    3547.2897    3643.2596    3746.9005    3539.6968    3485.9867      3589.62    3382.4244    3512.6228    3616.2667    3409.0662   -13355.216     137.9072 
     250    40.565785    40.565785    40.565785    166.93066    90.523527    193.43929   -12.372023    218.10474    320.99829    115.23849    192.16371    295.04913    89.295499   -13359.502    146.72328 
     300    40.611235    40.611235    40.611235   -2466.5664   -2412.8394   -2310.6347   -2515.0961   -2483.9007   -2381.6928   -2586.1607   -2502.9592   -2400.7327   -2605.2239   -13360.111    149.21075 
     350    40.571353    40.571353    40.571353   -408.34084   -482.42607   -379.62543   -585.21525   -346.38838   -243.55898   -449.20422   -396.20806   -293.40721   -499.00673   -13367.339    163.76556 
     400    40.532306    40.532306    40.532306    2225.5431    2279.8069     2383.082    2176.5476    2296.6157    2399.8905    2193.3364    2100.2067    2203.5098    1996.9044   -13359.854    150.41108 
     450    40.566044    40.566044    40.566044    2.0377845   -40.092854    62.794863   -142.97418   -31.888362    71.012931   -134.77693     78.09457     180.9782   -24.776733    -13363.08    157.36643 
     500    40.595966    40.595966    40.595966   -1611.3461   -1655.3283   -1552.8652   -1757.7833   -1479.2164   -1376.7387   -1581.6872   -1699.4934   -1597.0381   -1801.9426   -13359.404    151.32857 
     550    40.570848    40.570848    40.570848   -161.85418   -150.03728   -47.250727    -252.8294   -167.20465   -64.395336   -270.00913   -168.32062   -65.532722   -271.11347   -13360.736    154.75593 
     600    40.545092    40.545092    40.545092    1385.8336    1414.2998     1517.453    1311.1461    1433.0694    1536.2342    1329.9069    1310.1316    1413.2544    1206.9997   -13361.915    158.16074 
     650    40.566235    40.566235    40.566235    212.56633    184.02753     286.9262    81.127604    245.48283    348.37435    142.57562    208.18862    311.10614    105.27579   -13358.104    151.74194 
     700    40.589999    40.589999    40.589999   -1217.4105   -1343.5854   -1240.9815   -1446.1662   -1126.2179   -1023.6138    -1228.794   -1182.4283   -1079.8113   -1285.0135   -13360.206    156.93263 
     750    40.572933    40.572933    40.572933   -250.38158   -286.45411   -183.70385   -389.20941   -263.19279   -160.42582   -365.95922   -201.49783   -98.738252   -304.25682   -13360.538    158.57849 
     800    40.551356    40.551356    40.551356    1208.6566    1078.2928    1181.4021    975.16552    1322.2307    1425.3783    1219.0685    1225.4462     1328.562    1122.3088   -13357.161    153.20685 
     850    40.567647    40.567647    40.567647     35.88215    27.354765    130.20861   -75.476693    95.437303    198.28926   -7.4024162   -15.145617    87.709466    -117.9872   -13362.171    163.91834 
     900    40.586566    40.586566    40.586566   -905.95525   -936.83022   -834.20221   -1039.4486   -840.20578   -737.58704   -942.81322   -940.82976   -838.20549   -1043.4329   -13360.501    161.82509 
     950    40.575685    40.575685    40.575685   -242.27646    -258.0676   -155.24271   -360.88376   -191.53537   -88.722903   -294.34085    -277.2264   -174.40414   -380.05229   -13355.043     152.3172 
    1000    40.557624    40.557624    40.557624    865.78368    854.28577    957.25356    751.30396     838.0004    940.96934    735.02648    905.06486     1008.051    802.06718   -13361.124    165.23426 
    1050    40.567354    40.567354    40.567354    296.20892     232.8234    335.78895    129.86777     412.4804    515.46692    309.50035    243.32297    346.29937    140.35983   -13352.949    150.47937 
    1100    40.584443    40.584443    40.584443   -762.38408   -853.89575   -751.24918   -956.53044   -674.30507   -571.65997    -776.9367   -758.95143   -656.32557   -861.57045   -13360.466    166.16585 
    1150    40.575983    40.575983    40.575983    -142.2806   -201.77341   -98.936791   -304.60594   -30.014093    72.798479    -132.8304    -195.0543   -92.257076   -297.83715    -13353.75    154.27323 
    1200    40.562401    40.562401    40.562401    595.06575    539.95132    642.92871    436.97655    625.63845    728.57366    522.71631    619.60749    722.56385    516.66003    -13359.83    167.17798 
    1250    40.569413    40.569413    40.569413    166.79261    92.903564    195.81935   -10.006345    250.18713    353.10773    147.26809    157.28713     260.2098    54.365444   -13356.017    160.90148 
    1300    40.581899    40.581899    40.581899   -560.61752   -582.11355   -479.41187   -684.81489   -449.93781   -347.18551   -552.69386   -649.80119   -547.07292   -752.54546   -13357.596    165.08945 
    1350    40.575948    40.575948    40.575948    -187.6128   -340.24911   -237.47035   -443.03763   -119.43237   -16.637817   -222.23302   -103.15693   -0.3387584   -205.97951   -13356.829    164.72703 
    1400    40.566127    40.566127    40.566127    565.86425    499.12344     602.1022    396.15268    641.64272    744.61632     538.6715    556.82658    659.80816    453.85226   -13354.386    161.14085 
    1450    40.572988    40.572988    40.572988    -8.561472    -54.13345    48.707122   -156.96825   -9.1404528    93.710074   -111.98742    37.589487    140.42907   -65.237448   -13356.765    166.86433 
    1500    40.579794    40.579794    40.579794   -267.41446   -332.77441   -229.98732   -435.55658   -176.15609   -73.375407    -278.9301   -293.31287   -190.53474   -396.08861   -13353.672    162.03422 
    1550    40.576834    40.576834    40.576834   -220.87916   -335.60203   -232.79017   -438.39659   -207.98546   -105.16216   -310.78594   -119.05001   -16.238518    -221.8365    -13357.33    170.23169 
    1600     40.56902     40.56902     40.56902    377.81634    358.40758    461.34676    255.45898    458.79305    561.74212    355.83619    316.24838     419.1795    213.31226   -13352.705    162.42694 
    1650    40.573333    40.573333    40.573333    121.60248    65.830518    168.67141   -37.011072    161.88969    264.76113    59.017264    137.08722    239.94649    34.220454     -13355.4    168.76756 
    1700    40.580701    40.580701    40.580701   -351.25931   -404.48696    -301.6676    -507.2967   -356.71365   -253.91222   -459.50475   -292.57732   -189.74076   -395.40804   -13352.169    163.67705 
    1750    40.576849    40.576849    40.576849   -32.167301   -50.678233    52.124895   -153.46889   -63.920617    38.856665   -166.68798    18.096946    120.91086   -84.692493   -13355.552    171.33506 
    1800    40.570697    40.570697    40.570697    303.86959    205.87186    308.84368    102.90316    337.67696    440.63681    234.73592    368.05996    471.01274    265.10854   -13351.254    164.18628 
    1850    40.573832    40.573832    40.573832    241.25661    160.65476    263.52174     57.77747    291.81867    394.70434    188.91124    271.29639    374.16977     168.4186   -13351.989    166.73526 
    1900    40.582525    40.582525    40.582525   -408.49907   -517.11515   -414.37815   -619.86588    -372.3218   -269.59262   -475.07031   -336.06028   -233.32484   -438.81473    -13355.88     175.4205 
    1950    40.579035    40.579035    40.579035   -121.18037    -78.31077     24.56584   -181.16791   -80.564036    22.317323   -183.41066    -204.6663   -101.79713   -307.51488   -13350.032    165.23107 
    2000     40.57151     40.57151     40.57151    262.28188    197.36064    300.27038    94.486019    289.69509     392.5947    186.81878     299.7899    402.68274    196.92785   -13356.433    178.77171 
    2050     40.57415     40.57415     40.57415    291.00696    438.91963    541.83947    335.99219    282.96388    385.88528    180.03296    151.13737    254.04729     48.21591   -13349.034    165.59547 
    2100    40.583714    40.583714    40.583714   -349.64824   -571.69905   -468.95573   -674.46617   -278.61218   -175.83951   -381.40835   -198.63349   -95.870347   -301.43341    -13352.82     174.0797 
    2150    40.580896    40.580896    40.580896   -115.46102   -185.78203   -82.928063   -288.63915   -83.935203     18.91962   -186.78418   -76.665824    26.199472   -179.51873   -13348.342    166.55152 
    2200    40.573232    40.573232    40.573232    266.96923    327.53375     430.4662    224.63202    145.53519    248.42448    42.675012    327.83874    430.74573    224.96689   -13352.358    175.46306 
    2250    40.574827    40.574827    40.574827    151.21048    253.25725    356.19279    150.32559    168.12758     271.0088     65.25434    32.246605    135.14819   -70.655428   -13351.993    175.91954 
    2300    40.582519    40.582519    40.582519   -229.92012   -262.55007   -159.73855   -365.37403   -227.80284   -125.00193   -330.60992   -199.40745   -96.614414   -302.21182   -13351.098    175.32277 
    2350    40.582472    40.582472    40.582472   -261.47493   -230.22332   -127.44073   -332.98327   -223.18601   -120.38728   -325.98497   -331.01546   -228.20246   -433.81599   -13351.015     176.3209 
    2400    40.575117    40.575117    40.575117    304.99838    318.71288    421.63953    215.80179    230.82389    333.76809    127.89173    365.45835    468.39938    262.54455    -13348.88    173.33846 
    2450    40.576041    40.576041    40.576041    115.98281   -49.519186    53.386228   -152.42462    231.81908    334.73568    128.89897    165.64854    268.55314    62.738216   -13349.774    176.22576 
    2500    40.581993    40.581993    40.581993    -86.32248   -223.14465   -120.30564   -325.99531   -50.962736    51.882419    -153.8031    15.139951    118.00079   -87.721678   -13348.601    175.08643 
    2550    40.583873    40.583873    40.583873   -280.78867    -329.5054   -226.73092   -432.27692   -351.60669   -248.84755   -454.36113   -161.25393   -58.437854   -264.07505   -13350.803    180.51146 
    2600    40.577203    40.577203    40.577203    317.49535    231.68198    334.63199    128.72876    393.67729    496.58049    290.77004    327.12677    430.05516    224.20249    -13345.69    171.77884 
    2650    40.578933    40.578933    40.578933    13.030925    144.96731    247.88974    42.062723   -44.713472    58.178806   -147.59777   -61.161069    41.717235   -164.02318   -13350.912    183.01571 
    2700    40.583518    40.583518    40.583518   -174.83865   -293.93299   -191.08618   -396.77041   -111.84152    -8.992891   -214.68372   -118.74145   -15.880334    -221.5959   -13346.798    176.21518 
    2750    40.582481    40.582481    40.582481   -39.748764   -65.184794    37.654537   -168.02765    -87.13603    15.686645   -189.95282    33.074533    135.93435   -69.779642   -13348.669    180.97912 
    2800    40.578705    40.578705    40.578705    108.86451   -19.945463    82.974285    -122.8715    191.66526    294.60767    88.720979    154.87373    257.79968    51.937247   -13346.376    177.70923 
    2850    40.579322    40.579322    40.579322    124.53218    81.912131    184.80038   -20.969514    124.60452     227.4832    21.725835     167.0799    269.96213    64.191526   -13349.584    185.05983 
    2900    40.584645    40.584645    40.584645   -69.825092    -152.5521   -49.684533   -255.39974   -33.708358    69.129175   -136.52939   -23.214815    79.656197   -126.06797   -13345.868     179.0187 
    2950    40.585359    40.585359    40.585359   -182.56258   -154.04171   -51.227476   -256.85041   -313.08375   -210.26958   -415.89006   -80.562296    22.284732   -183.40047   -13345.484    179.44392 
    3000    40.580393    40.580393    40.580393    103.06038     17.74205    120.61691   -85.141438    199.86076    302.73591    96.980664    91.578338     194.4897   -11.340484   -13349.988    189.30398 
    3050    40.580507    40.580507    40.580507    62.168107    44.094515    147.02074   -58.834685    20.509683    123.42965   -82.407254    121.90012    224.81538    18.988126   -13345.218    181.21565 
    3100    40.584708    40.584708    40.584708   -107.42179   -223.08689   -120.21845   -325.93172   -59.455111    43.442543   -162.33793   -39.723375    63.132361   -142.56639   -13347.434     186.6605 
    3150    40.585857    40.585857    40.585857   -139.90607   -193.02274   -90.175403   -295.85905   -102.84206  0.035618809   -205.70569    -123.8534   -20.992609   -226.69566   -13344.327    181.78994 
    3200    40.582817    40.582817    40.582817    56.136466   -25.815173    77.033775   -128.67278    83.857537    186.71028   -19.008184    110.36703    213.22879    7.4965959   -13346.758    187.66531 
    3250    40.582883    40.582883    40.582883    202.40337    154.08445    257.02079    51.150806    136.98617    239.88006    34.094783    316.13948    419.09704     213.1812   -13343.925    183.32635 
    3300    40.587578    40.587578    40.587578    -209.4339   -371.94849   -269.12815   -474.75721   -87.698913    15.106097   -190.49138   -168.65429   -65.858152   -271.43696   -13345.062    186.68197 
    3350    40.586577    40.586577    40.586577   -9.0566859   -69.573038    33.297857   -172.43588   -16.305688    86.568058   -119.17158    58.708669    161.58107   -44.151185    -13343.41    184.64018 
    3400    40.584833    40.584833    40.584833    -4.464904   -169.79656   -66.946882   -272.65736    46.672382    149.54139   -56.208179    109.72947    212.58574    6.8720232   -13346.346    191.46455 
    3450    40.585451    40.585451    40.585451    9.8032381   -98.559471    4.3168853   -201.44808    71.647379    174.54611   -31.260476    56.321806    159.14286   -46.504984   -13344.024    188.12534 
    3500    40.587697    40.587697    40.587697   -73.255431   -198.59139   -95.739588   -301.42314   -60.277768    42.536901    -163.0756    39.102863    141.96437   -63.745849   -13344.644    190.47515 
    3550    40.586958    40.586958    40.586958    -56.96485   -70.538578    32.354047   -173.41396    6.9900731    109.85719   -95.862328   -107.34605   -4.4598447   -210.22001   -13342.497     187.4769 
    3600    40.585183    40.585183    40.585183    109.67337    96.750394    199.65964    -6.162801    58.529928    161.43657   -44.377119    173.73977    276.62022    70.857727   -13342.391    188.41229 
    3650    40.586887    40.586887    40.586887   -3.9723187   -11.668849    91.234799   -114.56558   -45.333257    57.564492   -148.22046    45.085149    147.94386   -57.775286   -13342.044    188.88701 
    3700    40.588496    40.588496    40.588496   -27.142131   -83.336603    19.487633   -186.16554   -12.131481    90.722347   -114.98584    14.041689    116.87504   -88.779908   -13342.511    190.95338 
    3750    40.588371    40.588371    40.588371   -6.0911329    43.936973    146.77179   -58.881184   -56.088694    46.755369   -158.92861   -6.1216783    96.696095   -108.93973   -13342.317    191.72699 
    3800    40.587518    40.587518    40.587518    21.179747   -96.321442    6.5613401   -199.18777    156.68462     259.5743     53.81328    3.1760619    106.07134    -99.71634    -13342.31    192.86572 
    3850    40.588168    40.588168    40.588168    103.71552    51.378646    154.25034   -51.493397    75.437151    178.30493   -27.441386    184.33078    287.23706    81.428861   -13339.435    188.43341 
    3900    40.590071    40.590071    40.590071   -61.991803    41.084916    143.93489   -61.781914   -163.63867   -60.767292   -266.51368   -63.421652    39.404673   -166.26546   -13340.244    191.15887 
    3950     40.58905     40.58905     40.58905    26.629811   -116.89505    -14.02583    -219.7557    111.68117    214.55789     8.816475    85.103306    187.99102   -17.766393   -13340.459    192.71663 
    4000     40.58814     40.58814     40.58814    64.030856    18.996702    121.90161   -83.880321    37.882754    140.81017   -65.026396    135.21311    238.09254    32.375035   -13340.476    193.89746 
    4050     40.58928     40.58928     40.58928    51.730888    26.058107    128.92334   -76.799973    48.279046    151.17001   -54.608607    80.855511    183.73557   -22.028221   -13339.217    192.61086 
    4100    40.591447    40.591447    40.591447    -69.41407   -80.629256    22.183052   -183.46271   -72.506139    30.332842   -175.35819   -55.106814    47.699077   -157.93029   -13342.948    200.98044 
    4150    40.591167    40.591167    40.591167     -59.3496   -170.66274   -67.767607   -273.56182   -23.297654    79.564698   -126.14836    15.911595    118.77896   -86.939618    -13338.58    193.66416 
    4200    40.589402    40.589402    40.589402    126.45049    102.31182    205.26871  -0.61710535    28.361074    131.31227   -74.564623    248.67858    351.58981    145.78866   -13337.074    191.89142 
    4250    40.590375    40.590375    40.590375   -5.8786185    -95.14102    7.7132586    -197.9798    71.464313    174.33352   -31.397916    6.0408519    108.90439   -96.822104   -13339.822    198.35283 
    4300    40.592312    40.592312    40.592312   -99.932489   -134.35608    -31.50041   -237.22132   -92.003546    10.860661   -194.89117   -73.437843    29.396623   -176.29655   -13339.728    199.31371 
    4350    40.591432    40.591432    40.591432    30.669897   -17.453823    85.401495   -120.33129    116.38325    219.26206    13.488372   -6.9197307     95.92952   -109.77253   -13337.239    195.64072 
    4400    40.590868    40.590868    40.590868    6.1809803   -68.690877    34.167739   -171.53957    32.701826     135.5564   -70.134471    54.531992    157.43368   -48.354067   -13340.043     202.2069 
    4450    40.592123    40.592123    40.592123   -2.7294806    31.335042    134.22049   -71.526607   -35.521345    67.345802   -138.37265   -4.0021387    98.865572   -106.85636   -13337.875    199.15199 
    4500    40.593642    40.593642    40.593642   -65.462705    36.313648    139.16635   -66.524287   -97.154892    5.7236986   -200.02275   -135.54687   -32.694787   -238.39606    -13337.41     199.3838 
    4550    40.592338    40.592338    40.592338   -64.277171   -161.69941   -58.838944   -264.56747   -86.840811    16.046155   -189.73226    55.708711    158.58179   -47.166323   -13338.207    202.07086 
    4600    40.590278    40.590278    40.590278     249.1077    320.61637    423.52154    217.70924    284.38178    387.29847    181.46754    142.32493    245.26037    39.389635   -13335.472    197.91016 
    4650    40.594313    40.594313    40.594313   -36.483052   -43.388388    59.459741   -146.22361     7.304162    110.15305   -95.543099   -73.364929     29.47706   -176.20077   -13336.259    200.57068 
    4700    40.596271    40.596271    40.596271   -162.12355   -160.59482   -57.787591   -263.39298   -175.19352   -72.340219   -278.02718   -150.58232   -47.722653   -253.42346   -13336.155    201.50807 
    4750    40.592916    40.592916    40.592916    73.064448    98.496599     201.3992   -4.3881267    218.68878    321.58087    115.80947   -97.992039    4.8704582   -200.84317   -13336.665     203.6226 
    4800    40.592243    40.592243    40.592243    93.558524    177.60258    280.47304    74.724153   -87.323114    15.584381   -190.22783    190.39611    293.25325    87.540511   -13336.604    204.63746 
    4850    40.595451    40.595451    40.595451    4.2171739   -108.36622   -5.5287435   -211.20142    56.758562    159.64202   -46.116211    64.259175    167.13966   -38.620438   -13334.982    202.63372 
    4900     40.59738     40.59738     40.59738   -207.49532   -38.513481    64.320938   -141.34565   -236.77389   -133.94566   -339.60339   -347.19859   -244.34522   -450.03545   -13335.657    205.06988 
    4950    40.592949    40.592949    40.592949    160.16595    79.901741    182.76923   -22.973194    153.84852    256.73025    50.950623    246.74758    349.67362     143.8149   -13333.532    202.08895 
    5000    40.593071    40.593071    40.593071    183.41074     268.5787    371.49587    165.67219     243.1868    346.08765    140.28544    38.466717    141.40752   -64.489035   -13334.242    204.58527 
    5050    40.598517    40.598517    40.598517   -115.69735   -166.07939   -63.283622   -268.86667     -169.547   -66.673562   -272.40865   -11.465649    91.361198   -114.27968   -13334.019    205.27643 
    5100     40.59878     40.59878     40.59878   -111.70343    -8.370906    94.486013   -111.20887   -166.12906   -63.284891   -268.94364   -160.61033   -57.806199   -263.38817   -13332.452    203.37832 
    5150    40.594255    40.594255    40.594255    96.931121    101.97383    204.84183  -0.88579851    87.628943    190.51957   -15.246472    101.19059    204.09648   -1.6914726   -13334.964    209.35602 
    5200    40.594043    40.594043    40.594043    196.29774    273.67141    376.54786    170.79603    221.69784    324.53765    118.84521    93.523963    196.42215   -9.3912712   -13335.021    210.58986 
    5250     40.59947     40.59947     40.59947   -89.380203   -116.97376   -14.135574   -219.81987   -109.49403   -6.6060752    -212.3905    -41.67282    61.155587   -144.50585   -13330.257    202.50162 
    5300    40.599859    40.599859    40.599859   -145.25531   -136.63669   -33.826058   -239.43542   -209.45351   -106.61108   -312.27084   -89.675735    13.169425    -192.5016   -13332.957    208.84095 
    5350    40.595213    40.595213    40.595213    222.90062    257.82359    360.69969    154.95567    316.73027    419.61621    213.84599    94.147998     197.0192   -8.7205993   -13332.065    208.23568 
    5400    40.596174    40.596174    40.596174    152.99394    182.46696    285.32793    79.585508    168.26953    271.20002    65.319278    108.24535    211.13013    5.3446548   -13331.528    208.31029 
    5450    40.601169    40.601169    40.601169   -137.60144   -286.80303   -183.96137   -389.64731   -30.046473    72.793647   -132.88888   -95.954809    6.9071895   -198.82768   -13330.969    208.33875 
    5500    40.601195    40.601195    40.601195   -223.23281   -155.64611   -52.851806   -258.41937   -294.77355   -192.00279   -397.52761   -219.27877   -116.47366   -322.06419   -13333.433    214.21786 
    5550    40.595615    40.595615    40.595615    182.19163    236.97313    339.89335    134.06723    219.29512    322.24349    116.36783    90.306631    193.19355   -12.564703   -13332.625    213.77091 
    5600     40.59647     40.59647     40.59647    157.71549    95.081188     197.9911   -7.8341745    126.56426    229.45686    23.664605    251.50101    354.39008     148.6182    -13331.02    211.77575 
    5650    40.602086    40.602086    40.602086   -122.48126   -162.13077   -59.297073   -264.95464   -127.35932    -24.52639   -230.19018   -77.953682    24.915072   -180.81705   -13328.959    208.89658 
    5700    40.602031    40.602031    40.602031   -129.57349   -144.97713    -42.17096   -247.76504    -92.19506    10.627246   -194.99781   -151.54828   -48.686233   -254.39343   -13330.973    213.90323 
    5750    40.597351    40.597351    40.597351    249.95841     130.2933    233.16726    27.418208    256.42866    359.35225    153.50507    363.15327    466.02051    260.28194   -13329.355    211.87752 
    5800    40.599001    40.599001    40.599001    81.368288    70.461749    173.36409    -32.44525    220.52608    323.41894    117.63266   -46.882963    55.993401    -149.7548    -13329.51    213.28364 
    5850    40.603186    40.603186    40.603186   -204.96413   -200.81552   -97.998463   -303.62225   -191.63639   -88.829882   -294.43231   -222.44049   -119.57407   -325.29258   -13330.974    217.21937 
    5900    40.602446    40.602446    40.602446   -126.97389   -248.41884   -145.56612   -351.26403   -16.958909    85.935421   -119.84045   -115.54392   -12.682925   -218.40867    -13329.54    215.52932 
    5950    40.598403    40.598403    40.598403     257.9828    272.70332    375.63483    169.78518    348.64877    451.52465    245.76785    152.59632    255.50826    49.697378   -13327.614    212.91421 
    6000     40.60021     40.60021     40.60021    86.846298    101.33594    204.19725   -1.5210296   -18.435667    84.482496   -121.32833    177.63862    280.51689    74.769497   -13327.324    213.44455 
    6050     40.60381     40.60381     40.60381     -147.965   -193.76594   -90.939041   -296.59688   -73.546053    29.288493   -176.38884   -176.58301   -73.733045   -279.44534   -13330.172    220.05867 
    6100    40.602318    40.602318    40.602318    -26.95951    24.115571    126.94653   -78.724925    -126.5007    -23.62764   -229.38827    21.506596    124.38429   -81.373709   -13327.624    216.21915 
    6150    40.600005    40.600005    40.600005    91.858136   -57.062472      45.8263    -159.9356     204.7372     307.6229    101.87086    127.89968    230.76993    25.048511   -13329.971    221.84627 
    6200    40.601871    40.601871    40.601871     18.81411    18.213485    121.12115    -84.68442    68.835547    171.72257   -34.040229   -30.606703    72.308853   -133.53323   -13326.581     216.3745 
    6250    40.604737    40.604737    40.604737   -124.00793   -72.865587    29.976335   -175.71302   -231.27249   -128.44832   -334.11004   -67.885715    34.962149   -170.74139    -13327.32    218.88695 
    6300    40.603226    40.603226    40.603226    38.479186    -71.27144    31.571099    -174.1194     210.4996    313.37089    107.62662   -23.790601    79.060263   -126.63094   -13327.339     220.0188 
    6350    40.602348    40.602348    40.602348    53.655171    168.57174    271.40545    65.746672   -65.580559    37.271861   -168.40781    57.974335    160.83978   -44.870033   -13327.803    222.00053 
    6400    40.604389    40.604389    40.604389   -55.165601   -243.02272   -140.14691   -345.87658    81.803234    184.70779   -21.095473   -4.2773159    98.599068   -107.14525    -13327.19    221.89227 
    6450    40.605242    40.605242    40.605242   -103.23012   -18.394609    84.460883   -121.25794   -201.09066   -98.245809   -303.94679   -90.205083    12.667193   -193.06849   -13326.925    222.45568 
    6500    40.603815    40.603815    40.603815    39.068389   -146.98714   -44.074364   -249.90082     -28.4868    74.390194   -131.35555    292.67911    395.60733    189.75702   -13326.809    223.30103 
    6550     40.60387     40.60387     40.60387    22.403565    29.280286     132.1363   -73.573882    75.786435    178.65356   -27.067254   -37.856025    65.008255   -140.71212   -13324.708    220.30764 
    6600     40.60543     40.60543     40.60543    36.934272   -27.131059    75.712017   -129.95163    31.251669    134.15082   -71.635393     106.6822    209.54891    3.8183157   -13325.152    222.24729 
    6650    40.606492    40.606492    40.606492    27.935899   -38.026677    64.856967   -140.88702    291.58289    394.47743    188.69753   -169.74852   -66.865381   -272.63204   -13323.272    219.68455 
    6700    40.605902    40.605902    40.605902   -2.8302171   -32.479587    70.315984   -135.28337   -15.290284    87.545235   -118.13892    39.279221    142.07932   -63.516514   -13325.483    225.03079 
    6750    40.605041    40.605041    40.605041    116.28823    11.166754      114.028   -91.707328    118.66357      221.584     15.73661    219.03438    321.96377    116.10673     -13324.7    224.58162 
    6800    40.606317    40.606317    40.606317   -94.135085   -116.06994   -13.193429   -218.94234   -53.083775    49.803251   -155.95029   -113.25154   -10.402959    -216.1029   -13324.612    225.46738 
    6850    40.606909    40.606909    40.606909   -131.72414   -177.87527   -75.036089   -280.71144   -112.67255   -9.8103562   -215.51391   -104.62461   -1.7506544   -207.49157   -13327.361    231.83937 
    6900    40.606457    40.606457    40.606457    38.770044   -42.543621    60.310132   -145.38582    139.77117    242.63852    36.911161    19.082584    121.97419   -83.790698    -13323.81    226.02987 
    6950    40.607088    40.607088    40.607088    -35.87355   -57.864929    44.961059    -160.6606   -99.363756    3.4954004   -202.23052    49.608035    152.44964   -53.226613   -13325.976    231.28561 
    7000    40.607798    40.607798    40.607798   -21.517973   -27.074967    75.833717   -129.98842    68.888779    171.79826   -34.012175   -106.36773   -3.5005656   -209.23923   -13321.758    224.17335 
    7050    40.608361    40.608361    40.608361   -85.333283   -62.294957     40.53951   -165.12694   -78.471956    24.401325   -181.32962   -115.23294   -12.414338   -218.04399   -13324.227    229.99186 
    7100    40.607551    40.607551    40.607551  -0.32340728   -15.680349    87.152502   -118.50892    51.728357    154.60639   -51.146354    -37.01823    65.882544   -139.90924   -13323.223    229.10019 
    7150     40.60782     40.60782     40.60782    20.921777    45.317835    148.17329   -57.531816   -55.509065    47.338525   -158.34965    72.956561    175.85923   -29.941573   -13323.207    230.11782 
    7200    40.609482    40.609482    40.609482   -77.821672   -101.91746   0.90937091   -204.74552    4.9611119    107.84634   -97.927863   -136.50867   -33.646872   -239.36674   -13323.495    231.72021 
    7250    40.609913    40.609913    40.609913    50.433017   0.56460385    103.42656   -102.29629    75.008988    177.84443   -27.845613     75.72546    178.55871   -27.124461   -13321.183    228.29296 
    7300     40.60956     40.60956     40.60956    -69.90714   -13.571925    89.245627   -116.40235   -179.09254   -76.239773   -281.94617   -17.056953    85.806517   -119.90453   -13321.826    230.56804 
    7350    40.608273    40.608273    40.608273    147.86894    124.22491    227.11093    21.351026    181.66507    284.60098    78.746875    137.71684    240.61173     34.82722   -13319.822    227.72576 
    7400     40.61072     40.61072     40.61072   -38.902497   -22.541514    80.339876   -125.41562   -63.916036    38.974428   -166.78647   -30.249939     72.61218   -133.09102   -13321.343    231.69891 
    7450      40.6122      40.6122      40.6122   -125.41163   -226.57028   -123.78647   -329.33906    -33.61997      69.2033   -136.43437   -116.04465   -13.261494   -218.82011   -13322.895    235.72868 
    7500    40.610108    40.610108    40.610108   0.23229987   -85.457416    17.396144   -188.30052    5.8911509    108.74056   -96.967221    80.263165    183.13069   -22.600456   -13321.055    233.20319 
    7550    40.608593    40.608593    40.608593    216.78304    152.03962    254.92523    49.165462    265.65517    368.54496    162.79591    232.65434    335.56795    129.74981   -13319.725    231.64868 
    7600    40.612333    40.612333    40.612333   -46.447022   -71.347699     31.51152   -174.19868    11.081953      113.957   -91.791372    -79.07532    23.762782    -181.9036    -13319.66    232.54909 
    7650    40.614101    40.614101    40.614101    8.5688691   -63.097679     39.69045   -165.89392    126.74828    229.58274    23.911227   -37.943999    64.896704   -140.78575   -13317.293     228.9811 
    7700    40.612387    40.612387    40.612387   -98.768505   -57.973541      44.8322   -160.77595   -144.42907   -41.518311   -247.34443   -93.902904    8.9037608   -196.71551   -13319.588    234.44054 
    7750    40.607968    40.607968    40.607968    199.50031    202.77634    305.71986    99.836088    254.41477    357.30944    151.52668    141.30983    244.18805    38.421201   -13320.441    237.10839 
    7800    40.611213    40.611213    40.611213    10.113906    81.539417    184.38108   -21.290466    -64.43268    38.425348   -167.29473     13.23498    116.09123   -89.622965   -13320.135    237.51591 
    7850    40.615802    40.615802    40.615802    -190.8177   -123.93483   -21.131995   -226.73888   -155.49397   -52.638006   -258.34277   -293.02431   -190.15286   -395.88506   -13316.958    232.37563 
    7900    40.614071    40.614071    40.614071   -62.814506    -179.3342   -76.550824   -282.12256   -47.023971    55.857396   -149.88598    37.914647    140.78474   -64.941581   -13319.654    238.59408 
    7950    40.610522    40.610522    40.610522     61.91862    100.38714    203.28179   -2.5004497    136.28653    239.22478    33.338591   -50.917809    51.912958   -153.75537   -13320.447    241.13365 
    8000    40.612416    40.612416    40.612416    54.480615    36.677358    139.58059   -66.206885    96.889371    199.74361   -5.9449641    29.875117    132.79281   -73.020823   -13318.108    237.59574 
    8050    40.616739    40.616739    40.616739   -201.42892   -220.49972   -117.65729   -323.32103   -266.56184   -163.73673   -369.36909   -117.22521   -14.403062   -220.02769   -13317.484     237.3978 
    8100    40.613917    40.613917    40.613917   -29.516087   -62.473189    40.376392   -165.33831    8.6103831    111.44432   -94.220491   -34.685456    68.154822   -137.52084   -13318.824    240.98117 
    8150    40.611079    40.611079    40.611079    233.41268     250.2191    353.06212    147.38356    199.26147    302.17938    96.354009    250.75748      353.663    147.86614   -13316.499    237.46563 
    8200    40.615557    40.615557    40.615557   -73.482497   -143.76325   -40.896243   -246.60896    121.83238    224.68978    18.978457   -198.51662   -95.714546   -301.31447   -13318.206    241.75524 
    8250    40.618041    40.618041    40.618041   -99.554299    28.475224    131.29803   -74.357706   -164.46411   -61.603297    -267.3217   -162.67401   -59.862921   -265.48133    -13314.28    235.13872 
    8300    40.614975    40.614975    40.614975    28.031927   -144.03934   -41.183496   -246.89749    205.83186    308.69973    102.96252    22.303256    125.16467   -80.546823   -13316.211    239.85171 
    8350    40.611951    40.611951    40.611951    171.74974    263.70158    366.61583    160.79317    140.68604    243.58591    37.781137    110.86162    213.76032    7.9593061   -13316.616    241.61323 
    8400    40.614453    40.614453    40.614453    143.17086  -0.11537715    102.73912   -102.97354    138.95256    241.84687    36.048999     290.6754    393.53147    187.79387   -13313.361    236.28983 
    8450    40.618979    40.618979    40.618979   -283.99859   -222.64095   -119.81729   -325.45429   -181.34927    -78.52721   -284.16159   -448.00554   -345.13718   -550.86875   -13317.732     245.7156 
    8500    40.615661    40.615661    40.615661   -29.771671   -69.689884    33.158025   -172.52411    -99.93417    2.9505771   -202.79337    80.309039    183.18131   -22.548072    -13315.56    242.47643 
    8550     40.61192     40.61192     40.61192    275.83701    274.34212    377.26737    171.42131    321.67168     424.6061    218.72766    231.49724    334.33839     128.6616   -13315.123     242.6027 
    8600    40.616597    40.616597    40.616597   -150.21221    -307.5939   -204.75297   -410.43164    22.330695    125.24383   -80.556511   -165.37342   -62.544062     -268.189   -13317.089    247.35868 
    8650     40.61938     40.61938     40.61938   -70.949903   -188.44591   -85.638131   -291.24341   -23.889919    78.906389     -126.685  -0.51388247    102.33135   -103.35178   -13313.832    242.01927 
    8700    40.618511    40.618511    40.618511   -118.97868   -41.616921    61.233497   -144.47297   -90.616415    12.208099   -193.44281   -224.70272   -121.86413   -327.53736   -13314.804    244.84642 
    8750    40.615356    40.615356    40.615356    184.70792    24.093517    126.97928   -78.777889    267.47839    370.43719    164.53711    262.55184    365.42712     159.6824   -13312.664    241.65958 
    8800     40.61578     40.61578     40.61578    49.124551    51.019324    153.89073     -51.8431    85.170428    188.08969   -17.742019    11.183902    114.01555   -91.643426   -13313.827    244.86054 
    8850    40.617841    40.617841    40.617841   -30.004023   -14.969104    87.870857   -117.80452    14.218623    117.09959   -88.651942   -89.261589    13.585414   -192.09101    -13314.23    246.57563 
    8900    40.618905    40.618905    40.618905   -196.67237   -69.287145    33.562503   -172.14206   -267.14581   -164.31502    -369.9787   -253.58416   -150.75889   -356.38988   -13315.482    249.94202 
    8950    40.616633    40.616633    40.616633    113.56155     17.70615    120.60499   -85.187693    205.62112    308.49029    102.76352    117.35737    220.25448    14.438273   -13312.174    244.47327 
    9000    40.617981    40.617981    40.617981   -5.3782871   -96.290796    6.5728901   -199.13848    102.10605    204.94345  -0.73022048   -21.950111    80.877947   -124.79726   -13315.903    252.62496 
    9050    40.620148    40.620148    40.620148   -48.644761    26.770246    129.58644   -76.033159   -95.187336    7.6959488   -198.08032   -77.517195     25.33283   -180.33168   -13311.498    245.02404 
    9100    40.620057    40.620057    40.620057   -49.592958   -174.28861   -71.478471   -277.10843   -33.121107    69.733844   -135.94613    58.630846    161.50407    -44.22469   -13312.283    247.47347 
    9150     40.61758     40.61758     40.61758    150.26405    225.47259    328.36499    122.59133    101.73932    204.61803   -1.1359254    123.58025    226.46072    20.702742   -13310.095    244.16108 
    9200     40.61774     40.61774     40.61774    72.268147    41.329583    144.25877   -61.584094    38.217779    141.03946   -64.603663    137.25708    240.12571    34.387222   -13311.689    248.16871 
    9250    40.619622    40.619622    40.619622   -84.083887   -149.79255   -46.971157   -252.61508    -69.87264    32.974677   -172.73047   -32.586469    70.241538   -135.40988   -13311.349    248.42467 
    9300    40.619538    40.619538    40.619538    119.50181    125.80622     228.5817    23.018128     23.83651    126.73114   -79.045856    208.86271    311.69694    106.02058   -13311.853    250.31265 
    9350    40.620623    40.620623    40.620623   -23.026387   -212.93313   -110.06391   -315.79702    47.062092      149.966   -55.837136    96.791877    199.68434   -6.0875324   -13310.946    249.45277 
    9400    40.621651    40.621651    40.621651   -110.30374    55.349363    158.20512   -47.495023   -308.53971    -205.7007   -411.37355   -77.720873    25.102437   -180.54361    -13310.94    250.34293 
    9450    40.620796    40.620796    40.620796    119.80518    22.147835     125.0037   -80.707837    168.09362    270.96342    65.231027    169.17409    272.06404    66.281904   -13308.678    246.86507 
    9500    40.621436    40.621436    40.621436   -77.654363   -94.095478    8.7778047   -196.95936   -169.62014   -66.782241   -272.45296    30.752526    133.55872   -72.042527   -13312.361    254.89143 
    9550    40.620956    40.620956    40.620956    80.176844   -81.439503    21.396942   -184.25851    171.10941    273.97757    68.246552    150.86063    253.73561    47.996922   -13310.642     252.4677 
    9600    40.623082    40.623082    40.623082   -100.37971   -50.707541    52.137041   -153.53372   -83.798674     19.10111   -186.67598   -166.63292   -63.783091   -269.46911   -13311.014    254.06807 
    9650     40.62368     40.62368     40.62368   -96.708169   -111.18675   -8.3880211     -213.983   -146.71085   -43.923994   -249.49756   -32.226906    70.585762    -135.0339   -13309.976    252.94982 
    9700    40.621786    40.621786    40.621786    25.766695   -101.68196    1.1508496   -204.51145    193.85198    296.70274    90.988896   -14.869939    87.994761   -117.73099   -13311.217    256.23031 
    9750    40.621617    40.621617    40.621617    63.783347    45.223363    148.13122   -57.689364    18.202269    121.11574   -84.692393    127.92441    230.76927    25.082949   -13309.015    252.84887 
    9800    40.623567    40.623567    40.623567    30.108544   -256.64207   -153.83165   -359.44449    218.38384    321.20584    115.58158    128.58387    231.40477    25.773838   -13308.817     253.3361 
    9850    40.625018    40.625018    40.625018   -209.09391   -204.87145   -102.08144   -307.64709   -333.00963   -230.13641   -435.86852   -89.400642    13.389112   -192.17831    -13310.94    258.31262 
    9900    40.622237    40.622237    40.622237    148.31384    127.49748    230.39421    24.610443    211.31408    314.16937    108.45689    106.12996    209.07485    3.1838771   -13307.278    252.08567 
    9950    40.623383    40.623383    40.623383     1.582774    69.834119      172.658   -32.993752   -163.62004   -60.769385   -266.45845    98.534248    201.36916   -4.2853294   -13310.401     258.9926 
   10000     40.62607     40.62607     40.62607   -49.067764   -32.888182    69.955814    -135.7109    31.781308    134.61506     -71.0577   -146.09642   -43.310926   -248.88175   -13306.221    251.76572 
   10050    40.625601    40.625601    40.625601   -111.26613   -260.75667   -157.93896   -363.57428   -93.751589    9.0446753    -196.5501    20.709871    123.53474   -82.130422   -13309.037    258.07207 
   10100     40.62165     40.62165     40.62165    194.77386    28.814092    131.71577   -74.094778    505.48434    608.40452    402.56861    50.023147    152.87515   -52.821024   -13308.396    257.68142 
   10150    40.623957    40.623957    40.623957    148.65111    67.804204    170.64087   -35.036369    36.673761    139.52761   -66.171029    341.47535    444.33686    238.62193   -13305.783    253.47093 
   10200    40.629076    40.629076    40.629076   -266.31898   -507.92354   -405.12236    -610.7057   -161.58297   -58.827357   -264.34098   -129.45043   -26.671189   -232.22066     -13308.7    259.95316 
   10250    40.626239    40.626239    40.626239    139.51768    308.09578    410.92614    205.27503    15.774635    118.64813   -87.094935    94.682613    197.54114   -8.1790461    -13303.86    251.42496 
   10300    40.624167    40.624167    40.624167     -32.4434   -82.799664    20.061686    -185.6629   -62.479318    40.419555   -165.36964    47.948784    150.82166   -54.899547   -13309.107    262.41275 
   10350    40.623612    40.623612    40.623612     175.4361    204.33298    307.22087    101.45294      258.726    361.60955    155.85646     63.24931    166.08084   -39.583161   -13305.282     255.8423 
   10400    40.627102    40.627102    40.627102   -209.12009   -222.42107   -119.61028   -325.22117   -245.20351    -142.4106   -347.99276   -159.73569   -56.954576   -262.49641   -13309.194    264.24465 
   10450    40.626953    40.626953    40.626953   -37.296466   -132.87675   -30.040335   -235.70194     82.48944    185.31219   -20.312163   -61.502083    41.346043   -164.35437   -13306.088    259.05202 
   10500    40.625844    40.625844    40.625844     3.606221    -58.26973    44.543964   -161.07908   -86.758565    16.118322    -189.6363    155.84696    258.75081    52.962331   -13306.912    261.45961 
   10550    40.625595    40.625595    40.625595    111.78184    112.94411    215.78803    10.109143    309.47861    412.44968    206.52228   -87.077194    15.769651   -189.91449    -13304.68    257.95671 
   10600    40.628278    40.628278    40.628278   -8.4171661     70.80722    173.62693   -31.993545   -24.293744    78.511098   -127.09957   -71.764974    31.032821   -174.55819    -13304.87    259.13252 
   10650    40.629525    40.629525    40.629525    -76.00165    29.818683    132.71103   -73.087992    -84.45566     18.26816   -187.16937   -173.36797   -70.589597   -276.13447   -13304.625    259.46901 
   10700    40.627011    40.627011    40.627011    47.009139   -16.427123    86.414712   -119.26038    162.61651    265.48891    59.756678   -5.1619706    97.645555   -107.97566   -13306.004    262.94252 
   10750    40.625683    40.625683    40.625683    101.81504    128.92511    231.75698    26.099596    169.09554    271.93359    66.255876    7.4244807    110.34742   -95.502131   -13304.619    261.05812 
   10800    40.628883    40.628883    40.628883   -57.759356   -232.59692   -129.72889   -335.45812   -42.288746    60.568319    -145.1398     101.6076    204.42341   -1.1889029   -13305.472    263.48864 
   10850    40.630171    40.630171    40.630171   -214.60569     -342.753   -239.95217   -445.56256   -101.34117    1.4671569   -204.14737    -199.7229   -96.959811   -302.46721   -13305.818    264.95585 
   10900    40.625775    40.625775    40.625775    151.63751    78.462207    181.32293   -24.388126    158.15176    261.05585    55.251667    218.29857    321.11667    115.46447   -13303.888    262.00642 
   10950    40.625825    40.625825    40.625825    156.99311    351.87784    454.74385    249.02164    28.857647    131.74116   -74.029953    90.243849    193.12801   -12.646445   -13304.334    263.65212 
   11000    40.629465    40.629465    40.629465   -4.6147152   -257.73613    -154.9165   -360.55303    122.77483    225.56742    19.992336    121.11715    223.99408    18.224425   -13303.002    261.85318 
   11050    40.631044    40.631044    40.631044   -216.10871   -397.60634   -294.76381    -500.4377   -158.54736   -55.727169   -261.36084   -92.172443    10.625679   -194.95626   -13305.477     267.4096 
   11100    40.628304    40.628304    40.628304   -8.2088922    -27.43093    75.360783   -130.21422   -7.8096948    95.027071   -110.63531    10.613949    113.45533   -92.197323   -13304.539    266.35772 
   11150    40.626833    40.626833    40.626833    47.524497   -24.750529    78.121418   -127.62353    171.35739    274.24494    68.488793   -4.0333658    98.839674   -106.89392   -13304.416    266.89007 
   11200    40.628827    40.628827    40.628827    66.135866   -26.759252    76.082006   -129.58363    -54.27607    48.569417   -157.11739    279.44292     382.2687    176.64586   -13302.796     264.5124 
   11250    40.631237    40.631237    40.631237   -205.72997   -313.74178   -210.96284   -416.50288   -196.51809   -93.717425   -299.32306   -106.93004   -4.0896735    -209.7767   -13303.694    267.01032 
   11300    40.627988    40.627988    40.627988    145.36804    303.85977    406.74246     200.9564    46.112924    149.02788   -56.795796    86.131426    188.93845   -16.674164   -13301.625    263.75624 
   11350    40.627598    40.627598    40.627598    123.42655    49.406004     152.2641   -53.441184     151.7312    254.56696    48.891692    169.14245    272.00252    66.284455     -13302.5    266.19717 
   11400    40.631013    40.631013    40.631013   -77.358293   -166.48749   -63.655808   -269.30525    -50.58186    52.310759   -153.46036   -15.005531    87.858173    -117.8608   -13302.024    266.01716 
   11450    40.632363    40.632363    40.632363   -19.472944    -90.11872    12.664122   -192.89716   -33.678407    69.156145   -136.50134    65.378293    168.16405   -37.401282    -13300.91    264.60553 
   11500    40.630696    40.630696    40.630696   -3.0508462   -160.00149    -57.19707   -262.79794    48.513397     151.3301   -54.289568    102.33555    205.16668  -0.48494979   -13301.475    266.43476 
   11550    40.628804    40.628804    40.628804    126.34517    150.27522     253.1077    47.462097    126.02328     228.8769    23.174385    102.73703    205.57036 -0.077849318   -13302.117    268.41079 
   11600    40.630261    40.630261    40.630261    73.233627   -189.57979    -86.71153   -292.42957    117.34552    220.18224    14.533975    291.93515    394.77848    189.08088   -13300.928    266.82904 
   11650    40.634013    40.634013    40.634013   -181.24677   -102.18677   0.61116187   -204.98517   -93.849952    8.9249942   -196.62476   -347.70358    -244.8978   -450.49569   -13302.663    270.90194 
   11700    40.633111    40.633111    40.633111   -58.957529   -187.11382   -84.298197   -289.93399   -111.76711   -8.9236657   -214.61248    122.00834    224.87095    19.144298   -13300.459     267.3539 
   11750    40.630416    40.630416    40.630416    24.711564   -45.483729    57.301943    -148.2727    126.59345    229.42722    23.750547   -6.9750275    95.804548   -109.73989   -13302.282    271.58763 
   11800     40.63046     40.63046     40.63046    26.762155   -93.700409    9.1286767   -196.52121     19.32279     122.2354   -83.576644    154.66408    257.50611     51.80947   -13302.153    272.05155 
   11850    40.633042    40.633042    40.633042   -87.038853   -104.27361   -1.4493832   -207.10322    -134.4311   -31.622827   -237.22063   -22.411855    80.426861   -125.24233   -13300.574    269.69782 
   11900    40.633192    40.633192    40.633192   -79.570443    23.165684    125.98674   -79.629882   -28.753296    74.010753   -131.52826   -233.12372   -130.31601   -335.92691   -13299.843    268.98867 
   11950    40.631173    40.631173    40.631173    118.26227     10.00073     112.8278   -92.817744    122.41582    225.28647    19.558668    222.37025    325.23106    119.51649   -13301.134    272.18158 
   12000    40.632786    40.632786    40.632786   -78.056303    59.459661    162.26551   -43.353815   -129.93546   -27.092995   -232.76455   -163.69311   -60.873612   -266.49966   -13301.306    273.20595 
   12050    40.633253    40.633253    40.633253   -112.85073   -227.21485    -124.4445   -329.97368   -134.45662   -31.677762   -237.23993    23.119281    125.91371    -79.65734   -13301.911    275.06268 
   12100    40.631762    40.631762    40.631762    74.823908    125.98572    228.84295    23.139016   -51.757588    51.123559   -154.62463     150.2436    253.07529    47.408327   -13300.219    272.47072 
   12150    40.632564    40.632564    40.632564    51.699905    67.557455    170.37694   -35.242326    36.367176    139.17092   -66.435403    51.175083    154.02225   -51.659536   -13299.354    271.46837 
   12200    40.635215    40.635215    40.635215   -52.400902   -178.48675   -75.575134   -281.40955   -65.642467     37.13907   -168.41539    86.926515    189.75327   -15.889787   -13298.614    270.70756 
   12250    40.635432    40.635432    40.635432   -130.77979   -126.65134   -23.912695   -229.37999   -32.035334    70.826332   -134.89211   -233.65269   -130.89715   -336.40455   -13301.017    276.02303 
   12300    40.632938    40.632938    40.632938    135.49607    51.613656    154.40238   -51.175128    68.905016    171.73679   -33.919373    285.96953    388.82974    183.12193   -13298.193     271.2239 
   12350      40.6338      40.6338      40.6338    110.79204   -4.0624609    98.827008   -106.94668    156.24311    259.03513    53.450122    180.19546     283.0895    77.303974   -13298.862    273.17917 
   12400    40.636491    40.636491    40.636491   -84.226133   -156.34843   -53.610885   -259.08789   -53.223318    49.548811   -156.00129   -43.106656     59.61938    -145.8391   -13298.516    273.16508 
   12450     40.63608     40.63608     40.63608   -105.43112   -113.94969   -11.103251   -216.79124    31.671273    134.50337   -71.158761   -234.01495   -131.18843    -336.8425   -13299.057    274.85802 
   12500     40.63349     40.63349     40.63349    73.301941   -126.24504   -23.450636   -229.02205     99.61075    202.44616   -3.2102839    246.54011    349.30908    143.78496   -13299.132    275.65091 
   12550    40.634765    40.634765    40.634765    108.36807    158.23465    261.05716    55.422793    4.7940989    107.64418   -98.037669    162.07545    264.91961    59.223271   -13297.624     273.3763 
   12600    40.638009    40.638009    40.638009   -209.13169   -344.18259   -241.37463   -446.98282   -95.649934    7.1695741   -198.47097   -187.56254   -84.740072   -290.37899   -13298.598     275.8979 
   12650    40.635318    40.635318    40.635318    42.289504    47.830192    150.67766   -55.007916   -45.030418    57.761735   -147.79884    124.06874    226.87156    21.276735   -13299.196    277.68473 
   12700    40.634776    40.634776    40.634776    50.474438   -38.278257    64.503246   -141.04953    52.429299    155.29937   -50.426083    137.27227    240.14401    34.414597    -13298.83    277.60061 
   12750    40.637413    40.637413    40.637413   -54.674044    116.52329    219.34107    13.718631   -89.556189    13.271924   -192.38748   -190.98924   -88.196931   -293.75637   -13297.222    275.11887 
   12800    40.637637    40.637637    40.637637    17.392318    -212.4068   -109.57414   -315.24386    113.15086    215.92687    10.389011     151.4329    254.20491    48.669732   -13296.433    274.21775 
   12850    40.636444    40.636444    40.636444   -3.2089293    27.118558    130.02652   -75.785672   -64.830864     37.98111    -167.6298    28.085518    130.92912   -74.752256   -13296.615    275.18459 
   12900    40.635496    40.635496    40.635496    112.85919   -16.130395     86.63906   -118.89161    171.77843    274.60873    68.950914    182.92953    285.77349    80.090186   -13296.632    275.83382 
   12950     40.63761     40.63761     40.63761    70.575063    60.800672    163.59331   -41.988932    54.946595    157.75088   -47.867695    95.977923    198.81486   -6.8620467   -13296.897    276.95357 
   13000    40.639634    40.639634    40.639634   -170.17992   -259.99103   -157.19021   -362.78988   -351.17303   -248.44369   -453.89758    100.62431    203.40877   -2.1575594   -13298.108    279.90085 
   13050    40.637291    40.637291    40.637291   -3.4885987   -69.042692    33.752141    -171.8301    144.65744    247.54114     41.78263   -86.080541    16.687502   -188.85041    -13297.37    279.07051 
   13100    40.635236    40.635236    40.635236    285.64911    315.25233    418.14265    212.37525    260.62272     363.5153     157.7177    281.07229    383.96178    178.19073   -13293.252    271.69647 
   13150    40.639057    40.639057    40.639057   -181.74363   -167.99126    -65.28872   -270.69284   -151.01727   -48.259306   -253.76933   -226.22236   -123.44775   -328.98277   -13298.159     281.7789 
   13200     40.63981     40.63981     40.63981    56.183701   -181.40784    -78.53661   -284.27446    247.79395    350.62188     144.9716      102.165    204.95554  -0.62251537   -13294.232    274.76961 
   13250    40.638489    40.638489    40.638489   -86.426982   -235.51017   -132.71911   -338.30557   -189.17544   -86.377567   -291.97034    165.40466    268.20538    62.622236   -13297.241    281.17201 
   13300    40.635856    40.635856    40.635856    92.943918    58.114107    160.98687   -44.732503    243.30267    346.18844    140.44528    -22.58502    80.259737   -125.43335   -13296.341    280.00382 
   13350    40.637821    40.637821    40.637821   -11.807637   -71.060899    31.786783   -173.91117   -55.137929    47.665167   -157.92071    90.775916    193.53617   -11.975759   -13297.248    282.32932 
   13400    40.640089    40.640089    40.640089   -244.51189   -222.86359   -120.08458   -325.63567   -325.95106   -223.18352   -428.70902     -184.721   -81.860331   -287.58944   -13296.377    281.21349 
   13450    40.637708    40.637708    40.637708    224.67057    299.08332    401.91493    196.26388    228.42859    331.25409    125.59539     146.4998    249.36158    43.657179   -13293.736    276.66879 
   13500    40.638508    40.638508    40.638508   -35.183139   -224.25489   -121.42408   -327.07354   -23.668273    79.123942   -126.46243    142.37375     245.1929    39.576577    -13294.82     279.3269 
   13550    40.638004    40.638004    40.638004   -29.545736   -110.31045   -7.5042192   -213.10528    48.517033    151.42145   -54.364344   -26.843796    75.878935   -129.57212   -13296.986    284.07303 
   13600    40.637313    40.637313    40.637313    2.9985382    -20.30025    82.545046   -123.15876   -156.28401   -53.452772   -259.11652    185.57988     288.3424    82.821939   -13296.215    283.12797 
   13650    40.638396    40.638396    40.638396   -14.068008   -114.53994    -11.70361   -217.35562    18.101605    120.91879   -84.723478    54.234306    157.19734   -48.735832   -13294.578    280.50422 
   13700     40.63977     40.63977     40.63977   -24.028045   -31.566892    71.219822   -134.35314   -88.182613    14.588431   -190.94344     47.66537    150.39399   -55.044563   -13294.035    279.99381 
   13750     40.63924     40.63924     40.63924    52.050265    -17.10691    85.751077    -119.9485   -89.977532    12.909273   -192.84538    263.23524    366.14199    160.34499   -13293.941    280.34795 
   13800    40.638391    40.638391    40.638391    110.32958    153.57904    256.36922    50.792897  -0.92167679    101.97396   -103.79941    178.33139    281.17469    75.489389   -13292.726    278.53424 
   13850    40.638572    40.638572    40.638572     76.64713   -45.554201    57.279864   -148.39198    116.22915     219.0171    13.451728    159.26645    262.01931     56.51731   -13294.325    282.15374 
   13900    40.640473    40.640473    40.640473     9.791836   -57.548615    45.335496   -160.41982    19.475116    122.27918   -83.330708    67.449007    170.31691   -35.392636   -13293.875     281.8037 
   13950    40.642547    40.642547    40.642547   -155.24301   -131.91731   -29.208608   -234.60719   -131.80256   -29.083416   -234.52434   -202.00915   -99.264959   -304.74966   -13295.158    284.80494 
   14000     40.64039     40.64039     40.64039   -35.655012   -332.61646   -229.80682   -435.42839     52.87647    155.78028   -50.018171    172.77495     275.6869     69.85917   -13293.769    282.62806 
   14050    40.638549    40.638549    40.638549    49.507167    87.248983    190.04809   -15.546487    4.9390984    107.73642   -97.839494    56.333419     159.1414   -46.477144   -13295.744    286.96311 
   14100    40.639947    40.639947    40.639947      2.72087    13.003139    115.90782   -89.910266   -31.598315    71.208002   -134.40144    26.757785    129.58711    -76.05319   -13294.216    284.51509 
   14150    40.641101    40.641101    40.641101    30.233658   -3.9348283    98.924654   -106.79592    187.21131    290.01432    84.393709   -92.575504    10.194008   -195.34955   -13291.686    280.12516 
   14200    40.641083    40.641083    40.641083   -50.158484   -149.02153   -46.202889   -251.83543   -41.156181    61.623946   -143.94564    39.702255     142.4901   -63.097101   -13294.162    285.40899 
   14250    40.641189    40.641189    40.641189    22.345014    12.646576    115.41758   -90.104214   -142.41608   -39.598323   -245.23071    196.80455    299.69631    93.926548   -13294.206    285.98202 
   14300    40.641404    40.641404    40.641404    104.07924    43.143855    145.96519   -59.660602    68.220708    171.10009   -34.642803    200.87317    303.68005    98.085082   -13290.024    278.38251 
   14350    40.641892    40.641892    40.641892    -1.845087   -72.708735    30.078239   -175.49672   -198.09654   -95.249862   -300.90477    265.27002    368.05327    162.48755   -13293.086    284.79306 
   14400    40.641417    40.641417    40.641417   -36.180675   -153.97295   -51.156234   -256.77096   -44.451724    58.270439   -147.15006    89.882649    192.72039   -12.947883   -13295.188     289.3449 
   14450    40.640686    40.640686    40.640686    108.74009    143.41713    246.37732    40.462247    101.92335    204.74267  -0.89274714    80.879783    183.67981   -21.881351   -13291.498    282.67855 
   14500    40.643262    40.643262    40.643262   -14.583012    32.320591    135.05676    -70.38635   -48.607513    54.265693   -151.48941   -27.462113    75.305119   -130.24724   -13292.327    284.74998 
   14550    40.642986    40.642986    40.642986   -37.790055   -226.65181   -123.86043   -329.45001     65.67136    168.45054   -37.109493     47.61028    150.43294   -55.203305   -13292.161    284.89494 
   14600    40.640718    40.640718    40.640718    64.243243    64.196799    167.06097   -38.667252   -6.1570565    96.623453   -108.92965    134.68999    237.53809    31.863202   -13292.745    286.48662 
   14650    40.641474    40.641474    40.641474    18.583595    65.058129    167.93378   -37.814055   -126.14258   -23.183664   -229.08868    116.83524    219.61871    14.046715   -13292.072    285.64295 
   14700    40.643283    40.643283    40.643283   -80.770125     20.17634    122.98694    -82.62991   -145.49623   -42.739122   -248.24668   -116.99048   -14.195077   -219.77552   -13293.395    288.65391 
   14750      40.6432      40.6432      40.6432    18.825638    12.131751    115.00633   -90.732777   -5.8742923     96.89861   -108.64207    50.219456    152.98713   -52.551431    -13291.05    284.57408 
   14800    40.641828    40.641828    40.641828    59.688144     13.38137    116.16764   -89.395373   -6.9829497    95.867411   -109.83787    172.66601    275.56251    69.782039   -13291.847    286.56654 
   14850    40.641895    40.641895    40.641895    66.260735    -31.36407    71.435728   -134.14421    59.560317    162.35722   -43.226216    170.58596    273.47801    67.680888   -13291.946     287.1986 
   14900    40.644253    40.644253    40.644253    -137.8918   -28.810621    73.975756   -131.60457   -283.00416   -180.14549   -385.83446   -101.86061   0.87151488   -204.58497   -13293.074    289.82247 
   14950    40.643903    40.643903    40.643903   -25.902299   -149.35746    -46.55313   -252.14162   -19.989706     82.77625   -122.73907     91.64027    194.40114   -11.106503   -13291.409    287.03537 
   15000    40.641649    40.641649    40.641649     121.2001    369.62337    472.46277    266.78952   -105.35529   -2.4788254   -208.22376    99.332208    202.15823    -3.475706    -13291.13    286.92694 
   15050    40.640804    40.640804    40.640804    124.25808    130.95532     233.7807    28.125176    266.91166    369.76509    164.05225   -25.092751    77.810188   -127.98681   -13290.189    285.52842 
   15100    40.643721    40.643721    40.643721    68.421529    56.283599    159.06172    -46.48101    34.445267    137.19816   -68.303742    114.53572    217.38404    11.693528    -13289.81    285.21211 
   15150    40.646227    40.646227    40.646227   -260.38134   -424.20211   -321.41518   -526.97529   -211.45708   -108.66958   -314.23809   -145.48484   -42.794082   -248.16717   -13291.683    289.25668 
   15200    40.641762    40.641762    40.641762    130.30459    204.55067    307.43454    101.66393    116.31639    219.17394    13.455422    70.046715    172.97185   -32.869298   -13290.562    287.49797 
   15250    40.641099    40.641099    40.641099    98.566659     46.09651    148.91389   -56.715622    79.674937    182.51935   -23.157358    169.92853    272.71576    67.131999   -13292.078    290.84329 
   15300    40.644544    40.644544    40.644544   -118.84699    75.931577    178.75684   -26.904196   -140.47862    -37.62711    -243.3233   -291.99393   -189.21175   -394.75115   -13292.477    292.02294 
   15350    40.645904    40.645904    40.645904   -177.19528   -169.86276   -67.135266   -272.57236   -274.56886     -171.796    -377.3274   -87.154236    15.759937   -190.07363   -13291.589    290.70199 
   15400    40.643297    40.643297    40.643297    83.933268    152.76898    255.57558    49.987155      41.9908    144.82229   -60.837051    57.040018    159.82588   -45.748691   -13289.785    287.61095 
   15450    40.643212    40.643212    40.643212   -47.128333    -3.393349    99.435441   -106.21888   -127.31612   -24.529461   -230.09877   -10.675524    92.117999   -113.45824   -13293.994    296.15045 
   15500    40.644556    40.644556    40.644556   -10.913815    130.34848    233.21569    27.493066   -50.513648    52.315763   -153.33646   -112.57628   -9.7403929   -215.40336   -13289.964    288.73837 
   15550    40.645592    40.645592    40.645592   -114.97909   -134.85099   -32.080562   -237.61448   -47.571431    55.232442   -150.35209   -162.51484    -59.72016   -265.28958   -13290.329    289.82883 
   15600    40.643746    40.643746    40.643746    55.880874    222.32778    325.13572    119.53247   -81.345277    21.452846    -184.1322    26.660114    129.49315   -76.175729   -13290.832    291.18802 
   15650    40.643304    40.643304    40.643304    147.72957    187.86622    290.73801     84.97504    99.284361    202.09269   -3.5198105    156.03812    258.81572    53.279999   -13288.079    286.24089 
   15700    40.645435    40.645435    40.645435   -95.613541    108.29415    211.10897    5.5014305   -140.73087   -37.919186   -243.52153    -254.4039   -151.58943    -357.2291   -13291.127    292.51058 
   15750    40.645221    40.645221    40.645221   -119.59063   -210.43333   -107.69374   -313.15279     -83.1876    19.633527   -186.01078   -65.150955    37.673725   -167.94787    -13290.72    292.09127 
   15800     40.64282     40.64282     40.64282    128.44945    151.43527    254.28876     48.58253   -10.250141    92.562098   -113.06941    244.16322    347.04334    141.28791   -13290.004    291.06987 
   15850    40.643562    40.643562    40.643562    255.12946    184.87633    287.67107    82.065962    204.18276    307.02306    101.32646    376.32928    479.22107    273.42017    -13286.28     284.2209 
   15900    40.648933    40.648933    40.648933   -203.49251    -85.01199    17.760352   -187.78207   -224.27456   -121.48555   -327.03611   -301.19097       -198.5   -403.88668   -13289.703    291.20079 
   15950    40.647235    40.647235    40.647235   -177.93799   -277.47371   -174.67996   -380.24897   -130.23204   -27.473203    -232.9738   -126.10822   -23.300588   -228.89719   -13291.204    294.46058 
   16000    40.641642    40.641642    40.641642    253.28201    245.03511    347.87238    142.21252    116.57843    219.46951     13.68374    398.23248    501.10914    295.37502   -13290.572    293.59034 
   16050     40.64468     40.64468     40.64468    44.585677   -2.5265583      100.257   -105.30585    193.21688    296.09531    90.353458   -56.933291    45.848651   -159.70529   -13289.491    291.84188 
   16100    40.648092    40.648092    40.648092   -96.521565   -56.646929    46.164487   -159.44631   -213.35102   -110.58231   -316.12562   -19.566745    83.172631   -122.29556   -13287.606    288.53645 
   16150    40.646183    40.646183    40.646183   -124.85479    -223.7641   -120.96595    -326.5672    -140.8099   -38.105544    -243.5023   -9.9903647    92.873236   -112.84467   -13291.657    296.70436 
   16200    40.643683    40.643683    40.643683    260.25256    311.88632    414.70192    209.07696    121.74351    224.62433    18.855283    347.12785    449.98073    244.26707   -13286.817    287.67145 
   16250    40.647248    40.647248    40.647248   -64.881933    27.348632     130.1399   -75.429399   -187.98853   -85.144885     -290.819   -34.005901     68.72185   -136.74133   -13289.246    292.70305 
   16300    40.647707    40.647707    40.647707   -300.11993   -413.03993   -310.32371   -515.75244   -163.64314   -60.906226   -266.37139    -323.6767   -220.86881   -426.44726   -13292.628    299.56755 
   16350    40.643982    40.643982    40.643982     184.8353    291.46572     394.3194    188.63737    92.583257    195.39373   -10.206954    170.45693    273.24805    67.678534   -13288.662    292.21654 
   16400    40.646359    40.646359    40.646359   -120.05301   -36.129501    66.716206   -138.96659   -117.08587    -14.25282   -219.90856   -206.94367   -104.15938   -309.71474   -13290.463    296.02097 
   16450    40.646194    40.646194    40.646194     131.3871    117.35014     220.0906    14.598977    123.33839    226.21509    20.472304    153.47277    256.25167    50.698862   -13286.527    288.71751 
   16500    40.645997    40.645997    40.645997    19.115891    199.68744    302.45641    96.925986   -44.688078    58.051033   -147.41615   -97.651693    5.1198028   -200.42856   -13287.923    291.72469 
   16550    40.645018    40.645018    40.645018      139.161    245.82592    348.64522    143.01172    67.598466    170.56415   -35.371213     104.0586    206.89031    1.2257381   -13286.999    290.23117 
   16600    40.646961    40.646961    40.646961   -47.628543   -26.188985    76.634891   -128.99695   -115.06211   -12.300662   -217.81514   -1.6345282     101.1535   -104.43726   -13288.658    293.73898 
   16650    40.647639    40.647639    40.647639   -163.65753   -132.37627    -29.60372   -235.15042   -199.92358   -97.208349   -302.63745   -158.67272   -55.822404   -261.49777   -13289.088    294.86789 
   16700    40.644928    40.644928    40.644928    90.328838    3.7104478    106.49743   -99.072903    156.31857    259.14858    53.515136     110.9575    213.83743    8.0769184   -13289.441    295.84883 
   16750    40.645008    40.645008    40.645008    66.487621    308.01568    410.87825    205.17246   -9.2102034    93.632164   -112.05858   -99.342608    3.3928256   -202.05877   -13287.397    292.18604 
   16800    40.646982    40.646982    40.646982   -28.647079    -1.732685    101.06805   -104.50095   -113.97574    -11.11526   -216.84081    29.767187    132.57596   -73.017709   -13288.147    293.92404 
   16850    40.647575    40.647575    40.647575   -113.98103   -112.42947   -9.6438807   -215.22099   -158.39772   -55.650462   -261.13228   -71.115905     31.65903   -173.89046   -13289.385     296.6021 
   16900     40.64558     40.64558     40.64558    185.06392    171.88758    274.74161    69.012285    257.47412    360.29499    154.65805    125.83005     228.6637    22.988359   -13286.361    291.02729 
   16950    40.646624    40.646624    40.646624   -8.3386466    105.91063    208.63548    3.1914031   -153.59331   -50.745096   -256.43697    22.666735    125.42251   -80.080701   -13288.359    295.16891 
   17000    40.647892    40.647892    40.647892     -84.9798   -202.79434   -99.986184   -305.58441   -84.437064    18.338493   -187.20189    32.292003     135.1171   -70.516256   -13288.971    296.61817 
   17050    40.647433    40.647433    40.647433   -41.121248    62.970544    165.81096   -39.849462    -258.0537   -155.26148    -360.8436    71.719408    174.56211   -31.134236   -13287.587    294.20613 
   17100    40.646208    40.646208    40.646208    51.590538   -157.36983   -54.580547   -260.17474    181.58593    284.42282     78.74653    130.55551    233.39746    27.731245   -13288.503    296.24409 
   17150     40.64691     40.64691     40.64691   -65.900093    88.764333    191.52848   -13.998083   -136.20971   -33.393921   -238.99763    -150.2549   -47.616878     -252.881   -13288.567    296.63092 
   17200    40.647071    40.647071    40.647071   -5.7301942    85.350031    188.22971   -17.502387   -56.817588    46.078785   -159.70334   -45.723026    57.124402   -148.56865   -13287.799    295.40475 
   17250    40.647511    40.647511    40.647511    -25.19417   -189.67004   -86.839752   -292.48962    87.685232    190.39989   -15.016606    26.402299    129.19452   -76.366075   -13287.151     294.4074 
   17300    40.646197    40.646197    40.646197    51.128973   -28.626207    74.126834   -131.37873   -66.967949    35.920603   -169.85701    248.98108    351.94086    146.02917   -13286.795    293.97096 
   17350    40.645704    40.645704    40.645704     25.76403    133.32117    236.11381    30.539737   -41.976564    60.784277   -144.72538    -14.05252    88.742938   -116.84112   -13287.693    295.95127 
   17400    40.646821    40.646821    40.646821    88.993293   -51.853742    51.001237   -154.70157    109.37425      212.197    6.5460086    209.45937    312.27615     106.6366   -13287.471    295.76596 
   17450    40.649304    40.649304    40.649304    -91.48287    7.8513218    110.56141   -94.845389   -111.95574   -9.0818649     -214.816   -170.34419   -67.528757   -273.16226   -13287.294    295.65469 
   17500     40.64965     40.64965     40.64965   -125.92975   -340.24098   -237.59884   -442.88401    26.244848    128.96901   -76.458606   -63.793135    38.986457     -166.552   -13288.019    297.29323 
   17550    40.646417    40.646417    40.646417    4.3014998   -46.704835    56.178894   -149.58149   -108.84987   -6.0124349   -211.68746     168.4592    271.22543    65.707408   -13288.223    297.92335 
   17600    40.644359    40.644359    40.644359    139.68143    106.22348    209.11718     3.352218    162.31823    265.12659    59.515993    150.50258    253.34414    47.649136   -13287.957    297.64168 
   17650    40.647422    40.647422    40.647422    14.878034    216.79361    319.63756    113.95893   -132.52787   -29.695598   -235.36346   -39.631644    63.192104   -142.44814   -13285.756    293.60247 
   17700    40.650624    40.650624    40.650624   -138.79927   -55.326369     47.40103    -158.0489   -197.14582    -94.34026   -299.92362   -163.92561   -61.182072   -266.65178   -13288.721    299.56013 
   17750    40.649172    40.649172    40.649172   -36.150917    61.241998    163.98786   -41.507891    19.197546     122.0103   -83.605742    -188.8923   -86.068312   -291.70856    -13286.87    296.19526 
   17800    40.646619    40.646619    40.646619    134.11957     266.8086    369.60157    164.02532    61.829198    164.67914   -41.025296    73.720902    176.55515   -29.113553   -13285.681    294.11104 
   17850    40.648224    40.648224    40.648224   -10.097739   -112.46807    -9.624337   -215.29288   -4.1572798    98.631233   -106.94562    86.332135    189.21835   -16.536502   -13287.112    297.09284 
   17900    40.649757    40.649757    40.649757   -213.19533    -135.9982   -33.270699   -238.72573   -465.20502   -362.42986   -567.95474   -38.382757    64.285063   -141.03103   -13288.333    299.66476 
   17950    40.646153    40.646153    40.646153     133.7404    157.47713    260.41379    54.551638    242.56937    345.41233    139.73113    1.1747135    104.00321   -101.67208   -13286.412    296.14748 
   18000    40.646559    40.646559    40.646559    169.63043    205.26381    308.03574    102.48981    36.418296    139.17197   -66.355205    267.20919    370.08592    164.34825   -13287.075    297.62351 
   18050    40.652159    40.652159    40.652159   -295.84138   -172.97238   -70.292918   -275.64347   -283.00239   -180.24166   -385.73738   -431.54937   -328.84558   -534.23994    -13288.39     300.3592 
   18100    40.650501    40.650501    40.650501    -73.75406   -73.999733    28.803184   -176.79525    -130.0967   -27.229487   -232.95475   -17.165743    85.588361   -119.90031   -13285.795    295.52623 
   18150    40.646245    40.646245    40.646245    96.166344    155.87866    258.77119    52.995968   -60.233594     42.59851   -163.05893    192.85397    295.69867    90.008536   -13287.652    299.30984 
   18200    40.646927    40.646927    40.646927    175.47057    206.98394    309.78501    104.20093     341.3466    444.16026    238.53737   -21.918825    80.901008   -124.75212   -13285.156    294.66771 
   18250    40.652093    40.652093    40.652093   -179.84718   -56.152416    46.585495   -158.88874   -468.95038    -366.2159   -571.66377   -14.438737    88.322126   -117.17663   -13286.688    297.81787 
   18300     40.65108     40.65108     40.65108   -146.48119   -204.13115   -101.31159   -306.93308   -120.05816   -17.248134   -222.85233   -115.25425   -12.465838   -218.05515   -13286.354    297.34563 
   18350    40.647339    40.647339    40.647339    152.34576    345.38026     448.1588    242.59028    116.05076    218.84855    13.231669   -4.3937254    98.395904   -107.15544   -13287.164    299.08915 
   18400    40.648314    40.648314    40.648314    39.840227    111.98087    214.78354    9.1977378    -97.70683    5.1957022   -200.60628    105.24664    208.00005    2.5025215   -13284.387    293.89244 
   18450    40.649518    40.649518    40.649518   -43.171992   -2.8361551    99.927015    -105.5882     129.5971    232.45783    26.766384   -256.27692   -153.47351   -359.06592   -13286.612    298.36329 
   18500    40.648505    40.648505    40.648505    101.24795    218.24174    321.09351    115.38666    15.561833     118.3173   -87.184034     69.94029    172.71428   -32.809369    -13284.19    293.83806 
   18550    40.648958    40.648958    40.648958   -52.247421   -4.6820598    98.189068   -107.53559   -196.79381   -94.048964    -299.5113    44.733607    147.53227    -58.07518   -13288.345    302.03487 
   18600    40.649113    40.649113    40.649113   -56.733612   -3.5033343    99.207858   -106.21602   -90.042583    12.738469   -192.82112    -76.65492    26.115545   -179.42549   -13286.397    298.41916 
   18650    40.648364    40.648364    40.648364    68.655145    224.00438    326.82634    121.20359   -188.23487   -85.410722   -291.07135    170.19593    273.03145    67.365607   -13286.073    297.94127 
   18700    40.650336    40.650336    40.650336   -80.376999   -141.46978   -38.625225   -244.31502   -13.513316    89.363999   -116.37714     -86.1479    16.650295   -188.91688   -13285.705    297.38366 
   18750    40.650298    40.650298    40.650298   -128.58808   -83.145517    19.497353   -185.78696    -205.1903    -102.4485   -307.91343   -97.428425    5.2783425   -200.14065   -13287.988     301.9554 
   18800    40.646816    40.646816    40.646816    138.77851    312.50042      415.511    209.49012    83.938646    186.70397    -18.81408     19.89647    122.77505   -82.985013   -13284.734    295.80138 
   18850    40.648234    40.648234    40.648234    30.728254   -38.662071    64.114754   -141.42649   -7.3471006    95.543097   -110.24941    138.19393    240.93545    35.468158   -13286.842    300.01921 
   18900    40.650992    40.650992    40.650992    -42.95928    148.55719    251.33592    45.785871   -127.39375   -24.589248   -230.18881   -150.04128    -47.32669   -252.76815   -13285.424    297.41421 
   18950    40.650288    40.650288    40.650288   -100.85335    -181.3983   -78.604627   -284.18045    62.860203    165.62713   -39.898708   -184.02196   -81.225659   -286.81144   -13286.265    299.17496 
   19000    40.647024    40.647024    40.647024    214.95262    284.83887    387.61659    182.07258    51.056801    153.87854   -51.762243    308.96218    411.89724    206.04806   -13285.026    296.90714 
   19050    40.649705    40.649705    40.649705   -81.133724   -129.00732   -26.188252   -231.81928    75.547217    178.26661   -27.172964   -189.94107   -87.248485   -292.62747   -13286.857    300.57186 
[...]
   13800        0.138    291.00261    7.7081202  0.024272743 -0.0045248811 -0.0097866123    7.6982912     7.717949    150.42255   -13024.964    -25759.56 
   13850       0.1385    289.48167    7.6931768 -0.019929264  -0.08086121 -0.0097887129    7.6833457    7.7030077    149.63635     -13022.5   -25307.954 
   13900        0.139    291.70069    7.7764968 -0.020065687  0.036329728 -0.0097802228    7.7666715    7.7863219    150.78339   -13021.951   -25975.869 
   13950       0.1395    292.40459    7.7633246  0.034195037  0.055360884 -0.0097766233     7.753497     7.773152    151.14724   -13020.605   -26176.268 
   14000         0.14    290.29233    7.7626058 -0.019044665 0.0027132017 -0.0097803009    7.7527872    7.7724242    150.05539   -13017.814   -25820.915 
   14050       0.1405    292.06281    7.7758053 -0.058294545 0.0016094312 -0.0097816487    7.7659783    7.7856321    150.97057   -13017.015   -25730.401 
   14100        0.141    291.80496    7.8211659 0.00028761018 -0.017408969 -0.0097780842    7.8113397    7.8309919    150.83729    -13015.17   -26013.482 
   14150       0.1415    297.26935     7.847889  0.039829398  0.040463454 -0.0097733939    7.8380674    7.8577104    153.66189   -13016.276   -26427.273 
   14200        0.142    294.94924    7.8306521 -0.022628759 -0.015413473 -0.0097726337    7.8208356    7.8404684     152.4626   -13013.352   -25975.366 
   14250       0.1425    285.96849    7.7274369 -0.019690775 -0.013715348 -0.0097749243    7.7176247    7.7372489    147.82035   -13007.005   -25646.769 
   14300        0.143    294.08148     7.854946  0.040805067  0.032335478 -0.0097641764    7.8451336    7.8647583    152.01404   -13009.485   -26426.955 
   14350       0.1435    290.28478    7.8710878 -0.0011355756  0.010547296 -0.0097655156     7.861276    7.8808993    150.05149   -13005.791   -26268.332 
   14400        0.144    292.02666    7.8550118 -0.054338121 -0.010967788 -0.009769137    7.8451992    7.8648242    150.95188   -13004.963   -25965.686 
   14450       0.1445    291.36909    7.8812951 -2.5298705e-05 -0.0035149583 -0.0097667347    7.8714746    7.8911154    150.61198   -13002.891   -26259.183 
   14500        0.145    293.05698    7.9126564  0.024818975 0.0090266216 -0.0097598503    7.9028597    7.9224529    151.48447   -13002.023    -26488.34 
   14550       0.1455    291.11591    7.8783456  0.041595587 -0.004925422 -0.0097603365    7.8685451    7.8881458    150.48111   -12999.279   -26383.386 
   14600        0.146    289.72465    7.8605182 0.0018716117 -0.035585746 -0.0097606004    7.8507086    7.8703276    149.76195   -12996.828   -26089.347 
   14650       0.1465    291.52433    7.8626249  0.020558716 -0.030841571 -0.0097576621    7.8528223    7.8724273    150.69222   -12996.022   -26174.474 
   14700        0.147    287.28328    7.8480441 -0.0015077067  -0.02289151 -0.0097552905    7.8382405    7.8578474    148.49998   -12992.095   -26078.816 
   14750       0.1475     287.2113    7.8283047 0.0036588903   0.01924008 -0.0097525125    7.8184989    7.8381101    148.46277   -12990.327   -26170.679 
   14800        0.148    290.08169    7.8122967  0.013847228  -0.02782856 -0.0097522633    7.8025025    7.8220907    149.94651   -12990.084   -25994.385 
   14850       0.1485    292.33905    7.7421444 -0.0042803489 -0.0072748583 -0.0097519205    7.7323545     7.751934    151.11336   -12989.525   -25768.631 
   14900        0.149    294.43287    7.6449516 0.0047456205  0.006668966 -0.0097476982    7.6351648    7.6547381    152.19568   -12988.895   -25521.221 
   14950       0.1495    296.24667    7.5168203   0.01744676  0.010321422 -0.0097461652    7.5070233    7.5266169    153.13325   -12988.155   -25148.628 
   15000         0.15    296.72472    7.4013875 -0.046167886  0.052676284 -0.009747813    7.3915972    7.4111775    153.38037   -12986.745   -24692.986 
   15050       0.1505    304.25068     7.289207  -0.03265575  0.018369654 -0.0097449368    7.2794294    7.2989843    157.27062   -12989.017   -24249.736 
   15100        0.151    303.02416    7.0944295 -0.051498951 0.0042977033 -0.0097419457    7.0846425    7.1042161    156.63662   -12986.819   -23490.761 
   15150       0.1515     314.8956    6.9117087  0.021293995  0.039251207 -0.0097304119    6.9019373    6.9214798     162.7731   -12991.459   -23240.846 
   15200        0.152    315.38381    6.6090598  0.059737802 -0.026761326 -0.0097283272    6.5993042    6.6188152    163.02546   -12990.283   -22140.121 
   15250       0.1525    318.88193    6.2813558 -0.013337772 -0.011751581 -0.0097281322    6.2716023     6.291109    164.83368    -12990.77   -20854.222 
   15300        0.153    329.15876    5.9459889 -0.0053411582  0.031617617 -0.0097246387    5.9362496    5.9557278    170.14589   -12994.899   -19907.551 
   15350       0.1535    334.15201    5.6073996  -0.02804573 -0.032032207 -0.0097256834    5.5976492    5.6171495    172.72695   -12996.433   -18491.072 
   15400        0.154    335.01225    5.1941277   0.05202696 -0.054712672 -0.0097246471    5.1843851    5.2038697    173.17162   -12995.982   -17304.806 
   15450       0.1545    339.12061    4.8524245  0.089519224 -0.046115315 -0.0097180574    4.8426892    4.8621593    175.29528   -12997.384   -16319.428 
   15500        0.155    343.58505    4.5517803  0.043632239  0.028933698 -0.0097203779    4.5420562    4.5615039      177.603   -12999.148   -15414.488 
   15550       0.1555    349.23647    4.2293884 -0.002056156 -0.023993203 -0.0097299351    4.2196374    4.2391388    180.52429   -13001.647    -14011.13 
   15600        0.156    345.61369    3.9967499  0.008089561 -0.067938347 -0.0097404768    3.9869706    4.0065285    178.65163   -12999.486   -13123.004 
   15650       0.1565    355.10777    3.8298894  0.051691972 0.0024924364 -0.0097335751    3.8201235    3.8396545    183.55923   -13004.207   -12946.913 
   15700        0.157    351.42257     3.737719 -0.014077183   0.03788408 -0.0097376865     3.727924     3.747513     181.6543   -13002.195    -12538.42 
   15750       0.1575    358.45769    3.6579491 -0.0030485794  0.084621272 -0.0097463133    3.6481235    3.6677737    185.29084   -13005.733   -12465.073 
   15800        0.158    355.47998    3.5921901  -0.03839707  -0.01969733 -0.0097567635    3.5823514    3.6020275    183.75163   -13004.129   -11780.319 
   15850       0.1585    351.43079    3.5356221 -0.093812591 -0.018556763 -0.0097621024    3.5257753    3.5454677    181.65855   -13001.971   -11410.843 
   15900        0.159     364.8669    3.5427921  0.098405366 -0.0077872278 -0.0097517318    3.5329678     3.552615    188.60383   -13008.866   -12111.368 
   15950       0.1595    356.19129    3.3844364  0.085001001  0.026523006 -0.0097608789    3.3746257    3.3942455    184.11931   -13004.367   -11653.201 
   16000         0.16    363.57135    3.2883991 -0.0093785823 0.0022126777 -0.0097721565    3.2785457    3.2982509    187.93414   -13008.194   -10937.444 
   16050       0.1605    365.11109     3.128248 -0.054426062 -0.026985662 -0.0097796099    3.1184204    3.1380737    188.73005   -13008.979   -10156.121 
   16100        0.161    370.08371    3.0150355 -0.0099875136   0.01871793 -0.0097831453    3.0051982    3.0248708    191.30046    -13011.61    -10079.22 
   16150       0.1615    370.83635    2.8453768  0.019332986  0.053176832 -0.009787041    2.8355448    2.8552066    191.68951    -13012.12   -9726.2886 
   16200        0.162    378.03957    2.7892592  0.055630419  0.041186128 -0.0097940916     2.779397     2.799119    195.41293   -13016.033   -9620.2524 
   16250       0.1625     373.1588    2.5389907  0.066212881  -0.11165943 -0.0098160176    2.5291377    2.5488412    192.89001   -13013.757   -8311.8137 
   16300        0.163     374.8996    2.3623098  0.074424775  -0.14920376 -0.0098258922     2.352434     2.372183    193.78985   -13015.001   -7625.1029 
   16350       0.1635    382.63058    2.2940821   0.06315873 -0.026724197 -0.0098220866     2.284211    2.3039504    197.78608    -13019.47   -7768.3888 
   16400        0.164    380.30727    2.1500847    0.0121782  0.041511768 -0.0098289054    2.1402101    2.1599563    196.58513   -13018.697   -7345.9156 
   16450       0.1645    378.87379    2.0035787 -0.052340343  0.092383079 -0.009838817    1.9936864    2.0134679    195.84415   -13018.358   -6812.0716 
   16500        0.165    383.34234    1.8617953  -0.10359716   0.09925781 -0.0098478763    1.8518854    1.8717018      198.154   -13021.126   -6191.5197 
   16550       0.1655    386.85065     1.803676  0.035131414 -0.0061033968 -0.0098553588    1.7937173    1.8136312    199.96748   -13023.506   -6109.0134 
   16600        0.166    387.79546    1.7171409 -0.041273482 -0.051024979 -0.0098635502    1.7071199    1.7271582    200.45586   -13024.545   -5416.1414 
   16650       0.1665    386.74329    1.7093358  0.076839358 -0.042310129 -0.0098623087    1.6993556    1.7193122    199.91199   -13024.593   -5812.8835 
   16700        0.167    388.86679    1.6343085  0.049165309  0.022115554 -0.0098658883    1.6243469     1.644266    201.00965   -13026.333   -5685.2979 
   16750       0.1675    386.10678    1.5964394 -0.039171896 -0.0060042019 -0.0098787279    1.5864619    1.6064128    199.58296    -13025.55   -5170.8777 
   16800        0.168    394.07978    1.5770454 -0.012819212 -0.010615069 -0.009880674    1.5670539    1.5870326     203.7043   -13030.307   -5178.7038 
   16850       0.1685    392.40986    1.5734607 -0.0060250071 -0.0081855909 -0.0098816448    1.5634694    1.5834475     202.8411   -13030.121   -5197.5003 
   16900        0.169    391.79696     1.579787   0.10645107 -0.044236454 -0.0098765942     1.569882    1.5896873    202.52428   -13030.495   -5473.3387 
   16950       0.1695    387.58396    1.5544042  0.047897714  0.025430158 -0.0098827687    1.5444646    1.5643391    200.34653   -13029.029   -5425.7737 
   17000         0.17    391.69935    1.5421989 -0.055575788 -0.019208832 -0.009892339    1.5322861    1.5521069    202.47383   -13031.852   -4891.3811 
   17050       0.1705    386.92695    1.4884058 -0.041700297 -0.024794695 -0.009890846    1.4784589    1.4983476    200.00692    -13030.04   -4739.7027 
   17100        0.171    383.67815    1.4558597 -0.0077109956  0.077863311 -0.0098834287    1.4459467    1.4657675    198.32758   -13029.031   -5086.7069 
   17150       0.1715    393.88257    1.4755461  0.045144501  0.063335249 -0.009881756    1.4655898    1.4854969    203.60236   -13035.035   -5280.0861 
   17200        0.172    384.79627    1.4208353 -0.050745809 -0.055164584 -0.0098979476    1.4108968    1.4307682    198.90555   -13031.048    -4383.083 
   17250       0.1725    390.80312     1.439334  -0.05529157  -0.05350203 -0.0098956178    1.4293605    1.4493017    202.01056   -13034.845   -4435.1346 
   17300        0.173    389.74777    1.4413677  0.051808789  0.059416454 -0.0098822892    1.4314097    1.4513197    201.46504    -13035.02   -5175.3097 
   17350       0.1735    391.54363     1.494419  0.088326024  0.067063251 -0.0098760242    1.4844864    1.5043453    202.39333   -13036.663   -5499.3609 
   17400        0.174    394.93153     1.386677 -0.016852696 0.0069006943 -0.0098954245     1.376694    1.3966534    204.14458   -13039.169   -4589.0832 
   17450       0.1745    391.52248    1.3847862  -0.11758415 -0.042135774 -0.0099074607    1.3748474    1.3947184     202.3824   -13038.116   -4083.5544 
   17500        0.175    395.53172    1.3710729 0.0035905558  0.052627406 -0.009894548    1.3611526    1.3809862    204.45482   -13040.939   -4757.6361 
   17550       0.1755     388.7407    1.3046167  0.083098486  0.040742715 -0.0098937097    1.2946507    1.3145756    200.94447   -13038.174   -4761.5265 
   17600        0.176    387.61423    1.3451975  0.040277587 0.0093846206 -0.0098996849    1.3352086    1.3551791    200.36218   -13038.354   -4649.5324 
   17650       0.1765    389.33577    1.1987386 -0.075971553  -0.10111027 -0.0099151551    1.1887905    1.2086792    201.25206   -13039.979   -3405.5227 
   17700        0.177     390.6426    1.2161529 -0.060889173  0.011740789 -0.0099063427    1.2062201    1.2260779    201.92758   -13041.421    -3890.015 
   17750       0.1775    389.95107    1.3590803   0.02600683  0.076207038 -0.0098908862    1.3491073    1.3690453    201.57012   -13041.822   -4870.9806 
   17800        0.178    388.20934    1.3330116  0.097678474  0.073942531 -0.0098919003    1.3231076    1.3429072     200.6698   -13041.658   -5015.4419 
   17850       0.1785    392.63185    1.2284649   0.10442231 -0.088139339 -0.0099062324    1.2185471    1.2383741    202.95585    -13044.74   -4149.1596 
   17900        0.179    388.21643    1.1191871 -0.040326125  -0.13051576  -0.00993099    1.1092081    1.1291572    200.67347   -13043.215   -3161.1508 
   17950       0.1795    389.86731     1.185017 -0.043973976 -0.038446781 -0.009922932    1.1750543    1.1949707    201.52683    -13044.86    -3675.321 
   18000         0.18    388.75928      1.24759  0.032638885 -0.0054759418 -0.0099069161    1.2375653    1.2576053    200.95407   -13045.059   -4249.1765 
   18050       0.1805     388.4357    1.3285145  0.073279698  0.078766804 -0.0098954441    1.3185048    1.3385145    200.78681   -13045.649   -4935.2034 
   18100        0.181    386.57142    1.2380388  0.062495771   0.10221958 -0.0099085675    1.2280033    1.2480643    199.82314   -13045.462   -4675.8471 
   18150       0.1815     397.9622    1.1262931 -0.059847116  0.016965504 -0.0099330138    1.1163159    1.1362599    205.71116   -13052.142   -3611.3715 
   18200        0.182    386.70589    1.0471937  -0.13752513  -0.12353221 -0.0099544979    1.0371459    1.0572311    199.89265   -13047.077   -2620.4546 
   18250       0.1825     394.8271    1.1209112 -0.032620483   0.01448023 -0.0099350277    1.1109708     1.130841     204.0906   -13052.093   -3675.9033 
   18300        0.183    387.78504    1.1964364  0.048006077   0.07188904 -0.0099173905    1.1863968     1.206465    200.45047   -13049.239   -4387.7716 
   18350       0.1835    387.08206    1.2137367 -0.0015931206   0.11469475 -0.0099146083    1.2038131     1.223649     200.0871   -13049.668   -4422.7945 
   18400        0.184    391.30638    1.1735967 -0.013364151 -0.0038303574 -0.0099262642    1.1636619    1.1835199     202.2707   -13052.678   -3854.6739 
   18450       0.1845    389.32619    1.1271053 -0.035330389  -0.11533933 -0.0099387226    1.1170978    1.1371011    201.24712   -13052.403   -3254.7854 
   18500        0.185    382.04815    1.1364021  0.019662652 -0.078028957 -0.0099297119    1.1264165    1.1463757    197.48501   -13049.423   -3593.4527 
   18550       0.1855    390.87765    1.2327455  0.072181376  0.086389418 -0.0099103548    1.2227389    1.2427398    202.04908   -13054.743    -4637.721 
   18600        0.186    396.17832    1.2647788  0.058698707   0.06252672 -0.0099101505    1.2547429     1.274802    204.78906   -13058.285    -4620.014 
   18650       0.1865     384.4525    1.2280297   -0.1118591 -0.023570913 -0.0099299061    1.2180374    1.2380091    198.72785   -13052.988   -3641.9989 
   18700        0.187    388.49368    1.2284784 -0.079066864 -0.040343693 -0.0099294788    1.2185084    1.2384352    200.81678   -13055.839   -3696.8928 
   18750       0.1875    389.18303    1.3209374 -0.010680474  0.066132952 -0.0099098885    1.3109675    1.3308939    201.17312   -13056.965   -4587.9664 
   18800        0.188     386.1058     1.332081   0.11712684  0.083051891 -0.0099036138    1.3221442    1.3420041    199.58246   -13056.117   -5107.5325 
   18850       0.1885      384.702    1.2476339 -0.0073354529 0.0034565014 -0.0099190772    1.2377128     1.257541    198.85682    -13056.15   -4145.8499 
   18900        0.189    384.66373    1.1687925 -0.092357828 -0.048979653 -0.0099336777    1.1587381    1.1788326    198.83704   -13056.857   -3424.8502 
   18950       0.1895    395.51192    1.2350812  0.027767175 -0.020614289 -0.0099251682    1.2250623    1.2450854    204.44459   -13063.229   -4140.7803 
   19000         0.19    378.98918    1.1501441  0.012166513 -0.025531479 -0.0099255409    1.1401724    1.1601008     195.9038   -13055.442   -3789.2638 
   19050       0.1905    387.61941    1.1367401   0.12777482 0.0064263401 -0.0099230927    1.1268017    1.1466632    200.36486   -13060.647   -4236.4709 
   19100        0.191    385.70198    1.1159255 -0.037046316  0.023357423 -0.0099351218    1.1059629    1.1258726    199.37372   -13060.427   -3674.1221 
   19150       0.1915    386.53321    1.0857961 -0.016195891 -0.019901586 -0.0099360245    1.0757476    1.0958287    199.80339   -13061.579   -3498.9954 
   19200        0.192     385.5587     1.090416 -0.0014207943  -0.00961978 -0.0099376757    1.0803618     1.100454    199.29966   -13061.828   -3597.9182 
   19250       0.1925      381.164    1.1555136 -0.035659554  0.019390482 -0.009933386    1.1456012    1.1654095    197.02799   -13060.286   -3797.4817 
   19300        0.193    389.03181     1.194345  0.030486506   0.10550442 -0.0099273769      1.18435    1.2043231    201.09495   -13065.093    -4434.453 
   19350       0.1935    377.66378    1.1810355 -0.036496313 -0.023293605 -0.0099386262    1.1710691    1.1909849    195.21868    -13059.96   -3737.4853 
   19400        0.194    384.98533    1.1240802  0.031507733 -0.054207063 -0.0099406305    1.1139881     1.134155    199.00328   -13064.441   -3671.2697 
   19450       0.1945    381.38593    1.0808835  0.030384572 -0.038904163 -0.0099417603    1.0708472     1.090902    197.14271   -13063.304   -3574.5463 
   19500        0.195    380.89279    1.0675193 0.0024422387  0.034502455 -0.0099381948    1.0575925    1.0774282     196.8878   -13063.772   -3681.5467 
   19550       0.1955    380.04329    1.0948515 -0.00095820485 0.0065305545 -0.009937657     1.085013    1.1046716    196.44868   -13064.041   -3668.0793 
   19600        0.196    384.71164    1.1750214  0.016750462  0.064105404 -0.0099307247    1.1649857    1.1850385     198.8618   -13067.148   -4186.2577 
   19650       0.1965    369.22355     1.016534 -0.095062777 0.0077902741 -0.0099398384    1.0065205    1.0265286    190.85583   -13059.869   -3097.5383 
   19700        0.197    375.65019    1.0280438 -0.014181062 0.0037700741 -0.009941283    1.0181453    1.0379229    194.17784   -13063.927   -3392.1092 
   19750       0.1975    381.40547    1.0404183  0.023180125 -0.016286545 -0.0099373969    1.0304014    1.0504156     197.1528   -13067.595   -3491.0397 
   19800        0.198    380.55633    1.0235517  0.060801435 0.0086847831 -0.0099331643    1.0135347    1.0335486    196.71388   -13067.864   -3643.4596 
   19850       0.1985     380.7584   0.99162643   0.10413245  0.023323468 -0.0099391814   0.98167723    1.0015553    196.81833    -13068.69   -3730.2745 
   19900        0.199    377.58425   0.92544335 -0.0082770011 -0.079140986 -0.0099566404   0.91543856   0.93542739    195.17757    -13067.76   -2793.4179 
   19950       0.1995    376.80436   0.93285653 -0.055522463 -0.054477259 -0.0099599964   0.92271024   0.94298168    194.77444   -13068.075    -2742.856 
   20000          0.2    377.76767    1.0265785 -0.024532225  0.034028566 -0.0099439954     1.016469    1.0366665    195.27238   -13069.274   -3453.5827 
Loop time of 1786.97 on 4 procs for 20000 steps with 4000 atoms

Pair  time (%) = 1449.28 (81.1027)
Neigh time (%) = 0.601705 (0.0336719)
Comm  time (%) = 150.853 (8.44185)
Outpt time (%) = 0.471826 (0.0264037)
Other time (%) = 185.762 (10.3954)

Nlocal:    1000 ave 1005 max 995 min
Histogram: 1 0 0 1 0 0 0 1 0 1
Nghost:    3742.5 ave 3761 max 3726 min
Histogram: 1 0 1 0 0 0 1 0 0 1
Neighs:    68798.5 ave 70658 max 66857 min
Histogram: 2 0 0 0 0 0 0 0 0 2
FullNghs:  0 ave 0 max 0 min
Histogram: 4 0 0 0 0 0 0 0 0 0

Total # of neighbors = 275194
Ave neighs/atom = 68.7985
Neighbor list builds = 82
Dangerous builds = 0

######################################
# SIMULATION DONE
print "All done"
All done
