
# ----------------------- ATOM DEFINITION ----------------------------
lattice		fcc ${latparam}
lattice		fcc 4.05
Lattice spacing in x,y,z = 4.05 4.05 4.05
region		whole block 0 16 0 16 0 16
create_box	1 whole
Created orthogonal box = (0 0 0) to (64.8 64.8 64.8)
  2 by 1 by 2 MPI processor grid
lattice 	fcc ${latparam} orient x 1 0 0 orient y 0 1 0 orient z 0 0 1
lattice 	fcc 4.05 orient x 1 0 0 orient y 0 1 0 orient z 0 0 1
Lattice spacing in x,y,z = 4.05 4.05 4.05
create_atoms	1 region whole
Created 16384 atoms

# ------------------------ FORCE FIELDS ------------------------------

#****************USE THIS TO TEST******************
pair_style	eam/rad
pair_coeff 		* * Al99.PC0.05.eam.alloy.rad.txt Al # pc = 0.5   error generating

# to test with error = 0 use this potential
# pair_coeff	* * Al99.eam.alloy.005pcrad_NULL_noerror Al

#****************USE THIS TO RUN REFRENCE***********
# pair_style	eam/alloy
# pair_coeff	* * Al99.eam.alloy Al

# ------------------------- SETTINGS ---------------------------------
compute csym all centro/atom fcc
compute peratom all pe/atom

######################################
# EQUILIBRATION
reset_timestep	0
timestep	0.001 # default
# timestep	0.0001 # tiny time step
velocity all create 300 12345 mom yes rot no
fix 1 all npt temp 300 300 1 iso 0 0 1 drag 1

# Set thermo output
thermo 50
# thermo 1 # debug mode

# thermo_style custom step lx ly lz press pxx pyy pzz pe temp
# IMPLEMENTATION HERE

# VERSION add rad variables .v1 .v2
# thermo_style custom step lx ly lz press pxx pyy pzz pxxrad pyyrad pzzrad pe temp

# VERSION ublb separation .v3
thermo_style custom step lx ly lz press pxx pxxrad pyy pyyrad pzz pzzrad pe temp

# Run for at least 10 picosecond (assuming 1 fs timestep)
run 	20000 # default
Memory usage per processor = 5.90433 Mbytes
Step Lx Ly Lz Press Pxx Pxxrad Pyy Pyyrad Pzz Pzzrad PotEng Temp 
       0         64.8         64.8         64.8    2496.5946    2464.3333    242.99145    2508.7809    242.99145    2516.6696     485.9829    -55050.24          300 
      50    64.896706    64.896706    64.896706    860.56085    949.43103    258.02561    822.00845    278.92283    810.24307    485.06084   -54640.386    105.49614 
     100    65.005446    65.005446    65.005446   -4102.3745   -4104.9237    305.96405   -4081.9907    27.022888   -4120.2091    477.94403   -54773.083    169.34737 
     150    64.907088    64.907088    64.907088    484.52969    515.48616    245.31943    475.96207    216.88725    462.14084    483.39903   -54678.107    124.56271 
     200    64.845387    64.845387    64.845387    2508.6157    2493.3738    245.51872    2511.6845    257.80647    2520.7889    486.70923    -54706.98    139.20862 
     250    64.904149    64.904149    64.904149    143.81178    132.07413    292.68777     152.0707    209.00962    147.29051    483.35941   -54721.637    146.57251 
     300    64.948544    64.948544    64.948544   -1470.5569   -1474.6314    225.99781   -1497.5382    223.29507   -1439.5011    481.12215   -54728.049    150.34907 
     350     64.91112     64.91112     64.91112   -321.25184   -276.42273    153.10001   -390.59413    305.74699   -296.73867    482.86315   -54749.819    161.18582 
     400    64.873529    64.873529    64.873529    1344.5041    1342.6916    151.44834    1345.7421    197.53158    1345.0785    485.13788   -54725.472    150.50327 
     450    64.906123    64.906123    64.906123    16.057935    71.326045    263.10883   -37.018105    373.58602    13.865866    483.27467   -54729.524    153.12426 
     500    64.934384    64.934384    64.934384   -907.51804   -913.42979    219.14054   -917.21901    156.53937    -891.9053    481.89943   -54721.881    150.36869 
     550    64.911149    64.911149    64.911149   -86.223732   -88.312004    326.02284   -89.943239    253.76107   -80.415955    483.10108   -54724.417    152.32973 
     600    64.886962    64.886962    64.886962    810.71522     843.2597    176.17709    770.41775    314.33647    818.46822    484.34564   -54730.919    156.25829 
     650    64.907203    64.907203    64.907203    103.12322    103.37156    149.69142    68.331601    234.55977     137.6665    483.32106   -54725.549    154.50552 
     700    64.929217    64.929217    64.929217   -784.55457   -743.52423     188.7853   -805.31015    233.05725   -804.82932    482.05947   -54727.129    156.12146 
     750    64.911263    64.911263    64.911263   -2.2768646   -7.1166668    89.277284   -15.754097    508.05238     16.04017    483.09534   -54723.502     155.2258 
     800    64.894977    64.894977    64.894977    531.27954    541.11308    61.374996     531.8221    50.881116    520.90344    483.94652   -54725.978    157.25865 
     850    64.908699    64.908699    64.908699    83.269989      91.5132    245.87345    36.159085    245.50781    122.13768    483.22186   -54722.084    156.26393 
     900    64.924682    64.924682    64.924682   -516.92399   -521.23577    315.77786    -522.1347    242.52235    -507.4015    482.38543   -54722.401    157.28073 
     950     64.91247     64.91247     64.91247   -69.108026   -75.357132    325.88051   -84.236667    265.56156   -47.730278    482.98373   -54721.937    157.91846 
    1000    64.898857    64.898857    64.898857    498.02335    483.40561     155.8238    470.08925    335.44938     540.5752    483.93076   -54715.614     155.8034 
    1050    64.911235    64.911235    64.911235    44.683247    10.903167    138.45727    71.727963    157.49331     51.41861     483.2227   -54716.754    157.19439 
    1100    64.923817    64.923817    64.923817   -457.38643   -471.82814    211.31116    -478.0245    320.00769   -422.30664    482.41638   -54718.458    158.88081 
    1150    64.913242    64.913242    64.913242   -30.297346   -28.257071    297.72827   -22.678698    264.86528   -39.956268    483.00301   -54724.952    162.81681 
    1200    64.902829    64.902829    64.902829    387.28708    353.72187    454.17982    364.68411    208.88127    443.45527     483.7973   -54708.669    156.00176 
    1250    64.913092    64.913092    64.913092   -37.782504   -17.813692    379.30653   -58.408683    240.45301   -37.125138    483.02299   -54721.076    162.73117 
    1300    64.921588    64.921588    64.921588   -247.18429      -274.59    283.76217   -240.31197    270.25258    -226.6509    482.64364   -54710.747    158.74756 
    1350    64.914794    64.914794    64.914794   -50.058944   -57.335922    264.50609   -25.937033    79.766159   -66.903877    483.02741    -54710.14    159.32923 
    1400     64.90718     64.90718     64.90718    308.15164      299.236    228.98563    313.08477    278.75482    312.13416    483.38574   -54716.037    163.00318 
    1450    64.915457    64.915457    64.915457   -68.182331   -45.461183    269.46236   -110.28569    362.87783   -48.800117    482.99594   -54708.153    160.15139 
    1500    64.921221    64.921221    64.921221   -222.12004    -260.1734    239.81957   -175.01713    319.89589   -231.16961    482.60749   -54717.857    165.62684 
    1550    64.914891    64.914891    64.914891    84.508989    68.509585    313.18536    76.045396    92.266803    108.97199      483.167   -54698.634     157.4345 
    1600    64.911514    64.911514    64.911514    179.10262    171.04647    170.31803    199.75421    103.92176    166.50719    483.16798   -54711.252    164.27838 
    1650    64.917196    64.917196    64.917196   -69.216668   -77.641356    156.10858   -28.794477    140.80502   -101.21417    482.97714   -54705.888    162.63245 
    1700      64.9199      64.9199      64.9199   -124.95287   -91.733041    83.605582   -131.46383    275.22995   -151.66172    482.79862   -54709.851    165.38762 
    1750    64.916324    64.916324    64.916324    17.906812     26.35357    255.79538    29.180508    242.91327   -1.8136411    483.00603   -54706.639    164.76164 
    1800    64.914963    64.914963    64.914963    132.33831    129.12402    233.85425    111.60445      108.137    156.28646     483.0322   -54703.754    164.28487 
    1850    64.918757    64.918757    64.918757   -47.026286   -41.061169    304.90187   -45.325242    248.27278   -54.692448    482.89668   -54705.487    166.00606 
    1900    64.920556    64.920556    64.920556   -67.644229   -68.175359    34.908284    -74.49325    182.22807   -60.264079    482.83387   -54699.368    163.99471 
    1950    64.918703    64.918703    64.918703    4.4279539    43.163473    258.39351   -7.4447635    213.92693   -22.434848    482.96104   -54700.238    165.30024 
    2000    64.916844    64.916844    64.916844    84.515369    101.57458    37.947075    76.675086    409.84393    75.296442    483.01811   -54699.354    165.77466 
    2050     64.91964     64.91964     64.91964   -25.377169   -30.069028    268.06357   -39.312397    289.40222   -6.7500835    482.81313   -54705.018     169.3409 
    2100     64.92101     64.92101     64.92101   -69.637287   -51.749208     260.0007   -108.58252    230.76453   -48.580138    482.77848   -54699.952     167.8488 
    2150    64.919935    64.919935    64.919935     64.77002    111.25353    403.51551    46.591022    293.71788    36.465504    482.93845   -54693.209    165.55076 
    2200    64.921444    64.921444    64.921444   -31.293365    28.953798    319.97314   -79.532145     432.8667   -43.301748    482.81946   -54699.988    169.64218 
    2250    64.921431    64.921431    64.921431   -56.153186   -30.621665    277.78682   -81.837503    259.15544   -56.000389    482.73194   -54695.552    168.44636 
    2300    64.919484    64.919484    64.919484    102.20585    114.06956    289.00894    106.55792    390.91783    85.990079    482.86499   -54696.873    169.97344 
    2350    64.921889    64.921889    64.921889    5.3667074    66.901676    293.18085   -51.399408    252.97695   0.59785414    482.83724   -54689.676    167.45768 
    2400    64.923937    64.923937    64.923937     -70.8674   -69.099774   -3.4335453   -72.435113    155.10969   -71.067315    482.57499   -54693.907    170.36189 
    2450    64.921683    64.921683    64.921683    38.795441    88.603291     298.0971    -27.56332    252.45771    55.346352    482.82226   -54691.559    170.14627 
    2500    64.921244    64.921244    64.921244    34.281772    17.649698    293.86535    28.512509    166.67529    56.683109    482.85766   -54690.512    170.54889 
    2550    64.923382    64.923382    64.923382   -23.045063    10.201656    265.42832   -27.908162    169.83845   -51.428684    482.65332   -54695.462     173.7817 
    2600    64.925251    64.925251    64.925251   -48.308893   -27.356417    252.90582   -59.004134    204.15521   -58.566128    482.70284   -54684.581    169.53976 
    2650    64.923828    64.923828    64.923828    10.772066    50.569126    355.90275    45.072755    169.41863   -63.325684    482.71363   -54689.739     172.8804 
    2700    64.922631    64.922631    64.922631    41.503128    77.608484    224.61256    6.0269148    174.06404    40.873986    482.90923   -54685.948    171.98139 
    2750    64.924507    64.924507    64.924507    13.926302    66.564428    365.65307   -22.106717    157.66836   -2.6788067    482.79309   -54685.371    172.60524 
    2800    64.926105    64.926105    64.926105   -66.900793   -34.640355    270.90403   -42.237189    337.39961   -123.82483    482.58265   -54688.938    175.19563 
    2850    64.925298    64.925298    64.925298     23.63414     30.31689    193.91335    21.432216    233.81398    19.153315    482.65369   -54683.681    173.61182 
    2900    64.925171    64.925171    64.925171   -9.5255578    28.788704    227.33593    12.687064    369.91574   -70.052441    482.71038   -54687.397     176.2641 
    2950    64.925703    64.925703    64.925703    27.226991    123.72234    246.04307    1.9493504    297.02453   -43.990714    482.81476   -54679.695    173.52513 
    3000    64.927642    64.927642    64.927642   -36.160513   -28.962985    255.80413   -26.459715     153.5767    -53.05884    482.59387   -54680.506    174.80889 
    3050    64.927529    64.927529    64.927529   -19.919289    6.7113271    345.15471   -25.882011    371.39777   -40.587182    482.56578   -54684.291    177.49718 
    3100    64.926679    64.926679    64.926679     26.36626     10.20864    284.09832    56.829536     256.9735    12.060605    482.61438   -54680.729    176.71487 
    3150    64.927597    64.927597    64.927597    23.887023    91.138758    213.01775    33.787624    199.10954   -53.265313    482.65087   -54674.957    174.88876 
    3200    64.928549    64.928549    64.928549   -51.345938   -23.670471    280.60127   -110.14189    153.19207   -20.225453     482.5325   -54681.883    179.06425 
    3250    64.928117    64.928117    64.928117   -2.1282022    37.496193    158.98108    12.411412    215.03083   -56.292212     482.6004   -54679.173    178.68206 
    3300    64.928624    64.928624    64.928624   -35.413114    8.7917753    202.65487   -30.015144    193.41608   -85.015972    482.61086   -54675.925    178.04877 
    3350    64.928311    64.928311    64.928311     38.55506    18.417377    336.04166    69.743563    283.78206    27.504238    482.61693   -54680.779    181.24606 
    3400    64.930178    64.930178    64.930178    10.079993    96.853272    388.03003    -6.139849    146.61491   -60.473445    482.63638   -54667.172    175.71509 
    3450    64.931797    64.931797    64.931797   -83.382733   -136.49785     278.1676   -43.562348    283.00522   -70.087997    482.49133   -54673.118    179.42886 
    3500    64.929604    64.929604    64.929604    47.192489    124.85847    54.000334    52.720913     222.5648   -36.001915    482.57477   -54673.413    180.46486 
    3550    64.928961    64.928961    64.928961    60.043325    57.026722    215.45744    67.763949     297.6017    55.339305     482.5858    -54669.87    179.70124 
    3600    64.930874    64.930874    64.930874   -19.510368    36.514866    164.52784     1.265272    254.63722   -96.311242     482.5529   -54671.363    181.30673 
    3650    64.932912    64.932912    64.932912    -66.82066   -40.386328     198.0356   -80.966851    200.16599   -79.108803    482.38634   -54672.023    182.51599 
    3700    64.932336    64.932336    64.932336   -52.111219   -69.255911    412.76004   -13.105938    488.86805   -73.971809    482.51064   -54670.176    182.54705 
    3750    64.930113    64.930113    64.930113    66.161664    117.67797     211.9573    42.797297    76.365607    38.009729    482.65446   -54668.531    182.67233 
    3800    64.932039    64.932039    64.932039    18.378685    55.199993    159.04974   -36.253423    323.92335    36.189486    482.53986   -54665.402    182.09586 
    3850    64.935035    64.935035    64.935035   -69.920649   -64.191715    186.16774    -22.28254    243.08152   -123.28769    482.38238   -54664.839    182.73132 
    3900    64.934425    64.934425    64.934425    -44.84433   -35.855783    208.72299   -93.038511    34.630471   -5.6386941    482.35906   -54666.355     184.3493 
    3950    64.931657    64.931657    64.931657    108.12242    86.347834    274.74739    164.11022    442.99805    73.909222    482.52172   -54661.144    182.79497 
    4000    64.933259    64.933259    64.933259    39.562897    127.60877    368.86637    1.1038606    336.66823    -10.02394    482.51229   -54661.847    184.02281 
    4050    64.936337    64.936337    64.936337   -69.141502    -76.55805    263.36827   -79.516737    261.72207    -51.34972    482.32386   -54661.831    184.91911 
    4100    64.935494    64.935494    64.935494   -10.468708    33.629516     289.9582   -9.1546272    180.09481   -55.881013    482.38667   -54660.637    185.25636 
    4150    64.933871    64.933871    64.933871    55.054712    50.669504    125.59347    23.079217    240.80439    91.415416    482.39228   -54662.305     186.9483 
    4200    64.935075    64.935075    64.935075    3.1453102    17.354796    106.40861     31.65033     129.6142   -39.569196    482.46785   -54658.337    185.97588 
    4250    64.937269    64.937269    64.937269   -41.894341   -3.4751109    217.70006   -106.35189    371.34947   -15.856028    482.36804   -54657.387    186.42258 
    4300    64.937412    64.937412    64.937412   -35.988985   -46.890645    243.98872   -42.239804    262.65458   -18.836507    482.19491   -54659.204    188.18522 
    4350    64.935136    64.935136    64.935136    66.759734    77.269333    239.88153      76.7378    300.30791    46.272068    482.41917   -54650.597    185.02228 
    4400     64.93534     64.93534     64.93534    93.381852    92.748074     250.4018    74.142821    159.12757    113.25466    482.44924   -54652.897    187.00939 
    4450    64.939127    64.939127    64.939127   -91.106412   -90.393474    350.24485   -83.919238    159.66207   -99.006524    482.22745   -54656.436    189.58001 
    4500    64.939677    64.939677    64.939677   -79.280601   -121.88204    197.50747   -88.768847    135.40795   -27.190916    482.22179   -54654.833    189.72476 
    4550    64.936566    64.936566    64.936566     32.35499    58.160484    75.324848   -14.927284    341.86294     53.83177    482.36933   -54653.784     190.1291 
    4600    64.936176    64.936176    64.936176    69.227021    114.12137    243.02321    65.541563    79.857233    28.018133    482.38688   -54654.577     191.4044 
    4650    64.939875    64.939875    64.939875   -28.558605   -4.4595293    142.94908   -63.125106    116.92366    -18.09118    482.17082   -54649.696    190.00281 
    4700    64.941468    64.941468    64.941468   -132.70997   -80.856125    150.01302   -140.19142    257.46867   -177.08238    482.16071   -54649.487    190.79744 
    4750    64.938078    64.938078    64.938078    101.26554    131.75744   -1.6583524    65.147046    157.81334    106.89212     482.3299   -54647.781    190.89352 
    4800    64.938802    64.938802    64.938802    59.602532    107.84034    251.34675    33.453505    243.30009    37.513747    482.32558   -54647.109    191.47364 
    4850    64.942227    64.942227    64.942227   -58.039397   -13.889691    238.04309   -108.10035    378.81057   -52.128147     482.1416    -54644.85    191.30938 
    4900    64.942279    64.942279    64.942279   -86.126851    -74.33397    309.74417   -78.311838    268.68406   -105.73475    482.10396    -54649.93    194.60258 
    4950    64.938904    64.938904    64.938904    121.18702    153.78082    403.03258     125.0405    132.18735    84.739739     482.3191   -54639.826    190.73082 
    5000    64.940474    64.940474    64.940474    39.941221    104.49265    141.55735    3.2738964     246.2251    12.057119     482.2532   -54644.714    193.93713 
    5050    64.944344    64.944344    64.944344   -69.899311    13.546292    155.81932    -113.7666    396.90043   -109.47762    482.02453   -54642.743    193.90385 
    5100    64.944311    64.944311    64.944311   -49.087349   -32.070386     215.5967   -79.668453    225.23101   -35.523208    481.97885   -54642.432    194.65556 
    5150    64.941672    64.941672    64.941672     53.30495    133.34082    221.13834   -33.421968    213.68991    59.995996    482.20317   -54640.014    194.41031 
    5200    64.942455    64.942455    64.942455    40.272807    44.546297    322.91685    41.094698    469.92616    35.177426    482.11127   -54642.183    196.32928 
    5250    64.945095    64.945095    64.945095   -49.669905    7.0054855    112.79501   -66.160589    258.26648   -89.854611    482.08859   -54635.589    194.11219 
    5300    64.944947    64.944947    64.944947    5.0988099    57.033906    240.12614    4.1364344    202.26163   -45.873911    482.07903   -54635.423    194.92456 
    5350    64.944154    64.944154    64.944154   -10.270997   -3.0025937    261.01538   -33.336722     264.0139    5.5263246    481.93503   -54640.661    198.29749 
    5400      64.9439      64.9439      64.9439    12.283463    99.403511    265.34907   -12.670129     454.5872   -49.882993    482.05336   -54639.041    198.43201 
    5450    64.945657    64.945657    64.945657   -21.563725     18.94493     73.25435   -62.425036    187.52962    -21.21107    482.09693   -54636.863    198.29288 
    5500     64.94652     64.94652     64.94652   -37.181305   -14.514438    23.539262   -48.856993     156.7376   -48.172484    482.05662   -54633.407    197.55327 
    5550    64.945216    64.945216    64.945216    53.996136    74.969407    299.55989    44.219327    129.21682    42.799673    482.09965   -54631.854    197.71413 
    5600    64.945613    64.945613    64.945613    55.025469    19.866462    102.53569    96.117746    240.45805    49.092198    482.07387   -54628.693    197.11657 
    5650    64.948095    64.948095    64.948095   -49.138611   -63.701111    268.19686   -1.0801871    302.81714   -82.634535    481.91889   -54632.032    199.58039 
    5700    64.948588    64.948588    64.948588   -41.508354   -65.677852    274.12332    14.888239    423.91359    -73.73545    481.88547   -54631.141    200.05337 
    5750    64.946948    64.946948    64.946948    31.945903    42.147432    303.69133     61.69119    175.48779   -8.0009137     482.0013   -54627.945     199.4337 
    5800    64.946659    64.946659    64.946659    42.087954    59.053488     391.5611    98.900102    356.14928   -31.689729    482.05064   -54631.694    202.09915 
    5850    64.949267    64.949267    64.949267   -14.274084   -64.076519    309.47081   -8.7334735    434.86468    29.987741    481.91183   -54627.081    200.80366 
    5900    64.950815    64.950815    64.950815   -75.017577   -62.583115    210.32365   -28.380852    184.60649   -134.08876    481.80644   -54627.922    202.09739 
    5950    64.948563    64.948563    64.948563    43.016864    23.529361    404.68639    104.95146    456.73525   0.56977574    481.90867   -54624.707    201.46218 
    6000    64.948104    64.948104    64.948104     31.80873   -14.897012     274.9584    101.73495    230.36191    8.5882487    481.89419   -54626.522    203.20864 
    6050    64.949927    64.949927    64.949927    52.963454    32.797762    191.52998    83.789382    198.21212    42.303218    481.90858   -54622.044    201.98167 
    6100    64.953106    64.953106    64.953106   -87.116688    -42.40576    339.47041   -123.17156    218.10869   -95.772743    481.74452   -54620.703    202.23368 
    6150    64.951555    64.951555    64.951555   -42.642128   -86.849341    276.14357    19.147126    219.40354   -60.224168    481.82509   -54623.606    204.49154 
    6200    64.948846    64.948846    64.948846     101.4011    96.358359    237.18581    136.12392    323.72205    71.721021    481.98382   -54622.736    204.96319 
    6250    64.951467    64.951467    64.951467   -12.139176   -33.221793    119.57675    15.947459    137.62085   -19.143193    481.80727   -54621.307    205.17637 
    6300    64.954438    64.954438    64.954438    -48.92492   -66.028088    103.67712   -73.103334    87.708262   -7.6433381    481.75293   -54618.545    204.75341 
    6350    64.953536    64.953536    64.953536   -70.277798   -71.175085    402.16111   -30.213583    39.546409   -109.44473    481.67802   -54619.706     206.1864 
    6400    64.949736    64.949736    64.949736    103.05567    55.216393    109.05768    171.97203    54.034227    81.978582     481.9875   -54617.148    205.86201 
    6450    64.951892    64.951892    64.951892     89.43345    88.042117    148.08136     58.11642    102.78375    122.14181    481.89545   -54612.898    204.73224 
    6500     64.95675     64.95675     64.95675   -127.71656   -191.02107    276.20032   -79.245796     319.9357   -112.88282    481.52671   -54618.012    208.03112 
    6550     64.95488     64.95488     64.95488   -17.551408    60.709933    273.88271   -80.943872    345.80501   -32.420284    481.72571    -54612.65    206.37744 
    6600    64.951841    64.951841    64.951841    90.972512    71.266448    217.54348    132.80256   -53.395445    68.848532    481.87925   -54616.538    209.09467 
    6650    64.954099    64.954099    64.954099    41.757368     106.6738    215.85371    9.7146118    179.11989    8.8836966    481.78453   -54609.603    206.69332 
    6700    64.958015    64.958015    64.958015   -116.22734   -153.42225     327.6894   -76.616182    322.71993   -118.64358    481.52538   -54611.408    208.42506 
    6750    64.955624    64.955624    64.955624    23.155986    45.882826    246.09649    72.588369    204.06193   -49.003237    481.73229    -54607.86    207.62494 
    6800    64.953303    64.953303    64.953303    85.918223    81.856804    219.75545    65.477807    311.16102    110.42006    481.78442   -54610.555    209.77512 
    6850    64.955954    64.955954    64.955954     22.26937    81.092069    53.325344     22.04334    296.60462   -36.327298    481.62169   -54610.298    210.53078 
    6900    64.959266    64.959266    64.959266   -68.929974   -8.9623161    107.43213   -54.435277    182.49528   -143.39233    481.54378   -54606.804    209.75419 
    6950    64.957736    64.957736    64.957736   -50.106943   -43.828659    181.13479   -49.204783    135.96043   -57.287388    481.63107   -54607.424    210.91535 
    7000    64.955119    64.955119    64.955119    66.106542    126.84725    191.35742    42.835122     26.72449    28.637257     481.8226   -54608.173    212.14154 
    7050    64.957113    64.957113    64.957113    14.178771   -10.531493    191.85421     12.91696    524.43999    40.150847     481.6708   -54605.028    211.52693 
    7100    64.960167    64.960167    64.960167   -72.807998    36.591937    183.14387   -62.916229    257.26788    -192.0997    481.53133   -54604.558    212.17661 
    7150    64.959254    64.959254    64.959254   -61.602376   -64.900808    200.86963   -59.364545    176.04234   -60.541776    481.51703    -54604.23    212.89088 
    7200    64.956254    64.956254    64.956254    123.54552    172.55629    176.25324     125.6326    405.31797    72.447667    481.75833   -54601.514    212.47574 
    7250    64.958404    64.958404    64.958404    58.923703    30.988235    397.47487     80.87632    366.50479    64.906554    481.64142   -54599.125    212.21684 
    7300     64.96229     64.96229     64.96229   -98.770076   -20.970111    235.40089   -83.883167    197.81534   -191.45695      481.502   -54598.515    212.78935 
    7350    64.960905    64.960905    64.960905   -48.813418   -21.658323    184.54884   -84.170425     91.18184   -40.611506     481.5398   -54599.816    214.26976 
    7400    64.956877    64.956877    64.956877    126.33988    165.69152    86.454477    122.38108    378.64764    90.947045    481.67521   -54598.449    214.48916 
    7450    64.958832    64.958832    64.958832    79.562026    94.172815    279.44838    126.77827    224.75511     17.73499     481.4983   -54598.011    215.14879 
    7500    64.963965    64.963965    64.963965   -108.14718   -122.40196    116.67365   -97.702153    150.99709   -104.33742    481.34332   -54597.667    215.84659 
    7550    64.963119    64.963119    64.963119   -66.917066   -123.84621    301.52582   -11.914177    77.306338    -64.99081    481.45142   -54595.285    215.57796 
    7600    64.959538    64.959538    64.959538    66.182822    80.537476    89.058947    50.738374    292.03346    67.272616    481.63142   -54596.151    216.84442 
    7650    64.960724    64.960724    64.960724    30.184446    76.181654    268.29808    58.596622    137.45372   -44.224938    481.56272   -54597.493    218.33962 
    7700    64.965031    64.965031    64.965031   -87.136511   -135.67695     284.5906   -49.067053    399.53316   -76.665531    481.19107   -54597.068    218.99381 
    7750    64.964941    64.964941    64.964941   -67.829257    -4.551791    245.91267   -93.850641    222.87367   -105.08534    481.31956   -54593.181    218.01912 
    7800    64.961087    64.961087    64.961087    59.084462     53.88425     144.4651    105.96377    301.71277    17.405367    481.59474   -54591.383    218.02061 
    7850    64.961408    64.961408    64.961408    129.13434    169.10718    323.03255    154.37631    270.41181     63.91953    481.57946   -54587.815    217.18921 
    7900    64.966644    64.966644    64.966644      -90.527   -56.006322    463.33449   -34.951149    285.19948   -180.62353    481.24524   -54587.053    217.68133 
    7950    64.966919    64.966919    64.966919   -106.88551   -126.67168    140.58123   -59.131279    232.44558   -134.85356    481.18744   -54590.838     220.3208 
    8000    64.962108    64.962108    64.962108    111.30662    192.95032    39.170358    144.78495    124.50715   -3.8154213     481.5222   -54584.225    218.04898 
    8050    64.962706    64.962706    64.962706    99.051536    146.13755     173.2894    31.099086    291.41155    119.91797    481.51722   -54586.072    219.76756 
    8100    64.968171    64.968171    64.968171   -78.427309   -51.945627     250.4112   -80.759501    186.52184    -102.5768    481.19056   -54587.298    221.19468 
    8150    64.968537    64.968537    64.968537   -64.178991   -81.912039    107.41746   -74.911226    373.23326   -35.713707    481.23229   -54582.599    219.82427 
    8200    64.964494    64.964494    64.964494    92.104704    173.93919    429.17302    107.63883    373.71225   -5.2639033    481.35543   -54583.665    221.16941 
    8250    64.964833    64.964833    64.964833    72.410089    66.179221     91.25882    1.3851638    101.86013    149.66588    481.36067    -54585.43    222.84712 
    8300    64.969376    64.969376    64.969376   -64.261577   -68.923488    252.61523   -50.459042    134.65646     -73.4022    481.11214    -54581.63    221.89378 
    8350    64.970168    64.970168    64.970168   -91.435831   -156.98243    270.91608   -62.571213    264.84808   -54.753852    481.07487   -54585.327    224.48301 
    8400    64.966525    64.966525    64.966525    51.258428    37.938134    214.24098    70.480926    156.89341    45.356225    481.30741   -54581.554    223.53664 
    8450    64.966323    64.966323    64.966323    82.221508    74.386881    441.97963    114.87324    229.38352    57.404405    481.38361   -54577.714    222.55921 
    8500    64.970463    64.970463    64.970463   -48.225571   -25.721192    379.15145   -60.380883    201.28355   -58.574638    481.14133   -54575.849    222.51476 
    8550    64.970816    64.970816    64.970816   -93.884933   -54.857474    151.59267   -160.51152     256.6846   -66.285807    481.11798   -54578.427    224.57104 
    8600    64.967101    64.967101    64.967101    139.11742    146.86257    77.697567    194.69844    68.550799    75.791238    481.33086   -54576.432    224.46243 
    8650    64.969173    64.969173    64.969173    3.1483363    28.738074    72.549493   -56.235821    208.26046    36.942755    481.17769   -54575.691    224.94696 
    8700    64.971854    64.971854    64.971854     -68.7698   -116.10651    161.93191   -5.0011582    64.343349   -85.201734    480.99949   -54579.878    227.75265 
    8750    64.971904    64.971904    64.971904   -67.182553   -63.197209   -126.16215    -24.01635    39.993155    -114.3341    481.07536   -54576.258    226.87008 
    8800    64.970052    64.970052    64.970052    79.438675    90.911273     167.0292    91.163107    412.53514    56.241646    481.17379   -54570.121    224.79881 
    8850     64.97149     64.97149     64.97149     13.22576    14.066215    342.84421   -14.538886    163.38561    40.149952     481.1604   -54570.592    225.84808 
    8900    64.972718    64.972718    64.972718   -3.9891204    38.631298    156.31952    21.238026    39.997717   -71.836685    481.07058    -54570.84    226.79338 
    8950    64.972266    64.972266    64.972266    35.810372     99.50172    75.117913   -8.2466299    240.55872    16.176028    481.06143   -54569.553    227.00837 
    9000    64.972546    64.972546    64.972546    10.151834    16.591347    260.75861    46.671421    254.54288   -32.807265    481.00194   -54569.906    227.99736 
    9050    64.973538    64.973538    64.973538   -61.331172   -61.403107    109.24161   -116.17613    189.53656    -6.414278    481.00786   -54571.658    229.64311 
    9100    64.972912    64.972912    64.972912    41.898657    84.868777    219.58342    25.581862   -20.244901    15.245331    481.04298   -54568.546    228.99296 
    9150    64.974044    64.974044    64.974044   -12.475464   -97.500023    198.99589    45.822851    218.48834    14.250781    480.99824   -54570.802    230.87494 
    9200    64.975684    64.975684    64.975684   -42.705464   -51.891086    341.32207   -11.814993    126.53598   -64.410313    480.86055   -54567.291    230.03132 
    9250    64.974964    64.974964    64.974964    13.672826    13.271093    174.95868    31.793723   -4.8740515   -4.0463388    480.94673   -54563.834    229.21413 
    9300    64.974192    64.974192    64.974192    59.414045    87.404883    207.44753     25.10489    117.91195    65.732361    481.01495   -54562.266    229.28623 
    9350    64.975523    64.975523    64.975523    1.2853101   -81.530516    390.14974    32.034216    457.05971     53.35223     480.9134   -54565.811     231.7696 
    9400    64.977052    64.977052    64.977052   -96.691083    -72.77632    83.193552   -117.53051    210.42266   -99.766422    480.84958   -54567.915    233.56933 
    9450    64.975363    64.975363    64.975363    27.965824   -29.616366    268.63572    64.292913    285.99948    49.220926     481.0052   -54560.836    231.03533 
    9500    64.975278    64.975278    64.975278    32.875849    67.225627    347.53113    13.100999     471.6393    18.300919    480.95371   -54561.184    232.00474 
    9550    64.976509    64.976509    64.976509   -20.744073   -20.538339    7.3515228   -47.177451   -9.3403616    5.4835722    480.89232   -54559.204    231.87811 
    9600    64.976106    64.976106    64.976106    94.425025    139.05742    311.48516    92.319146    231.07296    51.898514    480.97204   -54554.641    230.52469 
    9650    64.977299    64.977299    64.977299   -19.565453   -94.840849    196.63468    38.464319    191.50282   -2.3198294    480.85607   -54560.418    234.05496 
    9700    64.977223    64.977223    64.977223    34.853728    79.358394    312.78657    12.645233    136.25516    12.557556    480.87742   -54553.728    231.68887 
    9750    64.978038    64.978038    64.978038   -90.959678   -72.711863    207.55033   -31.803723    374.84868   -168.36345    480.83022   -54563.486    237.09357 
    9800    64.977173    64.977173    64.977173    60.245875    96.567211    413.12967   -10.065643    144.58559    94.236056     480.9193   -54553.737    233.28502 
    9850    64.978769    64.978769    64.978769    -9.645999   -45.986779     395.1819     9.149433    367.72739    7.8993487     480.8761   -54557.067    235.65541 
    9900    64.979198    64.979198    64.979198   -33.031717    29.656642    215.48597   -11.812585    63.330429   -116.93921    480.85067   -54552.233    234.16254 
    9950    64.978203    64.978203    64.978203    62.554349    16.910739    204.64444    62.837329    159.55805    107.91498    480.79442   -54555.542    236.51703 
   10000     64.97967     64.97967     64.97967    31.828521    56.100761    170.85202    75.800805    91.226166   -36.416003    480.78514   -54551.297    235.29757 
   10050    64.981801    64.981801    64.981801   -52.862736     14.21204    228.14096   -114.62243    272.91201   -58.177815     480.6686    -54552.58    236.69116 
   10100    64.981127    64.981127    64.981127   -12.936916   -49.443328    179.98518    34.965438    338.78634   -24.332858    480.69663   -54551.557    236.99104 
   10150    64.979724    64.979724    64.979724    54.970747    75.030374    507.11066    47.061192    245.15138    42.820674     480.8349   -54550.064    237.06794 
   10200    64.981265    64.981265    64.981265     15.46661    30.561794    479.80339    15.262408    351.61844    0.5756263      480.807   -54550.181    237.90143 
   10250    64.983122    64.983122    64.983122   -48.827105    19.773997    368.54991   -134.98479    132.49468   -31.270521     480.6955   -54548.946    238.09972 
   10300    64.983042    64.983042    64.983042    -5.738439   -93.184018    412.72381      11.4012    100.73352    64.567501     480.6784   -54546.775    237.84975 
   10350    64.982695    64.982695    64.982695   -16.447721    20.734412    247.93679   -14.374482     400.1878   -55.703094    480.69255   -54549.214    239.77832 
   10400     64.98193     64.98193     64.98193    54.517596    44.392774    311.89968    31.337576    454.22699    87.822437    480.79301   -54544.677    238.40927 
   10450    64.983325    64.983325    64.983325   -23.488735    85.134561    191.15954   -64.258372    144.92286   -91.342393     480.6724   -54547.768    240.64172 
   10500    64.984392    64.984392    64.984392   -30.345218   -61.109625    167.67771   -5.4884357    122.48947   -24.437593    480.55165   -54547.327    241.20175 
   10550    64.984294    64.984294    64.984294   -3.9050019   -31.725595    138.79547    34.458399    361.06334    -14.44781    480.56548   -54543.044    239.94717 
   10600     64.98362     64.98362     64.98362    73.639837    140.05109    57.218622    51.583083    56.961691    29.285341    480.72503   -54540.571    239.54237 
   10650    64.985282    64.985282    64.985282   -58.570514   -96.819563    193.55591   -92.205685    347.38419    13.313707    480.57503   -54543.497    241.68466 
   10700    64.985165    64.985165    64.985165    17.885728    108.46209    339.87458    26.070146    79.582654   -80.875056    480.65868   -54540.428     240.9996 
   10750    64.985316    64.985316    64.985316    8.2171452   -42.606569    335.62796    12.852897    707.24504    54.405107    480.62348    -54541.11    242.07905 
   10800    64.984934    64.984934    64.984934     32.75143    72.411197    218.93349     5.224387    275.81401    20.618707    480.61162   -54537.746    241.25126 
   10850    64.985818    64.985818    64.985818  -0.72907572    22.929291    204.15452    8.0845054   -5.2425697   -33.201023    480.54739   -54539.805    242.97649 
   10900    64.987016    64.987016    64.987016   -27.648872    13.052593    179.27629   -72.590281    336.31742   -23.408929    480.49093   -54538.878    243.29431 
   10950    64.986831    64.986831    64.986831   -64.524437   -59.257222    209.75331   -55.407794     166.7239   -78.908294    480.59773   -54539.473    244.32358 
   11000     64.98556     64.98556     64.98556    75.421983    140.82559    240.23166    47.409159    97.944178    38.031202    480.57399   -54538.659    244.68781 
   11050    64.987078    64.987078    64.987078   -9.6118611    48.781073    294.58039   -23.345128    119.12919   -54.271529    480.54041    -54534.81    243.61813 
   11100    64.988415    64.988415    64.988415    7.6343537    6.2778872    343.99437   -10.756686    395.74844     27.38186      480.524   -54532.112    243.08659 
   11150    64.988464    64.988464    64.988464    -14.28932    4.2676763    6.9464572   -32.421669    435.69562   -14.713968    480.51533   -54532.926    244.21383 
   11200    64.988042    64.988042    64.988042   -13.729977    49.181478   -30.749447   -41.223785    163.85267   -49.147623    480.46129   -54536.763    246.76628 
   11250    64.988561    64.988561    64.988561   0.92007872    37.187587    384.32246     27.15017    275.43583    -61.57752    480.59393   -54533.341    245.89191 
   11300    64.989519    64.989519    64.989519   -2.7644211    38.384863     296.6265    13.273778    158.48961   -59.951904    480.48218   -54532.188    246.08206 
   11350    64.990476    64.990476    64.990476    -41.42969   0.78071385    81.300821   -79.974049    197.40664   -45.095734    480.36184   -54531.696    246.58568 
   11400    64.989317    64.989317    64.989317    17.859973   0.31705247    233.04646    72.940344    377.38912   -19.677476    480.40114    -54531.55    247.24941 
   11450    64.988663    64.988663    64.988663    77.058992    3.3363355    276.97878    51.023486    337.38031    176.81715    480.48748   -54526.938    245.80222 
   11500    64.990973    64.990973    64.990973   -66.176701   -37.080124     291.0281   -24.077929    307.85022   -137.37205    480.40645   -54532.693    249.24502 
   11550    64.991348    64.991348    64.991348     38.27498    -29.22673    194.22332    47.630922    281.72793    96.420747    480.44684   -54523.445     245.6005 
   11600    64.992424    64.992424    64.992424   -60.605003   -9.3494211    118.49197   -46.603818    62.978301   -125.86177    480.23338   -54531.507    250.13245 
   11650    64.990945    64.990945    64.990945    75.478384    136.49148     90.22193    64.770155    131.46721    25.173514    480.47359   -54523.209    246.93655 
   11700    64.991579    64.991579    64.991579    -56.73892   -76.894686    264.40023   -14.117386    142.62253   -79.204688    480.27654   -54528.913    250.35039 
   11750    64.991141    64.991141    64.991141    90.001387    84.196661    225.86643    60.618181    273.62938    125.18932    480.45664   -54522.336    247.95994 
   11800    64.993062    64.993062    64.993062    -57.16093   -86.173468    417.51906    1.5196547    98.825788   -86.828978    480.33685   -54523.312    249.13309 
   11850    64.992282    64.992282    64.992282   -6.4051942    37.997356    274.16329   -39.256087    26.791557   -17.956852    480.35308   -54524.953    250.62454 
   11900     64.99049     64.99049     64.99049    113.86902    164.97168    64.972771    157.80959    303.42807    18.825784    480.44695   -54520.135    249.05591 
   11950    64.993815    64.993815    64.993815   -38.693103    23.610862    309.62768   -29.998811    378.89501   -109.69136    480.25313   -54525.197    252.15287 
   12000    64.996279    64.996279    64.996279   -105.67284   -73.673109    268.13561    -70.38373    86.618261   -172.96168    480.15465   -54523.036     251.8378 
   12050      64.9938      64.9938      64.9938   -15.384944   -14.347939    206.11286   -16.477556     150.0392   -15.329337    480.35064   -54521.514    251.82233 
   12100    64.992187    64.992187    64.992187    87.259225    154.53453   -31.836768    127.87434    55.186322   -20.631194    480.36141   -54519.814    251.71878 
   12150     64.99532     64.99532     64.99532   -29.226165   -63.511866    127.65021    33.361385     20.35264   -57.528014    480.16785   -54520.847     252.9091 
   12200    64.997238    64.997238    64.997238   -107.13491   -47.785506    147.78586   -141.26296    500.05003   -132.35626     480.0954   -54518.816      252.645 
   12250    64.994406    64.994406    64.994406    21.763478    31.438239    209.45291    60.500877     353.6617   -26.648683    480.25145   -54520.074     253.9338 
   12300    64.993308    64.993308    64.993308    44.872048    67.109629    60.948752    83.098465    250.80412    -15.59195     480.3049   -54518.065    253.67531 
   12350    64.996035    64.996035    64.996035     17.94731    42.039793     111.7284    103.86669    50.301827   -92.064551     480.2106   -54514.093    252.48595 
   12400     64.99859     64.99859     64.99859   -96.427861    -60.75979    136.48373   -54.764982     399.6008   -173.75881    479.99844   -54518.575    255.29035 
   12450    64.996965    64.996965    64.996965   -35.367795   -15.157564    151.92432    -20.06903    257.11616   -70.876791    480.20505   -54515.814    254.66939 
   12500     64.99502     64.99502     64.99502    46.527335    100.69795    55.723147   -7.8554605     174.4166    46.739519    480.19516   -54515.351    255.13318 
   12550     64.99663     64.99663     64.99663    10.488067   -9.6800399    164.73508    68.052841    169.63661   -26.908599     480.1739   -54512.474    254.45546 
   12600    64.998752    64.998752    64.998752   -21.346799    70.919178    131.79409   -76.857179    440.19524   -58.102396    480.09765   -54513.127    255.44341 
   12650     64.99881     64.99881     64.99881    -47.97853   -67.125829    155.15733   -32.988068    352.78368   -43.821693    480.06054   -54510.326    254.79481 
   12700    64.996559    64.996559    64.996559     17.99128    23.333446    86.192009   -11.057725    236.41678    41.698119    480.19907   -54511.652    256.09193 
   12750    64.996803    64.996803    64.996803    71.864473    136.99288    328.73188    50.966505    537.50502    27.634031    480.18575   -54511.964    256.90743 
   12800    65.000501    65.000501    65.000501   -84.067739    3.2954419    170.34176   -125.78042    161.42234   -129.71824    479.98871   -54511.625    257.41836 
   12850    65.000385    65.000385    65.000385   -103.79042   -76.363219    218.60561   -84.208979    81.569705   -150.79907    479.96776   -54509.999    257.31219 
   12900    64.997288    64.997288    64.997288    102.89599    149.97672    124.03949    80.143802    67.576347    78.567438    480.18842   -54508.286    257.16696 
   12950    64.998857    64.998857    64.998857    8.1198202    33.073775    539.16897    10.227067    366.47021   -18.941381    480.11586   -54509.863    258.57239 
   13000    65.001336    65.001336    65.001336     4.148757    50.896081    187.32188   -11.761826     187.2792   -26.687984    480.04515   -54499.798     254.4752 
   13050    65.001213    65.001213    65.001213   -67.543318   -63.408973    198.19596   -68.435593    9.6863121    -70.78539    479.94379   -54512.052    260.91953 
   13100    64.999437    64.999437    64.999437    63.374919    18.860217    445.77535    141.22191    220.09088    30.042625    480.17359   -54502.337    256.98134 
   13150    65.001316    65.001316    65.001316    3.0805994    87.551328    478.56432   -47.383658    545.58196   -30.925872    480.01077   -54506.677    259.68345 
   13200    65.003166    65.003166    65.003166   -68.636709   -96.357817    260.59653    -16.01032    267.51242    -93.54199    479.89154   -54504.828    259.45868 
   13250    65.001479    65.001479    65.001479    32.653645    37.521556   -88.252291   -16.549132    360.21824    76.988512    479.94168   -54501.264    258.42198 
   13300    65.000468    65.000468    65.000468    76.767082    116.47616    328.93739    106.00672    121.51654    7.8183692    480.07238   -54500.986    258.93216 
   13350    65.002986    65.002986    65.002986   -21.808471   -54.704772    275.74439    15.346278    334.58213    -26.06692    479.87508   -54502.687    260.37581 
   13400     65.00484     65.00484     65.00484   -92.323788   -39.295602    271.34689   -196.96892    156.60147   -40.706841    479.80001   -54502.463    260.90699 
   13450    65.003178    65.003178    65.003178    1.2517954     -52.6411    131.12412    125.13733    322.07458   -68.740845    479.89859   -54500.886    260.79843 
   13500    65.000974    65.000974    65.000974    50.716371    148.11696    137.02217   -137.30827    175.26062    141.34043    479.98565    -54501.01     261.4921 
   13550    65.002346    65.002346    65.002346    2.1239661   -47.708913    323.13806    101.42617    289.96327   -47.345358    479.93933   -54500.878    262.05624 
   13600    65.004985    65.004985    65.004985   -20.253338   -22.755128    81.823933   -63.920124    239.90389    25.915238    479.85897   -54496.681    260.70149 
   13650    65.005226    65.005226    65.005226   -87.526899    16.806257    111.62776   -146.15456    198.28146   -133.23239    479.83305   -54501.464    263.58346 
   13700    65.002632    65.002632    65.002632    100.30422    50.569336    268.64123    141.16147    120.27407    109.18186    479.97782    -54494.08     260.7215 
   13750    65.003402    65.003402    65.003402    53.458132    80.512855    448.06218    38.585107      365.965    41.276434    479.89003   -54497.219    262.82535 
   13800    65.006493    65.006493    65.006493   -76.420954   -104.70327    192.30928   -42.275807    402.23044   -82.283784    479.81081   -54496.528    263.11273 
   13850    65.006436    65.006436    65.006436   -32.329149   -53.062222     104.8884   -39.602029    235.50836   -4.3231964    479.77664   -54494.241    262.64509 
   13900    65.004981    65.004981    65.004981   -53.916576    1.3022331    343.88819     -67.4361    234.39563   -95.615861    479.78891   -54499.937    265.94582 
   13950    65.004154    65.004154    65.004154    77.906495    80.087439    61.158966     65.18167    492.66903    88.450376    479.91515   -54493.826    263.67168 
   14000    65.007407    65.007407    65.007407   -54.849822    60.869217    199.76316    -75.98163    106.65333   -149.43705    479.68149   -54493.804    264.26642 
   14050    65.008317    65.008317    65.008317   -82.389115   -137.87714    159.32188   -10.521322     264.6131   -98.768883    479.71399   -54495.404    265.62948 
   14100    65.005065    65.005065    65.005065    95.948196    170.79844    207.93177   -9.6166365    539.56703    126.66278    479.84504   -54486.898    262.21159 
   14150    65.005911    65.005911    65.005911    22.082133    11.546444    98.048523    75.970525    203.24415   -21.270569    479.86921   -54491.383    264.92977 
   14200    65.007937    65.007937    65.007937    -58.42636   -48.734901    187.60185   -53.355011    108.33605   -73.189167    479.67363    -54493.35    266.45756 
   14250    65.007679    65.007679    65.007679   -16.233876    41.610205    149.51663   -20.009525    75.761587   -70.302309    479.70141   -54491.672     266.2579 
   14300    65.006925    65.006925    65.006925   -10.505199   -65.579534    456.22783    40.409526   -153.97331    -6.345588    479.80058   -54490.655    266.36794 
   14350     65.00673     65.00673     65.00673    49.075549    142.86479    307.84481   -19.692486     539.6911    24.054345    479.74588   -54488.047    265.72215 
   14400    65.007994    65.007994    65.007994    16.710179   -15.138417    359.63668    68.778712     593.6646   -3.5097587    479.80983   -54484.438    264.60465 
   14450     65.00909     65.00909     65.00909    -43.69426    59.878317    282.37262   -64.010641    461.47506   -126.95046    479.72321   -54488.473     267.0934 
   14500    65.007568    65.007568    65.007568   -10.921023    2.7990137    424.04529    -23.74924    183.52786   -11.812844    479.78431   -54488.713    267.78771 
   14550     65.00719     65.00719     65.00719    3.3504138    35.229775    39.246315   -52.289683    153.14241    27.111149    479.69385   -54493.302    270.53229 
   14600    65.009272    65.009272    65.009272   -15.108985    15.452593    273.61353    22.641124     239.0279   -83.420671    479.69475   -54486.244    267.77634 
   14650    65.010254    65.010254    65.010254   -91.752327   -112.91136    327.95897   -12.490619    102.04437     -149.855    479.63589   -54489.729    269.99201 
   14700    65.008623    65.008623    65.008623    85.935015    103.89113    466.81026    114.02415    83.678638    39.889762    479.62044   -54482.595    267.18902 
   14750    65.010609    65.010609    65.010609   -10.552316   -25.817004    215.06055   -7.4034931     155.8207    1.5635486    479.59655   -54484.105    268.46838 
   14800    65.011172    65.011172    65.011172   -47.559096   -54.341083    300.43958   -36.163334    420.43157   -52.172872    479.66903   -54480.067    267.12621 
   14850    65.009108    65.009108    65.009108    54.944294    89.664882    309.84431    58.201578     511.1886    16.966422    479.73681   -54481.505    268.36541 
   14900    65.009679    65.009679    65.009679    26.792246    3.1491432    312.12973    3.1822088    219.28641    74.045387    479.60558   -54484.666    270.42309 
   14950    65.011485    65.011485    65.011485     -1.65824    22.471889    123.48059   -38.017178   -105.77408    10.570569    479.60491   -54482.398    269.90664 
   15000    65.013386    65.013386    65.013386   -138.37133    -245.5056    199.61996   -95.591916    397.01232   -74.016473    479.42208   -54483.589    271.02236 
   15050    65.010453    65.010453    65.010453    45.442243    69.425153    209.10222   -22.447442    175.68433    89.349019    479.65589   -54479.846    269.80891 
   15100    65.008626    65.008626    65.008626    171.93128     184.4324   -49.376065    223.31028    100.81855    108.05117    479.78053   -54474.735    267.94472 
   15150    65.012947    65.012947    65.012947   -62.118027    31.027039    491.08477   -110.53104    265.09193   -106.85008    479.48821   -54480.106    271.02554 
   15200     65.01491     65.01491     65.01491   -66.311121   -84.115941    229.73598   -60.521713       169.73   -54.295709    479.34592   -54480.086    271.55623 
   15250    65.013048    65.013048    65.013048   -58.251712   -25.907238    92.255156    -153.8837    421.82604    5.0358001    479.55012   -54480.336    272.21323 
   15300     65.01022     65.01022     65.01022    107.10497      37.3931     444.1905    172.90603    270.10179     111.0158    479.65849   -54476.409    270.89648 
   15350    65.013048    65.013048    65.013048    6.9630288    22.901903    493.94082    75.518397    337.91638   -77.531213    479.48085   -54475.588    271.04423 
   15400    65.015961    65.015961    65.015961   -120.74608   -133.19286    89.226197     -44.9016    327.40765   -184.14377    479.34809   -54478.254    272.83791 
   15450    65.012506    65.012506    65.012506    62.279189    110.93293    411.51679    79.757232    192.49357   -3.8525983     479.5253   -54473.458    271.10258 
   15500    65.011012    65.011012    65.011012    32.563301    51.581586    142.50006    55.233134    294.28337    -9.124819    479.64693   -54478.992    274.24166 
   15550    65.012798    65.012798    65.012798    38.679001    28.254017    49.474431   -31.997597    223.79719    119.78058    479.48044   -54472.023    271.47045 
   15600    65.015475    65.015475    65.015475   -113.00022   -43.503041    309.63949   -86.961572    314.30257   -208.53606    479.41348   -54479.229    275.39123 
   15650    65.013988    65.013988    65.013988    33.516209   -38.392273    429.61278    126.62597    117.21217    12.314932    479.54497   -54470.365    271.72068 
   15700    65.013892    65.013892    65.013892   -12.483284    11.545993    395.27417   -3.2541272   -72.176002   -45.741718    479.47887   -54475.236    274.53773 
   15750    65.014695    65.014695    65.014695   -6.2480269   -50.028596    302.79544      86.6567    574.95285   -55.372184    479.35314   -54475.806    275.32212 
   15800    65.015646    65.015646    65.015646   -2.5484339    22.841249     40.16504   -24.440238     425.8072    -6.046313    479.48216   -54467.724    272.01642 
   15850    65.015739    65.015739    65.015739    1.7944996    -18.91172    329.98493    72.310908    60.376566   -48.015689     479.4072   -54470.857    274.00323 
   15900    65.015554    65.015554    65.015554   -22.324492    42.314653     221.1533   -46.172967    415.25158   -63.115161    479.37596   -54473.953    275.97205 
   15950    65.015689    65.015689    65.015689    6.6346471   -59.165953     42.16017    86.173101    51.865535   -7.1032074    479.36685   -54472.437    275.75768 
   16000    65.017294    65.017294    65.017294   -56.727692    7.0934448    321.87845      33.9819    455.11069   -211.25842     479.3675   -54473.437    276.72743 
   16050    65.017123    65.017123    65.017123   -5.0597154   -79.497209    341.96118    97.820092    450.25465   -33.502029    479.32728   -54467.162    274.26088 
   16100    65.015248    65.015248    65.015248    41.651353     4.521986    237.41456     90.75755    413.70341    29.674523     479.4666   -54468.167    275.22757 
   16150      65.0158      65.0158      65.0158     70.35859    117.00293    437.55911    52.631225    352.69997    41.441612     479.4623   -54469.126    276.16838 
   16200    65.019601    65.019601    65.019601   -52.930759   -85.384887    387.71446    80.048282    364.35768   -153.45567    479.26362   -54463.959    274.21704 
   16250    65.019243    65.019243    65.019243   -36.847298    89.317408    138.81043   -141.29634    488.21427   -58.562959    479.30105   -54466.691    275.99277 
   16300    65.015942    65.015942    65.015942    37.740344    59.871175    108.12038    118.66012    140.88783    -65.31026    479.51799   -54468.963     277.5491 
   16350    65.015859    65.015859    65.015859    25.590161    19.363696    416.11448    48.932505    63.791206    8.4742814    479.41612   -54470.586    278.79459 
   16400    65.019289    65.019289    65.019289   -36.130788   -30.778719    219.26995   -22.302117    302.68419   -55.311528    479.27037   -54465.101    276.68149 
   16450    65.019655    65.019655    65.019655   -51.876899    21.975224    108.14994   -37.736349    201.86783   -139.86957    479.25008   -54464.084    276.67642 
   16500    65.016357    65.016357    65.016357    53.143815   -32.704092    226.29913    112.16924   -72.064159    79.966299    479.40504   -54465.108    277.62941 
   16550    65.016166    65.016166    65.016166    53.266236    92.772185    554.56588     125.1644    494.53557   -58.137875    479.41423   -54465.601     278.3304 
   16600    65.019552    65.019552    65.019552   -43.767156    -83.60245    385.49992   -39.139157    268.85492   -8.5598615      479.271   -54464.971    278.49631 
   16650    65.021155    65.021155    65.021155    -105.7246   -102.60175    473.75781   -121.21079     207.4354    -93.36126    479.14115   -54465.836     279.3687 
   16700    65.018198    65.018198    65.018198    1.1595646    32.816794    173.73149   0.81236229    216.96654   -30.150462    479.35076   -54463.255     278.6116 
   16750    65.016691    65.016691    65.016691    114.15962    128.41353    196.16696    201.63827      420.016     12.42704    479.44348   -54460.817    277.91766 
   16800    65.020568    65.020568    65.020568   -27.240336   -30.322576    124.37645   -32.303891    284.83519    -19.09454    479.22437   -54460.945    278.43255 
   16850    65.021841    65.021841    65.021841   -64.657536    3.4651342    184.26882   -154.27829    409.10446   -43.159447    479.10795   -54459.184    278.05516 
   16900    65.018923    65.018923    65.018923    31.536944    28.778775    130.35864    80.439998     425.3395   -14.607942    479.30213   -54462.847    280.23138 
   16950    65.018714    65.018714    65.018714    15.449823    41.991716    106.79764    66.823474    192.78376    -62.46572    479.35903   -54464.573    281.49096 
   17000    65.021634    65.021634    65.021634   -63.182172   -96.269591     352.0857   -45.908221     277.4699   -47.368703    479.18158   -54460.865    280.18194 
   17050    65.022022    65.022022    65.022022   -16.494168     25.14977    272.97783   -37.266088    513.43716   -37.366184    479.14134   -54457.345     278.9623 
   17100    65.020008    65.020008    65.020008    56.617963    28.223817    181.14055     90.17647    210.05497    51.453603    479.31208   -54456.888    279.18476 
   17150    65.020185    65.020185    65.020185    28.324724    6.0551605    181.05519    42.956623    300.92343    35.962388    479.36882   -54458.833    280.54062 
   17200    65.021797    65.021797    65.021797    8.6741434   -20.626293    252.80599    68.754095    159.23665   -22.105372    479.18019   -54459.035    281.06904 
   17250    65.023447    65.023447    65.023447   -71.032762   -119.17381    83.419571   -83.733662    431.48824   -10.190813    479.13503   -54455.991    280.06118 
   17300    65.021845    65.021845    65.021845   -5.6163435    54.636653    405.17296    7.3550402    562.70776   -78.840723    479.18967   -54456.984    280.96098 
   17350     65.02034     65.02034     65.02034    88.800759    32.341657    318.05725     115.5278    320.51099    118.53282    479.21333   -54458.764    282.22728 
   17400    65.023046    65.023046    65.023046   -5.7676901      48.9984    481.83011   -23.567438     257.4127   -42.734032    479.16511   -54455.673    281.18768 
   17450    65.024608    65.024608    65.024608   -41.019949   -83.642371    220.38615   -29.417055    45.903797   -10.000421    478.99223    -54453.27     280.4691 
   17500     65.02279     65.02279     65.02279   -52.294393    -33.37452    298.65134    -29.87695   -19.464637   -93.631709    479.14455   -54458.585    283.39456 
   17550    65.020522    65.020522    65.020522    74.425778    45.614875    249.88414    138.54904    263.74021    39.113422    479.24075   -54455.654    282.42222 
   17600    65.023053    65.023053    65.023053   -3.0265697     14.29652    393.80257    41.061451    39.222447    -64.43768    479.07597   -54455.987    282.99059 
   17650    65.026162    65.026162    65.026162   -61.866777    41.605945    381.67638   -121.00946   -106.91558   -106.19681    479.06408       -54455    282.93211 
   17700    65.025161    65.025161    65.025161   -70.109818    -100.8315    271.88271   -34.257856    169.01199   -75.240099    479.12107   -54454.496    283.09927 
   17750    65.020543    65.020543    65.020543    140.04881    88.171814    371.98584    192.11292     207.6043    139.86169    479.26732   -54448.636    280.73391 
   17800    65.022824    65.022824    65.022824    80.183471    156.23188    168.95233    166.11584    265.21422   -81.797306    479.17382   -54453.477    283.42088 
   17850    65.028151    65.028151    65.028151   -132.35297   -109.85814    564.26553   -77.842986    190.92874    -209.3578    478.93132   -54453.098    283.64068 
   17900    65.026241    65.026241    65.026241   -87.127413   -77.685703    539.22913   -75.027213    297.31275   -108.66932     478.9864   -54452.402    283.70515 
   17950    65.021543    65.021543    65.021543    116.01116    71.111783    204.67415    151.36528    182.38656     125.5564    479.27553   -54452.462    284.12895 
   18000     65.02299     65.02299     65.02299     61.98417    23.133061    267.11296    115.84368    115.80022     46.97577     479.1315   -54451.506    284.06771 
   18050    65.027859    65.027859    65.027859   -73.919943   -95.352754    48.310175   -44.458946    161.83567   -81.948129    478.93933   -54449.265    283.39432 
   18100    65.028024    65.028024    65.028024   -60.713176   -62.679673    469.57127   -31.397564    238.37077   -88.062291    478.95513   -54444.525     281.5406 
   18150    65.023369    65.023369    65.023369    67.603995   -53.219272     265.6482    256.16721    143.05391  -0.13594975    479.11055   -54452.287    285.59055 
   18200    65.022215    65.022215    65.022215    145.00628    159.89843    372.09134    157.81947    333.03785    117.30094    479.24003   -54446.432    283.20416 
   18250    65.027645    65.027645    65.027645   -88.022508   -265.08929    265.98393    31.333697    71.500949   -30.311926    478.88335   -54450.144    285.33106 
   18300    65.028954    65.028954    65.028954   -129.76512   -121.10681    180.58709   -121.47279    226.05257   -146.71577    478.84127   -54448.977    285.15448 
   18350    65.023541    65.023541    65.023541    85.758803    15.691078    52.452876    58.763115    15.313102    182.82222    479.12934   -54448.687    285.38657 
   18400    65.022745    65.022745    65.022745    181.56379    144.12631    286.10071    234.62391    147.64118    165.94114    479.21446   -54444.088    283.57938 
   18450    65.029073    65.029073    65.029073   -81.587504   -131.97725    408.76115    36.422431    166.97873   -149.20769    478.83267    -54444.45    284.11711 
   18500    65.029373    65.029373    65.029373   -121.52831   -203.59236    297.65056    -110.4694     214.5509   -50.523158    478.83831   -54446.534    285.46264 
   18550    65.023478    65.023478    65.023478    101.28445    118.48629    433.18919    124.35305    272.50955    61.014014    479.13228   -54449.156    287.06003 
   18600    65.024011    65.024011    65.024011    90.475821    66.870527    200.24488     100.7094    42.622719    103.84754    479.13158   -54445.476    285.67684 
   18650    65.029994    65.029994    65.029994   -122.35738   -95.539394    218.42894   -113.32187    259.24587   -158.21088    478.77642   -54448.672    287.54479 
   18700    65.029167    65.029167    65.029167    -85.41387   -93.563021    232.11406   -52.934396    225.36521   -109.74419    478.91921   -54444.862    286.09575 
   18750    65.023966    65.023966    65.023966    211.58184    121.20112    141.33632    312.12171    431.31647     201.4227    479.13878   -54438.842    283.60127 
   18800    65.026896    65.026896    65.026896   -39.678954   -53.846292     155.0983    33.453014    169.87568   -98.643583    478.98103   -54447.042    287.82196 
   18850    65.029186    65.029186    65.029186   -38.880516   -63.744145    327.72148   -18.875494    171.75012   -34.021909     478.9609   -54438.872    284.30767 
   18900    65.028073    65.028073    65.028073   -42.708723   -7.7674894    202.92346   -1.8684282    191.35392   -118.49025    478.90225   -54446.462    288.23498 
   18950    65.025881    65.025881    65.025881    42.657124    31.453817    230.09218    66.095816    148.50991     30.42174    479.01985   -54443.985    287.40804 
   19000    65.026351    65.026351    65.026351    83.683138    16.639203    211.20461    92.973784    433.22241    141.43643    478.98151   -54441.231    286.44507 
   19050    65.028881    65.028881    65.028881   -51.658857     10.40396    335.64227    50.251398   -88.694374   -215.63193    478.99405   -54441.376    286.84831 
   19100    65.028311    65.028311    65.028311    41.221913    16.043851       350.53   -29.622398    327.96154    137.24429    478.85643    -54441.02    287.00999 
   19150    65.027852    65.027852    65.027852   -8.6468596    100.07615    433.38493    4.1784316    155.57531   -130.19516    478.93372   -54443.582    288.54827 
   19200    65.027285    65.027285    65.027285    55.459995    36.410795    540.00925    53.494068    165.40242    76.475122    478.94353   -54439.278    286.84083 
   19250    65.028375    65.028375    65.028375    -2.927201   -9.9555226      206.335    80.756045    -81.60503   -79.582126    478.85224    -54445.15    289.93614 
   19300    65.029471    65.029471    65.029471    -16.44996    56.504549    190.90457   -3.5225385    275.94312   -102.33189    478.91472   -54437.931     286.8444 
   19350     65.02948     65.02948     65.02948   -34.867856   -66.860949    387.31426    1.8249377    12.515786   -39.567558    478.77978   -54443.179    289.63992 
   19400    65.028254    65.028254    65.028254    28.148038     33.28184    114.01368    121.78608    304.98104   -70.623808    478.87972   -54441.657    289.23683 
   19450    65.029249    65.029249    65.029249    38.340008    92.900866    577.35882    26.105635    422.53265   -3.9864758    478.91041   -54438.554    288.08217 
   19500    65.031395    65.031395    65.031395   -80.909258   -151.12453    278.82686    18.540277    149.41498   -110.14352    478.75439   -54439.463    288.82272 
   19550     65.02912     65.02912     65.02912     9.829913    83.488214    237.79487   -9.0043645    74.827542    -44.99411    478.94233   -54441.624    290.15212 
   19600    65.027718    65.027718    65.027718    120.10155    115.76796    97.738162    156.49847    331.91365    88.038219    478.98996   -54435.555    287.58845 
   19650    65.031458    65.031458    65.031458   -82.804021   -138.63132    265.36883   -9.5392413     469.9904    -100.2415     478.7952   -54438.788    289.41881 
   19700    65.031794    65.031794    65.031794   -95.656151   -79.384203    307.98064   -76.881766   -82.689112   -130.70248     478.7394   -54441.463    290.98717 
   19750    65.028369    65.028369    65.028369    67.007249   -18.059074     223.7325     68.70037    267.28216    150.38045     478.8989   -54438.834    290.04609 
   19800     65.02825     65.02825     65.02825    134.21789    250.86213     627.3752    120.95984    191.03281    30.831709    479.00864   -54434.825    288.44911 
   19850    65.032979    65.032979    65.032979   -53.263187   -75.152009    130.15806    91.907256    224.02273   -176.54481    478.74627   -54434.001    288.35251 
   19900    65.032792    65.032792    65.032792    -81.09111   -30.758059    182.85821   -115.11879    406.08854   -97.396482    478.63783   -54438.097    290.57874 
   19950    65.027695    65.027695    65.027695    117.31052    98.222593    210.18171    180.01347    131.38261    73.695498    478.99621   -54434.714    289.27026 
   20000    65.029204    65.029204    65.029204    58.503433    89.028838    76.230114    36.466642     43.43154    50.014821     478.8352   -54439.173    291.66205 
Loop time of 3339.35 on 4 procs for 20000 steps with 16384 atoms

Pair  time (%) = 3128.45 (93.6845)
Neigh time (%) = 0 (0)
Comm  time (%) = 139.192 (4.16823)
Outpt time (%) = 1.09621 (0.032827)
Other time (%) = 70.6101 (2.11449)

Nlocal:    4096 ave 4096 max 4096 min
Histogram: 4 0 0 0 0 0 0 0 0 0
Nghost:    8717 ave 8717 max 8717 min
Histogram: 4 0 0 0 0 0 0 0 0 0
Neighs:    286720 ave 292352 max 281088 min
Histogram: 2 0 0 0 0 0 0 0 0 2
FullNghs:  0 ave 0 max 0 min
Histogram: 4 0 0 0 0 0 0 0 0 0

Total # of neighbors = 1146880
Ave neighs/atom = 70
Neighbor list builds = 0
Dangerous builds = 0
# run 	200000

# Use this if debug
# run 	1000
# run 200
unfix 1

# Store final cell length for strain calculations
variable tmp equal "lx"
variable L0 equal ${tmp}
variable L0 equal 65.0292040293441
print "Initial Length, L0: ${L0}"
Initial Length, L0: 65.0292040293441

######################################
# DEFORMATION
reset_timestep	0
set atom * xrad 0 yrad 0 zrad 0 vxrad 0 vyrad 0 vzrad 0
  16384 settings made for xrad
  16384 settings made for yrad
  16384 settings made for zrad
  16384 settings made for vxrad
  16384 settings made for vyrad
  16384 settings made for vzrad
fix		1 all npt temp 300 300 1 y 0 0 1 z 0 0 1 drag 1

variable srate equal 1.0e10
# variable srate equal 1.0e9 # tiny time step

variable srate1 equal "v_srate / 1.0e12"
fix		2 all deform 1 x erate ${srate1} units box remap x
fix		2 all deform 1 x erate 0.01 units box remap x

# Output strain and stress info to file
# for units metal, pressure is in [bars] = 100 [kPa] = 1/10000 [GPa]
# p2, p3, p4 are in GPa
variable strain equal "(lx - v_L0)/v_L0"
variable p1 equal "v_strain"
variable p2 equal "-pxx/10000"
variable p3 equal "-pyy/10000"
variable p4 equal "-pzz/10000"

# fix def1 all print 100 "${p1} ${p2} ${p3} ${p4}" file Al99.eam_rad.alloy.def1.txt screen no
# IMPLEMENTATION HERE
variable p5 equal "-pxxrad/10000"

# VERSION add rad variables
variable p6 equal "-pyyrad/10000"
variable p7 equal "-pzzrad/10000"

# VERSION ublb coupled/decoupled scheme
# variable p6 equal "-pxxub/10000"
# variable p7 equal "-pxxlb/10000"

fix def1 all print 20 "${p1} ${p2} ${p3} ${p4} ${p5} ${p6} ${p7}" file Al99.eam_rad.alloy.def1.txt screen no

# Use cfg for AtomEye
# dump 		1 all cfg 250 dump.tensile_*.cfg mass type xs ys zs c_csym c_peratom fx fy fz
# dump_modify 1 element Al

# print output to a text file every n timesteps
# dump		2 all custom 50 dump.xyz_rvf_rad.tensile_*.txt mass type id x y z vx vy vz fx fy fz xrad yrad zrad vxrad vyrad vzrad fxrad fyrad fzrad # use for rad developement
# dump		2 all custom 50 dump.xyz_rvf_rad.tensile_*.txt mass type id x y z vx vy vz fx fy fz xrad yrad zrad vxrad vyrad vzrad fxrad fyrad fzrad xub yub zub vxub vyub vzub fxub fyub fzub xlb ylb zlb vxlb vylb vzlb fxlb fylb fzlb # use for ublb developement

# Display thermo
thermo 	50
# thermo 1
# thermo_style	custom step v_strain temp v_p2 v_p3 v_p4 ke pe press

# IMPLEMENTATION HERE
thermo_style	custom step v_strain temp v_p2 v_p3 v_p4 v_p5 v_p6 v_p7 ke pe press
run	20000
Memory usage per processor = 5.90862 Mbytes
Step strain Temp p2 p3 p4 p5 p6 p7 KinEng PotEng Press 
       0            0    291.66205 -0.0089028838 -0.0036466642 -0.0050014821 -0.023946032 -0.023941306          nan    617.64367   -54439.173    58.503433 
      50       0.0005    291.63353  0.039089639  0.013632449  0.032936288 -0.047797502 -0.033319591          nan    617.58328   -54438.855   -285.52792 
     100        0.001    290.30026  0.072713263  0.012380118  0.017318566 -0.023911574 -0.023924901          nan    614.75986   -54435.668   -341.37316 
     150       0.0015    291.42485  0.089428101 -0.022424274 -0.004813619 -0.040210999 -0.029948756          nan    617.14136    -54437.57   -207.30069 
     200        0.002    290.74457   0.10834932 0.0053879461 -0.015634771  -0.02390177 -0.023916519          nan    615.70075   -54435.542   -327.00832 
     250       0.0025     290.4986   0.16383608  0.011992693 4.6838343e-05 -0.054663702 -0.021231748          nan    615.17987   -54434.346   -586.25203 
     300        0.003    289.34835    0.1891214  0.012486457  0.007984165 -0.023873777 -0.023894319          nan    612.74402   -54431.151   -698.64007 
     350       0.0035    291.43776   0.22636221 0.0021018116 -0.0040730853 -0.0042927696 -0.026436187          nan    617.16871   -54434.739    -747.9698 
     400        0.004    289.65682   0.24979058 -0.0098124585 -0.0089095852 -0.023865213 -0.023890476          nan    613.39725   -54430.043   -770.22845 
     450       0.0045    291.72314   0.28866541 -0.0063711314 0.0026746728 -0.027483394 -0.022466474          nan    617.77304   -54433.445   -949.89651 
     500        0.005    292.34391    0.3318371 0.0040886813   0.03106471 -0.023828877 -0.023871255          nan    619.08762   -54433.728   -1223.3017 
     550       0.0055    294.21166   0.35775038  0.014507858   0.01524457 -0.017213095 -0.0098374823          nan    623.04289   -54436.609    -1291.676 
     600        0.006    289.88005   0.36769008 -0.013708684 -0.00012953215 -0.023825786 -0.023865306          nan    613.86998    -54426.32   -1179.5062 
     650       0.0065    294.54373   0.41206211 -0.0030559785 -0.014768714 -0.0030923392  -0.01202836          nan     623.7461   -54435.041   -1314.1247 
     700        0.007    289.86122   0.45153952 0.0095339883 -0.0053971864 -0.023799176 -0.023849205          nan     613.8301   -54423.948   -1518.9211 
     750       0.0075    292.40199    0.4931569  0.021695156  0.017547819 -0.032609535 -0.035837653          nan    619.21062   -54428.123   -1774.6662 
     800        0.008    290.22525   0.51162883 0.0039405095 -0.010260843 -0.023780297 -0.023835093          nan    614.60099   -54422.289   -1684.3617 
     850       0.0085    291.07925   0.52842631 -0.0097171222 -0.0071000587 -0.044376041 -0.0058766491          nan    616.40949   -54422.848   -1705.3638 
     900        0.009    291.66592     0.572513 -0.0070427116 -0.0022931067 -0.023774914 -0.023830447          nan    617.65185   -54422.831   -1877.2573 
     950       0.0095    292.22403   0.60456961 -0.00020114767   0.01110411 -0.025744263 -0.0065714903          nan    618.83376   -54422.735   -2051.5752 
    1000         0.01    293.13572   0.65416354 -0.0016026163   0.02320911 -0.023747499  -0.02381228          nan    620.76442   -54423.376   -2252.5668 
    1050       0.0105    291.84075   0.65576224 0.0025683233 0.0036522525 -0.0041579155 -0.009139348          nan    618.02209   -54419.336   -2206.6094 
    1100        0.011    294.31916   0.69423781 0.0031726848 -0.021004749 -0.023739304 -0.023813136          nan    623.27055   -54423.275   -2254.6858 
    1150       0.0115    292.59037   0.73637157 -0.0091413243 0.00042324118 -0.040642148  -0.05673427          nan    619.60954   -54418.282   -2425.5116 
    1200        0.012    291.78795   0.76108396  0.015905405 0.0085335404 -0.023704498 -0.023781153          nan    617.91028   -54415.233   -2618.4097 
    1250       0.0125     292.9478   0.81005185  0.017866505 0.0098017194 -0.008887457 -0.019900787          nan    620.36646   -54416.322   -2792.4002 
    1300        0.013    292.48153   0.82594928 -0.0060929594 -0.0048545596 -0.023702408 -0.023780691          nan    619.37906   -54413.932   -2716.6725 
    1350       0.0135    295.17579   0.85286263 0.0017445942 -0.0090341867 -0.033908883 -0.022169656          nan    625.08461   -54418.216   -2818.5768 
    1400        0.014    290.53936   0.89167291 -0.014476217 -0.0069443721 -0.023685222 -0.023768219          nan    615.26618   -54406.971   -2900.8411 
    1450       0.0145    292.75065   0.92671553  0.013393384   0.02562936  0.014538061 -0.014929545          nan    619.94897   -54410.202   -3219.1276 
    1500        0.015    295.11574   0.96989265 0.00048279987  0.023647495 -0.023660708 -0.023744147          nan    624.95743   -54413.727   -3313.4098 
    1550       0.0155    293.76374   0.97325795 -0.0038135042 -0.0070834882 -0.010042938 -0.056279385          nan    622.09436    -54409.37   -3207.8699 
    1600        0.016    294.51056    1.0075178 -0.0034970989 -0.014774608 -0.023662721 -0.023750443          nan    623.67587   -54409.435   -3297.4871 
    1650       0.0165    292.00812      1.04963 0.0043973862 -0.015550221 -0.032765455 -0.032552695          nan    618.37653   -54402.592   -3461.5905 
    1700        0.017    293.66816    1.1042522  0.021356514  0.012708469 -0.023625749 -0.023714218          nan    621.89194   -54404.537   -3794.3908 
    1750       0.0175    295.88821    1.1298066  0.023811223  0.017676739 0.0066138821 -0.031576481          nan    626.59328   -54407.653   -3904.3153 
    1800        0.018    292.39151    1.1296307 -0.027610703  -0.01117653 -0.023629405 -0.023728983          nan    619.18843   -54398.622   -3636.1448 
    1850       0.0185    295.10244    1.1739436 -0.014411121 -0.0043922516 -0.0062941188 -0.012682471          nan    624.92927   -54402.728   -3850.4673 
    1900        0.019    295.40761     1.219937 -0.00089515971 0.0049399382 -0.023605548 -0.023705268          nan    625.57553   -54401.713   -4079.9394 
    1950       0.0195    296.05485    1.2531964  0.031737195  0.029788203 -0.020041032 -0.034561939          nan    626.94616   -54401.403   -4382.4061 
    2000         0.02    292.29967    1.2707487 -0.0058944393 0.0089658481 -0.023596802 -0.023696257          nan    618.99393   -54391.752    -4246.067 
    2050       0.0205    294.86035    1.3004202 -0.007174535 -0.021437563   -0.0407958 -0.021288252          nan    624.41661   -54395.438   -4239.3604 
    2100        0.021    293.44196    1.3345252 -0.0049605906 -0.011609398 -0.023582335 -0.023687131          nan    621.41292   -54390.667    -4393.184 
    2150       0.0215    295.22509    1.3737005  0.014504862   0.01637316 -0.012990253 -0.038702784          nan    625.18902   -54392.663   -4681.9283 
    2200        0.022    292.96239    1.4085809 0.0074934937 -0.00075408847 -0.023558546 -0.023663325          nan    620.39736   -54386.063   -4717.7343 
    2250       0.0225    294.40959    1.4376992 -0.0011467685 0.0083742443 -0.034748303  -0.02145244          nan    623.46205   -54387.287   -4816.4224 
    2300        0.023    293.07038    1.4550911 -0.0027791209 -0.024742373 -0.023560556  -0.02367049          nan    620.62605   -54382.596   -4758.5653 
    2350       0.0235    295.85534    1.5006025 -0.0028203207  0.010589191 -0.011712065 -0.026690992          nan    626.52367   -54386.614   -5027.9045 
    2400        0.024    295.11232    1.5295571 0.0059744581 0.0089916986 -0.023532159 -0.023642157          nan     624.9502   -54383.137   -5148.4107 
    2450       0.0245    292.74008    1.5547426 0.00016947644  0.012676118 -0.050207484 -0.035111985          nan    619.92657   -54376.189    -5225.294 
    2500        0.025    295.67897     1.587317 -0.0097979755 -0.0080624517 -0.023532255 -0.023645778          nan    626.15018    -54380.47   -5231.5219 
    2550       0.0255    297.38522    1.6332437 0.0032504987 0.00099288502 -0.031889391 -0.029700285          nan    629.76345   -54382.105   -5458.2904 
    2600        0.026    294.01209     1.655255 0.0016228928 0.0024881542 -0.023511996 -0.023622616          nan    622.62029   -54372.967     -5531.22 
    2650       0.0265    294.67979    1.6938126  0.010332482 0.0082859664 -0.016249936 -0.037087853          nan    624.03423   -54372.365   -5708.1034 
[...]
   13800        0.138    291.04478    7.7100765  0.025116864  0.020491933 -0.021647231 -0.022116974          nan     616.3365   -53360.812   -25852.284 
   13850       0.1385    291.51861    7.7382622  0.011682168  0.025944087  -0.01744733 -0.038833163          nan     617.3399   -53355.004   -25919.628 
   13900        0.139    290.29483    7.7460818 -0.023024333  -0.01759794 -0.021647067 -0.022129015          nan    614.74834   -53345.566   -25684.865 
   13950       0.1395    291.97503    7.7858493 -0.025838676 0.0052134879 -0.020020775 -0.032420157          nan    618.30647   -53342.249    -25884.08 
   14000         0.14    291.32814    7.8244783  0.019659344  0.015252095 -0.021602958 -0.022092726          nan    616.93655   -53333.989   -26197.966 
   14050       0.1405    292.00872    7.8645431  0.015198608  0.029408772 -0.025756839 -0.065653717          nan    618.37779   -53328.493   -26363.835 
   14100        0.141    289.43427    7.8265102 -0.013088092 -0.016648748  -0.02159388 -0.022085649          nan    612.92597   -53316.123   -25989.245 
   14150       0.1415    289.16031    7.8212713 -0.026198965 -0.032965605 -0.027779455 -0.014112034          nan     612.3458   -53308.634   -25873.689 
   14200        0.142    289.88201    7.8584449  0.022851299  0.019017101   -0.0215534 -0.022043109          nan    613.87413   -53303.226   -26334.378 
   14250       0.1425    291.53787    7.9204572  0.032809204  0.033112633 -0.026245565 -0.020493458          nan     617.3807   -53299.759   -26621.263 
   14300        0.143    290.38301    7.8930614 -0.0015763817 -0.020272017 -0.021546886 -0.022048148          nan    614.93509    -53290.33   -26237.377 
   14350       0.1435    289.45291    7.9110067 -0.032753643 -0.026507029 -0.0076023085 -0.022370422          nan    612.96545   -53281.372   -26172.487 
   14400        0.144    290.65541    7.9386583   0.01872612 0.0086795685 -0.021516072 -0.022011956          nan    615.51193   -53276.903   -26553.547 
   14450       0.1445    289.27663    7.9438435  0.020359268   0.02783822 -0.021423389 -0.017823208          nan    612.59214   -53266.958   -26640.137 
   14500        0.145    288.24473    7.9253352 -0.0019551395 -0.005332819 -0.021493001 -0.021990523          nan    610.40691   -53257.767   -26393.491 
   14550       0.1455     288.1228     7.937292 -0.0071436632 -0.023712615 -0.033232652 -0.00022015652          nan    610.14871   -53250.482   -26354.786 
   14600        0.146    289.73322    7.9963718 -0.008315551  0.011616432 -0.021471518 -0.021975402          nan    613.55905   -53246.832   -26665.575 
   14650       0.1465    288.35812    8.0219524  0.018720144 -0.0023470001 -0.0057856348 -0.0087750109          nan    610.64703   -53236.819   -26794.419 
   14700        0.147    289.19428    8.0323342 0.0023991844 -0.0010004881 -0.021440286 -0.021961059          nan    612.41775   -53231.497    -26779.11 
   14750       0.1475    288.15752    8.0245376 -0.019278776 -0.0085517223 -0.0040745196 -0.0087062827          nan    610.22223   -53222.191    -26655.69 
   14800        0.148    287.69309    8.0220678 -0.029001169  0.021506594 -0.021417163 -0.021928539          nan    609.23872   -53214.111   -26715.244 
   14850       0.1485    288.11223    8.0699743  0.024772955  0.012796251 -0.028793286 -0.018481839          nan    610.12632   -53207.863   -27025.145 
   14900        0.149    287.66028    8.0699985  0.013724475 -0.00075351667 -0.021386271 -0.021903485          nan    609.16925    -53199.75   -26943.231 
   14950       0.1495    286.49932    8.0552713 -0.026078246 -0.027165977 -0.038368586 -0.017620964          nan    606.71071   -53190.128   -26673.424 
   15000         0.15    288.36511    8.0436169 -0.0055405225 -0.023123398 -0.021369677 -0.021884346          nan    610.66184   -53186.944    -26716.51 
   15050       0.1505    287.84796    8.0221898  0.032074638  0.046722049 -0.042916344 -0.037232014          nan    609.56668   -53178.717   -27003.288 
   15100        0.151    289.86503     8.009349  0.022580725  0.013022977 -0.021338157 -0.021847184          nan    613.83818   -53175.875   -26816.509 
   15150       0.1515    289.78785    7.9487241 -0.018514708 -0.031619197 -0.030150737  -0.03608911          nan    613.67473   -53168.607   -26328.634 
   15200        0.152    290.31853    7.8667592 -0.016873746 -0.033512904 -0.021335263 -0.021847171          nan    614.79854   -53162.699   -26054.575 
   15250       0.1525    288.52284    7.7777716  0.018989735 0.0065869689  0.010034674 -0.028899156          nan    610.99587   -53151.958   -26011.161 
   15300        0.153    292.59979    7.6874063  0.040995206   0.05111153 -0.021277505 -0.021768977          nan    619.62949   -53153.718    -25931.71 
   15350       0.1535    293.44753    7.5105271  -0.01715212  0.010782774  -0.03101907 -0.024694358          nan    621.42472   -53148.786   -25013.859 
   15400        0.154    300.38177    7.3148832 -0.023705618  -0.03372703 -0.021299274 -0.021785494          nan    636.10915   -53156.901   -24191.502 
   15450       0.1545    303.37336     7.099078 -0.005157063 -0.022685555 -0.023313349 -0.036605868          nan    642.44434   -53156.917   -23570.784 
   15500        0.155    310.56808    6.8335628  0.028671026  0.061517304 -0.021264368 -0.021730136          nan    657.68038   -53166.129    -23079.17 
   15550       0.1555    319.07102    6.4622776 -0.017969937  0.074104983  0.014346831  0.013928627          nan    675.68679   -53178.592   -21728.042 
   15600        0.156    328.59338    6.0768926 -0.054305874 0.0032310691 -0.021334875 -0.021759052          nan    695.85201   -53193.752   -20086.059 
   15650       0.1565    339.98605    5.7091227 -0.039253418 -0.011629085 -0.025780669  0.022841548          nan     719.9779   -53213.419   -18860.801 
   15700        0.157     349.9769    5.3833154  0.014535402  0.024428597 -0.021328701 -0.021740299          nan    741.13522   -53230.814   -18074.265 
   15750       0.1575    356.34055    5.0262823  0.046377412  0.025275241 -0.024530609  -0.01101393          nan    754.61132   -53241.297   -16993.116 
   15800        0.158    363.93805    4.6373933  0.051548958 -0.025566959 -0.021385145 -0.021747533          nan    770.70031   -53255.135   -15544.584 
   15850       0.1585    369.39373    4.2720394  0.011057645  -0.04033417 -0.032260158  0.011082449          nan    782.25363   -53265.144   -14142.543 
   15900        0.159    376.31002    3.9450294  0.025588824 -0.020515676 -0.021467964 -0.021792781          nan    796.90004   -53278.787   -13167.008 
   15950       0.1595    377.48704    3.6586387  0.055163305 -0.028075241 -0.034479629   -0.0448874          nan     799.3926   -53280.681   -12285.756 
   16000         0.16    376.28538    3.3967325  0.017835897  0.040873249 -0.021521475 -0.021823613          nan    796.84787   -53277.693   -11518.139 
   16050       0.1605    381.43001    3.1451302  0.059913572  0.011176456 -0.014767484  -0.06622589          nan     807.7425   -53288.357   -10720.734 
   16100        0.161    383.02458    2.9185524 -0.015108025 -0.013841913 -0.021622575 -0.021896593          nan    811.11925    -53291.71   -9632.0082 
   16150       0.1615    382.24622    2.6707841 -0.042510109 -5.8002395e-05 -0.013440373 0.0083957417          nan    809.47096   -53290.255     -8760.72 
   16200        0.162    384.28542    2.5132043 0.0072497602  0.064284504 -0.021696097 -0.021927382          nan     813.7893   -53295.055   -8615.7952 
   16250       0.1625    387.55178    2.3624185  0.017334212   0.05188648  0.015715574 -0.044303839          nan    820.70637   -53302.835   -8105.4639 
   16300        0.163    391.04332    2.2023952 -0.0029853183  0.021283681 -0.021791855 -0.022004701          nan    828.10031   -53311.338   -7402.3119 
   16350       0.1635    393.07265    2.0627596 0.00033388423 -0.033342202  0.013402741 -0.062024347          nan    832.39776   -53316.903   -6765.8377 
   16400        0.164    392.99985     1.947482   0.01643309 -0.024855808 -0.021888631 -0.022062321          nan    832.24358   -53318.177   -6463.5308 
   16450       0.1645    397.69265    1.8597323  0.044083245  0.021783537  0.021682057 -0.012900158          nan    842.18138   -53329.736   -6418.6635 
   16500        0.165    399.56344    1.8021243  0.023002338 -0.0032643613 -0.021949584 -0.022109742          nan    846.14309   -53335.512   -6072.8742 
   16550       0.1655    398.63934    1.7065534 -0.048249614 0.0018889645  -0.03200262 -0.025739684          nan    844.18615   -53335.387   -5533.9758 
   16600        0.166    401.63186    1.6554372  0.017345694  0.015262818 -0.021998722 -0.022148441          nan    850.52331   -53343.667   -5626.8189 
   16650       0.1665    406.61402    1.6071214  0.057283454   0.04180605 -0.0055463657 0.0066999279          nan    861.07388   -53356.368   -5687.3695 
   16700        0.167    404.39975    1.5220623 -0.0071849052 -0.018915642 -0.022075479 -0.022199491          nan    856.38479   -53353.953   -4986.5392 
   16750       0.1675    407.19179    1.5265762 -0.065372073 -0.0070952308 -0.029569628 -0.050473524          nan    862.29742   -53362.136   -4847.0295 
   16800        0.168    405.66592    1.5141962 -0.005861296  0.011501671 -0.022084693 -0.022215658          nan    859.06612   -53361.272   -5066.1219 
   16850       0.1685    407.07406    1.5114259   0.02089229   0.05174981 -0.035917859 0.0097318654          nan     862.0481   -53366.675   -5280.2265 
   16900        0.169    406.63752    1.4741978 -0.015798871  0.017131132 -0.022093685 -0.022230898          nan    861.12365   -53368.237   -4918.4335 
   16950       0.1695    410.66948    1.4646052 -0.020337987  0.017340096  -0.02918996 -0.023484371          nan    869.66201   -53379.317   -4872.0243 
   17000         0.17    408.79544    1.4546807 -0.038271172 -0.001544997 -0.022120887 -0.022260413          nan    865.69342   -53377.932    -4716.215 
   17050       0.1705    411.86404    1.4204592   0.04240294 0.0035351829 -0.056392991 -0.031184552          nan    872.19168   -53387.061   -4887.9911 
   17100        0.171    411.47291    1.3799741  0.039945831 -0.014297978 -0.022122361 -0.022255147          nan     871.3634   -53388.914   -4685.4067 
   17150       0.1715     415.6465    1.4015654  0.019159239 -0.010833587 -0.018633416 -0.029243672          nan    880.20169   -53400.492   -4699.6367 
   17200        0.172    411.20364    1.4250032 0.0026900974 -0.025898047  -0.02215202 -0.022284472          nan    870.79318    -53393.82    -4672.651 
   17250       0.1725    413.48119    1.4266051 2.5208323e-05  0.013223685 -0.038669185  -0.01091368          nan    875.61629   -53401.357   -4799.5132 
   17300        0.173    415.44619    1.4285964 -0.012139911   0.07535237 -0.022146144 -0.022285129          nan    879.77749   -53408.288   -4972.6961 
   17350       0.1735    415.37694     1.413188 -0.0013389531  0.018443787 0.0036533062  0.029154017          nan    879.63085   -53410.986   -4767.6428 
   17400        0.174    414.08099    1.3238422 0.0067634716 -0.024715985 -0.022191256 -0.022319702          nan    876.88646   -53411.101   -4352.9657 
   17450       0.1745    412.73679    1.3070466  -0.02834393 -0.016673837 -0.060394192  -0.00705112          nan    874.03989   -53411.138   -4206.7626 
   17500        0.175    415.30307    1.3450921  0.018904004 -0.0022488516 -0.022184324 -0.022300651          nan    879.47443   -53419.486   -4539.1576 
   17550       0.1755    418.03187    1.3752953  0.011006198  0.025073468 0.0044161609 -0.016796578          nan    885.25312   -53428.211   -4704.5832 
   17600        0.176    414.28934    1.3249708 -0.015053991  0.041946465 -0.022183193 -0.022303098          nan    877.32768   -53423.228   -4506.2108 
   17650       0.1765    418.03552    1.3754292 -0.025543129  0.035982388 -0.020420325 -0.057313043          nan    885.26084   -53434.165   -4619.5616 
   17700        0.177     415.8377    1.3587249 0.0068948774  0.010339238 -0.022212988 -0.022325989          nan    880.60658   -53432.514     -4586.53 
   17750       0.1775    416.87175    1.3043095  0.023693682 -0.030539399  -0.03087539 -0.014835789          nan    882.79637   -53437.644   -4324.8793 
   17800        0.178    413.89216     1.291808 0.0075090475 -0.038840188 -0.022228456 -0.022343788          nan    876.48657   -53434.335   -4201.5895 
   17850       0.1785    416.72334    1.2762378  0.069559726 -0.00091387329 -0.078877236  0.026274333          nan    882.48209   -53443.399   -4482.9455 
   17900        0.179    418.12239    1.2561465  0.033608055   -0.0038504 -0.022255642 -0.022361026          nan     885.4448   -53449.512   -4286.3473 
   17950       0.1795    412.65072    1.2076882 -0.015397513 -0.055657145 -0.045787328 -0.023010092          nan    873.85763   -53441.036   -3788.7784 
   18000         0.18    413.82535    1.2302221 -0.028155016 -0.010380558  -0.02228499 -0.022393131          nan    876.34511     -53446.6   -3972.2885 
   18050       0.1805    415.34012    1.2437416 0.0036961712  0.056498841 -0.0020336798 -0.038987849          nan    879.55287   -53452.829   -4346.4552 
   18100        0.181     417.5726    1.2663258 0.00031224206  0.043030606 -0.022263566 -0.022378475          nan    884.28053   -53460.628   -4365.5622 
   18150       0.1815    411.88227    1.2645511 -0.027130796 -0.044124428 -0.019707685 -0.048365521          nan     872.2303   -53451.581   -3977.6529 
   18200        0.182    416.98469    1.2953278  0.034722518  0.049671954 -0.022255172 -0.022372701          nan    883.03554   -53465.389   -4599.0741 
   18250       0.1825    413.83739    1.2613692  0.018901034  0.050028486  -0.01997308 -0.035337061          nan     876.3706   -53461.831   -4434.3291 
   18300        0.183    417.55101    1.2296757 -0.022344408 -0.025781022 -0.022309342  -0.02241345          nan     884.2348   -53472.782    -3938.501 
   18350       0.1835    415.04557    1.1742498 -0.012003267  -0.04202506 -0.047075371 -0.027460705          nan    878.92911   -53470.543   -3734.0717 
   18400        0.184    411.66665    1.2083913 -0.0043950042  0.011989088 -0.022310782  -0.02241885          nan    871.77368   -53466.462   -4053.2846 
   18450       0.1845    416.80055    1.2153247  0.023400226  0.048485831 -0.021533807 -0.057466897          nan    882.64558   -53480.453   -4290.7024 
   18500        0.185     412.8057     1.215712 -0.032529224 -0.0080820679 -0.022334291 -0.022435347          nan    874.18582   -53475.122   -3917.0023 
   18550       0.1855    416.73391    1.2150063  0.012350915 -0.038932225 -0.012325528 -0.044779615          nan    882.50446   -53486.508   -3961.4165 
   18600        0.186    413.19957    1.2222866  0.010146899 -0.028892302 -0.022315469 -0.022427707          nan     875.0199   -53482.093   -4011.8039 
   18650       0.1865    412.71035    1.2645499  0.036487945  0.046083834 0.0036566101 -0.020415332          nan    873.98389   -53484.122   -4490.4057 
   18700        0.187     412.9248    1.2237834  0.023251994 0.00074515253 -0.022325564 -0.022432225          nan    874.43802   -53487.641   -4159.2686 
   18750       0.1875    416.64845    1.1820588 -0.028928542 0.0036902952 -0.019279126 -0.020567622          nan    882.32349   -53498.627   -3856.0684 
   18800        0.188    412.10646    1.1729937 -0.082810006  0.019922057 -0.022366689 -0.022471392          nan    872.70506   -53492.078   -3700.3526 
   18850       0.1885    412.66012     1.209767 -0.012608752  0.032322633 -0.040480524 -0.060009352          nan    873.87753   -53496.361   -4098.2697 
   18900        0.189    413.23056    1.2489481  0.032566484  0.039609264 -0.022327855 -0.022432478          nan    875.08552   -53500.619   -4403.7462 
   18950       0.1895    412.98537    1.2329792  0.033395257  0.005880248 -0.046706938 -0.022171061          nan    874.56629   -53503.143    -4240.849 
   19000         0.19    410.87349    1.2183578 0.0097882894 -0.071825932 -0.022364905 -0.022475259          nan    870.09403   -53501.618   -3854.4007 
   19050       0.1905    412.86009    1.2299516  0.034236549 -0.058206995 -0.023165964 -0.026941947          nan    874.30099   -53508.831   -4019.9372 
   19100        0.191    412.05642    1.2359775  0.047758375 -0.010296066 -0.022343182 -0.022439551          nan    872.59909   -53510.186   -4244.7993 
   19150       0.1915    408.84981    1.2473024 0.0090387394   0.05732094 0.0051394112 -0.0094137523          nan    865.80855   -53506.365   -4378.8737 
   19200        0.192    411.45511    1.2649385 -0.00020249289  0.008627884 -0.022359194 -0.022455245          nan     871.3257   -53514.871   -4244.5461 
   19250       0.1925    409.50181    1.2425237 -0.0021758851 -0.022742586 -0.031568015 -0.035679618          nan    867.18926   -53513.669    -4058.684 
   19300        0.193    409.68344    1.2622841 -0.028557543 -0.020079886  -0.02238651 -0.022498425          nan     867.5739   -53516.985   -4045.4888 
   19350       0.1935    407.70952    1.2682982 -0.014618188 0.0098163216 -0.0025125702 -0.0006903313          nan     863.3938   -53515.698   -4211.6546 
   19400        0.194    407.39248    1.2615625  0.041215451  0.038150602 -0.022354344 -0.022467603          nan     862.7224    -53517.89   -4469.7617 
   19450       0.1945    408.35015    1.2326108  0.032621389  0.030391502 -0.035674274 -0.018337539          nan    864.75043   -53522.831   -4318.7455 
   19500        0.195    407.92211    1.2065539 -0.022165338 -0.032424793 -0.022413654 -0.022520509          nan    863.84399   -53524.819   -3839.8791 
   19550       0.1955    408.80895    1.1814437 -0.033884883 -0.014811411 -0.044898414   -0.0502107          nan    865.72203   -53529.593   -3775.8246 
   19600        0.196    407.01234    1.2287206 -0.013658142 0.0076738521  -0.02241122 -0.022513033          nan     861.9174   -53528.677   -4075.7878 
   19650       0.1965    410.01174    1.2133665  0.037341876   0.09712877 0.0010103927 0.0076377833          nan    868.26914   -53537.967   -4492.7906 
   19700        0.197    407.69594    1.1778383 -0.031116004 0.0010701848 -0.022433481 -0.022530419          nan    863.36503    -53536.07   -3825.9751 
   19750       0.1975    407.83932    1.1211602 -0.034247343 -0.046470917  0.002863855 -0.0085838188          nan    863.66866   -53539.289   -3468.1397 
   19800        0.198      410.608    1.1616433  0.022851323 -0.044943985 -0.022428892 -0.022531972          nan    869.53182   -53548.051   -3798.5022 
   19850       0.1985    408.75353    1.1689764   0.09129606   0.03372633  -0.01409087 -0.042583768          nan    865.60465   -53547.041   -4313.3294 
   19900        0.199    406.73166    1.1636202  0.038160413 0.0013311429 -0.022420833 -0.022513967          nan      861.323   -53545.692   -4010.3726 
   19950       0.1995    406.42809    1.1424564 -0.042039569 -0.0059842948 -0.019806165 -0.041157765          nan    860.68014   -53547.946   -3648.1086 
   20000          0.2    407.29258    1.1308292 -0.059480826 0.0064373617  -0.02244508 -0.022557647          nan    862.51085   -53552.629   -3592.6193 
Loop time of 4057.33 on 4 procs for 20000 steps with 16384 atoms

Pair  time (%) = 3809.08 (93.8816)
Neigh time (%) = 2.66791 (0.0657553)
Comm  time (%) = 126.869 (3.1269)
Outpt time (%) = 0.565923 (0.0139482)
Other time (%) = 118.141 (2.91179)

Nlocal:    4096 ave 4146 max 4009 min
Histogram: 1 0 0 0 0 0 0 1 1 1
Nghost:    7414.25 ave 7456 max 7392 min
Histogram: 1 1 1 0 0 0 0 0 0 1
Neighs:    282154 ave 286620 max 275810 min
Histogram: 1 0 0 0 0 1 0 0 1 1
FullNghs:  0 ave 0 max 0 min
Histogram: 4 0 0 0 0 0 0 0 0 0

Total # of neighbors = 1128617
Ave neighs/atom = 68.8853
Neighbor list builds = 121
Dangerous builds = 0

######################################
# SIMULATION DONE
print "All done"
All done
