
# ----------------------- ATOM DEFINITION ----------------------------
lattice		fcc ${latparam}
lattice		fcc 4.05
Lattice spacing in x,y,z = 4.05 4.05 4.05
region		whole block 0 10 0 10 0 10
create_box	1 whole
Created orthogonal box = (0 0 0) to (40.5 40.5 40.5)
  1 by 2 by 2 MPI processor grid
lattice 	fcc ${latparam} orient x 1 0 0 orient y 0 1 0 orient z 0 0 1
lattice 	fcc 4.05 orient x 1 0 0 orient y 0 1 0 orient z 0 0 1
Lattice spacing in x,y,z = 4.05 4.05 4.05
create_atoms	1 region whole
Created 4000 atoms

# ------------------------ FORCE FIELDS ------------------------------

#****************USE THIS TO TEST******************
pair_style	eam/rad
pair_coeff	* * Al99.eam.alloy.rad_NULL Al

# to test with error = 0 use this potential
# pair_coeff	* * Al99.eam.alloy.rad_NULL_noerror Al




#****************USE THIS TO RUN REFRENCE***********
# pair_style	eam/alloy
# pair_coeff	* * Al99.eam.alloy Al

# ------------------------- SETTINGS ---------------------------------
compute csym all centro/atom fcc
compute peratom all pe/atom

######################################
# EQUILIBRATION
reset_timestep	0
timestep 0.0001
velocity all create 300 12345 mom yes rot no
fix 1 all npt temp 300 300 1 iso 0 0 1 drag 1

# Set thermo output
thermo 500
thermo_style custom step lx ly lz press pxx pyy pzz pe temp

# Run for at least 10 picosecond (assuming 1 fs timestep)
run 200000
Memory usage per processor = 4.63763 Mbytes
Step Lx Ly Lz Press Pxx Pyy Pzz PotEng Temp 
       0         40.5         40.5         40.5    2496.1233    2446.9902    2534.6541    2506.7256       -13440          300 
     500    40.561098    40.561098    40.561098    906.77516    836.45643    945.74099    938.12806   -13338.832    103.24399 
    1000    40.636823    40.636823    40.636823   -4609.4391   -4604.0857   -4631.3234   -4592.9084    -13373.54    171.77593 
    1500    40.566295    40.566295    40.566295    548.09417    513.01844    625.64602    505.61804   -13348.926    124.12542 
    2000    40.511715    40.511715    40.511715    3546.0038    3641.9683    3484.7204    3511.3226   -13355.252    137.90841 
    2500    40.565834    40.565834    40.565834    162.18495    85.921263    213.22952    187.40406   -13359.546    146.74864 
    3000    40.611201    40.611201    40.611201   -2466.4149   -2412.7541   -2483.5891   -2502.9017    -13360.16    149.24923 
    3500    40.571253    40.571253    40.571253   -403.90484    -478.0532   -341.88331   -391.77801   -13367.375    163.78514 
    4000    40.532292    40.532292    40.532292    2225.2046    2279.2435     2296.533    2099.8372   -13359.878    150.40282 
    4500    40.566104    40.566104    40.566104   -2.8382727   -45.039183   -36.693831    73.218195   -13363.108    157.36705 
    5000    40.595938    40.595938    40.595938   -1610.8073   -1654.7095   -1478.8856   -1698.8267    -13359.43    151.32361 
    5500    40.570744    40.570744    40.570744   -157.10141   -145.16104   -162.49363   -163.64955   -13360.772    154.77099 
    6000    40.545071    40.545071    40.545071    1385.6482    1414.0586    1432.7986    1310.0875   -13361.946    158.16814 
    6500    40.566293    40.566293    40.566293    207.36317    178.84303    240.45303    202.79344    -13358.14    151.75767 
    7000    40.589977    40.589977    40.589977   -1217.5214   -1343.1583   -1126.7633   -1182.6427   -13360.239    156.94402 
    7500    40.572832    40.572832    40.572832   -245.47718   -281.37675   -258.15329   -196.90149    -13360.56    158.56653 
    8000    40.551332    40.551332    40.551332    1208.4189    1078.1887    1321.7597    1225.3084   -13357.206    153.23968 
    8500    40.567702    40.567702    40.567702     30.90663    22.376461    90.614635   -20.271206   -13362.205      163.935 
    9000    40.586545    40.586545    40.586545   -905.28779   -936.18894   -839.32669   -940.34775    -13360.51    161.79196 
    9500    40.575584    40.575584    40.575584    -236.7297   -252.63457   -186.41069   -271.14385   -13355.054    152.28375 
   10000    40.557598    40.557598    40.557598    866.09909    854.45724    838.58138    905.25867    -13361.15    165.23237 
   10500    40.567407    40.567407    40.567407    291.64178    228.20431    408.27153     238.4495   -13352.974    150.47289 
   11000    40.584428    40.584428    40.584428    -762.9379   -854.35772   -675.36187    -759.0941   -13360.499    166.17918 
   11500    40.575885    40.575885    40.575885   -137.99688   -197.62184   -25.421958   -190.94684   -13353.788    154.29244 
   12000    40.562368    40.562368    40.562368    595.03756    540.61942    625.08125    619.41201    -13359.88    167.22636 
   12500    40.569465    40.569465    40.569465    162.23684    88.009097    245.75543      152.946   -13356.047    160.90907 
   13000    40.581892    40.581892    40.581892   -561.26597   -582.46218   -451.33777   -649.99797   -13357.622    165.08952 
   13500    40.575855    40.575855    40.575855   -183.17761   -335.70053   -115.36687   -98.465441   -13356.845    164.70763 
   14000    40.566087    40.566087    40.566087    567.48699    500.87857    642.73892    558.84349   -13354.414    161.14278 
   14500    40.573036    40.573036    40.573036   -12.942042   -58.500099     -13.7049    33.378872   -13356.782    166.84705 
   15000    40.579789    40.579789    40.579789   -268.79344   -334.28279   -176.87804    -295.2195   -13353.716    162.06853 
   15500    40.576743    40.576743    40.576743   -216.24439   -330.30497   -203.68264   -114.74556   -13357.351    170.22413 
   16000    40.568983    40.568983    40.568983    378.89706    359.43393     459.8812    317.37605   -13352.729     162.4234 
   16500    40.573373    40.573373    40.573373    118.06727    62.247824    158.16469    133.78928   -13355.423    168.76263 
   17000    40.580698    40.580698    40.580698   -352.57009   -406.11571   -357.90176   -293.69279   -13352.218    163.72181 
   17500    40.576762    40.576762    40.576762   -27.344014   -45.617086   -58.574559    22.159604   -13355.558    171.29949 
   18000    40.570659    40.570659    40.570659    304.18334    206.22686     337.5685    368.75465   -13351.283    164.19203 
   18500    40.573864    40.573864    40.573864    237.52138    156.52571    287.59895    268.43947   -13352.037    166.78028 
   19000    40.582521    40.582521    40.582521     -410.125   -518.42594    -373.7707   -338.17836   -13355.928    175.46771 
   19500     40.57896     40.57896     40.57896   -117.41256   -75.336393    -76.15635   -200.74493   -13350.052    165.22184 
   20000    40.571472    40.571472    40.571472    263.68228    198.98756    290.39921    301.66006   -13356.452    178.76413 
   20500    40.574173    40.574173    40.574173    289.38041    437.48306    281.57936    149.07883   -13349.032    165.54221 
   21000    40.583712    40.583712    40.583712   -351.37512    -573.8388   -280.36444   -199.92213   -13352.863    174.11684 
   21500    40.580826    40.580826    40.580826   -113.45786   -182.81814   -81.681554   -75.873885   -13348.389    166.59441 
   22000    40.573191    40.573191    40.573191    267.43653    328.22335    145.66501    328.42124   -13352.411    175.52058 
   22500    40.574855    40.574855    40.574855    147.94942      248.947    165.50276    29.398497   -13352.033    175.95348 
   23000    40.582512    40.582512    40.582512   -230.17504   -263.06812    -227.7881   -199.66891   -13351.106    175.29311 
   23500    40.582406    40.582406    40.582406   -258.21768   -226.10116   -219.93762   -328.61426   -13351.028    176.30291 
   24000    40.575081    40.575081    40.575081    307.05417    321.20968    231.72815    368.22469   -13348.886    173.30398 
   24500    40.576071    40.576071    40.576071    112.59835   -53.135656    229.10866    161.82205   -13349.822    176.27332 
   25000    40.581982    40.581982    40.581982    -86.09201   -222.71104   -51.455429    15.890434   -13348.607    175.05355 
   25500    40.583805    40.583805    40.583805   -277.63756   -327.12215   -347.88313    -157.9074   -13350.812    180.48596 
   26000    40.577165    40.577165    40.577165    318.18825    233.01587    394.71945    326.82942    -13345.74    171.83191 
   26500    40.578961    40.578961    40.578961    10.553795    142.57261   -48.190998    -62.72023   -13350.943    183.03506 
   27000    40.583526    40.583526    40.583526   -175.60459    -295.1484   -112.80555   -118.85982   -13346.819    176.21295 
   27500    40.582412    40.582412    40.582412   -36.603587   -62.013011    -83.30579    35.508041   -13348.687    180.97312 
   28000     40.57866     40.57866     40.57866    109.09718   -19.341039    191.65192    154.98065   -13346.438    177.78647 
   28500    40.579343    40.579343    40.579343    122.89888    80.536321    122.16103     165.9993   -13349.604    185.05763 
   29000    40.584647    40.584647    40.584647   -70.715975    -152.8541   -35.814798   -23.479023   -13345.855     178.9513 
   29500    40.585303    40.585303    40.585303   -181.48202   -153.52915   -311.89423   -79.022674   -13345.565    179.55817 
   30000    40.580352    40.580352    40.580352     103.9128    18.584042    201.00006    92.154296   -13350.038    189.36327 
   30500    40.580528    40.580528    40.580528    60.653543    42.995505    18.401703    120.56342   -13345.224    181.18817 
   31000    40.584716    40.584716    40.584716   -108.54512   -224.37066   -59.891568   -41.373123   -13347.465    186.68175 
   31500    40.585797    40.585797    40.585797   -136.77082   -190.22847   -99.193051   -120.89095   -13344.309    181.71488 
   32000    40.582769    40.582769    40.582769    58.961509   -23.117034     85.16502    114.83654   -13346.792    187.69134 
   32500    40.582893    40.582893    40.582893    202.15024    153.15709    136.91183     316.3818   -13343.916    183.27067 
   33000    40.587589    40.587589    40.587589   -212.19933   -374.16341   -90.286178    -172.1484   -13345.087    186.69072 
   33500    40.586519    40.586519    40.586519   -7.0772894   -67.493183   -15.840253    62.101568   -13343.469    184.71656 
   34000    40.584787    40.584787    40.584787   -4.4620849   -169.49012    46.795355    109.30851   -13346.399     191.5306 
   34500    40.585461    40.585461    40.585461    8.7955793   -98.677387    70.656059    54.408066   -13344.042    188.12232 
   35000    40.587705    40.587705    40.587705   -73.817742   -199.11806    -61.69962    39.364454   -13344.637    190.42464 
   35500    40.586912    40.586912    40.586912   -55.073371    -68.51281    8.1754254   -104.88273   -13342.522    187.48843 
   36000    40.585129    40.585129    40.585129    112.76154    100.58716    60.940056    176.75742   -13342.397    188.38599 
   36500    40.586893    40.586893    40.586893   -5.5089483   -15.233946   -46.431466    45.138567    -13342.05    188.86018 
   37000    40.588504    40.588504    40.588504   -28.659998   -84.882038   -13.924736    12.826778    -13342.54    190.97298 
   37500    40.588316    40.588316    40.588316   -2.3549469     47.85914   -52.011181   -2.9127998   -13342.319     191.6949 
   38000    40.587478    40.587478    40.587478    23.766889   -93.987164    159.96242    5.3254145   -13342.324    192.85768 
   38500    40.588175    40.588175    40.588175    103.99065    51.319253    76.122712    184.52999   -13339.399    188.32796 
   39000    40.590078    40.590078    40.590078   -63.774214    39.147942   -164.99195   -65.478634   -13340.296     191.2239 
   39500    40.589007    40.589007    40.589007    28.562467   -116.64728    115.93167    86.403007   -13340.507    192.77526 
   40000    40.588103    40.588103    40.588103    64.452144    20.841501    38.252068    134.26286   -13340.507    193.92259 
   40500    40.589285    40.589285    40.589285    48.426083    22.233816    43.493484    79.550949   -13339.303     192.7413 
   41000    40.591446    40.591446    40.591446   -70.931982   -83.611584   -72.096115   -57.088247       -13343     201.0478 
   41500    40.591131    40.591131    40.591131   -56.556235   -167.00444   -20.966483    18.302212   -13338.543    193.55857 
   42000    40.589373    40.589373    40.589373    126.52223     102.8704    29.359871    247.33642   -13337.122    191.94871 
   42500    40.590371    40.590371    40.590371   -8.4298909   -98.198149    68.696156    4.2123202   -13339.902    198.47448 
   43000    40.592313    40.592313    40.592313    -100.0116   -135.58847   -93.979948    -70.46639   -13339.742    199.30622 
   43500    40.591412    40.591412    40.591412    30.464824   -17.606896    117.66332   -8.6619531   -13337.257    195.64196 
   44000    40.590829    40.590829    40.590829    7.9030476   -66.931535    34.226285    56.414393   -13340.083    202.25358 
   44500    40.592109    40.592109    40.592109   -1.9321405    29.806781   -32.087686   -3.5155164    -13337.88    199.12882 
   45000    40.593636    40.593636    40.593636   -65.471913    35.538074   -95.208843   -136.74497   -13337.412    199.35664 
   45500    40.592326    40.592326    40.592326    -64.01451   -161.12696   -85.230217    54.313651   -13338.223    202.06994 
   46000    40.590237    40.590237    40.590237    252.63633    326.14319    285.34402    146.42179   -13335.456    197.84637 
   46500     40.59429     40.59429     40.59429   -36.701069   -46.088395    9.4105625   -73.425375   -13336.289    200.59774 
   47000    40.596268    40.596268    40.596268   -163.17252    -163.0085   -176.24905      -150.26   -13336.203    201.56803 
   47500    40.592899    40.592899    40.592899    72.663336    99.546996     218.1304   -99.687382     -13336.7    203.66139 
   48000    40.592202    40.592202    40.592202    96.299035    180.31188   -84.887072     193.4723   -13336.604    204.60784 
   48500    40.595438    40.595438    40.595438     3.682791    -109.3122    58.362896    61.997677   -13334.993    202.62378 
   49000    40.597371    40.597371    40.597371    -205.8684   -38.657519   -232.60186   -346.34583   -13335.653    205.03231 
   49500    40.592938    40.592938    40.592938     159.1172    78.286272    151.98728    247.07806   -13333.563    202.11956 
   50000    40.593044    40.593044    40.593044    184.24708    266.69109    243.86373    42.186406     -13334.3    204.66724 
   50500    40.598507    40.598507    40.598507   -115.48931   -165.68062     -169.144   -11.643314   -13334.007    205.22459 
   51000    40.598775    40.598775    40.598775   -112.55248   -10.216823   -166.54143    -160.8992   -13332.532    203.50334 
   51500    40.594239    40.594239    40.594239    95.864495     102.7298    88.521101    96.342586   -13335.024    209.44441 
   52000    40.594017    40.594017    40.594017    199.01619    275.20656     225.6419    96.200117   -13334.984    210.48897 
   52500    40.599475    40.599475    40.599475   -90.372528   -116.85355   -109.87294   -44.391102   -13330.282    202.52058 
   53000    40.599852    40.599852    40.599852   -144.72131    -138.1258   -210.06305   -85.975073   -13332.968    208.83225 
   53500    40.595166    40.595166    40.595166    225.07257    260.33075    323.49893    91.388016     -13332.1    208.27458 
   54000    40.596141    40.596141    40.596141    152.51761    179.84114    166.35035    111.36135   -13331.567     208.3587 
   54500    40.601188    40.601188    40.601188   -141.11856   -288.70725   -33.246881   -101.40154   -13331.044    208.45657 
   55000    40.601208    40.601208    40.601208   -226.00703   -159.50684   -298.40453   -220.10971   -13333.507    214.33588 
   55500     40.59558     40.59558     40.59558    183.09732    236.03178    222.49341    90.766781   -13332.658    213.80896 
   56000    40.596428    40.596428    40.596428    161.34438    98.051536    130.46768    255.51392   -13330.984    211.67962 
   56500    40.602112    40.602112    40.602112   -123.90152   -164.97192   -124.97583   -81.756818   -13328.975    208.90083 
   57000    40.602036    40.602036    40.602036   -130.41021   -146.83079   -92.553671   -151.84617   -13331.017    213.96133 
   57500    40.597287    40.597287    40.597287    252.36981    132.27353    259.98848    364.84743   -13329.362    211.86334 
   58000    40.598966    40.598966    40.598966    80.998124    69.207429    218.03954   -44.252594   -13329.577    213.38742 
   58500    40.603222    40.603222    40.603222   -210.14442    -203.8236   -198.55791   -228.05176   -13331.071    217.38324 
   59000    40.602445    40.602445    40.602445   -124.60975   -244.95767   -15.894616   -112.97698   -13329.453     215.3367 
   59500    40.598352    40.598352    40.598352    259.66148    270.63432    354.72941     153.6207   -13327.655    212.96552 
   60000    40.600163    40.600163    40.600163    89.156569    104.00023   -15.604882    179.07436   -13327.356    213.47909 
   60500    40.603847    40.603847    40.603847   -154.19752   -204.42481   -74.185482   -183.98228   -13330.286    220.25523 
   61000    40.602324    40.602324    40.602324   -29.589148    22.002389   -128.73393    17.964097   -13327.696    216.33417 
   61500    40.599956    40.599956    40.599956    94.243899   -53.064211    206.50727    129.28864   -13329.991    221.86194 
   62000    40.601858    40.601858    40.601858    20.069779    22.166861    67.952278   -29.909802   -13326.597     216.3796 
   62500    40.604771    40.604771    40.604771    -125.1019   -79.426438   -226.47944   -69.399808   -13327.329    218.88113 
   63000     40.60321     40.60321     40.60321    35.971326   -75.235482    206.28141   -23.131946   -13327.416    220.14256 
   63500    40.602269    40.602269    40.602269    54.942715    168.66424   -60.423836    56.587739    -13327.89    222.14484 
   64000    40.604366    40.604366    40.604366   -54.808559    -242.5292    80.560266   -2.4567376    -13327.22    221.92536 
   64500    40.605274    40.605274    40.605274      -106.84    -26.27679    -198.5216   -95.721602   -13326.964     222.5095 
   65000    40.603779    40.603779    40.603779    42.239201   -146.95547   -24.835184    298.50825   -13326.784    223.23127 
   65500    40.603801    40.603801    40.603801    25.820983    27.332078    86.431253   -36.300381   -13324.661    220.19436 
   66000    40.605413    40.605413    40.605413    37.911772   -31.166859    31.801686    113.10049   -13325.189    222.29379 
   66500    40.606516    40.606516    40.606516    21.451193   -45.301883    283.01264   -173.35718   -13323.358    219.82626 
   67000    40.605871    40.605871    40.605871   -3.5670769   -37.336369   -9.3255873    35.960725   -13325.573    225.18183 
   67500    40.605001    40.605001    40.605001    113.66063    4.8394482    114.51318    221.62926   -13324.805    224.76263 
   68000    40.606309    40.606309    40.606309   -97.459541   -124.40755   -50.776364   -117.19471   -13324.698    225.61236 
   68500    40.606918    40.606918    40.606918   -131.05414   -175.44268   -114.49119   -103.22856   -13327.339    231.77683 
   69000    40.606436    40.606436    40.606436    42.245841   -40.976609    148.16919    19.544945   -13323.797    225.98345 
   69500    40.607044    40.607044    40.607044   -33.983682   -61.211178   -95.379296    54.639429   -13326.004    231.32012 
   70000    40.607787    40.607787    40.607787    -24.55325   -31.748694     69.92722   -111.83828   -13321.848    224.32651 
   70500    40.608356    40.608356    40.608356   -89.386446   -66.658248   -85.320233   -116.18086    -13324.27    230.05495 
   71000    40.607498    40.607498    40.607498    2.0383706   -17.427381    56.584726   -33.042233   -13323.255    229.14236 
   71500    40.607784    40.607784    40.607784    19.891303    44.308399    -55.32794     70.69345   -13323.211    230.10582 
   72000    40.609473    40.609473    40.609473   -74.819173   -98.287801    9.5768194   -135.74654   -13323.453    231.61907 
   72500    40.609898    40.609898    40.609898    51.850516   -2.9037087    79.652177     78.80308   -13321.176    228.25638 
   73000    40.609506    40.609506    40.609506   -68.839292    -12.02841   -174.27458   -20.214888   -13321.838    230.57006 
   73500    40.608231    40.608231    40.608231    150.90192    119.03333      190.009    143.66343   -13319.857    227.77146 
   74000    40.610737    40.610737    40.610737   -44.864717   -33.953025   -63.644119   -36.997006   -13321.512    232.00517 
   74500    40.612162    40.612162    40.612162   -121.13736   -223.96815   -31.251156   -108.19278   -13322.867    235.65415 
   75000    40.610078    40.610078    40.610078    1.4629104   -88.895235    13.372087    79.911879   -13321.109     233.2879 
   75500    40.608575    40.608575    40.608575    220.35963    155.03397    268.48281    237.56212   -13319.645    231.47124 
   76000    40.612351    40.612351    40.612351   -49.752407   -71.290904    8.2696199   -86.235935   -13319.715    232.63378 
   76500    40.614032    40.614032    40.614032    13.108862    -65.63652    132.26883   -27.305722   -13317.301    228.97498 
   77000    40.612352    40.612352    40.612352   -100.44242    -61.41048   -142.46058   -97.456198   -13319.648    234.53557 
   77500    40.607998    40.607998    40.607998    193.11825    190.17232    245.12715    144.05527   -13320.554    237.30813 
   78000    40.611197    40.611197    40.611197     10.22529    76.168398   -58.289605    12.797077   -13320.149    237.52424 
   78500    40.615782    40.615782    40.615782   -193.63454   -135.25767   -158.51389   -287.13207   -13317.069     232.5696 
   79000    40.614071    40.614071    40.614071   -64.467761   -181.27976    -45.49368    33.370157   -13319.701    238.66513 
   79500     40.61053     40.61053     40.61053    57.763121    91.009663    131.89626   -49.616563   -13320.543    241.30246 
   80000    40.612338    40.612338    40.612338    62.951535    46.161684    110.81832    31.874603   -13317.973    237.31536 
   80500    40.616702    40.616702    40.616702   -198.42993   -219.96857   -264.84661   -110.47462   -13317.468    237.34646 
   81000    40.613951    40.613951    40.613951   -35.881049   -75.885894    8.4901702   -40.247422   -13318.917    241.14127 
   81500    40.611044    40.611044    40.611044    233.43248    251.06148    199.05994    250.17602   -13316.464     237.3766 
   82000    40.615491    40.615491    40.615491    -70.48259   -139.90762    128.35853   -199.89868    -13318.24    241.80147 
   82500    40.618044    40.618044    40.618044   -96.334276    34.537034   -160.89568   -162.64418   -13314.285    235.12718 
   83000    40.615064    40.615064    40.615064     19.85686   -157.06332    201.43741    15.196491   -13316.301    240.00475 
   83500     40.61192     40.61192     40.61192    173.71983    260.61846     145.3469    115.19412   -13316.526    241.41897 
   84000    40.614338    40.614338    40.614338    149.92296     4.850016    149.05555    295.86333   -13313.477    236.49392 
   84500    40.618977    40.618977    40.618977   -287.38073   -228.55638   -181.49806   -452.08776   -13317.832    245.88949 
   85000    40.615714    40.615714    40.615714   -28.998577   -64.464375   -103.15742    80.626063   -13315.467    242.27775 
   85500    40.611917    40.611917    40.611917    272.70458    263.37406    328.09776    226.64192   -13315.205    242.74153 
   86000    40.616483    40.616483    40.616483    -135.8117   -293.03988    42.078433   -156.47365   -13316.944    247.06061 
   86500    40.619417    40.619417    40.619417   -72.026388    -191.3737   -25.698609   0.99314682   -13313.867    242.06552 
   87000    40.618578    40.618578    40.618578   -118.82834     -48.9673   -85.217099   -222.30063   -13314.733     244.6881 
   87500    40.615359    40.615359    40.615359    178.37778    19.758297    265.94878    249.42627    -13312.82    241.94074 
   88000    40.615687    40.615687    40.615687    49.935504    53.979248    81.376943    14.450322   -13313.949    245.07664 
   88500    40.617856    40.617856    40.617856   -34.348954   -24.254693    12.197564   -90.989733   -13314.425     246.9346 
   89000    40.618989    40.618989    40.618989   -205.85702   -77.978249   -284.70093   -254.89188   -13315.552    250.05809 
   89500    40.616615    40.616615    40.616615    115.28196    17.059323    215.98778    112.79879   -13312.259    244.61761 
   90000    40.617915    40.617915    40.617915   -1.9153163   -92.257697    104.06952   -17.557771   -13316.015     252.8234 
   90500    40.620161    40.620161    40.620161   -39.934805    35.892068   -86.224212    -69.47227   -13311.317    244.65389 
   91000    40.620203    40.620203    40.620203   -55.461538   -168.74539   -37.094462    39.455239   -13312.265    247.41572 
   91500    40.617528    40.617528    40.617528    154.34769    230.93122     103.4363    128.67554   -13310.102     244.1529 
   92000    40.617607    40.617607    40.617607    75.594972    48.268442    44.206624    134.30985   -13311.793    248.34751 
   92500    40.619665    40.619665    40.619665   -84.628892   -150.02583   -70.408918   -33.451929   -13311.326     248.3563 
   93000     40.61965     40.61965     40.61965    106.53611    113.94499    19.039276    186.62405   -13311.925     250.4315 
   93500     40.62049     40.62049     40.62049   -18.046745   -204.52466     53.46253    96.921893   -13310.966    249.47241 
   94000    40.621468    40.621468    40.621468   -94.373303    58.250631   -288.27048   -53.100058   -13310.921     250.2859 
   94500    40.620868    40.620868    40.620868    112.52781    20.734401    158.11224    158.73679    -13308.72    246.92451 
   95000    40.621566    40.621566    40.621566   -92.526204    -107.2435   -187.95642    17.621306   -13312.455     255.0527 
   95500    40.620842    40.620842    40.620842    82.710561   -76.254243    170.00257    154.38335   -13310.803     252.7598 
   96000    40.622857    40.622857    40.622857   -87.749786   -46.505274   -60.133757   -156.61033   -13310.941     253.9054 
   96500    40.623733    40.623733    40.623733   -96.742882   -116.81289   -139.41308   -34.002672   -13309.947    252.87323 
   97000    40.621986    40.621986    40.621986    9.4430273   -124.56547    182.79662   -29.902067   -13311.133     256.0486 
   97500    40.621438    40.621438    40.621438    77.430147    70.131089    26.425617    135.73374   -13309.042    252.88058 
   98000    40.623433    40.623433    40.623433    28.700714   -261.61796    207.01287    140.70724   -13308.939     253.5506 
   98500    40.625164    40.625164    40.625164   -217.24851   -223.30673   -329.09678   -99.342009   -13311.073     258.5498 
   99000    40.622414    40.622414    40.622414    133.75743     114.5025    188.76305    98.006752   -13307.297    252.10216 
   99500    40.623251    40.623251    40.623251    3.4732885    62.474248   -154.77747    102.72309    -13310.52    259.20195 
  100000    40.625845    40.625845    40.625845   -36.019294   -30.605971    46.966943   -124.41885   -13306.203    251.70776 
  100500    40.625701    40.625701    40.625701   -119.06837   -279.54726   -96.443165    18.785304   -13309.055    258.08475 
  101000    40.621782    40.621782    40.621782    188.86302     13.21029     498.8742    54.504569   -13308.297     257.4673 
  101500    40.623795    40.623795    40.623795    163.32574     71.60396    51.454794    366.91847   -13305.819    253.51801 
  102000    40.628936    40.628936    40.628936   -254.29083   -506.47458   -153.17496   -103.22296   -13308.535    259.61274 
  102500    40.626409    40.626409    40.626409    126.90111    304.13093   -15.963063    92.535457   -13304.035    251.73995 
  103000    40.624335    40.624335    40.624335   -51.491157   -102.77861   -67.129656    15.434798   -13309.195    262.56006 
  103500    40.623355    40.623355    40.623355     188.2911    221.39059    263.73825    79.744466     -13305.4    256.04809 
  104000    40.626877    40.626877    40.626877   -203.79253   -220.99982   -233.84611   -156.53166   -13309.269    264.36812 
  104500    40.627038    40.627038    40.627038   -27.607961   -125.02254    88.924111   -46.725459   -13305.873    258.61193 
  105000    40.626017    40.626017    40.626017    -11.85288   -77.836567   -93.859052    136.13698   -13306.827    261.27254 
  105500    40.625305    40.625305    40.625305    137.54799    145.25878    322.65121   -55.266004    -13304.63    257.83645 
  106000     40.62812     40.62812     40.62812   -7.0189348    74.658505   -28.363643   -67.351666   -13304.915    259.19467 
  106500    40.629641    40.629641    40.629641   -88.207153    22.463582   -91.291112   -195.79393   -13304.709    259.60653 
  107000    40.627197    40.627197    40.627197    29.499246   -43.120545    146.82499   -15.206701   -13306.061     263.0274 
  107500    40.625524    40.625524    40.625524    103.70897     136.6915     163.5958    10.839594   -13304.886    261.54945 
  108000    40.628552    40.628552    40.628552   -36.396885   -211.07712   -22.779741    124.66621   -13305.299    263.12952 
  108500    40.630257    40.630257    40.630257   -222.28353   -356.60254   -115.93974    -194.3083   -13305.902    265.09473 
  109000    40.625949    40.625949    40.625949    138.22626     68.15195    131.03232     215.4945   -13303.903    262.01036 
  109500    40.625714    40.625714    40.625714    164.13943    360.73894    40.106514    91.572833   -13304.369    263.69359 
  110000    40.629353    40.629353    40.629353  -0.79295358    -273.2925    125.44132    145.47232   -13303.055    261.93087 
  110500    40.631158    40.631158    40.631158   -231.04026   -416.36828   -177.01968   -99.732821   -13305.712    267.83969 
  111000    40.628408    40.628408    40.628408   -20.792943   -50.598377   -21.737422     9.956969   -13304.528    266.31318 
  111500     40.62664     40.62664     40.62664    56.092393   -23.984589    183.30925    8.9525221   -13304.425    266.88272 
  112000    40.628662    40.628662    40.628662     85.40495   -8.6765587   -29.033285    293.92469   -13302.582    264.07188 
  112500    40.631347    40.631347    40.631347   -207.47542   -337.59303    -199.8704   -84.962827   -13303.406    266.42712 
  113000    40.627965    40.627965    40.627965     153.7881    324.52061     42.52364    94.320031   -13301.509    263.50645 
  113500    40.627518    40.627518    40.627518    126.36468    42.759031     147.2257     189.1093   -13302.544    266.25648 
  114000    40.631032    40.631032    40.631032   -68.221477   -175.02318   -27.423937   -2.2173174   -13301.953    265.85184 
  114500     40.63239     40.63239     40.63239   -28.854779   -128.43589   -48.824283    90.695834   -13300.835    264.43079 
  115000    40.630675    40.630675    40.630675   -9.3451646     -177.082    38.054708     110.9918   -13301.851    267.13279 
  115500    40.628826    40.628826    40.628826    126.92972    133.42777    111.94095    135.42044   -13302.025    268.20298 
  116000    40.630295    40.630295    40.630295    70.950687   -181.10827    119.00358    274.95675   -13300.924    266.79301 
  116500    40.633996    40.633996    40.633996   -166.34379   -67.326989   -101.61384   -330.09053   -13302.442     270.4468 
  117000    40.633048    40.633048    40.633048   -57.475282   -183.62241   -102.70011    113.89667    -13300.58    267.55866 
  117500    40.630299    40.630299    40.630299     19.24896   -59.713687    106.96882    10.491745   -13302.606    272.18786 
  118000    40.630523    40.630523    40.630523    18.081925    -93.73138   -13.244392    161.22155   -13302.209    272.13262 
  118500    40.633308    40.633308    40.633308   -102.72167   -104.62615   -145.85266   -57.686189   -13300.718     269.9457 
  119000    40.633257    40.633257    40.633257   -99.781838    9.8751829   -56.560532   -252.66016   -13300.213    269.67301 
  119500    40.630739    40.630739    40.630739    144.17719    45.067279    128.28866    259.17563   -13301.001    271.89372 
  120000    40.632564    40.632564    40.632564   -70.813651    58.490467   -113.48036   -157.45106   -13301.231    273.03013 
  120500    40.633533    40.633533    40.633533   -122.74515   -231.44941   -142.50196    5.7159176   -13301.807    274.83105 
  121000     40.63201     40.63201     40.63201    61.177881    154.17399   -84.773455    114.13311   -13300.161    272.32712 
  121500    40.632338    40.632338    40.632338    50.563239    31.245898    45.975717    74.468102   -13299.448    271.61728 
  122000     40.63484     40.63484     40.63484   -17.197531   -127.49111   -34.563135    110.46165   -13298.661    270.76588 
  122500    40.635809    40.635809    40.635809   -178.13225   -196.21979   -93.212117   -244.96484   -13301.064    276.08226 
  123000    40.632984    40.632984    40.632984    129.82363     63.52332    65.085079    260.86251    -13298.19    271.18508 
  123500      40.6332      40.6332      40.6332    135.17811    7.7147749    190.77926    207.04029   -13298.812    273.04844 
  124000    40.636049    40.636049    40.636049   -76.719453    -155.2741   -28.216168   -46.668087   -13298.741    273.56695 
  124500    40.636111    40.636111    40.636111   -98.129004   -133.55698    32.237449   -193.06749   -13298.623    273.98556 
  125000    40.633692    40.633692    40.633692    23.088337   -162.39299    63.310394    168.34761   -13299.748    276.81094 
  125500    40.634137    40.634137    40.634137    143.60624    207.16746    58.099095    165.55216   -13297.688    273.46606 
  126000    40.637598    40.637598    40.637598   -205.52564   -330.41313   -90.569616   -195.59418   -13298.623    275.91152 
  126500    40.635578    40.635578    40.635578    58.087316    58.179197  -0.17935567    116.26211   -13298.533    276.36745 
  127000    40.635152    40.635152    40.635152    21.362693   -65.588373    62.799832    66.876619   -13298.693    277.30105 
  127500     40.63673     40.63673     40.63673   -13.388459    140.69315   -6.5892307   -174.26929   -13296.717    274.10521 
  128000    40.636894    40.636894    40.636894    49.901264   -137.41535    116.45066    170.66849    -13296.78    274.85193 
  128500     40.63684     40.63684     40.63684   -46.115198   -39.226585   -81.779564   -17.339445   -13297.097    276.08074 
  129000    40.636234    40.636234    40.636234    86.170947   -61.487477    154.26705    165.73327   -13296.503    275.54498 
  129500    40.637326    40.637326    40.637326    99.768132    103.52783    85.584462     110.1921   -13297.173    277.45019 
  130000    40.639116    40.639116    40.639116   -107.96492   -187.98805   -274.08007    138.17336   -13297.594    278.86886 
  130500    40.638005    40.638005    40.638005   -71.926063   -137.66794    67.976609   -146.08686   -13297.999    280.24786 
  131000    40.635512    40.635512    40.635512    240.05522    252.46394    227.07887    240.62286   -13293.739    272.59516 
  131500    40.638653    40.638653    40.638653   -133.39652   -96.679271   -146.01468   -157.49562   -13298.286    281.97861 
  132000     40.64021     40.64021     40.64021    14.260987   -165.81517    153.40738    55.190754   -13294.689    275.60664 
  132500    40.638942    40.638942    40.638942   -119.39014    -264.8216   -242.63077    149.28197   -13297.413    281.45876 
  133000    40.635736    40.635736    40.635736    76.018679    8.3086129    248.51813   -28.770707   -13296.628    280.51489 
  133500    40.637007    40.637007    40.637007    60.246391    1.6442831   -15.702688    194.79758   -13296.763    281.34714 
  134000    40.640401    40.640401    40.640401   -240.00418   -165.92568   -333.09735   -220.98951   -13295.837    280.12003 
  134500    40.638694    40.638694    40.638694    166.81871    262.46183    148.86592    89.128373    -13294.35    277.80654 
  135000    40.638343    40.638343    40.638343   -12.182456   -168.37534   -5.8747783    137.70275    -13294.35    278.36596 
  135500    40.637421    40.637421    40.637421   -5.4825897   -76.259099    60.474884  -0.66355373   -13297.809    285.61437 
  136000    40.637566    40.637566    40.637566    5.7610315    66.179553   -156.83898    107.94253   -13295.812    282.29584 
  136500    40.639345    40.639345    40.639345   -61.452406    -111.7741   -58.560305   -14.022811   -13294.435    280.17489 
  137000    40.639668    40.639668    40.639668   -42.637634   -3.8065235   -171.04571    46.939329   -13294.811    281.44293 
  137500    40.638434    40.638434    40.638434    52.453141    30.793305   -86.607866    213.17399   -13294.675    281.71262 
  138000    40.638592    40.638592    40.638592    91.416325     177.5311   -15.661272    112.37915   -13293.331    279.64761 
  138500     40.63943     40.63943     40.63943    1.1353784   -70.977744   -5.8584615    80.242341   -13294.863    283.14111 
  139000    40.640192    40.640192    40.640192    32.713088    -4.318776    3.6678577    98.790182    -13293.79    281.58287 
  139500    40.642032    40.642032    40.642032   -103.85311   -21.382137    -93.29116   -196.88604   -13294.994    284.43295 
  140000    40.640543    40.640543    40.640543   -80.210676   -284.08282     3.593012    39.857781   -13293.765    282.56828 
  140500    40.638409    40.638409    40.638409    66.045543    142.49858      64.4297    -8.791655   -13295.486    286.41179 
  141000    40.639755    40.639755    40.639755    7.7580639    66.007545   -58.804563    16.071209   -13294.727    285.45078 
  141500    40.640996    40.640996    40.640996    45.638901   -1.9242104    231.39314    -92.55223   -13291.458    279.62681 
  142000    40.641055    40.641055    40.641055   -33.854623   -52.671915   -84.641768    35.749815   -13293.902    284.85204 
  142500    40.641071    40.641071    40.641071    91.740398    65.781598   -35.304682    244.74428   -13293.124    283.83351 
  143000    40.641894    40.641894    40.641894    40.544081    16.407206    65.798492    39.426545   -13290.817    279.86093 
  143500    40.641493    40.641493    40.641493  -0.15482877    49.019922   -262.36212    212.87771   -13293.224    285.00309 
  144000    40.640626    40.640626    40.640626   -34.245645   -55.978526   -16.292782   -30.465626   -13294.836    288.60524 
  144500    40.640061    40.640061    40.640061    98.438367    98.838049    130.54554    65.931515   -13292.332    284.23559 
  145000    40.642903    40.642903    40.642903    36.834005    123.27722   -44.601658    31.826453   -13291.688    283.45656 
  145500    40.643878    40.643878    40.643878    -25.19097   -141.99662    33.631465     32.79224   -13291.688    283.92352 
  146000    40.642258    40.642258    40.642258   -17.978911     57.79327   -122.40336     10.67336   -13293.592    288.06748 
  146500    40.641255    40.641255    40.641255     73.17948    87.916978    45.540897    86.080564   -13291.192     283.8809 
  147000    40.642596    40.642596    40.642596   -24.140265    99.578734   -161.94991   -10.049622   -13293.011    287.85044 
  147500    40.643408    40.643408    40.643408   -23.617032   -0.1901515    7.0156058   -77.676549   -13290.947    284.31152 
  148000     40.64192     40.64192     40.64192    60.799857   -18.518056   -38.134261    239.05189   -13291.786    286.38511 
  148500    40.641914    40.641914    40.641914    6.7889835   -76.496985    46.620245    50.243691   -13292.732    288.65985 
  149000    40.643101    40.643101    40.643101   -86.678496    95.598404   -275.39228   -80.241615   -13292.272    288.20991 
  149500     40.64324     40.64324     40.64324    20.300165   -140.99576    58.208584    143.68767   -13292.468    289.02196 
  150000    40.643391    40.643391    40.643391   -26.457909    152.14095   -217.98061   -13.534068   -13291.936    288.42383 
  150500    40.641872    40.641872    40.641872    76.139609    108.20697    145.30247   -25.090618   -13290.609    286.27694 
  151000    40.642121    40.642121    40.642121    96.377889     113.4027    44.682981    131.04799   -13291.343     288.1181 
  151500    40.645071    40.645071    40.645071   -208.73018   -320.49731    -282.6441   -23.049141    -13292.69      291.144 
  152000     40.64311     40.64311     40.64311   -24.632502    43.891169    22.280302   -140.06898   -13291.408    289.07655 
  152500    40.641074    40.641074    40.641074    126.88078    119.14689    49.288497    212.20694   -13291.196     289.0736 
  153000    40.643605    40.643605    40.643605   -20.478861    240.28786   -98.599583   -203.12486   -13291.854    290.75429 
  153500    40.645315    40.645315    40.645315   -39.778881   -57.222743   -176.13685    114.02295   -13289.081    285.78942 
  154000    40.644639    40.644639    40.644639   -27.968443    35.293067   -28.666458   -90.531936    -13290.15    288.25495 
  154500    40.643073    40.643073    40.643073   -5.9065451    118.69951   -143.94747    7.5283214   -13293.167    294.49193 
  155000    40.643612    40.643612    40.643612   -2.0323759    124.42238   -17.472843   -113.04667   -13291.245    291.15685 
  155500    40.646058    40.646058    40.646058   -74.020664   -103.00329   -33.614357   -85.444345   -13289.705    288.55873 
  156000    40.645537    40.645537    40.645537   -39.090022    97.976095   -36.062955    -179.1832   -13290.752    290.97214 
  156500    40.642502    40.642502    40.642502    52.480763    197.90635   -136.74579    96.281739   -13290.061    290.01113 
  157000    40.641848    40.641848    40.641848    168.86872    229.95481    38.093758    238.55758   -13289.915    290.09993 
  157500    40.646257    40.646257    40.646257   -179.55324   -342.73014   -61.989116   -133.94047   -13290.748    292.07834 
  158000    40.646448    40.646448    40.646448    -59.21823   -132.44286    -14.67856   -30.533275   -13289.971    290.94039 
  158500    40.643444    40.643444    40.643444    205.10934    210.36188    174.82183     230.1443   -13287.593    286.69478 
  159000    40.645316    40.645316    40.645316    6.3361537    16.147704    7.3503783   -4.4896215   -13289.995    291.70154 
  159500    40.647887    40.647887    40.647887   -220.39889   -196.73539   -185.36115   -279.10013   -13291.209    294.40922 
  160000    40.645203    40.645203    40.645203    -46.68502   -44.852176   -281.66916    186.46627    -13292.55    297.35638 
  160500    40.642986    40.642986    40.642986    178.01347    73.426903     367.7126    92.900898   -13288.087    289.06062 
  161000    40.645295    40.645295    40.645295   -37.791028    90.576589   -208.16109    4.2114178   -13289.391    291.92254 
  161500    40.645958    40.645958    40.645958   -81.438013   -204.16161    13.218139   -53.370567   -13290.503    294.40472 
  162000    40.645402    40.645402    40.645402    73.611258    166.58353   -94.780316    149.03056    -13287.22    288.38196 
  162500    40.645818    40.645818    40.645818   -7.1666963    263.74462   -88.942214    -196.3025   -13289.756    293.62426 
  163000    40.646625    40.646625    40.646625   -105.57973   -82.074156   -43.852053   -190.81298   -13290.928    296.21937 
  163500    40.645879    40.645879    40.645879    8.8542215    191.11422    -59.86813   -104.68343   -13289.049    292.90731 
  164000    40.645165    40.645165    40.645165   -29.928871   -42.735487     9.236461   -56.287586   -13289.494    294.08153 
  164500    40.645013    40.645013    40.645013    9.9500929    154.19975   -10.286073    -114.0634   -13290.044    295.46359 
  165000    40.645796    40.645796    40.645796   -87.856518    133.37568   -197.31919   -199.62604   -13291.286    298.17418 
  165500    40.645316    40.645316    40.645316    17.238463    172.69889   -110.36396   -10.619537   -13287.772    291.67127 
  166000    40.646041    40.646041    40.646041    63.782897    99.242123    76.031572    16.074997    -13287.88    292.18269 
  166500    40.647834    40.647834    40.647834     -85.9611   -30.604916    41.924037   -269.20242   -13288.914    294.48537 
  167000    40.646571    40.646571    40.646571    118.97799    9.2867952    207.40402    140.24316   -13287.867    292.75353 
  167500    40.647099    40.647099    40.647099   0.10402222    168.08551    19.186817   -186.96026   -13286.664    290.71524 
  168000    40.646779    40.646779    40.646779    36.978907    -23.49366    46.809196    87.621185   -13288.419    294.40168 
  168500    40.646972    40.646972    40.646972   -89.318577    80.175605   -157.33095   -190.80038   -13289.663    297.08669 
  169000    40.645939    40.645939    40.645939     11.72234   -23.772575    62.921063   -3.9814668   -13286.745    291.71541 
  169500    40.645021    40.645021    40.645021    151.00451    263.92819    87.601545    101.48379   -13287.465    293.38433 
  170000    40.647321    40.647321    40.647321   -12.846458    -101.1724    50.706499     11.92653   -13289.022    296.66832 
  170500    40.648799    40.648799    40.648799   -159.21035     23.05796   -215.19146   -285.49756   -13287.903    294.76704 
  171000    40.646944    40.646944    40.646944   -17.118893   -130.57268     70.79799    8.4180136   -13289.891    298.87758 
  171500    40.646088    40.646088    40.646088    73.639357     212.2803   -24.962409    33.600177   -13286.319    292.22466 
  172000    40.647625    40.647625    40.647625   -80.182427     30.27132   -208.00327   -62.815334    -13290.47     300.5193 
  172500    40.647612    40.647612    40.647612   -74.899291   -157.20534   -54.427455    -13.06508   -13286.923    293.90671 
  173000    40.646409    40.646409    40.646409    30.058762   -25.255148   -84.453609    199.88504   -13288.192    296.61523 
  173500    40.646562    40.646562    40.646562    32.872549    24.812334    81.118552   -7.3132407   -13289.665     299.7163 
  174000    40.648735    40.648735    40.648735      -103.35   -122.89783   -101.27093   -85.881247   -13289.592    299.81573 
  174500    40.649123    40.649123    40.649123   -161.05169   -32.467267   -196.03623   -254.65157   -13287.349    295.70538 
  175000    40.646802    40.646802    40.646802    1.1188145    20.258809    95.762175   -112.66454   -13288.503    298.17036 
  175500    40.645667    40.645667    40.645667    102.04591    17.512318    87.404203     201.2212   -13287.362    296.19297 
  176000    40.647585    40.647585    40.647585   -69.464744   -79.643108    85.933499   -214.68462   -13287.154    296.01498 
  176500     40.64726     40.64726     40.64726    65.396273    63.575514    161.30814   -28.694837   -13285.562    293.15177 
  177000    40.646766    40.646766    40.646766    36.631382   -106.46753    6.7654594    209.59622   -13287.935    297.95556 
  177500    40.647746    40.647746    40.647746   -156.08795   -244.98897   -51.771686    -171.5032   -13288.528    299.31695 
  178000    40.646467    40.646467    40.646467    123.74944    188.96679    187.80649   -5.5249482   -13285.341    293.35813 
  178500    40.647781    40.647781    40.647781   -63.653316   -263.94765   -75.252561    148.24027   -13288.795     300.2508 
  179000    40.648066    40.648066    40.648066     99.36049   -10.188614    214.02879    94.241296   -13283.822    290.83035 
  179500    40.648447    40.648447    40.648447    -129.0918   -116.12043   -59.510859    -211.6441   -13288.776    300.61835 
  180000    40.645987    40.645987    40.645987    152.24579    113.55978     394.5693   -51.391716    -13286.98     297.3386 
  180500    40.648437    40.648437    40.648437   -89.578426   -172.19241   -32.098269   -64.444598   -13288.524    300.51167 
  181000    40.650128    40.650128    40.650128   -70.693978    59.428609   -66.288804   -205.22174   -13287.272    298.27831 
  181500    40.648473    40.648473    40.648473   -110.71499   -205.32664    42.974042   -169.79238   -13288.053    299.97023 
  182000    40.645752    40.645752    40.645752    225.31347     70.42091    447.52349      157.996   -13285.803     295.7937 
  182500    40.649126    40.649126    40.649126    -114.0476    37.818666   -255.52989   -124.43157   -13289.021    302.19943 
  183000    40.651422    40.651422    40.651422   -301.56507   -326.46591   -187.87337   -390.35592   -13287.684    299.78594 
  183500    40.646676    40.646676    40.646676    149.20178    228.66217    92.895446    126.04771   -13286.117    296.92185
