LAMMPS (28 Jun 2014)
# Input file for uniaxial tensile loading of single crystal aluminum
# Mark Tschopp, November 2010

# ------------------------ INITIALIZATION ----------------------------
units 		metal
dimension	3
boundary	p	p	p
atom_style	atomic
variable latparam equal 4.05

# ----------------------- ATOM DEFINITION ----------------------------
lattice		fcc ${latparam}
lattice		fcc 4.05
Lattice spacing in x,y,z = 4.05 4.05 4.05
region		whole block 0 10 0 10 0 10
create_box	1 whole
Created orthogonal box = (0 0 0) to (40.5 40.5 40.5)
  1 by 2 by 2 MPI processor grid
lattice 	fcc ${latparam} orient x 1 0 0 orient y 0 1 0 orient z 0 0 1
lattice 	fcc 4.05 orient x 1 0 0 orient y 0 1 0 orient z 0 0 1
Lattice spacing in x,y,z = 4.05 4.05 4.05
create_atoms	1 region whole
Created 4000 atoms

# ------------------------ FORCE FIELDS ------------------------------
pair_style	eam/alloy
pair_coeff	* * Al99.eam.alloy Al

# ------------------------- SETTINGS ---------------------------------
compute csym all centro/atom fcc
compute peratom all pe/atom

######################################
# EQUILIBRATION
reset_timestep	0
timestep 0.001
velocity all create 300 12345 mom yes rot no
fix 1 all npt temp 300 300 1 iso 0 0 1 drag 1

# Set thermo output
thermo 50
thermo_style custom step lx ly lz press pxx pyy pzz pe temp

# Run for at least 10 picosecond (assuming 1 fs timestep)
run 20000
Memory usage per processor = 3.04301 Mbytes
Step Lx Ly Lz Press Pxx Pyy Pzz PotEng Temp 
       0         40.5         40.5         40.5    2496.1233    2446.9902    2534.6541    2506.7256       -13440          300 
      50      40.5611      40.5611      40.5611    907.43706    837.10986    946.43161    938.76971   -13338.819    103.27149 
     100    40.636867    40.636867    40.636867   -4611.4186   -4606.0751   -4633.2987   -4594.8821   -13373.529    171.80729 
     150    40.566371    40.566371    40.566371    544.64066    509.57779    622.24374    502.10046   -13348.908    124.16109 
     200    40.511722    40.511722    40.511722    3547.2897    3643.2596    3485.9867    3512.6228   -13355.216     137.9072 
     250    40.565785    40.565785    40.565785    166.93066    90.523527    218.10474    192.16371   -13359.502    146.72328 
     300    40.611235    40.611235    40.611235   -2466.5664   -2412.8394   -2483.9007   -2502.9592   -13360.111    149.21075 
     350    40.571353    40.571353    40.571353   -408.34084   -482.42607   -346.38838   -396.20806   -13367.339    163.76556 
     400    40.532306    40.532306    40.532306    2225.5431    2279.8069    2296.6157    2100.2067   -13359.854    150.41108 
     450    40.566044    40.566044    40.566044    2.0377845   -40.092854   -31.888362     78.09457    -13363.08    157.36643 
     500    40.595966    40.595966    40.595966   -1611.3461   -1655.3283   -1479.2164   -1699.4934   -13359.404    151.32857 
     550    40.570848    40.570848    40.570848   -161.85418   -150.03728   -167.20465   -168.32062   -13360.736    154.75593 
     600    40.545092    40.545092    40.545092    1385.8336    1414.2998    1433.0694    1310.1316   -13361.915    158.16074 
     650    40.566235    40.566235    40.566235    212.56633    184.02753    245.48283    208.18862   -13358.104    151.74194 
     700    40.589999    40.589999    40.589999   -1217.4105   -1343.5854   -1126.2179   -1182.4283   -13360.206    156.93263 
     750    40.572933    40.572933    40.572933   -250.38158   -286.45411   -263.19279   -201.49783   -13360.538    158.57849 
     800    40.551356    40.551356    40.551356    1208.6566    1078.2928    1322.2307    1225.4462   -13357.161    153.20685 
     850    40.567647    40.567647    40.567647     35.88215    27.354765    95.437303   -15.145617   -13362.171    163.91834 
     900    40.586566    40.586566    40.586566   -905.95525   -936.83022   -840.20578   -940.82976   -13360.501    161.82509 
     950    40.575685    40.575685    40.575685   -242.27646    -258.0676   -191.53537    -277.2264   -13355.043     152.3172 
    1000    40.557624    40.557624    40.557624    865.78368    854.28577     838.0004    905.06486   -13361.124    165.23426 
    1050    40.567354    40.567354    40.567354    296.20892     232.8234     412.4804    243.32297   -13352.949    150.47937 
    1100    40.584443    40.584443    40.584443   -762.38408   -853.89575   -674.30507   -758.95143   -13360.466    166.16585 
    1150    40.575983    40.575983    40.575983    -142.2806   -201.77341   -30.014093    -195.0543    -13353.75    154.27323 
    1200    40.562401    40.562401    40.562401    595.06575    539.95132    625.63845    619.60749    -13359.83    167.17798 
    1250    40.569413    40.569413    40.569413    166.79261    92.903564    250.18713    157.28713   -13356.017    160.90148 
    1300    40.581899    40.581899    40.581899   -560.61752   -582.11355   -449.93781   -649.80119   -13357.596    165.08945 
    1350    40.575948    40.575948    40.575948    -187.6128   -340.24911   -119.43237   -103.15693   -13356.829    164.72703 
    1400    40.566127    40.566127    40.566127    565.86425    499.12344    641.64272    556.82658   -13354.386    161.14085 
    1450    40.572988    40.572988    40.572988    -8.561472    -54.13345   -9.1404528    37.589487   -13356.765    166.86433 
    1500    40.579794    40.579794    40.579794   -267.41446   -332.77441   -176.15609   -293.31287   -13353.672    162.03422 
    1550    40.576834    40.576834    40.576834   -220.87916   -335.60203   -207.98546   -119.05001    -13357.33    170.23169 
    1600     40.56902     40.56902     40.56902    377.81634    358.40758    458.79305    316.24838   -13352.705    162.42694 
    1650    40.573333    40.573333    40.573333    121.60248    65.830518    161.88969    137.08722     -13355.4    168.76756 
    1700    40.580701    40.580701    40.580701   -351.25931   -404.48696   -356.71365   -292.57732   -13352.169    163.67705 
    1750    40.576849    40.576849    40.576849   -32.167301   -50.678233   -63.920617    18.096946   -13355.552    171.33506 
    1800    40.570697    40.570697    40.570697    303.86959    205.87186    337.67696    368.05996   -13351.254    164.18628 
    1850    40.573832    40.573832    40.573832    241.25661    160.65476    291.81867    271.29639   -13351.989    166.73526 
    1900    40.582525    40.582525    40.582525   -408.49907   -517.11515    -372.3218   -336.06028    -13355.88     175.4205 
    1950    40.579035    40.579035    40.579035   -121.18037    -78.31077   -80.564036    -204.6663   -13350.032    165.23107 
    2000     40.57151     40.57151     40.57151    262.28188    197.36064    289.69509     299.7899   -13356.433    178.77171 
    2050     40.57415     40.57415     40.57415    291.00696    438.91963    282.96388    151.13737   -13349.034    165.59547 
    2100    40.583714    40.583714    40.583714   -349.64824   -571.69905   -278.61218   -198.63349    -13352.82     174.0797 
    2150    40.580896    40.580896    40.580896   -115.46102   -185.78203   -83.935203   -76.665824   -13348.342    166.55152 
    2200    40.573232    40.573232    40.573232    266.96923    327.53375    145.53519    327.83874   -13352.358    175.46306 
    2250    40.574827    40.574827    40.574827    151.21048    253.25725    168.12758    32.246605   -13351.993    175.91954 
    2300    40.582519    40.582519    40.582519   -229.92012   -262.55007   -227.80284   -199.40745   -13351.098    175.32277 
    2350    40.582472    40.582472    40.582472   -261.47493   -230.22332   -223.18601   -331.01546   -13351.015     176.3209 
    2400    40.575117    40.575117    40.575117    304.99838    318.71288    230.82389    365.45835    -13348.88    173.33846 
    2450    40.576041    40.576041    40.576041    115.98281   -49.519186    231.81908    165.64854   -13349.774    176.22576 
    2500    40.581993    40.581993    40.581993    -86.32248   -223.14465   -50.962736    15.139951   -13348.601    175.08643 
    2550    40.583873    40.583873    40.583873   -280.78867    -329.5054   -351.60669   -161.25393   -13350.803    180.51146 
    2600    40.577203    40.577203    40.577203    317.49535    231.68198    393.67729    327.12677    -13345.69    171.77884 
    2650    40.578933    40.578933    40.578933    13.030925    144.96731   -44.713472   -61.161069   -13350.912    183.01571 
    2700    40.583518    40.583518    40.583518   -174.83865   -293.93299   -111.84152   -118.74145   -13346.798    176.21518 
    2750    40.582481    40.582481    40.582481   -39.748764   -65.184794    -87.13603    33.074533   -13348.669    180.97912 
    2800    40.578705    40.578705    40.578705    108.86451   -19.945463    191.66526    154.87373   -13346.376    177.70923 
    2850    40.579322    40.579322    40.579322    124.53218    81.912131    124.60452     167.0799   -13349.584    185.05983 
    2900    40.584645    40.584645    40.584645   -69.825092    -152.5521   -33.708358   -23.214815   -13345.868     179.0187 
    2950    40.585359    40.585359    40.585359   -182.56258   -154.04171   -313.08375   -80.562296   -13345.484    179.44392 
    3000    40.580393    40.580393    40.580393    103.06038     17.74205    199.86076    91.578338   -13349.988    189.30398 
    3050    40.580507    40.580507    40.580507    62.168107    44.094515    20.509683    121.90012   -13345.218    181.21565 
    3100    40.584708    40.584708    40.584708   -107.42179   -223.08689   -59.455111   -39.723375   -13347.434     186.6605 
    3150    40.585857    40.585857    40.585857   -139.90607   -193.02274   -102.84206    -123.8534   -13344.327    181.78994 
    3200    40.582817    40.582817    40.582817    56.136466   -25.815173    83.857537    110.36703   -13346.758    187.66531 
    3250    40.582883    40.582883    40.582883    202.40337    154.08445    136.98617    316.13948   -13343.925    183.32635 
    3300    40.587578    40.587578    40.587578    -209.4339   -371.94849   -87.698913   -168.65429   -13345.062    186.68197 
    3350    40.586577    40.586577    40.586577   -9.0566859   -69.573038   -16.305688    58.708669    -13343.41    184.64018 
    3400    40.584833    40.584833    40.584833    -4.464904   -169.79656    46.672382    109.72947   -13346.346    191.46455 
    3450    40.585451    40.585451    40.585451    9.8032381   -98.559471    71.647379    56.321806   -13344.024    188.12534 
    3500    40.587697    40.587697    40.587697   -73.255431   -198.59139   -60.277768    39.102863   -13344.644    190.47515 
    3550    40.586958    40.586958    40.586958    -56.96485   -70.538578    6.9900731   -107.34605   -13342.497     187.4769 
    3600    40.585183    40.585183    40.585183    109.67337    96.750394    58.529928    173.73977   -13342.391    188.41229 
    3650    40.586887    40.586887    40.586887   -3.9723187   -11.668849   -45.333257    45.085149   -13342.044    188.88701 
    3700    40.588496    40.588496    40.588496   -27.142131   -83.336603   -12.131481    14.041689   -13342.511    190.95338 
    3750    40.588371    40.588371    40.588371   -6.0911329    43.936973   -56.088694   -6.1216783   -13342.317    191.72699 
    3800    40.587518    40.587518    40.587518    21.179747   -96.321442    156.68462    3.1760619    -13342.31    192.86572 
    3850    40.588168    40.588168    40.588168    103.71552    51.378646    75.437151    184.33078   -13339.435    188.43341 
    3900    40.590071    40.590071    40.590071   -61.991803    41.084916   -163.63867   -63.421652   -13340.244    191.15887 
    3950     40.58905     40.58905     40.58905    26.629811   -116.89505    111.68117    85.103306   -13340.459    192.71663 
    4000     40.58814     40.58814     40.58814    64.030856    18.996702    37.882754    135.21311   -13340.476    193.89746 
    4050     40.58928     40.58928     40.58928    51.730888    26.058107    48.279046    80.855511   -13339.217    192.61086 
    4100    40.591447    40.591447    40.591447    -69.41407   -80.629256   -72.506139   -55.106814   -13342.948    200.98044 
    4150    40.591167    40.591167    40.591167     -59.3496   -170.66274   -23.297654    15.911595    -13338.58    193.66416 
    4200    40.589402    40.589402    40.589402    126.45049    102.31182    28.361074    248.67858   -13337.074    191.89142 
    4250    40.590375    40.590375    40.590375   -5.8786185    -95.14102    71.464313    6.0408519   -13339.822    198.35283 
    4300    40.592312    40.592312    40.592312   -99.932489   -134.35608   -92.003546   -73.437843   -13339.728    199.31371 
    4350    40.591432    40.591432    40.591432    30.669897   -17.453823    116.38325   -6.9197307   -13337.239    195.64072 
    4400    40.590868    40.590868    40.590868    6.1809803   -68.690877    32.701826    54.531992   -13340.043     202.2069 
    4450    40.592123    40.592123    40.592123   -2.7294806    31.335042   -35.521345   -4.0021387   -13337.875    199.15199 
    4500    40.593642    40.593642    40.593642   -65.462705    36.313648   -97.154892   -135.54687    -13337.41     199.3838 
    4550    40.592338    40.592338    40.592338   -64.277171   -161.69941   -86.840811    55.708711   -13338.207    202.07086 
    4600    40.590278    40.590278    40.590278     249.1077    320.61637    284.38178    142.32493   -13335.472    197.91016 
    4650    40.594313    40.594313    40.594313   -36.483052   -43.388388     7.304162   -73.364929   -13336.259    200.57068 
    4700    40.596271    40.596271    40.596271   -162.12355   -160.59482   -175.19352   -150.58232   -13336.155    201.50807 
    4750    40.592916    40.592916    40.592916    73.064448    98.496599    218.68878   -97.992039   -13336.665     203.6226 
    4800    40.592243    40.592243    40.592243    93.558524    177.60258   -87.323114    190.39611   -13336.604    204.63746 
    4850    40.595451    40.595451    40.595451    4.2171739   -108.36622    56.758562    64.259175   -13334.982    202.63372 
    4900     40.59738     40.59738     40.59738   -207.49532   -38.513481   -236.77389   -347.19859   -13335.657    205.06988 
    4950    40.592949    40.592949    40.592949    160.16595    79.901741    153.84852    246.74758   -13333.532    202.08895 
    5000    40.593071    40.593071    40.593071    183.41074     268.5787     243.1868    38.466717   -13334.242    204.58527 
    5050    40.598517    40.598517    40.598517   -115.69735   -166.07939     -169.547   -11.465649   -13334.019    205.27643 
    5100     40.59878     40.59878     40.59878   -111.70343    -8.370906   -166.12906   -160.61033   -13332.452    203.37832 
    5150    40.594255    40.594255    40.594255    96.931121    101.97383    87.628943    101.19059   -13334.964    209.35602 
    5200    40.594043    40.594043    40.594043    196.29774    273.67141    221.69784    93.523963   -13335.021    210.58986 
    5250     40.59947     40.59947     40.59947   -89.380203   -116.97376   -109.49403    -41.67282   -13330.257    202.50162 
    5300    40.599859    40.599859    40.599859   -145.25531   -136.63669   -209.45351   -89.675735   -13332.957    208.84095 
    5350    40.595213    40.595213    40.595213    222.90062    257.82359    316.73027    94.147998   -13332.065    208.23568 
    5400    40.596174    40.596174    40.596174    152.99394    182.46696    168.26953    108.24535   -13331.528    208.31029 
    5450    40.601169    40.601169    40.601169   -137.60144   -286.80303   -30.046473   -95.954809   -13330.969    208.33875 
    5500    40.601195    40.601195    40.601195   -223.23281   -155.64611   -294.77355   -219.27877   -13333.433    214.21786 
    5550    40.595615    40.595615    40.595615    182.19163    236.97313    219.29512    90.306631   -13332.625    213.77091 
    5600     40.59647     40.59647     40.59647    157.71549    95.081188    126.56426    251.50101    -13331.02    211.77575 
    5650    40.602086    40.602086    40.602086   -122.48126   -162.13077   -127.35932   -77.953682   -13328.959    208.89658 
    5700    40.602031    40.602031    40.602031   -129.57349   -144.97713    -92.19506   -151.54828   -13330.973    213.90323 
    5750    40.597351    40.597351    40.597351    249.95841     130.2933    256.42866    363.15327   -13329.355    211.87752 
    5800    40.599001    40.599001    40.599001    81.368288    70.461749    220.52608   -46.882963    -13329.51    213.28364 
    5850    40.603186    40.603186    40.603186   -204.96413   -200.81552   -191.63639   -222.44049   -13330.974    217.21937 
    5900    40.602446    40.602446    40.602446   -126.97389   -248.41884   -16.958909   -115.54392    -13329.54    215.52932 
    5950    40.598403    40.598403    40.598403     257.9828    272.70332    348.64877    152.59632   -13327.614    212.91421 
    6000     40.60021     40.60021     40.60021    86.846298    101.33594   -18.435667    177.63862   -13327.324    213.44455 
    6050     40.60381     40.60381     40.60381     -147.965   -193.76594   -73.546053   -176.58301   -13330.172    220.05867 
    6100    40.602318    40.602318    40.602318    -26.95951    24.115571    -126.5007    21.506596   -13327.624    216.21915 
    6150    40.600005    40.600005    40.600005    91.858136   -57.062472     204.7372    127.89968   -13329.971    221.84627 
    6200    40.601871    40.601871    40.601871     18.81411    18.213485    68.835547   -30.606703   -13326.581     216.3745 
    6250    40.604737    40.604737    40.604737   -124.00793   -72.865587   -231.27249   -67.885715    -13327.32    218.88695 
    6300    40.603226    40.603226    40.603226    38.479186    -71.27144     210.4996   -23.790601   -13327.339     220.0188 
    6350    40.602348    40.602348    40.602348    53.655171    168.57174   -65.580559    57.974335   -13327.803    222.00053 
    6400    40.604389    40.604389    40.604389   -55.165601   -243.02272    81.803234   -4.2773159    -13327.19    221.89227 
    6450    40.605242    40.605242    40.605242   -103.23012   -18.394609   -201.09066   -90.205083   -13326.925    222.45568 
    6500    40.603815    40.603815    40.603815    39.068389   -146.98714     -28.4868    292.67911   -13326.809    223.30103 
    6550     40.60387     40.60387     40.60387    22.403565    29.280286    75.786435   -37.856025   -13324.708    220.30764 
    6600     40.60543     40.60543     40.60543    36.934272   -27.131059    31.251669     106.6822   -13325.152    222.24729 
    6650    40.606492    40.606492    40.606492    27.935899   -38.026677    291.58289   -169.74852   -13323.272    219.68455 
    6700    40.605902    40.605902    40.605902   -2.8302171   -32.479587   -15.290284    39.279221   -13325.483    225.03079 
    6750    40.605041    40.605041    40.605041    116.28823    11.166754    118.66357    219.03438     -13324.7    224.58162 
    6800    40.606317    40.606317    40.606317   -94.135085   -116.06994   -53.083775   -113.25154   -13324.612    225.46738 
    6850    40.606909    40.606909    40.606909   -131.72414   -177.87527   -112.67255   -104.62461   -13327.361    231.83937 
    6900    40.606457    40.606457    40.606457    38.770044   -42.543621    139.77117    19.082584    -13323.81    226.02987 
    6950    40.607088    40.607088    40.607088    -35.87355   -57.864929   -99.363756    49.608035   -13325.976    231.28561 
    7000    40.607798    40.607798    40.607798   -21.517973   -27.074967    68.888779   -106.36773   -13321.758    224.17335 
    7050    40.608361    40.608361    40.608361   -85.333283   -62.294957   -78.471956   -115.23294   -13324.227    229.99186 
    7100    40.607551    40.607551    40.607551  -0.32340728   -15.680349    51.728357    -37.01823   -13323.223    229.10019 
    7150     40.60782     40.60782     40.60782    20.921777    45.317835   -55.509065    72.956561   -13323.207    230.11782 
    7200    40.609482    40.609482    40.609482   -77.821672   -101.91746    4.9611119   -136.50867   -13323.495    231.72021 
    7250    40.609913    40.609913    40.609913    50.433017   0.56460385    75.008988     75.72546   -13321.183    228.29296 
    7300     40.60956     40.60956     40.60956    -69.90714   -13.571925   -179.09254   -17.056953   -13321.826    230.56804 
    7350    40.608273    40.608273    40.608273    147.86894    124.22491    181.66507    137.71684   -13319.822    227.72576 
    7400     40.61072     40.61072     40.61072   -38.902497   -22.541514   -63.916036   -30.249939   -13321.343    231.69891 
    7450      40.6122      40.6122      40.6122   -125.41163   -226.57028    -33.61997   -116.04465   -13322.895    235.72868 
    7500    40.610108    40.610108    40.610108   0.23229987   -85.457416    5.8911509    80.263165   -13321.055    233.20319 
    7550    40.608593    40.608593    40.608593    216.78304    152.03962    265.65517    232.65434   -13319.725    231.64868 
    7600    40.612333    40.612333    40.612333   -46.447022   -71.347699    11.081953    -79.07532    -13319.66    232.54909 
    7650    40.614101    40.614101    40.614101    8.5688691   -63.097679    126.74828   -37.943999   -13317.293     228.9811 
    7700    40.612387    40.612387    40.612387   -98.768505   -57.973541   -144.42907   -93.902904   -13319.588    234.44054 
    7750    40.607968    40.607968    40.607968    199.50031    202.77634    254.41477    141.30983   -13320.441    237.10839 
    7800    40.611213    40.611213    40.611213    10.113906    81.539417    -64.43268     13.23498   -13320.135    237.51591 
    7850    40.615802    40.615802    40.615802    -190.8177   -123.93483   -155.49397   -293.02431   -13316.958    232.37563 
    7900    40.614071    40.614071    40.614071   -62.814506    -179.3342   -47.023971    37.914647   -13319.654    238.59408 
    7950    40.610522    40.610522    40.610522     61.91862    100.38714    136.28653   -50.917809   -13320.447    241.13365 
    8000    40.612416    40.612416    40.612416    54.480615    36.677358    96.889371    29.875117   -13318.108    237.59574 
    8050    40.616739    40.616739    40.616739   -201.42892   -220.49972   -266.56184   -117.22521   -13317.484     237.3978 
    8100    40.613917    40.613917    40.613917   -29.516087   -62.473189    8.6103831   -34.685456   -13318.824    240.98117 
    8150    40.611079    40.611079    40.611079    233.41268     250.2191    199.26147    250.75748   -13316.499    237.46563 
    8200    40.615557    40.615557    40.615557   -73.482497   -143.76325    121.83238   -198.51662   -13318.206    241.75524 
    8250    40.618041    40.618041    40.618041   -99.554299    28.475224   -164.46411   -162.67401    -13314.28    235.13872 
    8300    40.614975    40.614975    40.614975    28.031927   -144.03934    205.83186    22.303256   -13316.211    239.85171 
    8350    40.611951    40.611951    40.611951    171.74974    263.70158    140.68604    110.86162   -13316.616    241.61323 
    8400    40.614453    40.614453    40.614453    143.17086  -0.11537715    138.95256     290.6754   -13313.361    236.28983 
    8450    40.618979    40.618979    40.618979   -283.99859   -222.64095   -181.34927   -448.00554   -13317.732     245.7156 
    8500    40.615661    40.615661    40.615661   -29.771671   -69.689884    -99.93417    80.309039    -13315.56    242.47643 
    8550     40.61192     40.61192     40.61192    275.83701    274.34212    321.67168    231.49724   -13315.123     242.6027 
    8600    40.616597    40.616597    40.616597   -150.21221    -307.5939    22.330695   -165.37342   -13317.089    247.35868 
    8650     40.61938     40.61938     40.61938   -70.949903   -188.44591   -23.889919  -0.51388247   -13313.832    242.01927 
    8700    40.618511    40.618511    40.618511   -118.97868   -41.616921   -90.616415   -224.70272   -13314.804    244.84642 
    8750    40.615356    40.615356    40.615356    184.70792    24.093517    267.47839    262.55184   -13312.664    241.65958 
    8800     40.61578     40.61578     40.61578    49.124551    51.019324    85.170428    11.183902   -13313.827    244.86054 
    8850    40.617841    40.617841    40.617841   -30.004023   -14.969104    14.218623   -89.261589    -13314.23    246.57563 
    8900    40.618905    40.618905    40.618905   -196.67237   -69.287145   -267.14581   -253.58416   -13315.482    249.94202 
    8950    40.616633    40.616633    40.616633    113.56155     17.70615    205.62112    117.35737   -13312.174    244.47327 
    9000    40.617981    40.617981    40.617981   -5.3782871   -96.290796    102.10605   -21.950111   -13315.903    252.62496 
    9050    40.620148    40.620148    40.620148   -48.644761    26.770246   -95.187336   -77.517195   -13311.498    245.02404 
    9100    40.620057    40.620057    40.620057   -49.592958   -174.28861   -33.121107    58.630846   -13312.283    247.47347 
    9150     40.61758     40.61758     40.61758    150.26405    225.47259    101.73932    123.58025   -13310.095    244.16108 
    9200     40.61774     40.61774     40.61774    72.268147    41.329583    38.217779    137.25708   -13311.689    248.16871 
    9250    40.619622    40.619622    40.619622   -84.083887   -149.79255    -69.87264   -32.586469   -13311.349    248.42467 
    9300    40.619538    40.619538    40.619538    119.50181    125.80622     23.83651    208.86271   -13311.853    250.31265 
    9350    40.620623    40.620623    40.620623   -23.026387   -212.93313    47.062092    96.791877   -13310.946    249.45277 
    9400    40.621651    40.621651    40.621651   -110.30374    55.349363   -308.53971   -77.720873    -13310.94    250.34293 
    9450    40.620796    40.620796    40.620796    119.80518    22.147835    168.09362    169.17409   -13308.678    246.86507 
    9500    40.621436    40.621436    40.621436   -77.654363   -94.095478   -169.62014    30.752526   -13312.361    254.89143 
    9550    40.620956    40.620956    40.620956    80.176844   -81.439503    171.10941    150.86063   -13310.642     252.4677 
    9600    40.623082    40.623082    40.623082   -100.37971   -50.707541   -83.798674   -166.63292   -13311.014    254.06807 
    9650     40.62368     40.62368     40.62368   -96.708169   -111.18675   -146.71085   -32.226906   -13309.976    252.94982 
    9700    40.621786    40.621786    40.621786    25.766695   -101.68196    193.85198   -14.869939   -13311.217    256.23031 
    9750    40.621617    40.621617    40.621617    63.783347    45.223363    18.202269    127.92441   -13309.015    252.84887 
    9800    40.623567    40.623567    40.623567    30.108544   -256.64207    218.38384    128.58387   -13308.817     253.3361 
    9850    40.625018    40.625018    40.625018   -209.09391   -204.87145   -333.00963   -89.400642    -13310.94    258.31262 
    9900    40.622237    40.622237    40.622237    148.31384    127.49748    211.31408    106.12996   -13307.278    252.08567 
    9950    40.623383    40.623383    40.623383     1.582774    69.834119   -163.62004    98.534248   -13310.401     258.9926 
   10000     40.62607     40.62607     40.62607   -49.067764   -32.888182    31.781308   -146.09642   -13306.221    251.76572 
   10050    40.625601    40.625601    40.625601   -111.26613   -260.75667   -93.751589    20.709871   -13309.037    258.07207 
   10100     40.62165     40.62165     40.62165    194.77386    28.814092    505.48434    50.023147   -13308.396    257.68142 
   10150    40.623957    40.623957    40.623957    148.65111    67.804204    36.673761    341.47535   -13305.783    253.47093 
   10200    40.629076    40.629076    40.629076   -266.31898   -507.92354   -161.58297   -129.45043     -13308.7    259.95316 
   10250    40.626239    40.626239    40.626239    139.51768    308.09578    15.774635    94.682613    -13303.86    251.42496 
   10300    40.624167    40.624167    40.624167     -32.4434   -82.799664   -62.479318    47.948784   -13309.107    262.41275 
   10350    40.623612    40.623612    40.623612     175.4361    204.33298      258.726     63.24931   -13305.282     255.8423 
   10400    40.627102    40.627102    40.627102   -209.12009   -222.42107   -245.20351   -159.73569   -13309.194    264.24465 
   10450    40.626953    40.626953    40.626953   -37.296466   -132.87675     82.48944   -61.502083   -13306.088    259.05202 
   10500    40.625844    40.625844    40.625844     3.606221    -58.26973   -86.758565    155.84696   -13306.912    261.45961 
   10550    40.625595    40.625595    40.625595    111.78184    112.94411    309.47861   -87.077194    -13304.68    257.95671 
   10600    40.628278    40.628278    40.628278   -8.4171661     70.80722   -24.293744   -71.764974    -13304.87    259.13252 
   10650    40.629525    40.629525    40.629525    -76.00165    29.818683    -84.45566   -173.36797   -13304.625    259.46901 
   10700    40.627011    40.627011    40.627011    47.009139   -16.427123    162.61651   -5.1619706   -13306.004    262.94252 
   10750    40.625683    40.625683    40.625683    101.81504    128.92511    169.09554    7.4244807   -13304.619    261.05812 
   10800    40.628883    40.628883    40.628883   -57.759356   -232.59692   -42.288746     101.6076   -13305.472    263.48864 
   10850    40.630171    40.630171    40.630171   -214.60569     -342.753   -101.34117    -199.7229   -13305.818    264.95585 
   10900    40.625775    40.625775    40.625775    151.63751    78.462207    158.15176    218.29857   -13303.888    262.00642 
   10950    40.625825    40.625825    40.625825    156.99311    351.87784    28.857647    90.243849   -13304.334    263.65212 
   11000    40.629465    40.629465    40.629465   -4.6147152   -257.73613    122.77483    121.11715   -13303.002    261.85318 
   11050    40.631044    40.631044    40.631044   -216.10871   -397.60634   -158.54736   -92.172443   -13305.477     267.4096 
   11100    40.628304    40.628304    40.628304   -8.2088922    -27.43093   -7.8096948    10.613949   -13304.539    266.35772 
   11150    40.626833    40.626833    40.626833    47.524497   -24.750529    171.35739   -4.0333658   -13304.416    266.89007 
   11200    40.628827    40.628827    40.628827    66.135866   -26.759252    -54.27607    279.44292   -13302.796     264.5124 
   11250    40.631237    40.631237    40.631237   -205.72997   -313.74178   -196.51809   -106.93004   -13303.694    267.01032 
   11300    40.627988    40.627988    40.627988    145.36804    303.85977    46.112924    86.131426   -13301.625    263.75624 
   11350    40.627598    40.627598    40.627598    123.42655    49.406004     151.7312    169.14245     -13302.5    266.19717 
   11400    40.631013    40.631013    40.631013   -77.358293   -166.48749    -50.58186   -15.005531   -13302.024    266.01716 
   11450    40.632363    40.632363    40.632363   -19.472944    -90.11872   -33.678407    65.378293    -13300.91    264.60553 
   11500    40.630696    40.630696    40.630696   -3.0508462   -160.00149    48.513397    102.33555   -13301.475    266.43476 
   11550    40.628804    40.628804    40.628804    126.34517    150.27522    126.02328    102.73703   -13302.117    268.41079 
   11600    40.630261    40.630261    40.630261    73.233627   -189.57979    117.34552    291.93515   -13300.928    266.82904 
   11650    40.634013    40.634013    40.634013   -181.24677   -102.18677   -93.849952   -347.70358   -13302.663    270.90194 
   11700    40.633111    40.633111    40.633111   -58.957529   -187.11382   -111.76711    122.00834   -13300.459     267.3539 
   11750    40.630416    40.630416    40.630416    24.711564   -45.483729    126.59345   -6.9750275   -13302.282    271.58763 
   11800     40.63046     40.63046     40.63046    26.762155   -93.700409     19.32279    154.66408   -13302.153    272.05155 
   11850    40.633042    40.633042    40.633042   -87.038853   -104.27361    -134.4311   -22.411855   -13300.574    269.69782 
   11900    40.633192    40.633192    40.633192   -79.570443    23.165684   -28.753296   -233.12372   -13299.843    268.98867 
   11950    40.631173    40.631173    40.631173    118.26227     10.00073    122.41582    222.37025   -13301.134    272.18158 
   12000    40.632786    40.632786    40.632786   -78.056303    59.459661   -129.93546   -163.69311   -13301.306    273.20595 
   12050    40.633253    40.633253    40.633253   -112.85073   -227.21485   -134.45662    23.119281   -13301.911    275.06268 
   12100    40.631762    40.631762    40.631762    74.823908    125.98572   -51.757588     150.2436   -13300.219    272.47072 
   12150    40.632564    40.632564    40.632564    51.699905    67.557455    36.367176    51.175083   -13299.354    271.46837 
   12200    40.635215    40.635215    40.635215   -52.400902   -178.48675   -65.642467    86.926515   -13298.614    270.70756 
   12250    40.635432    40.635432    40.635432   -130.77979   -126.65134   -32.035334   -233.65269   -13301.017    276.02303 
   12300    40.632938    40.632938    40.632938    135.49607    51.613656    68.905016    285.96953   -13298.193     271.2239 
   12350      40.6338      40.6338      40.6338    110.79204   -4.0624609    156.24311    180.19546   -13298.862    273.17917 
   12400    40.636491    40.636491    40.636491   -84.226133   -156.34843   -53.223318   -43.106656   -13298.516    273.16508 
   12450     40.63608     40.63608     40.63608   -105.43112   -113.94969    31.671273   -234.01495   -13299.057    274.85802 
   12500     40.63349     40.63349     40.63349    73.301941   -126.24504     99.61075    246.54011   -13299.132    275.65091 
   12550    40.634765    40.634765    40.634765    108.36807    158.23465    4.7940989    162.07545   -13297.624     273.3763 
   12600    40.638009    40.638009    40.638009   -209.13169   -344.18259   -95.649934   -187.56254   -13298.598     275.8979 
   12650    40.635318    40.635318    40.635318    42.289504    47.830192   -45.030418    124.06874   -13299.196    277.68473 
   12700    40.634776    40.634776    40.634776    50.474438   -38.278257    52.429299    137.27227    -13298.83    277.60061 
   12750    40.637413    40.637413    40.637413   -54.674044    116.52329   -89.556189   -190.98924   -13297.222    275.11887 
   12800    40.637637    40.637637    40.637637    17.392318    -212.4068    113.15086     151.4329   -13296.433    274.21775 
   12850    40.636444    40.636444    40.636444   -3.2089293    27.118558   -64.830864    28.085518   -13296.615    275.18459 
   12900    40.635496    40.635496    40.635496    112.85919   -16.130395    171.77843    182.92953   -13296.632    275.83382 
   12950     40.63761     40.63761     40.63761    70.575063    60.800672    54.946595    95.977923   -13296.897    276.95357 
   13000    40.639634    40.639634    40.639634   -170.17992   -259.99103   -351.17303    100.62431   -13298.108    279.90085 
   13050    40.637291    40.637291    40.637291   -3.4885987   -69.042692    144.65744   -86.080541    -13297.37    279.07051 
   13100    40.635236    40.635236    40.635236    285.64911    315.25233    260.62272    281.07229   -13293.252    271.69647 
   13150    40.639057    40.639057    40.639057   -181.74363   -167.99126   -151.01727   -226.22236   -13298.159     281.7789 
   13200     40.63981     40.63981     40.63981    56.183701   -181.40784    247.79395      102.165   -13294.232    274.76961 
   13250    40.638489    40.638489    40.638489   -86.426982   -235.51017   -189.17544    165.40466   -13297.241    281.17201 
   13300    40.635856    40.635856    40.635856    92.943918    58.114107    243.30267    -22.58502   -13296.341    280.00382 
   13350    40.637821    40.637821    40.637821   -11.807637   -71.060899   -55.137929    90.775916   -13297.248    282.32932 
   13400    40.640089    40.640089    40.640089   -244.51189   -222.86359   -325.95106     -184.721   -13296.377    281.21349 
   13450    40.637708    40.637708    40.637708    224.67057    299.08332    228.42859     146.4998   -13293.736    276.66879 
   13500    40.638508    40.638508    40.638508   -35.183139   -224.25489   -23.668273    142.37375    -13294.82     279.3269 
   13550    40.638004    40.638004    40.638004   -29.545736   -110.31045    48.517033   -26.843796   -13296.986    284.07303 
   13600    40.637313    40.637313    40.637313    2.9985382    -20.30025   -156.28401    185.57988   -13296.215    283.12797 
   13650    40.638396    40.638396    40.638396   -14.068008   -114.53994    18.101605    54.234306   -13294.578    280.50422 
   13700     40.63977     40.63977     40.63977   -24.028045   -31.566892   -88.182613     47.66537   -13294.035    279.99381 
   13750     40.63924     40.63924     40.63924    52.050265    -17.10691   -89.977532    263.23524   -13293.941    280.34795 
   13800    40.638391    40.638391    40.638391    110.32958    153.57904  -0.92167679    178.33139   -13292.726    278.53424 
   13850    40.638572    40.638572    40.638572     76.64713   -45.554201    116.22915    159.26645   -13294.325    282.15374 
   13900    40.640473    40.640473    40.640473     9.791836   -57.548615    19.475116    67.449007   -13293.875     281.8037 
   13950    40.642547    40.642547    40.642547   -155.24301   -131.91731   -131.80256   -202.00915   -13295.158    284.80494 
   14000     40.64039     40.64039     40.64039   -35.655012   -332.61646     52.87647    172.77495   -13293.769    282.62806 
   14050    40.638549    40.638549    40.638549    49.507167    87.248983    4.9390984    56.333419   -13295.744    286.96311 
   14100    40.639947    40.639947    40.639947      2.72087    13.003139   -31.598315    26.757785   -13294.216    284.51509 
   14150    40.641101    40.641101    40.641101    30.233658   -3.9348283    187.21131   -92.575504   -13291.686    280.12516 
   14200    40.641083    40.641083    40.641083   -50.158484   -149.02153   -41.156181    39.702255   -13294.162    285.40899 
   14250    40.641189    40.641189    40.641189    22.345014    12.646576   -142.41608    196.80455   -13294.206    285.98202 
   14300    40.641404    40.641404    40.641404    104.07924    43.143855    68.220708    200.87317   -13290.024    278.38251 
   14350    40.641892    40.641892    40.641892    -1.845087   -72.708735   -198.09654    265.27002   -13293.086    284.79306 
   14400    40.641417    40.641417    40.641417   -36.180675   -153.97295   -44.451724    89.882649   -13295.188     289.3449 
   14450    40.640686    40.640686    40.640686    108.74009    143.41713    101.92335    80.879783   -13291.498    282.67855 
   14500    40.643262    40.643262    40.643262   -14.583012    32.320591   -48.607513   -27.462113   -13292.327    284.74998 
   14550    40.642986    40.642986    40.642986   -37.790055   -226.65181     65.67136     47.61028   -13292.161    284.89494 
   14600    40.640718    40.640718    40.640718    64.243243    64.196799   -6.1570565    134.68999   -13292.745    286.48662 
   14650    40.641474    40.641474    40.641474    18.583595    65.058129   -126.14258    116.83524   -13292.072    285.64295 
   14700    40.643283    40.643283    40.643283   -80.770125     20.17634   -145.49623   -116.99048   -13293.395    288.65391 
   14750      40.6432      40.6432      40.6432    18.825638    12.131751   -5.8742923    50.219456    -13291.05    284.57408 
   14800    40.641828    40.641828    40.641828    59.688144     13.38137   -6.9829497    172.66601   -13291.847    286.56654 
   14850    40.641895    40.641895    40.641895    66.260735    -31.36407    59.560317    170.58596   -13291.946     287.1986 
   14900    40.644253    40.644253    40.644253    -137.8918   -28.810621   -283.00416   -101.86061   -13293.074    289.82247 
   14950    40.643903    40.643903    40.643903   -25.902299   -149.35746   -19.989706     91.64027   -13291.409    287.03537 
   15000    40.641649    40.641649    40.641649     121.2001    369.62337   -105.35529    99.332208    -13291.13    286.92694 
   15050    40.640804    40.640804    40.640804    124.25808    130.95532    266.91166   -25.092751   -13290.189    285.52842 
   15100    40.643721    40.643721    40.643721    68.421529    56.283599    34.445267    114.53572    -13289.81    285.21211 
   15150    40.646227    40.646227    40.646227   -260.38134   -424.20211   -211.45708   -145.48484   -13291.683    289.25668 
   15200    40.641762    40.641762    40.641762    130.30459    204.55067    116.31639    70.046715   -13290.562    287.49797 
   15250    40.641099    40.641099    40.641099    98.566659     46.09651    79.674937    169.92853   -13292.078    290.84329 
   15300    40.644544    40.644544    40.644544   -118.84699    75.931577   -140.47862   -291.99393   -13292.477    292.02294 
   15350    40.645904    40.645904    40.645904   -177.19528   -169.86276   -274.56886   -87.154236   -13291.589    290.70199 
   15400    40.643297    40.643297    40.643297    83.933268    152.76898      41.9908    57.040018   -13289.785    287.61095 
   15450    40.643212    40.643212    40.643212   -47.128333    -3.393349   -127.31612   -10.675524   -13293.994    296.15045 
   15500    40.644556    40.644556    40.644556   -10.913815    130.34848   -50.513648   -112.57628   -13289.964    288.73837 
   15550    40.645592    40.645592    40.645592   -114.97909   -134.85099   -47.571431   -162.51484   -13290.329    289.82883 
   15600    40.643746    40.643746    40.643746    55.880874    222.32778   -81.345277    26.660114   -13290.832    291.18802 
   15650    40.643304    40.643304    40.643304    147.72957    187.86622    99.284361    156.03812   -13288.079    286.24089 
   15700    40.645435    40.645435    40.645435   -95.613541    108.29415   -140.73087    -254.4039   -13291.127    292.51058 
   15750    40.645221    40.645221    40.645221   -119.59063   -210.43333     -83.1876   -65.150955    -13290.72    292.09127 
   15800     40.64282     40.64282     40.64282    128.44945    151.43527   -10.250141    244.16322   -13290.004    291.06987 
   15850    40.643562    40.643562    40.643562    255.12946    184.87633    204.18276    376.32928    -13286.28     284.2209 
   15900    40.648933    40.648933    40.648933   -203.49251    -85.01199   -224.27456   -301.19097   -13289.703    291.20079 
   15950    40.647235    40.647235    40.647235   -177.93799   -277.47371   -130.23204   -126.10822   -13291.204    294.46058 
   16000    40.641642    40.641642    40.641642    253.28201    245.03511    116.57843    398.23248   -13290.572    293.59034 
   16050     40.64468     40.64468     40.64468    44.585677   -2.5265583    193.21688   -56.933291   -13289.491    291.84188 
   16100    40.648092    40.648092    40.648092   -96.521565   -56.646929   -213.35102   -19.566745   -13287.606    288.53645 
   16150    40.646183    40.646183    40.646183   -124.85479    -223.7641    -140.8099   -9.9903647   -13291.657    296.70436 
   16200    40.643683    40.643683    40.643683    260.25256    311.88632    121.74351    347.12785   -13286.817    287.67145 
   16250    40.647248    40.647248    40.647248   -64.881933    27.348632   -187.98853   -34.005901   -13289.246    292.70305 
   16300    40.647707    40.647707    40.647707   -300.11993   -413.03993   -163.64314    -323.6767   -13292.628    299.56755 
   16350    40.643982    40.643982    40.643982     184.8353    291.46572    92.583257    170.45693   -13288.662    292.21654 
   16400    40.646359    40.646359    40.646359   -120.05301   -36.129501   -117.08587   -206.94367   -13290.463    296.02097 
   16450    40.646194    40.646194    40.646194     131.3871    117.35014    123.33839    153.47277   -13286.527    288.71751 
   16500    40.645997    40.645997    40.645997    19.115891    199.68744   -44.688078   -97.651693   -13287.923    291.72469 
   16550    40.645018    40.645018    40.645018      139.161    245.82592    67.598466     104.0586   -13286.999    290.23117 
   16600    40.646961    40.646961    40.646961   -47.628543   -26.188985   -115.06211   -1.6345282   -13288.658    293.73898 
   16650    40.647639    40.647639    40.647639   -163.65753   -132.37627   -199.92358   -158.67272   -13289.088    294.86789 
   16700    40.644928    40.644928    40.644928    90.328838    3.7104478    156.31857     110.9575   -13289.441    295.84883 
   16750    40.645008    40.645008    40.645008    66.487621    308.01568   -9.2102034   -99.342608   -13287.397    292.18604 
   16800    40.646982    40.646982    40.646982   -28.647079    -1.732685   -113.97574    29.767187   -13288.147    293.92404 
   16850    40.647575    40.647575    40.647575   -113.98103   -112.42947   -158.39772   -71.115905   -13289.385     296.6021 
   16900     40.64558     40.64558     40.64558    185.06392    171.88758    257.47412    125.83005   -13286.361    291.02729 
   16950    40.646624    40.646624    40.646624   -8.3386466    105.91063   -153.59331    22.666735   -13288.359    295.16891 
   17000    40.647892    40.647892    40.647892     -84.9798   -202.79434   -84.437064    32.292003   -13288.971    296.61817 
   17050    40.647433    40.647433    40.647433   -41.121248    62.970544    -258.0537    71.719408   -13287.587    294.20613 
   17100    40.646208    40.646208    40.646208    51.590538   -157.36983    181.58593    130.55551   -13288.503    296.24409 
   17150     40.64691     40.64691     40.64691   -65.900093    88.764333   -136.20971    -150.2549   -13288.567    296.63092 
   17200    40.647071    40.647071    40.647071   -5.7301942    85.350031   -56.817588   -45.723026   -13287.799    295.40475 
   17250    40.647511    40.647511    40.647511    -25.19417   -189.67004    87.685232    26.402299   -13287.151     294.4074 
   17300    40.646197    40.646197    40.646197    51.128973   -28.626207   -66.967949    248.98108   -13286.795    293.97096 
   17350    40.645704    40.645704    40.645704     25.76403    133.32117   -41.976564    -14.05252   -13287.693    295.95127 
   17400    40.646821    40.646821    40.646821    88.993293   -51.853742    109.37425    209.45937   -13287.471    295.76596 
   17450    40.649304    40.649304    40.649304    -91.48287    7.8513218   -111.95574   -170.34419   -13287.294    295.65469 
   17500     40.64965     40.64965     40.64965   -125.92975   -340.24098    26.244848   -63.793135   -13288.019    297.29323 
   17550    40.646417    40.646417    40.646417    4.3014998   -46.704835   -108.84987     168.4592   -13288.223    297.92335 
   17600    40.644359    40.644359    40.644359    139.68143    106.22348    162.31823    150.50258   -13287.957    297.64168 
   17650    40.647422    40.647422    40.647422    14.878034    216.79361   -132.52787   -39.631644   -13285.756    293.60247 
   17700    40.650624    40.650624    40.650624   -138.79927   -55.326369   -197.14582   -163.92561   -13288.721    299.56013 
   17750    40.649172    40.649172    40.649172   -36.150917    61.241998    19.197546    -188.8923    -13286.87    296.19526 
   17800    40.646619    40.646619    40.646619    134.11957     266.8086    61.829198    73.720902   -13285.681    294.11104 
   17850    40.648224    40.648224    40.648224   -10.097739   -112.46807   -4.1572798    86.332135   -13287.112    297.09284 
   17900    40.649757    40.649757    40.649757   -213.19533    -135.9982   -465.20502   -38.382757   -13288.333    299.66476 
   17950    40.646153    40.646153    40.646153     133.7404    157.47713    242.56937    1.1747135   -13286.412    296.14748 
   18000    40.646559    40.646559    40.646559    169.63043    205.26381    36.418296    267.20919   -13287.075    297.62351 
   18050    40.652159    40.652159    40.652159   -295.84138   -172.97238   -283.00239   -431.54937    -13288.39     300.3592 
   18100    40.650501    40.650501    40.650501    -73.75406   -73.999733    -130.0967   -17.165743   -13285.795    295.52623 
   18150    40.646245    40.646245    40.646245    96.166344    155.87866   -60.233594    192.85397   -13287.652    299.30984 
   18200    40.646927    40.646927    40.646927    175.47057    206.98394     341.3466   -21.918825   -13285.156    294.66771 
   18250    40.652093    40.652093    40.652093   -179.84718   -56.152416   -468.95038   -14.438737   -13286.688    297.81787 
   18300     40.65108     40.65108     40.65108   -146.48119   -204.13115   -120.05816   -115.25425   -13286.354    297.34563 
   18350    40.647339    40.647339    40.647339    152.34576    345.38026    116.05076   -4.3937254   -13287.164    299.08915 
   18400    40.648314    40.648314    40.648314    39.840227    111.98087    -97.70683    105.24664   -13284.387    293.89244 
   18450    40.649518    40.649518    40.649518   -43.171992   -2.8361551     129.5971   -256.27692   -13286.612    298.36329 
   18500    40.648505    40.648505    40.648505    101.24795    218.24174    15.561833     69.94029    -13284.19    293.83806 
   18550    40.648958    40.648958    40.648958   -52.247421   -4.6820598   -196.79381    44.733607   -13288.345    302.03487 
   18600    40.649113    40.649113    40.649113   -56.733612   -3.5033343   -90.042583    -76.65492   -13286.397    298.41916 
   18650    40.648364    40.648364    40.648364    68.655145    224.00438   -188.23487    170.19593   -13286.073    297.94127 
   18700    40.650336    40.650336    40.650336   -80.376999   -141.46978   -13.513316     -86.1479   -13285.705    297.38366 
   18750    40.650298    40.650298    40.650298   -128.58808   -83.145517    -205.1903   -97.428425   -13287.988     301.9554 
   18800    40.646816    40.646816    40.646816    138.77851    312.50042    83.938646     19.89647   -13284.734    295.80138 
   18850    40.648234    40.648234    40.648234    30.728254   -38.662071   -7.3471006    138.19393   -13286.842    300.01921 
   18900    40.650992    40.650992    40.650992    -42.95928    148.55719   -127.39375   -150.04128   -13285.424    297.41421 
   18950    40.650288    40.650288    40.650288   -100.85335    -181.3983    62.860203   -184.02196   -13286.265    299.17496 
   19000    40.647024    40.647024    40.647024    214.95262    284.83887    51.056801    308.96218   -13285.026    296.90714 
   19050    40.649705    40.649705    40.649705   -81.133724   -129.00732    75.547217   -189.94107   -13286.857    300.57186 
   19100    40.651126    40.651126    40.651126   -101.32617   -31.477654   -154.66723   -117.83362    -13287.34    301.62988 
   19150    40.650514    40.650514    40.650514   -61.937819   -59.029845   -54.942506   -71.841107    -13286.17    299.48627 
   19200    40.648958    40.648958    40.648958   -40.202422     28.23678   -47.031317   -101.81273   -13287.908    302.96654 
   19250    40.648297    40.648297    40.648297    193.92933    110.86583    160.24061    310.68154   -13283.866     295.2575 
   19300    40.653967    40.653967    40.653967   -319.65063   -433.94692   -265.61363   -259.39133   -13288.426    304.19497 
   19350    40.650697    40.650697    40.650697   -50.380578    75.039162    -108.3705   -117.81039   -13284.214    296.15027 
   19400    40.645481    40.645481    40.645481    233.31821   -13.523612    276.96417    436.51408   -13286.245    300.18916 
   19450    40.648108    40.648108    40.648108    86.601651    177.74298     85.95445   -3.8924808   -13284.204    296.34544 
   19500    40.652051    40.652051    40.652051   -87.655979    -108.3931   -28.882256   -125.69258   -13283.979    296.00928 
   19550    40.652947    40.652947    40.652947   -162.69022   -207.64374   -247.02321   -33.403704   -13286.868    301.69673 
   19600    40.648603    40.648603    40.648603    123.89806     187.6444    253.36595   -69.316182   -13284.234    296.69118 
   19650    40.646314    40.646314    40.646314    152.06679    299.51493    114.99572    41.689733    -13285.08    298.41695 
   19700    40.648757    40.648757    40.648757   -6.5061867   -21.901854    105.41324   -103.02995   -13285.998    300.27426 
   19750    40.650718    40.650718    40.650718   -105.49055   -89.223316   -108.47253   -118.77579   -13285.718     299.8116 
   19800    40.650581    40.650581    40.650581  -0.49329861    115.55627    120.12138   -237.15754   -13285.414    299.30153 
   19850    40.649939    40.649939    40.649939   -90.391231   -73.085082   -203.69606    5.6074539   -13286.062    300.63334 
   19900    40.648117    40.648117    40.648117    37.872772    145.97849    105.26909   -137.62926   -13286.943    302.41409 
   19950    40.648134    40.648134    40.648134   -71.534231   -120.29811   -29.231516   -65.073071    -13286.23    301.10262 
   20000    40.648392    40.648392    40.648392    206.27109     236.8314    298.12899    83.852874   -13283.071    295.05319 
Loop time of 597.956 on 4 procs for 20000 steps with 4000 atoms

Pair  time (%) = 375.968 (62.8756)
Neigh time (%) = 0 (0)
Comm  time (%) = 154.321 (25.8081)
Outpt time (%) = 1.04077 (0.174055)
Other time (%) = 66.6259 (11.1423)

Nlocal:    1000 ave 1000 max 1000 min
Histogram: 4 0 0 0 0 0 0 0 0 0
Nghost:    4235 ave 4235 max 4235 min
Histogram: 4 0 0 0 0 0 0 0 0 0
Neighs:    70000 ave 72653 max 67302 min
Histogram: 1 0 1 0 0 0 0 1 0 1
FullNghs:  0 ave 0 max 0 min
Histogram: 4 0 0 0 0 0 0 0 0 0

Total # of neighbors = 280000
Ave neighs/atom = 70
Neighbor list builds = 0
Dangerous builds = 0
unfix 1

# Store final cell length for strain calculations
variable tmp equal "lx"
variable L0 equal ${tmp}
variable L0 equal 40.6483922577475
print "Initial Length, L0: ${L0}"
Initial Length, L0: 40.6483922577475

######################################
# DEFORMATION
reset_timestep	0

fix		1 all npt temp 300 300 1 y 0 0 1 z 0 0 1 drag 1
variable srate equal 1.0e10
variable srate1 equal "v_srate / 1.0e12"
fix		2 all deform 1 x erate ${srate1} units box remap x
fix		2 all deform 1 x erate 0.01 units box remap x

# Output strain and stress info to file
# for units metal, pressure is in [bars] = 100 [kPa] = 1/10000 [GPa]
# p2, p3, p4 are in GPa
variable strain equal "(lx - v_L0)/v_L0"
variable p1 equal "v_strain"
variable p2 equal "-pxx/10000"
variable p3 equal "-pyy/10000"
variable p4 equal "-pzz/10000"
fix def1 all print 100 "${p1} ${p2} ${p3} ${p4}" file Al1.eam.fs.def1.txt screen no

# Use cfg for AtomEye
# dump 		1 all cfg 250 dump.tensile_*.cfg mass type xs ys zs c_csym c_peratom fx fy fz
# dump_modify 1 element Al

# Display thermo
thermo 	1000
thermo_style	custom step v_strain temp v_p2 v_p3 v_p4 ke pe press

run		20000
Memory usage per processor = 3.04301 Mbytes
Step strain Temp p2 p3 p4 KinEng PotEng Press 
       0            0    295.05319  -0.02368314 -0.029812899 -0.0083852874    152.51633   -13283.071    206.27109 
    1000         0.01    301.50988   0.65335757 0.0023734946  0.040408462    155.85387   -13283.925   -2320.4651 
    2000         0.02    301.39312     1.287643 -0.020410125 0.0014033429    155.79352   -13278.523   -4228.7873 
    3000         0.03    297.08106     1.903764 -0.032824072 -0.0045135911    153.56456   -13268.172    -6221.421 
    4000         0.04    298.66148    2.5445055  0.033778704  0.037010058     154.3815   -13258.223   -8717.6477 
    5000         0.05    301.19171    3.1276593  0.022999585  0.055372935     155.6894   -13246.234   -10686.773 
    6000         0.06    293.90218    3.6869601 -0.0017507995  -0.04876057    151.92136   -13226.729   -12121.496 
    7000         0.07    293.12083     4.295548   0.00484267 -0.018741935    151.51747   -13208.187   -14272.162 
    8000         0.08    297.51119    4.8405086   0.03297672  0.019940971     153.7869   -13190.066   -16311.421 
    9000         0.09    299.90818    5.4014734  0.033859091 0.0093173659    155.02593   -13168.706   -18148.833 
   10000          0.1    300.72513    5.9633603 0.0068624964 0.0081389887    155.44822   -13144.275   -19927.873 
   11000         0.11    299.97893    6.4676754 -0.019035911 -0.028130303    155.06251   -13116.826   -21401.697 
   12000         0.12    291.96554     6.947103 0.0022161909 0.0015750599    150.92029   -13083.376   -23169.648 
   13000         0.13    298.82119    7.4376398 -0.029892625 -0.0014980496    154.46405   -13055.545   -24687.497 
   14000         0.14    290.78192    7.7739784 -0.018391636 0.00024523942    150.30847   -13018.072   -25852.773 
   15000         0.15    304.02056    7.2650055 -0.071123596  0.034185168    157.15167   -12990.627   -24093.557 
   16000         0.16    359.91317    3.4550027  0.011224552  0.079797756    186.04319   -13007.653   -11820.083 
   17000         0.17    379.69442    2.2146934  0.060914119 0.0058934643    196.26834   -13021.827   -7605.0034 
   18000         0.18    407.81479    1.3546732   0.13564015  0.061893527    210.80408   -13050.677   -5174.0228 
   19000         0.19    404.68701    1.0785285 -0.049953746 -0.010254662     209.1873   -13069.318   -3394.4004 
   20000          0.2    410.43872    1.1150869 -0.084432827 -0.058750672    212.16042    -13092.73   -3239.6782 
Loop time of 431.005 on 4 procs for 20000 steps with 4000 atoms

Pair  time (%) = 364.385 (84.543)
Neigh time (%) = 0.515136 (0.11952)
Comm  time (%) = 52.6203 (12.2087)
Outpt time (%) = 0.0216079 (0.00501338)
Other time (%) = 13.4635 (3.12374)

Nlocal:    1000 ave 1012 max 982 min
Histogram: 1 0 0 0 0 1 0 0 1 1
Nghost:    3723.25 ave 3736 max 3709 min
Histogram: 1 0 0 1 0 0 0 1 0 1
Neighs:    68902.8 ave 71691 max 65731 min
Histogram: 1 0 0 1 0 0 0 1 0 1
FullNghs:  0 ave 0 max 0 min
Histogram: 4 0 0 0 0 0 0 0 0 0

Total # of neighbors = 275611
Ave neighs/atom = 68.9027
Neighbor list builds = 85
Dangerous builds = 0

######################################
# SIMULATION DONE
print "All done"
All done
