LAMMPS (28 Jun 2014)
# Input file for uniaxial tensile loading of single crystal aluminum
# Mark Tschopp, November 2010

# ------------------------ INITIALIZATION ----------------------------
units 		metal
dimension	3
boundary	p	p	p
atom_style	atomic
variable latparam equal 4.05

# ----------------------- ATOM DEFINITION ----------------------------
lattice		fcc ${latparam}
lattice		fcc 4.05
Lattice spacing in x,y,z = 4.05 4.05 4.05
region		whole block 0 10 0 10 0 10
create_box	1 whole
Created orthogonal box = (0 0 0) to (40.5 40.5 40.5)
  1 by 2 by 2 MPI processor grid
lattice 	fcc ${latparam} orient x 1 0 0 orient y 0 1 0 orient z 0 0 1
lattice 	fcc 4.05 orient x 1 0 0 orient y 0 1 0 orient z 0 0 1
Lattice spacing in x,y,z = 4.05 4.05 4.05
create_atoms	1 region whole
Created 4000 atoms

# ------------------------ FORCE FIELDS ------------------------------
pair_style	eam/alloy
pair_coeff	* * Al99.NegFRho.ZeroRhoR.PosPhiR.eam.alloy Al

# ------------------------- SETTINGS ---------------------------------
compute csym all centro/atom fcc
compute peratom all pe/atom

######################################
# EQUILIBRATION
reset_timestep	0
timestep 0.001
velocity all create 300 12345 mom yes rot no
fix 1 all npt temp 300 300 1 iso 0 0 1 drag 1

# Set thermo output
thermo 1000
thermo_style custom step lx ly lz press pxx pyy pzz pe temp

# Run for at least 10 picosecond (assuming 1 fs timestep)
run 20000
Memory usage per processor = 3.04301 Mbytes
Step Lx Ly Lz Press Pxx Pyy Pzz PotEng Temp 
       0         40.5         40.5         40.5    2818.7389    2769.6058    2857.2698    2829.3412   -13434.416          300 
    1000    40.562749    40.562749    40.562749    875.20843    863.70143    847.60456     914.3193   -13355.572    165.19194 
    2000    40.576755    40.576755    40.576755    267.28784     205.3983    292.57773    303.88748   -13350.814    178.59855 
    3000    40.585607    40.585607    40.585607    109.54746    23.929722     207.7982    96.914454   -13344.433    189.25908 
    4000     40.59339     40.59339     40.59339    58.186552    16.921708    28.116161    129.52179   -13335.049    194.10389 
    5000    40.598242    40.598242    40.598242    189.63955    259.06375    249.32086    60.534032   -13328.725    204.62481 
    6000    40.605374    40.605374    40.605374    90.077424    127.29383   -24.082225    167.02067   -13321.815    213.50733 
    7000    40.612798    40.612798    40.612798   -5.5742637      14.4156    67.448356   -98.586748   -13316.315     224.3735 
    8000    40.617008    40.617008    40.617008    128.79882    139.01197    191.44046    55.944019   -13311.349    235.26065 
    9000     40.62339     40.62339     40.62339    10.868419   -111.04757    117.63382    26.019009   -13309.741    251.45597 
   10000    40.631104    40.631104    40.631104   -17.637817   -49.500839    125.55336   -128.96598   -13300.616     251.6898 
   11000    40.634283    40.634283    40.634283   -17.162857   -73.171774   -3.6261414    25.309344    -13298.42    263.77154 
   12000    40.638174    40.638174    40.638174    -71.59713   -10.806265   -119.09437   -84.890757   -13295.808    273.37614 
   13000    40.645409    40.645409    40.645409     -198.755   -299.14572   -154.08922   -143.03006   -13291.856    278.62455 
   14000    40.646162    40.646162    40.646162   -75.653251       -66.83   -99.515483   -60.614269   -13287.454    281.24869 
   15000    40.646705    40.646705    40.646705    109.35519    27.693702    177.85044    122.52141   -13284.118    284.21106 
   16000    40.646823    40.646823    40.646823    327.94769    496.80733    269.74169    217.29405    -13282.36    288.53466 
   17000    40.650821    40.650821    40.650821    134.95376    160.61772    161.63381    82.609749   -13281.807    293.59561 
   18000    40.650696    40.650696    40.650696    194.34357    205.56554    251.30999    126.15517   -13281.866    298.33771 
   19000     40.65149     40.65149     40.65149    113.12275    287.82982    51.036121   0.50232015   -13282.237    302.22126 
   20000    40.652444    40.652444    40.652444    197.74006    138.67771    106.42188     348.1206   -13279.733    299.27994 
Loop time of 202.49 on 4 procs for 20000 steps with 4000 atoms

Pair  time (%) = 181.526 (89.6466)
Neigh time (%) = 0 (0)
Comm  time (%) = 15.3045 (7.55813)
Outpt time (%) = 0.00248528 (0.00122735)
Other time (%) = 5.65764 (2.79403)

Nlocal:    1000 ave 1000 max 1000 min
Histogram: 4 0 0 0 0 0 0 0 0 0
Nghost:    4235 ave 4235 max 4235 min
Histogram: 4 0 0 0 0 0 0 0 0 0
Neighs:    70000 ave 72653 max 67302 min
Histogram: 1 0 1 0 0 0 0 1 0 1
FullNghs:  0 ave 0 max 0 min
Histogram: 4 0 0 0 0 0 0 0 0 0

Total # of neighbors = 280000
Ave neighs/atom = 70
Neighbor list builds = 0
Dangerous builds = 0
unfix 1

# Store final cell length for strain calculations
variable tmp equal "lx"
variable L0 equal ${tmp}
variable L0 equal 40.6524439741058
print "Initial Length, L0: ${L0}"
Initial Length, L0: 40.6524439741058

######################################
# DEFORMATION
reset_timestep	0

fix		1 all npt temp 300 300 1 y 0 0 1 z 0 0 1 drag 1
variable srate equal 1.0e10
variable srate1 equal "v_srate / 1.0e12"
fix		2 all deform 1 x erate ${srate1} units box remap x
fix		2 all deform 1 x erate 0.01 units box remap x

# Output strain and stress info to file
# for units metal, pressure is in [bars] = 100 [kPa] = 1/10000 [GPa]
# p2, p3, p4 are in GPa
variable strain equal "(lx - v_L0)/v_L0"
variable p1 equal "v_strain"
variable p2 equal "-pxx/10000"
variable p3 equal "-pyy/10000"
variable p4 equal "-pzz/10000"
fix def1 all print 20 "${p1} ${p2} ${p3} ${p4}" file  Al99.NegFRho.ZeroRhoR.PosPhiR.eam.alloy.def1.txt screen no

# Use cfg for AtomEye
#dump 		1 all cfg 250 dump.tensile_*.cfg id type xs ys zs c_csym c_peratom fx fy fz
#dump_modify 1 element Al

# Display thermo
thermo 	1000
thermo_style	custom step v_strain temp v_p2 v_p3 v_p4 ke pe press

run		20000
Memory usage per processor = 3.04301 Mbytes
Step strain Temp p2 p3 p4 KinEng PotEng Press 
       0 -8.7392376e-16    299.27994 -0.013867771 -0.010642188  -0.03481206    154.70119   -13279.733    197.74006 
    1000         0.01    296.74604   0.65642521   0.03822971 -0.026221157    153.39139   -13275.886   -2228.1126 
    2000         0.02    297.28097    1.2904296  0.037193385  0.012335894     153.6679   -13270.806   -4466.5296 
    3000         0.03    297.17053    1.9037972 -0.013591801 -0.0028003896    153.61081   -13262.641   -6291.3502 
    4000         0.04    298.49077    2.5026823 -0.0035774966  0.013484907    154.29326    -13252.57   -8375.2989 
    5000         0.05    294.94667    3.0970551  0.018912702 -0.021204732    152.46127   -13237.454   -10315.877 
    6000         0.06    301.98154    3.7258937  0.044083754  0.019732849    156.09768   -13225.351   -12632.368 
    7000         0.07    294.47757     4.274738 -0.0080580887  0.037682863    152.21879   -13203.351   -14347.876 
    8000         0.08    298.17634    4.8238637 -0.013097601 -0.026131748    154.13073   -13184.845   -15948.781 
    9000         0.09    291.74362    5.3626671 -0.021154409 -0.033846318    150.80558   -13158.875   -17692.221 
   10000          0.1    298.57054    5.9344068  0.036222752 -0.031804036    154.33449   -13137.526   -19796.085 
   11000         0.11     297.7708    6.4707745  0.029405876 -0.015118105     153.9211   -13110.068   -21616.874 
   12000         0.12    294.21916     6.924871 -0.013669778 0.0050932054    152.08521   -13078.943   -23054.315 
   13000         0.13    293.18931    7.4057206 -0.038498933 -0.0076297664    151.55287   -13046.993   -24531.973 
   14000         0.14    286.03301    7.6875497  0.029024347 -0.070382608     147.8537   -13010.042   -25487.305 
   15000         0.15     302.2338    7.4704473  -0.03564221  0.015036079    156.22807   -12984.043   -24832.804 
   16000         0.16    393.04274    3.0377089 -0.016537251 -0.030834768    203.16824   -13023.604   -9967.7897 
   17000         0.17    384.42154    2.9033653  0.087153763  0.063067573    198.71185   -13027.657   -10178.622 
   18000         0.18    389.40147    2.5016939  0.047608131  0.042922772    201.28603    -13039.17   -8640.7494 
   19000         0.19     379.5527    2.4441256  0.028450836 -0.0087503374    196.19509   -13044.313   -8212.7537 
   20000          0.2    371.84094     2.532959  0.043216493 -0.013908298    192.20879   -13048.652   -8540.8905 
Loop time of 389.745 on 4 procs for 20000 steps with 4000 atoms

Pair  time (%) = 294.059 (75.4491)
Neigh time (%) = 0.500857 (0.128509)
Comm  time (%) = 67.1819 (17.2374)
Outpt time (%) = 0.00376421 (0.000965815)
Other time (%) = 27.9993 (7.18401)

Nlocal:    1000 ave 1020 max 982 min
Histogram: 1 1 0 0 0 0 0 1 0 1
Nghost:    3755 ave 3792 max 3732 min
Histogram: 2 0 0 0 0 1 0 0 0 1
Neighs:    68761.2 ave 70980 max 67299 min
Histogram: 1 1 0 0 1 0 0 0 0 1
FullNghs:  0 ave 0 max 0 min
Histogram: 4 0 0 0 0 0 0 0 0 0

Total # of neighbors = 275045
Ave neighs/atom = 68.7613
Neighbor list builds = 80
Dangerous builds = 0

######################################
# SIMULATION DONE
print "All done"
All done
