
# ----------------------- ATOM DEFINITION ----------------------------
lattice		fcc ${latparam}
lattice		fcc 4.05
Lattice spacing in x,y,z = 4.05 4.05 4.05
region		whole block 0 14 0 14 0 14
create_box	1 whole
Created orthogonal box = (0 0 0) to (56.7 56.7 56.7)
  1 by 2 by 2 MPI processor grid
lattice 	fcc ${latparam} orient x 1 0 0 orient y 0 1 0 orient z 0 0 1
lattice 	fcc 4.05 orient x 1 0 0 orient y 0 1 0 orient z 0 0 1
Lattice spacing in x,y,z = 4.05 4.05 4.05
create_atoms	1 region whole
Created 10976 atoms

# ------------------------ FORCE FIELDS ------------------------------

#****************USE THIS TO TEST******************
pair_style	eam/rad
pair_coeff 			* * Al99.PC0.05.eam.alloy.rad.txt Al # pc = 0.5

# ------------------------- SETTINGS ---------------------------------
compute csym all centro/atom fcc
compute peratom all pe/atom

######################################
# EQUILIBRATION
reset_timestep	0
timestep	0.001 # default
# timestep	0.0001 # tiny time step
velocity all create 300 12345 mom yes rot no
fix 1 all npt temp 300 300 1 iso 0 0 1 drag 1

# Set thermo output
thermo 50
# thermo 1 # debug mode

# thermo_style custom step lx ly lz press pxx pyy pzz pe temp
# IMPLEMENTATION HERE

# VERSION add rad variables .v1 .v2
# thermo_style custom step lx ly lz press pxx pyy pzz pxxrad pyyrad pzzrad pe temp

# VERSION ublb separation .v3
thermo_style custom step lx ly lz press pxx pxxub pxxlb pyy pyyub pyylb pzz pzzub pzzlb pe temp

# Run for at least 10 picosecond (assuming 1 fs timestep)
run 	20000 # default
Memory usage per processor = 8.09922 Mbytes
Step Lx Ly Lz Press Pxx Pxxub Pxxlb Pyy Pyyub Pyylb Pzz Pzzub Pzzlb PotEng Temp 
       0         56.7         56.7         56.7    2496.5196    2454.4963    245.71825   -240.26454    2519.8171    245.71825   -240.26454    2515.2453    245.71825   -240.26454    -36879.36          300 
      50    56.784859    56.784859    56.784859    902.09853    998.94619    1261.6172    776.44155    861.90863    1124.0973    638.79572    845.44078    1107.8374    622.55962   -36603.807    104.79024 
     100    56.885066    56.885066    56.885066   -4306.9915   -4305.3116   -4056.3312   -4534.0683   -4298.2013   -4048.8125   -4526.6018   -4317.4617   -4068.2232    -4546.079   -36693.797    169.48504 
     150    56.794165    56.794165    56.794165    499.51447    541.75107    789.93767    306.48788    473.93504    723.04123    239.52406    482.85731    731.70287    248.13303   -36629.356    124.08705 
     200    56.732407    56.732407    56.732407    2848.6888    2841.3292    3084.5449    2597.3514    2840.1988    3082.8093    2595.4776    2864.5384    3108.3618    2621.0035   -36648.826    138.99861 
     250    56.791772    56.791772    56.791772      162.813    148.62455    386.64574   -96.865786    202.83345    440.83665   -42.627349    136.98101    375.19954   -108.32429   -36659.532    147.00042 
     300    56.837362    56.837362    56.837362   -1784.9005   -1752.9576   -1515.6893    -1996.572   -1802.5487   -1564.6051   -2045.4728   -1799.1952   -1561.9284   -2042.8035   -36664.505    151.36635 
     350    56.798011    56.798011    56.798011   -343.34692   -308.44403     -67.2096   -550.25065   -330.12831   -87.476217   -570.41692   -391.46843   -150.25956   -633.25921   -36678.755    161.95211 
     400    56.760076    56.760076    56.760076    1513.7688    1531.0644    1776.4306    1290.9623    1473.5106    1718.2951    1232.8223    1536.7313    1782.0493    1296.5132   -36663.857    152.32121 
     450    56.792604    56.792604    56.792604    91.791936    92.441628    334.87933   -148.57295    98.298277    341.32903   -142.17153    84.635902    327.43067   -156.04159   -36662.091     151.7901 
     500    56.822718    56.822718    56.822718   -1101.2584   -1095.7792   -854.34723   -1336.0552    -1101.353   -861.08696   -1342.7823   -1106.6429    -865.2274   -1346.8862   -36659.955    151.20573 
     550    56.799016    56.799016    56.799016   -88.274292   -55.419951    185.70235   -297.39121   -186.17716     55.41342   -427.68987   -23.225762    218.10407   -265.04954    -36661.39    153.02203 
     600    56.774001    56.774001    56.774001    857.57303    848.55267    1090.7892    606.25195    914.11147    1156.2689    671.66109    810.05495    1052.8299    568.19791   -36667.442    158.21602 
     650    56.792244    56.792244    56.792244     201.8819     184.0495    426.97881   -56.613182    162.26066    405.04239   -78.576729    259.33554     502.8291    19.153836   -36659.397    153.38348 
     700    56.815679    56.815679    56.815679   -863.47295    -853.2323     -612.065   -1094.1389   -843.12697   -600.60689   -1082.7853   -894.05959   -653.43365   -1135.5686   -36660.483    155.08104 
     750     56.79954     56.79954     56.79954   -138.86796   -140.35725    102.03839    -380.9426   -131.66214    110.36436   -372.73009   -144.58448    97.138394   -385.91802   -36662.181    157.14995 
     800    56.779969    56.779969    56.779969    742.36954    749.83042    993.35608    509.12933     683.4876    926.08729    441.76822    793.79061    1036.3388    552.09124   -36659.129    155.93389 
     850    56.794346    56.794346    56.794346    128.98364    137.93134    380.00211   -103.44326    125.01194    366.22735   -117.19998    124.00765    365.80653   -117.70247   -36660.641    157.89694 
     900    56.812641    56.812641    56.812641   -590.64813   -559.07401   -317.12599   -799.52705   -679.07684   -437.35109   -919.82258   -533.79353   -291.66015   -774.15291   -36653.023    153.45426 
     950    56.802032    56.802032    56.802032   -175.40181   -249.95955   -9.0947949   -492.02185   -91.157204    150.46436   -332.58927   -185.08868    56.350122    -426.6278   -36659.638    159.02515 
    1000    56.785499    56.785499    56.785499     503.1207    491.57291    735.32424    251.45358     526.3538    769.76754    285.82601    491.43541    734.44694    250.53365   -36661.883    161.54845 
    1050    56.794444    56.794444    56.794444    217.86986    245.38872    486.73065    3.2392441    189.89687    431.70367   -51.894629    218.32398    460.15495   -23.393174   -36650.753    154.62858 
    1100    56.810552    56.810552    56.810552   -541.47595   -515.72507   -274.09715   -756.57675   -560.96887   -319.08207   -801.53476    -547.7339   -305.26929   -787.78584   -36659.361    161.63198 
    1150    56.802078    56.802078    56.802078   -155.40533   -149.31378    92.741161   -390.20891   -181.61257    61.199555   -421.75055   -135.28965    106.62552   -376.28368   -36660.918    163.66699 
    1200     56.78923     56.78923     56.78923    470.87317    467.50457    711.62381    227.73041    502.22108    745.79721    261.81024    442.89385    686.44498    202.49773   -36647.038    154.82072 
    1250    56.797682    56.797682    56.797682    119.32274    114.49144    356.36432   -126.87995    122.82547    364.56375   -118.68083    120.65131    363.57941   -119.69426   -36655.956    162.04526 
    1300     56.80929     56.80929     56.80929   -374.65972   -426.63131   -185.57993   -668.30059   -322.91615   -81.894556   -564.62311   -374.43171   -132.75136   -615.44507   -36649.032     158.1179 
    1350    56.802656    56.802656    56.802656   -131.67424   -123.69907     118.0482   -364.88374   -151.29544    91.051759   -391.92852   -120.02822    122.79552   -360.20886   -36656.521    164.32607 
    1400    56.792253    56.792253    56.792253     333.7521    344.99452    588.01425    104.34791    360.26481    602.20907    118.57963    295.99696    537.82423    54.090521    -36652.58    162.50957 
    1450    56.799093    56.799093    56.799093    138.39769    156.43558    399.18773   -84.178033     59.32061    303.43977   -179.93968    199.43688    442.25408   -41.107835   -36647.828    160.08835 
    1500    56.809623    56.809623    56.809623   -395.03134   -333.37419   -92.421199   -574.99885   -398.55063   -157.92101   -640.44832   -453.16919   -211.21016   -693.83094   -36653.387    164.97469 
    1550     56.80318     56.80318     56.80318    24.732353  -0.91167841    241.98945   -241.10453    26.036089    270.01663    -213.0246    49.072649    291.67103   -191.39678   -36645.151    160.10329 
    1600    56.796324    56.796324    56.796324    208.86929    252.66911    494.24025    10.948838    194.83136    436.30121   -47.005919     179.1074    420.55183   -62.818048   -36654.461    167.63598 
    1650    56.801231    56.801231    56.801231      70.0307    61.680608    303.84588   -179.44011    43.508846    286.08049   -197.12858    104.90265    347.67264   -135.49062   -36645.671    162.38179 
    1700    56.808933    56.808933    56.808933   -270.45522   -273.87922   -31.590017   -514.30196   -228.37574     12.26872   -470.50582   -309.11069   -67.544279   -550.37122   -36647.885    164.89895 
    1750    56.804735    56.804735    56.804735   -59.461898   -86.922931    154.73626   -328.18363    -98.30916    144.17697   -338.79475    6.8463964    250.05257   -232.92634    -36649.31    166.85283 
    1800    56.798162    56.798162    56.798162    226.71822    267.17271    510.44013    27.169465    252.39978    494.67137    11.305414    160.58216    402.94896   -80.442322   -36645.527    165.14801 
    1850    56.801538    56.801538    56.801538    119.80034    140.63399    381.40191   -101.80786    113.67452    355.06701   -128.14605    105.09252    346.63766   -136.55702    -36644.63    165.47466 
    1900    56.809836    56.809836    56.809836   -214.86873   -185.47779     56.32839   -426.39418   -211.01714    31.259387   -451.41525   -248.11124   -6.3217802   -489.06143   -36646.288    167.59094 
    1950    56.808329    56.808329    56.808329   -144.12638   -141.83771    101.10245   -381.64558   -135.50137    107.44182   -375.33048   -155.04008     87.48371   -395.38361   -36643.579    166.63493 
    2000    56.800682    56.800682    56.800682    212.40029    151.34683      393.379   -89.786498    259.31391    501.55257    18.289373    226.54014    468.44806   -14.832348   -36643.425    167.49409 
    2050    56.802521    56.802521    56.802521    100.65499    75.249048    317.32722   -165.75518    56.190505     298.7999   -184.37514    170.52543    412.42982   -70.692054   -36643.741     168.6746 
    2100    56.809571    56.809571    56.809571    -146.8269   -80.335646    162.08543   -320.65348   -127.99001    112.61574   -370.17901   -232.15503    9.9208121    -472.8514   -36640.815    167.57057 
    2150    56.808895    56.808895    56.808895   -165.27325   -191.13675    51.398649   -431.41423   -166.54245    76.909121   -405.87308   -138.14054    104.53092   -378.21588   -36644.098    170.83838 
    2200    56.801313    56.801313    56.801313    222.08781    255.75477    496.99625    13.668193     244.7199    486.25285    2.8692124    165.78875    407.87104   -75.510155   -36634.804     165.2564 
    2250    56.803543    56.803543    56.803543    119.59981    150.43417    392.67646   -90.351158    95.565628    336.71112   -146.35315    112.79964    355.19828   -127.89308   -36645.922    174.04965 
    2300    56.811357    56.811357    56.811357   -177.10421   -205.43945    35.624777   -447.17047   -186.68732    55.088152   -427.62383   -139.18586    102.28997   -380.52954   -36634.934    167.26935 
    2350    56.810834    56.810834    56.810834   -147.57357   -119.78179    122.14827   -360.44958   -148.60926    94.107909   -388.57004   -174.32964    68.032471   -414.69732   -36642.182    173.33274 
    2400    56.804038    56.804038    56.804038    197.44655    212.01527     455.7452    -27.46267     196.5496     437.0501   -46.124043    183.77479    425.35356   -57.833847   -36634.813    169.10765 
    2450    56.805659    56.805659    56.805659    99.580396    86.934756    328.01866   -155.01252    111.74025    354.08816   -128.99593    100.06618    341.88467   -141.18649   -36639.839    173.61106 
    2500    56.812136    56.812136    56.812136   -157.16811    -130.0075    113.20373    -369.3229   -133.15348    108.54832   -374.07854   -208.34334    34.374102   -448.24087   -36638.445    173.59141 
    2550    56.811276    56.811276    56.811276   -86.471514   -117.97122    123.09537   -359.62508   -107.48598    134.44419   -348.27867   -33.957338    208.00484   -274.72587   -36635.105    172.20581 
    2600    56.806512    56.806512    56.806512    84.228888    137.95082    380.43795   -102.62037    101.39973    345.15579   -137.90013    13.336109    255.44392   -227.68748   -36636.206    173.93935 
    2650    56.807459    56.807459    56.807459     189.9063    165.27678    407.82715   -75.210844    150.92293    393.50671   -89.601432    253.51919    495.81599    12.752408   -36630.259    170.70949 
    2700    56.814656    56.814656    56.814656   -194.41013   -148.31935    93.484053   -388.93601   -166.55308    76.110459   -406.35798   -268.35797   -26.488178   -508.99488   -36634.286     174.5138 
    2750     56.81318     56.81318     56.81318   -50.885643    -31.91255    209.19938   -273.37749   -72.238321    168.62194   -314.07515   -48.506057    193.44526   -289.25556   -36632.943    174.53856 
    2800    56.808273    56.808273    56.808273    120.07452    77.423285    320.40136   -162.54516    147.71871     389.7504    -93.18463    135.08155    376.67902   -106.31742   -36632.175    174.95634 
    2850    56.809386    56.809386    56.809386    64.598916    93.289406    334.72958   -148.07886    49.252297      291.458   -191.36892    51.255046    293.83701   -188.98209   -36635.363    178.17319 
    2900    56.814028    56.814028    56.814028   -55.129096   -78.864562    163.04408   -319.61359   -23.927303    218.24511   -264.41467   -62.595424    179.41206   -303.27281   -36628.162    174.06308 
    2950    56.814566    56.814566    56.814566   -136.69039   -121.09987    120.05568   -362.52548   -138.22883    103.10717    -379.5015   -150.74247    90.488188   -392.13673    -36632.76    178.27162 
    3000    56.810436    56.810436    56.810436    109.18596    170.82853    413.13132    -69.80764    82.313316    324.29048    -158.6745    74.416023    316.81166   -166.17815   -36627.321    175.39548 
    3050    56.811695    56.811695    56.811695    20.251311     45.62127    287.98164    -194.6951    28.352535    271.14943   -211.53564   -13.219872    229.22714   -253.57854   -36633.224    180.52378 
    3100    56.814668    56.814668    56.814668   -22.502512    59.902641    302.99468   -179.64031   -81.618592    161.04513   -321.61433   -45.791584    196.94301   -285.75398   -36625.036    175.72114 
    3150    56.814591    56.814591    56.814591   -35.232453   -56.415597    184.01492   -298.60294   -62.292386    180.18073   -302.37674    13.010624    255.25406    -227.3099   -36627.386    178.34874 
    3200    56.812239    56.812239    56.812239    90.408292    160.66081    403.24822   -79.480938    76.940756    317.78225   -165.08854    33.623312    275.04671   -207.71816   -36626.453    178.65798 
    3250    56.813104    56.813104    56.813104    22.961587     6.770234    249.03397   -233.68747    44.998436    286.63924   -196.10654    17.116089     259.0538   -223.72377   -36626.931    179.95943 
    3300    56.815222    56.815222    56.815222   -33.469201   -23.912364    217.52179   -265.08668   -21.628313    220.67899   -262.01413   -54.866925    186.34946   -296.24648    -36624.85    179.46152 
    3350     56.81547     56.81547     56.81547   -25.746731   -25.939475    215.78258   -266.84096   -66.221943    174.64153   -308.00773    14.921226    257.00459   -225.61672   -36626.345    181.48254 
    3400     56.81445     56.81445     56.81445    33.843209    20.163178    262.91529   -219.82365    3.6846816    245.81258   -236.96622    77.681767    318.90828   -163.88695   -36623.713      180.591 
    3450    56.815405    56.815405    56.815405    22.937435    74.244986    315.56637   -167.01835    6.2431304    248.79789   -233.83444    -11.67581    231.24977    -251.3726   -36623.977    181.74162 
    3500    56.817351    56.817351    56.817351   -84.758116   -7.0286601    233.77331   -248.64337   -112.68599    128.56724   -353.98041    -134.5597    107.24455   -375.25544   -36624.288     182.9346 
    3550     56.81621     56.81621     56.81621   -19.992649   -22.654179    220.04541   -262.53373    5.2074259    246.53462   -236.05768   -42.531193    199.21893   -283.39965   -36626.071    185.15775 
    3600    56.815602    56.815602    56.815602    62.134913    102.05969    344.34005   -138.32762     96.33748    338.92817   -143.86288   -11.992432     230.3258   -252.37651   -36619.622    181.57613 
    3650    56.817749    56.817749    56.817749   -21.981849   -32.824025    208.89576   -273.60746   -62.313942    180.24928   -302.29278    29.192421    271.27743   -211.24772   -36622.046    184.25338 
    3700    56.818585    56.818585    56.818585    20.576408     -9.14837    232.79758   -249.65094    58.205133    300.46605   -182.00846    12.672462    254.34325   -228.19825   -36617.535    182.04252 
    3750    56.818699    56.818699    56.818699   -43.632583    59.035682     301.0455    -181.4069   -90.581382    150.72544   -331.85204    -99.35205    143.29216   -339.20808   -36618.972    184.02075 
    3800    56.816887    56.816887    56.816887    83.562808    74.779099    316.37432   -166.23709    120.44089    362.12889   -120.51547    55.468432    298.06577   -184.59248    -36618.35    184.54917 
    3850    56.817924    56.817924    56.817924    -33.09368    62.598131    305.83649   -176.62623   -69.980935     172.2967   -310.19235   -91.898236    149.57986   -333.01609    -36619.45    186.29073 
    3900    56.818517    56.818517    56.818517    44.629959    -61.09072    179.05943   -303.59399    93.302172    334.62714   -148.01204    101.67842    342.92771   -139.63335   -36615.198    184.26597 
    3950    56.820277    56.820277    56.820277   -75.500498    80.567175    322.93891   -159.46696   -150.85782    91.899168   -390.50875   -156.21085    85.897232   -396.55937   -36618.567    187.59759 
    4000    56.818961    56.818961    56.818961   -3.7770912   -60.200129    181.02198    -301.4211    21.493653    263.04538   -219.43233    27.375202    268.36265   -214.09286   -36618.094    188.24366 
    4050    56.817582    56.817582    56.817582    73.757411    92.072684    334.50713    -148.0738    124.00241     366.2427   -116.38755    5.1971405    248.08271   -234.49569    -36614.79    186.87303 
    4100    56.819967    56.819967    56.819967    17.817512    66.644366    308.74498   -173.65319   -10.256969    230.55929   -251.87338   -2.9348596    238.50564   -243.96411    -36615.54     188.3738 
    4150    56.822251    56.822251    56.822251   -49.465144   -33.893451    207.85044   -274.45758  -0.32570531    241.19862   -241.12771   -114.17628     128.6994   -353.70036   -36612.746    187.36599 
    4200    56.821996    56.821996    56.821996   -33.529823    19.149617     261.3376   -221.07178   -32.741396    209.56559   -272.83573   -86.997689    154.23054   -328.15456   -36612.256    187.98551 
    4250    56.819964    56.819964    56.819964    50.098739    146.10926    387.93394   -94.656193    32.823337    274.98014   -207.44347   -28.636376    213.07428   -269.43168   -36614.199    190.32293 
    4300    56.820632    56.820632    56.820632    64.912277    62.766518    304.35623   -178.18144    87.491558    329.58373    -152.9655    44.478754    286.75203   -195.70624   -36609.728    188.13535 
    4350    56.823611    56.823611    56.823611    -58.39621   -31.140897    210.29467   -271.95277   -73.925314    167.75554   -314.54774   -70.122418    172.12432   -310.17133   -36613.227     191.5677 
    4400    56.823259    56.823259    56.823259   -9.0427375    78.854089    321.18778   -161.15861   -72.116352    170.30676   -312.04364    -33.86595    208.42456   -273.88503   -36609.141    189.65047 
    4450    56.822138    56.822138    56.822138    56.918326    59.648655    302.02905   -180.32946    46.011883    287.96816    -194.4328     65.09444     306.6624   -175.76769   -36609.657     190.9818 
    4500    56.822493    56.822493    56.822493     77.48494     81.01056    322.85829   -159.51531    30.516858    271.92121    -210.5354     120.9274     363.1063   -119.30642   -36607.546    190.45783 
    4550    56.824715    56.824715    56.824715   -83.059038   -83.381745    158.64043   -323.63232   -76.207965     165.7954    -316.4597   -89.587404    152.75359   -329.51109   -36610.122    193.23604 
    4600    56.823997    56.823997    56.823997    30.055534    45.312323     286.9246   -195.41723   -17.828612    223.50976   -258.84913    62.682891    302.99094   -179.41683   -36605.622    191.03117 
    4650    56.823985    56.823985    56.823985    10.785894    35.608394    276.84633   -205.49338   -53.049642    189.15023   -293.27001    49.798929    292.10012   -190.26775   -36607.771    193.50116 
    4700    56.825125    56.825125    56.825125   -35.181355   -79.387804    161.87618   -320.34589   -50.998502    191.21255   -291.02972    24.842242    266.78486   -215.42433   -36608.818    195.20666 
    4750    56.825408    56.825408    56.825408   -13.021697    32.129655    274.84578   -207.34981   -2.5216482    240.34284    -241.8382   -68.673097    173.58973   -308.64695   -36607.626    195.32824 
    4800    56.825224    56.825224    56.825224    26.421248    75.432699    317.33155   -164.92787   -48.484882    193.02561    -289.2097    52.315926     295.4507   -186.88219   -36603.167    193.15013 
    4850    56.825395    56.825395    56.825395    38.815424    47.281607     289.0928   -193.23848    15.986633    256.93044   -225.37946    53.178033    294.08704   -188.24967   -36603.314     194.2155 
    4900    56.826447    56.826447    56.826447    12.525212  -0.10950453    242.71935   -239.65044   -27.068108    214.41127   -267.86544    64.753248    306.44575    -175.8131   -36603.265    195.13621 
    4950    56.827025    56.827025    56.827025   -34.159233   -65.767832    175.40037    -306.8642    37.927447    278.90302   -203.26818   -74.637313    167.32628   -314.88037   -36602.003    195.20947 
    5000    56.826764    56.826764    56.826764    38.145329    59.881707    301.51089   -180.77249   -22.042354    220.41137   -261.78727    76.596634    318.22766   -164.00992     -36602.8    196.72743 
    5050    56.827639    56.827639    56.827639   -79.478654   -77.603486    163.08533   -319.08028   -78.354051    163.85554    -318.2319   -82.478424    159.60206   -322.59405   -36604.845    199.13332 
    5100    56.826552    56.826552    56.826552    17.012551    42.983495    286.28853   -195.91905   -17.871701    224.26902   -258.03684     25.92586     267.2059   -215.04119   -36601.642    197.83325 
    5150    56.826641    56.826641    56.826641    62.852475    47.628594    288.83623   -193.47811    85.596847    326.57522     -155.711    55.331985    297.78011     -184.527   -36599.148     197.0341 
    5200    56.828869    56.828869    56.828869   -100.09446   -34.194426    208.47145   -273.64265   -136.41262    104.93733    -377.2037   -129.67635    111.64855   -370.46566   -36602.107    200.07479 
    5250    56.828622    56.828622    56.828622    35.387857    20.353323    261.65547   -220.51274    64.423688    307.06172   -175.10542    21.386561    263.67814   -218.45115   -36598.621      198.576 
    5300    56.829253    56.829253    56.829253   -20.328524   -41.128295     199.7976   -282.36625    17.351121    258.51649   -223.60609   -37.208397    204.53138   -277.60397   -36599.584    200.21399 
    5350    56.830268    56.830268    56.830268   -6.7244489   -47.055805    195.17854   -286.91394   -7.6169841     234.6804   -247.44669    34.499442    277.22111   -204.85248   -36597.724    199.85127 
    5400    56.830263    56.830263    56.830263   -47.150556   -4.3288913    236.74776   -245.36498   -28.785953    212.79787   -269.23901   -108.33682    132.95146    -349.1566   -36597.505    200.66006 
    5450     56.82875     56.82875     56.82875    62.311852    29.596818    272.50011   -209.73387    80.504935    322.88391   -159.36557    76.833802    319.44764   -162.79737   -36594.218    199.28944 
    5500    56.829679    56.829679    56.829679    11.113108    56.462825    298.95739   -183.15039    13.029437    255.90514   -226.23061   -36.152938    204.45737    -277.7041   -36596.722    202.01252 
    5550    56.831164    56.831164    56.831164    10.212174    24.493259    266.50306   -215.58464    62.804326    305.91997   -176.08896   -56.661063    185.44727   -296.60867   -36593.796    200.90222 
    5600    56.831854    56.831854    56.831854   -43.200361     70.49338      313.165   -168.75042   -100.96228    140.26901   -341.70541   -99.132183    143.36031   -338.58285   -36595.792    203.26658 
    5650    56.829702    56.829702    56.829702    62.122766    66.922577    308.88499   -173.29441    76.931183    317.67349   -164.52108    42.514539    284.47438    -197.7647   -36591.352     201.0894 
    5700    56.830376    56.830376    56.830376    90.499452    118.91219    360.23042   -121.94091    88.140474    330.62678   -151.53395    64.445694    306.47121   -175.69031   -36590.971    201.76369 
    5750    56.833678    56.833678    56.833678   -53.949935   -67.386511    173.21747   -308.71963   -41.318186     199.0245   -282.94559   -53.145107    187.62325   -294.34682   -36590.789    202.59202 
    5800    56.833086    56.833086    56.833086   -17.443168    18.640278    260.07383   -221.89123     1.601541    243.07227   -238.89992   -72.571323    167.80436   -314.13991   -36591.628    204.12867 
    5850    56.831668    56.831668    56.831668    21.588045    104.69248    345.65848   -136.40825   -1.9532295     239.8828   -242.17708   -37.975117    201.93212   -280.12876   -36593.275    206.23968 
    5900    56.833042    56.833042    56.833042   -10.044456   -51.790523    190.64501   -291.29946   -26.983696    214.45293   -267.55666    48.640851    290.39763   -191.53981   -36592.862    206.89137 
    5950    56.835719    56.835719    56.835719   -95.641188   -11.295904     230.8825   -250.91512   -153.93025    87.722495   -394.03743   -121.69741    121.21783   -360.65132   -36591.107    206.60204 
    6000    56.835469    56.835469    56.835469   -28.910472   -55.322506    186.65869   -295.19325   -51.562022    190.58694   -291.26348    20.153111    262.27047   -219.54782   -36589.228    206.22335 
    6050    56.833792    56.833792    56.833792    4.4468802   -13.273139    228.68234   -253.22736   -14.786089    227.36147   -254.47326    41.399869    282.53382   -199.28337   -36591.988    209.11802 
    6100     56.83334     56.83334     56.83334    81.670586    156.31433    398.17963    -83.85862    72.355332    314.52049   -167.52327    16.342095    258.99747   -223.02546   -36585.851    205.73458 
    6150    56.836103    56.836103    56.836103    6.9606108    42.499517    284.17005   -197.70272   -95.351665    146.23174   -335.70366     73.73398    316.17633   -165.76611   -36583.229     204.8259 
    6200    56.837187    56.837187    56.837187   -85.683342   -58.746043    182.63755   -299.05553   -119.57313    121.51708   -360.25609   -78.730852    162.06833   -319.73018   -36587.826    209.01139 
    6250    56.835224    56.835224    56.835224    46.557464    11.000205    252.18117   -229.62096    102.03221    344.59219   -137.28697     26.63998    269.05095   -212.85916   -36586.464    208.98991 
    6300    56.835566    56.835566    56.835566    22.125043    17.103128    258.63652   -223.19481    33.197947    275.16306   -206.65537    16.074055    257.94864   -223.85139   -36587.504    210.66813 
    6350    56.837503    56.837503    56.837503    5.2271789    86.083859    329.37405   -152.46298   -79.903922    161.25862   -320.50717    9.5015994    250.89867   -230.93862   -36582.128    207.81466 
    6400    56.838923    56.838923    56.838923   -61.703902   -59.176325    181.52628   -300.17084    -74.08968    167.65316   -314.04747     -51.8457    190.88021    -290.8508   -36583.059    209.40881 
    6450    56.836761    56.836761    56.836761    56.396771    88.837311    329.86825   -151.96358    51.569539    291.51143   -190.45189    28.783464    269.77027   -212.20406   -36578.652    207.24096 
    6500    56.836108    56.836108    56.836108    49.211136   -24.838062    215.64224   -266.19353    91.962389    334.94071   -146.90444     80.50908    321.66353   -160.20621   -36585.172    212.76915 
    6550    56.838454    56.838454    56.838454   -1.2242697    86.582859    328.80787   -152.87215    -38.88591    202.49912   -279.27417   -51.369758    190.58709   -291.05148   -36580.595    210.47932 
    6600    56.839994    56.839994    56.839994   -59.870032   -17.199496    224.05565   -257.60661   -58.927804    181.57144     -300.092    -103.4828    137.58403   -344.08927   -36580.512    211.35667 
    6650    56.838715    56.838715    56.838715    -36.53991   -66.152555    174.89973   -306.93624   -66.132468    175.92348   -305.84562    22.665292    264.51519    -217.2401   -36583.116    214.11978 
    6700    56.837653    56.837653    56.837653    48.353054    83.638153    325.17062   -156.69499    91.985822    335.14586    -146.7359   -30.564814    211.50255    -270.3503   -36579.102    212.21985 
    6750    56.839513    56.839513    56.839513   -29.270936   -37.189601    204.78384   -276.89634   -78.341109    163.58212   -318.10232    27.717902    268.75928   -212.93784   -36581.904    215.12928 
    6800    56.841066    56.841066    56.841066   -27.690294    21.344941    262.67475   -218.92412   -26.669752    215.49658   -266.08157    -77.74607    164.19794   -317.45845   -36578.832    213.89257 
    6850    56.840841    56.840841    56.840841   -79.412144   -63.207777     178.1907   -303.38815   -119.94333    122.09758   -359.53912   -55.085321    186.59619   -295.04321   -36579.623     215.3783 
    6900    56.838307    56.838307    56.838307    125.62454    173.93467    415.23761   -66.615035    122.99403    363.32869   -118.56299    79.944913    321.82523   -160.11753    -36574.73    212.85514 
    6950    56.840922    56.840922    56.840922   -27.583068    8.5269478    249.42323   -232.25767   -93.896212    147.21955   -334.49252    2.6200617    244.45631   -237.28361   -36578.108    216.15684 
    7000     56.84355     56.84355     56.84355   -78.813867   -49.875381    192.83564   -288.68586   -48.257275     193.3993    -288.1315   -138.30894    102.57564   -378.93399   -36577.526    216.67301 
    7050    56.842369    56.842369    56.842369   -29.831921   -2.4035377     239.3864   -242.26357    0.4535994    242.51554   -239.11924   -87.545825    153.59624   -328.00908   -36574.636    215.55852 
    7100    56.841144    56.841144    56.841144    18.095139    5.3815645    247.75499    -233.9514    35.431048    278.01851   -203.67358    13.472803    256.02942   -225.62326   -36577.254    218.32475 
    7150    56.841853    56.841853    56.841853     74.02273    142.27436    384.19217   -97.516335    10.184172     252.3857    -229.3575    69.609655    311.15758   -170.51443   -36570.558    214.52697 
    7200    56.844136    56.844136    56.844136   -84.718317   -173.26202    68.095732   -413.31943    27.274815    268.64057   -212.84212   -108.16774    133.85916   -347.60233   -36575.306    218.79281 
    7250    56.842781    56.842781    56.842781    61.081133    74.973469    315.82536   -165.79775    8.7315841    250.25677   -231.36225    99.538347    340.12656   -141.48517   -36570.546    216.35732 
    7300    56.842824    56.842824    56.842824    9.9311418    40.584082    282.54826    -199.0697    15.125693    256.78292   -224.80704   -25.916349    215.24555   -266.41881    -36572.28    218.49125 
    7350    56.844445    56.844445    56.844445   -5.1000228    13.511658      255.873   -225.65753   -52.870357    188.15261   -293.31267     24.05863    265.77924   -215.68597   -36572.403    219.49535 
    7400    56.844932    56.844932    56.844932    6.7807896    -19.81658    220.81057   -260.67485    92.444764    333.98132   -147.64012   -52.285815    189.18778   -292.29474   -36567.925    217.25048 
    7450    56.845196    56.845196    56.845196   -33.953192   -47.871966    193.86895    -287.6109   -1.8206271      240.465   -241.11018   -52.166982    189.89573   -291.58607   -36570.389    219.89354 
    7500    56.844349    56.844349    56.844349    61.584437    128.99101     370.5282   -111.00775   -56.200387    185.09059   -296.47541    111.96268    353.38381   -128.11197   -36568.318    219.34903 
    7550    56.845377    56.845377    56.845377    -26.47981    11.161814    253.45579   -227.96084   -44.107721    197.28115   -284.13525   -46.493521    196.08903   -285.40466   -36569.707    221.23597 
    7600    56.845895    56.845895    56.845895    24.289188    17.957796    259.62924   -221.87597    17.051605     257.9955   -223.47784    37.858163    279.78162   -201.70824   -36567.298    220.44913 
    7650    56.845724    56.845724    56.845724   -4.6138572   -16.183617    225.22661   -256.24189    9.4486186     251.2029   -230.25556   -7.1065727    234.68119   -246.79003   -36566.614     220.8707 
    7700    56.845572    56.845572    56.845572     37.04861    90.512447    332.19613   -149.31188   -19.102755    223.14326   -258.37406    39.736137    280.88822   -200.63001   -36565.665    221.10437 
    7750    56.846259    56.846259    56.846259     31.87068    16.585386    258.00602   -223.48948     49.49833    289.91691   -191.64151    29.528323     270.7312   -210.78982   -36562.473    219.75672 
    7800    56.847283    56.847283    56.847283   -52.020832   -24.613647    215.81873   -265.54221   -62.853994    178.19163   -303.23027   -68.594854    172.10804     -309.331   -36569.616    225.69392 
    7850    56.847821    56.847821    56.847821   -53.068473   -155.14515    86.700174   -394.64634    29.182226    272.59949   -208.70139   -33.242494    208.68387   -272.67596   -36566.415     224.3339 
    7900    56.846915    56.846915    56.846915    6.4147915    123.26922    364.34393   -117.04246   -128.56465    112.02436    -369.3529    24.539801    265.83876   -215.55761   -36567.423    225.95089 
    7950    56.847204    56.847204    56.847204    2.6732696    5.7306465    248.35004   -233.12201   -22.913786    219.69323   -261.78613    25.202948    267.79699   -213.67277   -36563.023    223.73679 
    8000    56.848235    56.848235    56.848235   -19.302297   -39.483374     201.9641   -279.43297     47.61011     288.8723    -192.5533   -66.033628    176.07381   -305.29309   -36562.119     223.9973 
    8050    56.848381    56.848381    56.848381    2.5413274   -31.801816    210.44304    -270.9026   -42.517043    199.29999   -282.04154    81.942841    323.37886   -157.99573   -36564.746    226.74195 
    8100    56.849428    56.849428    56.849428   -13.064817    61.818735     302.7796   -178.52683   -9.9016425    231.41438   -249.94355   -91.111543    150.54919   -330.86218   -36560.412    224.57892 
    8150    56.849918    56.849918    56.849918   -1.5112566   -12.717261     228.8355   -252.51594    41.696862    283.52992   -197.74753    -33.51337    208.43335   -272.83047   -36559.674    224.94523 
    8200    56.849628    56.849628    56.849628   0.84488228    17.307874    258.96315   -222.34595    4.3877269    244.98644   -236.38175   -19.160954     221.7932   -259.51321   -36561.257    226.95346 
    8250    56.849403    56.849403    56.849403   -29.905704   -39.518304    202.45299   -278.97021   -10.896355    231.22405   -250.17208   -39.302452    202.07448   -279.28033   -36558.918    226.18667 
    8300    56.849121    56.849121    56.849121     52.03452    112.34156    354.01811   -127.39443    28.907556    270.93354   -210.39538     14.85444     256.2828   -225.12478   -36558.526    226.79595 
    8350    56.850498    56.850498    56.850498    1.1136224   -38.200408    202.01666   -279.23648    1.0060852    242.28817   -238.92118     40.53519    282.07872   -199.22893   -36559.113    228.09591 
    8400    56.852008    56.852008    56.852008    -49.73858    3.7715073    245.74674   -235.47078   -72.316596    169.83472   -311.34217   -80.670651    160.55487   -320.60141   -36560.144    229.70153 
    8450    56.852167    56.852167    56.852167   -46.970025   -86.744564    155.59608   -325.60901    33.550086    274.74032   -206.42416   -87.715597    154.04059   -327.20568   -36556.694    228.14968 
    8500    56.851005    56.851005    56.851005     80.66316    149.65051    390.94282   -90.369878    55.970375    296.66788   -184.64734    36.368592    277.91408   -203.37168   -36555.688     228.3191 
    8550     56.85178     56.85178     56.85178    43.098919    73.636639    314.32212   -166.99884    60.299207    302.17098   -179.08169   -4.6390878      236.022   -245.30964   -36553.166    227.41461 
    8600    56.853684    56.853684    56.853684   -62.527142   -32.620803    207.05327   -274.14682   -7.7784827    232.82289   -248.31411   -147.18214    93.773404   -387.40428   -36557.545    231.37648 
    8650    56.853352    56.853352    56.853352   -54.810131    -38.09181    203.49511   -277.64233   -97.230377    143.72781    -337.5362   -29.108205    212.72207   -268.39727   -36555.339    230.69017 
    8700    56.851777    56.851777    56.851777    57.351269    83.767126    325.27736   -155.92825     143.8738     385.4729   -95.739144   -55.587118    186.47546   -294.75338   -36555.655     231.7864 
    8750    56.852298    56.852298    56.852298     53.47167    157.20548    399.77563   -81.463259    49.977405    291.09383   -190.13238   -46.767879      194.624   -286.60249   -36553.086    230.84571 
    8800    56.854658    56.854658    56.854658    12.525858   -68.642565    172.22076   -308.93324     59.77739    302.02877   -179.00975    46.442749    287.98161   -193.16326   -36550.328    229.76459 
    8850    56.856032    56.856032    56.856032   -97.914841   -24.964722    216.45704   -264.57656   -165.74703    75.505527   -405.41693   -103.03277    137.85991   -343.21911   -36554.174    233.34105 
    8900    56.853011    56.853011    56.853011    86.985605    116.74187    359.04717   -122.16542    120.88361     362.8412   -118.34831    23.331331    265.17171   -216.05817   -36549.193    230.68843 
    8950    56.852752    56.852752    56.852752    43.310976     66.67455    308.94095   -172.29865    97.313596    336.87355   -144.32777   -34.055219    208.25395   -272.94619   -36554.393    235.21666 
    9000    56.856027    56.856027    56.856027   -34.744341   -12.770337    229.32328   -251.72581   -10.443599     232.5117   -248.71105   -81.019086     161.3779    -319.6856    -36549.71    232.76866 
    9050    56.857701    56.857701    56.857701   -98.795279   -90.378524    150.39704   -330.55168   -20.592726     221.8993   -259.04468   -185.41459    56.377319   -424.63773   -36549.926    233.78176 
    9100     56.85447     56.85447     56.85447    61.588367    95.269547    337.87305   -143.30586   0.21579166    243.18523   -238.00573    89.279762    331.02212   -150.17916   -36547.306    232.78602 
    9150    56.853832    56.853832    56.853832    104.62124    83.584872    325.45778   -155.65945    153.53306     396.0699   -85.086659    76.745781    317.26178   -163.93277    -36548.71    234.63202 
    9200    56.857402    56.857402    56.857402    -74.12141   -17.922546    223.82523    -257.1334   -113.43995    126.88269   -354.08327   -91.001733    150.88059   -330.10158   -36550.584    236.80488 
    9250    56.858281    56.858281    56.858281   -21.664656    12.531836    253.50398   -227.47542   -22.488838     219.1359    -261.9066   -55.036966    186.85398   -294.14173   -36544.417    233.30188 
    9300    56.857061    56.857061    56.857061   -14.670366    11.389467    253.22697   -227.72333   -14.238474    227.40673   -253.60703   -41.162092    200.97348   -280.02202   -36548.393    236.95215 
    9350    56.855451    56.855451    56.855451    179.03332    293.18646    535.28553     54.11259    98.503148    338.24947   -142.89085    145.41036    386.09261   -95.083711   -36542.077    233.34848 
    9400    56.858931    56.858931    56.858931   -48.330915   -80.119583    160.72914   -320.26547   -20.798809    220.34918   -260.65578   -44.074353     196.6092   -284.38931   -36543.424    235.13415 
    9450    56.860053    56.860053    56.860053   -62.019081    71.776319    311.72522   -169.22223   -177.68385    63.101935   -417.74493   -80.149714    161.77839   -319.12497   -36544.395    236.65916 
    9500    56.857363    56.857363    56.857363    22.144485      132.798    374.07907   -106.94334   -23.244274    217.67353   -263.33816    -43.12027    196.91087   -284.12632   -36544.959     237.8969 
    9550    56.856718    56.856718    56.856718    88.130772    6.5372717    247.90786   -233.22339    83.265386    323.76522   -157.30561    174.58966    415.73483   -65.338597   -36543.834     237.9386 
    9600    56.860512    56.860512    56.860512   -58.123824   -7.9858301    233.51853   -247.32559   -155.78403    85.087986   -395.70236   -10.601614    232.13248   -248.72412   -36545.919    240.24223 
    9650    56.860916    56.860916    56.860916   -93.302354   -46.686435    195.52554   -285.35624   -74.977827    166.29711   -314.54614    -158.2428    81.873422   -399.01011   -36542.017    238.32636 
    9700    56.857253    56.857253    56.857253    144.07492     194.7485    435.70193   -45.387406     9.211564    250.94103   -230.20739     228.2647    469.72635   -11.464217    -36538.83    236.90287 
    9750    56.858936    56.858936    56.858936    46.091304   -13.778146    227.08265   -253.85098    78.138092    319.62566   -161.28815    73.913966    314.89525   -166.05234   -36544.506    241.73059 
    9800    56.863063    56.863063    56.863063   -98.435868   -93.690357    145.80954   -334.91754   -144.10596    97.010609   -383.69252   -57.511289    183.08562   -297.71185   -36539.211    238.82299 
    9850    56.863398    56.863398    56.863398   -166.44632   -179.36678    63.604586   -417.08513   -189.96593    51.284241   -429.38823   -130.00627    112.40857   -368.23322   -36544.697    243.50753 
    9900    56.858424    56.858424    56.858424     154.6618    270.05072    511.74665    30.689719    39.171054     279.5918   -201.45868    154.76364    396.27874    -84.80726   -36537.051    238.94449 
    9950    56.859051    56.859051    56.859051    105.68897   -24.106795    217.55394   -263.49875    222.96105    464.55029   -16.411797    118.21267    360.03578   -121.01505   -36537.101    239.79416 
   10000    56.864491    56.864491    56.864491   -142.01079   -15.189103    226.64282   -253.89431   -194.73627    47.015363   -433.55713   -216.10699    24.886961   -455.78494   -36541.157    243.47305 
   10050    56.864017    56.864017    56.864017   -100.58665   -103.34204    137.69443   -343.08167   -148.12735    94.327274   -386.36229   -50.290552    190.40932    -290.2672   -36538.363    242.31793 
   10100    56.860065    56.860065    56.860065    99.031098    120.48734     363.4256   -117.48528    140.57911    381.20723   -99.678868    36.026836    278.59163    -202.3617   -36539.302    243.78778 
   10150    56.861316    56.861316    56.861316    94.920897    208.18636    449.46561   -31.413524    2.5628354     244.1454   -236.75298    74.013497    314.39014   -166.57539   -36534.772    241.40333 
   10200    56.866052    56.866052    56.866052   -160.16343   -259.04395    -16.85291   -497.46491   -103.60708     138.6844   -341.85943   -117.83925    123.70537    -356.9382   -36539.644     245.6404 
   10250    56.864812    56.864812    56.864812   -26.597891   -15.466019    226.62147     -254.008   -46.329533    194.22315   -286.45416   -17.998121    224.75347   -255.98078    -36533.43    242.06683 
   10300    56.861445    56.861445    56.861445    149.76929    126.29124    368.09029   -112.78646    141.06916    382.72185   -98.119278    181.94746    423.32472   -57.513045   -36533.981     243.2582 
   10350    56.862821    56.862821    56.862821    11.487024    51.906567    293.02528   -187.81402    56.814679    297.75905   -182.96465   -74.260174    166.07767   -314.75521    -36534.68    244.55298 
   10400    56.865893    56.865893    56.865893   -35.474758   -12.459707    228.80385   -251.82636   -17.783992     224.5213   -256.08876   -76.180575    163.95472   -316.68505   -36532.537    243.83525 
   10450    56.866326    56.866326    56.866326   -51.546655   -89.188483     150.7613   -329.83865   -32.574048    206.64676   -273.91197   -32.877432    208.89055   -271.64233   -36535.173    246.49081 
   10500    56.864493    56.864493    56.864493    47.091711    83.029365    323.36238   -157.42893    43.683905    284.52258   -196.26392    14.561862    256.25938   -224.50028   -36530.875    244.24843 
   10550    56.865536    56.865536    56.865536    13.125265   -9.8126416    231.15562   -249.44037   -31.079632    208.65202   -272.00299    80.268068     321.6124   -159.04674   -36534.847    247.83816 
   10600    56.867189    56.867189    56.867189   -40.285396   -58.533814    182.81652   -297.78365   -71.440551    170.09806   -310.45599    9.1181759    249.94147   -230.66945   -36529.547    244.88805 
   10650    56.866544    56.866544    56.866544   -18.510448   -60.434257    180.35061   -300.26617   -10.587505    230.62345   -249.96574    15.490418    256.30503   -224.39384   -36531.633    247.14421 
   10700    56.865061    56.865061    56.865061    33.536942    47.157644    289.56452   -191.09687    2.4967929    242.30805   -238.32362     50.95639    293.35189   -187.33328   -36534.489    249.94018 
   10750    56.867196    56.867196    56.867196   0.12503737   -8.5946339    233.71716   -246.88122   -34.294356    208.73511   -271.80972    43.264102    284.37264   -196.15342   -36530.161    247.66722 
   10800    56.869507    56.869507    56.869507   -99.133764   -105.07185    135.34753   -345.08071   -45.764678    195.43937   -285.03954   -146.56476    94.231244   -386.26485   -36530.212    248.48353 
   10850     56.86729     56.86729     56.86729  0.080019596    61.348077    302.21263   -178.38476   -60.368734    181.62301    -299.0016  -0.73928425    241.54146   -239.08373   -36529.742    248.92105 
   10900    56.866329    56.866329    56.866329    78.433456    76.985378     318.0348   -162.61895    118.89892    360.62121   -120.07514    39.416073    280.50367   -200.22462   -36528.432    248.76914 
   10950    56.869308    56.869308    56.869308   -57.767166    25.148891     268.4122   -212.11964   -105.80808    134.37688   -346.07636   -92.642312    148.83893   -331.74091   -36527.111     248.6038 
   11000    56.869779    56.869779    56.869779   -91.992592    -97.54218    142.97213   -337.47117    -5.355358    236.41684   -244.01532   -173.08024     68.48505   -412.01374   -36527.205    249.44124 
   11050     56.86616     56.86616     56.86616    177.64919    197.87623    437.33476   -43.362809    157.66529    399.10722   -81.530696    177.40605    417.63811   -63.049596    -36523.86    247.85071 
   11100    56.868122    56.868122    56.868122   -14.480279   -38.943133    201.87887   -278.68787    7.9216503    248.32249   -232.17657   -12.419354    228.78184   -251.76476   -36528.225    251.68765 
   11150    56.870895    56.870895    56.870895   -47.086327   -41.688967     198.5968   -281.78245    45.607891    286.72348   -193.67994   -145.17791    95.395374   -385.03369   -36524.672    249.94351 
   11200    56.870861    56.870861    56.870861   -104.78092   -135.90639    105.81678   -374.52379   -90.136313      149.281    -331.1032   -88.300072    152.71936   -327.68004   -36527.959    253.01625 
   11250    56.867992    56.867992    56.867992    80.906383   -4.3126116    237.13503   -243.36714    142.35539    384.57998   -96.023209    104.67637    348.49596   -132.13195   -36525.763    252.21917 
   11300     56.86846     56.86846     56.86846    65.605904    93.841189    335.58907   -145.03043    23.717776    265.08656   -215.44458    79.258747     320.0808   -160.53019   -36521.399    249.89766 
   11350    56.871106    56.871106    56.871106   -6.8129354     18.12323    259.43186   -221.06424    39.509997    279.95524   -200.37034   -78.072033     163.2315   -317.15274   -36522.876     251.6836 
   11400    56.872009    56.872009    56.872009   -51.276761   -42.002175    198.08152   -282.29264   -43.549156     198.8885   -281.48674   -68.278952    172.87355   -307.53404   -36522.258    251.99223 
   11450    56.869785    56.869785    56.869785    110.31365   -23.285011    217.39076   -263.07302    179.32469    421.10604   -59.401347    174.90128    415.36374   -65.251392   -36519.156    250.54758 
   11500    56.870827    56.870827    56.870827    9.5936307   -24.980564    216.30771   -264.18189     5.408319    245.13663   -235.31093    48.353137    289.15795   -191.28471   -36524.096    254.76989 
   11550    56.873401    56.873401    56.873401   -36.903003   -95.946526     146.4413   -333.95115    16.419421    256.78116   -223.45246   -31.181905      210.139   -270.25239    -36520.69    253.10383 
   11600    56.873767    56.873767    56.873767   -131.43001   -22.182242     219.0407   -261.21016   -228.87976    12.204867   -468.03293   -143.22802    97.856335   -382.33234   -36524.429    256.47714 
   11650    56.870768    56.870768    56.870768    39.895285    81.191456    323.51242    -157.0569    74.332659    315.19322   -165.19808    -35.83826    206.33366   -274.12029   -36519.263    253.56795 
   11700    56.870642    56.870642    56.870642    116.35714    45.884615    286.59365   -193.89559    212.79541    453.63448   -26.833564     90.39139    330.46184   -150.01777   -36520.309    255.04007 
   11750    56.874513    56.874513    56.874513   -63.424314   -126.60176     114.0679   -366.21429    -70.14658    171.81244   -308.41169    6.4753977     247.1986   -233.09638    -36516.31    252.94374 
   11800    56.875355    56.875355    56.875355   -46.467621   -124.81582    115.15521   -364.95587    17.302101    258.03963   -222.16093   -31.889145      208.185   -272.11195   -36517.383    254.42658 
   11850    56.872232    56.872232    56.872232    11.273582    5.6962853    246.41193    -233.9718   -58.665426    181.04209   -299.27092    86.789888    327.68192   -152.57589   -36523.065    259.15449 
   11900    56.871383    56.871383    56.871383    131.23855     122.7201    363.35405   -117.09558    134.17837    375.61738   -104.78283    136.81718     379.4152   -101.05515   -36515.889    254.80974 
   11950    56.875942    56.875942    56.875942   -58.773173   -89.044764    151.96113   -328.24202    46.925168    287.02166   -193.10252   -134.19992    104.90148   -375.36155   -36516.043    255.63296 
   12000    56.877243    56.877243    56.877243   -112.75466   -166.64461    74.095459   -406.06126   -63.296873    177.53519   -302.59662    -108.3225    133.01349   -347.17663   -36517.685    257.49977 
   12050    56.873147    56.873147    56.873147    30.408748    -40.79625    200.11735   -280.13531    73.423791    314.14418    -166.2113    58.598702    298.73953   -181.57517    -36518.19     258.5689 
   12100    56.871671    56.871671    56.871671    78.478824    47.418831     288.9193   -191.53567    171.36936     413.7616   -66.632191    16.648278    257.45444   -223.01047   -36518.697    259.63154 
   12150    56.876291    56.876291    56.876291    25.244223   -87.837616    154.02396     -326.215    25.323282    267.34693   -212.79567      138.247    379.91474   -100.35933   -36511.572    255.30816 
   12200    56.879789    56.879789    56.879789   -226.38531   -268.72931   -27.646433   -507.63763   -284.52783   -44.015092   -524.03254    -125.8988    114.90806   -365.06471   -36516.693    259.62406 
   12250      56.8744      56.8744      56.8744    82.328458    82.536055     323.8686   -156.48012    43.289565    284.57474   -195.72828    121.15975    362.55685   -117.84437   -36513.706    258.21483 
   12300    56.873284    56.873284    56.873284    98.238805    102.61493     342.8077   -137.62811    90.400461    332.13848   -148.17813    101.70102    343.30127   -137.01818   -36516.042    260.56037 
   12350    56.878201    56.878201    56.878201   -90.078247   -48.878113    193.59317    -286.4972    -211.4649    29.262696   -450.76591   -9.8917284    232.33246    -247.7871   -36513.119    259.19362 
   12400    56.879037    56.879037    56.879037   -110.77093   -177.64656    63.379161   -416.64839    -61.00398      178.995   -300.94406   -93.662263    147.47421   -332.53103   -36512.978    259.78949 
   12450    56.874417    56.874417    56.874417    111.06738    93.587059    333.94994    -146.4009   -6.5624922    234.82851   -245.43404    246.17757     487.1665    6.7763138   -36511.412    259.37022 
   12500    56.874435    56.874435    56.874435    73.470654    67.603124    309.06867   -171.27082       112.65    353.10066   -127.16246    40.158833     281.4658   -198.82166   -36513.708    261.67062 
   12550    56.878852    56.878852    56.878852   -72.342631   -74.556477    166.54769   -313.52547   -169.99685    71.630227   -408.39475     27.52543    269.40834   -210.63259   -36511.151    260.54548 
   12600    56.880396    56.880396    56.880396   -113.40605   -136.41379    105.13602   -374.88243   -111.61178    130.23441    -349.7109   -92.192588    148.42989   -331.57651   -36510.586    260.82595 
   12650    56.876809    56.876809    56.876809    94.900239    51.106993    293.60897   -186.57443    102.13513    342.37387   -137.80291     131.4586    373.68167   -106.56363   -36509.516    260.74703 
   12700    56.876831    56.876831    56.876831    114.29304    104.93348    346.11026   -134.05311     52.91547    295.41229   -184.70556    185.03016     425.6984    -54.54439   -36508.534    260.72966 
   12750    56.880955    56.880955    56.880955   -117.61029   -247.83019   -6.7458803   -486.72883   -103.61401     138.3556   -341.62679   -1.3866525    238.39298    -241.5914   -36510.399    262.71518 
   12800    56.880292    56.880292    56.880292     -74.6217    -127.3411    114.75391   -365.25885   -87.819847    152.99594   -326.98018   -8.7041567    232.02805   -247.96404   -36508.402    261.97231 
   12850     56.87693     56.87693     56.87693    1.9888575   -81.001986    159.76567   -320.34508   -46.088433    193.77398   -286.31564    133.05699    374.60192   -105.57204   -36513.031     265.9018 
   12900    56.876706    56.876706    56.876706     190.3332    135.19266      376.248   -104.02386     164.5141    406.47366   -73.680215    271.29284    513.42653     33.11801   -36507.282    262.50415 
   12950    56.882883    56.882883    56.882883   -137.55546   -142.03366    100.39585   -379.50365   -145.21792     95.21928   -384.62265   -125.41481    115.42074   -364.50402   -36504.888    261.47154 
   13000    56.881865    56.881865    56.881865   -65.635646   -118.89377    121.52611   -358.37685   -105.50936    135.08891   -344.74857    27.496196    269.31578   -210.63862   -36507.297     263.8234 
   13050    56.877028    56.877028    56.877028    172.86677    152.03358     393.4079   -86.859567    185.09563    424.95661   -55.271509    181.47109    422.58703   -57.709753   -36503.199    261.58511 
   13100    56.879123    56.879123    56.879123    47.774233    22.971729    263.08161   -217.01564     51.28416    292.44585   -187.61295    69.066811    309.72753   -170.33339   -36506.812    264.78001 
   13150    56.883432    56.883432    56.883432   -94.522645   -80.953606    159.05042   -320.79363   -164.16606    77.281137   -402.46274   -38.448267    201.41565   -278.46472   -36506.489    265.20091 
   13200    56.882902    56.882902    56.882902   -102.95001   -202.48202    37.462408   -442.47472   -98.462739    142.35814     -337.501   -7.9052703    233.19859   -246.68763   -36506.679    265.97758 
   13250    56.879345    56.879345    56.879345    91.447866    91.588398      332.101   -148.04308    26.421968    267.96827   -212.11194    156.33323    399.05885   -81.091194   -36504.664    265.19617 
   13300    56.880694    56.880694    56.880694    45.362014   -34.526738    207.01672   -272.90365   -21.428192    218.85985   -261.07432    192.04097    432.83792   -47.198111   -36503.804    265.22997 
   13350    56.883482    56.883482    56.883482   -43.744955     30.30167    271.08484   -208.72066   -149.44213    91.491804   -388.40136   -12.094406    227.32197   -252.57364   -36503.078    265.35302 
   13400    56.883273    56.883273    56.883273   -83.270707   -250.81007   -9.8773191   -489.78591    -69.75202    171.49234   -308.37344    70.749973    311.78783   -168.11762   -36502.819    265.79797 
   13450    56.880651    56.880651    56.880651    94.995331    87.080967    327.75555   -152.31914    26.766256    267.73552   -212.20478    171.13877     410.6184   -69.441363   -36505.268    268.15402 
   13500    56.882817    56.882817    56.882817    11.039394   -85.394829    156.32625   -323.59103   -1.2770372    239.77645   -240.14444    119.79005    362.50459   -117.49293    -36501.22    265.91984 
   13550    56.885608    56.885608    56.885608   -126.19796   -185.37594    54.401896   -425.30259   -179.35941    61.776878   -417.92263   -13.858531    226.45828    -253.3023   -36503.521    268.16696 
   13600    56.883271    56.883271    56.883271    7.7697774   -20.829806    223.24699   -256.68966    14.108163    254.87548   -224.95696    30.030976    270.48514   -209.41421   -36502.467    268.03814 
   13650    56.880992    56.880992    56.880992    129.73929    134.60778    374.66289   -105.38918    52.275088    292.29803   -187.70071    202.33501    444.13908   -35.982811   -36497.797     265.3611 
   13700    56.883536    56.883536    56.883536    20.036436   -37.388856    201.98641    -277.9773    13.804319    253.74613   -226.15569    83.693844    325.63339   -154.33899   -36499.037    266.84377 
   13750    56.886699    56.886699    56.886699   -119.60191   -21.258941    220.12285   -259.61901   -184.20056    58.125612   -421.54306   -153.34624    86.242573   -393.48786   -36500.644    268.58652 
   13800    56.884057    56.884057    56.884057    57.499664    11.151808     252.0348   -227.92857    108.74949    349.96575   -129.87837    52.597694     293.1171   -186.71749   -36495.958    265.89087 
   13850    56.882384    56.882384    56.882384    41.858702    50.551686    292.55581   -187.39069   -58.438601    182.30966   -297.65865    133.46302    374.19199   -105.79628   -36502.253     270.9349 
   13900    56.883933    56.883933    56.883933    20.025314    46.874906    287.22034   -192.69321   -10.333844    231.12382   -248.79743    23.534881    265.34947   -214.48107   -36499.628    269.68676 
   13950    56.887095    56.887095    56.887095   -81.994839   -39.117717    202.28617   -277.45594   -99.861373    141.61801   -338.04688   -107.00543    135.45829   -344.17511   -36499.046    269.87428 
   14000    56.885961    56.885961    56.885961   -15.150204    35.574007    276.69938    -203.0747   -120.44713    119.21197   -360.46611    39.422512    280.43748   -199.35573   -36497.156    269.13761 
   14050    56.883223    56.883223    56.883223     71.72275   -26.049342    216.32503   -263.63388    115.22173    357.18048   -122.76315    125.99586    366.41249   -113.53001   -36498.583    270.73053 
   14100    56.884343    56.884343    56.884343    47.340636   -3.1082221    238.57657   -241.37269   -57.011195      184.574   -295.30775    202.14132    442.43765   -37.480852    -36495.75    269.31997 
   14150    56.887212    56.887212    56.887212   -55.697285   -25.085652    215.63401   -264.13911   -2.3125438    239.14717   -240.61727   -139.69366     102.6365   -377.13669   -36496.282    270.27759 
   14200    56.886997    56.886997    56.886997    3.9619965    -13.11553    228.97312   -250.74997   -83.996182    157.32909   -322.45059     108.9977     349.0211   -130.65552   -36493.867    269.15885 
   14250    56.885501    56.885501    56.885501    26.191782   -54.725124    185.65756   -294.22064    81.992712    322.24986   -157.53007    51.307757      291.743    -188.0787   -36495.107    270.61429 
   14300    56.885732    56.885732    56.885732    122.64097    26.009676    266.65631   -213.17106    12.225796    253.15701   -226.63297    329.68743    570.48063    90.604007   -36493.471    270.03763 
   14350    56.888853    56.888853    56.888853   -78.200624   -120.07071    119.91433   -359.69812   -116.43934    124.62301   -354.95369    1.9081829    242.07745   -237.50242   -36495.543     272.0728 
   14400    56.888301    56.888301    56.888301    34.735356     24.40051     264.0185   -215.64459    85.186215    325.77691   -153.85683   -5.3806591    236.28742   -243.31802   -36493.947    271.51493 
   14450    56.887517    56.887517    56.887517   -37.240188    10.622599     252.4798   -227.30597   -203.19189    37.290565   -442.43878    80.848725    322.54283   -157.19176   -36495.427    273.12083 
   14500    56.886974    56.886974    56.886974    68.439582   -1.9800165    239.18885   -240.57089    66.640628    307.04367   -172.71672    140.65813    382.00016   -97.778314    -36493.29    272.17676 
   14550    56.889182    56.889182    56.889182   -55.682303    -39.50121     201.1898   -278.42072   -136.77517     104.6635   -374.93269    9.2294733    249.61356    -230.0486   -36494.711    273.73873 
   14600    56.889012    56.889012    56.889012   -28.985119   -59.231916    181.37547   -298.24215   -98.993684    141.86428   -337.83963    71.270241    310.90424   -168.77803   -36491.986    272.37513 
   14650    56.887361    56.887361    56.887361    78.585364    133.42277    374.46279   -105.27453   -1.5960223    239.64639   -240.09963    103.92935    345.47265   -134.29817   -36491.714    272.73443 
   14700     56.88862     56.88862     56.88862   -58.734077   -109.27115    131.59056   -348.04408   -81.900589    158.80786   -320.79179    14.969513    256.50755   -223.09813   -36496.283    276.50653 
   14750    56.888985    56.888985    56.888985    2.8537523   -3.9073304    236.12447   -243.59453   -66.283683    175.23048   -304.44405     78.75227    320.08412   -159.60082   -36490.696    273.11182 
   14800    56.888907    56.888907    56.888907   -19.161858    63.275425    305.23558   -174.45616   -60.661225    181.15555   -298.49701   -60.099773    180.14946   -299.52509   -36491.934    274.52754 
   14850    56.888173    56.888173    56.888173    109.46163    47.787793    287.95282    -191.8179   -58.210391    182.11871   -297.52672     338.8075    581.55619    101.89964   -36490.365    273.96442 
   14900    56.890606    56.890606    56.890606   -95.053114   0.02339692    241.36894    -238.1774   -116.76286    124.35945   -355.19402   -168.41988     73.33083   -406.28052   -36492.375    275.92029 
   14950    56.889994    56.889994    56.889994   -5.0220196   -183.77503    57.451872   -422.16056    -38.54847    201.20683   -278.41391    207.25744    448.11428   -31.484186   -36488.616    273.80589 
   15000    56.888459    56.888459    56.888459    46.855633    78.737891    319.61142   -160.06466    36.647109    277.37578    -202.3227    25.181898    266.37025   -213.31497    -36490.19    275.44536 
   15050    56.888954    56.888954    56.888954   -9.6023083   -45.904425    195.48112   -284.22431   -87.367039    152.88975   -326.76257    104.46454    344.48824   -135.20438   -36491.154    276.65452 
   15100    56.890451    56.890451    56.890451   -56.774675   -103.84046    137.10193   -342.50178   -109.49569    132.28506   -347.33557    43.012124    284.43997   -195.19512   -36489.274    275.85398 
   15150    56.890424    56.890424    56.890424   -48.379254   -153.65101    86.615966   -392.87237   -105.85689    135.73318   -343.80651    114.37015    354.43692   -125.14532     -36491.3    277.80969 
   15200    56.888784    56.888784    56.888784    87.634494    6.1356522    248.61086   -231.04678    60.741603    299.99105   -179.64204    196.02623    437.89967   -41.794614    -36488.51    276.36227 
   15250    56.889785    56.889785    56.889785    17.949486    16.762174    256.39957   -223.32434   -57.338962    183.73979   -295.90454    94.425247    336.69281   -142.98575   -36487.023    275.82512 
   15300    56.891642    56.891642    56.891642   -16.241548    -170.6282    70.397658   -409.19525   -33.433419    208.46943   -271.07125    155.33698     395.5397   -84.036875    -36484.64    274.65311 
   15350    56.891835    56.891835    56.891835   -91.586952    -42.59379    198.09631   -281.37674   -185.66837    54.360693   -425.10994   -46.498693    196.32354   -283.15994   -36491.454    279.96609 
   15400    56.888615    56.888615    56.888615     93.52794     17.90775    258.30271   -221.51509    101.62042    342.76898   -136.94615    161.05564    402.54139   -77.189199   -36484.232     275.3798 
   15450    56.889808    56.889808    56.889808    24.496751    21.211802    262.33253    -217.1923   -41.941334    199.04239   -280.62109    94.219784    334.64074    -144.9505   -36492.192    281.49334 
   15500    56.893711    56.893711    56.893711   -79.327417    17.560948     257.9334    -221.5398   -208.20825    33.272993   -446.11372   -47.334947    195.16983   -284.26329   -36483.487    275.85208 
   15550    56.894081    56.894081    56.894081   -110.56586   -192.66487    49.890217   -429.54002   -118.01076    123.20563   -356.19401   -21.021957    219.01976   -260.46467   -36486.493    278.46794 
   15600    56.890352    56.890352    56.890352    75.978322    172.69339     414.2723   -65.353784   -12.268976    228.93138   -250.68283    67.510555    309.27461   -170.37876   -36485.173    278.03425 
   15650    56.890031    56.890031    56.890031     96.64499   -45.235391    195.63077   -283.98677    164.63391    405.66484    -73.90535    170.53645    411.76124   -67.878928   -36487.039    279.84381 
   15700    56.894261    56.894261    56.894261   -64.779364  -0.62616814    240.37554   -239.01915    -189.6787    50.594148   -428.85276   -4.0332253    237.46897    -241.9417    -36483.87    278.09467 
   15750    56.895239    56.895239    56.895239   -153.86075   -166.33989    73.642564   -405.72513   -226.81014    16.073113   -463.28793   -68.432202    171.47184   -307.91177   -36484.831    279.25601 
   15800    56.890182    56.890182    56.890182    109.47489    85.922129    328.25378   -151.36723    101.99214    341.31342   -138.29201    140.51039    380.50417   -99.140936   -36485.302     280.0696 
   15850     56.89035     56.89035     56.89035    129.72671    269.95725    511.96971    32.220098   -35.161723    205.78762   -273.87135    154.38459    394.89354   -84.819354   -36481.614    277.94646 
   15900    56.895714    56.895714    56.895714   -120.26386   -167.85487    72.021251   -407.33606   -169.06464     71.52153    -407.7641   -23.872081    217.16396   -262.07347   -36484.823    280.68573 
   15950    56.895102    56.895102    56.895102      1.02705    5.6256019    246.10063   -233.30352   -127.80941    112.05552   -367.32307    125.26495    366.50007   -112.85428   -36479.801     277.6167 
   16000    56.892119    56.892119    56.892119    4.7798054   -50.749444    190.28623   -289.21025    72.843386    313.97488   -165.58409   -7.7545262    233.10797   -246.43613    -36484.82     281.6239 
   16050    56.890863    56.890863    56.890863    132.03736    130.46402    370.76951   -108.84971    177.70368    418.66187    -60.98035    87.944372    328.37938   -151.26411   -36482.017    280.11367 
   16100    56.895353    56.895353    56.895353   -124.30315   -227.30463    13.448593   -465.94609   -141.70884    98.522726   -380.80956   -3.8959851    238.02806   -241.31004    -36484.77     282.5132 
   16150    56.896306    56.896306    56.896306   -35.547615   -21.799319    218.64248   -260.70434   -9.2031044    232.10575   -247.24362   -75.640422    165.21113   -314.07679   -36479.637    279.35484 
   16200    56.894415    56.894415    56.894415    3.8988613    38.419817     279.7963   -199.58424   -105.90283     134.6527   -344.64356    79.179594    319.58329    -159.8607   -36483.752    282.71271 
   16250    56.893072    56.893072    56.893072    79.305946    22.663096    263.18975   -216.31327    120.62195    361.12007   -118.40994     94.63279    335.76536   -143.77475     -36480.1    280.59077 
   16300     56.89519     56.89519     56.89519   -9.8924863   -0.6872959    240.83236   -238.59027    86.985758    327.02781   -152.31774   -115.97592    123.86449   -355.47406    -36481.33    281.90493 
   16350    56.897382    56.897382    56.897382   -61.315561   -189.29669    51.056069   -428.21387    -54.13282    187.85191   -291.45725    59.482827    300.09802   -179.16294   -36480.244    281.58518 
   16400    56.896242    56.896242    56.896242   -51.190417   -111.86702    129.02599   -350.30388    23.031555    263.54577   -215.73279   -64.735788    177.85204   -301.52847   -36480.512    282.22032 
   16450    56.892598    56.892598    56.892598    91.000737    76.839873    318.33215   -161.11509    61.303641     302.0061   -177.53345     134.8587    375.21999   -104.26842   -36482.957    284.38789 
   16500    56.893676    56.893676    56.893676    113.26595     101.7218    342.78417   -136.80225    4.2529178    244.96605   -234.58164    233.82312     475.3142   -4.3014611   -36477.056    280.65897 
   16550    56.899087    56.899087    56.899087   -166.69439   -76.455215    164.24646   -314.96982   -196.12207    44.282971   -434.93543   -227.50588    13.705692   -465.48779   -36480.716    283.67129 
   16600     56.89754     56.89754     56.89754   -82.928843   -94.856268    146.65402   -332.67608   -91.094291     149.0333   -330.26815   -62.835969    177.51329   -301.76757   -36477.149    281.58546 
   16650    56.893507    56.893507    56.893507    85.482249     70.02492     312.1435   -167.38185     183.6632    422.75874   -56.688282    2.7586236    243.15445   -236.33106   -36482.221     285.5919 
   16700    56.895371    56.895371    56.895371    29.242499   -36.844139    203.69027   -275.66296   -34.295597    207.20016   -272.23578    158.86723    399.95375   -79.443642    -36480.65    284.91048 
   16750    56.899242    56.899242    56.899242   -133.97359   -189.87329    50.821693   -428.30925   -149.70926    90.849659   -388.33706   -62.338205    177.50078   -301.61065   -36480.302    285.08948 
   16800     56.89736     56.89736     56.89736    -42.21128   -152.62765    89.057435   -390.33603    55.818335    295.70445     -183.573   -29.824528    211.59094   -267.73319   -36475.564    282.16438 
   16850    56.893391    56.893391    56.893391    126.68614    143.15799    383.07459   -96.484292    51.078636    290.72884   -188.72992    185.82179    426.46634   -53.095608   -36477.734    284.10823 
   16900    56.894884    56.894884    56.894884    18.389256    33.022407    273.38363   -206.07067    31.334208    272.39432   -207.01689    -9.188847    231.22785    -248.1705   -36480.696    286.60557 
   16950    56.898539    56.898539    56.898539   -12.804635   -73.880937     166.8671    -312.3592    24.667248    266.01092   -213.28895    10.799782    253.20818   -226.06231   -36471.667    280.64556 
   17000    56.898567    56.898567    56.898567    -166.8334   -318.53861   -78.419526   -557.58562   -114.40747    125.97912   -353.26514   -67.554108    170.99739   -308.19483   -36480.812    287.49934 
   17050    56.894072    56.894072    56.894072    174.08261    181.10178     420.0653   -59.426593    128.37928    370.44674    -109.0163    212.76676    456.65758   -22.812948   -36477.414    285.50288 
   17100    56.897545    56.897545    56.897545   -33.210443   -10.415349    230.51831   -248.79973   -95.581551    145.37281   -333.96036    6.3655691    246.42281   -232.95933   -36476.858    285.51089 
   17150    56.900399    56.900399    56.900399    -127.7804   -230.66536    10.135087   -469.13521    33.370157    274.57015   -204.49993   -186.04601    56.436732   -422.69932   -36475.928    285.25104 
   17200     56.89737     56.89737     56.89737    14.858068    48.547291    289.71896   -189.54779    7.7513973    249.66189   -229.59029   -11.724484    227.31265   -252.02463   -36475.227    285.15371 
   17250    56.895166    56.895166    56.895166    118.24412    37.743761    279.01534   -200.38731    149.12933    389.06012   -90.363321    167.85926    409.51392   -69.889919    -36475.58    285.79471 
   17300    56.898769    56.898769    56.898769    35.926509    39.911572    281.16719   -198.09099    106.52294     345.8454   -133.42948    -38.65499    202.41376   -276.85453   -36471.852    283.55397 
   17350    56.901476    56.901476    56.901476   -180.36056   -141.64241    97.139672   -381.89876   -192.22136    49.176399   -429.88573    -207.2179    32.090305   -446.90216    -36477.36    287.82397 
   17400    56.897641    56.897641    56.897641    74.546656   -22.614377    218.83224   -260.50954    196.49332    437.12442   -42.265001     49.76102    290.74818   -188.48706   -36473.785    285.68451 
   17450    56.896932    56.896932    56.896932    49.535166    165.97287    406.63044   -72.686106    43.716308    284.30561   -195.06356   -61.083679    179.05361   -300.26902   -36476.859    288.23247 
   17500         56.9         56.9         56.9   -81.307318   -117.66651    122.75326   -356.46276   -13.920099    228.33289   -250.89016   -112.33534    129.30872   -349.89441   -36475.984    287.99008 
   17550    56.900448    56.900448    56.900448   -51.675045   -47.685359    194.27148   -284.82276   -80.208059    161.48918   -317.59817   -27.131718    213.76367   -265.38428   -36474.303    287.17715 
   17600    56.898187    56.898187    56.898187    14.245509   -24.822849    215.86213   -263.44854    14.056305    255.76507   -223.53056     53.50307    295.91887   -183.34084   -36474.852    287.93118 
   17650    56.897512    56.897512    56.897512    92.916973    34.009693     276.0748   -203.35547    134.24025    375.01191   -104.39934    110.50098    350.09747   -129.29888   -36469.551    284.55683 
   17700    56.900523    56.900523    56.900523   -65.221952   -31.546235    208.93772   -270.15817   -58.522486    183.07461   -296.04297   -105.59713    136.04725   -342.99953   -36475.898    289.39429 
   17750    56.901025    56.901025    56.901025    50.774743   -71.077213    169.92309   -309.23088    115.03504    355.98868   -123.18064     108.3664    348.00457   -131.07534   -36467.539    283.86121 
   17800    56.900786    56.900786    56.900786   -60.399228   -59.232473    181.65094   -297.46378   -121.02071    118.28542   -360.91472  -0.94450644    239.96092   -239.20992   -36472.929    288.01699 
   17850    56.898885    56.898885    56.898885    51.889462    21.461743    262.43313   -216.76213    70.720234    312.25787   -166.98157    63.486408    303.67936   -175.57548   -36474.015    289.13842 
   17900     56.89887     56.89887     56.89887   -1.8572999   -57.578366    182.24743   -296.95127    39.687414    279.51856   -199.77483    12.319053    252.54962    -226.6228   -36476.015     290.9011 
   17950    56.901286    56.901286    56.901286   -84.676158   -101.36299    140.95519   -338.20106    -39.34843    200.81158    -278.3002   -113.31705    128.56716   -350.51221   -36470.845    287.60354 
   18000    56.900863    56.900863    56.900863   -7.2039125   -133.93108    105.72256   -373.38269    67.836861    307.25792   -171.85374    44.482481    284.18855   -194.89479   -36472.136    288.86297 
   18050    56.899079    56.899079    56.899079    33.890866    21.778321    262.40083   -216.86326    93.262497    334.49791   -144.73058    -13.36822    228.39379   -250.78677   -36471.793    288.96082 
   18100    56.899822    56.899822    56.899822    79.771296    17.590111    257.56327   -221.63009    35.900828    276.53868   -202.67237    185.82295    424.16771   -55.063691   -36469.364    287.58767 
   18150    56.902796    56.902796    56.902796   -119.96418   -35.861939    205.83131   -273.15958   -156.49004    82.471578   -396.53998   -167.54057    72.919896   -406.11167   -36473.081    290.54298 
   18200    56.901628    56.901628    56.901628   -16.542004   -129.92454    110.52164   -368.63184    53.932955    294.65284   -184.45143    26.365573    266.45899    -212.6219   -36470.705    289.20074 
   18250    56.899576    56.899576    56.899576    106.97648    67.395059    307.97878     -171.296    122.83403    363.93171   -115.33923    130.70034    371.33337   -107.93183   -36467.606    287.34527 
   18300    56.901164    56.901164    56.901164   -15.706688    -89.67526    150.64411   -328.41336    63.422843    303.00472   -176.09392   -20.867649    219.80511   -259.26224   -36472.438    291.08109 
   18350    56.901959    56.901959    56.901959   -19.834482   -127.18268    112.83984   -366.25642   -10.441325    229.16859   -249.96979    78.120562    317.99785   -161.12107   -36466.372     287.1258 
   18400    56.901838    56.901838    56.901838    -57.22142    -79.76832    161.20706   -317.93076   -10.526403    229.30797   -249.74194   -81.369537    160.55608   -318.52099   -36472.805    291.98154 
   18450    56.900672    56.900672    56.900672    14.577977   -46.539506     194.9693   -284.21821    18.723834    260.06786   -219.07855    71.549601    313.38878   -165.78299    -36469.86    290.22739 
   18500    56.900791    56.900791    56.900791    64.472862   -6.9038745    232.88257   -246.30381    115.04193    358.03328   -121.21335    85.280529    325.40941   -153.72129   -36467.652    288.98767 
   18550    56.902627    56.902627    56.902627   -68.282136   -66.280978    174.19819   -304.84812    23.901883    264.98112   -214.04412   -162.46731    79.240951    -399.8743   -36470.486    291.30047 
   18600    56.902356    56.902356    56.902356    30.544851   -103.07124    138.67726   -340.44286    162.63439    402.38709   -76.748226    32.071408    272.58942   -206.49871   -36465.289    287.94819 
   18650    56.902716    56.902716    56.902716   -29.087181     26.46055     265.9967   -213.11906    29.573316    270.04421   -208.98286   -143.29541    97.285358   -381.70095   -36470.661    292.04574 
   18700    56.902556    56.902556    56.902556   -38.740462   -148.43534    93.063986   -386.01644    33.970324    276.12254   -202.93243   -1.7563655    238.41061   -240.57263   -36470.863    292.49436 
   18750    56.902017    56.902017    56.902017    40.209098     50.13563    291.00813    -188.1502     143.0576    383.61479   -95.435659   -72.565936     169.4127   -309.61409   -36467.328    290.30636 
   18800    56.902739    56.902739    56.902739   -44.561075   -166.50627    74.384196   -404.58437      59.4161    299.81702   -179.27253   -26.593058    215.18888   -263.87845   -36468.328    291.31118 
   18850    56.902455    56.902455    56.902455    7.6091179   -6.3864649    234.11005   -244.96113    111.12675    352.38322   -126.74545   -81.912932    158.47815   -320.57302   -36466.434    290.27402 
   18900    56.902478    56.902478    56.902478   -52.684446   -208.10316    32.898974   -446.12362    86.497832    327.58519   -151.43555   -36.448012    205.54094   -273.40333   -36471.431    294.09244 
   18950    56.901924    56.901924    56.901924    150.88448    107.23343     348.2368   -130.89793    256.76477    497.85163    18.681748    88.655248    329.45985   -149.62535   -36460.623    286.76389 
   19000    56.904845    56.904845    56.904845   -56.082955   -131.49194    109.35845   -369.64124    9.0974236    248.69746   -230.24887   -45.854344     195.1076   -283.73845   -36466.406    291.13058 
   19050     56.90388     56.90388     56.90388    21.734336    94.764283    333.31703   -145.70271    82.619778    324.75125   -154.25355   -112.18105     127.7363   -351.23725   -36465.708    290.92348 
[...]
   13800        0.138    296.30988    7.7264835 -0.0027485387 0.0014745999 -0.021762641    7.7047037    7.7481333    420.35411    -35751.54   -25750.699 
   13850       0.1385       288.96    7.6998112 -0.034259768 -0.027161205 -0.021746119    7.6779321    7.7213281    409.92735   -35736.542   -25461.301 
   13900        0.139    293.85696    7.7812373  0.035025019  0.033328983 -0.021709517    7.7594786    7.8028008    416.87432   -35738.891   -26165.304 
   13950       0.1395    289.89032    7.7814708  0.023370264  0.035296534  -0.02169835    7.7597059    7.8030052    411.24713   -35728.648   -26133.792 
   14000         0.14    289.97753    7.7489252 -0.018827889 -0.011569022 -0.021715541    7.7271224    7.7704562    411.37085   -35724.164   -25728.428 
   14050       0.1405    289.98138    7.7846782 -0.041597514 -0.044381697   -0.0217148    7.7629824    7.8063148    411.37631    -35719.53    -25662.33 
   14100        0.141    295.03898    7.8491131  0.017537104 0.0018052168 -0.021679279    7.8273688    7.8706295    418.55117   -35722.062   -26228.185 
   14150       0.1415    289.83869    7.8484485   0.02580111  0.024830215 -0.021647193    7.8266267    7.8698224    411.17389   -35710.016   -26330.266 
   14200        0.142    287.48236    7.8108341 0.0085789913  0.010934354 -0.021642984    7.7892252    7.8324121    407.83112   -35702.023   -26101.158 
   14250       0.1425    288.99463    7.8412594 -0.0067648427 -0.012278153 -0.021649514    7.8194697    7.8626697    409.97648   -35699.511   -26074.055 
   14300        0.143    292.33699    7.8939512 -0.013743638 -0.014108475 -0.021642809    7.8722345    7.9154212    414.71806   -35699.554    -26220.33 
   14350       0.1435    290.77098     7.910269 -0.0070699886 -0.00059011484 -0.021626845    7.8885799    7.9317341    412.49647   -35692.626    -26342.03 
   14400        0.144    290.48838    7.9195567  0.028659963  0.010205896 -0.021601993     7.897973    7.9410769    412.09556   -35687.517   -26528.075 
   14450       0.1445    291.70634    7.9319108  0.022068791 0.0095060177 -0.021589896    7.9101274     7.953207    413.82339   -35684.536   -26544.952 
   14500        0.145     290.3184    7.9384843 -0.018436775 -0.0032479938 -0.021591078    7.9169258    7.9600073    411.85442   -35677.838   -26389.332 
   14550       0.1455     289.9328    7.9352757 -0.015114984 -0.012575446 -0.021581799    7.9136258    7.9566885    411.30739   -35672.567   -26358.618 
   14600        0.146    291.72175    7.9901279 0.0050393041  0.028825262 -0.021554796     7.968459    8.0114672    413.84526   -35670.363   -26746.642 
   14650       0.1465    290.11336    8.0253642  0.014348781  0.047754679 -0.021536245    8.0037953    8.0467659    411.56354   -35663.309   -26958.225 
   14700        0.147    288.79943    8.0297227  0.010749372 -0.011207202 -0.021537752    8.0080856    8.0510592    409.69956   -35656.672   -26764.216 
   14750       0.1475    290.26495    8.0182761 -0.00074894018 -0.034965089 -0.021539922     7.996791    8.0397688    411.77859   -35653.958    -26608.54 
   14800        0.148    289.62924    7.9982341 -0.013213696  -0.03457433 -0.021520343    7.9766145    8.0195528    410.87675   -35648.292   -26501.487 
   14850       0.1485    286.96169    8.0185381  0.011143968  0.021288624 -0.021482412    7.9970224    8.0398839    407.09249    -35639.74   -26836.569 
   14900        0.149    288.98118    8.0558972  0.057960849  0.049637762 -0.021464021    8.0343795    8.0772039     409.9574   -35637.804   -27211.653 
   14950       0.1495    289.01778    7.9996903 -0.014742261 -0.0039228924 -0.021485039    7.9781584    8.0210251    410.00932   -35633.085   -26603.417 
   15000         0.15    286.62174    7.9692228 -0.082468419 -0.040347847 -0.021493224    7.9476074    7.9904903    406.61023   -35624.891   -26154.689 
   15050       0.1505    292.46993    8.0166851 0.0033424006  0.012080427  -0.02145455    7.9953134    8.0381185    414.90664   -35628.411   -26773.693 
   15100        0.151    287.89803    7.9844486  0.053813876  0.037807227 -0.021418593    7.9628946    8.0056267     408.4208   -35617.137   -26920.232 
   15150       0.1515    290.38834    7.9629307  0.022582597  0.028063389  -0.02141963    7.9414764    7.9842106    411.95364   -35615.915   -26711.922 
   15200        0.152    294.28424    7.8321697 -0.026459244 -0.0055005615 -0.021444061    7.8106368    7.8534203    417.48048   -35616.731     -26000.7 
   15250       0.1525    290.47009    7.7014074 -0.082931084  -0.03448637 -0.021437849    7.6798604    7.7226311    412.06961   -35606.676   -25279.966 
   15300        0.153     296.6385    7.6319036  0.050008002  0.023540494 -0.021387025    7.6105061    7.6531744     420.8203   -35610.867    -25684.84 
   15350       0.1535    299.41614    7.4387776  0.064281831  0.050601561 -0.021367651    7.4172953    7.4599245    424.76074   -35610.332    -25178.87 
   15400        0.154    301.29052    7.1592265 -0.017327003 -0.0064242405 -0.021388002    7.1376779    7.1803482     427.4198   -35608.713   -23784.918 
   15450       0.1545    308.72795    6.9173589 -0.051089066 -0.029140471 -0.021405434    6.8959128    6.9386183    437.97076   -35615.146   -22790.431 
   15500        0.155    319.92192    6.6649972 0.0026873248   0.01730906 -0.021387169    6.6433458    6.6860148    453.85087   -35627.159   -22283.312 
   15550       0.1555    322.06963    6.3248071  0.010005928  0.032679379  -0.02136643    6.3033426    6.3459697    456.89767   -35626.628   -21224.975 
   15600        0.156    328.55422    5.9077002  0.027397498  0.005701724  -0.02136977    5.8860756    5.9287096    466.09691   -35632.644   -19802.665 
   15650       0.1565     340.8582    5.5442611  0.021091368  0.005564779 -0.021386154    5.5226603    5.5653277     483.5517   -35647.318   -18569.724 
   15700        0.157    346.27958    5.0842955 -0.031775185  0.023820014 -0.021414621    5.0627592    5.1054841    491.24263   -35652.705   -16921.135 
   15750       0.1575    355.18296     4.635059  0.025094704 -0.0039712163   -0.0214424    4.6132646    4.6560455    503.87324   -35663.569   -15520.608 
   15800        0.158    361.10523    4.1971544  0.017246741  0.020451469 -0.021473024    4.1757208    4.2185631    512.27475   -35670.744   -14116.176 
   15850       0.1585    369.55096    3.7466142   0.02074527  0.038331722 -0.021526859    3.7250117    3.7679628    524.25612    -35682.06   -12685.637 
   15900        0.159     375.5655    3.3742521 -0.021095012  0.059274151 -0.021594185    3.3523808    3.3954679    532.78852   -35690.376   -11374.771 
   15950       0.1595    379.04177    3.0432665 -0.014446619 -0.021673653 -0.021667355    3.0214997    3.0647343    537.72006   -35695.371   -10023.821 
   16000         0.16    379.92678    2.8276468  0.010064476 -0.041742038 -0.021710029    2.8057937    2.8491145    538.97556   -35696.778   -9319.8974 
   16050       0.1605    387.54055     2.629365 0.0053976331 -0.005522166 -0.021738392    2.6076812    2.6510594    549.77669   -35707.895   -8764.1349 
   16100        0.161    386.68562    2.4122732  0.039903063   0.05222917 -0.021764249    2.3903704    2.4338008    548.56386   -35707.132   -8348.0181 
   16150       0.1615    389.44281    2.2004563  0.026635087  0.070211302  -0.02181892    2.1783979    2.2219384    552.47529   -35711.714   -7657.6755 
   16200        0.162    390.16052    1.9870604  -0.01937689  0.019113238 -0.021903857    1.9651709    2.0088829    553.49345   -35713.576   -6622.6559 
   16250       0.1625    394.06034    1.8625449 -0.013048892 -0.068258688 -0.021970659    1.8405458    1.8843928    559.02586   -35720.043   -5937.4577 
   16300        0.163     397.9926    1.8009305 -0.0021458278 -0.027445366  -0.02198742    1.7787903    1.8226715    564.60428    -35726.73   -5904.4643 
   16350       0.1635    401.40609    1.7957831  0.013860253  0.033540539 -0.021976232    1.7738309    1.8176896    569.44676   -35732.836   -6143.9463 
   16400        0.164    399.58754    1.7638636  0.011513189   0.05053043 -0.021979171    1.7415765    1.7854408    566.86691   -35731.643   -6086.3573 
   16450       0.1645    405.36139     1.723638 -0.0034006896  0.035872435 -0.022011693    1.7014613    1.7453916    575.05787   -35741.296   -5853.6991 
   16500        0.165     398.0605    1.6686895 -0.020190414 -0.017259672 -0.022052328    1.6465387    1.6905507     564.7006   -35732.428   -5437.4647 
   16550       0.1655    406.51705    1.7426292 -0.008646618 -0.0024595852 -0.022058382    1.7206378    1.7646623    576.69732   -35745.959   -5771.7433 
   16600        0.166    405.32867     1.730211  0.013699956 -0.0003380409  -0.02205698    1.7082902    1.7523114    575.01144   -35745.843   -5811.9098 
   16650       0.1665    406.59924    1.7183125    0.0420151 0.0065652145 -0.022065487    1.6962314    1.7402702    576.81392   -35749.278   -5889.6428 
   16700        0.167    407.51475    1.6777445  0.041000754 -0.034329629 -0.022096026    1.6553767    1.6994767    578.11269   -35752.262   -5614.7186 
   16750       0.1675    407.82254    1.6354209  0.014368307 -0.029455367 -0.022112359    1.6131704    1.6573035    578.54933    -35754.43   -5401.1128 
   16800        0.168    403.83679    1.5675996 -0.028416259 0.0098043631  -0.02212403    1.5453839    1.5895407    572.89502   -35750.554   -5163.2925 
   16850       0.1685    412.57274    1.5842888 0.0067690676   0.01401804 -0.022125024     1.562141    1.6063005     585.2881   -35764.753   -5350.2531 
   16900        0.169    406.63033    1.5628295 -0.018169853  0.051586882 -0.022137568    1.5407293    1.5849139    576.85803    -35758.15   -5320.8218 
   16950       0.1695    409.86583    1.5422848 -0.00080168736  0.016815172 -0.022151665    1.5199938     1.564207    581.44801   -35764.622   -5194.3276 
   17000         0.17    413.08292    1.4859646 0.0057949976  0.019213777 -0.022182808    1.4637786    1.5080544    586.01186   -35771.107   -5036.5778 
   17050       0.1705    406.19138    1.4508524 -0.014719966 -0.039549717 -0.022201347    1.4284995    1.4728128    576.23532   -35763.234   -4655.2757 
   17100        0.171    413.86931    1.4770525  0.015324763  0.041949202 -0.022194335    1.4548948    1.4991945    587.12745   -35776.077   -5114.4214 
   17150       0.1715    412.50221    1.4690727 -0.067223309   0.05927853 -0.022194235    1.4465907    1.4908904    585.18805   -35776.152   -4870.4263 
   17200        0.172    411.38542    1.4585425   -0.0402102  0.034977637 -0.022196609    1.4361248    1.4804293    583.60374   -35776.665   -4844.3666 
   17250       0.1725    411.14693    1.3940659 -0.0068661703 0.0073449551  -0.02220251     1.371885    1.4162013     583.2654   -35778.413   -4648.4824 
   17300        0.173    411.27109    1.3577092  0.071411831 0.0044979415 -0.022201709    1.3353284    1.3796431    583.44155    -35780.59   -4778.7299 
   17350       0.1735    409.24467    1.3283691  0.021427888 0.00078017032 -0.022230463    1.3061384     1.350511     580.5668    -35779.78   -4501.9238 
   17400        0.174    407.79077    1.2902152 -0.019359244 -0.033973845 -0.022252933    1.2678418      1.31226    578.50426   -35779.733   -4122.9403 
   17450       0.1745    409.64402    1.2880231   0.02784765 -0.019019509 -0.022257654    1.2656167    1.3100445    581.13333   -35784.431   -4322.8374 
   17500        0.175    408.54452    1.3171809 0.0080497279 -0.00073097733 -0.022250424    1.2947164    1.3391299    579.57355   -35784.929   -4414.9989 
   17550       0.1755     411.0385    1.3251673   0.03833705  0.013007667  -0.02225138     1.302786    1.3472014    583.11159    -35790.56   -4588.3734 
   17600        0.176    404.61257    1.3204611  0.018842217 -0.070001359 -0.022267715    1.2982259     1.342674    573.99556   -35783.533   -4231.0067 
   17650       0.1765     410.7671    1.3272333  0.045537407 -0.031600715 -0.022263971    1.3049311    1.3493721    582.72657    -35794.36   -4470.5666 
   17700        0.177    410.77912    1.2984699 0.0050552697   0.01886508  -0.02226355    1.2758869    1.3203272    582.74362   -35796.494   -4407.9674 
   17750       0.1775    405.87036    1.2809837 -0.051061548  0.060217982 -0.022269365    1.2588457    1.3032973     575.7799   -35791.571   -4300.4669 
   17800        0.178    410.09707    1.2650152 -0.013359407  0.068870941 -0.022284068    1.2426025    1.2870838    581.77604   -35799.636   -4401.7559 
   17850       0.1785    406.27031    1.2220397 -0.078646859  0.014455914 -0.022306134    1.1996226    1.2441483    576.34728   -35796.322    -3859.496 
   17900        0.179    412.48993    1.2166644 0.0077532856 0.0019136803 -0.022300769    1.1942526    1.2387683    585.17063   -35807.268   -4087.7714 
   17950       0.1795    404.77749    1.2472991  0.056447597 -0.018268344 -0.022291708    1.2248249    1.2693223    574.22953   -35798.385   -4284.9279 
   18000         0.18    404.59168    1.2683907 0.0045549183 -0.015451653 -0.022291492    1.2458799    1.2903768    573.96593   -35800.184   -4191.6465 
   18050       0.1805    406.24532    1.2785388 -0.019264735    0.0195639 -0.022287592    1.2559726    1.3004618    576.31183   -35804.553   -4262.7933 
   18100        0.181    401.89463    1.3194536 -0.006541122 0.0022045589 -0.022284622    1.2972315    1.3417145    570.13982   -35800.421   -4383.7235 
   18150       0.1815    404.14414    1.2998056 -0.011477391  0.042437356 -0.022288214    1.2775479    1.3220382    573.33104     -35805.6   -4435.8852 
   18200        0.182    402.69466     1.304922 -0.0082823506 -0.016952631 -0.022297011    1.2826483    1.3271561    571.27477   -35805.558   -4265.6232 
   18250       0.1825    404.66663    1.2871054 -0.0047798632 -0.0021487542 -0.022302814    1.2643921     1.308912    574.07226   -35810.335   -4267.2558 
   18300        0.183    404.58946    1.2923382  0.012759673 0.00025999061  -0.02229865    1.2699041    1.3144154    573.96279   -35812.233    -4351.193 
   18350       0.1835    403.44418    1.2525263  0.014775288 -0.0035062623 -0.022303039    1.2300892    1.2746092    572.33806   -35812.604   -4212.6512 
   18400        0.184    404.68895    1.2837895  -0.03612358  0.029918596 -0.022301274    1.2614107    1.3059275    574.10393   -35816.376   -4258.6151 
   18450       0.1845     403.0725    1.2671802 0.0032072494  0.017435908 -0.022305968     1.244814    1.2893402    571.81078   -35816.078   -4292.7445 
   18500        0.185    404.69095    1.2529339  0.015144581 -0.013482451 -0.022315087    1.2306956    1.2752401    574.10677   -35820.385   -4181.9867 
   18550       0.1855    401.99799    1.2339585  0.041586476 -0.029730402 -0.022325757    1.2115526    1.2561186    570.28644   -35818.544   -4152.7152 
   18600        0.186    400.82536    1.2703028 0.0055480561 -0.039046025 -0.022323723    1.2481459    1.2927079    568.62291   -35818.852   -4122.6828 
   18650       0.1865     402.2406    1.3418276 -0.0059898593 -0.0094712951 -0.022308609    1.3193839    1.3639155    570.63062   -35822.771   -4421.2214 
   18700        0.187    398.75275    1.3671674  0.016542326  0.059735802 -0.022290542    1.3447733    1.3892682    565.68265   -35819.695    -4811.485 
   18750       0.1875    403.43544    1.3421725 0.0091452405  0.057807971 -0.022304787    1.3198941    1.3644179    572.32566   -35828.255   -4697.0856 
   18800        0.188    399.69444    1.2887816  -0.06009271 -0.027013274 -0.022339122    1.2660985    1.3106917    567.01857   -35824.825   -4005.5855 
   18850       0.1885    404.30493    1.2994755 -0.017934796 -0.032438439 -0.022331605    1.2770586    1.3216369    573.55915   -35833.254   -4163.6744 
   18900        0.189    393.39198    1.2819174  0.016664238  0.038376275 -0.022309275    1.2595243    1.3040573    558.07771   -35819.684   -4456.5263 
   18950       0.1895    400.18654    1.3486323  0.041089674  0.025774137 -0.022304338    1.3259944     1.370518    567.71667   -35831.197   -4718.3204 
   19000         0.19    397.88018    1.3380786 -0.0024057504 -0.0065765941  -0.02232308    1.3157305    1.3602919     564.4448   -35829.759   -4430.3207 
   19050       0.1905    395.72265    1.2608355  0.033726215 -0.076005524 -0.022344963    1.2385088    1.2831137    561.38405   -35828.523   -4061.8541 
   19100        0.191    395.84596    1.3014359 -0.020275048 0.0054240521 -0.022333906    1.2790522    1.3236349    561.55899   -35830.531   -4288.6163 
   19150       0.1915    399.14672    1.2925455  0.017427547  0.062836666 -0.022328746    1.2700603    1.3146332    566.24154   -35837.029   -4576.0325 
   19200        0.192    400.52984     1.306795 -0.018733426  0.037956805 -0.022344979      1.28441    1.3290157    568.20368   -35840.839   -4420.0611 
   19250       0.1925    396.51276    1.3183496 -0.037382034  -0.04583756 -0.022351105    1.2957874    1.3404055    562.50494    -35836.96   -4117.1002 
   19300        0.193    394.27349    1.3503012 0.0064326352 -0.020853792 -0.022328783    1.3279987    1.3725714    559.32823   -35835.576   -4452.9333 
   19350       0.1935    392.57904    1.3727875  0.068722683   0.04101264 -0.022309963     1.350329    1.3948638    556.92444   -35834.898   -4941.7429 
   19400        0.194    394.18691    1.3814851  0.070259378 -0.016144152 -0.022333598    1.3590455    1.4036281    559.20541   -35838.954   -4785.3344 
   19450       0.1945    397.82924    1.3256543 -0.043462659 -0.043144624  -0.02238048    1.3032317    1.3479091    564.37253   -35845.888   -4130.1568 
   19500        0.195    391.95499    1.2864335 -0.047492329 -0.020975516 -0.022384874    1.2638979    1.3085839    556.03915   -35839.297   -4059.8855 
   19550       0.1955    394.98576    1.3571342  0.002894658  0.022816038 -0.022345789    1.3347636    1.3793709    560.33869   -35845.319   -4609.4829 
   19600        0.196    388.71922    1.3657999  0.034857979  0.054085438   -0.0223274    1.3434191    1.3879888    551.44878   -35838.123   -4849.1444 
   19650       0.1965    391.48875    1.3591392 0.0010046413   0.02211426 -0.022345485    1.3366326    1.3812389    555.37773   -35843.742   -4607.5272 
   19700        0.197    388.63259    1.3483387 -0.0036523267 -0.060029417  -0.02236507    1.3256568    1.3703031    551.32588   -35841.348   -4282.1898 
   19750       0.1975    389.20137    1.3823025  -0.02686557  0.013266564 -0.022352848    1.3597453    1.4043671    552.13278   -35843.774   -4562.3451 
   19800        0.198    393.53346    1.3897544  0.032311664 0.0084938129 -0.022332162    1.3675204    1.4121006     558.2784   -35851.548   -4768.5328 
   19850       0.1985    383.94661    1.3787722 -0.013984136 -0.022041509 -0.022330294    1.3562409    1.4008168    544.67822   -35839.571   -4475.8219 
   19900        0.199    383.94404    1.3643796 0.0080654404 0.0023176823 -0.022326942    1.3420024    1.3865712    544.67457   -35841.164   -4582.5425 
   19950       0.1995    390.89761    1.3717939  0.047137796  0.022691103 -0.022329375    1.3494182    1.3939924    554.53911   -35852.622   -4805.4094 
   20000          0.2    385.31393    1.3706464 -0.015604183 -0.033765673 -0.022350857    1.3483348    1.3929525    546.61793   -35846.284   -4404.2551 
Loop time of 4837.23 on 4 procs for 20000 steps with 10976 atoms

Pair  time (%) = 4234.64 (87.5427)
Neigh time (%) = 2.19958 (0.045472)
Comm  time (%) = 364.583 (7.53703)
Outpt time (%) = 1.74244 (0.0360215)
Other time (%) = 234.065 (4.83883)

Nlocal:    2744 ave 2762 max 2722 min
Histogram: 1 0 1 0 0 0 0 0 0 2
Nghost:    6334 ave 6398 max 6276 min
Histogram: 2 0 0 0 0 0 0 0 1 1
Neighs:    188234 ave 189874 max 186804 min
Histogram: 2 0 0 0 0 0 0 1 0 1
FullNghs:  0 ave 0 max 0 min
Histogram: 4 0 0 0 0 0 0 0 0 0

Total # of neighbors = 752936
Ave neighs/atom = 68.5984
Neighbor list builds = 110
Dangerous builds = 0

######################################
# SIMULATION DONE
print "All done"
All done
