LAMMPS (28 Jun 2014)
# Input file for uniaxial tensile loading of single crystal aluminum
# Mark Tschopp, November 2010

# ------------------------ INITIALIZATION ----------------------------
units 		metal
dimension	3
boundary	p	p	p
atom_style	atomic
variable latparam equal 4.05

# ----------------------- ATOM DEFINITION ----------------------------
lattice		fcc ${latparam}
lattice		fcc 4.05
Lattice spacing in x,y,z = 4.05 4.05 4.05
region		whole block 0 10 0 10 0 10
create_box	1 whole
Created orthogonal box = (0 0 0) to (40.5 40.5 40.5)
  1 by 2 by 2 MPI processor grid
lattice 	fcc ${latparam} orient x 1 0 0 orient y 0 1 0 orient z 0 0 1
lattice 	fcc 4.05 orient x 1 0 0 orient y 0 1 0 orient z 0 0 1
Lattice spacing in x,y,z = 4.05 4.05 4.05
create_atoms	1 region whole
Created 4000 atoms

# ------------------------ FORCE FIELDS ------------------------------
pair_style	eam/alloy
pair_coeff	* * Al99.negPhiR.eam.alloy Al

# ------------------------- SETTINGS ---------------------------------
compute csym all centro/atom fcc
compute peratom all pe/atom

######################################
# EQUILIBRATION
reset_timestep	0
timestep 0.001
velocity all create 300 12345 mom yes rot no
fix 1 all npt temp 300 300 1 iso 0 0 1 drag 1

# Set thermo output
thermo 50
thermo_style custom step lx ly lz press pxx pyy pzz pe temp

# Run for at least 10 picosecond (assuming 1 fs timestep)
run 20000
Memory usage per processor = 3.04301 Mbytes
Step Lx Ly Lz Press Pxx Pyy Pzz PotEng Temp 
       0         40.5         40.5         40.5    2173.5087    2124.3755    2212.0395     2184.111   -13449.904          300 
      50    40.555983    40.555983    40.555983    896.38667    826.04727    935.39958    927.71315   -13348.726    103.33889 
     100    40.627212    40.627212    40.627212   -4361.4005   -4355.9458   -4383.3674   -4344.8883   -13383.559    172.05619 
     150    40.560706    40.560706    40.560706    563.18767     528.1815    641.03365    520.34786    -13358.86    124.34499 
     200     40.50917     40.50917     40.50917    3380.2589    3476.4454    3318.5965    3345.7347   -13365.125    137.94278 
     250     40.56076     40.56076     40.56076    149.59591    72.390597    201.71524    174.68188   -13369.366    146.73994 
     300    40.604294    40.604294    40.604294   -2372.0018   -2317.6677   -2390.4751   -2407.8626   -13369.992    149.23898 
     350    40.565753    40.565753    40.565753   -391.23377   -465.62952   -329.06881   -379.00299   -13377.211    163.80212 
     400    40.527878    40.527878    40.527878    2169.8523    2224.5375    2239.9624     2045.057   -13369.781    150.53107 
     450    40.560885    40.560885    40.560885   -7.4168327   -49.725263   -41.649167    69.123931   -13372.962    157.42032 
     500    40.590085    40.590085    40.590085   -1580.6521   -1624.7936   -1448.1965   -1668.9662   -13369.326    151.45523 
     550    40.565379    40.565379    40.565379   -153.48812   -142.07491   -158.95058   -159.43886   -13370.621     154.8159 
     600    40.540129    40.540129    40.540129    1364.1864    1392.9458    1412.6906    1286.9227   -13371.809    158.23109 
     650    40.561008    40.561008    40.561008    206.91213    178.64348     238.5365    203.55642    -13367.99    151.79559 
     700    40.584377    40.584377    40.584377   -1200.2566   -1328.5547   -1107.0728   -1165.1423   -13370.091    156.99024 
     750    40.567502    40.567502    40.567502   -245.58043    -281.7375   -260.16288   -194.84092   -13370.478    158.74448 
     800    40.546265    40.546265    40.546265    1194.4382    1063.8858    1309.6494    1209.7793    -13367.01    153.18701 
     850    40.562371    40.562371    40.562371    33.931146    25.835563    92.464577   -16.506703   -13372.055    163.97669 
     900    40.581027    40.581027    40.581027   -896.73655   -928.62048   -831.06969   -930.51949   -13370.452    162.01166 
     950    40.570302    40.570302    40.570302   -243.05215   -257.93687     -191.461   -279.75858   -13365.033    152.57574 
    1000    40.552453    40.552453    40.552453    857.29673    845.82253     829.4246    896.64307   -13371.002    165.27861 
    1050    40.562093    40.562093    40.562093    290.50696     227.2014    404.51169    239.80778   -13362.891    150.64027 
    1100    40.578936    40.578936    40.578936   -750.79476    -843.3933   -659.99515   -748.99584   -13370.333    166.19284 
    1150     40.57061     40.57061     40.57061   -141.05183   -199.20594   -31.903497   -192.04604   -13363.662     154.3822 
    1200    40.557211    40.557211    40.557211     589.4446    531.40424    623.03217    613.89739   -13369.657    167.12246 
    1250     40.56411     40.56411     40.56411    165.81427     94.07426    247.68711    155.68146   -13365.908    160.96653 
    1300    40.576428    40.576428    40.576428   -554.90065   -576.46611   -442.97939   -645.25644   -13367.539    165.25918 
    1350    40.570569    40.570569    40.570569   -183.36925    -338.7044   -112.95342   -98.449928   -13366.734    164.82156 
    1400    40.560971    40.560971    40.560971    550.27091     484.1943    627.44593    539.17251   -13364.357    161.35777 
    1450    40.567653    40.567653    40.567653   -4.6698969   -50.875421   -4.9556083    41.821339   -13366.666    166.95304 
    1500    40.574325    40.574325    40.574325    -259.6885    -324.2989   -170.39207   -284.37454   -13363.547    162.07129 
    1550    40.571506    40.571506    40.571506   -222.70167   -339.58697    -209.6387   -118.87935   -13367.276    170.40747 
    1600      40.5638      40.5638      40.5638    372.74971    353.23532    455.44198    309.57183   -13362.593    162.48598 
    1650    40.568035    40.568035    40.568035    115.72412    61.047342    156.04259    130.08242   -13365.374    168.99582 
    1700    40.575224    40.575224    40.575224   -338.92719   -391.30776   -342.97862   -282.49519   -13361.966    163.56212 
    1750    40.571553    40.571553    40.571553   -40.034283   -59.641911   -74.805987    14.345051   -13365.582     171.6737 
    1800    40.565448    40.565448    40.565448    304.31415    203.66373    341.40605    367.87267   -13361.094    164.15242 
    1850    40.568527    40.568527    40.568527    242.10378     165.4071    293.36338    267.54086   -13361.821    166.68914 
    1900    40.577127    40.577127    40.577127   -401.79973   -513.38375   -363.36962   -328.64582   -13365.689    175.33344 
    1950    40.573693    40.573693    40.573693    -123.1537   -75.681204   -85.953031   -207.82686   -13359.996    165.43568 
    2000    40.566221    40.566221    40.566221    258.33547    190.43052    288.12134    296.45455   -13366.371    178.93191 
    2050    40.568862    40.568862    40.568862    283.27953    432.43988    273.25484    144.14389   -13359.069    165.93696 
    2100    40.578329    40.578329    40.578329   -343.27074   -563.86687   -271.03902   -194.90632   -13362.684    174.09604 
    2150    40.575548    40.575548    40.575548   -113.00511   -184.33532   -84.485762   -70.194255   -13358.188    166.52672 
    2200    40.567944    40.567944    40.567944    266.24022    323.24515    149.23853    326.23698   -13362.214    175.46398 
    2250    40.569474    40.569474    40.569474    156.78852    261.71128    169.27383    39.380446   -13361.803    175.83005 
    2300     40.57721     40.57721     40.57721   -236.55326   -267.18849   -232.43595   -210.03533   -13361.131    175.66436 
    2350    40.577134    40.577134    40.577134   -257.17142   -230.25246   -220.17438   -321.08742   -13360.898    176.37446 
    2400    40.569853    40.569853    40.569853    292.72804    307.04382    220.34608    350.79422   -13358.919    173.68707 
    2450    40.570677    40.570677    40.570677     123.6059   -43.564374    239.94874    174.43332   -13359.595    176.15574 
    2500      40.5767      40.5767      40.5767   -91.168975   -227.69303    -53.18485    7.3709584   -13358.624     175.4067 
    2550    40.578602    40.578602    40.578602   -288.06227   -335.71785   -356.51172   -171.95725   -13360.814    180.81261 
    2600    40.571868    40.571868    40.571868    327.26225    238.08967    401.93571    341.76136   -13355.431    171.55184 
    2650    40.573641    40.573641    40.573641     6.598574    139.79596   -46.304123   -73.696118   -13360.855    183.18263 
    2700    40.578131    40.578131    40.578131   -170.23407   -287.39905   -105.63145   -117.67172   -13356.668    176.23785 
    2750    40.577197    40.577197    40.577197   -46.085607   -73.592298   -92.268945    27.604423   -13358.655     181.2301 
    2800    40.573416    40.573416    40.573416    113.66826   -19.910289    199.08796    161.82712   -13356.134    177.51558 
    2850    40.574045    40.574045    40.574045    118.36002    77.542744    116.59539    160.94192   -13359.598    185.36126 
    2900    40.579344    40.579344    40.579344   -75.518871   -159.77986   -32.866431   -33.910325   -13355.925    179.40392 
    2950    40.579962    40.579962    40.579962   -167.60021   -135.84674   -298.49083    -68.46306   -13355.151    179.07536 
    3000    40.575135    40.575135    40.575135    96.911744    12.264479    191.72786    86.742888   -13359.856     189.3245 
    3050     40.57521     40.57521     40.57521    63.400233    45.639122    22.370436    122.19114   -13355.152    181.36114 
    3100    40.579386    40.579386    40.579386   -113.60889   -230.39561   -68.269678   -42.161384   -13357.404    186.87492 
    3150    40.580528    40.580528    40.580528    -141.0257   -192.24725   -110.82416    -120.0057   -13354.435    182.27214 
    3200    40.577525    40.577525    40.577525    51.070406   -31.809796    82.244424    102.77659   -13356.642     187.7168 
    3250    40.577677    40.577677    40.577677    187.75818    138.28254    124.08152     300.9105   -13354.023    183.78843 
    3300    40.582192    40.582192    40.582192   -195.86153    -358.0765   -80.667128   -148.84096   -13354.851    186.54915 
    3350    40.581235    40.581235    40.581235   -6.3160261   -65.596171   -6.8422869     53.49038    -13353.15    184.41119 
    3400    40.579548    40.579548    40.579548    4.1890193   -160.98322    52.859129    120.69114   -13356.134    191.33027 
    3450    40.580175    40.580175    40.580175    1.4473468   -110.08932    64.228095    50.203268   -13353.975    188.30389 
    3500    40.582315    40.582315    40.582315   -73.491726   -198.34291   -55.433928    33.301656   -13354.673    190.80668 
    3550    40.581579    40.581579    40.581579   -51.947971   -66.103459    10.571784   -100.31224   -13352.408    187.57707 
    3600    40.579974    40.579974    40.579974     93.75743    74.989693    53.134058    153.14854   -13352.444    188.78558 
    3650    40.581565    40.581565    40.581565   0.64854959    2.9146921   -44.617548    43.648504   -13352.027    189.12516 
    3700    40.583117    40.583117    40.583117   -29.322154   -86.184058   -7.4816378    5.6992338   -13352.456    191.12247 
    3750     40.58302     40.58302     40.58302   -8.1799281      46.7733   -62.112262   -9.2008218   -13352.265    191.90141 
    3800    40.582272    40.582272    40.582272    9.0152855   -105.70455    145.36995   -12.619541   -13352.273    193.06522 
    3850    40.582922    40.582922    40.582922    88.486654     34.48667    56.715728    174.25756    -13349.67    189.15961 
    3900    40.584639    40.584639    40.584639   -51.596066    52.875083   -149.54126   -58.122018   -13350.044    191.04431 
    3950    40.583758    40.583758    40.583758    16.591243   -126.27057    95.490577     80.55372   -13350.482     193.0326 
    4000    40.582841    40.582841    40.582841    71.074156    22.616788    47.837234    142.76845   -13350.229    193.68981 
    4050    40.584035    40.584035    40.584035    47.528881    21.539997    53.287842    67.758804   -13349.052    192.56058 
    4100    40.586126    40.586126    40.586126   -63.671786   -72.661227   -75.942468   -42.411663   -13352.693    200.76023 
    4150    40.585825    40.585825    40.585825   -67.445817   -186.98705   -20.290338    4.9399409   -13348.715    194.19311 
    4200    40.584098    40.584098    40.584098    120.70246    96.674087    19.129649    246.30366    -13347.07    192.15136 
    4250    40.585053    40.585053    40.585053    6.1708668   -82.018293    85.319143    15.211751   -13349.496     197.9935 
    4300    40.587005    40.587005    40.587005   -107.72069   -139.92441   -91.174612   -92.063046   -13349.764    199.65402 
    4350    40.586061    40.586061    40.586061    38.727804   -11.312554    116.13991    11.356058   -13347.096    195.63283 
    4400    40.585568    40.585568    40.585568    5.4568047   -76.777437    39.388364    53.759487   -13349.944    202.28687 
    4450    40.586852    40.586852    40.586852   -7.8418106    31.471009   -48.963605   -6.0328357   -13347.805    199.28422 
    4500    40.588361    40.588361    40.588361   -68.450651    28.850908    -101.0251   -133.17776   -13347.394    199.62257 
    4550    40.586907    40.586907    40.586907   -61.501053   -161.68547   -91.403085    68.585401   -13348.197    202.31977 
    4600    40.584989    40.584989    40.584989    237.49548    295.01179    291.32967    126.14499   -13345.621    198.46467 
    4650    40.589145    40.589145    40.589145   -37.208642   -38.515971   -3.5710565   -69.538899   -13346.136    200.60351 
    4700    40.591011    40.591011    40.591011   -169.65923   -170.22163   -169.71744   -169.03863    -13345.98    201.43644 
    4750    40.587411    40.587411    40.587411    90.853132    106.03008    240.95949   -74.430178    -13346.39    203.35842 
    4800    40.586897    40.586897    40.586897    85.096325    168.89821   -93.360749    179.75151    -13346.74    205.16944 
    4850    40.590255    40.590255    40.590255   -6.0081856   -117.40124    41.703069    57.673616    -13345.03    202.99074 
    4900    40.592126    40.592126    40.592126   -228.88429   -58.722328   -266.17072   -361.75981   -13345.907    205.81931 
    4950    40.587439    40.587439    40.587439    177.51259    95.735477    181.40358     255.3987   -13343.448    202.18963 
    5000    40.587882    40.587882    40.587882    173.31381    272.71588    232.12896    15.096584   -13344.133    204.63881 
    5050     40.59338     40.59338     40.59338   -125.60976   -177.41307   -176.33494   -23.081264   -13343.975     205.4588 
    5100     40.59348     40.59348     40.59348   -116.10654   -13.822546   -169.91044   -164.58663    -13342.31    203.36653 
    5150    40.588755    40.588755    40.588755    113.41254    113.56933     98.81824    127.85006   -13344.839    209.38171 
    5200    40.588792    40.588792    40.588792    171.84894    254.58027    197.58429    63.382257   -13345.285    211.36617 
    5250    40.594255    40.594255    40.594255   -92.762672   -133.27021     -110.584   -34.433803    -13340.31    202.86764 
    5300    40.594578    40.594578    40.594578   -155.39822   -138.28638   -201.82561   -126.08267    -13342.97    209.13107 
    5350    40.589886    40.589886    40.589886    222.25874    255.01794    293.56388    118.19442   -13341.958    208.29248 
    5400    40.590895    40.590895    40.590895    168.95504    200.66228    196.94678    109.25606   -13341.254    208.04277 
    5450    40.595973    40.595973    40.595973   -145.12778   -305.23428   -30.342892   -99.806159   -13340.853    208.37661 
    5500    40.595777    40.595777    40.595777   -208.03406   -141.66433   -263.07049   -219.36735   -13343.205    214.04292 
    5550    40.590273    40.590273    40.590273    177.84556    234.29985    214.02284    85.213996   -13342.666    214.11296 
    5600    40.591286    40.591286    40.591286     148.8614    89.278214    108.41701    248.88899   -13341.143    212.27373 
    5650    40.596844    40.596844    40.596844    -131.7058    -164.9206   -152.09763   -78.099163   -13339.026    209.28462 
    5700    40.596601    40.596601    40.596601   -124.91005    -129.6793   -87.500848      -157.55   -13340.818    213.86569 
    5750    40.592061    40.592061    40.592061    247.18189    122.56301    254.00257    364.98008   -13339.437    212.29604 
    5800    40.593783    40.593783    40.593783    86.012431    87.287258    230.49771   -59.747678   -13339.239    213.01915 
    5850    40.597844    40.597844    40.597844   -193.23687   -214.21097   -169.94449   -195.55515   -13340.554    216.66486 
    5900    40.597081    40.597081    40.597081   -137.67159    -267.4582   -3.4945879   -142.06197   -13339.911    216.50585 
    5950     40.59302     40.59302     40.59302    257.71825    294.85509    322.30045    155.99921   -13337.511    212.96984 
    6000    40.594961    40.594961    40.594961    83.327176    77.430193   -12.458603    185.00994   -13337.237      213.533 
    6050    40.598454    40.598454    40.598454   -134.36154   -176.29735   -76.972452   -149.81483   -13339.856    219.70735 
    6100    40.596968    40.596968    40.596968   -15.974254    47.271348   -118.38495    23.190843   -13337.216    215.68468 
    6150    40.594738    40.594738    40.594738     89.93027   -76.249402    212.70883    133.33139   -13339.843    221.85786 
    6200    40.596525    40.596525    40.596525     18.51094    23.313245    78.471786   -46.252211   -13336.537    216.54341 
    6250    40.599344    40.599344    40.599344   -130.03528   -101.44488   -228.21693    -60.44402   -13337.441    219.37734 
    6300    40.597859    40.597859    40.597859    52.488537    -45.72367    234.45041   -31.261125   -13336.978    219.57775 
    6350    40.597205    40.597205    40.597205    59.675656    161.58372   -58.478832    75.922082   -13337.347    221.37495 
    6400    40.599179    40.599179    40.599179   -69.847163   -242.53161     66.54735   -33.557232   -13337.143    222.05413 
    6450    40.599589    40.599589    40.599589   -87.336632   -22.175196   -182.91926    -56.91544   -13336.905    222.67013 
    6500    40.598371    40.598371    40.598371    33.653009   -144.28153   -22.904605    268.14516    -13336.96     223.8439 
    6550    40.598828    40.598828    40.598828    1.8740928    25.414724    22.270401   -42.062847    -13335.06    221.24175 
    6600    40.600384    40.600384    40.600384     8.763911   -49.046205    21.374074    53.963864   -13335.292    222.77035 
    6650    40.600968    40.600968    40.600968    55.134304     4.768721    314.55553   -153.92134   -13333.087    219.57792 
    6700    40.600372    40.600372    40.600372    16.318812   -23.749138   -3.3479978    76.053572   -13335.217    224.76998 
    6750    40.599876    40.599876    40.599876    121.93261    16.349568    147.39057    202.05769    -13334.14    223.74898 
    6800    40.601197    40.601197    40.601197   -78.645858   -100.15891   -51.173436   -84.605228   -13334.028    224.58763 
    6850    40.601567    40.601567    40.601567   -135.96522   -210.89531   -85.878802   -111.12154   -13337.353    232.07353 
    6900    40.601011    40.601011    40.601011    28.530065   -55.177123    120.04334     20.72398   -13334.089    226.81865 
    6950    40.601728    40.601728    40.601728   -16.877733   -25.081092   -81.547927    55.995819   -13335.579    230.76961 
    7000    40.602761    40.602761    40.602761   -37.192769   -61.011258    63.067723   -113.63477   -13331.542    223.99945 
    7050    40.602894    40.602894    40.602894    -65.01644      -57.899   -45.587025   -91.563295   -13333.982    229.76666 
    7100    40.601957    40.601957    40.601957    20.502694    4.2406794    88.344483   -31.077081   -13333.108    229.12664 
    7150    40.602721    40.602721    40.602721    30.097618    50.934184   -55.174989    94.533658   -13333.007     229.9792 
    7200    40.604638    40.604638    40.604638   -119.95518    -130.4914   -52.410696   -176.96344   -13333.756    232.47319 
    7250    40.604437    40.604437    40.604437     40.74784   -20.168318    72.699291    69.712548   -13331.164    228.50184 
    7300    40.603755    40.603755    40.603755   -26.539435    39.811413   -135.84228     16.41256    -13331.86    230.87775 
    7350    40.603234    40.603234    40.603234    120.79798    100.26728    170.18149    91.945175   -13329.762    227.85124 
    7400    40.605857    40.605857    40.605857   -44.336024   -48.197773   -84.860422  0.050122382   -13330.616    230.53478 
    7450    40.606814    40.606814    40.606814   -134.15091   -243.79232  -0.37321339   -158.28721   -13332.876    235.94028 
    7500    40.604261    40.604261    40.604261    49.783386   -33.852694    38.592859    144.60999   -13330.591    232.54876 
    7550    40.603683    40.603683    40.603683    173.81885    113.85187    249.13954    158.46514   -13330.265    232.93338 
    7600    40.607386    40.607386    40.607386   -65.038073   -122.08007    13.702364   -86.736511   -13329.538     232.5581 
    7650    40.608717    40.608717    40.608717   -2.8644738   -24.590883    97.329244   -81.331783   -13327.532    229.68268 
    7700    40.606575    40.606575    40.606575   -51.973677    -16.11307   -135.76317   -4.0447931   -13329.264    234.05715 
    7750    40.602744    40.602744    40.602744    221.14829     221.0732    316.34798    126.02368    -13330.05    236.59295 
    7800    40.606533    40.606533    40.606533   -6.0049606    51.788696   -73.525782    3.7222036   -13329.612    236.74513 
    7850    40.610572    40.610572    40.610572   -179.23686   -124.93645   -148.04259   -264.73154   -13326.786    232.28085 
    7900    40.608263    40.608263    40.608263   -31.283097   -165.62443   -5.1010499    76.876189   -13329.493    238.52238 
    7950    40.605133    40.605133    40.605133    90.955089    116.68714    167.03005   -10.851924    -13329.88    240.27536 
    8000    40.607917    40.607917    40.607917   -22.506863   -76.587803    10.766843   -1.6996289   -13328.967    239.49475 
    8050    40.611439    40.611439    40.611439   -209.37418   -210.28824   -255.57428   -162.26003   -13327.522    237.70821 
    8100    40.607987    40.607987    40.607987    22.969849   -9.3934389    38.623024    39.679962   -13328.673    240.92648 
    8150    40.605971    40.605971    40.605971    219.08826    225.47182    202.45366    229.33929   -13326.552    237.80056 
    8200    40.610853    40.610853    40.610853   -93.987367    -184.7073    121.21881   -218.47361   -13327.813    241.23248 
    8250    40.612756    40.612756    40.612756   -74.069857    21.979922   -150.37513   -93.814364   -13324.191    235.20023 
    8300    40.609428    40.609428    40.609428    32.745326    -135.9606    219.49787    14.698711   -13326.378    240.40702 
    8350    40.606591    40.606591    40.606591     187.6618    279.77413    159.26963    123.94163    -13326.17    240.98185 
    8400    40.609574    40.609574    40.609574    119.45947   -43.450686    153.44707    248.38201   -13323.234    236.27326 
    8450    40.613522    40.613522    40.613522   -247.24654   -176.81742   -153.29569    -411.6265   -13326.897    244.33204 
    8500    40.609957    40.609957    40.609957    -18.71756   -91.032514   -44.840457    79.720293    -13325.72    243.01887 
    8550    40.606574    40.606574    40.606574    293.54963    320.38482    307.25241    253.01166   -13324.711    242.03555 
    8600    40.611798    40.611798    40.611798   -193.49111   -386.60309   -1.8930354   -191.97719   -13327.538    248.45787 
    8650    40.614337    40.614337    40.614337   -97.337383   -179.62732   -57.138259   -55.246573   -13323.989    242.54766 
    8700    40.612968    40.612968    40.612968    -133.3642   -52.591776   -94.305837   -253.19498   -13325.372    246.17074 
    8750    40.609598    40.609598    40.609598    200.33137    52.939893    281.17763    266.87658   -13322.963    242.46605 
    8800    40.610559    40.610559    40.610559    84.810095    110.89188    107.68101    35.857402   -13322.679    242.86342 
    8850    40.613144    40.613144    40.613144   -42.555306   -32.407913   -8.7375324   -86.520473   -13323.475    245.34164 
    8900     40.61336     40.61336     40.61336   -127.16702   -29.080585   -197.86429   -154.55617   -13324.215    247.71503 
    8950    40.611064    40.611064    40.611064    118.22619    35.507917    198.21664    120.95401   -13322.228    244.80019 
    9000    40.612588    40.612588    40.612588   -17.919449   -68.844287    98.445316   -83.359375   -13325.932    252.90531 
    9050    40.614923    40.614923    40.614923   -102.55354   -18.239006   -139.06694   -150.35468   -13322.309    246.81273 
    9100    40.614491    40.614491    40.614491   -72.757168   -222.40338   -40.124071    44.255944   -13322.918    248.92142 
    9150    40.612015    40.612015    40.612015    134.27548    219.13731    87.756757    95.932363   -13320.789     245.7236 
    9200    40.612534    40.612534    40.612534    34.574207    3.0650581   -19.056066    119.71363   -13322.106    249.19557 
    9250    40.613987    40.613987    40.613987   -69.437903   -152.69869   -27.833703   -27.781315   -13321.011    247.99058 
    9300    40.613929    40.613929    40.613929    123.72922    172.99095  -0.88388309    199.08059    -13321.89     250.6029 
    9350     40.61513     40.61513     40.61513   -15.493737   -229.11156    105.42288    77.207469   -13321.173    250.10991 
    9400     40.61646     40.61646     40.61646   -128.04844     28.77286   -307.71515   -105.20303   -13320.575    249.85322 
    9450    40.615687    40.615687    40.615687    122.82796    2.2474206     203.6321    162.60435   -13318.289    246.32499 
    9500    40.615898    40.615898    40.615898   -65.753386    -107.9174   -150.75253    61.409776   -13322.213    254.82208 
    9550    40.615239    40.615239    40.615239    138.39449   -2.2376052    253.55572    163.86535   -13319.651    250.76722 
    9600    40.617927    40.617927    40.617927   -110.57809   -65.042027   -151.55183   -115.14041   -13321.144    254.53562 
    9650    40.618332    40.618332    40.618332   -117.91928   -138.28826   -124.56101   -90.908591   -13319.827    252.87557 
    9700    40.615554    40.615554    40.615554     102.1491   -20.340932     231.7592     95.02905    -13320.72    255.48307 
    9750    40.616109    40.616109    40.616109    39.709137   -22.629431    -8.018678    149.77552   -13319.702    254.38767 
    9800    40.618585    40.618585    40.618585    29.180292   -249.85984    222.59092     114.8098   -13318.395    252.73289 
    9850    40.619837    40.619837    40.619837   -242.26913   -226.05592    -411.6231    -89.12838   -13320.623    257.90952 
    9900    40.616412    40.616412    40.616412    205.12815    231.92221    225.04191    158.42035   -13317.083    251.91775 
    9950    40.618039    40.618039    40.618039   0.46541261    31.877434   -129.80262    99.321426   -13320.671     259.7287 
   10000    40.620843    40.620843    40.620843   -79.407901   -59.999124   -54.453908   -123.77067   -13316.513    252.54055 
   10050     40.61997     40.61997     40.61997   -131.24071   -240.25385   -79.216719   -74.251567   -13319.128    258.45756 
   10100    40.615881    40.615881    40.615881    166.49194   -40.509429    429.93055    110.05471   -13319.227    259.49894 
   10150    40.618249    40.618249    40.618249    125.61439    80.956941     40.66704     255.2192   -13315.728    253.56895 
   10200    40.623248    40.623248    40.623248   -247.42866   -492.99657   -180.17112   -69.118284   -13318.989    260.72381 
   10250    40.620859    40.620859    40.620859    140.60251    294.82357     72.66986    54.314096   -13313.059    250.07894 
   10300    40.618726    40.618726    40.618726   -17.316441   -94.915348   -19.864363    62.830389   -13318.662    261.76221 
   10350    40.617781    40.617781    40.617781     188.1829    202.83653    277.25223    84.459948    -13315.35    256.17982 
   10400    40.621626    40.621626    40.621626    -203.6486   -244.22092   -251.37989   -115.34497   -13319.232    264.52554 
   10450    40.621758    40.621758    40.621758    -135.7966   -254.35486    18.513423   -171.54835   -13317.187    261.38361 
   10500    40.619408    40.619408    40.619408    27.747705   -90.656474    68.175816    105.72377    -13317.03    261.89053 
   10550    40.619167    40.619167    40.619167    123.81692    127.29232    346.30661   -102.14818   -13315.358    259.46748 
   10600    40.622724    40.622724    40.622724   -11.408909    6.6314373   -7.9527475   -32.905418   -13314.591     258.7921 
   10650    40.624363    40.624363    40.624363   -74.892771    25.908075   -78.290185    -172.2962   -13313.977    258.41606 
   10700     40.62127     40.62127     40.62127    77.328012     46.79377    157.30811    27.882161   -13316.361    263.83559 
   10750    40.620078    40.620078    40.620078    137.07752    97.018041     329.0856   -14.871091   -13313.042    258.20026 
   10800     40.62406     40.62406     40.62406   -154.31202   -330.10344   -156.41553    23.582921   -13316.463    265.60497 
   10850    40.624098    40.624098    40.624098   -157.37266   -242.29012    2.5531352   -232.38099   -13314.525    262.65047 
   10900    40.619411    40.619411    40.619411    185.70769    41.967659     277.5365    237.61893   -13314.149    262.70942 
   10950    40.620215    40.620215    40.620215    239.69185    444.40445     70.30563    204.36547   -13313.451    262.13963 
   11000    40.625944    40.625944    40.625944   -114.18153   -466.14065    136.53993   -12.943877   -13313.035    262.11622 
   11050    40.625701    40.625701    40.625701    -217.5238   -280.63893   -232.94996    -138.9825   -13315.119    266.91355 
   11100    40.620851    40.620851    40.620851     80.13722   -17.295262    185.97423    71.732695   -13314.925     267.2959 
   11150    40.620694    40.620694    40.620694    129.54261    123.26535    185.88327    79.479197   -13313.644    265.59024 
   11200    40.625642    40.625642    40.625642   -122.18099   -258.79992    -163.9827    56.239632   -13314.508    268.01385 
   11250    40.626262    40.626262    40.626262   -236.37359   -259.76039   -284.00574   -165.35463   -13313.277    266.39293 
   11300    40.620623    40.620623    40.620623    186.37009    238.62887    90.273991    230.20742    -13312.87    266.35036 
   11350    40.621199    40.621199    40.621199    190.39725    245.98794    153.65355    171.55025   -13312.454    266.29161 
   11400    40.626943    40.626943    40.626943   -201.33341   -276.98224   -233.21715   -93.800858   -13312.588    267.29753 
   11450      40.6275      40.6275      40.6275   -71.330251   -191.40449   -36.499663    13.913399   -13311.516    265.96047 
   11500     40.62403     40.62403     40.62403    10.528471   -136.61872    43.558984    124.64515   -13312.267     268.1511 
   11550    40.621901    40.621901    40.621901    142.98694    141.07308    161.75666    126.13109   -13312.593    269.51324 
   11600    40.624985    40.624985    40.624985     83.95918   -112.23397    110.66351    253.44801   -13310.702    266.57289 
   11650    40.629967    40.629967    40.629967   -281.79249   -312.58036   -207.88822   -324.90889   -13312.784    271.31805 
   11700    40.626675    40.626675    40.626675    32.242609   -77.707739    36.250723    138.18484   -13308.873    264.46143 
   11750    40.622609    40.622609    40.622609    238.41756      178.534     329.3851    207.33358   -13310.906    269.10906 
   11800    40.625533    40.625533    40.625533    63.024846    11.903026   0.37956838    176.79194   -13310.997     269.9982 
   11850    40.630479    40.630479    40.630479   -333.40393   -465.87437   -367.22508   -167.11234     -13312.3    273.21484 
   11900    40.626859    40.626859    40.626859    19.071312    147.13122     77.51927   -167.43656    -13309.02    267.56759 
   11950    40.623251    40.623251    40.623251    266.37587    116.12738    179.04996    503.95025   -13310.233    270.61654 
   12000    40.626927    40.626927    40.626927   -3.9785297    96.942049   -24.192386   -84.685252    -13311.05    272.88854 
   12050    40.630415    40.630415    40.630415   -288.10955   -464.74316   -254.79031   -144.79517    -13311.39    274.22817 
   12100    40.626514    40.626514    40.626514    90.142718    172.94285   -55.148663    152.63396   -13309.619       271.48 
   12150     40.62453     40.62453     40.62453    198.68992    114.84183    125.48312     355.7448   -13309.413     271.7509 
   12200    40.629662    40.629662    40.629662   -67.421546   -237.70867   -39.930114    75.374152    -13308.97    271.55946 
   12250    40.632184    40.632184    40.632184    -218.2455    -411.8741    -109.1166   -133.74578   -13309.664    273.57201 
   12300    40.628052    40.628052    40.628052    -19.09469   -37.469089   -105.23827    85.423291    -13309.69    274.28423 
   12350    40.625465    40.625465    40.625465     392.6598    286.40286    431.54709    460.02946   -13307.815    271.31716 
   12400    40.631461    40.631461    40.631461   -157.19314   -152.92231   -168.51228   -150.14481   -13307.523    271.40549 
   12450    40.631907    40.631907    40.631907   -136.65787   -111.17861    36.165974   -334.96096   -13308.327      273.606 
   12500    40.626702    40.626702    40.626702    100.70578   -26.956808    82.545895    246.52824    -13309.39    276.31551 
   12550    40.626256    40.626256    40.626256    185.00592    162.15169    107.14439    285.72168   -13309.452    277.07803 
   12600    40.632118    40.632118    40.632118   -163.25318   -379.89502   -86.938795   -22.925717   -13307.609    274.14085 
   12650    40.633783    40.633783    40.633783   -181.37243   -232.49627    -371.4286    59.807588   -13307.604    274.75527 
   12700    40.629543    40.629543    40.629543   -17.068198   -51.081398   -92.218348    92.095153   -13310.435    280.86534 
   12750    40.626734    40.626734    40.626734    228.07601    303.79949    190.37137    190.05717   -13307.006    274.85058 
   12800    40.631094    40.631094    40.631094   -52.621006   -57.116138   -245.08564    144.33876   -13307.347    276.13498 
   12850    40.632984    40.632984    40.632984   -139.82441   -119.45024   -218.03968   -81.983299   -13307.179    276.41977 
   12900    40.630329    40.630329    40.630329    47.204599   -30.336942   -46.801834    218.75257   -13306.931    276.55311 
   12950    40.628915    40.628915    40.628915    211.01226    146.39971    217.90459    268.73249   -13306.473    276.27313 
   13000    40.632581    40.632581    40.632581   -30.310603   -146.02986   -195.14853    250.24659   -13307.536    278.92907 
   13050    40.635275    40.635275    40.635275   -236.35034   -315.86092   -143.13932   -250.05079   -13307.428    279.31725 
   13100    40.631497    40.631497    40.631497    109.36003    253.96511   -166.09701      240.212   -13304.329    273.90883 
   13150    40.629326    40.629326    40.629326    36.102705   -34.771566    184.70441   -41.624728   -13308.012    281.62578 
   13200    40.630855    40.630855    40.630855    34.841666   -207.92611   -30.282337    342.73344   -13307.621    281.45753 
   13250    40.634132    40.634132    40.634132     -102.998   -342.52723   -83.793342    117.32658   -13305.836    278.58141 
   13300    40.633473    40.633473    40.633473   -244.66575   -186.95345   -270.23889   -276.80491   -13308.758    284.81156 
   13350    40.629235    40.629235    40.629235    304.16558    261.84038    310.52829    340.12808    -13303.94    276.05839 
   13400    40.632085    40.632085    40.632085   -6.0682563   -133.14802   -14.582047     129.5253   -13303.844    276.44173 
   13450    40.634599    40.634599    40.634599    12.695618     33.22394   -87.286168    92.149082   -13303.529    276.39116 
   13500    40.633828    40.633828    40.633828   -10.790032   -126.59101   -44.804016    139.02493   -13304.352     278.5467 
   13550    40.630997    40.630997    40.630997   -4.4526704    17.495667   -18.593096   -12.260583   -13309.072    288.23286 
   13600    40.631341    40.631341    40.631341    125.12061    227.65739    37.711241    109.99321   -13304.541    280.00569 
   13650    40.635217    40.635217    40.635217   -150.69404   -351.77751    111.54253   -211.84712   -13305.455    282.31537 
   13700    40.634758    40.634758    40.634758   -13.486033   -23.754255   -110.20206    93.498216   -13302.794    277.70568 
   13750    40.631916    40.631916    40.631916    63.513952   -135.35773    151.19095    174.70864    -13305.95    284.34811 
   13800     40.63173     40.63173     40.63173    231.70512    296.37014    27.725336    371.01988   -13301.963    277.15999 
   13850    40.635519    40.635519    40.635519   -142.02053   -293.50232    35.218416   -167.77768   -13306.167    285.82947 
   13900    40.635228    40.635228    40.635228    6.5521929    37.959633    -52.51031    34.207256   -13302.615    279.46882 
   13950    40.634935    40.634935    40.634935   -84.311719   -182.51347   -77.831724    7.4100416    -13304.95     284.5105 
   14000    40.633186    40.633186    40.633186    137.33025   -100.07273    156.80505    355.25844   -13303.207    281.65061 
   14050    40.633991    40.633991    40.633991    7.3145733   -71.581588    61.989917    31.535391   -13304.423    284.51226 
   14100    40.635051    40.635051    40.635051   -74.163636   -171.77442    4.1137331   -54.830222   -13304.952    286.03831 
   14150    40.634874    40.634874    40.634874    26.126436    130.05855   -64.397158    12.717911   -13304.086    284.86074 
   14200    40.636261    40.636261    40.636261   -20.198777   -88.123252     12.07282    15.454102   -13303.098    283.44175 
   14250    40.637124    40.637124    40.637124   -254.32098    -313.9604   -434.28862   -14.713916   -13305.364    288.31907 
   14300    40.633443    40.633443    40.633443    202.01381    65.815219    175.09737    365.12884   -13302.049    282.38839 
   14350    40.634589    40.634589    40.634589   -36.665725   -116.62924   -99.748145    106.38021   -13304.018    286.69401 
   14400    40.637232    40.637232    40.637232   -91.577975   -73.859821   -209.25955    8.3854431   -13303.921    286.99193 
   14450    40.637775    40.637775    40.637775   -94.506107    -153.8678   -204.30408    74.653562   -13303.865     287.3607 
   14500    40.635739    40.635739    40.635739    34.167656   -20.370748    45.178832    77.694884   -13302.612    285.39883 
   14550    40.635536    40.635536    40.635536    54.428209   -5.2533765    -35.97488    204.51288   -13302.385    285.42499 
   14600    40.637031    40.637031    40.637031    2.6301857    -134.4207   -70.750913    213.06217   -13300.821    282.86021 
   14650    40.636825    40.636825    40.636825   -26.884294    136.70382   -156.14719   -61.209513   -13302.434     286.4424 
   14700    40.635916    40.635916    40.635916    71.342167   -46.661882    132.51675    128.17163   -13302.105    286.25492 
   14750    40.637473    40.637473    40.637473    7.1758651   -72.373778   -23.439853    117.34123   -13302.119    286.74263 
   14800    40.637655    40.637655    40.637655   -131.39178   -209.57349    93.987433   -278.58927   -13302.775    288.46241 
   14850    40.635723    40.635723    40.635723    152.36999    96.976624     5.779059     354.3543   -13301.503    286.44404 
   14900    40.637305    40.637305    40.637305    9.9043149    67.699313   -27.655186   -10.331182   -13301.528    286.93176 
   14950    40.638314    40.638314    40.638314   -115.91016   -377.19975   -76.458877    105.92815   -13302.631     289.5017 
   15000    40.637181    40.637181    40.637181    185.39477     184.4655    136.19985    235.51897   -13300.036    284.90293 
   15050    40.638794    40.638794    40.638794   -218.94448   -358.93937   -87.701445   -210.19263   -13302.452    290.00502 
   15100     40.63636     40.63636     40.63636    130.85332    169.02092    14.624567    208.91445   -13301.553    288.68046 
   15150    40.637791    40.637791    40.637791    104.45973    157.79949    12.728408    142.85129   -13300.048    286.18443 
   15200     40.64046     40.64046     40.64046   -194.44914   -313.30201   -266.74867    -3.296728   -13300.643    287.75228 
   15250    40.636825    40.636825    40.636825    152.07433    374.30318    30.458276    51.461547   -13299.601    286.14347 
   15300    40.636313    40.636313    40.636313    115.26282    -25.60415    117.35878    254.03382   -13301.008    289.27274 
   15350     40.63928     40.63928     40.63928   -227.59198   -116.33643   -244.89735   -321.54216   -13303.784    295.04741 
   15400    40.638635    40.638635    40.638635   -92.128459   -22.253313   -83.257191   -170.87487    -13301.98    291.94305 
   15450    40.637667    40.637667    40.637667    6.9446406    41.414241  -0.82060844   -19.759711   -13300.983    290.40743 
   15500    40.638729    40.638729    40.638729   -72.380123    63.977945   -123.75746   -157.36085   -13300.854    290.54602 
   15550    40.639241    40.639241    40.639241   -2.6202217    98.676175     -106.652   0.11516335   -13299.211    287.75039 
   15600    40.638406    40.638406    40.638406  0.087900231   -157.68149    98.235092    59.710095   -13301.136    291.85607 
   15650    40.637574    40.637574    40.637574    247.83634    324.43133    151.06848    268.00921    -13297.94    286.03748 
   15700    40.641747    40.641747    40.641747   -219.30345   -207.81852   -112.03583   -338.05601     -13301.2    292.70969 
   15750    40.641407    40.641407    40.641407   -159.58303   -230.22943   -14.240061   -234.27959    -13301.77    294.17549 
   15800    40.638352    40.638352    40.638352   -13.216657   -58.196989    12.109214    6.4378044   -13300.654    292.37879 
   15850    40.636855    40.636855    40.636855    306.17978    328.99313    364.72904    224.81717    -13298.03    287.66507 
   15900    40.641749    40.641749    40.641749   -29.813779    -71.87783    86.694954   -104.25846   -13299.729     291.3067 
   15950    40.644992    40.644992    40.644992    -452.0773   -606.68612    -314.7174   -434.82836   -13302.838    297.68081 
   16000    40.637631    40.637631    40.637631    162.69783    303.75084    135.34622    48.996444   -13298.678    289.97542 
   16050    40.635346    40.635346    40.635346    443.00666     309.7974    472.31924    546.90335   -13296.959    286.99196 
   16100    40.642902    40.642902    40.642902   -184.70709   -195.97588   -257.55503   -100.59035   -13299.155    291.58517 
   16150     40.64249     40.64249     40.64249   -209.58613   -382.39666    122.53355   -368.89528   -13299.268    292.13279 
   16200      40.6367      40.6367      40.6367    195.84653    147.38919    157.67996    282.47044   -13300.062    294.00716 
   16250    40.638748    40.638748    40.638748    196.95186    240.78448    344.53854    5.5325688   -13298.042    290.42787 
   16300    40.645321    40.645321    40.645321   -297.71503   -372.39463   -255.11486   -265.63558   -13299.386     293.3648 
   16350    40.641525    40.641525    40.641525   -27.425753   -65.265608    16.418851   -33.430501   -13297.118    289.29155 
   16400    40.635957    40.635957    40.635957    344.29164       266.96    353.12718    412.78774   -13297.797     290.9289 
   16450    40.640078    40.640078    40.640078    6.2727403    107.22763   -43.689403   -44.720007   -13300.525    296.51718 
   16500    40.644855    40.644855    40.644855   -198.80397    -114.8623   -78.098164   -403.45145   -13297.942    291.82679 
   16550     40.64299     40.64299     40.64299   -212.84519   -380.12455   -165.73479   -92.676221   -13300.979    298.00209 
   16600    40.637528    40.637528    40.637528    263.73741    377.49881    414.54987  -0.83645107   -13297.488    291.54193 
   16650    40.640962    40.640962    40.640962   -82.744852   -47.162578   -184.07425   -16.997729   -13298.957    294.68482 
   16700    40.643511    40.643511    40.643511   -100.45332   -52.986702     -88.3337   -160.03955    -13296.76    290.73219 
   16750     40.64064     40.64064     40.64064    16.363611    166.10869    39.724696   -156.74255   -13299.356     296.0464 
   16800    40.638685    40.638685    40.638685    140.71223     237.4251    428.25071   -243.53912   -13298.497    294.67138 
   16850    40.642979    40.642979    40.642979   -107.77935   -66.257152   -170.90401   -86.176876    -13299.32    296.54298 
   16900    40.643887    40.643887    40.643887    -91.22666   -15.559638    38.958896   -297.07924   -13297.445    293.19754 
   16950    40.640356    40.640356    40.640356    82.096142   0.28058294    150.36615    95.641689    -13297.55    293.67014 
   17000    40.640102    40.640102    40.640102    48.507675    113.33969    93.526011   -61.342675   -13300.391    299.44081 
   17050    40.643692    40.643692    40.643692   -97.550192   -121.52746   -148.89005   -22.233061   -13297.222    293.57149 
   17100    40.643905    40.643905    40.643905   -63.442666    190.74449   -316.83603    -64.23646   -13297.288    293.96516 
   17150     40.64181     40.64181     40.64181   -47.478884   -314.57168    99.429223    72.705808   -13297.792    295.19813 
   17200    40.639808    40.639808    40.639808    200.39585    351.26804    103.64104    146.27846   -13296.504    292.96447 
   17250     40.64271     40.64271     40.64271   -48.415542   -66.830178   -31.800997    -46.61545   -13297.397    294.94813 
   17300    40.643974    40.643974    40.643974   -96.700119   -285.15329   -92.166669    87.219598   -13297.626    295.64394 
   17350    40.640725    40.640725    40.640725    194.81242    179.53333    20.707177    384.19674   -13295.275    291.33573 
   17400    40.641718    40.641718    40.641718   -83.429475   -303.50131    20.670597    32.542288   -13299.589    299.92913 
   17450    40.642468    40.642468    40.642468    114.16672    5.1140727    94.272123    243.11396   -13296.177       293.56 
   17500     40.64465     40.64465     40.64465   -256.15032   -381.25914   -142.31822   -244.87359   -13299.572    300.35821 
   17550    40.642467    40.642467    40.642467    47.678322   -95.572272    213.43618    25.171059   -13297.158    295.92023 
   17600    40.641304    40.641304    40.641304    65.408791    27.113485    59.933704    109.17918   -13297.016    295.87322 
   17650    40.641035    40.641035    40.641035    123.12387    44.573114    171.03016    153.76833   -13295.007    292.20657 
   17700    40.643292    40.643292    40.643292   -16.820517    77.335912   -32.947861   -94.849601   -13297.106    296.48456 
   17750    40.644671    40.644671    40.644671   -220.40462   -433.38427     20.75124   -248.58083   -13299.287    300.91609 
   17800    40.640956    40.640956    40.640956    198.66101    173.48117    245.75884    176.74301   -13293.808    290.52024 
   17850    40.641928    40.641928    40.641928    31.915846   -116.58261    163.93987    48.390286   -13298.373    299.56854 
   17900    40.644452    40.644452    40.644452   -95.837527   -152.36797   -45.453879   -89.690733   -13296.782    296.69964 
   17950    40.643668    40.643668    40.643668    10.822131      6.54311    118.12889   -92.205603   -13297.404    298.10167 
   18000    40.641923    40.641923    40.641923    94.149985    72.523246    409.84605   -199.91934    -13296.78    297.08665 
   18050    40.642777    40.642777    40.642777    71.516552   -108.96502    48.217552    275.29713   -13296.235    296.21662 
   18100     40.64584     40.64584     40.64584   -235.62321   -358.45436   -227.63341   -120.78184   -13298.834    301.43643 
   18150    40.642735    40.642735    40.642735    117.66206    66.365944    182.38834    104.23191   -13293.617    291.52117 
   18200    40.642218    40.642218    40.642218    5.8529506    96.009067   -44.455809   -33.994407   -13299.358     302.8252 
   18250    40.643966    40.643966    40.643966    -1.301978   -39.175274    165.17619   -129.90684   -13296.328    297.14911 
   18300    40.645927    40.645927    40.645927    -77.40617   -216.36247   -107.60721    91.751172   -13295.607    295.93184 
   18350     40.64544     40.64544     40.64544   -79.983394   -107.68364   -208.68949    76.422955    -13297.54    299.85103 
   18400    40.641612    40.641612    40.641612    97.841639 -0.054205878    239.86839    53.710734   -13295.272    295.62753 
   18450    40.642105    40.642105    40.642105    3.1456703   -142.21829   -40.082242    191.73754   -13299.932     304.8116 
   18500    40.644821    40.644821    40.644821   -23.013605   -46.085851     39.94294   -62.897903   -13294.496    294.45496 
   18550    40.646396    40.646396    40.646396   -208.40269   -328.46398   -192.87721   -103.86688   -13298.524    302.40772 
   18600    40.644059    40.644059    40.644059    99.556356    165.10104    -46.59811    180.16614   -13295.354    296.43162 
   18650    40.642638    40.642638    40.642638    31.033587   -189.66083    117.12355    165.63804   -13297.219    300.18968 
   18700    40.642942    40.642942    40.642942     122.1295    131.94364   -77.317702    311.76257    -13293.27     292.6928 
   18750    40.645871    40.645871    40.645871   -247.29038    -396.5419      124.121   -469.45025   -13300.154    306.16374 
   18800    40.643933    40.643933    40.643933    110.74428    38.063347    11.596111     282.5734   -13294.452    295.26674 
   18850    40.644028    40.644028    40.644028    54.831386    -52.63983    359.54575   -142.41176   -13295.197    296.85041 
   18900    40.643498    40.643498    40.643498    124.66995    50.649321    107.45426    215.90626   -13294.081    294.82485 
   18950    40.643158    40.643158    40.643158    140.24311    212.94881      207.986  -0.20547273    -13295.23     297.1655 
   19000     40.64612     40.64612     40.64612   -75.192419    52.729258   -196.72893   -81.577582   -13294.556    295.97831 
   19050    40.646158    40.646158    40.646158   -271.21196   -274.37304   -221.11246   -318.15038   -13298.371    303.48297 
   19100    40.640029    40.640029    40.640029    279.38156     393.6997     25.06677     419.3782   -13294.842    296.77493 
   19150    40.641902    40.641902    40.641902    193.00647    240.83711    128.65126    209.53103    -13294.83       296.87 
   19200    40.648717    40.648717    40.648717   -212.70808   -180.17161   -392.85247   -65.100167   -13294.818    296.96077 
   19250    40.646728    40.646728    40.646728   -124.06668   -104.08342   -79.824944   -188.29166   -13295.767    298.90054 
   19300    40.640421    40.640421    40.640421    255.66825    371.66335   -32.721911    428.06331   -13295.237     297.9765 
   19350    40.642643    40.642643    40.642643    74.603042    355.29383   -87.166749    -44.31796   -13297.036    301.56139 
   19400    40.647755    40.647755    40.647755   -141.81871   -175.02432   -234.35294   -16.078888   -13294.081     295.9434 
   19450     40.64603     40.64603     40.64603   -123.18529   -19.235707   -347.34877   -2.9713863   -13295.806    299.37782 
   19500    40.639269    40.639269    40.639269    356.80119    517.12547    181.93491     371.3432    -13294.97    297.84969 
   19550    40.643588    40.643588    40.643588    67.894628    30.959991    47.591622    125.13227   -13294.815    297.62637 
   19600    40.649519    40.649519    40.649519   -459.73231   -553.30783    -499.6832   -326.20591   -13295.778     299.5794 
   19650    40.642891    40.642891    40.642891    160.33239    9.6388284    346.35027    125.00807   -13294.246    296.69911 
   19700    40.639555    40.639555    40.639555    207.06753    174.73532    163.83266     282.6346   -13296.643    301.42905 
   19750    40.644231    40.644231    40.644231    18.856209   -28.971938    92.067984    -6.527419   -13294.262    296.89588 
   19800     40.64799     40.64799     40.64799   -131.91735   -9.0027145   -80.343182   -306.40617   -13294.305    297.06219 
   19850    40.644039    40.644039    40.644039   -40.636334    -170.9152    94.612792   -45.606598   -13295.132    298.72923 
   19900    40.640039    40.640039    40.640039    315.46642    285.91322    177.69298    482.79307   -13295.045    298.62926 
   19950    40.645442    40.645442    40.645442   -142.60429   -186.44416   -21.960647   -219.40805   -13298.017    304.44505 
   20000    40.647949    40.647949    40.647949   -188.78601   -48.133953   -203.08199   -315.14209   -13294.919    298.51421 
Loop time of 249.509 on 4 procs for 20000 steps with 4000 atoms

Pair  time (%) = 209.844 (84.1028)
Neigh time (%) = 0 (0)
Comm  time (%) = 30.4309 (12.1963)
Outpt time (%) = 0.113092 (0.045326)
Other time (%) = 9.12102 (3.65559)

Nlocal:    1000 ave 1000 max 1000 min
Histogram: 4 0 0 0 0 0 0 0 0 0
Nghost:    4235 ave 4235 max 4235 min
Histogram: 4 0 0 0 0 0 0 0 0 0
Neighs:    70000 ave 72653 max 67302 min
Histogram: 1 0 1 0 0 0 0 1 0 1
FullNghs:  0 ave 0 max 0 min
Histogram: 4 0 0 0 0 0 0 0 0 0

Total # of neighbors = 280000
Ave neighs/atom = 70
Neighbor list builds = 0
Dangerous builds = 0
unfix 1

# Store final cell length for strain calculations
variable tmp equal "lx"
variable L0 equal ${tmp}
variable L0 equal 40.6479493653391
print "Initial Length, L0: ${L0}"
Initial Length, L0: 40.6479493653391

######################################
# DEFORMATION
reset_timestep	0

fix		1 all npt temp 300 300 1 y 0 0 1 z 0 0 1 drag 1
variable srate equal 1.0e10
variable srate1 equal "v_srate / 1.0e12"
fix		2 all deform 1 x erate ${srate1} units box remap x
fix		2 all deform 1 x erate 0.01 units box remap x

# Output strain and stress info to file
# for units metal, pressure is in [bars] = 100 [kPa] = 1/10000 [GPa]
# p2, p3, p4 are in GPa
variable strain equal "(lx - v_L0)/v_L0"
variable p1 equal "v_strain"
variable p2 equal "-pxx/10000"
variable p3 equal "-pyy/10000"
variable p4 equal "-pzz/10000"
fix def1 all print 20 "${p1} ${p2} ${p3} ${p4}" file  Al99.negPhiR.eam.alloy.def1.txt screen no

# Use cfg for AtomEye
#dump 		1 all cfg 250 dump.tensile_*.cfg id type xs ys zs c_csym c_peratom fx fy fz
#dump_modify 1 element Al

# Display thermo
thermo 	50
thermo_style	custom step v_strain temp v_p2 v_p3 v_p4 ke pe press

run		20000
Memory usage per processor = 3.04301 Mbytes
Step strain Temp p2 p3 p4 KinEng PotEng Press 
       0 -6.9921632e-16    298.51421 0.0048133953  0.020308199  0.031514209    154.30537   -13294.919   -188.78601 
      50       0.0005    297.91939  0.058473685  0.023850459  0.015597916     153.9979   -13294.554   -326.40687 
     100        0.001    298.97313  0.081360769 0.0079449499 0.0024529425    154.54259   -13295.035   -305.86221 
     150       0.0015    300.84699  0.075869458 -0.013600595 -0.032048379    155.51121   -13295.927   -100.73495 
     200        0.002    294.18005   0.11198382 -0.0013523675 -0.040675876      152.065   -13292.403   -233.18525 
     250       0.0025    300.28887   0.17841915 0.0057951074  0.034364399    155.22272   -13295.466   -728.59551 
     300        0.003    300.06877   0.21545624 0.0052628862  0.031354099    155.10894   -13295.263   -840.24408 
     350       0.0035    290.88657    0.2109034 -0.043390082 0.0070796849    150.36256   -13290.417   -581.97666 
     400        0.004    307.17084   0.25237577   0.01591762  -0.02579577    158.78008   -13298.721   -808.32541 
     450       0.0045    298.11386   0.30311293 -0.0033345417 -0.014023125    154.09843   -13293.924   -952.51755 
     500        0.005       304.46   0.33164017  0.041585882  0.015997591    157.37882   -13297.079   -1297.4121 
     550       0.0055    298.25435   0.36526738 0.0046447987 -0.013308072    154.17105   -13293.743   -1188.6804 
     600        0.006    301.28207   0.39794007 -0.0034894637 -0.0040707455    155.73611   -13295.168   -1301.2662 
     650       0.0065    298.06075   0.43290856 0.0054276029  0.029033379    154.07097   -13293.355   -1557.8985 
     700        0.007    302.36897    0.4730819 -0.011868938  0.034973566    156.29794    -13295.42   -1653.9551 
     750       0.0075    295.49762    0.4698044 -0.037230301  0.016535625    152.74606   -13291.717   -1497.0324 
     800        0.008    301.35276   0.52507717   0.02371216 -0.020534427    155.77266    -13294.57   -1760.8497 
     850       0.0085    296.70475   0.56736858 0.0074940408 -0.017435877    153.37005   -13291.993   -1858.0892 
     900        0.009    299.53897   0.58223333  0.035800535 -0.0019548081    154.83509   -13293.274   -2053.5968 
     950       0.0095    304.77435   0.63867103  0.041125881 0.0014461929    157.54131   -13295.792   -2270.8103 
    1000         0.01     298.8551   0.62467832  -0.02327623 -0.020313519    154.48159   -13292.548   -1936.9619 
    1050       0.0105    300.87891    0.6893385 -0.023310971 0.0066854076    155.52772   -13293.388   -2242.3765 
    1100        0.011    300.15635   0.72908168 0.0020570151  0.038457452    155.15421   -13292.797   -2565.3205 
    1150       0.0115    302.41485   0.76310549  0.017260966  0.058043028    156.32166   -13293.744   -2794.6983 
    1200        0.012    298.32209   0.74891549 -0.014184494  -0.01150062    154.20606    -13291.41   -2410.7679 
    1250       0.0125     300.7951   0.79922796 -0.0054745526 -0.036423663    155.48439   -13292.454   -2524.4325 
    1300        0.013    296.06943   0.82223268 -0.011777141 -0.026922044    153.04164   -13289.779   -2611.7783 
    1350       0.0135    296.49515    0.8874002  0.031851707  0.019234001     153.2617   -13289.757   -3128.2864 
    1400        0.014    306.44533    0.9353534  0.056112552  0.020807968    158.40506   -13294.643   -3374.2464 
    1450       0.0145    299.43068   0.91846757 -0.030296947 -0.0046715683    154.77911   -13290.764   -2944.9969 
    1500        0.015    309.71368   0.95302071 -0.0014270985 0.0013656503    160.09451   -13295.813   -3176.5309 
    1550       0.0155    293.43829   0.99738592 -0.029496334 0.0049776732    151.68157   -13287.131   -3242.8909 
    1600        0.016    293.86409    1.0432364 -0.0040866282 0.0040949602    151.90167   -13287.073   -3477.4823 
    1650       0.0165    296.80129    1.0696137  0.024838142  0.038416756    153.41995   -13288.305   -3776.2288 
    1700        0.017    301.52076    1.0924097 -0.014946019 -0.041898686    155.85949   -13290.449   -3451.8832 
    1750       0.0175    301.96664    1.0897182  0.016643868 -0.014365865    156.08997   -13290.378   -3639.9875 
    1800        0.018    299.52428    1.1492794  0.016803929 -0.038905774    154.82749    -13288.82   -3757.2584 
    1850       0.0185    297.14409    1.1890699  0.025676409  0.027364255    153.59714   -13287.278   -4140.3686 
    1900        0.019    297.27406    1.2279851  0.010295423  0.017698043    153.66433   -13287.023   -4186.5952 
    1950       0.0195    296.45781    1.2153015 -0.045237447 -0.0051318472     153.2424   -13286.273   -3883.1074 
    2000         0.02    300.92905    1.2652964 -0.037440622 -0.0044177058    155.55363   -13288.252   -4078.1268 
    2050       0.0205    299.92346    1.3190199 -0.0056402452  0.021165246    155.03383   -13287.399    -4448.483 
    2100        0.021    295.42023    1.3333243  0.024830405 -0.0072668135    152.70606   -13284.719   -4502.9597 
    2150       0.0215    298.74966    1.3858145 0.0057405804  0.019479196    154.42708   -13286.084   -4703.4475 
    2200        0.022    300.09028    1.4023708  0.002822009 -0.039162289    155.12006   -13286.412   -4553.4349 
    2250       0.0225    296.06369    1.4262171 -0.014374521 -0.0092789882    153.03868   -13283.961   -4675.2119 
    2300        0.023    302.90024    1.4661203  0.041108186  0.007496752    156.57256   -13287.117   -5049.0841 
    2350       0.0235     302.3168    1.5196162 0.0084459213  0.011685871    156.27098   -13286.428   -5132.4933 
    2400        0.024    292.45273    1.5310225 -0.024138841 0.0056758905    151.17213   -13280.943   -5041.8653 
    2450       0.0245    302.63006    1.5821278 -0.00048813196 0.0022175987     156.4329   -13285.803   -5279.5241 
    2500        0.025    299.35578     1.596116  0.013949115 -0.0032401063    154.74039   -13283.707   -5356.0834 
    2550       0.0255    301.87392    1.6470244 -0.0081478235 0.00072918091    156.04205     -13284.6   -5465.3526 
    2600        0.026     294.8333    1.6553723  0.018356657  0.014830559    152.40267   -13280.545   -5628.5316 
    2650       0.0265    304.38472    1.7265108 0.0034626595 -0.0035595811    157.33991   -13285.052   -5754.7128 
    2700        0.027    295.76052    1.6997112 -0.014802636 -0.016516939    152.88196   -13280.159   -5561.3054 
    2750       0.0275    303.42687    1.7851386  0.010416002   0.01059568    156.84478   -13283.679    -6020.501 
    2800        0.028    298.08534    1.8085933 0.0093319056 -0.0048431847    154.08369   -13280.471   -6043.6068 
    2850       0.0285     298.2221    1.8296899  0.015954232  0.022474907    154.15438   -13280.092   -6227.0633 
    2900        0.029    296.26257    1.8185259 -0.013710195 -0.023396241    153.14148   -13278.622   -5938.0647 
    2950       0.0295    299.46892    1.8696062  -0.02822207 0.0042244323    154.79888   -13279.816   -6152.0286 
    3000         0.03    297.58381    1.9069507 -0.024390789 -0.0066304865    153.82444   -13278.375   -6253.0981 
    3050       0.0305     299.0417    1.9770089  0.012534552  0.027162735    154.57804   -13278.647   -6722.3539 
    3100        0.031    300.12005     2.010779  0.025481722  0.021362165    155.13545    -13278.72   -6858.7429 
    3150       0.0315    299.65107    1.9964343  0.017322711 -0.0069870491    154.89303   -13277.984   -6689.2331 
    3200        0.032    297.68712    2.0213817 -0.022400688 -0.042010077    153.87784   -13276.467   -6523.2364 
    3250       0.0325    302.13385    2.0614234 0.00056038586 -0.0031813496    156.17641   -13278.262   -6862.6747 
    3300        0.033    299.28821    2.1235499  0.010683194  0.014508844    154.70546    -13276.28   -7162.4733 
    3350       0.0335    295.43446    2.1587561 0.0010628375  0.012536487    152.71341   -13273.766   -7241.1849 
    3400        0.034    296.64454    2.1685165 0.0089730321  0.025284839    153.33892   -13273.866   -7342.5811 
    3450       0.0345    299.93686    2.1941956 -0.024708796 -0.023956652    155.04076   -13275.036   -7151.7672 
    3500        0.035    294.36517    2.1936737 -0.028973328 -0.031259862    152.16069   -13271.618   -7111.4683 
    3550       0.0355    300.69645    2.2905951 0.0022852031   0.02263826     155.4334   -13274.349   -7718.3951 
    3600        0.036    303.11406    2.3194548  0.067465568  0.054603776    156.68309    -13275.04   -8138.4139 
    3650       0.0365    297.14214    2.3155797 -0.013113983 -0.0067566243    153.59614   -13271.402   -7652.3637 
    3700        0.037    296.26326    2.3421631 -0.033131437 -0.062246094    153.14183   -13270.375   -7489.2851 
    3750       0.0375    300.56685    2.3670175 -0.0035991204 -0.013562099    155.36641   -13272.027   -7832.8543 
    3800        0.038    299.50851    2.4259806  0.018883676  0.041701802    154.81934   -13270.902   -8288.5535 
    3850       0.0385    297.74888    2.4432786  0.015730686  0.019039504    153.90977   -13269.414   -8260.1626 
    3900        0.039    297.56488    2.4504594 -0.021470738 -0.022179788    153.81466   -13268.733   -8022.6963 
    3950       0.0395    298.38194    2.4917174 -0.024204302 -0.010085441      154.237   -13268.559   -8191.4256 
    4000         0.04    302.43578    2.5655557  0.010997983  0.014309013    156.33248   -13270.052    -8636.209 
    4050       0.0405    297.41005    2.5757242  0.011670272  0.017118083    153.73462   -13266.843   -8681.7086 
    4100        0.041    295.28847    2.6006832  0.029814409   -0.0227401    152.63795    -13265.13    -8692.525 
    4150       0.0415    299.35526    2.6091833 -0.0075774082 0.0024405197    154.74012   -13266.611   -8680.1546 
    4200        0.042     296.8514    2.6236894 -0.025449112 -0.036468051    153.44585   -13264.694   -8539.2409 
    4250       0.0425     299.1604    2.6922775 -0.015286794 -0.0077605845     154.6394   -13265.254   -8897.4338 
    4300        0.043    303.67882    2.7535863  0.022137322  0.072897726    156.97502   -13266.941   -9495.4046 
    4350       0.0435    297.52001    2.7509618  0.030339405 0.0064487842    153.79146   -13263.117      -9292.5 
    4400        0.044    298.05995    2.7559887 -0.0067577572 -0.024451597    154.07056   -13262.745   -9082.5979 
    4450       0.0445    300.94754    2.7722403 -0.033618977 -0.028796696    155.56319   -13263.578   -9032.7489 
    4500        0.045    296.33182    2.8240998 0.0065889766 -0.0059697718    153.17727   -13260.533   -9415.7299 
    4550       0.0455    296.42571    2.8706579  0.021359246  0.030656875     153.2258    -13259.91   -9742.2467 
    4600        0.046    300.86083    2.9169476  0.021397515  0.043304069    155.51837   -13261.526   -9938.8305 
    4650       0.0465    294.60484    2.9023495 -0.037527495 -0.028221614    152.28458   -13257.606   -9455.3348 
    4700        0.047     297.3419    2.9326478 -0.009026449 -0.021428912     153.6994   -13258.331   -9673.9747 
    4750       0.0475    299.01497    2.9818909  0.040886274 -0.017857013    154.56422   -13258.498   -10016.401 
    4800        0.048    297.82173    3.0076473  0.007923722 0.0099736874    153.94742   -13257.182   -10085.149 
    4850       0.0485    301.96765     3.077199  0.016914009  0.032155159     156.0905   -13258.611   -10420.894 
    4900        0.049    299.79166    3.0581877 -0.0041765427 0.0035773098     154.9657   -13256.768   -10191.961 
    4950       0.0495    294.51723    3.0707543 -0.054988912 -0.013567743    152.23929   -13253.327   -10007.326 
    5000         0.05    296.55981    3.1115062  -0.00381176  -0.01763941    153.29512   -13253.657   -10300.184 
    5050       0.0505     302.4082    3.1656547  0.043576857  0.046017473    156.31822   -13255.953    -10850.83 
    5100        0.051    297.97581    3.1964979  0.010695348 -0.0011450912    154.02707   -13252.927   -10686.827 
    5150       0.0515     297.8119    3.1816352 0.0024143974 -0.038228279    153.94234     -13252.1   -10486.071 
    5200        0.052    299.63619    3.2263854 -0.024825599 -0.025376503    154.88534   -13252.296   -10587.278 
    5250       0.0525    298.76698    3.2775041  0.024245994  0.031150662    154.43603   -13251.089   -11109.669 
    5300        0.053    299.15104    3.3378458 0.0020450821  0.030727829    154.63456   -13250.522   -11235.396 
    5350       0.0535    301.42084    3.3536714 -0.011568246  0.016280642    155.80784   -13250.922   -11194.613 
    5400        0.054    294.56073    3.3600317   -0.0767709 -0.012952731    152.26178   -13246.605   -10901.027 
    5450       0.0545    300.02338    3.4120015  0.042480602  0.024106881    155.08548   -13248.647   -11595.297 
    5500        0.055    295.75054    3.4430219  0.014416708  0.026994943     152.8768   -13245.653   -11614.779 
    5550       0.0555    302.39833    3.4749468 0.0090885907 -0.0091829071    156.31312   -13248.296   -11582.842 
    5600        0.056    295.87523    3.4629832 -0.034701341 -0.062249274    152.94126   -13244.123   -11220.109 
    5650       0.0565    299.46883    3.5268762  0.033158048 -0.021228371    154.79883   -13245.183    -11796.02 
    5700        0.057    299.20767    3.5653657  0.049369305  0.050253713    154.66383   -13244.234   -12216.629 
    5750       0.0575    299.00217    3.5792356  0.031434071  0.021348758    154.55761   -13243.323   -12106.728 
    5800        0.058    294.46458     3.562554 -0.065170906 -0.051085875    152.21207   -13240.152   -11487.657 
    5850       0.0585    300.32865     3.621473 -0.037579653 -0.0097826716    155.24328   -13242.355   -11913.702 
    5900        0.059    297.47465    3.6773991  0.049235103  0.038924655    153.76802   -13240.038   -12551.863 
    5950       0.0595    298.30808    3.7054607  0.015807261   0.05283527    154.19882   -13239.631   -12580.344 
    6000         0.06    299.60127    3.7196036 -0.029870867 -0.023146279    154.86729   -13239.454   -12221.955 
    6050       0.0605    302.82294    3.7268134 -0.0038728427 -0.028080207     156.5326   -13240.261   -12316.201 
    6100        0.061    293.98202     3.783002 -0.016256333  -0.01784112    151.96263   -13234.836   -12496.348 
    6150       0.0615    295.05881    3.8253489  0.028923737    0.0078775    152.51924   -13234.528   -12873.834 
    6200        0.062    298.84295    3.8575714  0.030951312  0.028407988     154.4753   -13235.615   -13056.436 
    6250       0.0625    298.57072    3.8390381 -0.016910531 0.0032078761    154.33458   -13234.603   -12751.118 
    6300        0.063    296.46544     3.876828 -0.027505841 -0.040505022    153.24634   -13232.632   -12696.057 
    6350       0.0635    295.99423    3.8897139 -0.022113223 0.0027829408    153.00277   -13231.505   -12901.279 
    6400        0.064    301.87459    3.9850695  0.056458181  0.060175818    156.04239   -13233.653   -13672.345 
    6450       0.0645    299.10729    3.9894775 -0.016842885  0.010336084    154.61194   -13231.323   -13276.569 
    6500        0.065    298.69391    3.9712993  -0.01425279  -0.03521579    154.39826   -13230.207   -13072.769 
    6550       0.0655    296.72797    3.9842505 -0.041201299 -0.021874169    153.38205    -13228.29   -13070.583 
    6600        0.066    299.56618    4.0481093  0.024937377  0.024256362    154.84915   -13228.848   -13657.677 
    6650       0.0665    297.05364    4.0866028  0.034020161  0.024221878    153.55039   -13226.631   -13816.149 
    6700        0.067     300.2046    4.1333603  0.016787374 0.0082881569    155.17915   -13227.333   -13861.453 
    6750       0.0675    298.12627     4.140042  -0.02468681 -0.054682964    154.10484   -13225.325   -13535.574 
    6800        0.068    297.44978    4.1529903 0.0095040434 -0.014090061    153.75516   -13224.041   -13828.014 
    6850       0.0685    296.49766    4.1941831 0.0084913413  0.031027203      153.263   -13222.608   -14112.339 
    6900        0.069    298.13289    4.2388801 0.0057230893 0.0033919095    154.10827   -13222.506   -14159.984 
    6950       0.0695    298.01131    4.2225583 -0.021895133  0.012676454    154.04542   -13221.495   -14044.465 
    7000         0.07    297.75733     4.289608 -0.0087271784 -0.024176829    153.91413   -13220.403   -14189.013 
    7050       0.0705    303.98926    4.3326784   0.02004435  0.038016998    157.13549   -13222.652   -14635.799 
    7100        0.071    298.14683     4.346896  0.036174268 -0.014693063    154.11547   -13218.663   -14561.257 
    7150       0.0715    297.98124    4.3410664  -0.01467337 -0.016053438    154.02988   -13217.604   -14367.799 
    7200        0.072    296.57205    4.4054042 -0.021220591 -0.011722425    153.30145   -13215.887   -14574.871 
    7250       0.0725    299.09417    4.4268232  0.020324544 -0.0046665734    154.60516   -13216.199    -14808.27 
    7300        0.073    293.74476    4.4581264 -0.0033242434  0.027846752    151.83999   -13212.441   -14942.163 
    7350       0.0735     299.3949    4.4842255 0.0041968472  0.012549935    154.76061   -13214.359   -15003.241 
    7400        0.074    301.42735    4.5091262 -0.0037796679 -0.0026443295    155.81121   -13214.399   -15009.007 
    7450       0.0745    296.18952    4.5376743 -0.027335646 -0.004858635    153.10372   -13210.679   -15018.267 
    7500        0.075    301.90005    4.5563062  0.044256385  0.030827073    156.05555   -13212.612   -15437.966 
    7550       0.0755    296.62214    4.6098947 -0.017625401  0.036634707    153.32734   -13208.867    -15429.68 
    7600        0.076     301.4218    4.6153189 -0.012825487 4.5001302e-05    155.80834   -13210.319   -15341.795 
    7650       0.0765     292.3991    4.6173532 -0.033344098 -0.048750122     151.1444   -13204.625    -15117.53 
    7700        0.077    298.58894    4.6915674  0.014291177  0.023305811      154.344   -13206.783   -15763.881 
    7750       0.0775    298.72159    4.7553018  0.058907038  0.028487298    154.41257   -13205.791   -16142.321 
    7800        0.078     299.7387    4.7136064  0.047515997 -0.032136652    154.93833   -13205.275   -15763.286 
    7850       0.0785    299.38829    4.7249525 -0.031892064 -0.077206268     154.7572   -13204.043    -15386.18 
    7900        0.079    300.02619     4.808564 -0.011191775  -0.03252173    155.08693   -13203.329   -15882.835 
    7950       0.0795    293.09721    4.8188719  0.044739043  0.068115065    151.50526   -13198.672   -16439.087 
    8000         0.08     301.4234    4.8716837  0.042438198  0.088471568    155.80917   -13201.899   -16675.311 
    8050       0.0805    299.20509    4.8419904  -0.07839634 -0.015955289     154.6625   -13199.674   -15825.463 
    8100        0.081    295.96736    4.8576411  -0.10329037 -0.048341429    152.98888    -13196.92   -15686.698 
    8150       0.0815    293.81362    4.9396323 0.00072539361    0.0244351    151.87558   -13194.728   -16549.309 
    8200        0.082    296.63392    4.9848347    0.1023449  0.078441469    153.33343   -13195.083   -17218.737 
    8250       0.0825    298.90743    4.9974223   0.01112084 -0.020669226    154.50864   -13195.167   -16626.247 
    8300        0.083    297.23225    4.9602493 -0.024265947  -0.11467874    153.64271   -13193.175   -16071.015 
    8350       0.0835    296.34992    5.0174175  0.002314868 -0.025729631    153.18663   -13191.623   -16646.676 
    8400        0.084    299.77596    5.0890405  0.059774455  0.032448433    154.95759   -13192.269   -17270.878 
    8450       0.0845    298.30354    5.1089207  0.028289777  0.059645902    154.19647   -13190.379   -17322.855 
    8500        0.085    292.87134    5.1020739 -0.049356578 -0.016166977    151.38851    -13186.44   -16788.501 
    8550       0.0855    292.37536    5.1141107 -0.075769036 -0.037271651    151.13213    -13185.04   -16670.233 
    8600        0.086    299.62438    5.1585375  0.025350841  0.014718963    154.87923   -13187.644   -17328.691 
    8650       0.0865    296.29246    5.2118424  0.015476369  0.024173908    153.15693   -13184.773   -17504.976 
    8700        0.087    296.64826    5.1975155 -0.019759584  0.031266566    153.34084   -13183.811   -17363.408 
    8750       0.0875    299.99319    5.2791294 -0.026412894 -0.023374427    155.06988   -13184.377    -17431.14 
    8800        0.088    298.23201    5.2912128  0.013780626 -0.015288957     154.1595   -13182.291   -17632.348 
    8850       0.0885    301.20694    5.3377852  0.045692963  0.023876463    155.69727   -13182.655   -18024.515 
    8900        0.089    297.81172    5.3541492  0.026594698 -0.0038006886    153.94225   -13179.718   -17923.144 
    8950       0.0895    295.09863    5.3766904 -0.0034593111 -0.022229919    152.53982   -13177.132   -17836.671 
    9000         0.09    295.15267    5.3952238 -0.018979548 -0.063103657    152.56776   -13175.968   -17710.469 
    9050       0.0905    296.95326    5.4293426 0.0060386576  0.022907174     153.4985   -13175.708   -18194.295 
    9100        0.091    299.42558    5.4895378  0.032364871  0.041286982    154.77647    -13175.78   -18543.965 
    9150       0.0915    294.87651    5.4898372 -0.025143878 -0.0018753685    152.42501   -13172.225   -18209.393 
    9200        0.092    294.87447    5.4971678 -0.039288086 -0.026226283    152.42395   -13171.008   -18105.512 
    9250       0.0925    296.67624    5.5320436 -0.0030821957  0.013035185    153.35531   -13170.725   -18473.322 
    9300        0.093    297.91251    5.5686547  0.002810251  0.047769813    153.99435   -13170.148   -18730.783 
    9350       0.0935    296.62028    5.5795946 0.0017057124 0.0069114385    153.32638   -13168.259   -18627.373 
    9400        0.094     298.3733    5.6010564 -0.002065391 -0.0073935698    154.23253   -13167.935   -18638.658 
    9450       0.0945    298.96942    5.6130003  0.011812865 -0.045378262    154.54068   -13167.008   -18598.116 
    9500        0.095    297.23259    5.6549106 -0.0097397201 -0.0016757456    153.64289    -13164.87    -18811.65 
    9550       0.0955    297.94424    5.7032998  0.055356454  0.025228633    154.01075    -13163.99   -19279.616 
    9600        0.096    299.28742    5.7327358  0.063526941 -0.0088468301    154.70506   -13163.438   -19291.386 
    9650       0.0965    294.34825     5.713962 -0.058199634 -0.055089842    152.15194   -13159.631   -18668.908 
    9700        0.097    299.41286    5.7625905 -0.025295901  0.014593043     154.7699   -13160.985   -19172.959 
    9750       0.0975    298.35884    5.8321551  0.036639141  0.030061437    154.22506   -13159.166   -19662.852 
    9800        0.098    295.69429    5.8417688 -0.021815362   0.05849686    152.84773   -13156.515   -19594.834 
    9850       0.0985    291.52722    5.8505083 -0.064127969 -0.0069577638    150.69372   -13153.082   -19264.742 
    9900        0.099    296.85919    5.8666419 -0.010841582 -0.026005328    153.44988   -13154.554    -19432.65 
    9950       0.0995    297.50118    5.9058614   0.01919349  0.047395191    153.78173   -13153.594   -19908.167 
   10000          0.1    296.61782    5.9180194   0.02812164 -0.0049285254    153.32511   -13151.845   -19804.042 
   10050       0.1005    298.80583    5.9271415 -0.027275002  -0.01029654    154.45611   -13151.678     -19631.9 
   10100        0.101    296.88918    5.9916497  0.012570426 -0.064743274    153.46538   -13149.377   -19798.256 
   10150       0.1015    296.91015    6.0152775  0.042623373  0.021424733    153.47622    -13148.07   -20264.419 
   10200        0.102    293.98891    6.0366664    0.0404866 -0.023834984    151.96619   -13145.248   -20177.727 
   10250       0.1025    294.47144    6.0358862 -0.0065168404 -0.040991672    152.21562   -13144.187   -19961.259 
   10300        0.103    299.16365     6.069477 -0.034000834 0.0076646715    154.64107   -13145.283   -20143.803 
   10350       0.1035    292.35331    6.0947908 -0.025275584 -0.039606523    151.12074    -13140.43   -20099.696 
   10400        0.104    294.70528    6.1516915  0.012714395  0.044904234     152.3365   -13140.303     -20697.7 
   10450       0.1045    298.93262    6.1922136  0.034558801  0.059252149    154.52166   -13141.143   -20953.415 
   10500        0.105    296.69313    6.2065575 -0.036465542 -0.018677479    153.36404   -13138.634   -20504.715 
   10550       0.1055    297.85946    6.2075188 -0.078557476 -0.030087391    153.96693    -13137.88    -20329.58 
   10600        0.106    294.02936    6.2487454 0.0096152029 0.0026952009     151.9871   -13134.555   -20870.186 
   10650       0.1065    300.20659    6.3582105  0.067014145  0.076861717    155.18018   -13136.369   -21673.621 
   10700        0.107    298.04718    6.3327806  0.045460632  0.019655404    154.06396   -13133.884   -21326.322 
   10750       0.1075    296.13535    6.2859773 -0.046510299  -0.06280314    153.07571   -13131.508    -20588.88 
   10800        0.108     290.8741    6.2988821   -0.0417541  -0.10527664    150.35612   -13127.412   -20506.171 
   10850       0.1085    300.25668    6.4569915  0.090864262  0.039752224    155.20608   -13130.872   -21958.693 
   10900        0.109    296.03255     6.440167  0.082347054  0.055512948    153.02258   -13127.293   -21926.757 
   10950       0.1095    292.58133    6.4164382 -0.0098829335 -0.076526569     151.2386   -13124.121   -21100.096 
   11000         0.11    298.44516    6.4311034 -0.068871388 -0.024089177    154.26968   -13125.738   -21127.143 
   11050       0.1105    295.37724    6.5006678 -0.035590568  0.015725078    152.68384    -13122.73   -21602.674 
   11100        0.111    298.87599    6.5720605   0.02918966  0.086540736    154.49238   -13123.102   -22292.636 
   11150       0.1115    297.57867    6.5749288 -0.028860268  0.070836114    153.82178   -13121.008   -22056.349 
   11200        0.112    296.99709    6.5490325 -0.033723349  -0.01520973    153.52116   -13119.286   -21666.998 
[...]
   11650       0.1165     294.6141    6.7797676  0.032206502 -0.030851739    152.28937   -13104.914   -22603.741 
   11700        0.117      297.829     6.815385  0.013906981  0.032287294    153.95118    -13105.09   -22871.931 
   11750       0.1175    295.91265    6.8083398 -0.016056798  0.011714502     152.9606    -13102.61   -22679.992 
   11800        0.118    295.94318    6.8543867  -0.02483212 -0.017958196    152.97638   -13101.134   -22705.321 
   11850       0.1185    294.86389    6.8991943 -0.024427523 -0.018131085    152.41848   -13099.074   -22855.452 
   11900        0.119    295.98457    6.9487363  0.028994266  0.057749117    152.99777    -13098.14   -23451.599 
   11950       0.1195    296.83859    6.9387387  0.021669168 0.0060724727    153.43923   -13097.075   -23221.601 
   12000         0.12    298.18294    6.9625054 -0.0097389938 -0.010363927    154.13414   -13096.252   -23141.342 
   12050       0.1205    295.74453    7.0009885 -0.037054297 -0.0054504387     152.8737    -13093.46   -23194.946 
   12100        0.121    291.93001    6.9757843  0.008522787 -0.0048472471    150.90192   -13089.968   -23264.866 
   12150       0.1215    294.88121     7.030773  0.032332907  0.028512284    152.42744   -13089.962   -23638.727 
   12200        0.122    296.96877     7.085303 -0.0012057171 0.0016366349    153.50652   -13089.501   -23619.113 
   12250       0.1225    295.31825    7.0833505 5.2876266e-05 -0.021317605    152.65335   -13087.102   -23540.286 
   12300        0.123    296.01055    7.1048836 -0.024832826 -0.0015167902    153.01121    -13085.91   -23595.113 
   12350       0.1235     287.6209     7.079906 -0.020647106 -0.0087617691     148.6745   -13080.028   -23501.657 
   12400        0.124    297.79144    7.1568794  0.027168824  0.048624045    153.93176   -13083.733   -24108.908 
   12450       0.1245    293.66039    7.1845725 0.0051711277 -0.010337192    151.79638   -13080.034   -23931.355 
   12500        0.125    296.31469    7.2065872 -0.016461806 0.0022230148    153.16842   -13079.836   -23974.495 
   12550       0.1255    294.94838    7.2375764 -0.0099783406 0.0091664387    152.46216   -13077.549   -24122.548 
   12600        0.126    293.04087    7.2429607  0.012475878 -0.0062162959    151.47614   -13074.984   -24164.068 
   12650       0.1265    295.16299     7.267348 0.00095220859 -0.029026044    152.57309   -13074.495   -24130.914 
   12700        0.127     291.9755    7.3066797 -0.0053408354 -0.020296298    150.92544    -13071.26   -24270.142 
   12750       0.1275    297.34019    7.3667657   0.06341504  0.027414947    153.69851   -13072.433   -24858.652 
   12800        0.128    294.54038     7.340967  0.029852027  0.013994284    152.25126   -13069.384   -24616.044 
   12850       0.1285    290.71611    7.2659826 -0.057875834  -0.05680241    150.27445   -13065.812   -23837.681 
   12900        0.129     298.0707    7.3184971 -0.034481099 -0.011645821    154.07612   -13068.022   -24241.234 
   12950       0.1295      295.844    7.4370534  0.039806227   0.02962769    152.92511    -13065.26   -25021.624 
   13000         0.13    290.15589    7.4385137  0.073918355  0.052095169    149.98486   -13060.687   -25215.091 
   13050       0.1305    291.65743     7.421978 -0.0022133816 -0.0014833314    150.76103   -13059.862   -24727.604 
   13100        0.131    293.18571     7.392376  -0.10644624 -0.070499517    151.55101   -13059.008   -24051.434 
   13150       0.1315    294.23074    7.4766612 -0.047297727 0.0058001695     152.0912   -13057.933   -24783.879 
   13200        0.132    292.19305    7.5374644  0.036984826  0.063952698     151.0379   -13055.228    -25461.34 
   13250       0.1325    292.62832     7.567845  0.088893059  0.051118663    151.26289   -13053.806   -25692.856 
   13300        0.133    294.90614    7.5642643 -0.030507353 -0.030938482    152.44032   -13053.334   -25009.395 
   13350       0.1335    294.86296    7.5358269 -0.041272543 -0.093832713      152.418    -13051.64   -24669.072 
   13400        0.134    296.28015    7.5651881 -0.0013502436 -0.0047519386    153.15056   -13050.737   -25196.953 
   13450       0.1345    292.79013    7.6092727  0.083286294  0.081258027    151.34653   -13047.262   -25912.723 
   13500        0.135    292.61846    7.5900157  0.027035815  0.038416202    151.25779   -13045.525   -25518.226 
   13550       0.1355    291.64771    7.5943847 -0.080166374 -0.081509404      150.756   -13043.351   -24775.696 
   13600        0.136     290.2646    7.6272304 -0.079416375 -0.039251562    150.04106   -13040.967   -25028.541 
   13650       0.1365     294.2039    7.7519619  0.085240381  0.053561966    152.07732   -13041.314   -26302.548 
   13700        0.137    293.20793    7.7364459  0.056848009  0.071106578     151.5625   -13039.108   -26214.668 
   13750       0.1375     293.2877     7.681494 -0.056934512 -0.022754018    151.60373   -13037.471   -25339.351 
   13800        0.138    294.04531    7.6992585 -0.060225714 -0.067748343    151.99535   -13036.159   -25237.615 
   13850       0.1385    292.32021    7.7663949 0.0022992932 0.0045936763    151.10362    -13033.58   -25910.959 
   13900        0.139    295.25113    7.8591352  0.095315988  0.032608923    152.61865   -13033.376   -26623.534 
   13950       0.1395    292.29504    7.8030012 0.0097871988 0.0093983392    151.09061   -13030.148   -26073.956 
   14000         0.14    289.34083    7.7746684 -0.092831247 -0.040891643    149.56355   -13026.906   -25469.818 
   14050       0.1405    295.00029    7.8161848 0.0099761786 -0.018527612    152.48899   -13028.129   -26025.445 
   14100        0.141    290.94021    7.8335983  0.052065716  0.022962496    150.39029   -13024.309   -26362.088 
   14150       0.1415    296.93878    7.8864633  0.053117885  0.032446763    153.49101   -13025.692   -26573.427 
   14200        0.142    288.18264    7.8604355 -0.047291157 -0.052205079    148.96487   -13019.442   -25869.797 
   14250       0.1425    296.05377    7.9463948  0.015940462  0.035992247    153.03355    -13021.77   -26661.092 
   14300        0.143    296.06813    7.9765948 0.0045177035 0.0068767653    153.04097    -13020.03   -26626.631 
   14350       0.1435    286.39689    7.9566633 -0.016951138 -0.040158789    148.04179   -13013.285   -26331.844 
   14400        0.144     291.7864    7.9924617  0.009892908  0.012018024    150.82769   -13014.322   -26714.576 
   14450       0.1445    290.90448    7.9900657 0.0055011869  0.018553027    150.37182   -13012.113   -26713.733 
   14500        0.145    290.38919    8.0294835  -0.02817215 -0.0099314646    150.10546   -13010.094   -26637.933 
   14550       0.1455    295.78647    8.0622859 -0.0030492715  -0.01150726    152.89537   -13011.122   -26825.765 
   14600        0.146    290.09069    8.0448223 0.0012436165 -0.011010118    149.95116   -13006.409   -26783.519 
   14650       0.1465    289.41307    8.0798091 0.00072923762  0.033530561    149.60089   -13004.292   -27046.896 
   14700        0.147    289.80407    8.0599853 0.0040185688  0.061465157      149.803   -13002.729   -27084.897 
   14750       0.1475    295.47749    8.0795466  0.037054829 -0.0087157195    152.73566   -13003.897   -27026.286 
   14800        0.148    288.72426    8.0270715 -0.064287593 -0.074122542    149.24484   -12998.622   -26295.538 
   14850       0.1485    293.69301    8.0443796 0.0092362357 0.0076566719    151.81324   -12999.425   -26870.908 
   14900        0.149    285.41137    7.9592798 -0.016515065  0.023629808    147.53237   -12993.385   -26554.648 
   14950       0.1495     289.3168    7.8992484  0.052193313 -0.014719081    149.55113   -12993.655   -26455.742 
   15000         0.15    290.87914    7.9037878   0.04858664 -0.031049734    150.35872   -12992.722   -26404.416 
   15050       0.1505    295.63087    7.8487286 -0.0044793497 -0.019547481    152.81494   -12993.444   -26082.339 
   15100        0.151    286.60246    7.7014152 -0.083346683 -0.0051127736    148.14806   -12987.048   -25376.519 
   15150       0.1515    291.13001     7.620628   0.01975918  0.047083034     150.4884    -12987.69   -25624.901 
   15200        0.152    296.32665    7.5166491  0.042052905  0.075434122     153.1746   -12988.707    -25447.12 
   15250       0.1525    299.18772    7.3894407  -0.09190413 -0.026106418    154.65352   -12988.553     -24238.1 
   15300        0.153    310.60446    7.2781273  -0.10333799  0.043966441    160.55496   -12992.872   -24062.519 
   15350       0.1535    312.95194    7.0982276 -0.015531005   0.05537809     161.7684   -12992.615   -23793.582 
   15400        0.154    311.61197     6.904058  0.064345586 -0.0024825862    161.07575   -12990.458   -23219.737 
   15450       0.1545    319.62179    6.6854214  0.080235523 -0.033033944    165.21612   -12993.163   -22442.077 
   15500        0.155    323.63029    6.3825562    0.0647065 -0.075584183    167.28816   -12993.929   -21238.928 
   15550       0.1555    325.81846    6.0620871  0.037827827 -0.065098836    168.41925   -12993.907   -20116.054 
   15600        0.156    337.11803    5.6884438  0.050032767  -0.04367186    174.26013   -12998.754   -18982.682 
   15650       0.1565    336.56816    5.3467578   0.02957778 -0.019957036    173.97589   -12997.627   -17854.595 
   15700        0.157    340.28847    5.0835073 -0.0019567191  0.072794898    175.89896   -12998.773   -17181.152 
   15750       0.1575    348.38558    4.7826564  0.013959471  0.055058241    180.08445   -13002.351   -16172.247 
   15800        0.158    350.09427    4.4609721  0.018934243 -0.064943218    180.96769   -13002.787   -14716.544 
   15850       0.1585    352.30491     4.120648  0.021802523 -0.041458996    182.11039   -13003.638   -13669.972 
   15900        0.159    355.12524    3.9776092  0.088571938  -0.05260764    183.56826   -13004.934   -13378.578 
   15950       0.1595    353.17631    3.7855204  0.062083022  0.014483303    182.56083   -13003.917   -12873.622 
   16000         0.16    366.89123    3.6705051 0.0062676735  0.014301499    189.65023   -13010.954   -12303.581 
   16050       0.1605    358.36417    3.5691539 -0.098828632 -0.041214289     185.2425     -13006.5    -11430.37 
   16100        0.161    360.55899    3.5642657 -0.032519322 0.0073474006    186.37702   -13007.596   -11796.979 
   16150       0.1615    364.30359    3.5772955  0.086921209  0.048262808    188.31265   -13009.493   -12374.932 
   16200        0.162    366.24181    3.5027398   0.14484703 -0.0025952777    189.31454   -13010.526   -12149.972 
   16250       0.1625    363.42552    3.4166915   -0.0561708 -0.065123368    187.85876    -13009.08   -10984.658 
   16300        0.163    366.53708    3.4452257  -0.04293205 -0.026051564    189.46717   -13010.658    -11254.14 
   16350       0.1635    373.40711     3.500679 0.0097778335   0.10182707    193.01836   -13014.186   -12040.946 
   16400        0.164     366.6271    3.4737348 0.0088823378   0.10717518     189.5137    -13010.69   -11965.974 
   16450       0.1645    377.48993    3.4352948 -0.0078535602  0.041803378    195.12882   -13016.363   -11564.149 
   16500        0.165    369.31629    3.3252657 -0.048714639  -0.10061335    190.90377   -13012.216   -10586.459 
   16550       0.1655    370.49488    3.3266038  0.025595687 -0.053061873      191.513   -13012.934   -10997.125 
   16600        0.166    369.42093    3.3454458    0.1315693 -0.021154678    190.95786   -13012.512   -11519.535 
   16650       0.1665     374.4202    3.2823908  0.066507729  0.012862299    193.54204   -13015.306    -11205.87 
   16700        0.167    364.75459    3.1921117 -0.046152815 -0.061913867    188.54578   -13010.482    -10280.15 
   16750       0.1675    372.68032    3.2095383 -0.063680144  0.020661048    192.64268   -13014.727   -10555.064 
   16800        0.168    375.40334    3.1829441 -0.012421685   0.13678548    194.05023   -13016.282    -11024.36 
   16850       0.1685    371.75975    3.1078941 -0.027512544   0.15359359    192.16682   -13014.637   -10779.917 
   16900        0.169    368.46206    2.9955449  -0.11604233  0.073836053    190.46221   -13013.251    -9844.462 
   16950       0.1695    372.97758    2.9418176  -0.13549597 -0.058985864    192.79634   -13015.933    -9157.786 
   17000         0.17    375.26092    2.9542199   0.07217967 -0.070748382    193.97661   -13017.307   -9852.1708 
   17050       0.1705    368.06229    2.9327862  0.048107027 -0.0047417679    190.25557   -13013.788   -9920.5049 
   17100        0.171    374.83587     2.879081   0.10799602  0.055996136     193.7569   -13017.554   -10143.577 
   17150       0.1715    378.99843    2.7788683  0.011973022 -0.035142088    195.90858    -13020.03    -9185.664 
   17200        0.172    380.01983    2.7115701 -0.029141155 -0.0096679562    196.43655   -13020.861   -8909.2032 
   17250       0.1725    378.74405    2.6160919 -0.013022915  0.078224932    195.77709   -13020.571   -8937.6462 
   17300        0.173    390.35373    2.5949773 -0.0094700008  0.043728239    201.77826   -13026.977   -8764.1183 
   17350       0.1735    381.91891    2.4542391  0.051615941 -0.00097352914    197.41821   -13023.061    -8349.605 
   17400        0.174     389.8065    2.3678675  0.002775816 -0.013004205    201.49539   -13027.622   -7858.7971 
   17450       0.1745    386.64588    2.2531827  -0.10160978 -0.0080702818    199.86163   -13026.473   -7145.0088 
   17500        0.175    390.43378    2.2674272  0.052836099  -0.01229396    201.81964   -13028.951   -7693.2312 
   17550       0.1755    394.15017    2.1835502   0.10334709  0.067563416    203.74068   -13031.425   -7848.2024 
   17600        0.176    391.66003    2.1089166 -0.0048240582  0.015640625     202.4535   -13030.736   -7065.7773 
   17650       0.1765    390.02012    2.0533066 -0.080536752  -0.10277061    201.60582   -13030.455   -6233.3307 
   17700        0.177    395.82244    2.1118746 -0.067270755  0.024310764     204.6051   -13034.066   -6896.3819 
   17750       0.1775    397.62757     2.047705  0.036648234     0.169793    205.53819   -13035.668   -7513.8207 
   17800        0.178    389.77063    1.9040132  0.095074457  0.029516199    201.47685   -13032.323   -6762.0129 
   17850       0.1785    402.70153    1.8784876  -0.06166417  -0.05607027    208.16098   -13039.678   -5869.1773 
   17900        0.179    393.46168    1.8414095  -0.11855931  -0.10269687     203.3848   -13035.564   -5400.5111 
   17950       0.1795    397.90577    1.9103092  0.063532332  0.064361467    205.68199    -13038.57   -6794.0101 
   18000         0.18    404.48308    1.8748589   0.12376655  0.085383382    209.08188   -13042.682   -6946.6963 
   18050       0.1805    396.26755    1.7221351  0.046515873  -0.04007255    204.83518   -13039.209   -5761.9282 
   18100        0.181    402.96283    1.6457991 -0.036958208  -0.11824794    208.29605   -13043.419   -4968.6433 
   18150       0.1815    399.73362    1.6430342 -0.038559895 -0.035652592    206.62683   -13042.529   -5229.4059 
   18200        0.182    397.02708    1.7263776 -0.030596297  0.084772278    205.22779    -13041.88   -5935.1786 
   18250       0.1825    400.13954    1.6717192  0.021281853   0.13650131    206.83666   -13044.247   -6098.3412 
   18300        0.183    395.58496    1.6559946 -0.033689446  0.039179802    204.48234   -13042.713   -5538.2831 
   18350       0.1835    400.87532    1.6098494  -0.04066301 -0.060489756    207.21699   -13046.223   -5028.9889 
   18400        0.184    395.55665    1.6097425 -0.0076754614   -0.0399015    204.46771   -13044.242   -5207.2185 
   18450       0.1845    405.72911    1.6362383  0.079900373 -0.0021126228    209.72597   -13050.289   -5713.4202 
   18500        0.185    399.32744    1.6258329 -0.0044409308 -0.032014603    206.41687   -13047.784   -5297.9246 
   18550       0.1855    397.56485    1.6365802  0.020799497 -0.014139242    205.50577   -13047.665   -5477.4683 
   18600        0.186    402.89966    1.6035808  0.053406621  0.019201729    208.26339   -13051.215   -5587.2973 
   18650       0.1865    395.08245    1.5508373  0.031244322 -0.081102967    204.22259   -13047.998   -5003.2622 
   18700        0.187    399.02863    1.5881839  0.013253721  0.043580934    206.26242   -13050.829   -5483.3952 
   18750       0.1875    388.52547     1.530576 -0.055716735  0.061309313    200.83322   -13046.201   -5120.5618 
   18800        0.188    392.04415     1.495197 -0.093594479 -0.0022428845    202.65206   -13048.821    -4664.532 
   18850       0.1885    399.01428    1.4489698 -0.054214685  -0.11159737      206.255   -13053.226   -4277.1925 
   18900        0.189    399.01355    1.5688444  0.035093506  0.015195967    206.25462   -13054.056   -5397.1128 
   18950       0.1895     390.6871    1.5820336   0.13004741   0.09591482    201.95059   -13050.514   -6026.6529 
   19000         0.19    396.99323    1.5912434  0.021599132  0.038960538     205.2103   -13054.599   -5506.0101 
   19050       0.1905    403.18632    1.5043149 -0.097677038 -0.049047734    208.41157   -13058.579   -4525.3003 
   19100        0.191    396.49501    1.4896541 -0.023901897  -0.11215876    204.95276   -13055.913   -4511.9783 
   19150       0.1915    400.43535    1.5418885  0.069392749  0.045382746    206.98957   -13058.766   -5522.2133 
   19200        0.192    401.16104    1.5988426   0.10104769 -6.34498e-05    207.36469    -13059.96   -5666.0894 
   19250       0.1925    390.39785    1.5592405  -0.05979634   0.02085236    201.80107   -13055.198   -5067.6549 
   19300        0.193    394.66379    1.5919354 -0.038036401 -0.0087853494    204.00618   -13058.166   -5150.3789 
   19350       0.1935    392.66448    1.6123004 -0.046616305 0.0072707062    202.97271   -13057.908   -5243.1828 
   19400        0.194    393.15701    1.6925579  0.015997814 -0.013161641    203.22731   -13058.933   -5651.3137 
   19450       0.1945    395.99911    1.7675088  0.013836195  0.060104246    204.69642   -13061.138   -6138.1641 
   19500        0.195    395.93171    1.7553082  0.030013413  0.008408557    204.66158    -13061.84   -5979.1006 
   19550       0.1955    388.74205    1.7594538  0.016218202 -0.042942341    200.94517    -13058.84   -5775.7654 
   19600        0.196    383.29311    1.6384343  0.006255548 -0.023961234    198.12855   -13056.751   -5402.4287 
   19650       0.1965    394.46087    1.6117589 -0.051811994  0.052697798    203.90129    -13063.25   -5375.4823 
   19700        0.197    392.43287    1.6613824 -0.087299264 0.0005152683    202.85299   -13062.938   -5248.6613 
   19750       0.1975    394.35813    1.8073363  0.023810597  0.045020953    203.84818   -13064.675   -6253.8928 
   19800        0.198    400.31799    1.8524299   0.12435912  0.027843983     206.9289   -13068.463   -6682.1101 
   19850       0.1985    388.22591    1.7538775  0.011341605 -0.064558654    200.67837   -13062.943   -5668.8683 
   19900        0.199    391.03714    1.6813858 -0.036104944 -0.093579217    202.13152   -13065.111   -5172.3387 
   19950       0.1995     398.5007    1.6660119  0.045784401 -0.025149012    205.98952   -13069.718   -5622.1575 
   20000          0.2    392.43947    1.6540595  0.082673704  0.060889212     202.8564   -13067.346   -5992.0747 
Loop time of 303.192 on 4 procs for 20000 steps with 4000 atoms

Pair  time (%) = 257.058 (84.7838)
Neigh time (%) = 0.474642 (0.156548)
Comm  time (%) = 35.9443 (11.8553)
Outpt time (%) = 0.0810981 (0.0267481)
Other time (%) = 9.63427 (3.17761)

Nlocal:    1000 ave 1027 max 981 min
Histogram: 1 0 0 2 0 0 0 0 0 1
Nghost:    3724.5 ave 3746 max 3710 min
Histogram: 1 1 0 0 1 0 0 0 0 1
Neighs:    68695.5 ave 72317 max 65651 min
Histogram: 1 0 1 0 0 0 1 0 0 1
FullNghs:  0 ave 0 max 0 min
Histogram: 4 0 0 0 0 0 0 0 0 0

Total # of neighbors = 274782
Ave neighs/atom = 68.6955
Neighbor list builds = 82
Dangerous builds = 0

######################################
# SIMULATION DONE
print "All done"
All done
