
# ----------------------- ATOM DEFINITION ----------------------------
lattice		fcc ${latparam}
lattice		fcc 4.05
Lattice spacing in x,y,z = 4.05 4.05 4.05
region		whole block 0 10 0 10 0 10
create_box	1 whole
Created orthogonal box = (0 0 0) to (40.5 40.5 40.5)
  1 by 2 by 2 MPI processor grid
lattice 	fcc ${latparam} orient x 1 0 0 orient y 0 1 0 orient z 0 0 1
lattice 	fcc 4.05 orient x 1 0 0 orient y 0 1 0 orient z 0 0 1
Lattice spacing in x,y,z = 4.05 4.05 4.05
create_atoms	1 region whole
Created 4000 atoms

# ------------------------ FORCE FIELDS ------------------------------

#****************USE THIS TO TEST******************
pair_style	eam/rad
pair_coeff 			* * Al99.PC0.005.eam.alloy.rad.txt Al # pc = 0.5

# ------------------------- SETTINGS ---------------------------------
compute csym all centro/atom fcc
compute peratom all pe/atom

######################################
# EQUILIBRATION
reset_timestep	0
timestep	0.001 # default
# timestep	0.0001 # tiny time step
velocity all create 300 12345 mom yes rot no
fix 1 all npt temp 300 300 1 iso 0 0 1 drag 1

# Set thermo output
thermo 50
# thermo 1 # debug mode

# thermo_style custom step lx ly lz press pxx pyy pzz pe temp
# IMPLEMENTATION HERE

# VERSION add rad variables .v1 .v2
# thermo_style custom step lx ly lz press pxx pyy pzz pxxrad pyyrad pzzrad pe temp

# VERSION ublb separation .v3
thermo_style custom step lx ly lz press pxx pxxub pxxlb pyy pyyub pyylb pzz pzzub pzzlb pe temp

# Run for at least 10 picosecond (assuming 1 fs timestep)
run 	20000 # default
Memory usage per processor = 7.82687 Mbytes
Step Lx Ly Lz Press Pxx Pxxub Pxxlb Pyy Pyyub Pyylb Pzz Pzzub Pzzlb PotEng Temp 
       0         40.5         40.5         40.5    2496.1233    2446.9902    7514.4985    7486.8977    2534.6541    7392.9858     7365.385    2506.7256    7561.2897    7533.6889       -13440          300 
      50      40.5611      40.5611      40.5611    907.43706    837.10986    851.01502    823.20041    946.43161    960.33959    932.51913    938.76971    952.67735    924.85764   -13338.819    103.27149 
     100    40.636867    40.636867    40.636867   -4611.4186   -4606.0751   -4592.3803   -4619.9203   -4633.2987   -4619.6001   -4647.1387   -4594.8821   -4581.1862   -4608.7298   -13373.529    171.80729 
     150    40.566371    40.566371    40.566371    544.64066    509.57779    523.46583    495.67962    622.24374    636.13102    608.34374    502.10046    515.98879    488.19563   -13348.908    124.16109 
     200    40.511722    40.511722    40.511722    3547.2897    3643.2596    3657.2642     3629.333    3485.9867    3499.9858    3472.0586    3512.6228    3526.6312    3498.7016   -13355.216     137.9072 
     250    40.565785    40.565785    40.565785    166.93066    90.523527    104.42107    76.646097    218.10474    232.00357    204.23311    192.16371    206.05642    178.28811   -13359.502    146.72328 
     300    40.611235    40.611235    40.611235   -2466.5664   -2412.8394   -2399.0595   -2426.6714   -2483.9007   -2470.1204   -2497.7332   -2502.9592   -2489.1709   -2516.7858   -13360.111    149.21075 
     350    40.571353    40.571353    40.571353   -408.34084   -482.42607   -468.54602   -496.29476   -346.38838   -332.50332   -360.25999   -396.20806    -382.3309   -410.08314   -13367.339    163.76556 
     400    40.532306    40.532306    40.532306    2225.5431    2279.8069    2293.7403    2265.8891    2296.6157     2310.539    2282.6878    2100.2067    2114.1356    2086.2785   -13359.854    150.41108 
     450    40.566044    40.566044    40.566044    2.0377845   -40.092854   -26.204737   -53.974678   -31.888362   -17.995089   -45.769019     78.09457    91.984808    64.216557    -13363.08    157.36643 
     500    40.595966    40.595966    40.595966   -1611.3461   -1655.3283   -1641.4905    -1669.158   -1479.2164   -1465.3766   -1493.0495   -1699.4934   -1685.6566   -1713.3242   -13359.404    151.32857 
     550    40.570848    40.570848    40.570848   -161.85418   -150.03728   -136.16732   -163.91291   -167.20465   -153.32671   -181.07785   -168.32062   -154.44901   -182.19727   -13360.736    154.75593 
     600    40.545092    40.545092    40.545092    1385.8336    1414.2998    1428.2148    1400.3842    1433.0694    1446.9862    1419.1549    1310.1316    1324.0394    1296.2147   -13361.915    158.16074 
     650    40.566235    40.566235    40.566235    212.56633    184.02753      197.912    170.14171    245.48283    259.35973    231.59015    208.18862    222.07716    194.30468   -13358.104    151.74194 
     700    40.589999    40.589999    40.589999   -1217.4105   -1343.5854   -1329.7231   -1357.4247   -1126.2179   -1112.3515   -1140.0565   -1182.4283   -1168.5597   -1196.2652   -13360.206    156.93263 
     750    40.572933    40.572933    40.572933   -250.38158   -286.45411     -272.588   -300.32536   -263.19279   -249.32314   -277.06199   -201.49783   -187.62763   -215.36754   -13360.538    158.57849 
     800    40.551356    40.551356    40.551356    1208.6566    1078.2928     1092.195    1064.3725    1322.2307    1336.1398     1308.307    1225.4462    1239.3483    1211.5223   -13357.161    153.20685 
     850    40.567647    40.567647    40.567647     35.88215    27.354765    41.245135    13.486677    95.437303    109.32352    81.563214   -15.145617   -1.2583512   -29.019496   -13362.171    163.91834 
     900    40.586566    40.586566    40.586566   -905.95525   -936.83022   -922.97158   -950.67936   -840.20578   -826.34673   -854.05365   -940.82976   -926.96588   -954.67259   -13360.501    161.82509 
     950    40.575685    40.575685    40.575685   -242.27646    -258.0676   -244.18416   -271.94243   -191.53537   -177.65402   -205.40985    -277.2264   -263.34956   -291.10699   -13355.043     152.3172 
    1000    40.557624    40.557624    40.557624    865.78368    854.28577    868.17314    840.38427     838.0004    851.89228    824.10342    905.06486    918.95555    891.16248   -13361.124    165.23426 
    1050    40.567354    40.567354    40.567354    296.20892     232.8234    246.72355    218.93304     412.4804    426.38201    398.58514    243.32297    257.22582    229.43325   -13352.949    150.47937 
    1100    40.584443    40.584443    40.584443   -762.38408   -853.89575   -840.03384    -867.7459   -674.30507   -660.44157   -688.15524   -758.95143    -745.0929   -772.80324   -13360.466    166.16585 
    1150    40.575983    40.575983    40.575983    -142.2806   -201.77341   -187.89113   -215.65173   -30.014093   -16.135973    -43.89608    -195.0543   -181.17032   -208.92403    -13353.75    154.27323 
    1200    40.562401    40.562401    40.562401    595.06575    539.95132     553.8471    526.05804    625.63845    639.53482    611.75502    619.60749    633.50487    605.71888    -13359.83    167.17798 
    1250    40.569413    40.569413    40.569413    166.79261    92.903564    106.79542    79.017461    250.18713    264.07765    236.29804    157.28713    171.17788    143.39723   -13356.017    160.90148 
    1300    40.581899    40.581899    40.581899   -560.61752   -582.11355   -568.24774   -595.97916   -449.93781   -436.06868   -463.81082   -649.80119   -635.94117   -663.67735   -13357.596    165.08945 
    1350    40.575948    40.575948    40.575948    -187.6128   -340.24911   -326.38012   -354.12799   -119.43237   -105.55917    -133.3118   -103.15693   -89.279422   -117.03898   -13356.829    164.72703 
    1400    40.566127    40.566127    40.566127    565.86425    499.12344    513.02446    485.23029    641.64272    655.54205    627.74562    556.82658    570.72698    542.93331   -13354.386    161.14085 
    1450    40.572988    40.572988    40.572988    -8.561472    -54.13345   -40.250276   -68.010985   -9.1404528    4.7430233   -23.020507    37.589487    51.476864    23.714619   -13356.765    166.86433 
    1500    40.579794    40.579794    40.579794   -267.41446   -332.77441   -318.89692   -346.64712   -176.15609   -162.27775    -190.0279   -293.31287   -279.43712   -307.18637   -13353.672    162.03422 
    1550    40.576834    40.576834    40.576834   -220.87916   -335.60203   -321.71634   -349.47057   -207.98546   -194.09633   -221.85192   -119.05001   -105.16031   -132.91485    -13357.33    170.23169 
    1600     40.56902     40.56902     40.56902    377.81634    358.40758    372.29667    344.50893    458.79305    472.68457     444.8936    316.24838    330.13812     302.3535   -13352.705    162.42694 
    1650    40.573333    40.573333    40.573333    121.60248    65.830518    79.711626    51.948561    161.88969    175.77486    148.00338    137.08722    150.96759    123.19921     -13355.4    168.76756 
    1700    40.580701    40.580701    40.580701   -351.25931   -404.48696   -390.60232   -418.36214   -356.71365    -342.8302   -370.58693   -292.57732   -278.69191   -306.45704   -13352.169    163.67705 
    1750    40.576849    40.576849    40.576849   -32.167301   -50.678233   -36.795791    -64.54835   -63.920617   -50.042743   -77.788719    18.096946    31.986386    4.2318345   -13355.552    171.33506 
    1800    40.570697    40.570697    40.570697    303.86959    205.87186    219.77182    191.97486    337.67696    351.58322    323.78935    368.05996    381.95702     354.1641   -13351.254    164.18628 
    1850    40.573832    40.573832    40.573832    241.25661    160.65476    174.53643    146.76262    291.81867    305.69763    277.91779    271.29639    285.18209    257.40612   -13351.989    166.73526 
    1900    40.582525    40.582525    40.582525   -408.49907   -517.11515   -503.25196   -530.99223    -372.3218   -358.46026   -386.20284   -336.06028   -322.19786   -349.94187    -13355.88     175.4205 
    1950    40.579035    40.579035    40.579035   -121.18037    -78.31077   -64.414631   -92.187602   -80.564036   -66.661309   -94.432197    -204.6663   -190.77002   -218.54216   -13350.032    165.23107 
    2000     40.57151     40.57151     40.57151    262.28188    197.36064    211.26516    183.49108    289.69509    303.59412    275.81918     299.7899     313.6919    285.91852   -13356.433    178.77171 
    2050     40.57415     40.57415     40.57415    291.00696    438.91963    452.81129     425.0202    282.96388    296.85337     269.0647    151.13737    165.02354     137.2395   -13349.034    165.59547 
    2100    40.583714    40.583714    40.583714   -349.64824   -571.69905   -557.83954   -585.58252   -278.61218    -264.7478   -292.50025   -198.63349    -184.7732   -212.53073    -13352.82     174.0797 
    2150    40.580896    40.580896    40.580896   -115.46102   -185.78203   -171.89782   -199.66957   -83.935203   -70.046819    -97.81793   -76.665824   -62.773337     -90.5461   -13348.342    166.55152 
    2200    40.573232    40.573232    40.573232    266.96923    327.53375    341.44164    313.65639    145.53519    159.43702    131.66229    327.83874     341.7464    313.96604   -13352.358    175.46306 
    2250    40.574827    40.574827    40.574827    151.21048    253.25725    267.15428    239.36392    168.12758    182.01991    154.24304    32.246605    46.136522    18.356062   -13351.993    175.91954 
    2300    40.582519    40.582519    40.582519   -229.92012   -262.55007   -248.67597    -276.4368   -227.80284   -213.92667   -241.68538   -199.40745   -185.53321   -213.29321   -13351.098    175.32277 
    2350    40.582472    40.582472    40.582472   -261.47493   -230.22332   -216.33633   -244.08786   -223.18601   -209.30466   -237.06779   -331.01546    -317.1284   -344.89024   -13351.015     176.3209 
    2400    40.575117    40.575117    40.575117    304.99838    318.71288    332.61508    304.82605    230.82389    244.72426    216.93537    365.45835    379.36626    351.57747    -13348.88    173.33846 
    2450    40.576041    40.576041    40.576041    115.98281   -49.519186   -35.628499   -63.410089    231.81908    245.71002    217.92443    165.64854    179.53823    151.75292   -13349.774    176.22576 
    2500    40.581993    40.581993    40.581993    -86.32248   -223.14465   -209.26471   -237.03643   -50.962736   -37.074418   -64.846474    15.139951     29.02755    1.2513611   -13348.601    175.08643 
    2550    40.583873    40.583873    40.583873   -280.78867    -329.5054   -315.62808   -343.37996   -351.60669   -337.72926   -365.47962   -161.25393   -147.37412   -175.13898   -13350.803    180.51146 
    2600    40.577203    40.577203    40.577203    317.49535    231.68198    245.57754    217.78302    393.67729    407.56964    379.78068    327.12677     341.0247    313.23275    -13345.69    171.77884 
    2650    40.578933    40.578933    40.578933    13.030925    144.96731    158.86984    131.08241   -44.713472   -30.820111   -58.599071   -61.161069   -47.265369   -75.040779   -13350.912    183.01571 
    2700    40.583518    40.583518    40.583518   -174.83865   -293.93299   -280.04394   -307.81286   -111.84152   -97.951532    -125.7253   -118.74145   -104.85013   -132.62632   -13346.798    176.21518 
    2750    40.582481    40.582481    40.582481   -39.748764   -65.184794   -51.301522   -79.071804    -87.13603   -73.250027   -101.01636    33.074533    46.964615    19.189883   -13348.669    180.97912 
    2800    40.578705    40.578705    40.578705    108.86451   -19.945463   -6.0529243    -33.84451    191.66526    205.56253    177.76589    154.87373    168.76495    140.97176   -13346.376    177.70923 
    2850    40.579322    40.579322    40.579322    124.53218    81.912131    95.804775    68.025877    124.60452     138.4937    110.71511     167.0799    180.96643      153.187   -13349.584    185.05983 
    2900    40.584645    40.584645    40.584645   -69.825092    -152.5521   -138.65434   -166.43016   -33.708358   -19.814921   -47.585527   -23.214815   -9.3166973   -37.095303   -13345.868     179.0187 
    2950    40.585359    40.585359    40.585359   -182.56258   -154.04171   -140.15553   -167.92258   -313.08375   -299.19713   -326.96275   -80.562296   -66.670985   -94.444979   -13345.484    179.44392 
    3000    40.580393    40.580393    40.580393    103.06038     17.74205    31.626018    3.8492308    199.86076    213.74807    185.96826    91.578338    105.46806    77.680917   -13349.988    189.30398 
    3050    40.580507    40.580507    40.580507    62.168107    44.094515    57.989351    30.196468    20.509683    34.405469    6.6166881    121.90012    135.79748    108.00579   -13345.218    181.21565 
    3100    40.584708    40.584708    40.584708   -107.42179   -223.08689   -209.18817   -236.96223   -59.455111   -45.555447   -73.340189   -39.723375   -25.830171   -53.604101   -13347.434     186.6605 
    3150    40.585857    40.585857    40.585857   -139.90607   -193.02274   -179.13013   -206.90456   -102.84206   -88.944693   -116.72563    -123.8534   -109.95569   -137.73283   -13344.327    181.78994 
    3200    40.582817    40.582817    40.582817    56.136466   -25.815173   -11.932408   -39.706836    83.857537     97.73982    69.962028    110.36703    124.25209    96.473049   -13346.758    187.66531 
    3250    40.582883    40.582883    40.582883    202.40337    154.08445    167.98396    140.18738    136.98617    150.88129    123.09329    316.13948    330.04097    302.23701   -13343.925    183.32635 
    3300    40.587578    40.587578    40.587578    -209.4339   -371.94849   -358.06021   -385.82539   -87.698913   -73.809853    -101.5757   -168.65429     -154.767   -182.52836   -13345.062    186.68197 
    3350    40.586577    40.586577    40.586577   -9.0566859   -69.573038   -55.677782   -83.460499   -16.305688   -2.4095538   -30.194242    58.708669    72.606831    44.822794    -13343.41    184.64018 
    3400    40.584833    40.584833    40.584833    -4.464904   -169.79656   -155.91431   -183.69019    46.672382    60.557032    32.775907    109.72947     123.6184    95.839102   -13346.346    191.46455 
    3450    40.585451    40.585451    40.585451    9.8032381   -98.559471   -84.673115   -112.45834    71.647379    85.538597    57.746761    56.321806    70.204969    42.432643   -13344.024    188.12534 
    3500    40.587697    40.587697    40.587697   -73.255431   -198.59139   -184.69469    -212.4683   -60.277768   -46.386265   -74.152715    39.102863    53.000129    25.218115   -13344.644    190.47515 
    3550    40.586958    40.586958    40.586958    -56.96485   -70.538578   -56.637962   -84.422221    6.9900731    20.888353   -6.8937788   -107.34605   -93.446219   -121.23392   -13342.497     187.4769 
    3600    40.585183    40.585183    40.585183    109.67337    96.750394    110.64432    82.852256    58.529928    72.423834    44.635329    173.73977     187.6316    159.84607   -13342.391    188.41229 
    3650    40.586887    40.586887    40.586887   -3.9723187   -11.668849    2.2302684   -25.561322   -45.333257    -31.43338   -59.222888    45.085149    58.975823    31.192471   -13342.044    188.88701 
    3700    40.588496    40.588496    40.588496   -27.142131   -83.336603   -69.452238   -97.225948   -12.131481    1.7587634   -26.022553    14.041689    27.935121    0.1597268   -13342.511    190.95338 
    3750    40.588371    40.588371    40.588371   -6.0911329    43.936973    57.833543    30.056785   -56.088694    -42.19808   -69.975465   -6.1216783    7.7640164   -20.007948   -13342.317    191.72699 
    3800    40.587518    40.587518    40.587518    21.179747   -96.321442   -82.421188   -110.20552    156.68462    170.58796    142.79931    3.1760619    17.073975   -10.719276    -13342.31    192.86572 
    3850    40.588168    40.588168    40.588168    103.71552    51.378646    65.270794    37.485865    75.437151    89.323906    61.539331    184.33078    198.23037    170.43525   -13339.435    188.43341 
    3900    40.590071    40.590071    40.590071   -61.991803    41.084916    54.968379    27.184303   -163.63867   -149.74746   -177.53383   -63.421652   -49.541586   -77.319499   -13340.244    191.15887 
    3950     40.58905     40.58905     40.58905    26.629811   -116.89505   -102.99858   -130.78324    111.68117    125.57994    97.794115    85.103306     99.00674    71.217573   -13340.459    192.71663 
    4000     40.58814     40.58814     40.58814    64.030856    18.996702    32.905032    5.1159579    37.882754    51.789407    23.994042    135.21311    149.12526      121.342   -13340.476    193.89746 
    4050     40.58928     40.58928     40.58928    51.730888    26.058107     39.95389    12.169172    48.279046    62.175106    34.385964    80.855511    94.749906    66.957124   -13339.217    192.61086 
    4100    40.591447    40.591447    40.591447    -69.41407   -80.629256   -66.753651   -94.526314   -72.506139   -58.623858   -86.401825   -55.106814   -41.229507   -69.002028   -13342.948    200.98044 
    4150    40.591167    40.591167    40.591167     -59.3496   -170.66274   -156.76926   -184.56048   -23.297654   -9.4001839   -37.183812    15.911595    29.812873    2.0261384    -13338.58    193.66416 
    4200    40.589402    40.589402    40.589402    126.45049    102.31182    116.22775    88.423528    28.361074    42.275418    14.471882    248.67858    262.58753    234.79062   -13337.074    191.89142 
    4250    40.590375    40.590375    40.590375   -5.8786185    -95.14102   -81.243049   -109.02382    71.464313    85.359775    57.575483    6.0408519    19.933197   -7.8512484   -13339.822    198.35283 
    4300    40.592312    40.592312    40.592312   -99.932489   -134.35608    -120.4673   -148.25477   -92.003546   -78.120365    -105.9105   -73.437843   -59.557889   -87.342378   -13339.728    199.31371 
    4350    40.591432    40.591432    40.591432    30.669897   -17.453823   -3.5715942   -31.358531    116.38325    130.27285    102.47722   -6.9197307    6.9709022   -20.814252   -13337.239    195.64072 
    4400    40.590868    40.590868    40.590868    6.1809803   -68.690877   -54.794227   -82.577939    32.701826    46.601108    18.820462    54.531992    68.438045    40.641222   -13340.043     202.2069 
    4450    40.592123    40.592123    40.592123   -2.7294806    31.335042    45.241681    17.451858   -35.521345    -21.62109   -49.406122   -4.0021387    9.8971087   -17.888245   -13337.875    199.15199 
    4500    40.593642    40.593642    40.593642   -65.462705    36.313648    50.212824    22.428892   -97.154892   -83.253993   -111.04543   -135.54687   -121.65214   -149.43907    -13337.41     199.3838 
    4550    40.592338    40.592338    40.592338   -64.277171   -161.69941   -147.80953   -175.59725   -86.840811   -72.947144   -100.73934    55.708711    69.603044    41.812063   -13338.207    202.07086 
    4600    40.590278    40.590278    40.590278     249.1077    320.61637    334.51513     306.7153    284.38178     298.2826    270.48303    142.32493    156.22645    128.42318   -13335.472    197.91016 
    4650    40.594313    40.594313    40.594313   -36.483052   -43.388388   -29.489958   -57.274272     7.304162    21.197557   -6.5879891   -73.364929   -59.469389   -87.254695   -13336.259    200.57068 
    4700    40.596271    40.596271    40.596271   -162.12355   -160.59482   -146.70291   -174.47802   -175.19352   -161.29187   -189.07592   -150.58232   -136.67912   -164.46737   -13336.155    201.50807 
    4750    40.592916    40.592916    40.592916    73.064448    98.496599     112.4037    84.607003    218.68878    232.59222    204.79773   -97.992039   -84.093143   -111.87995   -13336.665     203.6226 
    4800    40.592243    40.592243    40.592243    93.558524    177.60258    191.49626    163.70056   -87.323114   -73.423579   -101.22026    190.39611    204.29095    176.50243   -13336.604    204.63746 
    4850    40.595451    40.595451    40.595451    4.2171739   -108.36622   -94.473722   -122.25682    56.758562    70.659738    42.865662    64.259175    78.156699    50.362127   -13334.982    202.63372 
    4900     40.59738     40.59738     40.59738   -207.49532   -38.513481   -24.619498   -52.405597   -236.77389   -222.88445   -250.66501   -347.19859   -333.29869   -361.08239   -13335.657    205.06988 
    4950    40.592949    40.592949    40.592949    160.16595    79.901741    93.793147    66.002507    153.84852    167.73957     139.9409    246.74758    260.64727    232.84086   -13333.532    202.08895 
    5000    40.593071    40.593071    40.593071    183.41074     268.5787    282.48659    254.68107     243.1868    257.08735    229.28533    38.466717    52.364301    24.553772   -13334.242    204.58527 
    5050    40.598517    40.598517    40.598517   -115.69735   -166.07939   -152.18786   -179.96283     -169.547   -155.64665   -183.43599   -11.465649    2.4321763   -25.351072   -13334.019    205.27643 
    5100     40.59878     40.59878     40.59878   -111.70343    -8.370906    5.5328954   -22.256158   -166.12906   -152.22254   -180.00642   -160.61033   -146.71008    -174.4847   -13332.452    203.37832 
    5150    40.594255    40.594255    40.594255    96.931121    101.97383    115.87382    88.081809    87.628943    101.53471    73.737945    101.19059    115.10269    87.301896   -13334.964    209.35602 
    5200    40.594043    40.594043    40.594043    196.29774    273.67141    287.56896    259.77451    221.69784    235.58451    207.79791    93.523963    107.41663    79.613822   -13335.021    210.58986 
    5250     40.59947     40.59947     40.59947   -89.380203   -116.97376   -103.08203   -130.87384   -109.49403   -95.597487   -123.39954    -41.67282   -27.781581   -55.569114   -13330.257    202.50162 
    5300    40.599859    40.599859    40.599859   -145.25531   -136.63669   -122.74152   -150.52038   -209.45351   -195.54834   -223.33403   -89.675735   -75.772848   -103.55977   -13332.957    208.84095 
    5350    40.595213    40.595213    40.595213    222.90062    257.82359    271.72643     243.9285    316.73027    330.63001    302.83175    94.147998     108.0456     80.25256   -13332.065    208.23568 
    5400    40.596174    40.596174    40.596174    152.99394    182.46696    196.35474    168.55825    168.26953    182.16567    154.35316    108.24535    122.13834    94.335993   -13331.528    208.31029 
    5450    40.601169    40.601169    40.601169   -137.60144   -286.80303   -272.90971   -300.69941   -30.046473   -16.153067   -43.942632   -95.954809   -82.061956   -109.85899   -13330.969    208.33875 
    5500    40.601195    40.601195    40.601195   -223.23281   -155.64611     -141.749   -169.52262   -294.77355    -280.8818   -308.64906   -219.27877   -205.37995   -233.15834   -13333.433    214.21786 
    5550    40.595615    40.595615    40.595615    182.19163    236.97313    250.88284    223.07729    219.29512    233.21399    205.39684    90.306631    104.21313    76.415258   -13332.625    213.77091 
    5600     40.59647     40.59647     40.59647    157.71549    95.081188    108.98212     81.17435    126.56426    140.46059     112.6604    251.50101    265.40371     237.6041    -13331.02    211.77575 
    5650    40.602086    40.602086    40.602086   -122.48126   -162.13077   -148.23245   -176.01972   -127.35932   -113.46548   -141.25157   -77.953682   -64.052659   -91.849792   -13328.959    208.89658 
    5700    40.602031    40.602031    40.602031   -129.57349   -144.97713    -131.0771   -158.85938    -92.19506   -78.293312   -106.07774   -151.54828   -137.64295    -165.4372   -13330.973    213.90323 
    5750    40.597351    40.597351    40.597351    249.95841     130.2933    144.19263    116.39236    256.42866    270.33497    242.52185    363.15327    377.04921    349.25275   -13329.355    211.87752 
    5800    40.599001    40.599001    40.599001    81.368288    70.461749    84.361828    56.556528    220.52608    234.42884    206.62225   -46.882963   -32.982489   -60.779401    -13329.51    213.28364 
    5850    40.603186    40.603186    40.603186   -204.96413   -200.81552   -186.91933   -214.70187   -191.63639   -177.74216   -205.52053   -222.44049   -208.53433   -236.33281   -13330.974    217.21937 
    5900    40.602446    40.602446    40.602446   -126.97389   -248.41884   -234.51911   -262.31153   -16.958909   -3.0508258   -30.854725   -115.54392   -101.64853   -129.44356    -13329.54    215.52932 
    5950    40.598403    40.598403    40.598403     257.9828    272.70332    286.61697    258.80255    348.64877    362.54711    334.74487    152.59632    166.50558    138.69955   -13327.614    212.91421 
    6000     40.60021     40.60021     40.60021    86.846298    101.33594    115.23644    87.439289   -18.435667   -4.5207718    -32.32559    177.63862    191.54428     163.7416   -13327.324    213.44455 
    6050     40.60381     40.60381     40.60381     -147.965   -193.76594   -179.87459   -207.66184   -73.546053   -59.654314   -87.446563   -176.58301   -162.68984   -190.48908   -13330.172    220.05867 
    6100    40.602318    40.602318    40.602318    -26.95951    24.115571    38.005786    10.215305    -126.5007   -112.60696   -140.40949    21.506596    35.406034    7.6040182   -13327.624    216.21915 
    6150    40.600005    40.600005    40.600005    91.858136   -57.062472   -43.154312   -70.955507     204.7372    218.64734    190.84587    127.89968      141.806    114.01192   -13329.971    221.84627 
    6200    40.601871    40.601871    40.601871     18.81411    18.213485    32.123724    4.3124796    68.835547    82.742115    54.939677   -30.606703   -16.705869   -44.519048   -13326.581     216.3745 
    6250    40.604737    40.604737    40.604737   -124.00793   -72.865587   -58.970281   -86.766935   -231.27249   -217.38283   -245.17609   -67.885715   -53.991763    -81.78802    -13327.32    218.88695 
    6300    40.603226    40.603226    40.603226    38.479186    -71.27144    -57.37665   -85.172191     210.4996    224.40125     196.5957   -23.790601   -9.8882146   -37.683006   -13327.339     220.0188 
    6350    40.602348    40.602348    40.602348    53.655171    168.57174    182.47071    154.68086   -65.580559   -51.673118   -79.463389    57.974335    71.883631    44.085564   -13327.803    222.00053 
    6400    40.604389    40.604389    40.604389   -55.165601   -243.02272   -229.11276   -256.91129    81.803234    95.710608    67.901133   -4.2773159     9.628519   -18.175263    -13327.19    221.89227 
    6450    40.605242    40.605242    40.605242   -103.23012   -18.394609   -4.4993869   -32.298224   -201.09066   -187.19854   -214.99465   -90.205083   -76.303682   -104.09818   -13326.925    222.45568 
    6500    40.603815    40.603815    40.603815    39.068389   -146.98714   -133.08182   -160.89393     -28.4868      -14.581   -42.384949    292.67911    306.59127    278.77251   -13326.809    223.30103 
    6550     40.60387     40.60387     40.60387    22.403565    29.280286    43.180575    15.381289    75.786435    89.692219      61.8935   -37.856025    -23.95305    -51.75138   -13324.708    220.30764 
    6600     40.60543     40.60543     40.60543    36.934272   -27.131059   -13.223482   -41.016706    31.251669    45.160983    17.353841     106.6822    120.58497    92.781668   -13325.152    222.24729 
    6650    40.606492    40.606492    40.606492    27.935899   -38.026677   -24.113263   -51.917372    291.58289    305.49365     277.6807   -169.74852   -155.84528   -183.65273   -13323.272    219.68455 
    6700    40.605902    40.605902    40.605902   -2.8302171   -32.479587   -18.591908   -46.376058   -15.290284   -1.3999248   -29.194373    39.279221    53.173331    25.388891   -13325.483    225.03079 
    6750    40.605041    40.605041    40.605041    116.28823    11.166754    25.062472   -2.7423908    118.66357    132.56877    104.75121    219.03438    232.94548    205.12441     -13324.7    224.58162 
    6800    40.606317    40.606317    40.606317   -94.135085   -116.06994   -102.16482   -129.97155   -53.083775   -39.171801   -66.975864   -113.25154   -99.355287   -127.15117   -13324.612    225.46738 
    6850    40.606909    40.606909    40.606909   -131.72414   -177.87527   -163.97687   -191.77127   -112.67255   -98.763998    -126.5609   -104.62461   -90.719578   -118.52326   -13327.361    231.83937 
    6900    40.606457    40.606457    40.606457    38.770044   -42.543621   -28.638078   -56.438219    139.77117    153.67529    125.87375    19.082584    32.995981    5.1868945    -13323.81    226.02987 
    6950    40.607088    40.607088    40.607088    -35.87355   -57.864929   -43.955331   -71.744826   -99.363756   -85.466764   -113.26901    49.608035    63.510825    35.711572   -13325.976    231.28561 
    7000    40.607798    40.607798    40.607798   -21.517973   -27.074967   -13.169331   -40.985998    68.888779    82.800299    54.985129   -106.36773   -92.468466   -120.27196   -13321.758    224.17335 
    7050    40.608361    40.608361    40.608361   -85.333283   -62.294957   -48.395984    -76.19207   -78.471956   -64.563095   -92.365867   -115.23294   -101.33337   -129.12558   -13324.227    229.99186 
    7100    40.607551    40.607551    40.607551  -0.32340728   -15.680349   -1.7812095   -29.575838    51.728357    65.633967    37.825399    -37.01823   -23.106891   -50.920456   -13323.223    229.10019 
    7150     40.60782     40.60782     40.60782    20.921777    45.317835    59.222693    31.418147   -55.509065   -41.607731    -69.40407    72.956561    86.866183    59.050818   -13323.207    230.11782 
    7200    40.609482    40.609482    40.609482   -77.821672   -101.91746   -88.019352   -115.81744    4.9611119    18.865401   -8.9476148   -136.50867    -122.6069   -150.40738   -13323.495    231.72021 
    7250    40.609913    40.609913    40.609913    50.433017   0.56460385    14.468485   -13.338872    75.008988     88.89939     61.09874     75.72546    89.616128    61.817457   -13321.183    228.29296 
    7300     40.60956     40.60956     40.60956    -69.90714   -13.571925   0.32051279   -27.477884   -179.09254   -165.19327   -192.99337   -17.056953   -3.1473023   -30.951385   -13321.826    230.56804 
    7350    40.608273    40.608273    40.608273    147.86894    124.22491    138.13538    110.32592    181.66507    195.58564    167.76151    137.71684    151.62584    123.81243   -13319.822    227.72576 
    7400     40.61072     40.61072     40.61072   -38.902497   -22.541514   -8.6338649   -36.442552   -63.916036   -50.002333    -77.81043   -30.249939   -16.338392   -44.141134   -13321.343    231.69891 
    7450      40.6122      40.6122      40.6122   -125.41163   -226.57028   -212.67034   -240.45586    -33.61997   -19.716703   -47.515099   -116.04465   -102.14788   -129.93441   -13322.895    235.72868 
    7500    40.610108    40.610108    40.610108   0.23229987   -85.457416   -71.551744   -99.353316    5.8911509    19.789157    -8.016549    80.263165    94.170672    66.358864   -13321.055    233.20319 
    7550    40.608593    40.608593    40.608593    216.78304    152.03962    165.95121     138.1388    265.65517    279.57316    251.76697    232.65434    246.56669    218.75038   -13319.725    231.64868 
    7600    40.612333    40.612333    40.612333   -46.447022   -71.347699   -57.438923   -85.248933    11.081953    24.988887   -2.8240122    -79.07532   -65.169659   -92.971873    -13319.66    232.54909 
    7650    40.614101    40.614101    40.614101    8.5688691   -63.097679   -49.205744   -76.998425    126.74828    140.64699    112.84623   -37.943999   -24.041851   -51.847918   -13317.293     228.9811 
    7700    40.612387    40.612387    40.612387   -98.768505   -57.973541   -44.074732   -71.869726   -144.42907   -130.52162   -158.34188   -93.902904   -80.009539   -107.80293   -13319.588    234.44054 
    7750    40.607968    40.607968    40.607968    199.50031    202.77634    216.69118    188.86405    254.41477    268.32319    240.51217    141.30983     155.2118    127.39672   -13320.441    237.10839 
    7800    40.611213    40.611213    40.611213    10.113906    81.539417    95.447594    67.642304    -64.43268   -50.531942   -78.338206     13.23498    27.137262  -0.66973443   -13320.135    237.51591 
    7850    40.615802    40.615802    40.615802    -190.8177   -123.93483    -110.0369   -137.83471   -155.49397   -141.58631   -169.39525   -293.02431   -279.11526   -306.92342   -13316.958    232.37563 
    7900    40.614071    40.614071    40.614071   -62.814506    -179.3342   -165.44191   -193.23221   -47.023971   -33.109353   -60.920023    37.914647    51.825711    24.016692   -13319.654    238.59408 
    7950    40.610522    40.610522    40.610522     61.91862    100.38714    114.29751    86.483089    136.28653    150.19492    122.36765   -50.917809   -37.022002   -64.821163   -13320.447    241.13365 
    8000    40.612416    40.612416    40.612416    54.480615    36.677358     50.59414    22.778828    96.889371     110.7994    82.998453    29.875117    43.796964    15.974249   -13318.108    237.59574 
    8050    40.616739    40.616739    40.616739   -201.42892   -220.49972   -206.58712   -234.39196   -266.56184   -252.65379   -280.45285   -117.22521   -103.31622    -131.1153   -13317.484     237.3978 
    8100    40.613917    40.613917    40.613917   -29.516087   -62.473189   -48.577408    -76.38527    8.6103831    22.511612   -5.2885988   -34.685456   -20.781315   -48.585491   -13318.824    240.98117 
    8150    40.611079    40.611079    40.611079    233.41268     250.2191    264.12506    236.31988    199.26147    213.17804    185.35453    250.75748    264.67399    236.85436   -13316.499    237.46563 
    8200    40.615557    40.615557    40.615557   -73.482497   -143.76325   -129.84708    -157.6589    121.83238    135.73773    107.92967   -198.51662   -184.61597   -212.41384   -13318.206    241.75524 
    8250    40.618041    40.618041    40.618041   -99.554299    28.475224    42.371331    14.568214   -164.46411   -150.55806   -178.36777   -162.67401   -148.77204   -176.57302    -13314.28    235.13872 
    8300    40.614975    40.614975    40.614975    28.031927   -144.03934   -130.13564   -157.94614    205.83186    219.73754    191.92387    22.303256    36.213348    8.4036894   -13316.211    239.85171 
    8350    40.611951    40.611951    40.611951    171.74974    263.70158    277.61602    249.79219    140.68604    154.59348    126.77272    110.86162    124.76829    96.950518   -13316.616    241.61323 
    8400    40.614453    40.614453    40.614453    143.17086  -0.11537715    13.787761   -14.022971    138.95256    152.85842    125.03659     290.6754    304.57016    276.75435   -13313.361    236.28983 
    8450    40.618979    40.618979    40.618979   -283.99859   -222.64095   -208.73516   -236.53723   -181.34927   -167.44443   -195.24524   -448.00554   -434.09766    -461.9091   -13317.732     245.7156 
    8500    40.615661    40.615661    40.615661   -29.771671   -69.689884    -55.78019   -83.586706    -99.93417   -86.015782   -113.82789    80.309039    94.223416    66.408986    -13315.56    242.47643 
    8550     40.61192     40.61192     40.61192    275.83701    274.34212    288.25871    260.42915    321.67168    335.58097    307.75191    231.49724    245.40208    217.59706   -13315.123     242.6027 
    8600    40.616597    40.616597    40.616597   -150.21221    -307.5939   -293.69017   -321.49527    22.330695    36.253965    8.4324523   -165.37342   -151.46546   -179.26846   -13317.089    247.35868 
    8650     40.61938     40.61938     40.61938   -70.949903   -188.44591   -174.54083   -202.34155   -23.889919   -9.9914244   -37.788083  -0.51388247    13.394988   -14.416283   -13313.832    242.01927 
    8700    40.618511    40.618511    40.618511   -118.97868   -41.616921   -27.714812    -55.52551   -90.616415   -76.716556   -104.51906   -224.70272   -210.79603   -238.60633   -13314.804    244.84642 
    8750    40.615356    40.615356    40.615356    184.70792    24.093517    38.008261    10.192278    267.47839    281.40594    253.56744    262.55184    276.46414    248.64451   -13312.664    241.65958 
    8800     40.61578     40.61578     40.61578    49.124551    51.019324    64.931408    37.115359    85.170428     99.08404    71.262711    11.183902    25.086715   -2.7154679   -13313.827    244.86054 
    8850    40.617841    40.617841    40.617841   -30.004023   -14.969104    -1.064137    -28.87039    14.218623    28.132564   0.31415206   -89.261589   -75.350018   -103.15647    -13314.23    246.57563 
    8900    40.618905    40.618905    40.618905   -196.67237   -69.287145   -55.383292   -83.197142   -267.14581   -253.24424   -281.05042   -253.58416   -239.67248    -267.4772   -13315.482    249.94202 
    8950    40.616633    40.616633    40.616633    113.56155     17.70615    31.619294    3.7971199    205.62112    219.53547     191.7174    117.35737    131.26015    103.43169   -13312.174    244.47327 
    9000    40.617981    40.617981    40.617981   -5.3782871   -96.290796   -82.377915   -110.18856    102.10605    116.00842    88.203869   -21.950111   -8.0569332   -35.863301   -13315.903    252.62496 
    9050    40.620148    40.620148    40.620148   -48.644761    26.770246    40.677926    12.874457   -95.187336   -81.280983   -109.10435   -77.517195   -63.596053   -91.403721   -13311.498    245.02404 
    9100    40.620057    40.620057    40.620057   -49.592958   -174.28861   -160.39236   -188.19544   -33.121107   -19.200595   -47.012654    58.630846    72.547652    44.730778   -13312.283    247.47347 
    9150     40.61758     40.61758     40.61758    150.26405    225.47259    239.38912    211.56628    101.73932    115.64963    87.831501    123.58025     137.4912    109.67132   -13310.095    244.16108 
    9200     40.61774     40.61774     40.61774    72.268147    41.329583    55.252693     27.42106    38.217779    52.121114    24.313718    137.25708    151.16506    123.34692   -13311.689    248.16871 
    9250    40.619622    40.619622    40.619622   -84.083887   -149.79255   -135.88938   -163.69777    -69.87264    -55.97117   -83.785615   -32.586469   -18.678843   -46.490459   -13311.349    248.42467 
    9300    40.619538    40.619538    40.619538    119.50181    125.80622    139.69692    111.90199     23.83651    37.752847    9.9314462    208.86271    222.76374    194.95281   -13311.853    250.31265 
    9350    40.620623    40.620623    40.620623   -23.026387   -212.93313   -199.02054   -226.84134    47.062092    60.975907    33.151953    96.791877    110.71002    82.885807   -13310.946    249.45277 
    9400    40.621651    40.621651    40.621651   -110.30374    55.349363    69.262226    41.446922   -308.53971   -294.63156   -322.44369   -77.720873   -63.817261   -91.624888    -13310.94    250.34293 
    9450    40.620796    40.620796    40.620796    119.80518    22.147835    36.055293     8.239623    168.09362     182.0065    154.18694    169.17409    183.08637    155.25858   -13308.678    246.86507 
    9500    40.621436    40.621436    40.621436   -77.654363   -94.095478   -80.181232   -108.00128   -169.62014   -155.71393   -183.52229    30.752526    44.659316    16.855889   -13312.361    254.89143 
    9550    40.620956    40.620956    40.620956    80.176844   -81.439503   -67.526742   -95.335788    171.10941     185.0205    157.20259    150.86063    164.77572     136.9558   -13310.642     252.4677 
    9600    40.623082    40.623082    40.623082   -100.37971   -50.707541   -36.792679   -64.604978   -83.798674   -69.875027   -97.700892   -166.63292   -152.72079   -180.53242   -13311.014    254.06807 
    9650     40.62368     40.62368     40.62368   -96.708169   -111.18675   -97.285466   -125.08653   -146.71085   -132.81123   -160.61136   -32.226906   -18.320253   -46.128897   -13309.976    252.94982 
    9700    40.621786    40.621786    40.621786    25.766695   -101.68196   -87.774954   -115.58664    193.85198    207.75444    179.93613   -14.869939  -0.96007955   -28.777177   -13311.217    256.23031 
    9750    40.621617    40.621617    40.621617    63.783347    45.223363    59.137038    31.303808    18.202269      32.1244    4.2978769    127.92441    141.83365    114.01754   -13309.015    252.84887 
    9800    40.623567    40.623567    40.623567    30.108544   -256.64207   -242.73826   -270.53887    218.38384    232.29657    204.48978    128.58387    142.49314    114.68442   -13308.817     253.3361 
    9850    40.625018    40.625018    40.625018   -209.09391   -204.87145   -190.96571   -218.76383   -333.00963    -319.0932   -346.91282   -89.400642   -75.494734   -103.29551    -13310.94    258.31262 
    9900    40.622237    40.622237    40.622237    148.31384    127.49748    141.41629    113.58734    211.31408    225.22069    197.40449    106.12996    120.04988    92.207786   -13307.278    252.08567 
    9950    40.623383    40.623383    40.623383     1.582774    69.834119    83.738056    55.925165   -163.62004   -149.70698   -177.52196    98.534248    112.44911    84.633652   -13310.401     258.9926 
   10000     40.62607     40.62607     40.62607   -49.067764   -32.888182   -18.969115   -46.787004    31.781308    45.687017    17.869241   -146.09642   -132.19496   -159.99878   -13306.221    251.76572 
   10050    40.625601    40.625601    40.625601   -111.26613   -260.75667   -246.85312   -274.66116   -93.751589   -79.852178   -107.65435    20.709871    34.609501     6.793732   -13309.037    258.07207 
   10100     40.62165     40.62165     40.62165    194.77386    28.814092    42.724547    14.895392    505.48434     519.4069    491.56511    50.023147    63.934114    36.118935   -13308.396    257.68142 
   10150    40.623957    40.623957    40.623957    148.65111    67.804204     81.70931    53.894135    36.673761    50.586318    22.769136    341.47535    355.38983    327.56786   -13305.783    253.47093 
   10200    40.629076    40.629076    40.629076   -266.31898   -507.92354   -494.01217   -521.81696   -161.58297   -147.68629   -175.48318   -129.45043    -115.5448   -143.34815     -13308.7    259.95316 
   10250    40.626239    40.626239    40.626239    139.51768    308.09578    322.00814    294.19196    15.774635    29.688607     1.863433    94.682613    108.59198    80.769006    -13303.86    251.42496 
   10300    40.624167    40.624167    40.624167     -32.4434   -82.799664    -68.89181   -96.710482   -62.479318   -48.561453   -76.389794    47.948784    61.871429    34.049561   -13309.107    262.41275 
   10350    40.623612    40.623612    40.623612     175.4361    204.33298    218.24826    190.42446      258.726    272.64662    244.81823     63.24931    77.155755    49.340796   -13305.282     255.8423 
   10400    40.627102    40.627102    40.627102   -209.12009   -222.42107    -208.5124   -236.32014   -245.20351   -231.30202   -259.10251   -159.73569   -145.82433   -173.62778   -13309.194    264.24465 
   10450    40.626953    40.626953    40.626953   -37.296466   -132.87675   -118.96217   -146.78121     82.48944    96.405017    68.593821   -61.502083   -47.596974   -75.412502   -13306.088    259.05202 
   10500    40.625844    40.625844    40.625844     3.606221    -58.26973   -44.362613    -72.17361   -86.758565    -72.84554   -100.67362    155.84696    169.77261    141.93937   -13306.912    261.45961 
   10550    40.625595    40.625595    40.625595    111.78184    112.94411    126.85658    99.039473    309.47861    323.41047    295.56028   -87.077194   -73.164103    -100.9819    -13304.68    257.95671 
   10600    40.628278    40.628278    40.628278   -8.4171661     70.80722    84.722061    56.910199   -24.293744   -10.391518   -38.198163   -71.764974   -57.859866   -85.666672    -13304.87    259.13252 
   10650    40.629525    40.629525    40.629525    -76.00165    29.818683    43.729366    15.892515    -84.45566   -70.556801   -98.345608   -173.36797   -159.46069   -187.26456   -13304.625    259.46901 
   10700    40.627011    40.627011    40.627011    47.009139   -16.427123   -2.5147889   -30.332029    162.61651    176.53908    148.70527   -5.1619706    8.7408706   -19.072164   -13306.004    262.94252 
   10750    40.625683    40.625683    40.625683    101.81504    128.92511    142.83433    115.02109    169.09554    183.00282    155.18542    7.4244807    21.342517   -6.4984385   -13304.619    261.05812 
   10800    40.628883    40.628883    40.628883   -57.759356   -232.59692   -218.68192   -246.50627   -42.288746   -28.375774   -56.196961     101.6076    115.52271    87.710588   -13305.472    263.48864 
   10850    40.630171    40.630171    40.630171   -214.60569     -342.753   -328.84996   -356.66595   -101.34117   -87.436359    -115.2451    -199.7229   -185.81386   -213.61437   -13305.818    264.95585 
   10900    40.625775    40.625775    40.625775    151.63751    78.462207    92.376938    64.556683    158.15176    172.07047    144.23577    218.29857    232.19879    204.38113   -13303.888    262.00642 
   10950    40.625825    40.625825    40.625825    156.99311    351.87784    365.79363    337.97067    28.857647    42.770478    14.939459    90.243849    104.15426    76.326077   -13304.334    263.65212 
   11000    40.629465    40.629465    40.629465   -4.6147152   -257.73613   -243.82782   -271.64291    122.77483    136.68418     108.8743    121.11715    135.02603    107.19123   -13303.002    261.85318 
   11050    40.631044    40.631044    40.631044   -216.10871   -397.60634   -383.69079   -411.51193   -158.54736   -144.63796   -172.45135   -92.172443   -78.259899   -106.07192   -13305.477     267.4096 
   11100    40.628304    40.628304    40.628304   -8.2088922    -27.43093   -13.523769   -41.330871   -7.8096948    6.1050589   -21.714586    10.613949    24.536654   -3.2798914   -13304.539    266.35772 
   11150    40.626833    40.626833    40.626833    47.524497   -24.750529    -10.83754   -38.665802    171.35739    185.28216    157.45026   -4.0333658    9.8865876     -17.9421   -13304.416    266.89007 
   11200    40.628827    40.628827    40.628827    66.135866   -26.759252   -12.842855   -40.660006    -54.27607   -40.364785   -68.184495    279.44292    293.36505    265.54825   -13302.796     264.5124 
   11250    40.631237    40.631237    40.631237   -205.72997   -313.74178   -299.83135   -327.63561   -196.51809   -182.61553   -210.42628   -106.93004   -93.021184   -120.84648   -13303.694    267.01032 
   11300    40.627988    40.627988    40.627988    145.36804    303.85977    317.76897    289.92863    46.112924    60.035632    32.195117    86.131426    100.03811    72.224911   -13301.625    263.75624 
   11350    40.627598    40.627598    40.627598    123.42655    49.406004    63.321461    35.500192     151.7312    165.63808    137.81924    169.14245    183.05682    155.22885     -13302.5    266.19717 
   11400    40.631013    40.631013    40.631013   -77.358293   -166.48749   -152.57129   -180.39105    -50.58186   -36.657665   -64.493288   -15.005531   -1.0876672   -28.916272   -13302.024    266.01716 
   11450    40.632363    40.632363    40.632363   -19.472944    -90.11872   -76.212197   -104.02212   -33.678407   -19.764073   -47.582477    65.378293    79.287228     51.47423    -13300.91    264.60553 
   11500    40.630696    40.630696    40.630696   -3.0508462   -160.00149   -146.09107   -173.90523    48.513397    62.426268    34.612901    102.33555     116.2524    88.428007   -13301.475    266.43476 
   11550    40.628804    40.628804    40.628804    126.34517    150.27522    164.19412    136.37438    126.02328    139.93763    112.11228    102.73703    116.65484    88.836346   -13302.117    268.41079 
   11600    40.630261    40.630261    40.630261    73.233627   -189.57979   -175.65761   -203.48481    117.34552    131.26854    103.44629    291.93515    305.84202    278.01599   -13300.928    266.82904 
   11650    40.634013    40.634013    40.634013   -181.24677   -102.18677   -88.279434   -116.09591   -93.849952   -79.945927   -107.75523   -347.70358   -333.79154    -361.6033   -13302.663    270.90194 
   11700    40.633111    40.633111    40.633111   -58.957529   -187.11382   -173.20874   -201.02478   -111.76711   -97.856385   -125.68116    122.00834    135.92464    108.08924   -13300.459     267.3539 
   11750    40.630416    40.630416    40.630416    24.711564   -45.483729   -31.580247    -59.39184    126.59345    140.50023    112.67613   -6.9750275    6.9338406   -20.870529   -13302.282    271.58763 
   11800     40.63046     40.63046     40.63046    26.762155   -93.700409   -79.786441   -107.60745     19.32279    33.249202    5.4081301    154.66408    168.57339    140.74081   -13302.153    272.05155 
   11850    40.633042    40.633042    40.633042   -87.038853   -104.27361   -90.365595   -118.18837    -134.4311   -120.51661   -148.32826   -22.411855   -8.4965864   -36.320261   -13300.574    269.69782 
   11900    40.633192    40.633192    40.633192   -79.570443    23.165684    37.088459     9.267034   -28.753296   -14.854708   -42.664223   -233.12372   -219.21447   -247.02982   -13299.843    268.98867 
   11950    40.631173    40.631173    40.631173    118.26227     10.00073    23.912757   -3.9040756    122.41582     136.3391    108.50459    222.37025    236.28783    208.45832   -13301.134    272.18158 
   12000    40.632786    40.632786    40.632786   -78.056303    59.459661    73.365252    45.545056   -129.93546   -116.01774   -143.84126   -163.69311   -149.77678    -177.5979   -13301.306    273.20595 
   12050    40.633253    40.633253    40.633253   -112.85073   -227.21485   -213.30711   -241.11247   -134.45662    -120.5546   -148.36454    23.119281    37.035177    9.2197759   -13301.911    275.06268 
   12100    40.631762    40.631762    40.631762    74.823908    125.98572    139.90497     112.0756   -51.757588   -37.834266   -65.668279     150.2436    164.15254    136.32965   -13300.219    272.47072 
   12150    40.632564    40.632564    40.632564    51.699905    67.557455    81.475175    53.658043    36.367176    50.275067    22.458974    51.175083    65.094534    37.266742   -13299.354    271.46837 
   12200    40.635215    40.635215    40.635215   -52.400902   -178.48675   -164.56785   -192.41827   -65.642467   -51.731995   -79.545802    86.926515    100.84393    73.018103   -13298.614    270.70756 
   12250    40.635432    40.635432    40.635432   -130.77979   -126.65134   -112.74882   -140.54528   -32.035334   -18.117054   -45.950233   -233.65269   -219.74921   -247.55394   -13301.017    276.02303 
   12300    40.632938    40.632938    40.632938    135.49607    51.613656    65.518544    37.707284    68.905016    82.818444    54.997473    285.96953    299.89103    272.05916   -13298.193     271.2239 
   12350      40.6338      40.6338      40.6338    110.79204   -4.0624609    9.8617131    -17.98284    156.24311    170.15222    142.33153    180.19546    194.11488     166.2771   -13298.862    273.17917 
   12400    40.636491    40.636491    40.636491   -84.226133   -156.34843    -142.4484   -170.25181   -53.223318   -39.319887   -67.134117   -43.106656   -29.208525   -57.012664   -13298.516    273.16508 
   12450     40.63608     40.63608     40.63608   -105.43112   -113.94969   -100.03324   -127.86271    31.671273    45.584699    17.758375   -234.01495   -220.10263   -247.92981   -13299.057    274.85802 
   12500     40.63349     40.63349     40.63349    73.301941   -126.24504   -112.33032   -140.14383     99.61075     113.5288    85.705548    246.54011     260.4517    232.64085   -13299.132    275.65091 
   12550    40.634765    40.634765    40.634765    108.36807    158.23465    172.15055    144.32794    4.7940989    18.717286   -9.1123241    162.07545    175.98709    148.15427   -13297.624     273.3763 
   12600    40.638009    40.638009    40.638009   -209.13169   -344.18259   -330.26948   -358.08946   -95.649934   -81.738502   -109.56445   -187.56254   -173.64916   -201.47143   -13298.598     275.8979 
   12650    40.635318    40.635318    40.635318    42.289504    47.830192    61.748189    33.920068   -45.030418   -31.114178   -58.924486    124.06874    137.98103    110.16574   -13299.196    277.68473 
   12700    40.634776    40.634776    40.634776    50.474438   -38.278257   -24.370208   -52.177572    52.429299    66.351423    38.520284    137.27227    151.19689    123.36017    -13298.83    277.60061 
   12750    40.637413    40.637413    40.637413   -54.674044    116.52329    130.44167    102.61653   -89.556189   -75.642812   -103.47433   -190.98924   -177.06689   -204.88795   -13297.222    275.11887 
   12800    40.637637    40.637637    40.637637    17.392318    -212.4068   -198.49632    -226.3232    113.15086    127.06269    99.251608     151.4329    165.34334    137.52974   -13296.433    274.21775 
   12850    40.636444    40.636444    40.636444   -3.2089293    27.118558    41.043016    13.196295   -64.830864   -50.915086   -78.735201    28.085518    42.000549    14.174744   -13296.615    275.18459 
   12900    40.635496    40.635496    40.635496    112.85919   -16.130395   -2.2238567   -30.030224    171.77843    185.69237    157.86567    182.92953    196.84596    169.01615   -13296.632    275.83382 
   12950     40.63761     40.63761     40.63761    70.575063    60.800672    74.711145    46.891679    54.946595    68.853882    41.027685    95.977923    109.89077    82.060444   -13296.897    276.95357 
   13000    40.639634    40.639634    40.639634   -170.17992   -259.99103   -246.08066   -273.90101   -351.17303   -337.27179   -365.07111    100.62431    114.53472    86.714887   -13298.108    279.90085 
   13050    40.637291    40.637291    40.637291   -3.4885987   -69.042692   -55.131468   -82.948052    144.65744    158.58169    130.74043   -86.080541   -72.178351    -99.98616    -13297.37    279.07051 
   13100    40.635236    40.635236    40.635236    285.64911    315.25233    329.17874    301.33758    260.62272    274.54025    246.69111    281.07229    294.99924    267.15164   -13293.252    271.69647 
   13150    40.639057    40.639057    40.639057   -181.74363   -167.99126   -154.09402   -181.88911   -151.01727   -137.11282   -164.91747   -226.22236   -212.30892   -240.12323   -13298.159     281.7789 
   13200     40.63981     40.63981     40.63981    56.183701   -181.40784   -167.48633   -195.32635    247.79395    261.71125    233.88056      102.165    116.07585    88.255528   -13294.232    274.76961 
   13250    40.638489    40.638489    40.638489   -86.426982   -235.51017   -221.60619   -249.42009   -189.17544   -175.26712   -203.08246    165.40466    179.32305    151.50292   -13297.241    281.17201 
   13300    40.635856    40.635856    40.635856    92.943918    58.114107    72.045023    44.207723    243.30267    257.23706    229.39496    -22.58502   -8.6707884   -36.504487   -13296.341    280.00382 
   13350    40.637821    40.637821    40.637821   -11.807637   -71.060899   -57.146908   -84.979111   -55.137929   -41.220507   -69.036716    90.775916    104.68358    76.875164   -13297.248    282.32932 
   13400    40.640089    40.640089    40.640089   -244.51189   -222.86359   -208.95309   -236.76879   -325.95106   -312.04163    -339.8526     -184.721   -170.80808   -198.64338   -13296.377    281.21349 
   13450    40.637708    40.637708    40.637708    224.67057    299.08332    313.00276    285.17441    228.42859    242.33977    214.50801     146.4998    160.42787    132.58921   -13293.736    276.66879 
   13500    40.638508    40.638508    40.638508   -35.183139   -224.25489   -210.33788   -238.16141   -23.668273    -9.758718   -37.581475    142.37375    156.29793    128.46985    -13294.82     279.3269 
   13550    40.638004    40.638004    40.638004   -29.545736   -110.31045   -96.396084   -124.21509    48.517033    62.449032    34.606341   -26.843796   -12.946183    -40.74869   -13296.986    284.07303 
   13600    40.637313    40.637313    40.637313    2.9985382    -20.30025   -6.3900411   -34.225362   -156.28401   -142.37368   -170.19733    185.57988    199.48413    171.67852   -13296.215    283.12797 
   13650    40.638396    40.638396    40.638396   -14.068008   -114.53994   -100.61565   -128.44527    18.101605    32.011361    4.1822044    54.234306    68.163737     40.29603   -13294.578    280.50422 
   13700     40.63977     40.63977     40.63977   -24.028045   -31.566892   -17.659183   -45.475838   -88.182613   -74.273029   -102.08372     47.66537    61.574165    33.773564   -13294.035    279.99381 
   13750     40.63924     40.63924     40.63924    52.050265    -17.10691   -3.1821363   -31.017009   -89.977532   -76.048087   -103.88978    263.23524    277.16887    249.31636   -13293.941    280.34795 
   13800    40.638391    40.638391    40.638391    110.32958    153.57904    167.49164    139.66876  -0.92167679    13.008693   -14.835913    178.33139    192.24943    164.41291   -13292.726    278.53424 
   13850    40.638572    40.638572    40.638572     76.64713   -45.554201   -31.643395   -59.470463    116.22915    130.14143    102.32563    159.26645    173.17091    145.36397   -13294.325    282.15374 
   13900    40.640473    40.640473    40.640473     9.791836   -57.548615    -43.61977   -71.466313    19.475116    33.387203    5.5594789    67.449007    81.380074    53.542428   -13293.875     281.8037 
   13950    40.642547    40.642547    40.642547   -155.24301   -131.91731   -118.00884   -145.80869   -131.80256   -117.90324   -145.70629   -202.00915   -188.10611   -215.91027   -13295.158    284.80494 
   14000     40.64039     40.64039     40.64039   -35.655012   -332.61646   -318.70714   -346.52984     52.87647    66.805767    38.954524    172.77495    186.70255    158.84172   -13293.769    282.62806 
   14050    40.638549    40.638549    40.638549    49.507167    87.248983    101.15817    73.341672    4.9390984    18.855619   -8.9604934    56.333419    70.242697     42.41977   -13295.744    286.96311 
   14100    40.639947    40.639947    40.639947      2.72087    13.003139    26.922876  -0.92711006   -31.598315   -17.684812   -45.510441    26.757785    40.679416    12.852691   -13294.216    284.51509 
   14150    40.641101    40.641101    40.641101    30.233658   -3.9348283    9.9853624   -17.858416    187.21131     201.1167     173.2895   -92.575504   -78.668498   -106.48885   -13291.686    280.12516 
   14200    40.641083    40.641083    40.641083   -50.158484   -149.02153   -135.10626   -162.93385   -41.156181   -27.252002   -55.071533    39.702255    53.606698    25.784491   -13294.162    285.40899 
   14250    40.641189    40.641189    40.641189    22.345014    12.646576    26.561118   -1.2495425   -142.41608   -128.50279    -156.3281    196.80455    210.73459    182.88644   -13294.206    285.98202 
   14300    40.641404    40.641404    40.641404    104.07924    43.143855    57.066716     29.23606    68.220708    82.146714    54.308705    200.87317    214.79447    186.96884   -13290.024    278.38251 
   14350    40.641892    40.641892    40.641892    -1.845087   -72.708735   -58.799311   -86.620983   -198.09654   -184.16127   -211.99524    265.27002    279.17735    251.36164   -13293.086    284.79306 
   14400    40.641417    40.641417    40.641417   -36.180675   -153.97295   -140.05554   -167.87348   -44.451724   -30.539384   -58.342109    89.882649    103.80236     75.96829   -13295.188     289.3449 
   14450    40.640686    40.640686    40.640686    108.74009    143.41713    157.35127    129.48644    101.92335    115.83669    88.011349    80.879783    94.810724    66.985883   -13291.498    282.67855 
   14500    40.643262    40.643262    40.643262   -14.583012    32.320591    46.239682    18.428899   -48.607513   -34.692576   -62.533053   -27.462113   -13.562141   -41.381833   -13292.327    284.74998 
   14550    40.642986    40.642986    40.642986   -37.790055   -226.65181   -212.74339   -240.56891     65.67136    79.582241    51.756906     47.61028     61.52911    33.698658   -13292.161    284.89494 
   14600    40.640718    40.640718    40.640718    64.243243    64.196799    78.113054    50.278796   -6.1570565    7.7519194   -20.060021    134.68999    148.61645    120.78297   -13292.745    286.48662 
   14650    40.641474    40.641474    40.641474    18.583595    65.058129    78.979882    51.137971   -126.14258   -112.20487   -140.06942    116.83524    130.74072    102.92282   -13292.072    285.64295 
   14700    40.643283    40.643283    40.643283   -80.770125     20.17634    34.089158     6.265996   -145.49623   -131.58852   -159.39921   -116.99048   -103.07421   -130.89828   -13293.395    288.65391 
   14750      40.6432      40.6432      40.6432    18.825638    12.131751     26.05739   -1.7857304   -5.8742923    8.0367675   -19.782166    50.219456    64.124093      36.3097    -13291.05    284.57408 
   14800    40.641828    40.641828    40.641828    59.688144     13.38137     27.29718  -0.52680288   -6.9829497     6.933643   -20.906071    172.66601     186.5975    158.74512   -13291.847    286.56654 
   14850    40.641895    40.641895    40.641895    66.260735    -31.36407   -17.445604   -45.264782    59.560317    73.472807    45.656242    170.58596    184.50643    156.65053   -13291.946     287.1986 
   14900    40.644253    40.644253    40.644253    -137.8918   -28.810621   -14.904992   -42.725739   -283.00416   -269.07179   -296.91013   -101.86061   -87.957441   -115.75794   -13293.074    289.82247 
   14950    40.643903    40.643903    40.643903   -25.902299   -149.35746   -135.43294   -163.26373   -19.989706   -6.0722737   -33.892519     91.64027    105.55396    77.738731   -13291.409    287.03537 
   15000    40.641649    40.641649    40.641649     121.2001    369.62337    383.54422    355.70613   -105.35529   -91.433913   -119.27067    99.332208    113.25646    85.424106    -13291.13    286.92694 
   15050    40.640804    40.640804    40.640804    124.25808    130.95532    144.86643    117.03751    266.91166    280.83012    252.98521   -25.092751   -11.164602      -39.014   -13290.189    285.52842 
   15100    40.643721    40.643721    40.643721    68.421529    56.283599    70.201749    42.377025    34.445267    48.353518    20.538896    114.53572    128.45842    100.61716    -13289.81    285.21211 
   15150    40.646227    40.646227    40.646227   -260.38134   -424.20211   -410.28482   -438.10762   -211.45708   -197.54636   -225.36334   -145.48484   -131.58485   -159.37838   -13291.683    289.25668 
   15200    40.641762    40.641762    40.641762    130.30459    204.55067    218.47143    190.62507    116.31639    130.23603     102.3913    70.046715    83.978037    56.122496   -13290.562    287.49797 
   15250    40.641099    40.641099    40.641099    98.566659     46.09651    60.012256    32.184042    79.674937    93.599065    65.760895    169.92853     183.8374    156.00836   -13292.078    290.84329 
   15300    40.644544    40.644544    40.644544   -118.84699    75.931577    89.844099    62.006554   -140.47862    -126.5579   -154.39456   -291.99393   -278.07643   -305.88849   -13292.477    292.02294 
   15350    40.645904    40.645904    40.645904   -177.19528   -169.86276   -155.95169   -183.75791   -274.56886   -260.65529   -288.47015   -87.154236   -73.228663   -101.08708   -13291.589    290.70199 
   15400    40.643297    40.643297    40.643297    83.933268    152.76898    166.69366    138.86708      41.9908    55.907585    28.075596    57.040018    70.948888     43.12629   -13289.785    287.61095 
   15450    40.643212    40.643212    40.643212   -47.128333    -3.393349    10.522839   -17.308299   -127.31612   -113.40383   -141.22647   -10.675524    3.2381707   -24.580464   -13293.994    296.15045 
   15500    40.644556    40.644556    40.644556   -10.913815    130.34848    144.27672       116.43   -50.513648   -36.594203   -64.428581   -112.57628   -98.655703   -126.49011   -13289.964    288.73837 
   15550    40.645592    40.645592    40.645592   -114.97909   -134.85099   -120.94043   -148.75665   -47.571431   -33.650342   -61.471399   -162.51484   -148.59288   -176.41893   -13290.329    289.82883 
   15600    40.643746    40.643746    40.643746    55.880874    222.32778    236.24795     208.4182   -81.345277      -67.428   -95.253453    26.660114    40.578323    12.737012   -13290.832    291.18802 
   15650    40.643304    40.643304    40.643304    147.72957    187.86622    201.78329    173.92771    99.284361     113.2005    85.370272    156.03812    169.95512    142.13852   -13288.079    286.24089 
   15700    40.645435    40.645435    40.645435   -95.613541    108.29415    122.21753    94.390816   -140.73087   -126.80899   -154.63385    -254.4039   -240.49731   -268.32333   -13291.127    292.51058 
   15750    40.645221    40.645221    40.645221   -119.59063   -210.43333   -196.52233   -224.32627     -83.1876   -69.271372   -97.108021   -65.150955   -51.221577   -79.054677    -13290.72    292.09127 
   15800     40.64282     40.64282     40.64282    128.44945    151.43527    165.35679    137.51241   -10.250141    3.6604884    -24.16994    244.16322    258.08743     230.2417   -13290.004    291.06987 
   15850    40.643562    40.643562    40.643562    255.12946    184.87633    198.78356    170.95139    204.18276    218.09296    190.25442    376.32928    390.24836    362.39074    -13286.28     284.2209 
   15900    40.648933    40.648933    40.648933   -203.49251    -85.01199   -71.099856    -98.92396   -224.27456   -210.34868   -238.17513   -301.19097   -287.29524   -315.09356   -13289.703    291.20079 
   15950    40.647235    40.647235    40.647235   -177.93799   -277.47371   -263.55423   -291.37682   -130.23204   -116.31555   -144.13362   -126.10822   -112.18348   -140.01645   -13291.204    294.46058 
   16000    40.641642    40.641642    40.641642    253.28201    245.03511     258.9579    231.12488    116.57843    130.49872    102.65235    398.23248     412.1645     384.3175   -13290.572    293.59034 
   16050     40.64468     40.64468     40.64468    44.585677   -2.5265583    11.385225     -16.4362    193.21688    207.14682    179.29976   -56.933291   -43.020314   -70.838487   -13289.491    291.84188 
   16100    40.648092    40.648092    40.648092   -96.521565   -56.646929   -42.725589   -70.558377   -213.35102   -199.44338   -227.26674   -19.566745   -5.6566706   -33.468431   -13287.606    288.53645 
   16150    40.646183    40.646183    40.646183   -124.85479    -223.7641   -209.85207   -237.68324    -140.8099   -126.90759   -154.70244   -9.9903647    3.9345127   -23.908143   -13291.657    296.70436 
   16200    40.643683    40.643683    40.643683    260.25256    311.88632    325.80522    297.97151    121.74351    135.66348    107.81393    347.12785    361.04647    333.19913   -13286.817    287.67145 
   16250    40.647248    40.647248    40.647248   -64.881933    27.348632    41.268193     13.44014   -187.98853   -174.06076   -201.90535   -34.005901   -20.103737   -47.917932   -13289.246    292.70305 
   16300    40.647707    40.647707    40.647707   -300.11993   -413.03993   -399.13697   -426.94135   -163.64314   -149.73161   -177.54823    -323.6767   -309.74662   -337.57167   -13292.628    299.56755 
   16350    40.643982    40.643982    40.643982     184.8353    291.46572    305.39843    277.55616    92.583257     106.5048    78.679738    170.45693    184.37389    156.55048   -13288.662    292.21654 
   16400    40.646359    40.646359    40.646359   -120.05301   -36.129501   -22.207212    -50.04537   -117.08587   -103.16468   -130.99896   -206.94367   -193.02419   -220.85216   -13290.463    296.02097 
   16450    40.646194    40.646194    40.646194     131.3871    117.35014    131.25346    103.43393    123.33839    137.26792     109.4172    153.47277    167.38675    139.56155   -13286.527    288.71751 
   16500    40.645997    40.645997    40.645997    19.115891    199.68744    213.60433    185.77587   -44.688078   -30.780798   -58.586571   -97.651693   -83.742157   -111.56885   -13287.923    291.72469 
   16550    40.645018    40.645018    40.645018      139.161    245.82592    259.74528    231.90945    67.598466     81.53277    53.657858     104.0586    117.97352    90.140268   -13286.999    290.23117 
   16600    40.646961    40.646961    40.646961   -47.628543   -26.188985   -12.266226   -40.098059   -115.06211   -101.14931   -128.96877   -1.6345282    12.271892   -15.557916   -13288.658    293.73898 
   16650    40.647639    40.647639    40.647639   -163.65753   -132.37627   -118.46671   -146.28965   -199.92358    -186.0209   -213.82718   -158.67272   -144.73877   -172.58368   -13289.088    294.86789 
   16700    40.644928    40.644928    40.644928    90.328838    3.7104478    17.623219   -10.200916    156.31857    170.25002     142.4114     110.9575    124.87985    97.032211   -13289.441    295.84883 
   16750    40.645008    40.645008    40.645008    66.487621    308.01568    321.94425    294.10422   -9.2102034    4.7071467   -23.135862   -99.342608   -85.432261   -113.23595   -13287.397    292.18604 
   16800    40.646982    40.646982    40.646982   -28.647079    -1.732685    12.195578   -15.630731   -113.97574   -100.05777   -127.90063    29.767187    43.695341    15.860614   -13288.147    293.92404 
   16850    40.647575    40.647575    40.647575   -113.98103   -112.42947   -98.518912    -126.3482   -158.39772   -144.48681   -172.29824   -71.115905   -57.204558   -85.029168   -13289.385     296.6021 
   16900     40.64558     40.64558     40.64558    185.06392    171.88758    185.80041    157.95122    257.47412    271.39346    243.55726    125.83005    139.74503    111.90472   -13286.361    291.02729 
   16950    40.646624    40.646624    40.646624   -8.3386466    105.91063    119.81658    92.008051   -153.59331   -139.67045   -167.51396    22.666735    36.578034    8.7614657   -13288.359    295.16891 
   17000    40.647892    40.647892    40.647892     -84.9798   -202.79434   -188.87182   -216.70106   -84.437064   -70.521916   -98.343816    32.292003    46.216667    18.381855   -13288.971    296.61817 
   17050    40.647433    40.647433    40.647433   -41.121248    62.970544    76.901747     49.05745    -258.0537   -244.14224   -271.96518    71.719408    85.635841     57.78969   -13287.587    294.20613 
   17100    40.646208    40.646208    40.646208    51.590538   -157.36983   -143.46533   -171.29225    181.58593    195.50438    167.66261    130.55551    144.48385    116.64251   -13288.503    296.24409 
   17150     40.64691     40.64691     40.64691   -65.900093    88.764333    102.67312    74.854978   -136.20971   -122.28313   -150.11078    -150.2549   -136.35858   -164.14163   -13288.567    296.63092 
   17200    40.647071    40.647071    40.647071   -5.7301942    85.350031    99.285883    71.439133   -56.817588   -42.885647   -70.741295   -45.723026   -31.801154   -59.645472   -13287.799    295.40475 
   17250    40.647511    40.647511    40.647511    -25.19417   -189.67004    -175.7477   -203.58399    87.685232    101.59221    73.788707    26.402299    40.326481    12.499603   -13287.151     294.4074 
   17300    40.646197    40.646197    40.646197    51.128973   -28.626207   -14.719054   -42.535157   -66.967949     -53.0438   -80.895012    248.98108    262.91851    235.04911   -13286.795    293.97096 
   17350    40.645704    40.645704    40.645704     25.76403    133.32117    147.24012     119.4111   -41.976564   -28.061657   -55.881835    -14.05252  -0.13830732   -27.962251   -13287.693    295.95127 
   17400    40.646821    40.646821    40.646821    88.993293   -51.853742   -37.927158   -65.775525    109.37425    123.28764    95.452958    209.45937    223.37434    195.53601   -13287.471    295.76596 
   17450    40.649304    40.649304    40.649304    -91.48287    7.8513218    21.762031   -6.0483535   -111.95574   -98.026839   -125.87345   -170.34419   -156.43023   -184.26321   -13287.294    295.65469 
   17500     40.64965     40.64965     40.64965   -125.92975   -340.24098    -326.3506   -354.13461    26.244848     40.15857    12.349433   -63.793135   -49.870809    -77.69716   -13288.019    297.29323 
   17550    40.646417    40.646417    40.646417    4.3014998   -46.704835   -32.776862   -60.628126   -108.84987   -94.929465   -122.77287     168.4592    182.37678    154.55363   -13288.223    297.92335 
   17600    40.644359    40.644359    40.644359    139.68143    106.22348    120.16232    92.304691    162.31823    176.23378    148.40636    150.50258    164.41712     136.5737   -13287.957    297.64168 
   17650    40.647422    40.647422    40.647422    14.878034    216.79361    230.71762    202.87647   -132.52787    -118.6118   -146.44971   -39.631644   -25.711973   -53.546519   -13285.756    293.60247 
   17700    40.650624    40.650624    40.650624   -138.79927   -55.326369   -41.420799   -69.229491   -197.14582   -183.21748   -211.04887   -163.92561   -150.00918   -177.82714   -13288.721    299.56013 
   17750    40.649172    40.649172    40.649172   -36.150917    61.241998    75.149759    47.327784    19.197546    33.118025    5.2840777    -188.8923   -174.96947   -202.80987    -13286.87    296.19526 
   17800    40.646619    40.646619    40.646619    134.11957     266.8086    280.72536     252.8991    61.829198    75.747778      47.9036    73.720902    87.636313    59.802811   -13285.681    294.11104 
   17850    40.648224    40.648224    40.648224   -10.097739   -112.46807   -98.541042   -126.37862   -4.1572798    9.7545156   -18.071366    86.332135     100.2681    72.411244   -13287.112    297.09284 
   17900    40.649757    40.649757    40.649757   -213.19533    -135.9982   -122.09077    -149.9081   -465.20502   -451.28487    -479.1022   -38.382757   -24.479095   -52.269343   -13288.333    299.66476 
   17950    40.646153    40.646153    40.646153     133.7404    157.47713    171.41494      143.548    242.56937    256.49134    228.64964    1.1747135    15.084978   -12.756355   -13286.412    296.14748 
   18000    40.646559    40.646559    40.646559    169.63043    205.26381    219.17094    191.35215    36.418296    50.316562     22.49772    267.20919    281.14248    253.28918   -13287.075    297.62351 
   18050    40.652159    40.652159    40.652159   -295.84138   -172.97238   -159.06643   -186.87242   -283.00239   -269.08145   -296.90007   -431.54937    -417.6421   -445.44593    -13288.39     300.3592 
   18100    40.650501    40.650501    40.650501    -73.75406   -73.999733   -60.080152   -87.914396    -130.0967   -116.16757   -144.01918   -17.165743   -3.2466454   -31.067821   -13285.795    295.52623 
   18150    40.646245    40.646245    40.646245    96.166344    155.87866    169.80724    141.95742   -60.233594   -46.311331   -74.151598    192.85397    206.77506     178.9296   -13287.652    299.30984 
   18200    40.646927    40.646927    40.646927    175.47057    206.98394    220.90585     193.0776     341.3466     355.2656    327.42952   -21.918825   -8.0061071   -35.847537   -13285.156    294.66771 
   18250    40.652093    40.652093    40.652093   -179.84718   -56.152416     -42.2438    -70.06195   -468.95038   -455.03794   -482.84426   -14.438737  -0.51687393   -28.340162   -13286.688    297.81787 
   18300     40.65108     40.65108     40.65108   -146.48119   -204.13115   -190.20528   -218.04192   -120.05816   -106.13414   -133.96886   -115.25425   -101.34926   -129.17429   -13286.354    297.34563 
   18350    40.647339    40.647339    40.647339    152.34576    345.38026    359.28759    331.45896    116.05076     129.9561    102.12159   -4.3937254    9.5335049   -18.295598   -13287.164    299.08915 
   18400    40.648314    40.648314    40.648314    39.840227    111.98087      125.907    98.071742    -97.70683   -83.778466   -111.63466    105.24664    119.16177    91.338247   -13284.387    293.89244 
   18450    40.649518    40.649518    40.649518   -43.171992   -2.8361551    11.080135   -16.743859     129.5971    143.53316    115.68848   -256.27692   -242.35576   -270.18624   -13286.612    298.36329 
   18500    40.648505    40.648505    40.648505    101.24795    218.24174    232.16117    204.31645    15.561833    29.470849    1.6598586     69.94029    83.862904    56.039429    -13284.19    293.83806 
   18550    40.648958    40.648958    40.648958   -52.247421   -4.6820598     9.251327   -18.600424   -196.79381   -182.87221   -210.69064    44.733607    58.643949    30.810529   -13288.345    302.03487 
   18600    40.649113    40.649113    40.649113   -56.733612   -3.5033343    10.399154   -17.409866   -90.042583   -76.129549   -103.95569    -76.65492   -62.742081   -90.570466   -13286.397    298.41916 
   18650    40.648364    40.648364    40.648364    68.655145    224.00438    237.92942    210.09794   -188.23487   -174.32418   -202.16049    170.19593    184.11668    156.27775   -13286.073    297.94127 
   18700    40.650336    40.650336    40.650336   -80.376999   -141.46978   -127.54807   -155.39478   -13.513316   0.41899956    -27.43476     -86.1479   -72.218435   -100.05078   -13285.705    297.38366 
   18750    40.650298    40.650298    40.650298   -128.58808   -83.145517   -69.250814   -97.041364    -205.1903   -191.27475   -219.08979   -97.428425    -83.52637   -111.33856   -13287.988     301.9554 
   18800    40.646816    40.646816    40.646816    138.77851    312.50042    326.44455    298.55394    83.938646    97.851751    70.035526     19.89647    33.821662    5.9657208   -13284.734    295.80138 
   18850    40.648234    40.648234    40.648234    30.728254   -38.662071    -24.74896   -52.565382   -7.3471006    6.5748705   -21.283831    138.19393    152.10712    124.29385   -13286.842    300.01921 
   18900    40.650992    40.650992    40.650992    -42.95928    148.55719     162.4778    134.64135   -127.39375   -113.47106   -141.30963   -150.04128    -136.1423   -163.95518   -13285.424    297.41421 
   18950    40.650288    40.650288    40.650288   -100.85335    -181.3983   -167.47784   -195.30989    62.860203    76.772878    48.952902   -184.02196   -170.10452   -197.93525   -13286.265    299.17496 
   19000    40.647024    40.647024    40.647024    214.95262    284.83887    298.75726    270.92926    51.056801    64.974905    37.138727    308.96218    322.90665    295.03597   -13285.026    296.90714 
   19050    40.649705    40.649705    40.649705   -81.133724   -129.00732   -115.08798   -142.92222    75.547217    89.453382    61.637613   -189.94107   -176.03642   -203.84221   -13286.857    300.57186 
[...]
   13800        0.138    291.00261    7.7081202  0.024272743 -0.0045248811 -0.0013432153    7.7067707    7.7094697    150.42255   -13024.964    -25759.56 
   13850       0.1385    289.48167    7.6931768 -0.019929264  -0.08086121 -0.0013437183    7.6918267    7.6945269    149.63635     -13022.5   -25307.954 
   13900        0.139    291.70069    7.7764968 -0.020065687  0.036329728 -0.0013428205    7.7751473    7.7778463    150.78339   -13021.951   -25975.869 
   13950       0.1395    292.40459    7.7633246  0.034195037  0.055360884 -0.0013427729    7.7619744    7.7646748    151.14724   -13020.605   -26176.268 
   14000         0.14    290.29233    7.7626058 -0.019044665 0.0027132017 -0.0013433545    7.7612565    7.7639551    150.05539   -13017.814   -25820.915 
   14050       0.1405    292.06281    7.7758053 -0.058294545 0.0016094312 -0.0013432964    7.7744551    7.7771555    150.97057   -13017.015   -25730.401 
   14100        0.141    291.80496    7.8211659 0.00028761018 -0.017408969 -0.0013430442    7.8198158     7.822516    150.83729    -13015.17   -26013.482 
   14150       0.1415    297.26935     7.847889  0.039829398  0.040463454 -0.0013426033    7.8465393    7.8492387    153.66189   -13016.276   -26427.273 
   14200        0.142    294.94924    7.8306521 -0.022628759 -0.015413473 -0.0013427093    7.8293029    7.8320014     152.4626   -13013.352   -25975.366 
   14250       0.1425    285.96849    7.7274369 -0.019690775 -0.013715348 -0.0013437132    7.7260876    7.7287863    147.82035   -13007.005   -25646.769 
   14300        0.143    294.08148     7.854946  0.040805067  0.032335478 -0.0013420623    7.8535969    7.8562952    152.01404   -13009.485   -26426.955 
   14350       0.1435    290.28478    7.8710878 -0.0011355756  0.010547296 -0.0013425264    7.8697385     7.872437    150.05149   -13005.791   -26268.332 
   14400        0.144    292.02666    7.8550118 -0.054338121 -0.010967788 -0.0013430979    7.8536625    7.8563611    150.95188   -13004.963   -25965.686 
   14450       0.1445    291.36909    7.8812951 -2.5298705e-05 -0.0035149583 -0.0013430097    7.8799439    7.8826463    150.61198   -13002.891   -26259.183 
   14500        0.145    293.05698    7.9126564  0.024818975 0.0090266216 -0.0013424192    7.9113082    7.9140047    151.48447   -13002.023    -26488.34 
   14550       0.1455    291.11591    7.8783456  0.041595587 -0.004925422 -0.0013427484    7.8769969    7.8796942    150.48111   -12999.279   -26383.386 
   14600        0.146    289.72465    7.8605182 0.0018716117 -0.035585746 -0.0013429834    7.8591681    7.8618683    149.76195   -12996.828   -26089.347 
   14650       0.1465    291.52433    7.8626249  0.020558716 -0.030841571 -0.0013425228    7.8612758     7.863974    150.69222   -12996.022   -26174.474 
   14700        0.147    287.28328    7.8480441 -0.0015077067  -0.02289151 -0.0013427365    7.8466941     7.849394    148.49998   -12992.095   -26078.816 
   14750       0.1475     287.2113    7.8283047 0.0036588903   0.01924008 -0.0013427424    7.8269542    7.8296551    148.46277   -12990.327   -26170.679 
   14800        0.148    290.08169    7.8122967  0.013847228  -0.02782856 -0.0013428219    7.8109478    7.8136456    149.94651   -12990.084   -25994.385 
   14850       0.1485    292.33905    7.7421444 -0.0042803489 -0.0072748583 -0.0013429593    7.7407956    7.7434931    151.11336   -12989.525   -25768.631 
   14900        0.149    294.43287    7.6449516 0.0047456205  0.006668966 -0.0013426531    7.6436027    7.6463005    152.19568   -12988.895   -25521.221 
   14950       0.1495    296.24667    7.5168203   0.01744676  0.010321422 -0.0013428266    7.5154697    7.5181708    153.13325   -12988.155   -25148.628 
   15000         0.15    296.72472    7.4013875 -0.046167886  0.052676284 -0.001343121     7.400038     7.402737    153.38037   -12986.745   -24692.986 
   15050       0.1505    304.25068     7.289207  -0.03265575  0.018369654 -0.0013427505     7.287859     7.290555    157.27062   -12989.017   -24249.736 
   15100        0.151    303.02416    7.0944295 -0.051498951 0.0042977033 -0.0013428409    7.0930796    7.0957794    156.63662   -12986.819   -23490.761 
   15150       0.1515     314.8956    6.9117087  0.021293995  0.039251207 -0.0013415866    6.9103606    6.9130568     162.7731   -12991.459   -23240.846 
   15200        0.152    315.38381    6.6090598  0.059737802 -0.026761326 -0.0013418852     6.607713    6.6104066    163.02546   -12990.283   -22140.121 
   15250       0.1525    318.88193    6.2813558 -0.013337772 -0.011751581 -0.0013422965    6.2800086    6.2827031    164.83368    -12990.77   -20854.222 
   15300        0.153    329.15876    5.9459889 -0.0053411582  0.031617617 -0.0013420234    5.9446434    5.9473344    170.14589   -12994.899   -19907.551 
   15350       0.1535    334.15201    5.6073996  -0.02804573 -0.032032207 -0.0013423654    5.6060516    5.6087475    172.72695   -12996.433   -18491.072 
   15400        0.154    335.01225    5.1941277   0.05202696 -0.054712672 -0.0013429507    5.1927802    5.1954751    173.17162   -12995.982   -17304.806 
   15450       0.1545    339.12061    4.8524245  0.089519224 -0.046115315 -0.001342603    4.8510774    4.8537716    175.29528   -12997.384   -16319.428 
   15500        0.155    343.58505    4.5517803  0.043632239  0.028933698 -0.0013431253    4.5504347     4.553126      177.603   -12999.148   -15414.488 
   15550       0.1555    349.23647    4.2293884 -0.002056156 -0.023993203 -0.0013440657    4.2280395    4.2307374    180.52429   -13001.647    -14011.13 
   15600        0.156    345.61369    3.9967499  0.008089561 -0.067938347 -0.0013457346    3.9953971    3.9981028    178.65163   -12999.486   -13123.004 
   15650       0.1565    355.10777    3.8298894  0.051691972 0.0024924364 -0.0013445399    3.8285397    3.8312392    183.55923   -13004.207   -12946.913 
   15700        0.157    351.42257     3.737719 -0.014077183   0.03788408 -0.0013448801    3.7363656    3.7390723     181.6543   -13002.195    -12538.42 
   15750       0.1575    358.45769    3.6579491 -0.0030485794  0.084621272 -0.0013456589    3.6565923    3.6593059    185.29084   -13005.733   -12465.073 
   15800        0.158    355.47998    3.5921901  -0.03839707  -0.01969733 -0.0013466221     3.590832    3.5935481    183.75163   -13004.129   -11780.319 
   15850       0.1585    351.43079    3.5356221 -0.093812591 -0.018556763 -0.0013473655    3.5342632    3.5369811    181.65855   -13001.971   -11410.843 
   15900        0.159     364.8669    3.5427921  0.098405366 -0.0077872278 -0.0013458492    3.5414367    3.5441475    188.60383   -13008.866   -12111.368 
   15950       0.1595    356.19129    3.3844364  0.085001001  0.026523006 -0.0013474721    3.3830826    3.3857903    184.11931   -13004.367   -11653.201 
   16000         0.16    363.57135    3.2883991 -0.0093785823 0.0022126777 -0.001348194    3.2870391    3.2897591    187.93414   -13008.194   -10937.444 
   16050       0.1605    365.11109     3.128248 -0.054426062 -0.026985662 -0.0013489067    3.1268927    3.1296032    188.73005   -13008.979   -10156.121 
   16100        0.161    370.08371    3.0150355 -0.0099875136   0.01871793 -0.0013493833     3.013678     3.016393    191.30046    -13011.61    -10079.22 
   16150       0.1615    370.83635    2.8453768  0.019332986  0.053176832 -0.0013500535    2.8440198    2.8467337    191.68951    -13012.12   -9726.2886 
   16200        0.162    378.03957    2.7892592  0.055630419  0.041186128 -0.0013505563    2.7878983      2.79062    195.41293   -13016.033   -9620.2524 
   16250       0.1625     373.1588    2.5389907  0.066212881  -0.11165943 -0.0013534356     2.537632    2.5403493    192.89001   -13013.757   -8311.8137 
   16300        0.163     374.8996    2.3623098  0.074424775  -0.14920376 -0.0013548321    2.3609477    2.3636719    193.78985   -13015.001   -7625.1029 
   16350       0.1635    382.63058    2.2940821   0.06315873 -0.026724197  -0.00135436    2.2927198    2.2954444    197.78608    -13019.47   -7768.3888 
   16400        0.164    380.30727    2.1500847    0.0121782  0.041511768 -0.0013556379    2.1487217    2.1514477    196.58513   -13018.697   -7345.9156 
   16450       0.1645    378.87379    2.0035787 -0.052340343  0.092383079 -0.0013570487    2.0022136    2.0049438    195.84415   -13018.358   -6812.0716 
   16500        0.165    383.34234    1.8617953  -0.10359716   0.09925781 -0.0013579126      1.86043    1.8631605      198.154   -13021.126   -6191.5197 
   16550       0.1655    386.85065     1.803676  0.035131414 -0.0061033968 -0.0013586639     1.802305    1.8050469    199.96748   -13023.506   -6109.0134 
   16600        0.166    387.79546    1.7171409 -0.041273482 -0.051024979 -0.0013594654    1.7157618    1.7185199    200.45586   -13024.545   -5416.1414 
   16650       0.1665    386.74329    1.7093358  0.076839358 -0.042310129 -0.0013593589     1.707962    1.7107096    199.91199   -13024.593   -5812.8835 
   16700        0.167    388.86679    1.6343085  0.049165309  0.022115554 -0.0013597156    1.6329368    1.6356801    201.00965   -13026.333   -5685.2979 
   16750       0.1675    386.10678    1.5964394 -0.039171896 -0.0060042019 -0.0013610259    1.5950654    1.5978134    199.58296    -13025.55   -5170.8777 
   16800        0.168    394.07978    1.5770454 -0.012819212 -0.010615069 -0.0013608598      1.57567    1.5784207     203.7043   -13030.307   -5178.7038 
   16850       0.1685    392.40986    1.5734607 -0.0060250071 -0.0081855909 -0.0013610865    1.5720852    1.5748361     202.8411   -13030.121   -5197.5003 
   16900        0.169    391.79696     1.579787   0.10645107 -0.044236454 -0.001360334    1.5784245    1.5811494    202.52428   -13030.495   -5473.3387 
   16950       0.1695    387.58396    1.5544042  0.047897714  0.025430158 -0.0013610301    1.5530347    1.5557737    200.34653   -13029.029   -5425.7737 
   17000         0.17    391.69935    1.5421989 -0.055575788 -0.019208832 -0.0013619113    1.5408326    1.5435652    202.47383   -13031.852   -4891.3811 
   17050       0.1705    386.92695    1.4884058 -0.041700297 -0.024794695 -0.0013619542    1.4870337    1.4897779    200.00692    -13030.04   -4739.7027 
   17100        0.171    383.67815    1.4558597 -0.0077109956  0.077863311 -0.0013613032    1.4544933    1.4572261    198.32758   -13029.031   -5086.7069 
   17150       0.1715    393.88257    1.4755461  0.045144501  0.063335249 -0.0013608317     1.474173    1.4769191    203.60236   -13035.035   -5280.0861 
   17200        0.172    384.79627    1.4208353 -0.050745809 -0.055164584 -0.001362798    1.4194664    1.4222041    198.90555   -13031.048    -4383.083 
   17250       0.1725    390.80312     1.439334  -0.05529157  -0.05350203 -0.0013624276    1.4379601    1.4407077    202.01056   -13034.845   -4435.1346 
   17300        0.173    389.74777    1.4413677  0.051808789  0.059416454 -0.0013611503    1.4399958    1.4427394    201.46504    -13035.02   -5175.3097 
   17350       0.1735    391.54363     1.494419  0.088326024  0.067063251 -0.0013601565    1.4930525    1.4957854    202.39333   -13036.663   -5499.3609 
   17400        0.174    394.93153     1.386677 -0.016852696 0.0069006943 -0.0013621272     1.385303    1.3880508    204.14458   -13039.169   -4589.0832 
   17450       0.1745    391.52248    1.3847862  -0.11758415 -0.042135774 -0.0013635479    1.3834194    1.3861529     202.3824   -13038.116   -4083.5544 
   17500        0.175    395.53172    1.3710729 0.0035905558  0.052627406 -0.0013619157    1.3697066     1.372439    204.45482   -13040.939   -4757.6361 
   17550       0.1755     388.7407    1.3046167  0.083098486  0.040742715 -0.0013620684    1.3032426    1.3059907    200.94447   -13038.174   -4761.5265 
   17600        0.176    387.61423    1.3451975  0.040277587 0.0093846206 -0.0013624898    1.3438215    1.3465734    200.36218   -13038.354   -4649.5324 
   17650       0.1765    389.33577    1.1987386 -0.075971553  -0.10111027 -0.001364117    1.1973691     1.200108    201.25206   -13039.979   -3405.5227 
   17700        0.177     390.6426    1.2161529 -0.060889173  0.011740789 -0.0013632427    1.2147855    1.2175202    201.92758   -13041.421    -3890.015 
   17750       0.1775    389.95107    1.3590803   0.02600683  0.076207038 -0.0013615976     1.357706    1.3604545    201.57012   -13041.822   -4870.9806 
   17800        0.178    388.20934    1.3330116  0.097678474  0.073942531 -0.0013618018    1.3316481    1.3343749     200.6698   -13041.658   -5015.4419 
   17850       0.1785    392.63185    1.2284649   0.10442231 -0.088139339 -0.0013630817       1.2271    1.2298296    202.95585    -13044.74   -4149.1596 
   17900        0.179    388.21643    1.1191871 -0.040326125  -0.13051576 -0.0013659908    1.1178131     1.120561    200.67347   -13043.215   -3161.1508 
   17950       0.1795    389.86731     1.185017 -0.043973976 -0.038446781 -0.0013648612    1.1836463    1.1863876    201.52683    -13044.86    -3675.321 
   18000         0.18    388.75928      1.24759  0.032638885 -0.0054759418 -0.0013630532    1.2462104    1.2489695    200.95407   -13045.059   -4249.1765 
   18050       0.1805     388.4357    1.3285145  0.073279698  0.078766804 -0.0013616645    1.3271391    1.3298897    200.78681   -13045.649   -4935.2034 
   18100        0.181    386.57142    1.2380388  0.062495771   0.10221958 -0.0013633041    1.2366594    1.2394179    199.82314   -13045.462   -4675.8471 
   18150       0.1815     397.9622    1.1262931 -0.059847116  0.016965504 -0.0013655329    1.1249222    1.1276638    205.71116   -13052.142   -3611.3715 
   18200        0.182    386.70589    1.0471937  -0.13752513  -0.12353221 -0.0013681142    1.0458109    1.0485763    199.89265   -13047.077   -2620.4546 
   18250       0.1825     394.8271    1.1209112 -0.032620483   0.01448023 -0.0013657518    1.1195454    1.1222768     204.0906   -13052.093   -3675.9033 
   18300        0.183    387.78504    1.1964364  0.048006077   0.07188904 -0.0013638753    1.1950547    1.1978178    200.45047   -13049.239   -4387.7716 
   18350       0.1835    387.08206    1.2137367 -0.0015931206   0.11469475 -0.0013634041     1.212372    1.2151012     200.0871   -13049.668   -4422.7945 
   18400        0.184    391.30638    1.1735967 -0.013364151 -0.0038303574 -0.0013643148    1.1722284    1.1749647     202.2707   -13052.678   -3854.6739 
   18450       0.1845    389.32619    1.1271053 -0.035330389  -0.11533933 -0.0013658502    1.1257278    1.1284827    201.24712   -13052.403   -3254.7854 
   18500        0.185    382.04815    1.1364021  0.019662652 -0.078028957 -0.0013649573    1.1350289    1.1377751    197.48501   -13049.423   -3593.4527 
   18550       0.1855    390.87765    1.2327455  0.072181376  0.086389418 -0.0013626688    1.2313703    1.2341205    202.04908   -13054.743    -4637.721 
   18600        0.186    396.17832    1.2647788  0.058698707   0.06252672 -0.001362265    1.2633995    1.2661578    204.78906   -13058.285    -4620.014 
   18650       0.1865     384.4525    1.2280297   -0.1118591 -0.023570913 -0.0013646021    1.2266568    1.2294024    198.72785   -13052.988   -3641.9989 
   18700        0.187    388.49368    1.2284784 -0.079066864 -0.040343693 -0.0013643446     1.227108    1.2298486    200.81678   -13055.839   -3696.8928 
   18750       0.1875    389.18303    1.3209374 -0.010680474  0.066132952 -0.0013620702    1.3195662    1.3223084    201.17312   -13056.965   -4587.9664 
   18800        0.188     386.1058     1.332081   0.11712684  0.083051891 -0.0013613996    1.3307137    1.3334481    199.58246   -13056.117   -5107.5325 
   18850       0.1885      384.702    1.2476339 -0.0073354529 0.0034565014 -0.0013632082    1.2462698    1.2489978    198.85682    -13056.15   -4145.8499 
   18900        0.189    384.66373    1.1687925 -0.092357828 -0.048979653 -0.0013648145    1.1674114    1.1701735    198.83704   -13056.857   -3424.8502 
   18950       0.1895    395.51192    1.2350812  0.027767175 -0.020614289 -0.001363516    1.2337068    1.2364554    204.44459   -13063.229   -4140.7803 
   19000         0.19    378.98918    1.1501441  0.012166513 -0.025531479 -0.0013639165    1.1487739     1.151514     195.9038   -13055.442   -3789.2638 
   19050       0.1905    387.61941    1.1367401   0.12777482 0.0064263401 -0.0013635934    1.1353713    1.1381087    200.36486   -13060.647   -4236.4709 
   19100        0.191    385.70198    1.1159255 -0.037046316  0.023357423 -0.001364879    1.1145546    1.1172962    199.37372   -13060.427   -3674.1221 
   19150       0.1915    386.53321    1.0857961 -0.016195891 -0.019901586 -0.0013648809    1.0844153    1.0871766    199.80339   -13061.579   -3498.9954 
   19200        0.192     385.5587     1.090416 -0.0014207943  -0.00961978 -0.0013651769    1.0890341    1.0917977    199.29966   -13061.828   -3597.9182 
   19250       0.1925      381.164    1.1555136 -0.035659554  0.019390482 -0.0013647691    1.1541515    1.1568753    197.02799   -13060.286   -3797.4817 
   19300        0.193    389.03181     1.194345  0.030486506   0.10550442 -0.0013638385    1.1929712    1.1957184    201.09495   -13065.093    -4434.453 
   19350       0.1935    377.66378    1.1810355 -0.036496313 -0.023293605 -0.0013654084    1.1796689    1.1824018    195.21868    -13059.96   -3737.4853 
   19400        0.194    384.98533    1.1240802  0.031507733 -0.054207063 -0.0013655411    1.1226936    1.1254665    199.00328   -13064.441   -3671.2697 
   19450       0.1945    381.38593    1.0808835  0.030384572 -0.038904163 -0.0013659559    1.0795042    1.0822625    197.14271   -13063.304   -3574.5463 
   19500        0.195    380.89279    1.0675193 0.0024422387  0.034502455 -0.0013655165    1.0661533     1.068885     196.8878   -13063.772   -3681.5467 
   19550       0.1955    380.04329    1.0948515 -0.00095820485 0.0065305545 -0.001365463    1.0934976     1.096205    196.44868   -13064.041   -3668.0793 
   19600        0.196    384.71164    1.1750214  0.016750462  0.064105404 -0.0013643921    1.1736418    1.1764007     198.8618   -13067.148   -4186.2577 
   19650       0.1965    369.22355     1.016534 -0.095062777 0.0077902741 -0.0013659334    1.0151576    1.0179101    190.85583   -13059.869   -3097.5383 
   19700        0.197    375.65019    1.0280438 -0.014181062 0.0037700741 -0.0013660485    1.0266837    1.0294035    194.17784   -13063.927   -3392.1092 
   19750       0.1975    381.40547    1.0404183  0.023180125 -0.016286545 -0.0013654885    1.0390402    1.0417961     197.1528   -13067.595   -3491.0397 
   19800        0.198    380.55633    1.0235517  0.060801435 0.0086847831 -0.0013649638    1.0221758    1.0249271    196.71388   -13067.864   -3643.4596 
   19850       0.1985     380.7584   0.99162643   0.10413245  0.023323468 -0.0013656625   0.99025988   0.99299261    196.81833    -13068.69   -3730.2745 
   19900        0.199    377.58425   0.92544335 -0.0082770011 -0.079140986 -0.001367587   0.92406866   0.92681766    195.17757    -13067.76   -2793.4179 
   19950       0.1995    376.80436   0.93285653 -0.055522463 -0.054477259 -0.0013678279   0.93146514   0.93424754    194.77444   -13068.075    -2742.856 
   20000          0.2    377.76767    1.0265785 -0.024532225  0.034028566 -0.0013656661    1.0251911    1.0279654    195.27238   -13069.274   -3453.5827 
Loop time of 1466.34 on 4 procs for 20000 steps with 4000 atoms

Pair  time (%) = 1208.84 (82.4394)
Neigh time (%) = 0.509598 (0.0347531)
Comm  time (%) = 113.507 (7.74083)
Outpt time (%) = 0.189968 (0.0129552)
Other time (%) = 143.292 (9.77209)

Nlocal:    1000 ave 1005 max 995 min
Histogram: 1 0 0 1 0 0 0 1 0 1
Nghost:    3742.5 ave 3761 max 3726 min
Histogram: 1 0 1 0 0 0 1 0 0 1
Neighs:    68798.5 ave 70658 max 66857 min
Histogram: 2 0 0 0 0 0 0 0 0 2
FullNghs:  0 ave 0 max 0 min
Histogram: 4 0 0 0 0 0 0 0 0 0

Total # of neighbors = 275194
Ave neighs/atom = 68.7985
Neighbor list builds = 82
Dangerous builds = 0

######################################
# SIMULATION DONE
print "All done"
All done
