LAMMPS (28 Jun 2014)
# Input file for uniaxial tensile loading of single crystal aluminum
# Mark Tschopp, November 2010

# ------------------------ INITIALIZATION ----------------------------
units 		metal
dimension	3
boundary	p	p	p
atom_style	atomic
variable latparam equal 4.05

# ----------------------- ATOM DEFINITION ----------------------------
lattice		fcc ${latparam}
lattice		fcc 4.05
Lattice spacing in x,y,z = 4.05 4.05 4.05
region		whole block 0 10 0 10 0 10
create_box	1 whole
Created orthogonal box = (0 0 0) to (40.5 40.5 40.5)
  1 by 2 by 2 MPI processor grid
lattice 	fcc ${latparam} orient x 1 0 0 orient y 0 1 0 orient z 0 0 1
lattice 	fcc 4.05 orient x 1 0 0 orient y 0 1 0 orient z 0 0 1
Lattice spacing in x,y,z = 4.05 4.05 4.05
create_atoms	1 region whole
Created 4000 atoms

# ------------------------ FORCE FIELDS ------------------------------
pair_style	eam/alloy
pair_coeff	* * Al99.ZeroFRho.PosRhoR.PosPhiR.eam.alloy Al

# ------------------------- SETTINGS ---------------------------------
compute csym all centro/atom fcc
compute peratom all pe/atom

######################################
# EQUILIBRATION
reset_timestep	0
timestep 0.001
velocity all create 300 12345 mom yes rot no
fix 1 all npt temp 300 300 1 iso 0 0 1 drag 1

# Set thermo output
thermo 1000
thermo_style custom step lx ly lz press pxx pyy pzz pe temp

# Run for at least 10 picosecond (assuming 1 fs timestep)
run 20000
Memory usage per processor = 3.04301 Mbytes
Step Lx Ly Lz Press Pxx Pyy Pzz PotEng Temp 
       0         40.5         40.5         40.5    2837.5613    2788.4282    2876.0922    2848.1636   -13430.095          300 
    1000    40.563081    40.563081    40.563081    874.99132    863.38794    847.44783    914.13819   -13351.258    165.19314 
    2000    40.577099    40.577099    40.577099    267.00792    205.51731    291.71635    303.79009   -13346.489    178.57793 
    3000    40.585957    40.585957    40.585957     108.6844    23.066166    207.06301     95.92403   -13340.127    189.27474 
    4000    40.593732    40.593732    40.593732    57.111101    16.412315    26.643395    128.27759    -13330.74    194.11561 
    5000    40.598556    40.598556    40.598556    191.29692    258.38217    250.56809    64.940477   -13324.425    204.65226 
    6000    40.605686    40.605686    40.605686     91.37972    132.52674    -24.74461    166.35703   -13317.522    213.55015 
    7000    40.613121    40.613121    40.613121   -3.5813673    19.504304    67.770517   -98.018923    -13312.02    224.41298 
    8000    40.617274    40.617274    40.617274    139.41457     150.7968    205.66641    61.780509   -13306.863    234.93099 
    9000    40.623741    40.623741    40.623741    11.605449    -112.6608    116.35921    31.117935   -13305.383    251.37455 
   10000    40.631407    40.631407    40.631407   -10.899325   -50.400278     135.7272    -118.0249   -13296.269    251.63036 
   11000    40.634742    40.634742    40.634742   -37.449646   -83.270092   -31.194778    2.1159337   -13294.332    264.21332 
   12000    40.638518    40.638518    40.638518   -61.989202   -8.0612489   -107.92075   -69.985611   -13291.272    272.95314 
   13000    40.645573    40.645573    40.645573   -180.83533   -288.87628   -121.18178   -132.44794   -13287.298    278.16163 
   14000    40.646389    40.646389    40.646389   -57.020211   -40.074849   -81.659666   -49.326118   -13283.078    281.13783 
   15000    40.647018    40.647018    40.647018    99.756439    14.671387    170.52162    114.07631   -13279.994    284.58824 
   16000    40.647123    40.647123    40.647123      301.441    481.37837    195.08909    227.85553   -13278.783     289.9565 
   17000     40.65037     40.65037     40.65037    185.57649      217.205    207.33737    132.18709    -13276.96     292.5574 
   18000    40.652732    40.652732    40.652732    133.06826    104.51239    219.38075    75.311633   -13276.753    296.77213 
   19000    40.651622    40.651622    40.651622    161.37446     247.2751    242.85594   -6.0076709    -13278.32    303.03926 
   20000    40.653245    40.653245    40.653245    330.93258    438.51575    320.60484    233.67715   -13272.255    293.23152 
Loop time of 352.573 on 4 procs for 20000 steps with 4000 atoms

Pair  time (%) = 256.189 (72.6627)
Neigh time (%) = 0 (0)
Comm  time (%) = 69.4521 (19.6986)
Outpt time (%) = 0.00305152 (0.0008655)
Other time (%) = 26.9288 (7.6378)

Nlocal:    1000 ave 1000 max 1000 min
Histogram: 4 0 0 0 0 0 0 0 0 0
Nghost:    4235 ave 4235 max 4235 min
Histogram: 4 0 0 0 0 0 0 0 0 0
Neighs:    70000 ave 72653 max 67302 min
Histogram: 1 0 1 0 0 0 0 1 0 1
FullNghs:  0 ave 0 max 0 min
Histogram: 4 0 0 0 0 0 0 0 0 0

Total # of neighbors = 280000
Ave neighs/atom = 70
Neighbor list builds = 0
Dangerous builds = 0
unfix 1

# Store final cell length for strain calculations
variable tmp equal "lx"
variable L0 equal ${tmp}
variable L0 equal 40.6532451883257
print "Initial Length, L0: ${L0}"
Initial Length, L0: 40.6532451883257

######################################
# DEFORMATION
reset_timestep	0

fix		1 all npt temp 300 300 1 y 0 0 1 z 0 0 1 drag 1
variable srate equal 1.0e10
variable srate1 equal "v_srate / 1.0e12"
fix		2 all deform 1 x erate ${srate1} units box remap x
fix		2 all deform 1 x erate 0.01 units box remap x

# Output strain and stress info to file
# for units metal, pressure is in [bars] = 100 [kPa] = 1/10000 [GPa]
# p2, p3, p4 are in GPa
variable strain equal "(lx - v_L0)/v_L0"
variable p1 equal "v_strain"
variable p2 equal "-pxx/10000"
variable p3 equal "-pyy/10000"
variable p4 equal "-pzz/10000"
fix def1 all print 20 "${p1} ${p2} ${p3} ${p4}" file  Al99.ZeroFRho.PosRhoR.PosPhiR.eam.alloy.def1.txt screen no

# Use cfg for AtomEye
#dump 		1 all cfg 250 dump.tensile_*.cfg id type xs ys zs c_csym c_peratom fx fy fz
#dump_modify 1 element Al

# Display thermo
thermo 	1000
thermo_style	custom step v_strain temp v_p2 v_p3 v_p4 ke pe press

run		20000
Memory usage per processor = 3.04301 Mbytes
Step strain Temp p2 p3 p4 KinEng PotEng Press 
       0 5.2434392e-16    293.23152 -0.043851575 -0.032060484 -0.023367715    151.57469   -13272.255    330.93258 
    1000         0.01    298.49922   0.63822755 -0.010736142  0.029805694    154.29763   -13272.455   -2190.9903 
    2000         0.02    298.53561    1.2623835 -0.023731727 -0.010589582    154.31644   -13267.115   -4093.5407 
    3000         0.03    300.73149    1.9128379  -0.02746974 0.0025416128    155.45151   -13260.184   -6293.0325 
    4000         0.04    301.93756    2.5428674  0.014135052  0.033239423    156.07494   -13250.011   -8634.1395 
    5000         0.05     300.2432    3.1291528  0.011775035  0.063798756    155.19911   -13235.837   -10682.422 
    6000         0.06    293.28728    3.6813958 -0.023398224 0.0043868499    151.60351   -13216.517   -12207.948 
    7000         0.07     300.1511    4.3045917  0.012625845  0.048189526     155.1515   -13201.937   -14551.357 
    8000         0.08    296.78602    4.8036079 -0.001929628 -0.044433153    153.41206   -13179.768   -15857.484 
    9000         0.09    301.20138    5.4199366  0.067763784  0.075109143     155.6944   -13159.453   -18542.698 
   10000          0.1    296.89288    5.8918251 -0.0031415705 -0.081407248    153.46729    -13132.34   -19357.588 
   11000         0.11    296.21565     6.414538 -0.0030458134  0.022410225    153.11722   -13104.865   -21446.341 
   12000         0.12    294.54683    6.9654153  0.028255164  0.019543691    152.25459   -13074.712    -23377.38 
   13000         0.13    296.41797    7.4475821  0.047622899  0.037836766     153.2218    -13044.33   -25110.139 
   14000         0.14    289.43686    7.7406656 -0.012683277 -0.082610174    149.61319   -13007.489   -25484.574 
   15000         0.15    295.30778    7.5363751 -0.0015842892   0.00853356    152.64794   -12976.046   -25144.414 
   16000         0.16    415.08979    2.3792469   0.12276428  0.022066761    214.56461   -13030.819    -8413.593 
   17000         0.17    417.63696    1.8694459   -0.0369886  -0.13302614    215.88127   -13048.143   -5664.7705 
   18000         0.18    419.52346    1.7683425 -0.020055261  -0.10379142    216.85643   -13068.826   -5481.6526 
   19000         0.19    398.33474    2.0624354 -0.076565279 -0.028457426    205.90374    -13074.97   -6524.7089 
   20000          0.2    382.30525    2.3742274 -0.093178321 -0.060981334    197.61791   -13079.083   -7400.2259 
Loop time of 397.516 on 4 procs for 20000 steps with 4000 atoms

Pair  time (%) = 301.451 (75.8335)
Neigh time (%) = 0.522956 (0.131556)
Comm  time (%) = 68.8997 (17.3325)
Outpt time (%) = 0.00290203 (0.000730041)
Other time (%) = 26.6401 (6.70163)

Nlocal:    1000 ave 1020 max 983 min
Histogram: 1 0 0 1 1 0 0 0 0 1
Nghost:    3706.5 ave 3734 max 3696 min
Histogram: 2 1 0 0 0 0 0 0 0 1
Neighs:    68883.5 ave 71388 max 65660 min
Histogram: 1 0 0 1 0 0 0 0 1 1
FullNghs:  0 ave 0 max 0 min
Histogram: 4 0 0 0 0 0 0 0 0 0

Total # of neighbors = 275534
Ave neighs/atom = 68.8835
Neighbor list builds = 85
Dangerous builds = 0

######################################
# SIMULATION DONE
print "All done"
All done
