
# ----------------------- ATOM DEFINITION ----------------------------
lattice		fcc ${latparam}
lattice		fcc 4.05
Lattice spacing in x,y,z = 4.05 4.05 4.05
region		whole block 0 16 0 16 0 16
create_box	1 whole
Created orthogonal box = (0 0 0) to (64.8 64.8 64.8)
  2 by 1 by 2 MPI processor grid
lattice 	fcc ${latparam} orient x 1 0 0 orient y 0 1 0 orient z 0 0 1
lattice 	fcc 4.05 orient x 1 0 0 orient y 0 1 0 orient z 0 0 1
Lattice spacing in x,y,z = 4.05 4.05 4.05
create_atoms	1 region whole
Created 16384 atoms

# ------------------------ FORCE FIELDS ------------------------------

#****************USE THIS TO TEST******************
pair_style	eam/rad
pair_coeff 			* * Al99.PC0.05.eam.alloy.rad.txt Al # pc = 0.5

# ------------------------- SETTINGS ---------------------------------
compute csym all centro/atom fcc
compute peratom all pe/atom

######################################
# EQUILIBRATION
reset_timestep	0
timestep	0.001 # default
# timestep	0.0001 # tiny time step
velocity all create 300 12345 mom yes rot no
fix 1 all npt temp 300 300 1 iso 0 0 1 drag 1

# Set thermo output
thermo 50
# thermo 1 # debug mode

# thermo_style custom step lx ly lz press pxx pyy pzz pe temp
# IMPLEMENTATION HERE

# VERSION add rad variables .v1 .v2
# thermo_style custom step lx ly lz press pxx pyy pzz pxxrad pyyrad pzzrad pe temp

# VERSION ublb separation .v3
thermo_style custom step lx ly lz press pxx pxxub pxxlb pyy pyyub pyylb pzz pzzub pzzlb pe temp

# Run for at least 10 picosecond (assuming 1 fs timestep)
run 	20000 # default
Memory usage per processor = 8.25631 Mbytes
Step Lx Ly Lz Press Pxx Pxxub Pxxlb Pyy Pyyub Pyylb Pzz Pzzub Pzzlb PotEng Temp 
       0         64.8         64.8         64.8    2496.5946    2464.3333    245.71825   -240.26454    2508.7809    245.71825   -240.26454    2516.6696    245.71825   -240.26454    -55050.24          300 
      50    64.896706    64.896706    64.896706    860.56085    949.43103    1212.2634    727.08069    822.00845      1084.18    598.88153    810.24307     1073.289    588.05559   -54640.386    105.49614 
     100    65.005446    65.005446    65.005446   -4102.3745   -4104.9237   -3855.6929   -4333.7808   -4081.9907   -3832.6477    -4310.739   -4120.2091   -3871.1159   -4349.2329   -54773.083    169.34737 
     150    64.907088    64.907088    64.907088    484.52969    515.48616    764.30455    280.76245    475.96207    725.16598    241.61776    462.14084    710.84097    227.28672   -54678.107    124.56271 
     200    64.845387    64.845387    64.845387    2508.6157    2493.3738    2737.5247    2250.7514    2511.6845    2754.8116    2267.9658    2520.7889    2764.1713    2277.3351    -54706.98    139.20862 
     250    64.904149    64.904149    64.904149    143.81178    132.07413    370.22716   -113.25162     152.0707     390.6862   -92.780632    147.29051    385.70951   -97.784037   -54721.637    146.57251 
     300    64.948544    64.948544    64.948544   -1470.5569   -1474.6314     -1236.67    -1717.944   -1497.5382   -1258.8972   -1740.1746   -1439.5011   -1201.5393   -1682.8152   -54728.049    150.34907 
     350     64.91112     64.91112     64.91112   -321.25184   -276.42273   -34.892953    -517.8891   -390.59413   -149.08365   -632.12984   -296.73867   -54.759519   -537.78261   -54749.819    161.18582 
     400    64.873529    64.873529    64.873529    1344.5041    1342.6916    1587.1259    1101.8551    1345.7421    1590.7508    1105.5079    1345.0785    1590.2576    1104.9959   -54725.472    150.50327 
     450    64.906123    64.906123    64.906123    16.057935    71.326045    313.98525   -169.45069   -37.018105    205.72124   -277.69724    13.865866    256.44872   -226.97289   -54729.524    153.12426 
     500    64.934384    64.934384    64.934384   -907.51804   -913.42979   -671.73239   -1153.7221   -917.21901   -675.75789   -1157.7827    -891.9053   -650.36853   -1132.4081   -54721.881    150.36869 
     550    64.911149    64.911149    64.911149   -86.223732   -88.312004    153.57237   -329.66581   -89.943239    151.51397   -331.71919   -80.415955    161.19753   -322.05988   -54724.417    152.32973 
     600    64.886962    64.886962    64.886962    810.71522     843.2597    1084.5515    600.07779    770.41775    1011.4951    527.01777    818.46822    1060.5489    576.08008   -54730.919    156.25829 
     650    64.907203    64.907203    64.907203    103.12322    103.37156    345.71629   -137.73485    68.331601    311.29013   -172.15901     137.6665    380.12291   -103.33901   -54725.549    154.50552 
     700    64.929217    64.929217    64.929217   -784.55457   -743.52423   -501.59269   -983.81596   -805.31015   -564.83057   -1047.0517   -804.82932   -563.41682   -1045.6409   -54727.129    156.12146 
     750    64.911263    64.911263    64.911263   -2.2768646   -7.1166668    234.26696   -248.94674   -15.754097    226.67006   -256.61598     16.04017    258.54374   -224.71367   -54723.502     155.2258 
     800    64.894977    64.894977    64.894977    531.27954    541.11308    784.20202     300.1427     531.8221    775.62852    291.57848    520.90344    763.43645    279.35673   -54725.978    157.25865 
     850    64.908699    64.908699    64.908699    83.269989      91.5132    333.61943   -149.73376    36.159085       278.32    -205.0749    122.13768     364.1804   -119.21237   -54722.084    156.26393 
     900    64.924682    64.924682    64.924682   -516.92399   -521.23577   -278.81928   -761.32208    -522.1347   -279.85728   -762.33299    -507.4015   -264.84296   -747.40815   -54722.401    157.28073 
     950     64.91247     64.91247     64.91247   -69.108026   -75.357132    166.46194   -316.69937   -84.236667    157.55661   -325.62449   -47.730278    193.77837   -289.36318   -54721.937    157.91846 
    1000    64.898857    64.898857    64.898857    498.02335    483.40561    726.07753    242.04911    470.08925    712.34036      228.283     540.5752    783.09614    299.03269   -54715.614     155.8034 
    1050    64.911235    64.911235    64.911235    44.683247    10.903167     253.2337   -230.12366    71.727963    313.55051   -169.80464     51.41861    293.68403   -189.66832   -54716.754    157.19439 
    1100    64.923817    64.923817    64.923817   -457.38643   -471.82814   -230.60047   -713.17802    -478.0245   -236.30907   -718.93313   -422.30664   -180.92563   -663.48999   -54718.458    158.88081 
    1150    64.913242    64.913242    64.913242   -30.297346   -28.257071    213.12704   -269.99786   -22.678698    219.49217   -263.63935   -39.956268    201.95451   -281.18591   -54724.952    162.81681 
    1200    64.902829    64.902829    64.902829    387.28708    353.72187    597.36455    113.50037    364.68411    607.52323    123.58697    443.45527    686.37767    202.44074   -54708.669    156.00176 
    1250    64.913092    64.913092    64.913092   -37.782504   -17.813692    224.67166   -258.47837   -58.408683      184.478   -298.60585   -37.125138    206.00392   -277.16889   -54721.076    162.73117 
    1300    64.921588    64.921588    64.921588   -247.18429      -274.59   -33.039762   -515.89008   -240.31197    1.5753527   -481.30038    -226.6509    15.115527    -467.7047   -54710.747    158.74756 
    1350    64.914794    64.914794    64.914794   -50.058944   -57.335922    185.44478   -297.73821   -25.937033    215.77893   -267.43307   -66.903877    174.98178   -308.17718    -54710.14    159.32923 
    1400     64.90718     64.90718     64.90718    308.15164      299.236    540.80278    57.289102    313.08477    554.81397    71.301665    312.13416     553.8493     70.34758   -54716.037    163.00318 
    1450    64.915457    64.915457    64.915457   -68.182331   -45.461183    197.14212   -286.05544   -110.28569    131.97499   -351.23829   -48.800117    193.97045   -289.19256   -54708.153    160.15139 
    1500    64.921221    64.921221    64.921221   -222.12004    -260.1734    -18.15673   -500.85353   -175.01713    67.270236   -415.44919   -231.16961    11.250279   -471.51428   -54717.857    165.62684 
    1550    64.914891    64.914891    64.914891    84.508989    68.509585    310.49965   -172.74793    76.045396     318.4725   -164.82296    108.97199    350.80879   -132.50731   -54698.634     157.4345 
    1600    64.911514    64.911514    64.911514    179.10262    171.04647    412.61291   -70.697633    199.75421     441.2182   -42.152707    166.50719    408.42523    -74.92374   -54711.252    164.27838 
    1650    64.917196    64.917196    64.917196   -69.216668   -77.641356    163.96554   -319.16542   -28.794477    213.01364   -270.14144   -101.21417    139.90093    -343.2327   -54705.888    162.63245 
    1700      64.9199      64.9199      64.9199   -124.95287   -91.733041    150.66322   -332.23862   -131.46383    110.25125   -372.68064   -151.66172    90.536527   -392.42859   -54709.851    165.38762 
    1750    64.916324    64.916324    64.916324    17.906812     26.35357    268.42297    -214.7865    29.180508    271.50123   -211.60672   -1.8136411    240.46359   -242.67874   -54706.639    164.76164 
    1800    64.914963    64.914963    64.914963    132.33831    129.12402    372.76951   -110.39457    111.60445    354.70083   -128.48171    156.28646    398.97155   -84.222809   -54703.754    164.28487 
    1850    64.918757    64.918757    64.918757   -47.026286   -41.061169     200.2303   -282.75606   -45.325242    195.96993   -287.00952   -54.692448    186.54297   -296.48884   -54705.487    166.00606 
    1900    64.920556    64.920556    64.920556   -67.644229   -68.175359    175.07703   -307.94845    -74.49325    167.61554   -315.46296   -60.264079     183.0581   -299.93546   -54699.368    163.99471 
    1950    64.918703    64.918703    64.918703    4.4279539    43.163473    285.33537    -197.7186   -7.4447635    234.07502   -248.98013   -22.434848    219.86462   -263.26426   -54700.238    165.30024 
    2000    64.916844    64.916844    64.916844    84.515369    101.57458    343.19627   -140.01887    76.675086    318.75523   -164.41803    75.296442    316.71727   -166.48548   -54699.354    165.77466 
    2050     64.91964     64.91964     64.91964   -25.377169   -30.069028    211.90821   -271.01567   -39.312397    203.12684   -279.83224   -6.7500835    235.67167   -247.27711   -54705.018     169.3409 
    2100     64.92101     64.92101     64.92101   -69.637287   -51.749208    189.77745   -293.12046   -108.58252    133.78645   -349.17391   -48.580138    193.06042   -289.87231   -54699.952     167.8488 
    2150    64.919935    64.919935    64.919935     64.77002    111.25353    353.30964   -129.77896    46.591022    289.12295   -193.99191    36.465504    278.09218   -205.00922   -54693.209    165.55076 
    2200    64.921444    64.921444    64.921444   -31.293365    28.953798    271.49571   -211.48536   -79.532145    162.48802   -320.45623   -43.301748    199.56738     -283.415   -54699.988    169.64218 
    2250    64.921431    64.921431    64.921431   -56.153186   -30.621665    211.61698   -271.26684   -81.837503    161.19315   -321.73329   -56.000389    186.43587   -296.45382   -54695.552    168.44636 
    2300    64.919484    64.919484    64.919484    102.20585    114.06956    355.24217   -127.71895    106.55792    348.01178   -135.04721    85.990079     327.4327   -155.58594   -54696.873    169.97344 
    2350    64.921889    64.921889    64.921889    5.3667074    66.901676     310.1479   -172.83979   -51.399408    191.18904   -291.80806   0.59785414    243.57658   -239.43578   -54689.676    167.45768 
    2400    64.923937    64.923937    64.923937     -70.8674   -69.099774    171.91097   -310.90043   -72.435113    168.68048   -314.09864   -71.067315      170.803    -311.9546   -54693.907    170.36189 
    2450    64.921683    64.921683    64.921683    38.795441    88.603291    331.11569   -151.86805    -27.56332    214.62291   -268.36631    55.346352    296.41122   -186.58037   -54691.559    170.14627 
    2500    64.921244    64.921244    64.921244    34.281772    17.649698     259.2879   -223.73404    28.512509    269.35267   -213.66741    56.683109    298.75423   -184.26281   -54690.512    170.54889 
    2550    64.923382    64.923382    64.923382   -23.045063    10.201656    252.33031   -230.53278   -27.908162    214.90548   -267.98924   -51.428684    190.33272   -292.49285   -54695.462     173.7817 
    2600    64.925251    64.925251    64.925251   -48.308893   -27.356417    214.85709   -267.97076   -59.004134    182.97053   -299.89225   -58.566128    185.52771   -297.31616   -54684.581    169.53976 
    2650    64.923828    64.923828    64.923828    10.772066    50.569126    292.40683   -190.45216    45.072755     285.8431    -197.0327   -63.325684    177.39979   -305.46557   -54689.739     172.8804 
    2700    64.922631    64.922631    64.922631    41.503128    77.608484    319.62582   -163.46954    6.0269148    247.92834   -235.13726    40.873986     283.3828   -199.66448   -54685.948    171.98139 
    2750    64.924507    64.924507    64.924507    13.926302    66.564428    308.33995   -174.58511   -22.106717    220.05516   -262.88594   -2.6788067    240.26862   -242.69592   -54685.371    172.60524 
    2800    64.926105    64.926105    64.926105   -66.900793   -34.640355    207.40285   -275.25962   -42.237189    199.67537   -283.05808   -123.82483    116.85651   -365.88259   -54688.938    175.19563 
    2850    64.925298    64.925298    64.925298     23.63414     30.31689    271.92335   -210.94137    21.432216    263.95459   -218.97883    19.153315    260.24655   -222.56835   -54683.681    173.61182 
    2900    64.925171    64.925171    64.925171   -9.5255578    28.788704    270.50148   -212.36656    12.687064    255.20895    -227.6386   -70.052441    171.94242   -310.93409   -54687.397     176.2641 
    2950    64.925703    64.925703    64.925703    27.226991    123.72234    366.63881   -116.23796    1.9493504    243.80045   -239.08095   -43.990714    198.33653   -284.63996   -54679.695    173.52513 
    3000    64.927642    64.927642    64.927642   -36.160513   -28.962985    211.99213   -270.74037   -26.459715    215.41037   -267.32607    -53.05884    189.11261   -293.65817   -54680.506    174.80889 
    3050    64.927529    64.927529    64.927529   -19.919289    6.7113271     249.0363   -233.60287   -25.882011    215.00105   -267.72603   -40.587182    201.44203   -281.27043   -54684.291    177.49718 
    3100    64.926679    64.926679    64.926679     26.36626     10.20864    252.66911   -230.09334    56.829536    298.86715   -183.94448    12.060605       254.72    -228.0728   -54680.729    176.71487 
    3150    64.927597    64.927597    64.927597    23.887023    91.138758    332.66567   -150.11111    33.787624    277.09649   -205.77741   -53.265313    188.67956   -294.16454   -54674.957    174.88876 
    3200    64.928549    64.928549    64.928549   -51.345938   -23.670471    217.74236   -264.89696   -110.14189    131.17142   -351.49046   -20.225453    221.24851   -261.47425   -54681.883    179.06425 
    3250    64.928117    64.928117    64.928117   -2.1282022    37.496193    280.29395   -202.44863    12.411412     253.9983   -228.73666   -56.292212    186.17255   -296.60567   -54679.173    178.68206 
    3300    64.928624    64.928624    64.928624   -35.413114    8.7917753    250.80121   -231.95904   -30.015144    212.89165   -269.89011   -85.015972    157.20179    -325.5816   -54675.925    178.04877 
    3350    64.928311    64.928311    64.928311     38.55506    18.417377    260.13536   -222.62594    69.743563    312.03056   -170.70228    27.504238    269.67057    -213.0938   -54680.779    181.24606 
    3400    64.930178    64.930178    64.930178    10.079993    96.853272    339.82734    -142.9172    -6.139849    236.85296   -245.96402   -60.473445    182.13047   -300.66233   -54667.172    175.71509 
    3450    64.931797    64.931797    64.931797   -83.382733   -136.49785    104.73071   -377.89364   -43.562348    197.72765   -284.97443   -70.087997    171.19983   -311.47168   -54673.118    179.42886 
    3500    64.929604    64.929604    64.929604    47.192489    124.85847    367.71104   -114.94884    52.720913    294.39862   -188.31209   -36.001915    207.13349   -275.60855   -54673.413    180.46486 
    3550    64.928961    64.928961    64.928961    60.043325    57.026722    297.75865   -185.03234    67.763949     310.4265    -172.3393    55.339305    296.54561   -186.21432    -54669.87    179.70124 
    3600    64.930874    64.930874    64.930874   -19.510368    36.514866     278.4282   -204.23974     1.265272    242.43122   -240.31007   -96.311242    144.46882   -338.26567   -54671.363    181.30673 
    3650    64.932912    64.932912    64.932912    -66.82066   -40.386328    201.29625    -281.2987   -80.966851    160.70101   -321.93549   -79.108803     163.4893   -319.08415   -54672.023    182.51599 
    3700    64.932336    64.932336    64.932336   -52.111219   -69.255911     172.5874   -310.02738   -13.105938    229.50716   -253.11185   -73.971809    167.94043   -314.74371   -54670.176    182.54705 
    3750    64.930113    64.930113    64.930113    66.161664    117.67797    360.23875    -122.4838    42.797297    285.00257   -197.74631    38.009729    280.20579   -202.60833   -54668.531    182.67233 
    3800    64.932039    64.932039    64.932039    18.378685    55.199993    297.61912   -185.07634   -36.253423    206.15549   -276.55364    36.189486    278.41085   -204.28437   -54665.402    182.09586 
    3850    64.935035    64.935035    64.935035   -69.920649   -64.191715    177.47031   -305.03552    -22.28254     220.0392   -262.48125   -123.28769    119.11129   -363.43591   -54664.839    182.73132 
    3900    64.934425    64.934425    64.934425    -44.84433   -35.855783    206.84017   -275.59778   -93.038511    149.18939   -333.35228   -5.6386941    236.66557   -245.86038   -54666.355     184.3493 
    3950    64.931657    64.931657    64.931657    108.12242    86.347834    327.68367   -155.07679    164.11022    405.78282   -76.913021    73.909222    315.98631   -166.72555   -54661.144    182.79497 
    4000    64.933259    64.933259    64.933259    39.562897    127.60877    370.07696   -112.57653    1.1038606     243.0833   -239.56822    -10.02394    231.98454   -250.69249   -54661.847    184.02281 
    4050    64.936337    64.936337    64.936337   -69.141502    -76.55805    165.35185   -317.18412   -79.516737    162.06739   -320.41097    -51.34972    190.41885   -292.09687   -54661.831    184.91911 
    4100    64.935494    64.935494    64.935494   -10.468708    33.629516    275.93247   -206.57004   -9.1546272    232.74625   -249.76905   -55.881013    185.55678   -297.01164   -54660.637    185.25636 
    4150    64.933871    64.933871    64.933871    55.054712    50.669504    291.86688   -190.63275    23.079217    264.71895    -217.8829    91.415416    333.81908   -148.75043   -54662.305     186.9483 
    4200    64.935075    64.935075    64.935075    3.1453102    17.354796    258.81279    -223.6966     31.65033    273.13363   -209.44674   -39.569196    202.30248   -280.35693   -54658.337    185.97588 
    4250    64.937269    64.937269    64.937269   -41.894341   -3.4751109    239.67362   -242.78008   -106.35189    136.02781   -346.43793   -15.856028    225.29204    -257.2461   -54657.387    186.42258 
    4300    64.937412    64.937412    64.937412   -35.988985   -46.890645    195.03693    -287.3774   -42.239804    200.58536   -281.86123   -18.836507    223.15554   -259.22947   -54659.204    188.18522 
    4350    64.935136    64.935136    64.935136    66.759734    77.269333    319.78623   -162.81905      76.7378    318.16041   -164.49374    46.272068    288.99454   -193.60889   -54650.597    185.02228 
    4400     64.93534     64.93534     64.93534    93.381852    92.748074    334.01374   -148.58902    74.142821    315.46439   -167.17541    113.25466    355.07843   -127.54056   -54652.897    187.00939 
    4450    64.939127    64.939127    64.939127   -91.106412   -90.393474    151.46613   -330.85635   -83.919238    157.79752   -324.54171   -99.006524    142.08917   -340.28537   -54656.436    189.58001 
    4500    64.939677    64.939677    64.939677   -79.280601   -121.88204    119.97319   -362.31057   -88.768847    152.06418   -330.27098   -27.190916    215.10269    -267.2917   -54654.833    189.72476 
    4550    64.936566    64.936566    64.936566     32.35499    58.160484     299.5198   -183.03038   -14.927284    227.60577   -254.91918     53.83177      295.789   -186.76046   -54653.784     190.1291 
    4600    64.936176    64.936176    64.936176    69.227021    114.12137    356.71732   -125.71886    65.541563    308.21058   -174.28901    28.018133    269.67633    -212.8884   -54654.577     191.4044 
    4650    64.939875    64.939875    64.939875   -28.558605   -4.4595293    237.27847    -245.0655   -63.125106    178.33559   -304.04726    -18.09118    223.61171   -258.73948   -54649.696    190.00281 
    4700    64.941468    64.941468    64.941468   -132.70997   -80.856125     160.9912   -321.31355   -140.19142    102.68812   -379.64165   -177.08238    65.676852   -416.66301   -54649.487    190.79744 
    4750    64.938078    64.938078    64.938078    101.26554    131.75744    374.02015     -108.445    65.147046    306.82527   -175.68248    106.89212    349.12639   -133.40768   -54647.781    190.89352 
    4800    64.938802    64.938802    64.938802    59.602532    107.84034    349.87075   -132.58133    33.453505    276.03217   -206.37446    37.513747     279.7825   -202.70759   -54647.109    191.47364 
    4850    64.942227    64.942227    64.942227   -58.039397   -13.889691    227.21379   -255.08349   -108.10035    133.21739   -349.05263   -52.128147    189.51248   -292.79963    -54644.85    191.30938 
    4900    64.942279    64.942279    64.942279   -86.126851    -74.33397    167.97208   -314.30404   -78.311838    163.65963   -318.54866   -105.73475    137.14367   -345.13154    -54649.93    194.60258 
    4950    64.938904    64.938904    64.938904    121.18702    153.78082    395.46503   -87.071332     125.0405    367.50647   -115.04104    84.739739    327.88162   -154.59889   -54639.826    190.73082 
    5000    64.940474    64.940474    64.940474    39.941221    104.49265    346.47235   -135.86084    3.2738964    245.25627   -237.17789    12.057119    253.28917    -229.1528   -54644.714    193.93713 
    5050    64.944344    64.944344    64.944344   -69.899311    13.546292    255.41854   -226.72715    -113.7666    127.89238   -354.29988   -109.47762    132.18691   -350.02991   -54642.743    193.90385 
    5100    64.944311    64.944311    64.944311   -49.087349   -32.070386    209.74488   -272.38402   -79.668453    161.94413   -320.25839   -35.523208    206.04495   -276.13124   -54642.432    194.65556 
    5150    64.941672    64.941672    64.941672     53.30495    133.34082    374.81098   -107.45671   -33.421968    208.44065   -273.86396    59.995996    301.72515   -180.69451   -54640.014    194.41031 
    5200    64.942455    64.942455    64.942455    40.272807    44.546297    286.95236   -195.30697    41.094698    282.53907   -199.77714    35.177426    277.52224   -204.78587   -54642.183    196.32928 
    5250    64.945095    64.945095    64.945095   -49.669905    7.0054855    248.69774   -233.57104   -66.160589    175.31732   -306.95347   -89.854611    151.84591   -330.42237   -54635.589    194.11219 
    5300    64.944947    64.944947    64.944947    5.0988099    57.033906     298.7175   -183.51754    4.1364344    246.61265   -235.65877   -45.873911    195.75875   -286.51003   -54635.423    194.92456 
    5350    64.944154    64.944154    64.944154   -10.270997   -3.0025937    238.90996   -243.19985   -33.336722    208.14221   -274.00951    5.5263246    247.20047    -234.9454   -54640.661    198.29749 
    5400      64.9439      64.9439      64.9439    12.283463    99.403511    340.62806   -141.56953   -12.670129    229.24241   -252.93573   -49.882993    190.87224    -291.3633   -54639.041    198.43201 
    5450    64.945657    64.945657    64.945657   -21.563725     18.94493     261.2501   -220.94911   -62.425036    179.24406   -302.95838    -21.21107     221.2028   -261.05175   -54636.863    198.29288 
    5500     64.94652     64.94652     64.94652   -37.181305   -14.514438    227.15672   -254.97416   -48.856993    193.69275   -288.51223   -48.172484    194.57415   -287.64086   -54633.407    197.55327 
    5550    64.945216    64.945216    64.945216    53.996136    74.969407    317.99533   -164.21709    44.219327    286.08846   -196.18334    42.799673    284.79836   -197.49712   -54631.854    197.71413 
    5600    64.945613    64.945613    64.945613    55.025469    19.866462    260.95982   -221.31027    96.117746    337.20276   -145.06935    49.092198    290.64617   -191.61271   -54628.693    197.11657 
    5650    64.948095    64.948095    64.948095   -49.138611   -63.701111    178.19765   -303.90303   -1.0801871    240.15319   -241.94171   -82.634535    159.33778   -322.77686   -54632.032    199.58039 
    5700    64.948588    64.948588    64.948588   -41.508354   -65.677852     176.4904   -305.53087    14.888239    256.48985   -225.58561    -73.73545    167.41114   -314.67055   -54631.141    200.05337 
    5750    64.946948    64.946948    64.946948    31.945903    42.147432    283.69696   -198.43351     61.69119    303.42465   -178.76091   -8.0009137    234.53507   -247.66199   -54627.945     199.4337 
    5800    64.946659    64.946659    64.946659    42.087954    59.053488    300.32195   -181.85418    98.900102    339.91098   -142.25014   -31.689729     208.9776   -273.29071   -54631.694    202.09915 
    5850    64.949267    64.949267    64.949267   -14.274084   -64.076519    178.44825   -303.58249   -8.7334735    233.48013   -248.55229    29.987741    272.00782   -210.07168   -54627.081    200.80366 
    5900    64.950815    64.950815    64.950815   -75.017577   -62.583115    177.17372   -304.75127   -28.380852    213.07887   -268.88295   -134.08876    107.34882   -374.63992   -54627.922    202.09739 
    5950    64.948563    64.948563    64.948563    43.016864    23.529361    265.19874   -216.91068    104.95146    347.13928   -135.05811   0.56977574    242.56628    -239.5574   -54624.707    201.46218 
    6000    64.948104    64.948104    64.948104     31.80873   -14.897012    227.56515   -254.58826    101.73495     343.8835   -138.24117    8.5882487    250.27483   -231.83171   -54626.522    203.20864 
    6050    64.949927    64.949927    64.949927    52.963454    32.797762    275.24125   -206.79378    83.789382    325.86416   -156.20036    42.303218    283.75331   -198.34624   -54622.044    201.98167 
    6100    64.953106    64.953106    64.953106   -87.116688    -42.40576    198.74614    -283.2261   -123.17156    118.81889   -363.08411   -95.772743    146.28217    -335.6393   -54620.703    202.23368 
    6150    64.951555    64.951555    64.951555   -42.642128   -86.849341    154.77275   -327.19636    19.147126    259.92529   -222.12041   -60.224168    181.09219   -300.94242   -54623.606    204.49154 
    6200    64.948846    64.948846    64.948846     101.4011    96.358359    338.94488   -143.12997    136.12392    378.51711   -103.58571    71.721021    313.28798   -168.86605   -54622.736    204.96319 
    6250    64.951467    64.951467    64.951467   -12.139176   -33.221793    207.93897   -274.04529    15.947459    258.06567   -223.94829   -19.143193    222.33527   -259.65277   -54621.307    205.17637 
    6300    64.954438    64.954438    64.954438    -48.92492   -66.028088    175.57386    -306.2602   -73.103334    168.05229   -313.77851   -7.6433381    235.51475   -246.45195   -54618.545    204.75341 
    6350    64.953536    64.953536    64.953536   -70.277798   -71.175085    170.52015   -311.37502   -30.213583    211.75619   -270.16092   -109.44473    132.11838   -349.76648   -54619.706     206.1864 
    6400    64.949736    64.949736    64.949736    103.05567    55.216393    296.98693   -185.15848    171.97203    413.80917   -68.363593    81.978582    323.44087   -158.73904   -54617.148    205.86201 
    6450    64.951892    64.951892    64.951892     89.43345    88.042117    330.88106   -151.16882     58.11642     299.0406   -183.07701    122.14181     363.7355   -118.37313   -54612.898    204.73224 
    6500     64.95675     64.95675     64.95675   -127.71656   -191.02107    49.427878   -432.28414   -79.245796    162.84556   -318.88687   -112.88282    128.52603   -353.20877   -54618.012    208.03112 
    6550     64.95488     64.95488     64.95488   -17.551408    60.709933    302.59664   -179.22837   -80.943872      160.114   -321.74601   -32.420284    210.00205   -271.92344    -54612.65    206.37744 
    6600    64.951841    64.951841    64.951841    90.972512    71.266448    313.56459   -168.49861    132.80256    374.86008   -107.11058    68.848532    309.24238   -172.81536   -54616.538    209.09467 
    6650    64.954099    64.954099    64.954099    41.757368     106.6738    347.92759   -134.02942    9.7146118    252.28166   -229.67821    8.8836966    251.93668   -230.06958   -54609.603    206.69332 
    6700    64.958015    64.958015    64.958015   -116.22734   -153.42225    89.013018    -392.7069   -76.616182    165.29131   -316.47194   -118.64358    122.61346    -359.1301   -54611.408    208.42506 
    6750    64.955624    64.955624    64.955624    23.155986    45.882826    287.93302   -193.95446    72.588369    313.78017   -168.12194   -49.003237    193.41531   -288.51595    -54607.86    207.62494 
    6800    64.953303    64.953303    64.953303    85.918223    81.856804    322.85148    -159.0502    65.477807    307.38638   -174.56334    110.42006    352.20942   -129.79659   -54610.555    209.77512 
    6850    64.955954    64.955954    64.955954     22.26937    81.092069    322.60267   -159.20493     22.04334    263.29043   -218.49617   -36.327298    204.87202   -276.96981   -54610.298    210.53078 
    6900    64.959266    64.959266    64.959266   -68.929974   -8.9623161    232.15054    -249.5264   -54.435277    186.71765   -294.97083   -143.39233     97.71954   -384.04313   -54606.804    209.75419 
    6950    64.957736    64.957736    64.957736   -50.106943   -43.828659    197.42567   -284.36065   -49.204783    192.39421   -289.36413   -57.287388    184.32809   -297.50364   -54607.424    210.91535 
    7000    64.955119    64.955119    64.955119    66.106542    126.84725    368.57128   -113.34179    42.835122    284.59262   -197.33104    28.637257    270.31296   -211.73758   -54608.173    212.14154 
    7050    64.957113    64.957113    64.957113    14.178771   -10.531493     232.1731   -249.63679     12.91696    254.74091   -227.06411    40.150847    281.87908   -199.99987   -54605.028    211.52693 
    7100    64.960167    64.960167    64.960167   -72.807998    36.591937    278.59966   -203.02808   -62.916229    179.11114   -302.52267    -192.0997    49.476955   -432.24196   -54604.558    212.17661 
    7150    64.959254    64.959254    64.959254   -61.602376   -64.900808    177.40731   -304.31431   -59.364545    182.07459   -299.62788   -60.541776    181.64154   -300.06991    -54604.23    212.89088 
    7200    64.956254    64.956254    64.956254    123.54552    172.55629      414.483   -67.408639     125.6326    368.33121    -113.5606    72.447667    314.61504   -167.34212   -54601.514    212.47574 
    7250    64.958404    64.958404    64.958404    58.923703    30.988235     272.2385   -209.60717     80.87632    322.28092   -159.52569    64.906554    305.92145   -175.94556   -54599.125    212.21684 
    7300     64.96229     64.96229     64.96229   -98.770076   -20.970111    220.46132   -261.16413   -83.883167    157.28906   -324.35101   -191.45695    50.821185   -430.89718   -54598.515    212.78935 
    7350    64.960905    64.960905    64.960905   -48.813418   -21.658323    219.72446   -262.01831   -84.170425    157.63572   -324.06312   -40.611506    200.94062   -280.77476   -54599.816    214.26976 
    7400    64.956877    64.956877    64.956877    126.33988    165.69152    407.61569   -74.273854    122.38108    364.07448   -117.78314    90.947045    333.31351    -148.5587   -54598.449    214.48916 
    7450    64.958832    64.958832    64.958832    79.562026    94.172815    335.01698   -146.71304    126.77827    367.62895    -114.0647     17.73499    259.50198   -222.21718   -54598.011    215.14879 
    7500    64.963965    64.963965    64.963965   -108.14718   -122.40196    119.29704   -362.18662   -97.702153    143.78171    -337.7875   -104.33742    136.03027   -345.53133   -54597.667    215.84659 
    7550    64.963119    64.963119    64.963119   -66.917066   -123.84621    117.90023   -363.72969   -11.914177    229.19602   -252.47544    -64.99081     176.2932   -305.38451   -54595.285    215.57796 
    7600    64.959538    64.959538    64.959538    66.182822    80.537476    322.13104   -159.64744    50.738374    292.57992   -189.24692    67.272616    308.98594   -172.88265   -54596.151    216.84442 
    7650    64.960724    64.960724    64.960724    30.184446    76.181654    318.14474    -163.5732    58.596622    300.06352   -181.60462   -44.224938    196.52974   -285.20156   -54597.493    218.33962 
    7700    64.965031    64.965031    64.965031   -87.136511   -135.67695    106.91361   -374.52032   -49.067053    193.58685   -287.81482   -76.665531    165.42114   -316.00646   -54597.068    218.99381 
    7750    64.964941    64.964941    64.964941   -67.829257    -4.551791    236.92926   -244.48468   -93.850641    147.32223   -334.18123   -105.08534    137.29803   -344.25289   -54593.181    218.01912 
    7800    64.961087    64.961087    64.961087    59.084462     53.88425    296.03673   -185.68792    105.96377    348.88353   -132.81463    17.405367    259.38295   -222.41685   -54591.383    218.02061 
    7850    64.961408    64.961408    64.961408    129.13434    169.10718    412.09081   -69.617248    154.37631    395.18621   -86.523632     63.91953     305.8261   -175.95728   -54587.815    217.18921 
    7900    64.966644    64.966644    64.966644      -90.527   -56.006322    184.87481    -296.5977   -34.951149    206.28923   -275.18699   -180.62353    61.435812   -420.05208   -54587.053    217.68133 
    7950    64.966919    64.966919    64.966919   -106.88551   -126.67168    114.51826   -366.86384   -59.131279    182.52973   -298.92724   -134.85356    106.39578   -374.99273   -54590.838     220.3208 
    8000    64.962108    64.962108    64.962108    111.30662    192.95032    435.00505   -46.673977    144.78495    384.57264   -97.129445   -3.8154213    238.08894   -243.66242   -54584.225    218.04898 
    8050    64.962706    64.962706    64.962706    99.051536    146.13755     387.9037   -93.771136    31.099086    272.91929   -208.78166    119.91797    360.44746   -121.28388   -54586.072    219.76756 
    8100    64.968171    64.968171    64.968171   -78.427309   -51.945627    189.46412   -291.87439   -80.759501    161.06958   -320.28822    -102.5768    139.20854   -342.20256   -54587.298    221.19468 
    8150    64.968537    64.968537    64.968537   -64.178991   -81.912039    158.08418   -323.32374   -74.911226    167.45138    -313.8709   -35.713707    205.30675   -276.12087   -54582.599    219.82427 
    8200    64.964494    64.964494    64.964494    92.104704    173.93919    415.07201   -66.490522    107.63883    348.87082   -132.71828   -5.2639033    236.17167   -245.42589   -54583.665    221.16941 
    8250    64.964833    64.964833    64.964833    72.410089    66.179221    307.70382   -173.88967    1.3851638     241.9063   -239.71212    149.66588     391.2228   -90.346262    -54585.43    222.84712 
    8300    64.969376    64.969376    64.969376   -64.261577   -68.923488    173.24531   -308.13574   -50.459042     190.6916   -290.68599     -73.4022    167.64446   -313.70869    -54581.63    221.89378 
    8350    64.970168    64.970168    64.970168   -91.435831   -156.98243    83.590515   -397.63749   -62.571213    178.56086   -302.69436   -54.753852    186.44892   -294.85139   -54585.327    224.48301 
    8400    64.966525    64.966525    64.966525    51.258428    37.938134    279.54308   -201.90676    70.480926    311.96934    -169.5972    45.356225    287.62079   -193.92131   -54581.554    223.53664 
    8450    64.966323    64.966323    64.966323    82.221508    74.386881    317.70455   -163.88624    114.87324    356.70862   -124.83522    57.404405    298.19124    -183.4155   -54577.714    222.55921 
    8500    64.970463    64.970463    64.970463   -48.225571   -25.721192    215.37397   -266.01728   -60.380883    182.36118   -298.96614   -58.574638    183.31615   -298.04421   -54575.849    222.51476 
    8550    64.970816    64.970816    64.970816   -93.884933   -54.857474    186.10621   -295.17144   -160.51152    80.400651   -400.92639   -66.285807    176.29396   -305.02913   -54578.427    224.57104 
    8600    64.967101    64.967101    64.967101    139.11742    146.86257    388.89112   -92.629821    194.69844    437.03684   -44.418413    75.791238    317.31868   -164.20128   -54576.432    224.46243 
    8650    64.969173    64.969173    64.969173    3.1483363    28.738074    270.37822   -210.97745   -56.235821    184.59677   -296.80518    36.942755    277.15764   -204.22995   -54575.691    224.94696 
    8700    64.971854    64.971854    64.971854     -68.7698   -116.10651    124.51205   -356.80561   -5.0011582    235.05364   -246.22598   -85.201734    157.32043   -323.89808   -54579.878    227.75265 
    8750    64.971904    64.971904    64.971904   -67.182553   -63.197209    178.45306   -302.80235    -24.01635    218.60041   -262.68263    -114.3341    126.87038   -354.45544   -54576.258    226.87008 
    8800    64.970052    64.970052    64.970052    79.438675    90.911273    333.35322   -148.01453    91.163107    333.16964   -148.26691    56.241646    297.96889   -183.41224   -54570.121    224.79881 
    8850     64.97149     64.97149     64.97149     13.22576    14.066215    256.07749   -225.21615   -14.538886    227.32767   -254.02051    40.149952    282.19459   -199.18539   -54570.592    225.84808 
    8900    64.972718    64.972718    64.972718   -3.9891204    38.631298    279.92861   -201.26631    21.238026    262.15627   -219.11833   -71.836685    170.23701   -311.05836    -54570.84    226.79338 
    8950    64.972266    64.972266    64.972266    35.810372     99.50172    341.04413   -140.23655   -8.2466299    233.72488   -247.57859    16.176028     257.1549   -224.12338   -54569.553    227.00837 
    9000    64.972546    64.972546    64.972546    10.151834    16.591347    257.80921   -223.48507    46.671421    286.76565   -194.53855   -32.807265    209.08495   -272.15123   -54569.906    227.99736 
    9050    64.973538    64.973538    64.973538   -61.331172   -61.403107    180.02586   -301.18659   -116.17613    126.48005   -354.73825    -6.414278    234.62786   -246.59413   -54571.658    229.64311 
    9100    64.972912    64.972912    64.972912    41.898657    84.868777    326.01427   -155.20853    25.581862    266.86846   -214.40343    15.245331    257.15798   -224.12075   -54568.546    228.99296 
    9150    64.974044    64.974044    64.974044   -12.475464   -97.500023    143.99363   -337.13579    45.822851    287.82315    -193.3413    14.250781    255.05222   -226.16971   -54570.802    230.87494 
    9200    64.975684    64.975684    64.975684   -42.705464   -51.891086     189.7115   -291.39027   -11.814993    230.43118   -250.68542   -64.410313    177.48521   -303.60445   -54567.291    230.03132 
    9250    64.974964    64.974964    64.974964    13.672826    13.271093    254.64676   -226.49093    31.793723    272.73667    -208.4282   -4.0463388    238.18396   -242.96719   -54563.834    229.21413 
    9300    64.974192    64.974192    64.974192    59.414045    87.404883    329.35608   -151.84879     25.10489     265.7517    -215.4654    65.732361    306.11162   -175.15716   -54562.266    229.28623 
    9350    64.975523    64.975523    64.975523    1.2853101   -81.530516    158.93077   -322.23377    32.034216    272.70586   -208.47219     53.35223    294.43201   -186.70527   -54565.811     231.7696 
    9400    64.977052    64.977052    64.977052   -96.691083    -72.77632    169.24137   -311.74557   -117.53051    124.99756   -356.13462   -99.766422    142.19792   -338.88611   -54567.915    233.56933 
    9450    64.975363    64.975363    64.975363    27.965824   -29.616366    212.37264   -268.79343    64.292913    305.81381   -175.41596    49.220926    291.82491   -189.40623   -54560.836    231.03533 
    9500    64.975278    64.975278    64.975278    32.875849    67.225627    309.72838   -171.45141    13.100999    255.07133   -226.12678    18.300919    260.99512   -220.19693   -54561.184    232.00474 
    9550    64.976509    64.976509    64.976509   -20.744073   -20.538339    220.61754   -260.47974   -47.177451    195.16914   -285.90206    5.4835722    246.70502   -234.41512   -54559.204    231.87811 
    9600    64.976106    64.976106    64.976106    94.425025    139.05742     380.2175   -100.87732    92.319146     333.7483    -147.4063    51.898514    293.19596     -188.003   -54554.641    230.52469 
    9650    64.977299    64.977299    64.977299   -19.565453   -94.840849    145.78434   -335.26104    38.464319     278.5203   -202.57145   -2.3198294    238.16176   -242.92196   -54560.418    234.05496 
    9700    64.977223    64.977223    64.977223    34.853728    79.358394    320.07274   -161.04875    12.645233    253.78775   -227.38505    12.557556    253.52215   -227.62633   -54553.728    231.68887 
    9750    64.978038    64.978038    64.978038   -90.959678   -72.711863    168.96983   -312.12538   -31.803723    209.94368   -271.11353   -168.36345    72.090339    -408.9299   -54563.486    237.09357 
    9800    64.977173    64.977173    64.977173    60.245875    96.567211    338.46982   -142.67517   -10.065643     232.2209   -248.90856    94.236056    336.29333   -144.86091   -54553.737    233.28502 
    9850    64.978769    64.978769    64.978769    -9.645999   -45.986779    195.14132   -285.87847     9.149433    250.99769   -230.02399    7.8993487    248.95787   -232.12414   -54557.067    235.65541 
    9900    64.979198    64.979198    64.979198   -33.031717    29.656642    271.95756    -209.0386   -11.812585    229.11852    -251.8859   -116.93921    125.16854   -355.89087   -54552.233    234.16254 
    9950    64.978203    64.978203    64.978203    62.554349    16.910739    257.44334   -223.58542    62.837329    305.16102   -175.87533    107.91498    348.89529   -132.15601   -54555.542    236.51703 
   10000     64.97967     64.97967     64.97967    31.828521    56.100761    298.57292   -182.47133    75.800805     318.6615   -162.34828   -36.416003    204.48825   -276.53066   -54551.297    235.29757 
   10050    64.981801    64.981801    64.981801   -52.862736     14.21204    255.01732   -225.86928   -114.62243    126.26605   -354.67639   -58.177815    184.32033   -296.56302    -54552.58    236.69116 
   10100    64.981127    64.981127    64.981127   -12.936916   -49.443328    191.85213   -289.10967    34.965438    276.63464   -204.30305   -24.332858     216.9007   -264.06736   -54551.557    236.99104 
   10150    64.979724    64.979724    64.979724    54.970747    75.030374    315.51895   -165.54724    47.061192     287.6897   -193.40949    42.820674    284.47526   -196.61502   -54550.064    237.06794 
   10200    64.981265    64.981265    64.981265     15.46661    30.561794     272.9061   -208.08705    15.262408    256.46843   -224.49718    0.5756263    242.04456   -238.96634   -54550.181    237.90143 
   10250    64.983122    64.983122    64.983122   -48.827105    19.773997    261.23294   -219.64552   -134.98479    106.29972   -374.58062   -31.270521    209.59529   -271.34451   -54548.946    238.09972 
   10300    64.983042    64.983042    64.983042    -5.738439   -93.184018    148.68132   -332.22451      11.4012    252.50747   -228.44014    64.567501    305.56076   -175.35741   -54546.775    237.84975 
   10350    64.982695    64.982695    64.982695   -16.447721    20.734412    261.50997   -219.33169   -14.374482    227.42859   -253.50171   -55.703094    185.18655   -295.76034   -54549.214    239.77832 
   10400     64.98193     64.98193     64.98193    54.517596    44.392774    285.09634   -195.84456    31.337576    272.75785   -208.16247    87.822437    329.44496    -151.5638   -54544.677    238.40927 
   10450    64.983325    64.983325    64.983325   -23.488735    85.134561    326.16143   -154.67128   -64.258372    177.09972   -303.76347   -91.342393    148.81047   -332.09392   -54547.768    240.64172 
   10500    64.984392    64.984392    64.984392   -30.345218   -61.109625    180.98439   -299.77896   -5.4884357    234.67501   -246.10438   -24.437593    217.36499   -263.43113   -54547.327    241.20175 
   10550    64.984294    64.984294    64.984294   -3.9050019   -31.725595    208.89967   -271.86836    34.458399    275.62626    -205.1812    -14.44781     227.2784   -253.52578   -54543.044    239.94717 
   10600     64.98362     64.98362     64.98362    73.639837    140.05109    380.52766   -100.36524    51.583083    293.54944   -187.34058    29.285341    269.43293   -211.50775   -54540.571    239.54237 
   10650    64.985282    64.985282    64.985282   -58.570514   -96.819563    144.91473   -335.90593   -92.205685     149.2577   -331.53819    13.313707      255.116   -225.69536   -54543.497    241.68466 
   10700    64.985165    64.985165    64.985165    17.885728    108.46209     349.3168   -131.55679    26.070146    267.86212   -212.94173   -80.875056    159.82661   -321.04355   -54540.428     240.9996 
   10750    64.985316    64.985316    64.985316    8.2171452   -42.606569    199.30974   -281.41762    12.852897    254.99437   -225.82049    54.405107    296.27846   -184.57735    -54541.11    242.07905 
   10800    64.984934    64.984934    64.984934     32.75143    72.411197    314.14033   -166.69281     5.224387    245.43704   -235.39326    20.618707    261.46671   -219.38027   -54537.746    241.25126 
   10850    64.985818    64.985818    64.985818  -0.72907572    22.929291    264.94265   -215.85196    8.0845054    249.28009   -231.45538   -33.201023    207.59719   -273.18626   -54539.805    242.97649 
   10900    64.987016    64.987016    64.987016   -27.648872    13.052593    254.47386   -226.23692   -72.590281    167.85341   -312.91121   -23.408929     216.5666   -264.19218   -54538.878    243.29431 
   10950    64.986831    64.986831    64.986831   -64.524437   -59.257222    181.09019   -299.76138   -55.407794    186.52013   -294.25815   -78.908294    163.05994   -317.76092   -54539.473    244.32358 
   11000     64.98556     64.98556     64.98556    75.421983    140.82559     383.2359   -97.567491    47.409159    288.50033   -192.29601    38.031202    280.28562   -200.54174   -54538.659    244.68781 
   11050    64.987078    64.987078    64.987078   -9.6118611    48.781073    290.20254   -190.60231   -23.345128    218.16145   -262.56849   -54.271529     187.0415   -293.74886    -54534.81    243.61813 
   11100    64.988415    64.988415    64.988415    7.6343537    6.2778872    247.54486   -233.21583   -10.756686    230.84259   -249.88048     27.38186    268.36534   -212.39426   -54532.112    243.08659 
   11150    64.988464    64.988464    64.988464    -14.28932    4.2676763    243.99868   -236.71295   -32.421669    208.06056   -272.62461   -14.713968     226.7224   -254.04261   -54532.926    244.21383 
   11200    64.988042    64.988042    64.988042   -13.729977    49.181478    291.24086   -189.40619   -41.223785    199.58712   -281.10171   -49.147623    191.39169   -289.32212   -54536.763    246.76628 
   11250    64.988561    64.988561    64.988561   0.92007872    37.187587    278.13574   -202.58075     27.15017    267.36454    -213.2396    -61.57752    179.92098    -300.8988   -54533.341    245.89191 
   11300    64.989519    64.989519    64.989519   -2.7644211    38.384863    280.15656   -200.50688    13.273778    254.98914   -225.65327   -59.951904    180.91223   -299.80958   -54532.188    246.08206 
   11350    64.990476    64.990476    64.990476    -41.42969   0.78071385    242.55151    -238.0393   -79.974049      161.263   -319.29346   -45.095734    196.52092   -284.07619   -54531.696    246.58568 
   11400    64.989317    64.989317    64.989317    17.859973   0.31705247     240.9877   -239.65742    72.940344    315.28214   -165.36575   -19.677476    222.71633   -257.94674    -54531.55    247.24941 
   11450    64.988663    64.988663    64.988663    77.058992    3.3363355    243.78607   -236.92187    51.023486    292.23008   -188.49205    176.81715    417.84967   -62.863641   -54526.938    245.80222 
   11500    64.990973    64.990973    64.990973   -66.176701   -37.080124    204.78923   -275.75146   -24.077929    216.29207   -264.30516   -137.37205    103.47315   -377.18607   -54532.693    249.24502 
   11550    64.991348    64.991348    64.991348     38.27498    -29.22673    211.28189   -269.36653    47.630922    289.30723   -191.30848    96.420747    337.94715   -142.74472   -54523.445     245.6005 
   11600    64.992424    64.992424    64.992424   -60.605003   -9.3494211    232.01927   -248.50833   -46.603818    194.91069   -285.61037   -125.86177    115.36319   -365.12889   -54531.507    250.13245 
   11650    64.990945    64.990945    64.990945    75.478384    136.49148    376.94146   -103.72034    64.770155    307.01404   -173.61256    25.173514    267.36086   -213.30505   -54523.209    246.93655 
   11700    64.991579    64.991579    64.991579    -56.73892   -76.894686    165.48449   -315.09868   -14.117386    228.07432   -252.48828   -79.204688    160.90258   -319.64858   -54528.913    250.35039 
   11750    64.991141    64.991141    64.991141    90.001387    84.196661    325.29902   -155.35259    60.618181    302.53278   -178.13022    125.18932    366.87054   -113.84018   -54522.336    247.95994 
   11800    64.993062    64.993062    64.993062    -57.16093   -86.173468    155.92261     -324.614    1.5196547    243.37766   -237.18667   -86.828978    154.47851    -326.0917   -54523.312    249.13309 
   11850    64.992282    64.992282    64.992282   -6.4051942    37.997356    278.75493   -201.80504   -39.256087    201.41328   -279.14914   -17.956852    223.72041   -256.85284   -54524.953    250.62454 
   11900     64.99049     64.99049     64.99049    113.86902    164.97168    406.40768   -74.319113    157.80959    398.93183   -81.808983    18.825784    259.85012   -220.84029   -54520.135    249.05591 
   11950    64.993815    64.993815    64.993815   -38.693103    23.610862    265.12133   -215.35826   -29.998811     211.3589   -269.09123   -109.69136    130.81332   -349.67907   -54525.197    252.15287 
   12000    64.996279    64.996279    64.996279   -105.67284   -73.673109    167.78876   -312.54492    -70.38373    170.97183    -309.4129   -172.96168    68.721898   -411.64542   -54523.036     251.8378 
   12050      64.9938      64.9938      64.9938   -15.384944   -14.347939    227.53706   -253.01454   -16.477556    223.87758   -256.64246   -15.329337    225.99835   -254.58779   -54521.514    251.82233 
   12100    64.992187    64.992187    64.992187    87.259225    154.53453    395.71004   -84.908884    127.87434    370.69101   -109.91403   -20.631194    220.86646   -259.73474   -54519.814    251.71878 
   12150     64.99532     64.99532     64.99532   -29.226165   -63.511866    177.25036   -303.19663    33.361385    274.16957   -206.26887   -57.528014    183.88238   -296.56842   -54520.847     252.9091 
   12200    64.997238    64.997238    64.997238   -107.13491   -47.785506    193.59819   -286.74198   -141.26296    99.569479   -380.74054   -132.35626    109.50064   -370.84063   -54518.816      252.645 
   12250    64.994406    64.994406    64.994406    21.763478    31.438239    273.46812   -206.99905    60.500877    301.25948   -179.18652   -26.648683    213.96173   -266.53353   -54520.074     253.9338 
   12300    64.993308    64.993308    64.993308    44.872048    67.109629      308.171   -172.41388    83.098465    325.40038    -155.1308    -15.59195    225.25079   -255.28245   -54518.065    253.67531 
   12350    64.996035    64.996035    64.996035     17.94731    42.039793    283.12478   -197.37141    103.86669    345.01547   -135.49555   -92.064551    149.04696   -331.39353   -54514.093    252.48595 
   12400     64.99859     64.99859     64.99859   -96.427861    -60.75979    178.74256   -301.55785   -54.764982    186.27308   -294.00813   -173.75881    67.058529   -413.20537   -54518.575    255.29035 
   12450    64.996965    64.996965    64.996965   -35.367795   -15.157564    225.04734   -255.32474    -20.06903    221.29042     -259.007   -70.876791    170.39234   -310.03669   -54515.814    254.66939 
   12500     64.99502     64.99502     64.99502    46.527335    100.69795    342.66312   -137.88399   -7.8554605    233.03815   -247.47439    46.739519    288.01469   -192.46522   -54515.351    255.13318 
   12550     64.99663     64.99663     64.99663    10.488067   -9.6800399    231.30408   -249.07253    68.052841    309.27401   -171.07975   -26.908599    214.83093   -265.61381   -54512.474    254.45546 
   12600    64.998752    64.998752    64.998752   -21.346799    70.919178    312.69255   -167.58351   -76.857179    164.04823   -316.22228   -58.102396    182.09739    -298.2186   -54513.127    255.44341 
   12650     64.99881     64.99881     64.99881    -47.97853   -67.125829    173.12872   -307.17766   -32.988068    207.92908   -272.39371   -43.821693    197.45225   -282.83985   -54510.326    254.79481 
   12700    64.996559    64.996559    64.996559     17.99128    23.333446     264.4276   -216.06554   -11.057725    229.65545    -250.7791    41.698119    281.70221   -198.75771   -54511.652    256.09193 
   12750    64.996803    64.996803    64.996803    71.864473    136.99288    378.71323   -101.67042    50.966505    292.24711   -188.14782    27.634031    268.89068   -211.51516   -54511.964    256.90743 
   12800    65.000501    65.000501    65.000501   -84.067739    3.2954419    242.42687   -237.73158   -125.78042    115.41084   -364.81852   -129.71824    111.64693   -368.55822   -54511.625    257.41836 
   12850    65.000385    65.000385    65.000385   -103.79042   -76.363219    165.07761   -315.14764   -84.208979     156.7481   -323.53208   -150.79907    90.838698   -389.38527   -54509.999    257.31219 
   12900    64.997288    64.997288    64.997288    102.89599    149.97672    391.38467   -88.964344    80.143802    320.96215   -159.45779    78.567438    320.03437   -160.37865   -54508.286    257.16696 
   12950    64.998857    64.998857    64.998857    8.1198202    33.073775    273.91865   -206.45607    10.227067    252.12283   -228.17534   -18.941381    221.55602   -258.80845   -54509.863    258.57239 
   13000    65.001336    65.001336    65.001336     4.148757    50.896081    292.41961   -187.80775   -11.761826    228.96746   -251.26991   -26.687984    214.90068   -265.40653   -54499.798     254.4752 
   13050    65.001213    65.001213    65.001213   -67.543318   -63.408973    176.91625   -303.25801   -68.435593    172.54227   -307.64555    -70.78539    169.98867   -310.21727   -54512.052    260.91953 
   13100    64.999437    64.999437    64.999437    63.374919    18.860217    261.49508    -218.8654    141.22191    382.26992   -98.088058    30.042625    272.14247   -208.26141   -54502.337    256.98134 
   13150    65.001316    65.001316    65.001316    3.0805994    87.551328    327.75316   -152.38908   -47.383658     194.1457   -286.07434   -30.925872    210.54219   -269.70672   -54506.677    259.68345 
   13200    65.003166    65.003166    65.003166   -68.636709   -96.357817    146.02996   -334.11344    -16.01032    225.13099   -254.95195    -93.54199    147.55648   -332.55863   -54504.828    259.45868 
   13250    65.001479    65.001479    65.001479    32.653645    37.521556    278.02032   -202.23133   -16.549132    224.30286   -255.87426    76.988512    318.27165   -161.94841   -54501.264    258.42198 
   13300    65.000468    65.000468    65.000468    76.767082    116.47616    357.50699   -122.73205    106.00672    347.56714   -132.67618    7.8183692    247.63862    -232.6856   -54500.986    258.93216 
   13350    65.002986    65.002986    65.002986   -21.808471   -54.704772    185.45703    -294.7245    15.346278    255.90129   -224.26609    -26.06692    214.85959   -265.27875   -54502.687    260.37581 
   13400     65.00484     65.00484     65.00484   -92.323788   -39.295602    201.22562   -278.84274   -196.96892     44.22757   -435.88249   -40.706841     201.1497    -278.8859   -54502.463    260.90699 
   13450    65.003178    65.003178    65.003178    1.2517954     -52.6411    189.10369   -291.09408    125.13733    365.98661   -114.10259   -68.740845    172.77945   -307.39025   -54500.886    260.79843 
   13500    65.000974    65.000974    65.000974    50.716371    148.11696    388.54911   -91.708807   -137.30827    104.31078   -375.97886    141.34043    380.39501   -99.831593    -54501.01     261.4921 
   13550    65.002346    65.002346    65.002346    2.1239661   -47.708913    192.78008   -287.41388    101.42617    341.98328   -138.21158   -47.345358    194.89565   -285.31524   -54500.878    262.05624 
   13600    65.004985    65.004985    65.004985   -20.253338   -22.755128    217.87039   -262.18592   -63.920124    176.39789    -303.6725    25.915238    266.53411   -213.57837   -54496.681    260.70149 
   13650    65.005226    65.005226    65.005226   -87.526899    16.806257    258.36896   -221.66042   -146.15456    95.654996    -384.4058   -133.23239    107.95412   -372.10949   -54501.464    263.58346 
   13700    65.002632    65.002632    65.002632    100.30422    50.569336    292.30204   -187.90035    141.16147    382.93502   -97.237881    109.18186     350.3286   -129.92268    -54494.08     260.7215 
   13750    65.003402    65.003402    65.003402    53.458132    80.512855    321.52106    -158.6089    38.585107    278.78994   -201.36188    41.276434    282.20948   -197.90579   -54497.219    262.82535 
   13800    65.006493    65.006493    65.006493   -76.420954   -104.70327    136.26997   -343.69757   -42.275807    199.20622   -280.76798   -82.283784    158.08671    -321.9263   -54496.528    263.11273 
   13850    65.006436    65.006436    65.006436   -32.329149   -53.062222    187.85412   -292.15886   -39.602029    200.07214   -279.93798   -4.3231964    236.09534   -243.89698   -54494.241    262.64509 
   13900    65.004981    65.004981    65.004981   -53.916576    1.3022331    243.14019   -236.95954     -67.4361    173.50377   -306.53622   -95.615861    145.53977   -334.53473   -54499.937    265.94582 
   13950    65.004154    65.004154    65.004154    77.906495    80.087439    320.94138   -159.18069     65.18167    305.88693   -174.25671    88.450376    329.98537   -150.19109   -54493.826    263.67168 
   14000    65.007407    65.007407    65.007407   -54.849822    60.869217    302.51843   -177.42738    -75.98163    165.92012   -314.07707   -149.43705    91.294301   -388.63884   -54493.804    264.26642 
   14050    65.008317    65.008317    65.008317   -82.389115   -137.87714    103.06723   -376.81739   -10.521322    230.51873   -249.39097   -98.768883    142.24764   -337.71255   -54495.404    265.62948 
   14100    65.005065    65.005065    65.005065    95.948196    170.79844    412.01865   -68.089278   -9.6166365    231.93624   -248.23077    126.66278    368.11955   -112.04435   -54486.898    262.21159 
   14150    65.005911    65.005911    65.005911    22.082133    11.546444    252.79792   -227.25261    75.970525    317.34118   -162.72899   -21.270569    218.98318   -261.14766   -54491.383    264.92977 
   14200    65.007937    65.007937    65.007937    -58.42636   -48.734901    191.60661   -288.28369   -53.355011    186.86268   -293.06718   -73.189167    168.21963   -311.72046    -54493.35    266.45756 
   14250    65.007679    65.007679    65.007679   -16.233876    41.610205    283.30812   -196.66939   -20.009525     221.3119   -258.64279   -70.302309    170.79859   -309.16266   -54491.672     266.2579 
   14300    65.006925    65.006925    65.006925   -10.505199   -65.579534     176.0516   -303.90934    40.409526    282.09387   -197.88797    -6.345588    234.27392    -245.7683   -54490.655    266.36794 
   14350     65.00673     65.00673     65.00673    49.075549    142.86479    384.72127   -95.347182   -19.692486    221.61435   -258.46205    24.054345    266.08831   -213.90636   -54488.047    265.72215 
   14400    65.007994    65.007994    65.007994    16.710179   -15.138417    225.28739   -254.70259    68.778712     309.1703   -170.76098   -3.5097587    237.08412   -242.97034   -54484.438    264.60465 
   14450     65.00909     65.00909     65.00909    -43.69426    59.878317    299.73671   -180.14922   -64.010641    177.29053   -302.64364   -126.95046    113.53317   -366.45293   -54488.473     267.0934 
   14500    65.007568    65.007568    65.007568   -10.921023    2.7990137    243.04891   -236.89441    -23.74924    216.40766    -263.6071   -11.812844    228.81176   -251.24433   -54488.713    267.78771 
   14550     65.00719     65.00719     65.00719    3.3504138    35.229775    277.19126   -202.77037   -52.289683    189.00861   -290.96113    27.111149    268.05817   -211.91394   -54493.302    270.53229 
   14600    65.009272    65.009272    65.009272   -15.108985    15.452593    255.88648   -223.99265    22.641124    263.97037   -215.94559   -83.420671    157.33858   -322.54995   -54486.244    267.77634 
   14650    65.010254    65.010254    65.010254   -91.752327   -112.91136    128.72584   -351.10852   -12.490619    227.81199   -252.08346     -149.855    90.865388   -389.03349   -54489.729    269.99201 
   14700    65.008623    65.008623    65.008623    85.935015    103.89113    345.60812   -134.38033    114.02415    354.83755   -125.12773    39.889762    281.88586    -198.0585   -54482.595    267.18902 
   14750    65.010609    65.010609    65.010609   -10.552316   -25.817004    215.15701   -264.71087   -7.4034931     234.7237   -245.09484    1.5635486    242.52603   -237.34273   -54484.105    268.46838 
   14800    65.011172    65.011172    65.011172   -47.559096   -54.341083    186.30003   -293.59781   -36.163334    203.57505   -276.30091   -52.172872    188.60692   -291.30586   -54480.067    267.12621 
   14850    65.009108    65.009108    65.009108    54.944294    89.664882    331.00705   -149.00265    58.201578    298.99655   -180.97022    16.966422    258.71855   -221.26617   -54481.505    268.36541 
   14900    65.009679    65.009679    65.009679    26.792246    3.1491432    242.23982   -237.61754    3.1822088    243.82828   -236.06531    74.045387    315.04525   -164.83089   -54484.666    270.42309 
   14950    65.011485    65.011485    65.011485     -1.65824    22.471889    263.62334   -216.19632   -38.017178    203.39561   -276.54675    10.570569    249.96759   -229.88265   -54482.398    269.90664 
   15000    65.013386    65.013386    65.013386   -138.37133    -245.5056   -4.1390823   -483.86341   -95.591916    145.99087   -333.80786   -74.016473    167.22105   -312.52712   -54483.589    271.02236 
   15050    65.010453    65.010453    65.010453    45.442243    69.425153    310.93388   -168.90086   -22.447442    218.72982   -261.16917    89.349019    331.29304   -148.62103   -54479.846    269.80891 
   15100    65.008626    65.008626    65.008626    171.93128     184.4324     426.6908   -53.317826    223.31028    463.35391   -16.601854    108.05117    348.77634   -131.26394   -54474.735    267.94472 
   15150    65.012947    65.012947    65.012947   -62.118027    31.027039      270.445   -209.34061   -110.53104    129.48488   -350.30977   -106.85008     133.6935   -346.05194   -54480.106    271.02554 
   15200     65.01491     65.01491     65.01491   -66.311121   -84.115941    156.24805   -323.41109   -60.521713     180.7939   -298.89883   -54.295709    186.02842   -293.58121   -54480.086    271.55623 
   15250    65.013048    65.013048    65.013048   -58.251712   -25.907238     215.6529   -264.09726    -153.8837    87.727583   -392.09699    5.0358001    245.33137   -234.46849   -54480.336    272.21323 
   15300     65.01022     65.01022     65.01022    107.10497      37.3931    279.32643   -200.62727    172.90603    414.35249   -65.630055     111.0158    351.92199   -128.02029   -54476.409    270.89648 
   15350    65.013048    65.013048    65.013048    6.9630288    22.901903    263.63087   -216.15092    75.518397    315.31629   -164.52826   -77.531213    164.31549    -315.4442   -54475.588    271.04423 
   15400    65.015961    65.015961    65.015961   -120.74608   -133.19286    107.75867   -371.86213     -44.9016     196.5419   -283.08392   -184.14377    56.699587   -422.90153   -54478.254    272.83791 
   15450    65.012506    65.012506    65.012506    62.279189    110.93293    351.01717    -128.7916    79.757232     320.4144   -159.42477   -3.8525983    236.90695   -242.93036   -54473.458    271.10258 
   15500    65.011012    65.011012    65.011012    32.563301    51.581586    291.84432   -188.02863    55.233134    296.40371   -183.47901    -9.124819    231.58536   -248.28757   -54478.992    274.24166 
   15550    65.012798    65.012798    65.012798    38.679001    28.254017    268.42732   -211.42581   -31.997597    207.64696   -272.16346    119.78058    360.49444   -119.29465   -54472.023    271.47045 
   15600    65.015475    65.015475    65.015475   -113.00022   -43.503041    197.30833     -282.316   -86.961572    154.39433   -325.29244   -208.53606    30.705483   -448.96686   -54479.229    275.39123 
   15650    65.013988    65.013988    65.013988    33.516209   -38.392273    202.95164   -276.85815    126.62597    367.02251   -112.83463    12.314932    253.10599   -226.69105   -54470.365    271.72068 
   15700    65.013892    65.013892    65.013892   -12.483284    11.545993    251.70066   -228.09979   -3.2541272    237.84552     -241.945   -45.741718    195.86995   -283.86466   -54475.236    274.53773 
   15750    65.014695    65.014695    65.014695   -6.2480269   -50.028596    191.25668    -288.4184      86.6567    328.40804   -151.30327   -55.372184     185.9044    -293.7311   -54475.806    275.32212 
   15800    65.015646    65.015646    65.015646   -2.5484339    22.841249    264.13575   -215.60423   -24.440238    216.66606   -263.06457    -6.046313     234.6946   -245.03064   -54467.724    272.01642 
   15850    65.015739    65.015739    65.015739    1.7944996    -18.91172     221.5424    -258.1615    72.310908    312.97783   -166.63193   -48.015689     193.2573   -286.45124   -54470.857    274.00323 
   15900    65.015554    65.015554    65.015554   -22.324492    42.314653    283.53211   -196.13119   -46.172967    194.38592   -285.32941   -63.115161    177.06902   -302.57478   -54473.953    275.97205 
   15950    65.015689    65.015689    65.015689    6.6346471   -59.165953    181.32053   -298.36778    86.173101    326.53006   -153.17138   -7.1032074    233.52731   -246.11643   -54472.437    275.75768 
   16000    65.017294    65.017294    65.017294   -56.727692    7.0934448    248.15607   -231.39479      33.9819    275.09641     -204.522   -211.25842    30.066773   -449.57867   -54473.437    276.72743 
   16050    65.017123    65.017123    65.017123   -5.0597154   -79.497209    162.06686   -317.62894    97.820092    339.17102    -140.4575   -33.502029    207.58843   -272.00407   -54467.162    274.26088 
   16100    65.015248    65.015248    65.015248    41.651353     4.521986    244.53407   -235.18052     90.75755    331.41747   -148.36695    29.674523    270.22369   -209.51159   -54468.167    275.22757 
   16150      65.0158      65.0158      65.0158     70.35859    117.00293     357.4371   -122.25623    52.631225    294.12631   -185.60984    41.441612    283.15046   -196.57524   -54469.126    276.16838 
   16200    65.019601    65.019601    65.019601   -52.930759   -85.384887    154.82549   -324.74075    80.048282    320.37499   -159.13342   -153.45567    88.396478   -391.12771   -54463.959    274.21704 
   16250    65.019243    65.019243    65.019243   -36.847298    89.317408    331.03335   -148.48254   -141.29634    98.664573   -380.89574   -58.562959    181.05701   -298.47442   -54466.691    275.99277 
   16300    65.015942    65.015942    65.015942    37.740344    59.871175    300.05553   -179.65136    118.66012    358.57941   -121.13443    -65.31026    174.70154   -305.04219   -54468.963     277.5491 
   16350    65.015859    65.015859    65.015859    25.590161    19.363696    259.88374   -219.73144    48.932505     290.4157   -189.30676    8.4742814    249.10562   -230.60203   -54470.586    278.79459 
   16400    65.019289    65.019289    65.019289   -36.130788   -30.778719    210.90379    -268.6419   -22.302117    218.37678   -261.16895   -55.311528    186.58345     -292.953   -54465.101    276.68149 
   16450    65.019655    65.019655    65.019655   -51.876899    21.975224    262.13006   -217.33303   -37.736349    202.76238   -276.78509   -139.86957    101.11937   -378.39668   -54464.084    276.67642 
   16500    65.016357    65.016357    65.016357    53.143815   -32.704092    208.01365   -271.69869    112.16924    353.54689   -126.16835    79.966299       319.47   -160.21397   -54465.108    277.62941 
   16550    65.016166    65.016166    65.016166    53.266236    92.772185    333.06832   -146.57481     125.1644    364.79015   -114.97542   -58.137875    183.17679   -296.51617   -54465.601     278.3304 
   16600    65.019552    65.019552    65.019552   -43.767156    -83.60245      157.617   -321.87991   -39.139157    201.70961   -277.88441   -8.5598615    231.77402   -247.76427   -54464.971    278.49631 
   16650    65.021155    65.021155    65.021155    -105.7246   -102.60175    138.91001   -340.55212   -121.21079    120.54004   -358.90831    -93.36126    147.44289   -331.93759   -54465.836     279.3687 
   16700    65.018198    65.018198    65.018198    1.1595646    32.816794    272.14304   -207.44808   0.81236229    242.84464   -236.84024   -30.150462    211.55077   -268.05273   -54463.255     278.6116 
   16750    65.016691    65.016691    65.016691    114.15962    128.41353    369.82101   -109.89404    201.63827    442.67153   -37.083059     12.42704    252.94609   -226.80248   -54460.817    277.91766 
   16800    65.020568    65.020568    65.020568   -27.240336   -30.322576    210.87657   -268.59678   -32.303891    210.25622   -269.23726    -19.09454     222.1762   -257.31804   -54460.945    278.43255 
   16850    65.021841    65.021841    65.021841   -64.657536    3.4651342    243.92325   -235.47727   -154.27829    84.952557   -394.52379   -43.159447     197.6587   -281.72253   -54459.184    278.05516 
   16900    65.018923    65.018923    65.018923    31.536944    28.778775     270.0748   -209.49356    80.439998    320.50171   -159.05558   -14.607942    224.84846   -254.71209   -54462.847    280.23138 
   16950    65.018714    65.018714    65.018714    15.449823    41.991716    283.10765   -196.46222    66.823474    307.62452   -172.00762    -62.46572    178.30799   -301.30727   -54464.573    281.49096 
   17000    65.021634    65.021634    65.021634   -63.182172   -96.269591    145.36041   -334.05755   -45.908221     195.5182   -283.97338   -47.368703    194.92795   -284.54716   -54460.865    280.18194 
   17050    65.022022    65.022022    65.022022   -16.494168     25.14977    267.00595   -212.40703   -37.266088    203.48631   -276.03761   -37.366184    203.44411   -275.95972   -54457.345     278.9623 
   17100    65.020008    65.020008    65.020008    56.617963    28.223817    268.36234   -211.23041     90.17647    330.96191   -148.60082    51.453603    293.31321   -186.22916   -54456.888    279.18476 
   17150    65.020185    65.020185    65.020185    28.324724    6.0551605    246.56209   -232.91743    42.956623    283.86261   -195.70725    35.962388    276.42257   -203.14817   -54458.833    280.54062 
   17200    65.021797    65.021797    65.021797    8.6741434   -20.626293     219.7099   -259.69351    68.754095    308.86504   -170.57026   -22.105372    218.54348   -260.91328   -54459.035    281.06904 
   17250    65.023447    65.023447    65.023447   -71.032762   -119.17381    121.96231    -357.4595   -83.733662    158.17176   -321.24216   -10.190813    229.95236   -249.45536   -54455.991    280.06118 
   17300    65.021845    65.021845    65.021845   -5.6163435    54.636653    295.38844   -184.01412    7.3550402    248.62875   -230.83127   -78.840723    161.75044   -317.73088   -54456.984    280.96098 
   17350     65.02034     65.02034     65.02034    88.800759    32.341657    272.44897   -207.03774     115.5278    356.23696   -123.28971    118.53282    360.45009   -119.04526   -54458.764    282.22728 
   17400    65.023046    65.023046    65.023046   -5.7676901      48.9984    289.44557   -189.91791   -23.567438    217.28022   -262.18926   -42.734032     198.3805   -281.05886   -54455.673    281.18768 
   17450    65.024608    65.024608    65.024608   -41.019949   -83.642371     157.6702   -321.65919   -29.417055    210.96722   -268.41192   -10.000421    230.52015   -248.76965    -54453.27     280.4691 
   17500     65.02279     65.02279     65.02279   -52.294393    -33.37452    206.75992   -272.61668    -29.87695    211.04544   -268.39193   -93.631709    146.05906   -333.35419   -54458.585    283.39456 
   17550    65.020522    65.020522    65.020522    74.425778    45.614875    287.33139   -192.25197    138.54904     379.8177   -99.714718    39.113422    279.60394   -199.89424   -54455.654    282.42222 
   17600    65.023053    65.023053    65.023053   -3.0265697     14.29652    255.16514   -224.25604    41.061451    281.84313   -197.52634    -64.43768     176.8082   -302.55274   -54455.987    282.99059 
   17650    65.026162    65.026162    65.026162   -61.866777    41.605945    282.82132   -196.39811   -121.00946    120.15648   -359.11205   -106.19681    134.03799   -345.24695       -54455    282.93211 
   17700    65.025161    65.025161    65.025161   -70.109818    -100.8315    140.62263    -338.6523   -34.257856    205.61965   -273.73718   -75.240099    166.46724   -312.87234   -54454.496    283.09927 
   17750    65.020543    65.020543    65.020543    140.04881    88.171814    328.52311   -151.03214    192.11292    434.25777    -45.30683    139.86169    380.66043   -98.896198   -54448.636    280.73391 
   17800    65.022824    65.022824    65.022824    80.183471    156.23188    397.81494   -81.601726    166.11584    406.84896   -72.608702   -81.797306    158.84996   -320.56919   -54453.477    283.42088 
   17850    65.028151    65.028151    65.028151   -132.35297   -109.85814    131.36046   -347.80642   -77.842986     162.5466   -316.61144    -209.3578    30.962229   -448.25287   -54453.098    283.64068 
   17900    65.026241    65.026241    65.026241   -87.127413   -77.685703    163.30828   -315.94232   -75.027213    166.16714   -313.11575   -108.66932    132.41979   -346.84385   -54452.402    283.70515 
   17950    65.021543    65.021543    65.021543    116.01116    71.111783    311.62841   -167.82839    151.36528    393.82431    -85.72533     125.5564    366.61977   -112.88299   -54452.462    284.12895 
   18000     65.02299     65.02299     65.02299     61.98417    23.133061    263.74212    -215.6635    115.84368    356.77447   -122.67002     46.97577    288.29715   -191.09613   -54451.506    284.06771 
   18050    65.027859    65.027859    65.027859   -73.919943   -95.352754    145.39583   -333.77546   -44.458946    197.03477   -282.16411   -81.948129    159.01773   -320.20318   -54449.265    283.39432 
   18100    65.028024    65.028024    65.028024   -60.713176   -62.679673    178.41084   -300.79017   -31.397564    209.18892   -270.02611   -88.062291      152.368   -326.87992   -54444.525     281.5406 
   18150    65.023369    65.023369    65.023369    67.603995   -53.219272     187.7702   -291.57213    256.16721    496.77933    17.370119  -0.13594975    240.55927   -238.83528   -54452.287    285.59055 
   18200    65.022215    65.022215    65.022215    145.00628    159.89843    399.49899   -79.933707    157.81947    398.99826   -80.512427    117.30094    357.34914    -122.1853   -54446.432    283.20416 
   18250    65.027645    65.027645    65.027645   -88.022508   -265.08929   -23.650773   -502.85383    31.333697    271.16905   -208.06038   -30.311926    210.54086   -268.61605   -54450.144    285.33106 
   18300    65.028954    65.028954    65.028954   -129.76512   -121.10681    119.85723   -359.15347   -121.47279    119.61495   -359.45094   -146.71577    94.470917   -384.66092   -54448.977    285.15448 
   18350    65.023541    65.023541    65.023541    85.758803    15.691078    255.91819   -223.50937    58.763115    300.19645   -179.21682    182.82222    423.28766   -56.130578   -54448.687    285.38657 
   18400    65.022745    65.022745    65.022745    181.56379    144.12631    386.04785   -93.393529    234.62391    475.44751   -4.0798086    165.94114    407.94554   -71.542332   -54444.088    283.57938 
   18450    65.029073    65.029073    65.029073   -81.587504   -131.97725     107.5704   -371.57159    36.422431    276.45414   -202.68222   -149.20769    92.008854   -387.13945    -54444.45    284.11711 
   18500    65.029373    65.029373    65.029373   -121.52831   -203.59236    36.385541   -442.70172    -110.4694    129.88578   -349.31966   -50.523158    190.41774   -288.68967   -54446.534    285.46264 
   18550    65.023478    65.023478    65.023478    101.28445    118.48629    357.80316   -121.56843    124.35305    364.90541   -114.50343    61.014014    301.10545   -178.34087   -54449.156    287.06003 
   18600    65.024011    65.024011    65.024011    90.475821    66.870527    308.37516    -171.0564     100.7094     342.1312   -137.32009    103.84754    344.87472   -134.55167   -54445.476    285.67684 
   18650    65.029994    65.029994    65.029994   -122.35738   -95.539394    144.98252   -334.08315   -113.32187    127.69111   -351.40554   -158.21088    82.684634   -396.36816   -54448.672    287.54479 
   18700    65.029167    65.029167    65.029167    -85.41387   -93.563021    147.46443   -331.62045   -52.934396    187.86606    -291.3064   -109.74419    132.44047   -346.72311   -54444.862    286.09575 
   18750    65.023966    65.023966    65.023966    211.58184    121.20112    360.81077    -118.5787    312.12171    553.75734    74.313417     201.4227    443.45014   -35.969628   -54438.842    283.60127 
   18800    65.026896    65.026896    65.026896   -39.678954   -53.846292    188.64855   -290.56251    33.453014    272.59628   -206.63036   -98.643583    141.63803   -337.62585   -54447.042    287.82196 
   18850    65.029186    65.029186    65.029186   -38.880516   -63.744145    176.51534    -302.7024   -18.875494    221.53889   -257.71738   -34.021909    206.12487    -273.1021   -54438.872    284.30767 
   18900    65.028073    65.028073    65.028073   -42.708723   -7.7674894    232.22689   -247.02205   -1.8684282    239.01377   -240.14832   -118.49025    122.08766   -357.07919   -54446.462    288.23498 
   18950    65.025881    65.025881    65.025881    42.657124    31.453817    272.40861   -206.87786    66.095816    306.18588   -173.12113     30.42174    272.04319   -207.25113   -54443.985    287.40804 
   19000    65.026351    65.026351    65.026351    83.683138    16.639203    257.29122   -222.02725    92.973784    333.85937   -145.45628    141.43643    382.07618    -97.20637   -54441.231    286.44507 
   19050    65.028881    65.028881    65.028881   -51.658857     10.40396    249.52387   -229.60491    50.251398    291.85425   -187.33538   -215.63193    24.346246   -454.89107   -54441.376    286.84831 
[...]
   13800        0.138    291.04478    7.7100765  0.025116864  0.020491933 -0.021742922    7.6883127    7.7317024     616.3365   -53360.812   -25852.284 
   13850       0.1385    291.51861    7.7382622  0.011682168  0.025944087  -0.02173776    7.7164404    7.7598196     617.3399   -53355.004   -25919.628 
   13900        0.139    290.29483    7.7460818 -0.023024333  -0.01759794 -0.021741094    7.7242759    7.7676616    614.74834   -53345.566   -25684.865 
   13950       0.1395    291.97503    7.7858493 -0.025838676 0.0052134879 -0.021727707     7.764149    7.8075077    618.30647   -53342.249    -25884.08 
   14000         0.14    291.32814    7.8244783  0.019659344  0.015252095 -0.021702528    7.8026192     7.845927    616.93655   -53333.989   -26197.966 
   14050       0.1405    292.00872    7.8645431  0.015198608  0.029408772 -0.021689343    7.8427608    7.8860419    618.37779   -53328.493   -26363.835 
   14100        0.141    289.43427    7.8265102 -0.013088092 -0.016648748  -0.02169467    7.8048111    7.8481026    612.92597   -53316.123   -25989.245 
   14150       0.1415    289.16031    7.8212713 -0.026198965 -0.032965605 -0.021685704    7.7995098    7.8427832     612.3458   -53308.634   -25873.689 
   14200        0.142    289.88201    7.8584449  0.022851299  0.019017101 -0.021652948    7.8366713    7.8798786    613.87413   -53303.226   -26334.378 
   14250       0.1425    291.53787    7.9204572  0.032809204  0.033112633 -0.021637329    7.8987347    7.9419105     617.3807   -53299.759   -26621.263 
   14300        0.143    290.38301    7.8930614 -0.0015763817 -0.020272017 -0.021646726    7.8715375    7.9147319    614.93509    -53290.33   -26237.377 
   14350       0.1435    289.45291    7.9110067 -0.032753643 -0.026507029  -0.02164169    7.8891484    7.9323327    612.96545   -53281.372   -26172.487 
   14400        0.144    290.65541    7.9386583   0.01872612 0.0086795685 -0.021616065    7.9170549    7.9601873    615.51193   -53276.903   -26553.547 
   14450       0.1445    289.27663    7.9438435  0.020359268   0.02783822 -0.021595162    7.9221258    7.9652158    612.59214   -53266.958   -26640.137 
   14500        0.145    288.24473    7.9253352 -0.0019551395 -0.005332819 -0.021593122    7.9037171    7.9468028    610.40691   -53257.767   -26393.491 
   14550       0.1455     288.1228     7.937292 -0.0071436632 -0.023712615 -0.021589014     7.915656    7.9587334    610.14871   -53250.482   -26354.786 
   14600        0.146    289.73322    7.9963718 -0.008315551  0.011616432  -0.02156868    7.9746735      8.01771    613.55905   -53246.832   -26665.575 
   14650       0.1465    288.35812    8.0219524  0.018720144 -0.0023470001 -0.021551693     8.000388    8.0433899    610.64703   -53236.819   -26794.419 
   14700        0.147    289.19428    8.0323342 0.0023991844 -0.0010004881 -0.021543726    8.0106969    8.0536827    612.41775   -53231.497    -26779.11 
   14750       0.1475    288.15752    8.0245376 -0.019278776 -0.0085517223 -0.021537127    8.0029669    8.0459392    610.22223   -53222.191    -26655.69 
   14800        0.148    287.69309    8.0220678 -0.029001169  0.021506594 -0.021519294    8.0005205    8.0434566    609.23872   -53214.111   -26715.244 
   14850       0.1485    288.11223    8.0699743  0.024772955  0.012796251 -0.021496232    8.0484268    8.0913163    610.12632   -53207.863   -27025.145 
   14900        0.149    287.66028    8.0699985  0.013724475 -0.00075351667 -0.021490253    8.0483853    8.0912628    609.16925    -53199.75   -26943.231 
   14950       0.1495    286.49932    8.0552713 -0.026078246 -0.027165977 -0.021489258    8.0338091    8.0766843    606.71071   -53190.128   -26673.424 
   15000         0.15    288.36511    8.0436169 -0.0055405225 -0.023123398 -0.021471429    8.0220587    8.0648979    610.66184   -53186.944    -26716.51 
   15050       0.1505    287.84796    8.0221898  0.032074638  0.046722049 -0.021444126     8.000624    8.0434079    609.56668   -53178.717   -27003.288 
   15100        0.151    289.86503     8.009349  0.022580725  0.013022977  -0.02144107    7.9878094    8.0305872    613.83818   -53175.875   -26816.509 
   15150       0.1515    289.78785    7.9487241 -0.018514708 -0.031619197 -0.021452645    7.9272491    7.9700501    613.67473   -53168.607   -26328.634 
   15200        0.152    290.31853    7.8667592 -0.016873746 -0.033512904 -0.021441646     7.845208    7.8879866    614.79854   -53162.699   -26054.575 
   15250       0.1525    288.52284    7.7777716  0.018989735 0.0065869689 -0.021403408    7.7563071    7.7990084    610.99587   -53151.958   -26011.161 
   15300        0.153    292.59979    7.6874063  0.040995206   0.05111153 -0.021383281    7.6660883    7.7087488    619.62949   -53153.718    -25931.71 
   15350       0.1535    293.44753    7.5105271  -0.01715212  0.010782774 -0.021394141    7.4889932    7.5316757    621.42472   -53148.786   -25013.859 
   15400        0.154    300.38177    7.3148832 -0.023705618  -0.03372703 -0.021407491    7.2933762    7.3360856    636.10915   -53156.901   -24191.502 
   15450       0.1545    303.37336     7.099078 -0.005157063 -0.022685555 -0.021391979    7.0775773    7.1202555    642.44434   -53156.917   -23570.784 
   15500        0.155    310.56808    6.8335628  0.028671026  0.061517304 -0.021369793     6.812048    6.8546815    657.68038   -53166.129    -23079.17 
   15550       0.1555    319.07102    6.4622776 -0.017969937  0.074104983 -0.021391956    6.4406891    6.4833674    675.68679   -53178.592   -21728.042 
   15600        0.156    328.59338    6.0768926 -0.054305874 0.0032310691 -0.021430606    6.0553695    6.0981261    695.85201   -53193.752   -20086.059 
   15650       0.1565    339.98605    5.7091227 -0.039253418 -0.011629085 -0.021444042    5.6875176    5.7303018     719.9779   -53213.419   -18860.801 
   15700        0.157     349.9769    5.3833154  0.014535402  0.024428597 -0.021436115    5.3616491    5.4044176    741.13522   -53230.814   -18074.265 
   15750       0.1575    356.34055    5.0262823  0.046377412  0.025275241 -0.021441856    5.0045953    5.0473756    754.61132   -53241.297   -16993.116 
   15800        0.158    363.93805    4.6373933  0.051548958 -0.025566959 -0.021482192    4.6158059    4.6586677    770.70031   -53255.135   -15544.584 
   15850       0.1585    369.39373    4.2720394  0.011057645  -0.04033417 -0.021531769    4.2502997    4.2932619    782.25363   -53265.144   -14142.543 
   15900        0.159    376.31002    3.9450294  0.025588824 -0.020515676 -0.021562726    3.9233977    3.9664227    796.90004   -53278.787   -13167.008 
   15950       0.1595    377.48704    3.6586387  0.055163305 -0.028075241 -0.021590385    3.6370505    3.6801313     799.3926   -53280.681   -12285.756 
   16000         0.16    376.28538    3.3967325  0.017835897  0.040873249 -0.021619107    3.3749752    3.4181141    796.84787   -53277.693   -11518.139 
   16050       0.1605    381.43001    3.1451302  0.059913572  0.011176456 -0.021668504    3.1234002    3.1666387     807.7425   -53288.357   -10720.734 
   16100        0.161    383.02458    2.9185524 -0.015108025 -0.013841913 -0.021724136    2.8966696    2.9400208    811.11925    -53291.71   -9632.0082 
   16150       0.1615    382.24622    2.6707841 -0.042510109 -5.8002395e-05 -0.021771339    2.6490349    2.6924807    809.47096   -53290.255     -8760.72 
   16200        0.162    384.28542    2.5132043 0.0072497602  0.064284504 -0.021792286    2.4912077    2.5346959     813.7893   -53295.055   -8615.7952 
   16250       0.1625    387.55178    2.3624185  0.017334212   0.05188648 -0.021829141    2.3404772    2.3840398    820.70637   -53302.835   -8105.4639 
   16300        0.163    391.04332    2.2023952 -0.0029853183  0.021283681 -0.021894133    2.1804014    2.2240949    828.10031   -53311.338   -7402.3119 
   16350       0.1635    393.07265    2.0627596 0.00033388423 -0.033342202  -0.02195103    2.0406079    2.0844161    832.39776   -53316.903   -6765.8377 
   16400        0.164    392.99985     1.947482   0.01643309 -0.024855808 -0.021983071    1.9254258    1.9692983    832.24358   -53318.177   -6463.5308 
   16450       0.1645    397.69265    1.8597323  0.044083245  0.021783537 -0.022004472    1.8376172    1.8815326    842.18138   -53329.736   -6418.6635 
   16500        0.165    399.56344    1.8021243  0.023002338 -0.0032643613 -0.022040734    1.7799839    1.8239722    846.14309   -53335.512   -6072.8742 
   16550       0.1655    398.63934    1.7065534 -0.048249614 0.0018889645 -0.022081165    1.6842471    1.7283169    844.18615   -53335.387   -5533.9758 
   16600        0.166    401.63186    1.6554372  0.017345694  0.015262818 -0.022091148    1.6333351    1.6774249    850.52331   -53343.667   -5626.8189 
   16650       0.1665    406.61402    1.6071214  0.057283454   0.04180605  -0.02211163    1.5850009    1.6291321    861.07388   -53356.368   -5687.3695 
   16700        0.167    404.39975    1.5220623 -0.0071849052 -0.018915642 -0.022161899    1.4996612    1.5438938    856.38479   -53353.953   -4986.5392 
   16750       0.1675    407.19179    1.5265762 -0.065372073 -0.0070952308 -0.022184999    1.5042308    1.5485102    862.29742   -53362.136   -4847.0295 
   16800        0.168    405.66592    1.5141962 -0.005861296  0.011501671 -0.022176166    1.4917432    1.5360046    859.06612   -53361.272   -5066.1219 
   16850       0.1685    407.07406    1.5114259   0.02089229   0.05174981 -0.022168276    1.4890806    1.5333259     862.0481   -53366.675   -5280.2265 
   16900        0.169    406.63752    1.4741978 -0.015798871  0.017131132 -0.022184966    1.4517944    1.4960735    861.12365   -53368.237   -4918.4335 
   16950       0.1695    410.66948    1.4646052 -0.020337987  0.017340096  -0.02220282    1.4423696    1.4866851    869.66201   -53379.317   -4872.0243 
   17000         0.17    408.79544    1.4546807 -0.038271172 -0.001544997 -0.022210147    1.4321781    1.4765088    865.69342   -53377.932    -4716.215 
   17050       0.1705    411.86404    1.4204592   0.04240294 0.0035351829 -0.022209835    1.3983195    1.4426494    872.19168   -53387.061   -4887.9911 
   17100        0.171    411.47291    1.3799741  0.039945831 -0.014297978 -0.022216849    1.3576275    1.4019718     871.3634   -53388.914   -4685.4067 
   17150       0.1715     415.6465    1.4015654  0.019159239 -0.010833587 -0.022229143    1.3791234    1.4234928    880.20169   -53400.492   -4699.6367 
   17200        0.172    411.20364    1.4250032 0.0026900974 -0.025898047  -0.02224048    1.4026038    1.4469959    870.79318    -53393.82    -4672.651 
   17250       0.1725    413.48119    1.4266051 2.5208323e-05  0.013223685 -0.022235651    1.4041646    1.4485471    875.61629   -53401.357   -4799.5132 
   17300        0.173    415.44619    1.4285964 -0.012139911   0.07535237  -0.02223787    1.4061132    1.4505004    879.77749   -53408.288   -4972.6961 
   17350       0.1735    415.37694     1.413188 -0.0013389531  0.018443787 -0.022256207    1.3908092    1.4352337    879.63085   -53410.986   -4767.6428 
   17400        0.174    414.08099    1.3238422 0.0067634716 -0.024715985 -0.022281687    1.3014682     1.345944    876.88646   -53411.101   -4352.9657 
   17450       0.1745    412.73679    1.3070466  -0.02834393 -0.016673837 -0.022284857     1.284697    1.3291796    874.03989   -53411.138   -4206.7626 
   17500        0.175    415.30307    1.3450921  0.018904004 -0.0022488516 -0.022269788    1.3226474    1.3670998    879.47443   -53419.486   -4539.1576 
   17550       0.1755    418.03187    1.3752953  0.011006198  0.025073468  -0.02226149    1.3529568    1.3973924    885.25312   -53428.211   -4704.5832 
   17600        0.176    414.28934    1.3249708 -0.015053991  0.041946465 -0.022271225      1.30252    1.3469751    877.32768   -53423.228   -4506.2108 
   17650       0.1765    418.03552    1.3754292 -0.025543129  0.035982388 -0.022281719    1.3528988    1.3973757    885.26084   -53434.165   -4619.5616 
   17700        0.177     415.8377    1.3587249 0.0068948774  0.010339238 -0.022296699    1.3363783    1.3808853    880.60658   -53432.514     -4586.53 
   17750       0.1775    416.87175    1.3043095  0.023693682 -0.030539399 -0.022314497     1.281743    1.3262857    882.79637   -53437.644   -4324.8793 
   17800        0.178    413.89216     1.291808 0.0075090475 -0.038840188 -0.022317532    1.2693127    1.3138615    876.48657   -53434.335   -4201.5895 
   17850       0.1785    416.72334    1.2762378  0.069559726 -0.00091387329 -0.022319711    1.2538397    1.2983929    882.48209   -53443.399   -4482.9455 
   17900        0.179    418.12239    1.2561465  0.033608055   -0.0038504 -0.022339491    1.2336483    1.2782415     885.4448   -53449.512   -4286.3473 
   17950       0.1795    412.65072    1.2076882 -0.015397513 -0.055657145 -0.022370408    1.1851628    1.2298181    873.85763   -53441.036   -3788.7784 
   18000         0.18    413.82535    1.2302221 -0.028155016 -0.010380558  -0.02236737    1.2079026     1.252552    876.34511     -53446.6   -3972.2885 
   18050       0.1805    415.34012    1.2437416 0.0036961712  0.056498841 -0.022350641    1.2213256    1.2659414    879.55287   -53452.829   -4346.4552 
   18100        0.181     417.5726    1.2663258 0.00031224206  0.043030606 -0.022349745     1.243914    1.2885283    884.28053   -53460.628   -4365.5622 
   18150       0.1815    411.88227    1.2645511 -0.027130796 -0.044124428 -0.022354069     1.241982    1.2866047     872.2303   -53451.581   -3977.6529 
   18200        0.182    416.98469    1.2953278  0.034722518  0.049671954 -0.022339898    1.2728773    1.3174717    883.03554   -53465.389   -4599.0741 
   18250       0.1825    413.83739    1.2613692  0.018901034  0.050028486  -0.02235656    1.2389197    1.2835476     876.3706   -53461.831   -4434.3291 
   18300        0.183    417.55101    1.2296757 -0.022344408 -0.025781022 -0.022395578    1.2071529    1.2518602     884.2348   -53472.782    -3938.501 
   18350       0.1835    415.04557    1.1742498 -0.012003267  -0.04202506 -0.022413033    1.1516051    1.1963474    878.92911   -53470.543   -3734.0717 
   18400        0.184    411.66665    1.2083913 -0.0043950042  0.011989088 -0.022399196    1.1856359    1.2303503    871.77368   -53466.462   -4053.2846 
   18450       0.1845    416.80055    1.2153247  0.023400226  0.048485831 -0.022394855    1.1929729    1.2376788    882.64558   -53480.453   -4290.7024 
   18500        0.185     412.8057     1.215712 -0.032529224 -0.0080820679 -0.022412933    1.1930527    1.2377952    874.18582   -53475.122   -3917.0023 
   18550       0.1855    416.73391    1.2150063  0.012350915 -0.038932225 -0.022418408    1.1924765    1.2372301    882.50446   -53486.508   -3961.4165 
   18600        0.186    413.19957    1.2222866  0.010146899 -0.028892302 -0.022407075     1.199578    1.2443086     875.0199   -53482.093   -4011.8039 
   18650       0.1865    412.71035    1.2645499  0.036487945  0.046083834 -0.022389443     1.242022    1.2867171    873.98389   -53484.122   -4490.4057 
   18700        0.187     412.9248    1.2237834  0.023251994 0.00074515253 -0.022410148    1.2012669    1.2460039    874.43802   -53487.641   -4159.2686 
   18750       0.1875    416.64845    1.1820588 -0.028928542 0.0036902952 -0.022440814    1.1594354    1.2042348    882.32349   -53498.627   -3856.0684 
   18800        0.188    412.10646    1.1729937 -0.082810006  0.019922057  -0.02244693    1.1503911    1.1952026    872.70506   -53492.078   -3700.3526 
   18850       0.1885    412.66012     1.209767 -0.012608752  0.032322633 -0.022425712    1.1874027    1.2321713    873.87753   -53496.361   -4098.2697 
   18900        0.189    413.23056    1.2489481  0.032566484  0.039609264 -0.022410043    1.2264143    1.2711515    875.08552   -53500.619   -4403.7462 
   18950       0.1895    412.98537    1.2329792  0.033395257  0.005880248 -0.022425947    1.2104539    1.2552231    874.56629   -53503.143    -4240.849 
   19000         0.19    410.87349    1.2183578 0.0097882894 -0.071825932 -0.022447047    1.1958017    1.2406136    870.09403   -53501.618   -3854.4007 
   19050       0.1905    412.86009    1.2299516  0.034236549 -0.058206995 -0.022444405    1.2075305    1.2523372    874.30099   -53508.831   -4019.9372 
   19100        0.191    412.05642    1.2359775  0.047758375 -0.010296066 -0.022423941    1.2133366     1.258102    872.59909   -53510.186   -4244.7993 
   19150       0.1915    408.84981    1.2473024 0.0090387394   0.05732094 -0.022416879    1.2247532    1.2695041    865.80855   -53506.365   -4378.8737 
   19200        0.192    411.45511    1.2649385 -0.00020249289  0.008627884 -0.022442497    1.2424116    1.2872143     871.3257   -53514.871   -4244.5461 
   19250       0.1925    409.50181    1.2425237 -0.0021758851 -0.022742586 -0.022471655    1.2199083      1.26477    867.18926   -53513.669    -4058.684 
   19300        0.193    409.68344    1.2622841 -0.028557543 -0.020079886 -0.022468009    1.2396271    1.2844818     867.5739   -53516.985   -4045.4888 
   19350       0.1935    407.70952    1.2682982 -0.014618188 0.0098163216 -0.022454515    1.2458863    1.2907135     863.3938   -53515.698   -4211.6546 
   19400        0.194    407.39248    1.2615625  0.041215451  0.038150602 -0.022440154    1.2390243    1.2838228     862.7224    -53517.89   -4469.7617 
   19450       0.1945    408.35015    1.2326108  0.032621389  0.030391502 -0.022460827    1.2101484    1.2549884    864.75043   -53522.831   -4318.7455 
   19500        0.195    407.92211    1.2065539 -0.022165338 -0.032424793 -0.022496174    1.1838815     1.228793    863.84399   -53524.819   -3839.8791 
   19550       0.1955    408.80895    1.1814437 -0.033884883 -0.014811411 -0.022505511    1.1588502    1.2037807    865.72203   -53529.593   -3775.8246 
   19600        0.196    407.01234    1.2287206 -0.013658142 0.0076738521 -0.022486601     1.205855    1.2507475     861.9174   -53528.677   -4075.7878 
   19650       0.1965    410.01174    1.2133665  0.037341876   0.09712877 -0.022475771    1.1909132    1.2357837    868.26914   -53537.967   -4492.7906 
   19700        0.197    407.69594    1.1778383 -0.031116004 0.0010701848 -0.022513927    1.1549003    1.1998479    863.36503    -53536.07   -3825.9751 
   19750       0.1975    407.83932    1.1211602 -0.034247343 -0.046470917 -0.022536538    1.0987026    1.1436957    863.66866   -53539.289   -3468.1397 
   19800        0.198      410.608    1.1616433  0.022851323 -0.044943985 -0.022511189    1.1389983    1.1839409    869.53182   -53548.051   -3798.5022 
   19850       0.1985    408.75353    1.1689764   0.09129606   0.03372633 -0.022482389    1.1462466    1.1911307    865.60465   -53547.041   -4313.3294 
   19900        0.199    406.73166    1.1636202  0.038160413 0.0013311429 -0.022498702      1.14093    1.1858471      861.323   -53545.692   -4010.3726 
   19950       0.1995    406.42809    1.1424564 -0.042039569 -0.0059842948 -0.022523329    1.1197592    1.1647265    860.68014   -53547.946   -3648.1086 
   20000          0.2    407.29258    1.1308292 -0.059480826 0.0064373617 -0.022522621    1.1082598    1.1532255    862.51085   -53552.629   -3592.6193 
Loop time of 4000.22 on 4 procs for 20000 steps with 16384 atoms

Pair  time (%) = 3694.88 (92.367)
Neigh time (%) = 2.6559 (0.0663938)
Comm  time (%) = 170.137 (4.25319)
Outpt time (%) = 0.177393 (0.00443457)
Other time (%) = 132.367 (3.30898)

Nlocal:    4096 ave 4146 max 4009 min
Histogram: 1 0 0 0 0 0 0 1 1 1
Nghost:    7414.25 ave 7456 max 7392 min
Histogram: 1 1 1 0 0 0 0 0 0 1
Neighs:    282154 ave 286620 max 275810 min
Histogram: 1 0 0 0 0 1 0 0 1 1
FullNghs:  0 ave 0 max 0 min
Histogram: 4 0 0 0 0 0 0 0 0 0

Total # of neighbors = 1128617
Ave neighs/atom = 68.8853
Neighbor list builds = 121
Dangerous builds = 0

######################################
# SIMULATION DONE
print "All done"
All done
