
# ----------------------- ATOM DEFINITION ----------------------------
lattice		fcc ${latparam}
lattice		fcc 4.05
Lattice spacing in x,y,z = 4.05 4.05 4.05
region		whole block 0 14 0 14 0 14
create_box	1 whole
Created orthogonal box = (0 0 0) to (56.7 56.7 56.7)
  1 by 2 by 2 MPI processor grid
lattice 	fcc ${latparam} orient x 1 0 0 orient y 0 1 0 orient z 0 0 1
lattice 	fcc 4.05 orient x 1 0 0 orient y 0 1 0 orient z 0 0 1
Lattice spacing in x,y,z = 4.05 4.05 4.05
create_atoms	1 region whole
Created 10976 atoms

# ------------------------ FORCE FIELDS ------------------------------

#****************USE THIS TO TEST******************
pair_style	eam/rad
pair_coeff 			* * Al99.PC0.05.eam.alloy.rad.txt Al # pc = 0.5

# ------------------------- SETTINGS ---------------------------------
compute csym all centro/atom fcc
compute peratom all pe/atom

######################################
# EQUILIBRATION
reset_timestep	0
timestep	0.001 # default
# timestep	0.0001 # tiny time step
velocity all create 300 12345 mom yes rot no
fix 1 all npt temp 300 300 1 iso 0 0 1 drag 1

# Set thermo output
thermo 50
# thermo 1 # debug mode

# thermo_style custom step lx ly lz press pxx pyy pzz pe temp
# IMPLEMENTATION HERE

# VERSION add rad variables .v1 .v2
# thermo_style custom step lx ly lz press pxx pyy pzz pxxrad pyyrad pzzrad pe temp

# VERSION ublb separation .v3
thermo_style custom step lx ly lz press pxx pxxub pxxlb pyy pyyub pyylb pzz pzzub pzzlb pe temp

# Run for at least 10 picosecond (assuming 1 fs timestep)
run 	20000 # default
Memory usage per processor = 8.09922 Mbytes
Step Lx Ly Lz Press Pxx Pxxub Pxxlb Pyy Pyyub Pyylb Pzz Pzzub Pzzlb PotEng Temp 
       0         56.7         56.7         56.7    2496.5196    2454.4963      7624.12    7138.1392    2519.8171    7663.3972    7177.4163    2515.2453    7725.3307    7239.3498    -36879.36          300 
      50    56.784859    56.784859    56.784859    902.09853    998.94619    1243.2425    754.64575    861.90863    1106.2711    617.54207    845.44078      1089.79     601.0873   -36603.807    104.79024 
     100    56.885066    56.885066    56.885066   -4306.9915   -4305.3116   -4063.9584    -4546.803   -4298.2013   -4056.7965   -4539.7508   -4317.4617   -4076.0331   -4559.0339   -36693.797    169.48504 
     150    56.794165    56.794165    56.794165    499.51447    541.75107    785.46552    298.02178    473.93504    717.68811    230.16485    482.85731    726.64812    239.04924   -36629.356    124.08705 
     200    56.732407    56.732407    56.732407    2848.6888    2841.3292    3086.3703    2596.3553    2840.1988    3085.3201    2595.1497    2864.5384    3109.6937    2619.4585   -36648.826    138.99861 
     250    56.791772    56.791772    56.791772      162.813    148.62455    392.34802    -95.08341    202.83345    446.57615   -40.885415    136.98101    380.72098   -106.74291   -36659.532    147.00042 
     300    56.837362    56.837362    56.837362   -1784.9005   -1752.9576   -1510.4674   -1995.4946   -1802.5487   -1560.0446   -2045.0991   -1799.1952   -1556.6969    -2041.743   -36664.505    151.36635 
     350    56.798011    56.798011    56.798011   -343.34692   -308.44403   -64.846642   -552.03022   -330.12831   -86.588979   -573.65513   -391.46843   -147.89929   -635.02346   -36678.755    161.95211 
     400    56.760076    56.760076    56.760076    1513.7688    1531.0644    1775.3757    1286.7597    1473.5106     1717.813    1229.2133    1536.7313    1781.0779    1292.3923   -36663.857    152.32121 
     450    56.792604    56.792604    56.792604    91.791936    92.441628    336.15692    -151.2585    98.298277    342.06785   -145.45397    84.635902    328.39379   -159.10477   -36662.091     151.7901 
     500    56.822718    56.822718    56.822718   -1101.2584   -1095.7792   -852.85417    -1338.693    -1101.353    -858.4172   -1344.2917   -1106.6429   -863.75128   -1349.5349   -36659.955    151.20573 
     550    56.799016    56.799016    56.799016   -88.274292   -55.419951     188.0949    -298.9382   -186.17716    57.348935   -429.70388   -23.225762    220.30621   -266.76284    -36661.39    153.02203 
     600    56.774001    56.774001    56.774001    857.57303    848.55267    1092.6373    604.46819    914.11147    1158.2415    669.98284    810.05495    1054.1942     565.9173   -36667.442    158.21602 
     650    56.792244    56.792244    56.792244     201.8819     184.0495    427.72018   -59.621006    162.26066    405.97805    -81.46005    259.33554    503.06714    15.605869   -36659.397    153.38348 
     700    56.815679    56.815679    56.815679   -863.47295    -853.2323   -610.06016   -1096.3853   -843.12697   -599.88984   -1086.3412   -894.05959   -650.85672   -1137.2407   -36660.483    155.08104 
     750     56.79954     56.79954     56.79954   -138.86796   -140.35725    103.06528   -383.78116   -131.66214    111.83645   -375.15929   -144.58448     98.86499   -388.03686   -36662.181    157.14995 
     800    56.779969    56.779969    56.779969    742.36954    749.83042    993.79169    505.86838     683.4876    927.50915    439.46441    793.79061    1037.7837    549.79371   -36659.129    155.93389 
     850    56.794346    56.794346    56.794346    128.98364    137.93134    381.62452   -105.75633    125.01194    368.69107   -118.66572    124.00765    367.72708   -119.70577   -36660.641    157.89694 
     900    56.812641    56.812641    56.812641   -590.64813   -559.07401    -315.8195   -802.32628   -679.07684   -435.77109   -922.38185   -533.79353   -290.47328   -777.10694   -36653.023    153.45426 
     950    56.802032    56.802032    56.802032   -175.40181   -249.95955   -6.4641344   -493.45136   -91.157204    152.43288   -334.73489   -185.08868    58.432418   -428.60416   -36659.638    159.02515 
    1000    56.785499    56.785499    56.785499     503.1207    491.57291    735.37506    247.77226     526.3538    770.22503    282.49284    491.43541    735.26303    247.61303   -36661.883    161.54845 
    1050    56.794444    56.794444    56.794444    217.86986    245.38872    489.13496    1.6437085    189.89687    433.68319   -53.892825    218.32398     462.1106    -25.45965   -36650.753    154.62858 
    1100    56.810552    56.810552    56.810552   -541.47595   -515.72507   -272.40889   -759.03729   -560.96887   -317.67759    -804.2573    -547.7339   -304.41046    -791.0533   -36659.361    161.63198 
    1150    56.802078    56.802078    56.802078   -155.40533   -149.31378    94.150925   -392.77616   -181.61257    61.884651    -425.1062   -135.28965    108.18128   -378.76177   -36660.918    163.66699 
    1200     56.78923     56.78923     56.78923    470.87317    467.50457    711.42912    223.59594    502.22108    746.19551    258.26104    442.89385    686.83143    198.96445   -36647.038    154.82072 
    1250    56.797682    56.797682    56.797682    119.32274    114.49144    358.08163   -129.09983    122.82547    366.45458   -120.80158    120.65131    364.28361   -122.97421   -36655.956    162.04526 
    1300     56.80929     56.80929     56.80929   -374.65972   -426.63131   -183.16436   -670.10281   -322.91615   -79.428632   -566.41082   -374.43171   -130.98355   -617.88057   -36649.032     158.1179 
    1350    56.802656    56.802656    56.802656   -131.67424   -123.69907    119.80856   -367.19954   -151.29544    92.232602    -394.8164   -120.02822    123.51115   -363.56068   -36656.521    164.32607 
    1400    56.792253    56.792253    56.792253     333.7521    344.99452    588.80127    101.19654    360.26481    604.06045     116.4679    295.99696    539.87841     52.11707    -36652.58    162.50957 
    1450    56.799093    56.799093    56.799093    138.39769    156.43558     400.1525   -87.273984     59.32061    303.03913   -184.38504    199.43688    443.13868    -44.25548   -36647.828    160.08835 
    1500    56.809623    56.809623    56.809623   -395.03134   -333.37419   -89.980897   -576.76058   -398.55063   -155.17001   -641.92637   -453.16919    -209.7519   -696.57934   -36653.387    164.97469 
    1550     56.80318     56.80318     56.80318    24.732353  -0.91167841    242.69441   -244.50837    26.036089     269.6354   -217.55105    49.072649    292.67192   -194.52152   -36645.151    160.10329 
    1600    56.796324    56.796324    56.796324    208.86929    252.66911    496.31913    9.0205306    194.83136     438.5121   -48.846199     179.1074    422.82382   -64.602342   -36654.461    167.63598 
    1650    56.801231    56.801231    56.801231      70.0307    61.680608    305.38105   -182.01416    43.508846    287.19946    -200.1707    104.90265    348.56459   -138.74682   -36645.671    162.38179 
    1700    56.808933    56.808933    56.808933   -270.45522   -273.87922   -30.390178   -517.35677   -228.37574    15.124541   -471.87183   -309.11069   -65.583983   -552.63352   -36647.885    164.89895 
    1750    56.804735    56.804735    56.804735   -59.461898   -86.922931    156.61122   -330.46342    -98.30916    145.26098   -341.88317    6.8463964    250.42927    -236.7379    -36649.31    166.85283 
    1800    56.798162    56.798162    56.798162    226.71822    267.17271    510.84376    23.499867    252.39978    496.14973    8.6388423    160.58216    404.33119   -83.173489   -36645.527    165.14801 
    1850    56.801538    56.801538    56.801538    119.80034    140.63399    384.31215   -103.04328    113.67452    357.39636   -130.04749    105.09252    348.79479   -138.60967    -36644.63    165.47466 
    1900    56.809836    56.809836    56.809836   -214.86873   -185.47779    58.032417   -428.98025   -211.01714    32.468563   -454.49047   -248.11124   -4.6112594   -491.60836   -36646.288    167.59094 
    1950    56.808329    56.808329    56.808329   -144.12638   -141.83771    101.65877   -385.33028   -135.50137    108.02207    -379.0157   -155.04008    88.527486   -398.60201   -36643.579    166.63493 
    2000    56.800682    56.800682    56.800682    212.40029    151.34683    395.00024   -92.295364    259.31391    503.04254    15.597117    226.54014     470.2827   -17.189865   -36643.425    167.49409 
    2050    56.802521    56.802521    56.802521    100.65499    75.249048    318.89257   -168.38275    56.190505    299.87542    -187.4836    170.52543    414.20616   -73.143887   -36643.741     168.6746 
    2100    56.809571    56.809571    56.809571    -146.8269   -80.335646    163.18341   -323.86083   -127.99001    115.57709   -371.57102   -232.15503    11.380512   -475.69512   -36640.815    167.57057 
    2150    56.808895    56.808895    56.808895   -165.27325   -191.13675    52.405869   -434.68307   -166.54245    77.027387   -410.10899   -138.14054    105.37273   -381.65408   -36644.098    170.83838 
    2200    56.801313    56.801313    56.801313    222.08781    255.75477    499.55702    11.964385     244.7199     488.5248   0.92104285    165.78875    409.62121   -78.036147   -36634.804     165.2564 
    2250    56.803543    56.803543    56.803543    119.59981    150.43417    394.03886   -93.156775    95.565628    339.18507   -148.03432    112.79964    356.44194   -130.82597   -36645.922    174.04965 
    2300    56.811357    56.811357    56.811357   -177.10421   -205.43945    38.151446   -449.02151   -186.68732    56.906998   -430.26891   -139.18586    104.43987   -382.79644   -36634.934    167.26935 
    2350    56.810834    56.810834    56.810834   -147.57357   -119.78179    123.67501    -363.2408   -148.60926    94.901759   -392.12029   -174.32964    69.215618   -417.87631   -36642.182    173.33274 
    2400    56.804038    56.804038    56.804038    197.44655    212.01527    455.76553   -31.740073     196.5496     440.2759   -47.194308    183.77479    427.50843   -59.966296   -36634.813    169.10765 
    2450    56.805659    56.805659    56.805659    99.580396    86.934756    330.59248   -156.72213    111.74025    355.44695    -131.9558    100.06618    343.77052    -143.6333   -36639.839    173.61106 
    2500    56.812136    56.812136    56.812136   -157.16811    -130.0075    113.46781    -373.4644   -133.15348    110.35518   -376.64946   -208.34334    35.156822    -451.8304   -36638.445    173.59141 
    2550    56.811276    56.811276    56.811276   -86.471514   -117.97122    125.57424   -361.51329   -107.48598    136.09057   -351.05451   -33.957338    209.62985   -277.54647   -36635.105    172.20581 
    2600    56.806512    56.806512    56.806512    84.228888    137.95082    381.63237   -105.73437    101.39973    345.08691    -142.2896    13.336109    257.08901   -230.42224   -36636.206    173.93935 
    2650    56.807459    56.807459    56.807459     189.9063    165.27678    408.98718   -78.429783    150.92293    394.68818   -92.844799    253.51919    497.25506    9.7877534   -36630.259    170.70949 
    2700    56.814656    56.814656    56.814656   -194.41013   -148.31935    95.124999   -391.75132   -166.55308    76.955823   -410.04353   -268.35797   -24.856298   -511.84155   -36634.286     174.5138 
    2750     56.81318     56.81318     56.81318   -50.885643    -31.91255    211.59064   -275.41408   -72.238321    171.31831   -315.78488   -48.506057     195.0677   -292.06587   -36632.943    174.53856 
    2800    56.808273    56.808273    56.808273    120.07452    77.423285    321.09546   -166.24326    147.71871    391.41608   -95.972026    135.08155    378.79065   -108.62999   -36632.175    174.95634 
    2850    56.809386    56.809386    56.809386    64.598916    93.289406     336.8985   -150.32032    49.252297    292.86348    -194.3691    51.255046    294.88003    -192.3701   -36635.363    178.17319 
    2900    56.814028    56.814028    56.814028   -55.129096   -78.864562    164.69855   -322.42605   -23.927303    219.65333   -267.51379   -62.595424     180.9973   -306.19218   -36628.162    174.06308 
    2950    56.814566    56.814566    56.814566   -136.69039   -121.09987    122.42241   -364.61518   -138.22883    105.34636   -381.79311   -150.74247    92.844844   -394.32132    -36632.76    178.27162 
    3000    56.810436    56.810436    56.810436    109.18596    170.82853    414.55585   -72.883439    82.313316    326.00177   -161.36302    74.416023    318.16689   -169.32345   -36627.321    175.39548 
    3050    56.811695    56.811695    56.811695    20.251311     45.62127    289.20774    -197.9628    28.352535    271.94216   -215.23642   -13.219872    230.44768   -256.88617   -36633.224    180.52378 
    3100    56.814668    56.814668    56.814668   -22.502512    59.902641    303.45976   -183.65577   -81.618592    161.98779   -325.22523   -45.791584    197.81604   -289.39732   -36625.036    175.72114 
    3150    56.814591    56.814591    56.814591   -35.232453   -56.415597    187.18119   -300.00064   -62.292386    181.29174   -305.85683    13.010624    256.57682   -230.53869   -36627.386    178.34874 
    3200    56.812239    56.812239    56.812239    90.408292    160.66081    404.28022   -82.937865    76.940756    320.59583   -166.69696    33.623312    277.26462   -210.00475   -36626.453    178.65798 
    3250    56.813104    56.813104    56.813104    22.961587     6.770234    250.35969   -236.81767    44.998436     288.6338   -198.63865    17.116089    260.79123   -226.55436   -36626.931    179.95943 
    3300    56.815222    56.815222    56.815222   -33.469201   -23.912364    219.72133   -267.55103   -21.628313     222.0191    -265.2783   -54.866925    188.74447   -298.48139    -36624.85    179.46152 
    3350     56.81547     56.81547     56.81547   -25.746731   -25.939475    217.64902   -269.52682   -66.221943    177.38996   -309.82906    14.921226    258.52731    -228.6809   -36626.345    181.48254 
    3400     56.81445     56.81445     56.81445    33.843209    20.163178    263.80877   -223.47169    3.6846816    247.37426   -239.99879    77.681767    321.39296   -166.03224   -36623.713      180.591 
    3450    56.815405    56.815405    56.815405    22.937435    74.244986    317.82341   -169.33385    6.2431304    249.87467   -237.38617    -11.67581    231.92402   -255.26949   -36623.977    181.74162 
    3500    56.817351    56.817351    56.817351   -84.758116   -7.0286601    236.49851   -250.55426   -112.68599    130.91561   -356.28264    -134.5597    109.02603   -378.14109   -36624.288     182.9346 
    3550     56.81621     56.81621     56.81621   -19.992649   -22.654179    220.93516   -266.23938    5.2074259    248.80243   -238.38179   -42.531193     201.0745   -286.12878   -36626.071    185.15775 
    3600    56.815602    56.815602    56.815602    62.134913    102.05969    345.72666   -141.59815     96.33748    340.07116   -147.38783   -11.992432    231.69275   -255.66328   -36619.622    181.57613 
    3650    56.817749    56.817749    56.817749   -21.981849   -32.824025    210.75857   -276.39222   -62.313942     181.2988   -305.91501    29.192421    272.79506   -214.39394   -36622.046    184.25338 
    3700    56.818585    56.818585    56.818585    20.576408     -9.14837    234.43179   -252.72288    58.205133    301.75963   -185.34853    12.672462    256.30991   -230.96876   -36617.535    182.04252 
    3750    56.818699    56.818699    56.818699   -43.632583    59.035682    302.58287   -184.51423   -90.581382     153.0306   -334.19984    -99.35205    144.24395   -342.95348   -36618.972    184.02075 
    3800    56.816887    56.816887    56.816887    83.562808    74.779099    318.44057   -168.87955    120.44089    364.12065    -123.2341    55.468432    299.11266   -188.16887    -36618.35    184.54917 
    3850    56.817924    56.817924    56.817924    -33.09368    62.598131    306.17022   -180.96734   -69.980935    173.61343   -313.56763   -91.898236    151.76677    -335.5643    -36619.45    186.29073 
    3900    56.818517    56.818517    56.818517    44.629959    -61.09072    182.59787   -304.78424    93.302172    336.98491   -150.37773    101.67842    345.35432   -141.98433   -36615.198    184.26597 
    3950    56.820277    56.820277    56.820277   -75.500498    80.567175    324.15073   -162.99446   -150.85782    92.724826   -394.41833   -156.21085    87.362893   -399.77338   -36618.567    187.59759 
    4000    56.818961    56.818961    56.818961   -3.7770912   -60.200129    183.35267   -303.74539    21.493653    265.07435   -222.08388    27.375202    270.97755   -216.22636   -36618.094    188.24366 
    4050    56.817582    56.817582    56.817582    73.757411    92.072684    335.75831   -151.60731    124.00241    367.66995   -119.66608    5.1971405    248.87408   -238.47641    -36614.79    186.87303 
    4100    56.819967    56.819967    56.819967    17.817512    66.644366    310.18291   -176.89005   -10.256969    233.33651   -253.85119   -2.9348596    240.68319   -246.54231    -36615.54     188.3738 
    4150    56.822251    56.822251    56.822251   -49.465144   -33.893451    209.68303    -277.4713  -0.32570531    243.27344   -243.91307   -114.17628    129.42807   -357.76761   -36612.746    187.36599 
    4200    56.821996    56.821996    56.821996   -33.529823    19.149617    262.76614   -224.46251   -32.741396    210.85179   -276.32326   -86.997689    156.60164   -330.60157   -36612.256    187.98551 
    4250    56.819964    56.819964    56.819964    50.098739    146.10926    389.79994    -97.58159    32.823337    276.41016   -210.77167   -28.636376    215.00503   -272.28014   -36614.199    190.32293 
    4300    56.820632    56.820632    56.820632    64.912277    62.766518    306.41676   -180.87694    87.491558    331.15301   -156.16269    44.478754    288.12041   -199.15104   -36609.728    188.13535 
    4350    56.823611    56.823611    56.823611    -58.39621   -31.140897     212.4212   -274.69621   -73.925314    169.71505   -317.54791   -70.122418    173.46052   -313.68824   -36613.227     191.5677 
    4400    56.823259    56.823259    56.823259   -9.0427375    78.854089    322.47437   -164.76817   -72.116352    171.46837   -315.69771    -33.86595    209.70772   -277.43939   -36609.141    189.65047 
    4450    56.822138    56.822138    56.822138    56.918326    59.648655    303.24676   -183.93916    46.011883    289.60639   -197.57994     65.09444    308.73596   -178.54321   -36609.657     190.9818 
    4500    56.822493    56.822493    56.822493     77.48494     81.01056    324.63355    -162.5898    30.516858    274.19118   -213.14563     120.9274    364.57724   -122.70759   -36607.546    190.45783 
    4550    56.824715    56.824715    56.824715   -83.059038   -83.381745    160.18196   -326.93893   -76.207965     167.3714   -319.78774   -89.587404    153.95446   -333.11958   -36610.122    193.23604 
    4600    56.823997    56.823997    56.823997    30.055534    45.312323    288.92827   -198.31193   -17.828612    225.84247   -261.50251    62.682891    306.35279    -180.9974   -36605.622    191.03117 
    4650    56.823985    56.823985    56.823985    10.785894    35.608394    279.25985   -208.03827   -53.049642    190.59885   -296.69168    49.798929    293.43301    -193.8292   -36607.771    193.50116 
    4700    56.825125    56.825125    56.825125   -35.181355   -79.387804    164.19465   -322.95146   -50.998502    192.60901   -294.58834    24.842242    268.39486   -218.70502   -36608.818    195.20666 
    4750    56.825408    56.825408    56.825408   -13.021697    32.129655    275.69481   -211.42331   -2.5216482    241.02177   -246.05358   -68.673097    174.93022   -312.26841   -36607.626    195.32824 
    4800    56.825224    56.825224    56.825224    26.421248    75.432699    319.01876   -168.16534   -48.484882    195.09369   -292.06293    52.315926    295.94799   -191.31318   -36603.167    193.15013 
    4850    56.825395    56.825395    56.825395    38.815424    47.281607    290.92041    -196.3597    15.986633    259.62283    -227.6493    53.178033     296.8171   -190.45362   -36603.314     194.2155 
    4900    56.826447    56.826447    56.826447    12.525212  -0.10950453    243.60221   -243.80557   -27.068108    216.56909    -270.6969    64.753248    308.38356   -178.86432   -36603.265    195.13621 
    4950    56.827025    56.827025    56.827025   -34.159233   -65.767832    177.82971    -309.3621    37.927447     281.5359   -205.67917   -74.637313    168.94012   -318.21411   -36602.003    195.20947 
    5000    56.826764    56.826764    56.826764    38.145329    59.881707    303.54339   -183.76437   -22.042354    221.52853   -265.59795    76.596634    320.23053   -167.02722     -36602.8    196.72743 
    5050    56.827639    56.827639    56.827639   -79.478654   -77.603486    165.99885   -321.19115   -78.354051    165.19549   -321.88615   -82.478424    161.13841   -326.07534   -36604.845    199.13332 
    5100    56.826552    56.826552    56.826552    17.012551    42.983495    286.58961   -200.61769   -17.871701    225.79088   -261.53946     25.92586    269.53371   -217.67678   -36601.642    197.83325 
    5150    56.826641    56.826641    56.826641    62.852475    47.628594    291.29369   -196.04194    85.596847    329.25983   -158.06777    55.331985    298.98559    -188.3233   -36599.148     197.0341 
    5200    56.828869    56.828869    56.828869   -100.09446   -34.194426     209.4224   -277.79516   -136.41262    107.18687   -380.00748   -129.67635      113.905   -373.25593   -36602.107    200.07479 
    5250    56.828622    56.828622    56.828622    35.387857    20.353323     263.9393    -223.2321    64.423688    308.02163    -179.1677    21.386561    264.99271   -222.21396   -36598.621      198.576 
    5300    56.829253    56.829253    56.829253   -20.328524   -41.128295    202.47613   -284.73697    17.351121    260.97412   -226.28025   -37.208397    206.40526    -280.8247   -36599.584    200.21399 
    5350    56.830268    56.830268    56.830268   -6.7244489   -47.055805    196.59827   -290.70212   -7.6169841    236.01313   -251.23824    34.499442    278.09284   -209.08517   -36597.724    199.85127 
    5400    56.830263    56.830263    56.830263   -47.150556   -4.3288913     239.2549   -247.90764   -28.785953    214.77576   -272.32833   -108.33682    135.26478   -351.93481   -36597.505    200.66006 
    5450     56.82875     56.82875     56.82875    62.311852    29.596818    273.27018   -214.05836    80.504935     324.1883   -163.16744    76.833802    320.52653   -166.84144   -36594.218    199.28944 
    5500    56.829679    56.829679    56.829679    11.113108    56.462825    300.08299   -187.14336    13.029437    256.64605   -230.57544   -36.152938    207.46399   -279.75978   -36596.722    202.01252 
    5550    56.831164    56.831164    56.831164    10.212174    24.493259    268.09386   -219.09909    62.804326    306.36478   -180.75089   -56.661063    186.93784   -300.25905   -36593.796    200.90222 
    5600    56.831854    56.831854    56.831854   -43.200361     70.49338    314.06065   -173.07554   -100.96228    142.62379   -344.54516   -99.132183    144.40527   -342.66004   -36595.792    203.26658 
    5650    56.829702    56.829702    56.829702    62.122766    66.922577    310.55821   -176.71089    76.931183    320.60458   -166.74022    42.514539     286.1859   -201.14982   -36591.352     201.0894 
    5700    56.830376    56.830376    56.830376    90.499452    118.91219    362.57959   -124.74218    88.140474    331.80225   -155.50224    64.445694    308.15401    -179.2492   -36590.971    201.76369 
    5750    56.833678    56.833678    56.833678   -53.949935   -67.386511    176.18767   -310.95606   -41.318186    202.24621   -284.88465   -53.145107    190.44466   -296.73036   -36590.789    202.59202 
    5800    56.833086    56.833086    56.833086   -17.443168    18.640278    262.19006   -224.90925     1.601541    245.24014   -242.03621   -72.571323    170.98402   -316.12746   -36591.628    204.12867 
    5850    56.831668    56.831668    56.831668    21.588045    104.69248    348.34953    -138.9607   -1.9532295    241.68694   -245.57587   -37.975117    205.61735   -281.55637   -36593.275    206.23968 
    5900    56.833042    56.833042    56.833042   -10.044456   -51.790523    191.78511   -295.35305   -26.983696    216.64066   -270.59968    48.640851    292.21844   -194.92603   -36592.862    206.89137 
    5950    56.835719    56.835719    56.835719   -95.641188   -11.295904    232.22782   -254.81964   -153.93025    89.574388   -397.43684   -121.69741    121.90978   -365.30287   -36591.107    206.60204 
    6000    56.835469    56.835469    56.835469   -28.910472   -55.322506    188.25972    -298.9103   -51.562022     191.9931   -295.11883    20.153111    263.69464   -223.39446   -36589.228    206.22335 
    6050    56.833792    56.833792    56.833792    4.4468802   -13.273139    230.28974   -256.82549   -14.786089     228.7697   -258.33537    41.399869    284.92214   -202.11746   -36591.988    209.11802 
    6100     56.83334     56.83334     56.83334    81.670586    156.31433    399.93529   -87.291754    72.355332    316.00308   -171.28174    16.342095    260.00333   -227.30774   -36585.851    205.73458 
    6150    56.836103    56.836103    56.836103    6.9606108    42.499517    286.13212    -201.1239   -95.351665    148.28106   -338.97902     73.73398    317.34176   -169.86791   -36583.229     204.8259 
    6200    56.837187    56.837187    56.837187   -85.683342   -58.746043    184.72182   -302.20351   -119.57313    123.97914   -363.11804   -78.730852     164.7992     -322.256   -36587.826    209.01139 
    6250    56.835224    56.835224    56.835224    46.557464    11.000205    254.56427   -232.55195    102.03221    345.64554    -141.5641     26.63998     270.2749   -216.98214   -36586.464    208.98991 
    6300    56.835566    56.835566    56.835566    22.125043    17.103128    260.65392   -226.44101    33.197947    276.75627   -210.35098    16.074055    259.65798   -227.49556   -36587.504    210.66813 
    6350    56.837503    56.837503    56.837503    5.2271789    86.083859    329.63203   -157.45686   -79.903922    163.63691   -323.44112    9.5015994    253.10558   -234.09414   -36582.128    207.81466 
    6400    56.838923    56.838923    56.838923   -61.703902   -59.176325    184.37004   -302.71893    -74.08968    169.46488   -317.63944     -51.8457    191.71413   -295.39486   -36583.059    209.40881 
    6450    56.836761    56.836761    56.836761    56.396771    88.837311    332.46247   -154.78148    51.569539    295.24218   -192.10166    28.783464     272.4081   -214.84575   -36578.652    207.24096 
    6500    56.836108    56.836108    56.836108    49.211136   -24.838062    218.81656   -268.48486    91.962389    335.58675    -151.6483     80.50908    324.11027   -163.08437   -36585.172    212.76915 
    6550    56.838454    56.838454    56.838454   -1.2242697    86.582859    330.04141   -156.86834    -38.88591     204.7134   -282.47936   -51.369758    192.11593   -294.83956   -36580.595    210.47932 
    6600    56.839994    56.839994    56.839994   -59.870032   -17.199496    226.32698   -260.71863   -58.927804    184.61056    -302.4615    -103.4828    140.12325   -347.08103   -36580.512    211.35667 
    6650    56.838715    56.838715    56.838715    -36.53991   -66.152555    177.45879   -309.75598   -66.132468    177.44455   -309.69508    22.665292    266.28407   -220.94599   -36583.116    214.11978 
    6700    56.837653    56.837653    56.837653    48.353054    83.638153    327.31259   -160.03482    91.985822    335.63778   -151.65819   -30.564814    212.99533   -274.11537   -36579.102    212.21985 
    6750    56.839513    56.839513    56.839513   -29.270936   -37.189601    206.37885   -280.75618   -78.341109    165.23211    -321.9095    27.717902    271.31695   -215.87873   -36581.904    215.12928 
    6800    56.841066    56.841066    56.841066   -27.690294    21.344941     264.8311   -222.13298   -26.669752    216.86078   -270.19216    -77.74607    165.80436   -321.28995   -36578.832    213.89257 
    6850    56.840841    56.840841    56.840841   -79.412144   -63.207777    180.33388   -306.74073   -119.94333    123.58323   -363.46853   -55.085321     188.4688   -298.64203   -36579.623     215.3783 
    6900    56.838307    56.838307    56.838307    125.62454    173.93467    417.54011   -69.665853    122.99403    366.70247   -120.71957    79.944913    323.65232   -163.76477    -36574.73    212.85514 
    6950    56.840922    56.840922    56.840922   -27.583068    8.5269478    252.14106    -235.0732   -93.896212    149.71706   -337.49713    2.6200617    246.22474    -240.9711   -36578.108    216.15684 
    7000     56.84355     56.84355     56.84355   -78.813867   -49.875381    193.70581   -293.44772   -48.257275    195.23026   -291.72854   -138.30894    105.18841    -381.7933   -36577.526    216.67301 
    7050    56.842369    56.842369    56.842369   -29.831921   -2.4035377    241.16282    -245.9642    0.4535994    244.04784   -243.13523   -87.545825    156.01848    -331.0943   -36574.636    215.55852 
    7100    56.841144    56.841144    56.841144    18.095139    5.3815645    248.96738   -238.18624    35.431048     279.0417   -208.16541    13.472803    257.06005   -230.09739   -36577.254    218.32475 
    7150    56.841853    56.841853    56.841853     74.02273    142.27436    385.86833   -101.31475    10.184172    253.85681   -233.47407    69.609655    313.18136   -173.95804   -36570.558    214.52697 
    7200    56.844136    56.844136    56.844136   -84.718317   -173.26202    70.243118   -416.76705    27.274815    270.81971   -216.26775   -108.16774    135.36643   -351.69375   -36575.306    218.79281 
    7250    56.842781    56.842781    56.842781    61.081133    74.973469    318.60223   -168.64623    8.7315841     252.3206   -234.85233    99.538347     343.1147    -144.0311   -36570.546    216.35732 
    7300    56.842824    56.842824    56.842824    9.9311418    40.584082    284.14949   -202.97376    15.125693    258.70409   -228.44002   -25.916349    217.72128   -269.54816    -36572.28    218.49125 
    7350    56.844445    56.844445    56.844445   -5.1000228    13.511658    257.07195   -230.04195   -52.870357    190.62108   -296.35917     24.05863    267.59042   -219.46648   -36572.403    219.49535 
    7400    56.844932    56.844932    56.844932    6.7807896    -19.81658    223.73096   -263.36485    92.444764    336.06707   -151.17066   -52.285815    191.23926   -295.81137   -36567.925    217.25048 
    7450    56.845196    56.845196    56.845196   -33.953192   -47.871966    195.67456   -291.40775   -1.8206271    241.82254   -245.45359   -52.166982    191.37599   -295.70093   -36570.389    219.89354 
    7500    56.844349    56.844349    56.844349    61.584437    128.99101    372.56547   -114.58032   -56.200387     187.3826   -299.77563    111.96268    355.56815   -131.63724   -36568.318    219.34903 
    7550    56.845377    56.845377    56.845377    -26.47981    11.161814    254.67308   -232.34083   -44.107721    199.40342   -287.61608   -46.493521    197.04271    -290.0277   -36569.707    221.23597 
    7600    56.845895    56.845895    56.845895    24.289188    17.957796    261.56974   -225.64395    17.051605    260.62658   -226.52126    37.858163    281.40923   -205.68452   -36567.298    220.44913 
    7650    56.845724    56.845724    56.845724   -4.6138572   -16.183617    227.33005   -259.69066    9.4486186    253.02138   -234.11459   -7.1065727    236.48377   -250.68996   -36566.614     220.8707 
    7700    56.845572    56.845572    56.845572     37.04861    90.512447    334.16696   -153.13025   -19.102755    224.42737   -262.62075    39.736137    283.31527   -203.83203   -36565.665    221.10437 
    7750    56.846259    56.846259    56.846259     31.87068    16.585386    260.16051   -226.97448     49.49833    293.13218   -194.12338    29.528323    273.16566   -214.09502   -36562.473    219.75672 
    7800    56.847283    56.847283    56.847283   -52.020832   -24.613647     218.8453   -268.07356   -62.853994    180.72206   -306.43009   -68.594854    174.95611   -312.13568   -36569.616    225.69392 
    7850    56.847821    56.847821    56.847821   -53.068473   -155.14515    88.420111   -398.70984    29.182226    272.69557   -214.32605   -33.242494    210.30657   -276.78939   -36566.415     224.3339 
    7900    56.846915    56.846915    56.846915    6.4147915    123.26922    366.81382   -120.26033   -128.56465    114.94083   -372.06214    24.539801    268.09512   -219.00165   -36567.423    225.95089 
    7950    56.847204    56.847204    56.847204    2.6732696    5.7306465     249.3299   -237.84513   -22.913786     220.7198   -266.52528    25.202948    268.79688   -218.37791   -36563.023    223.73679 
    8000    56.848235    56.848235    56.848235   -19.302297   -39.483374    204.07764   -283.03401     47.61011    291.23138   -195.99454   -66.033628     177.4969   -309.55621   -36562.119     223.9973 
    8050    56.848381    56.848381    56.848381    2.5413274   -31.801816    211.77071   -275.36768   -42.517043    200.99444   -286.02744    81.942841    325.50634   -161.61217   -36564.746    226.74195 
    8100    56.849428    56.849428    56.849428   -13.064817    61.818735    305.34053   -181.69911   -9.9016425    233.65971   -253.45623   -91.111543    152.53309   -334.74256   -36560.412    224.57892 
    8150    56.849918    56.849918    56.849918   -1.5112566   -12.717261    230.83009   -256.25248    41.696862     285.2453   -201.84094    -33.51337    210.00943   -277.02306   -36559.674    224.94523 
    8200    56.849628    56.849628    56.849628   0.84488228    17.307874    260.84309   -226.22767    4.3877269    247.95022   -239.16684   -19.160954    224.34057   -262.65824   -36561.257    226.95346 
    8250    56.849403    56.849403    56.849403   -29.905704   -39.518304    204.11385   -283.14667   -10.896355    232.69613   -254.47692   -39.302452    204.28831   -282.89065   -36558.918    226.18667 
    8300    56.849121    56.849121    56.849121     52.03452    112.34156     355.9839    -131.2833    28.907556    272.48375   -214.65638     14.85444    258.42434   -228.70724   -36558.526    226.79595 
    8350    56.850498    56.850498    56.850498    1.1136224   -38.200408    205.32018   -281.71454    1.0060852    244.51126    -242.4961     40.53519    284.14781   -203.06696   -36559.113    228.09591 
    8400    56.852008    56.852008    56.852008    -49.73858    3.7715073    247.29714   -239.74427   -72.316596    171.20467   -315.83691   -80.670651    162.85028   -324.18933   -36560.144    229.70153 
    8450    56.852167    56.852167    56.852167   -46.970025   -86.744564    156.72621   -330.21227    33.550086    277.05519   -209.94702   -87.715597    155.80959   -331.22927   -36556.694    228.14968 
    8500    56.851005    56.851005    56.851005     80.66316    149.65051    393.28684   -93.971323    55.970375    299.63064   -187.68138    36.368592    279.97717   -207.23283   -36555.688     228.3191 
    8550     56.85178     56.85178     56.85178    43.098919    73.636639    317.21825   -169.93432    60.299207    303.86971     -183.256   -4.6390878    238.86628   -248.14295   -36553.166    227.41461 
    8600    56.853684    56.853684    56.853684   -62.527142   -32.620803    210.92298   -276.16234   -7.7784827    235.68095   -251.23859   -147.18214    96.363051   -390.71362   -36557.545    231.37648 
    8650    56.853352    56.853352    56.853352   -54.810131    -38.09181    205.47785   -281.64855   -97.230377    146.31499   -340.76628   -29.108205    214.53298    -272.7364   -36555.339    230.69017 
    8700    56.851777    56.851777    56.851777    57.351269    83.767126    327.26224   -159.71737     143.8738    387.44368   -99.681781   -55.587118    187.97226   -299.13824   -36555.655     231.7864 
    8750    56.852298    56.852298    56.852298     53.47167    157.20548    400.77305   -86.356096    49.977405    293.56414   -193.60624   -46.767879    196.71247   -290.24591   -36553.086    230.84571 
    8800    56.854658    56.854658    56.854658    12.525858   -68.642565    174.93154   -312.22271     59.77739      303.291   -183.72159    46.442749    289.94206   -197.04765   -36550.328    229.76459 
    8850    56.856032    56.856032    56.856032   -97.914841   -24.964722    218.56031   -268.47525   -165.74703    77.670879   -409.15122   -103.03277    140.49276   -346.54705   -36554.174    233.34105 
    8900    56.853011    56.853011    56.853011    86.985605    116.74187     360.3309   -126.83765    120.88361    364.41431   -122.63614    23.331331    266.93529   -220.26552   -36549.193    230.68843 
    8950    56.852752    56.852752    56.852752    43.310976     66.67455    310.23069   -176.86814    97.313596    340.85512   -146.22914   -34.055219    209.55485   -277.65381   -36554.393    235.21666 
    9000    56.856027    56.856027    56.856027   -34.744341   -12.770337    230.75735   -256.29124   -10.443599    233.19631   -254.06687   -81.019086    162.51353    -324.5444    -36549.71    232.76866 
    9050    56.857701    56.857701    56.857701   -98.795279   -90.378524    153.07958   -333.83149   -20.592726    222.89757   -264.06819   -185.41459    58.099072    -428.9148   -36549.926    233.78176 
    9100     56.85447     56.85447     56.85447    61.588367    95.269547    338.85454   -148.29574   0.21579166    243.75566   -243.32034    89.279762    332.91579   -154.33816   -36547.306    232.78602 
    9150    56.853832    56.853832    56.853832    104.62124    83.584872    327.16807   -159.98739    153.53306    397.14902   -90.072523    76.745781    320.27768   -166.77728    -36548.71    234.63202 
    9200    56.857402    56.857402    56.857402    -74.12141   -17.922546     225.5523   -261.39362   -113.43995    130.05391    -356.9318   -91.001733    152.45887   -334.46047   -36550.584    236.80488 
    9250    56.858281    56.858281    56.858281   -21.664656    12.531836    255.98652   -230.91855   -22.488838    221.07208   -266.04459   -55.036966    188.51792     -298.584   -36544.417    233.30188 
    9300    56.857061    56.857061    56.857061   -14.670366    11.389467    254.89481    -232.0985   -14.238474     229.2748   -257.74048   -41.162092    202.37419   -284.68701   -36548.393    236.95215 
    9350    56.855451    56.855451    56.855451    179.03332    293.18646    536.82072    49.559568    98.503148    342.11064   -145.09567    145.41036    389.06769   -98.243582   -36542.077    233.34848 
    9400    56.858931    56.858931    56.858931   -48.330915   -80.119583    163.41203   -323.65222   -20.798809    222.74359   -264.33227   -44.074353     199.4246   -287.56498   -36543.424    235.13415 
    9450    56.860053    56.860053    56.860053   -62.019081    71.776319     315.3485   -171.78069   -177.68385     65.74369   -421.10528   -80.149714     163.3647   -323.65336   -36544.395    236.65916 
    9500    56.857363    56.857363    56.857363    22.144485      132.798    376.30547   -110.68846   -23.244274    220.32666   -266.79979    -43.12027    200.43604    -286.6596   -36544.959     237.8969 
    9550    56.856718    56.856718    56.856718    88.130772    6.5372717    250.12187   -237.03345    83.265386    326.85589   -160.29862    174.58966    418.22611   -69.036059   -36543.834     237.9386 
    9600    56.860512    56.860512    56.860512   -58.123824   -7.9858301    235.50836   -251.46765   -155.78403    87.674781   -399.23876   -10.601614    232.81738   -254.00102   -36545.919    240.24223 
    9650    56.860916    56.860916    56.860916   -93.302354   -46.686435    196.82427   -290.18555   -74.977827    168.49493   -318.44774    -158.2428    85.264395   -401.74586   -36542.017    238.32636 
    9700    56.857253    56.857253    56.857253    144.07492     194.7485    438.35695   -48.853978     9.211564    252.79662   -234.35688     228.2647     471.9654   -15.434946    -36538.83    236.90287 
    9750    56.858936    56.858936    56.858936    46.091304   -13.778146    229.69217   -257.24036    78.138092    321.71144     -165.425    73.913966    317.42444     -169.585   -36544.506    241.73059 
    9800    56.863063    56.863063    56.863063   -98.435868   -93.690357    149.84924    -337.2281   -144.10596    99.345353   -387.55987   -57.511289    185.96706   -300.98337   -36539.211    238.82299 
    9850    56.863398    56.863398    56.863398   -166.44632   -179.36678     64.06635    -422.7914   -189.96593    53.457054   -433.38333   -130.00627    113.40881   -373.41699   -36544.697    243.50753 
    9900    56.858424    56.858424    56.858424     154.6618    270.05072    513.61469    26.483749    39.171054    282.76334   -204.41404    154.76364    398.44925   -88.914172   -36537.051    238.94449 
    9950    56.859051    56.859051    56.859051    105.68897   -24.106795    219.43464   -267.63552    222.96105    466.49335   -20.553328    118.21267    361.84781    -125.4058   -36537.101    239.79416 
   10000    56.864491    56.864491    56.864491   -142.01079   -15.189103    228.28302   -258.63574   -194.73627    48.755109   -438.21968   -216.10699    27.348497   -459.55157   -36541.157    243.47305 
   10050    56.864017    56.864017    56.864017   -100.58665   -103.34204    140.13128   -346.80538   -148.12735    95.251078   -391.49232   -50.290552    193.04277   -293.62525   -36538.363    242.31793 
   10100    56.860065    56.860065    56.860065    99.031098    120.48734     364.0746   -123.08488    140.57911    384.14218   -102.98279    36.026836    279.66394     -207.597   -36539.302    243.78778 
   10150    56.861316    56.861316    56.861316    94.920897    208.18636    451.73348   -35.359391    2.5628354     246.1508   -241.00919    74.013497    317.64386   -169.60774   -36534.772    241.40333 
   10200    56.866052    56.866052    56.866052   -160.16343   -259.04395    -15.65562   -502.42088   -103.60708    139.79842   -346.99106   -117.83925    125.56301   -361.22465   -36539.644     245.6404 
   10250    56.864812    56.864812    56.864812   -26.597891   -15.466019    227.97141   -258.88973   -46.329533    197.08495    -289.7449   -17.998121    225.52018   -261.49783    -36533.43    242.06683 
   10300    56.861445    56.861445    56.861445    149.76929    126.29124    369.87344   -117.27956    141.06916    384.59986   -102.44781    181.94746    425.52873    -61.62997   -36533.981     243.2582 
   10350    56.862821    56.862821    56.862821    11.487024    51.906567    295.50352   -191.67737    56.814679    300.30836    -186.6686   -74.260174    169.31292   -317.81678    -36534.68    244.55298 
   10400    56.865893    56.865893    56.865893   -35.474758   -12.459707    230.97941   -255.89252   -17.783992    225.68763   -261.23723   -76.180575    167.25656   -319.59951   -36532.537    243.83525 
   10450    56.866326    56.866326    56.866326   -51.546655   -89.188483    154.23882   -332.61619   -32.574048     210.9182   -276.06055   -32.877432    210.58337   -276.33608   -36535.173    246.49081 
   10500    56.864493    56.864493    56.864493    47.091711    83.029365     326.5317    -160.4651    43.683905    287.17254   -199.79452    14.561862    258.04748   -228.92806   -36530.875    244.24843 
   10550    56.865536    56.865536    56.865536    13.125265   -9.8126416    233.70182   -253.30118   -31.079632    212.41489   -274.56468    80.268068    323.85378   -163.29527   -36534.847    247.83816 
   10600    56.867189    56.867189    56.867189   -40.285396   -58.533814    184.98169   -302.02994   -71.440551    172.00222   -314.87428    9.1181759    252.53424   -234.28172   -36529.547    244.88805 
   10650    56.866544    56.866544    56.866544   -18.510448   -60.434257    182.98632   -303.85674   -10.587505    232.91477   -254.08074    15.490418    258.97746   -227.98992   -36531.633    247.14421 
   10700    56.865061    56.865061    56.865061    33.536942    47.157644    290.61885   -196.29655    2.4967929    245.92426   -240.92076     50.95639     294.5777   -192.65449   -36534.489    249.94018 
   10750    56.867196    56.867196    56.867196   0.12503737   -8.5946339    234.90098   -252.07762   -34.294356    209.21844   -277.78656    43.264102    286.70056   -200.16603   -36530.161    247.66722 
   10800    56.869507    56.869507    56.869507   -99.133764   -105.07185    138.30632    -348.4418   -45.764678    197.62918   -289.15878   -146.56476    96.936192   -390.06117   -36530.212    248.48353 
   10850     56.86729     56.86729     56.86729  0.080019596    61.348077    304.86046   -182.16039   -60.368734    183.18361   -303.91522  -0.73928425    242.73063    -244.2009   -36529.742    248.92105 
   10900    56.866329    56.866329    56.866329    78.433456    76.985378    320.51733   -166.54091    118.89892    362.37333    -124.5698    39.416073     282.9072   -204.06537   -36528.432    248.76914 
   10950    56.869308    56.869308    56.869308   -57.767166    25.148891    268.73303   -218.41224   -105.80808    137.63186   -349.24293   -92.642312    150.85177   -336.12365   -36527.111     248.6038 
   11000    56.869779    56.869779    56.869779   -91.992592    -97.54218    145.83118   -340.89939    -5.355358    238.09441   -248.78429   -173.08024    70.447454   -416.59702   -36527.205    249.44124 
   11050     56.86616     56.86616     56.86616    177.64919    197.87623    441.42016   -45.668742    157.66529    401.14101   -85.799268    177.40605    421.04554   -66.224123    -36523.86    247.85071 
   11100    56.868122    56.868122    56.868122   -14.480279   -38.943133    204.53836   -282.40961    7.9216503    251.40496   -235.54782   -12.419354    230.96077   -255.78355   -36528.225    251.68765 
   11150    56.870895    56.870895    56.870895   -47.086327   -41.688967    201.76021    -285.1178    45.607891    289.05977   -197.82788   -145.17791    98.289799   -388.62765   -36524.672    249.94351 
   11200    56.870861    56.870861    56.870861   -104.78092   -135.90639    107.54079   -379.33443   -90.136313    153.23466    -333.4951   -88.300072    155.11265   -331.69443   -36527.959    253.01625 
   11250    56.867992    56.867992    56.867992    80.906383   -4.3126116    238.99358   -247.60695    142.35539    385.92411   -101.19551    104.67637    348.20494   -138.83891   -36525.763    252.21917 
   11300     56.86846     56.86846     56.86846    65.605904    93.841189    337.48321   -149.79409    23.717776    267.22684   -219.77675    79.258747    322.87008   -164.34675   -36521.399    249.89766 
   11350    56.871106    56.871106    56.871106   -6.8129354     18.12323    261.66174   -225.40268    39.509997    282.83334   -203.80846   -78.072033    165.29754   -321.43121   -36522.876     251.6836 
   11400    56.872009    56.872009    56.872009   -51.276761   -42.002175    201.49316   -285.49393   -43.549156    199.85418   -286.93971   -68.278952    175.21258   -311.75098   -36522.258    251.99223 
   11450    56.869785    56.869785    56.869785    110.31365   -23.285011    220.13693   -266.69846    179.32469     422.8418   -64.188063    174.90128    418.42956   -68.620226   -36519.156    250.54758 
   11500    56.870827    56.870827    56.870827    9.5936307   -24.980564    218.45652   -268.41381     5.408319    248.95636   -238.12804    48.353137    291.83212    -195.1314   -36524.096    254.76989 
   11550    56.873401    56.873401    56.873401   -36.903003   -95.946526    147.55756   -339.43903    16.419421    259.77063   -226.91851   -31.181905    212.27562   -274.62409    -36520.69    253.10383 
   11600    56.873767    56.873767    56.873767   -131.43001   -22.182242    221.25947   -265.60839   -228.87976     14.45664   -472.20892   -143.22802     100.1492   -386.58931   -36524.429    256.47714 
   11650    56.870768    56.870768    56.870768    39.895285    81.191456    324.75136   -162.35009    74.332659    317.87588   -169.19079    -35.83826    207.67852   -279.34476   -36519.263    253.56795 
   11700    56.870642    56.870642    56.870642    116.35714    45.884615    289.31152   -197.52284    212.79541    456.31661   -30.714931     90.39139    333.84699   -153.05046   -36520.309    255.04007 
   11750    56.874513    56.874513    56.874513   -63.424314   -126.60176    116.83612   -370.02909    -70.14658    173.20958   -313.49443    6.4753977    250.01801   -237.05699    -36516.31    252.94374 
   11800    56.875355    56.875355    56.875355   -46.467621   -124.81582    118.64618   -368.27278    17.302101    260.69116   -226.08187   -31.889145    211.53831   -275.29929   -36517.383    254.42658 
   11850    56.872232    56.872232    56.872232    11.273582    5.6962853    249.09859   -237.70125   -58.665426    184.74109   -302.05885    86.789888    330.19443   -156.61583   -36523.065    259.15449 
   11900    56.871383    56.871383    56.871383    131.23855     122.7201    366.20253   -120.74874    134.17837    377.70177   -109.33486    136.81718    380.41527   -106.77662   -36515.889    254.80974 
   11950    56.875942    56.875942    56.875942   -58.773173   -89.044764    154.36011   -332.43206    46.925168    290.24026   -196.37972   -134.19992    109.23987   -377.62465   -36516.043    255.63296 
   12000    56.877243    56.877243    56.877243   -112.75466   -166.64461    76.741315   -410.01941   -63.296873    180.13023    -306.7098    -108.3225    135.10197   -351.72622   -36517.685    257.49977 
   12050    56.873147    56.873147    56.873147    30.408748    -40.79625    202.73805   -284.32261    73.423791    316.88475   -170.02806    58.598702    302.01902   -184.80789    -36518.19     258.5689 
   12100    56.871671    56.871671    56.871671    78.478824    47.418831    290.83219   -195.98962    171.36936     414.8471   -72.089092    16.648278    260.12903   -226.83143   -36518.697    259.63154 
   12150    56.876291    56.876291    56.876291    25.244223   -87.837616    155.65867   -331.31475    25.323282    268.78338   -218.12152      138.247     381.7462   -105.23241   -36511.572    255.30816 
   12200    56.879789    56.879789    56.879789   -226.38531   -268.72931   -25.431555    -512.0052   -284.52783   -41.229841   -527.80847    -125.8988    117.49635   -369.27281   -36516.693    259.62406 
   12250      56.8744      56.8744      56.8744    82.328458    82.536055    326.06279   -160.98784    43.289565    286.80868   -200.22188    121.15975    364.65753   -122.32862   -36513.706    258.21483 
   12300    56.873284    56.873284    56.873284    98.238805    102.61493    346.18216   -140.95046    90.400461    333.85366   -153.05625    101.70102    345.19196   -141.78045   -36516.042    260.56037 
   12350    56.878201    56.878201    56.878201   -90.078247   -48.878113    194.53487   -292.27353    -211.4649    31.922215   -454.83426   -9.8917284    233.52877   -253.30543   -36513.119    259.19362 
   12400    56.879037    56.879037    56.879037   -110.77093   -177.64656    65.744123   -421.02475    -61.00398    182.31361   -304.30624   -93.662263    149.70271   -337.01261   -36512.978    259.78949 
   12450    56.874417    56.874417    56.874417    111.06738    93.587059    337.08886   -149.89869   -6.5624922    236.84056   -249.94939    246.17757    489.71137    2.6473744   -36511.412    259.37022 
   12500    56.874435    56.874435    56.874435    73.470654    67.603124    311.10191   -175.88151       112.65    356.08505   -130.77726    40.158833    283.65041    -203.3035   -36513.708    261.67062 
   12550    56.878852    56.878852    56.878852   -72.342631   -74.556477    168.81829   -317.92058   -169.99685    73.461746   -413.44497     27.52543    270.93934    -215.8714   -36511.151    260.54548 
   12600    56.880396    56.880396    56.880396   -113.40605   -136.41379     107.0141    -379.8215   -111.61178    131.73231   -354.94172   -92.192588    151.09871   -335.48575   -36510.586    260.82595 
   12650    56.876809    56.876809    56.876809    94.900239    51.106993    294.64348   -192.41104    102.13513    345.54535   -141.26562     131.4586    374.96867   -112.02656   -36509.516    260.74703 
   12700    56.876831    56.876831    56.876831    114.29304    104.93348    348.41859   -138.54382     52.91547    296.33626   -190.47374    185.03016    428.53806   -58.461033   -36508.534    260.72966 
   12750    56.880955    56.880955    56.880955   -117.61029   -247.83019   -4.5614053   -491.09101   -103.61401    139.76131   -346.97168   -1.3866525     242.0373   -244.80195   -36510.399    262.71518 
   12800    56.880292    56.880292    56.880292     -74.6217    -127.3411    116.00029   -370.65791   -87.819847     155.5076   -331.14234   -8.7041567    234.66049   -252.06443   -36508.402    261.97231 
   12850     56.87693     56.87693     56.87693    1.9888575   -81.001986     162.5044   -324.49852   -46.088433    197.36885   -289.53724    133.05699    376.55719   -110.42783   -36513.031     265.9018 
   12900    56.876706    56.876706    56.876706     190.3332    135.19266    378.73431    -108.3455     164.5141      407.953    -78.90549    271.29284     514.7554    27.842706   -36507.282    262.50415 
   12950    56.882883    56.882883    56.882883   -137.55546   -142.03366    101.27019   -385.31959   -145.21792    98.090627   -388.51625   -125.41481    117.96812   -368.79472   -36504.888    261.47154 
   13000    56.881865    56.881865    56.881865   -65.635646   -118.89377    124.50524    -362.2934   -105.50936    137.94738   -348.95461    27.496196    270.90107   -215.89534   -36507.297     263.8234 
   13050    56.877028    56.877028    56.877028    172.86677    152.03358    395.50355   -91.421468    185.09563    428.51006   -58.315536    181.47109    425.01024    -62.06657   -36503.199    261.58511 
   13100    56.879123    56.879123    56.879123    47.774233    22.971729     266.4676   -220.50912     51.28416    294.71374   -192.13321    69.066811    312.44656   -174.29244   -36506.812    264.78001 
   13150    56.883432    56.883432    56.883432   -94.522645   -80.953606    162.44242   -324.32936   -164.16606    79.107709   -407.41794   -38.448267    204.93794   -281.81254   -36506.489    265.20091 
   13200    56.882902    56.882902    56.882902   -102.95001   -202.48202    40.877207   -445.83153   -98.462739    144.90464   -341.82557   -7.9052703    235.56913   -251.36167   -36506.679    265.97758 
   13250    56.879345    56.879345    56.879345    91.447866    91.588398    335.05168    -151.8551    26.421968    269.95455   -217.09653    156.33323    399.75974   -87.080939   -36504.664    265.19617 
   13300    56.880694    56.880694    56.880694    45.362014   -34.526738    208.79143    -277.8206   -21.428192    221.86167    -264.7055    192.04097    435.53354     -51.4416   -36503.804    265.22997 
   13350    56.883482    56.883482    56.883482   -43.744955     30.30167    273.73738    -213.1318   -149.44213    93.932262   -392.80256   -12.094406    231.28269   -255.45763   -36503.078    265.35302 
   13400    56.883273    56.883273    56.883273   -83.270707   -250.81007   -7.4863933   -494.12492    -69.75202    173.68845    -313.1753    70.749973    314.11824   -172.60344   -36502.819    265.79797 
   13450    56.880651    56.880651    56.880651    94.995331    87.080967    330.64154   -156.46656    26.766256     270.1127   -216.57163    171.13877    414.62682   -72.338995   -36505.268    268.15402 
   13500    56.882817    56.882817    56.882817    11.039394   -85.394829    157.95405   -328.73258   -1.2770372    242.07255   -244.61173    119.79005    363.27449   -123.67021    -36501.22    265.91984 
   13550    56.885608    56.885608    56.885608   -126.19796   -185.37594    57.933498   -428.67283   -179.35941    63.965892   -422.65653   -13.858531    229.45683   -257.15992   -36503.521    268.16696 
   13600    56.883271    56.883271    56.883271    7.7697774   -20.829806    222.61646   -264.25223    14.108163    257.56299   -229.33595    30.030976    273.40718   -213.34105   -36502.467    268.03814 
   13650    56.880992    56.880992    56.880992    129.73929    134.60778    378.05178   -108.83426    52.275088     295.6398   -191.07942    202.33501    445.86544    -41.17882   -36497.797     265.3611 
   13700    56.883536    56.883536    56.883536    20.036436   -37.388856    206.08418   -280.85022    13.804319    257.18624     -229.564    83.693844    327.12973   -159.71821   -36499.037    266.84377 
   13750    56.886699    56.886699    56.886699   -119.60191   -21.258941    222.06408   -264.56084   -184.20056    59.164043   -427.54518   -153.34624    89.995494   -396.68111   -36500.644    268.58652 
   13800    56.884057    56.884057    56.884057    57.499664    11.151808    254.68251   -232.36241    108.74949    352.19962   -134.68852    52.597694    296.04233   -190.84096   -36495.958    265.89087 
   13850    56.882384    56.882384    56.882384    41.858702    50.551686    293.91502   -192.79686   -58.438601     185.0213   -301.88556    133.46302    376.88389   -109.94349   -36502.253     270.9349 
   13900    56.883933    56.883933    56.883933    20.025314    46.874906    290.21424   -196.45935   -10.333844    233.04773   -253.70843    23.534881    266.92786   -219.83687   -36499.628    269.68676 
   13950    56.887095    56.887095    56.887095   -81.994839   -39.117717    204.38395   -282.61074   -99.861373    143.40524    -343.1112   -107.00543    136.37942   -350.38163   -36499.046    269.87428 
   14000    56.885961    56.885961    56.885961   -15.150204    35.574007    278.98677   -207.82726   -120.44713    122.89972   -363.78059    39.422512    282.75642    -203.9018   -36497.156    269.13761 
   14050    56.883223    56.883223    56.883223     71.72275   -26.049342    217.31933   -269.40101    115.22173    358.74007   -128.28283    125.99586     369.4328   -117.42573   -36498.583    270.73053 
   14100    56.884343    56.884343    56.884343    47.340636   -3.1082221    240.32774   -246.52576   -57.011195    186.44798   -300.46156    202.14132        445.6   -41.311785    -36495.75    269.31997 
   14150    56.887212    56.887212    56.887212   -55.697285   -25.085652    218.30823   -268.46416   -2.3125438    240.94251   -245.55625   -139.69366     103.7097    -383.0867   -36496.282    270.27759 
   14200    56.886997    56.886997    56.886997    3.9619965    -13.11553    230.32771   -256.54567   -83.996182    159.47803   -327.45377     108.9977    352.38126   -134.36759   -36493.867    269.15885 
   14250    56.885501    56.885501    56.885501    26.191782   -54.725124    188.70561   -298.13906    81.992712    325.35755   -161.36257    51.307757    294.68192   -192.04825   -36495.107    270.61429 
   14300    56.885732    56.885732    56.885732    122.64097    26.009676    269.43087   -217.39115    12.225796    255.66273   -231.19039    329.68743     573.1653    86.228152   -36493.471    270.03763 
   14350    56.888853    56.888853    56.888853   -78.200624   -120.07071    123.24772   -363.37947   -116.43934    126.87063   -359.72668    1.9081829    245.18209   -241.35346   -36495.543     272.0728 
   14400    56.888301    56.888301    56.888301    34.735356     24.40051    267.66682   -218.85411    85.186215    328.49783   -158.11578   -5.3806591     237.9648   -248.71418   -36493.947    271.51493 
   14450    56.887517    56.887517    56.887517   -37.240188    10.622599    254.06446   -232.80481   -203.19189    40.201613   -446.57046    80.848725    324.28314   -162.56352   -36495.427    273.12083 
   14500    56.886974    56.886974    56.886974    68.439582   -1.9800165    241.42868   -245.36866    66.640628    310.03665   -176.73238    140.65813    383.98138   -102.65529    -36493.29    272.17676 
   14550    56.889182    56.889182    56.889182   -55.682303    -39.50121     203.8613   -282.84799   -136.77517    106.61203   -380.14885    9.2294733    252.64302   -234.16419   -36494.711    273.73873 
   14600    56.889012    56.889012    56.889012   -28.985119   -59.231916    184.06087   -302.51138   -98.993684    144.35643   -342.33899    71.270241    314.73885   -172.17747   -36491.986    272.37513 
   14650    56.887361    56.887361    56.887361    78.585364    133.42277    376.90669   -110.05111   -1.5960223    241.72003    -244.8757    103.92935    347.31427   -139.44152   -36491.714    272.73443 
   14700     56.88862     56.88862     56.88862   -58.734077   -109.27115    134.09522   -352.60632   -81.900589    161.50258   -325.29131    14.969513    258.31135   -228.35265   -36496.283    276.50653 
   14750    56.888985    56.888985    56.888985    2.8537523   -3.9073304    239.45093   -247.25316   -66.283683    177.11101   -309.67108     78.75227    322.12344   -164.60386   -36490.696    273.11182 
   14800    56.888907    56.888907    56.888907   -19.161858    63.275425    306.75928   -180.19978   -60.661225    182.71419   -304.02243   -60.099773     183.2904    -303.4821   -36491.934    274.52754 
   14850    56.888173    56.888173    56.888173    109.46163    47.787793    291.15352   -195.56503   -58.210391    185.14336   -301.55085     338.8075    582.23205    95.398097   -36490.365    273.96442 
   14900    56.890606    56.890606    56.890606   -95.053114   0.02339692    243.33629   -243.27451   -116.76286    126.47717   -359.99279   -168.41988    74.973946   -411.79834   -36492.375    275.92029 
   14950    56.889994    56.889994    56.889994   -5.0220196   -183.77503    59.604776   -427.15176    -38.54847    204.92884   -282.01458    207.25744    450.56701   -36.041727   -36488.616    273.80589 
   15000    56.888459    56.888459    56.888459    46.855633    78.737891    322.16885   -164.67569    36.647109    279.98632   -206.67434    25.181898    268.59657   -218.22587    -36490.19    275.44536 
   15050    56.888954    56.888954    56.888954   -9.6023083   -45.904425      197.488   -289.27375   -87.367039    156.02066   -330.73027    104.46454    347.97524   -139.02415   -36491.154    276.65452 
   15100    56.890451    56.890451    56.890451   -56.774675   -103.84046    139.53532   -347.20172   -109.49569    133.94405   -352.91728    43.012124     286.3946   -200.34958   -36489.274    275.85398 
   15150    56.890424    56.890424    56.890424   -48.379254   -153.65101    89.682186   -396.96602   -105.85689    137.35607   -349.05763    114.37015     357.6612   -128.91476     -36491.3    277.80969 
   15200    56.888784    56.888784    56.888784    87.634494    6.1356522    249.47642     -237.182    60.741603    304.16603   -182.67198    196.02623    439.52061   -47.444798    -36488.51    276.36227 
   15250    56.889785    56.889785    56.889785    17.949486    16.762174    260.14492   -226.61495   -57.338962    186.04524   -300.70434    94.425247    337.78155   -148.90919   -36487.023    275.82512 
   15300    56.891642    56.891642    56.891642   -16.241548    -170.6282    72.772451     -414.013   -33.433419    209.98215   -276.82817    155.33698    398.74952   -88.059506    -36484.64    274.65311 
   15350    56.891835    56.891835    56.891835   -91.586952    -42.59379    200.81175   -285.98659   -185.66837    57.637948   -428.96371   -46.498693    196.84104   -289.81359   -36491.454    279.96609 
   15400    56.888615    56.888615    56.888615     93.52794     17.90775    261.37737   -225.55351    101.62042    345.01397   -141.76178    161.05564    404.49532   -82.380143   -36484.232     275.3798 
   15450    56.889808    56.889808    56.889808    24.496751    21.211802    264.53413   -222.08588   -41.941334    201.52159   -285.39065    94.219784    337.64589   -149.20558   -36492.192    281.49334 
   15500    56.893711    56.893711    56.893711   -79.327417    17.560948    260.92605   -225.79202   -208.20825    34.994807   -451.39468   -47.334947    195.91674   -290.57185   -36483.487    275.85208 
   15550    56.894081    56.894081    56.894081   -110.56586   -192.66487    50.581024   -435.90348   -118.01076    125.38198   -361.39199   -21.021957     222.4088   -264.43134   -36486.493    278.46794 
   15600    56.890352    56.890352    56.890352    75.978322    172.69339    416.06673   -70.665841   -12.268976    231.11648   -255.63333    67.510555    310.99575   -175.95713   -36485.173    278.03425 
   15650    56.890031    56.890031    56.890031     96.64499   -45.235391     198.2596   -288.70564    164.63391    408.07644    -78.78719    170.53645    413.87702   -72.788004   -36487.039    279.84381 
   15700    56.894261    56.894261    56.894261   -64.779364  -0.62616814    242.65564   -243.89801    -189.6787    53.616808   -432.96616   -4.0332253    239.16532   -247.20054    -36483.87    278.09467 
   15750    56.895239    56.895239    56.895239   -153.86075   -166.33989    77.026938   -409.69088   -226.81014     16.48382   -470.08552   -68.432202    174.95969   -311.81723   -36484.831    279.25601 
   15800    56.890182    56.890182    56.890182    109.47489    85.922129    329.30876   -157.44142    101.99214    345.43251   -141.42668    140.51039    384.04116   -103.01129   -36485.302     280.0696 
   15850     56.89035     56.89035     56.89035    129.72671    269.95725     513.4441    26.498025   -35.161723    208.19931   -278.50616    154.38459    397.81265   -89.015868   -36481.614    277.94646 
   15900    56.895714    56.895714    56.895714   -120.26386   -167.85487    75.472028   -411.16399   -169.06464    74.222647   -412.33353   -23.872081    219.48599   -267.21208   -36484.823    280.68573 
   15950    56.895102    56.895102    56.895102      1.02705    5.6256019    248.85577   -237.59974   -127.80941    115.52633   -371.13918    125.26495    368.49928   -117.95247   -36479.801     277.6167 
   16000    56.892119    56.892119    56.892119    4.7798054   -50.749444    192.61566   -294.09672    72.843386    316.32749    -170.6174   -7.7545262    235.65737   -251.15483    -36484.82     281.6239 
   16050    56.890863    56.890863    56.890863    132.03736    130.46402    373.91891    -112.9706    177.70368     421.1568   -65.726911    87.944372    331.40763   -155.49927   -36482.017    280.11367 
   16100    56.895353    56.895353    56.895353   -124.30315   -227.30463    16.049918   -470.64713   -141.70884    101.54841   -384.94724   -3.8959851    239.31085   -247.07648    -36484.77     282.5132 
   16150    56.896306    56.896306    56.896306   -35.547615   -21.799319     221.5563   -265.13613   -9.2031044    234.12642   -252.51167   -75.640422    167.74359   -319.02327   -36479.637    279.35484 
   16200    56.894415    56.894415    56.894415    3.8988613    38.419817    281.73138   -204.86808   -105.90283    137.23231   -349.03106    79.179594    322.60024    -164.2251   -36483.752    282.71271 
   16250    56.893072    56.893072    56.893072    79.305946    22.663096    266.03085   -220.69814    120.62195    364.18021   -122.92354     94.63279     338.0298   -148.74149     -36480.1    280.59077 
   16300     56.89519     56.89519     56.89519   -9.8924863   -0.6872959    242.64317   -244.00544    86.985758    330.33275   -156.34877   -115.97592    127.31074   -359.24861    -36481.33    281.90493 
   16350    56.897382    56.897382    56.897382   -61.315561   -189.29669    54.063835   -432.63945    -54.13282    189.09354   -297.33401    59.482827     302.6887   -183.71804   -36480.244    281.58518 
   16400    56.896242    56.896242    56.896242   -51.190417   -111.86702    131.53701   -355.24237    23.031555    266.41394   -220.33675   -64.735788    178.72747   -308.17328   -36480.512    282.22032 
   16450    56.892598    56.892598    56.892598    91.000737    76.839873    320.17974   -166.48513    61.303641    304.62676   -182.01136     134.8587    378.31077   -108.57166   -36482.957    284.38789 
   16500    56.893676    56.893676    56.893676    113.26595     101.7218    345.02567    -141.5765    4.2529178    247.71723   -239.19704    233.82312    477.31633   -9.6516088   -36477.056    280.65897 
   16550    56.899087    56.899087    56.899087   -166.69439   -76.455215    166.82355   -319.70985   -196.12207    47.089967   -439.31869   -227.50588    15.721377   -470.72502   -36480.716    283.67129 
   16600     56.89754     56.89754     56.89754   -82.928843   -94.856268    148.63911   -338.33952   -91.094291    152.28502   -334.44655   -62.835969    180.46701   -306.12892   -36477.149    281.58546 
   16650    56.893507    56.893507    56.893507    85.482249     70.02492    313.40699   -173.33257     183.6632    427.00436   -59.661091    2.7586236    246.18636   -240.65504   -36482.221     285.5919 
   16700    56.895371    56.895371    56.895371    29.242499   -36.844139    206.47453   -280.14772   -34.295597    209.05163   -277.63085    158.86723    402.30367   -84.539628    -36480.65    284.91048 
   16750    56.899242    56.899242    56.899242   -133.97359   -189.87329     53.38651   -433.11235   -149.70926    93.596212   -392.99203   -62.338205     180.9892   -305.65186   -36480.302    285.08948 
   16800     56.89736     56.89736     56.89736    -42.21128   -152.62765    90.698999   -395.94666    55.818335    299.14137   -187.48594   -29.824528    213.40729   -273.03968   -36475.564    282.16438 
   16850    56.893391    56.893391    56.893391    126.68614    143.15799    386.73458   -100.39778    51.078636    294.53344   -192.36205    185.82179    429.20705   -57.542675   -36477.734    284.10823 
   16900    56.894884    56.894884    56.894884    18.389256    33.022407     276.3547   -210.28953    31.334208    274.60179    -211.9197    -9.188847    234.26638   -252.61697   -36480.696    286.60557 
   16950    56.898539    56.898539    56.898539   -12.804635   -73.880937    169.39136   -317.14108    24.667248    268.01124   -218.65205    10.799782    254.27041   -232.65287   -36471.667    280.64556 
   17000    56.898567    56.898567    56.898567    -166.8334   -318.53861   -75.332076   -561.73034   -114.40747    128.94908   -357.74384   -67.554108    175.69369    -310.7979   -36480.812    287.49934 
   17050    56.894072    56.894072    56.894072    174.08261    181.10178    424.69744   -62.483603    128.37928    371.75551    -114.9779    212.76676    456.11623   -30.568175   -36477.414    285.50288 
   17100    56.897545    56.897545    56.897545   -33.210443   -10.415349    232.88216   -253.69637   -95.581551    147.74082   -338.88687    6.3655691    249.78511   -237.04828   -36476.858    285.51089 
   17150    56.900399    56.900399    56.900399    -127.7804   -230.66536    12.587859   -473.89246    33.370157    276.67086   -209.92364   -186.04601    57.238799   -429.30962   -36475.928    285.25104 
   17200     56.89737     56.89737     56.89737    14.858068    48.547291    291.94816   -194.83876    7.7513973    251.01622   -235.48838   -11.724484    231.61374   -255.02997   -36475.227    285.15371 
   17250    56.895166    56.895166    56.895166    118.24412    37.743761    281.08361   -205.57998    149.12933    392.48027   -94.206322    167.85926    411.30502   -75.557899    -36475.58    285.79471 
   17300    56.898769    56.898769    56.898769    35.926509    39.911572    283.36277   -203.51996    106.52294    350.04981   -136.99363    -38.65499     204.7087   -282.01521   -36471.852    283.55397 
   17350    56.901476    56.901476    56.901476   -180.36056   -141.64241    101.48509   -384.75536   -192.22136    50.949566   -435.37435    -207.2179    35.954934   -450.37848    -36477.36    287.82397 
   17400    56.897641    56.897641    56.897641    74.546656   -22.614377    220.77075   -265.96692    196.49332    439.85465   -46.849367     49.76102    293.21803   -193.66971   -36473.785    285.68451 
   17450    56.896932    56.896932    56.896932    49.535166    165.97287    409.40922   -77.451452    43.716308    287.19973   -199.74527   -61.083679    182.13645   -304.27634   -36476.859    288.23247 
   17500         56.9         56.9         56.9   -81.307318   -117.66651    125.61616   -360.93443   -13.920099    229.40497   -257.22455   -112.33534    131.09198   -355.74464   -36475.984    287.99008 
   17550    56.900448    56.900448    56.900448   -51.675045   -47.685359    195.62286   -290.96882   -80.208059    162.99927   -323.39863   -27.131718    216.25415   -270.51121   -36474.303    287.17715 
   17600    56.898187    56.898187    56.898187    14.245509   -24.822849    218.44524   -268.07776    14.056305    257.34965   -229.22811     53.50307    296.71805   -189.69291   -36474.852    287.93118 
   17650    56.897512    56.897512    56.897512    92.916973    34.009693      277.481   -209.44011    134.24025    377.76868   -109.26617    110.50098    353.97224   -132.95488   -36469.551    284.55683 
   17700    56.900523    56.900523    56.900523   -65.221952   -31.546235    211.78116   -274.85866   -58.522486    184.79607   -301.81845   -105.59713    137.53337   -348.69632   -36475.898    289.39429 
   17750    56.901025    56.901025    56.901025    50.774743   -71.077213    172.29725   -314.42937    115.03504    358.33656   -128.23935     108.3664    351.66066   -134.92635   -36467.539    283.86121 
   17800    56.900786    56.900786    56.900786   -60.399228   -59.232473    183.98608   -302.43536   -121.02071    122.24591   -364.27402  -0.94450644    242.43162   -244.30257   -36472.929    288.01699 
   17850    56.898885    56.898885    56.898885    51.889462    21.461743    264.75342     -221.807    70.720234    314.16165   -172.69164    63.486408    306.95429   -179.95672   -36474.015    289.13842 
   17900     56.89887     56.89887     56.89887   -1.8572999   -57.578366    185.75786    -300.8974    39.687414    283.07599    -203.6814    12.319053    255.52294   -230.84727   -36476.015     290.9011 
   17950    56.901286    56.901286    56.901286   -84.676158   -101.36299    141.96978    -344.6708    -39.34843    203.84855   -282.53057   -113.31705     129.9489   -356.56049   -36470.845    287.60354 
   18000    56.900863    56.900863    56.900863   -7.2039125   -133.93108    109.33047   -377.17838    67.836861    311.21624   -175.52672    44.482481    287.84627   -198.88495   -36472.136    288.86297 
   18050    56.899079    56.899079    56.899079    33.890866    21.778321    265.16263   -221.58534    93.262497    336.62738   -150.09229    -13.36822    229.87364   -256.59153   -36471.793    288.96082 
   18100    56.899822    56.899822    56.899822    79.771296    17.590111    261.01763   -225.83084    35.900828    279.27965   -207.45996    185.82295    429.15409   -57.499397   -36469.364    287.58767 
   18150    56.902796    56.902796    56.902796   -119.96418   -35.861939    207.35234   -279.05878   -156.49004    86.733298   -399.70111   -167.54057    75.739171   -410.81028   -36473.081    290.54298 
   18200    56.901628    56.901628    56.901628   -16.542004   -129.92454    113.41536   -373.24354    53.932955    297.17483   -189.28446    26.365573    269.76211   -217.01173   -36470.705    289.20074 
   18250    56.899576    56.899576    56.899576    106.97648    67.395059    310.69561   -175.88132    122.83403    366.25886   -120.58081    130.70034     374.0678   -112.64205   -36467.606    287.34527 
   18300    56.901164    56.901164    56.901164   -15.706688    -89.67526     153.6956   -333.03994    63.422843    306.82883   -179.96469   -20.867649    222.37868   -264.09523   -36472.438    291.08109 
   18350    56.901959    56.901959    56.901959   -19.834482   -127.18268    116.13001   -370.48005   -10.441325    232.80991   -253.67482    78.120562    321.42044   -165.16671   -36466.372     287.1258 
   18400    56.901838    56.901838    56.901838    -57.22142    -79.76832    163.58751   -323.09659   -10.526403    232.70936   -253.73711   -81.369537    161.85159   -324.56134   -36472.805    291.98154 
   18450    56.900672    56.900672    56.900672    14.577977   -46.539506    196.82932   -289.88343    18.723834    262.10282    -224.6299    71.549601    314.94272   -171.81652    -36469.86    290.22739 
   18500    56.900791    56.900791    56.900791    64.472862   -6.9038745    236.33662   -250.13904    115.04193    358.44718   -128.34237    85.280529    328.68278   -158.10217   -36467.652    288.98767 
   18550    56.902627    56.902627    56.902627   -68.282136   -66.280978    176.93616   -309.48919    23.901883    267.18557   -219.36641   -162.46731    80.808724   -405.73146   -36470.486    291.30047 
   18600    56.902356    56.902356    56.902356    30.544851   -103.07124    140.36093    -346.4711    162.63439    405.93155    -80.65094    32.071408    275.37943   -211.21405   -36465.289    287.94819 
   18650    56.902716    56.902716    56.902716   -29.087181     26.46055    269.83254   -216.88802    29.573316    272.90673   -213.72682   -143.29541    99.958997   -386.52591   -36470.661    292.04574 
   18700    56.902556    56.902556    56.902556   -38.740462   -148.43534    94.870949   -391.72347    33.970324    277.26222   -209.30579   -1.7563655    241.56717   -245.06288   -36470.863    292.49436 
   18750    56.902017    56.902017    56.902017    40.209098     50.13563    293.47588   -193.18444     143.0576    386.36549     -100.242   -72.565936    170.68113   -315.79329   -36467.328    290.30636 
   18800    56.902739    56.902739    56.902739   -44.561075   -166.50627     76.75079   -409.73955      59.4161    302.81472   -183.96597   -26.593058    216.64961   -269.81414   -36468.328    291.31118 
   18850    56.902455    56.902455    56.902455    7.6091179   -6.3864649    236.93884   -249.69782    111.12675    354.39566   -132.11381   -81.912932    161.43191   -325.24292   -36466.434    290.27402 
   18900    56.902478    56.902478    56.902478   -52.684446   -208.10316    35.149158   -451.33898    86.497832    329.77901   -156.76093   -36.448012    206.75707   -279.63302   -36471.431    294.09244 
   18950    56.901924    56.901924    56.901924    150.88448    107.23343    350.61341   -136.13205    256.76477    500.09809    13.440716    88.655248    332.03284   -154.69985   -36460.623    286.76389 
   19000    56.904845    56.904845    56.904845   -56.082955   -131.49194    111.77676   -374.72982    9.0974236    252.36651   -234.15381   -45.854344    197.37323   -289.07717   -36466.406    291.13058 
   19050     56.90388     56.90388     56.90388    21.734336    94.764283    338.06114   -148.51374    82.619778    326.02304   -160.75813   -112.18105    131.02233   -355.37179   -36465.708    290.92348 
[...]
   13800        0.138    296.14544    7.7262682 -0.0048422803 -0.0011929827 -0.023105946    7.7030577    7.7494776    420.12083   -35751.307    -25734.11 
   13850       0.1385    289.06286    7.7026802 -0.034102963 -0.027414319 -0.023101241    7.6794884    7.7258709    410.07327   -35736.688   -25470.543 
   13900        0.139    293.64921    7.7807768  0.033669848  0.035015607 -0.023075781    7.7575951    7.8039573    416.57961   -35738.595   -26164.874 
   13950       0.1395    289.92127     7.782404  0.024254378  0.034948042 -0.023074048    7.7592239    7.8055829    411.29104   -35728.692   -26138.688 
   14000         0.14    289.65671    7.7484131 -0.022473745   -0.0131234 -0.023090372    7.7252174    7.7716075    410.91573   -35723.707   -25709.386 
   14050       0.1405      290.019    7.7871088 -0.040374608 -0.042949854 -0.023092829    7.7639107    7.8103058    411.42968   -35719.582   -25679.281 
   14100        0.141    295.01546    7.8523183  0.020446195 0.0016239387 -0.023068754    7.8291531    7.8754824    418.51781   -35722.025   -26247.962 
   14150       0.1415    289.89436     7.849901  0.027489383  0.023797358 -0.023050519    7.8267453    7.8730555    411.25286   -35710.091   -26337.292 
   14200        0.142    287.14972    7.8158302 0.0089948421 0.0082773558 -0.023051555    7.7926824    7.8389768    407.35923   -35701.544   -26110.341 
   14250       0.1425    289.43673    7.8521538 -0.005827593 -0.0094635397 -0.023057728    7.8290038    7.8753026    410.60366   -35700.126   -26122.876 
   14300        0.143    292.50878    7.8945283 -0.017338412 -0.014357823 -0.023054295    7.8713744     7.917681    414.96176   -35699.783    -26209.44 
   14350       0.1435    290.70057    7.9084778 -0.014697316 0.00051729673 -0.023049172    7.8853172    7.9316371    412.39658   -35692.516   -26314.326 
   14400        0.144    290.70786    7.9228272   0.03723989  0.013845564 -0.023033339    7.8996917    7.9459615    412.40692   -35687.817   -26579.709 
   14450       0.1445    291.13489    7.9337902  0.024322699  0.010743964 -0.023028305    7.9106669    7.9569122    413.01271   -35683.712   -26562.856 
   14500        0.145    290.48315     7.941412 -0.019801992 -0.0033982772 -0.023034315    7.9182717    7.9645509    412.08813   -35678.061   -26394.039 
   14550       0.1455    289.92842    7.9382992 -0.018524408 -0.017242649 -0.023032349    7.9151543    7.9614429    411.30118   -35672.546   -26341.774 
   14600        0.146    290.86135    7.9879858 0.0015110922  0.021637326 -0.023015377    7.9648696    8.0111006    412.62466   -35669.129   -26703.781 
   14650       0.1465    290.56761    8.0375894  0.018490553  0.057829537 -0.023004461    8.0144931    8.0606844    412.20795   -35663.935   -27046.365 
   14700        0.147    288.92718    8.0352019  0.015166961 -0.0091783056 -0.023007133    8.0121011    8.0583014    409.88079   -35656.834   -26803.969 
   14750       0.1475    289.96632    8.0177108 -0.0080556513 -0.038753164 -0.023014907    7.9945833     8.040837    411.35495   -35653.514   -26569.673 
   14800        0.148    290.10956    7.9904429 -0.018691662 -0.032822383 -0.023006262    7.9673219    8.0135626    411.55815   -35648.954   -26463.096 
   14850       0.1485    287.50017    8.0131535  0.011826104  0.020707155 -0.022984422    7.9900725    8.0362331    407.85639   -35640.488   -26818.956 
   14900        0.149    288.57445    8.0474738  0.067036182  0.045634937 -0.022971087    8.0244039    8.0705423    409.38039   -35637.216   -27200.483 
   14950       0.1495    288.66152    8.0086357 -0.010158475 -0.0087584217 -0.022989103    7.9855373    8.0317328    409.50392   -35632.572   -26632.396 
   15000         0.15     288.2618    7.9964813 -0.076584627 -0.038751982 -0.022998402    7.9733726    8.0195886    408.93687   -35627.188   -26270.482 
   15050       0.1505     290.1011    8.0235858 -0.011151733 0.0005636787 -0.022974296    8.0005131     8.046657    411.54615   -35625.016   -26709.992 
   15100        0.151    288.13731      7.99034  0.054418164  0.041841908 -0.022951887    7.9672905    8.0133881    408.76026   -35617.441   -26955.334 
   15150       0.1515    290.16026    7.9220209   0.01396434  0.039715424 -0.022952097    7.8989674    7.9450729    411.63008   -35615.576   -26585.669 
   15200        0.152    294.01223    7.7991631   -0.0192567   -0.0283515 -0.022967777    7.7760921    7.8222326     417.0946    -35616.35   -25838.516 
   15250       0.1525    290.56533    7.6867963 -0.064448206 -0.048801857 -0.022962023    7.6637321    7.7098589    412.20473   -35606.826   -25245.154 
   15300        0.153    297.84934    7.6197685  0.046932549    0.0330865 -0.022920219    7.5967493    7.6427861    422.53803   -35612.608   -25665.958 
   15350       0.1535    300.09524    7.4116312   0.06983583  0.045086867 -0.022909873    7.3886299    7.4346308    425.72413   -35611.355   -25088.513 
   15400        0.154    305.95176    7.1637986   -0.0274841 -0.012621124 -0.022922749    7.1407864    7.1868091    434.03237   -35615.403   -23745.644 
   15450       0.1545    310.45983    6.8798721 -0.067535018 -0.025874078 -0.022923783    6.8568641    6.9028784    440.42766   -35617.719   -22621.543 
   15500        0.155    321.36353    6.6115901  0.015423975  0.028594424 -0.022892482    6.5886257    6.6345526    455.89598   -35629.396   -22185.362 
   15550       0.1555    322.10544     6.228228  0.044101246  0.045546607 -0.022875205     6.205291     6.251163    456.94847   -35626.971   -21059.586 
   15600        0.156    338.23516    5.8298859  0.017807598  0.019716351 -0.022876774    5.8069414    5.8528283    479.83057   -35646.831   -19558.033 
   15650       0.1565    346.84422    5.3831931 -0.056582249 -0.0034612628 -0.022899331    5.3602252    5.4061587    492.04364   -35656.452   -17743.832 
   15700        0.157    353.83551     4.945428 -0.053290044 0.0057534075 -0.022902504    4.9224759    4.9683775     501.9617   -35664.323   -16326.304 
   15750       0.1575    363.43866    4.5657797  0.021772348  0.049755915 -0.022886591    4.5428542    4.5887023    515.58502   -35676.472   -15457.693 
   15800        0.158    373.42074    4.1447828  0.041653084  0.076093482 -0.022895439     4.121835    4.1677276     529.7459   -35689.773   -14208.431 
   15850       0.1585    378.69808    3.7302164  0.021589844 0.0062349199 -0.022934096    3.7072284    3.7532011     537.2325   -35696.881   -12526.804 
   15900        0.159    381.36757    3.3342493 -0.031390677  -0.03636452 -0.022977348    3.3112006    3.3572943    541.01951   -35700.572   -10888.314 
   15950       0.1595    384.59458     3.060471  0.013797866 -0.035284714 -0.022993956    3.0374105    3.0835274    545.59744   -35705.221   -10129.947 
   16000         0.16    385.08921    2.8271611  0.043903534  0.042768631 -0.023000866    2.8040769    2.8502409    546.29914   -35706.172   -9712.7776 
   16050       0.1605    384.10697    2.5665801  0.045089409  0.041725309 -0.023034968    2.5434625    2.5896928    544.90571   -35705.203   -8844.6495 
   16100        0.161    387.22064    2.2748835  0.013916467 -0.028314324 -0.023083397    2.2516795    2.2980821    549.32285   -35710.156   -7534.9522 
   16150       0.1615    385.92943    2.1047556 0.0053012878 -0.069522062 -0.023115928     2.081479    2.1280262    547.49111   -35708.984   -6801.7828 
   16200        0.162    390.61317    2.0288355   0.02442483 -0.024654498 -0.023117851     2.005568    2.0520966     554.1356   -35716.476   -6762.0195 
   16250       0.1625    388.84951    1.9688859  0.035324208  0.053371249 -0.023121715    1.9455933    1.9921714    551.63361   -35714.962   -6858.6044 
   16300        0.163    394.00054    1.8741925 -0.0093936903  0.043924846 -0.023145217    1.8508558    1.8975216    558.94103   -35723.398   -6362.4122 
   16350       0.1635    400.86719    1.7951168 0.0033399617 -0.0058797207 -0.023172284    1.7716827    1.8185428    568.68225   -35734.396   -5975.2569 
   16400        0.164    398.88686    1.7536099 -0.039482322 -0.026375007 -0.023194116    1.7301835    1.7770276     565.8729   -35732.969   -5625.8418 
   16450       0.1645     400.2846    1.7848736    0.0200895 -0.059205234 -0.023189752    1.7614465    1.8082915    567.85577   -35736.374   -5819.1928 
   16500        0.165     403.1689    1.7256069   0.10114443  0.052774577 -0.023186157    1.7021519    1.7490522    571.94753   -35741.988   -6265.0864 
   16550       0.1655    402.47825    1.6479388  0.029647228 -0.0044732823 -0.023215034    1.6245319    1.6713356    570.96775   -35742.663   -5577.0426 
   16600        0.166    404.68678    1.5709871 -0.058831138  -0.04255065  -0.02324514     1.547588    1.5943754    574.10085   -35747.374   -4898.6844 
   16650       0.1665    404.53844    1.5995374  -0.06170886  0.013386573 -0.023239771     1.576104    1.6229595    573.89041   -35748.794   -5170.7172 
   16700        0.167    402.71906    1.6163213  0.018618007  0.077009222 -0.023223596    1.5929278    1.6397027    571.30938     -35747.9    -5706.495 
   16750       0.1675    400.43749    1.5986346 0.0015317278  0.040364551 -0.023231914    1.5752426    1.6220139    568.07268   -35746.414   -5468.4362 
   16800        0.168    405.15816     1.522843 -0.0059783113 -0.0072636776 -0.023261824    1.4994205    1.5462522    574.76955   -35754.864   -5032.0032 
   16850       0.1685    407.03887    1.5235562 -0.020422947 -0.034748321  -0.02326958    1.5001631    1.5469355    577.43758   -35759.278   -4894.6165 
   16900        0.169    405.47327    1.4941133  0.009120835 -0.038227345 -0.023260181    1.4707298    1.5174823    575.21658   -35758.843    -4883.356 
   16950       0.1695    405.51656    1.5457054  0.079934642  0.046820647 -0.023241084    1.5223694    1.5690263    575.27799   -35760.707    -5574.869 
   17000         0.17    410.69328    1.5189059  0.027138298  0.045634945 -0.023254211    1.4955506    1.5422455    582.62185   -35769.931   -5305.5973 
   17050       0.1705    407.41545    1.4816303 -0.039393193 -0.038193127 -0.023284588    1.4582337    1.5050104    577.97182   -35767.105   -4680.1465 
   17100        0.171    408.88151    1.4650811 -0.012663211  -0.03669769 -0.023281747    1.4417145    1.4884306    580.05161   -35771.057   -4719.0673 
   17150       0.1715    408.05618     1.481518  0.016065219 -0.011557012 -0.023263961    1.4581728    1.5048454    578.88078   -35771.827   -4953.4208 
   17200        0.172    411.78769    1.5328986  0.025935853   0.05636888 -0.023246971     1.509528    1.5562506    584.17441   -35779.032   -5384.0111 
   17250       0.1725    408.39585    1.4315551 -0.0068983639  0.057471096 -0.023265284    1.4081661    1.4549248    579.36264   -35776.177    -4940.426 
   17300        0.173    405.16894    1.3851253 -0.017151441 -0.031608406 -0.023287468    1.3617482    1.4084823    574.78484   -35773.557   -4454.5514 
   17350       0.1735    408.25983    1.3576934 -0.0078154983  0.016242549 -0.023287381    1.3342505    1.3811155    579.16968   -35779.936   -4553.7347 
   17400        0.174    405.13871    1.3338141 0.0039012528  0.008683818 -0.023306638    1.3103067    1.3573001    574.74197   -35777.579   -4487.9974 
   17450       0.1745     413.2564    1.2936077 -0.019873042 -0.021637353 -0.023316381    1.2701263    1.3170669    586.25796   -35791.133   -4173.6578 
   17500        0.175      411.365    1.3158005 0.0051846564 -0.056254034 -0.023317172    1.2923095    1.3392686    583.57476   -35790.545   -4215.7704 
   17550       0.1755     405.1035    1.3618022   0.04487935 -0.0089497681 -0.023299731    1.3383147    1.3852659    574.69201   -35783.724   -4659.1059 
   17600        0.176    412.21124    1.3624493  0.047378058  0.079583099 -0.023286059    1.3389836    1.3858905    584.77526   -35795.878   -4964.7016 
   17650       0.1765    409.26338    1.2611884  0.029795095 -0.010094394  -0.02332794      1.23773    1.2846215    580.59335   -35793.819   -4269.6304 
   17700        0.177    406.73097    1.1901646 -0.037132657  -0.10041577 -0.023361943    1.1666623    1.2136407    577.00079    -35792.35   -3508.7205 
   17750       0.1775    406.65181    1.1932612 -0.035304033 -0.038146934 -0.023354243    1.1696761    1.2168193     576.8885   -35794.392   -3732.7009 
   17800        0.178    416.81579    1.3030799  0.059919039  0.065593801 -0.023319256    1.2795757    1.3265563    591.30743    -35810.93   -4761.9759 
   17850       0.1785    409.93629    1.2932739 0.0026452627  0.074648424 -0.023330722     1.269741    1.3167782    581.54796   -35803.348   -4568.5588 
   17900        0.179    416.44143    1.2523863 -0.027832257  0.042587505 -0.023356577    1.2288254    1.2759176    590.77635   -35814.691    -4223.805 
   17950       0.1795    408.48678    1.1960319 -0.068617775 -0.045137868 -0.023376722      1.17252    1.2195136    579.49164   -35805.567   -3607.5877 
   18000         0.18    413.98863    1.2275397  0.016951282  0.036074083 -0.023354393    1.2040665    1.2509818    587.29673    -35815.52   -4268.5503 
   18050       0.1805    410.76521     1.197446  0.019046245  0.047397765 -0.023352209    1.1741033    1.2207568    582.72389   -35813.139   -4212.9666 
   18100        0.181     412.7602    1.1899606 0.0037483128 -0.015462438 -0.023367005    1.1665014    1.2133871    585.55404   -35818.192   -3927.4883 
   18150       0.1815    413.40899    1.1823681  0.036681157 -0.052493665 -0.023374926    1.1588415    1.2058611    586.47443   -35821.293   -3888.5186 
   18200        0.182    412.87117    1.1909743  0.040510063 -0.043768478 -0.023373295    1.1674068    1.2145075    585.71146   -35822.771    -3959.053 
   18250       0.1825    411.00936     1.189509  0.012264143  0.019703685 -0.023371545    1.1660491    1.2129337    583.07024   -35822.356   -4071.5893 
   18300        0.183    408.49148    1.1271414 -0.0032420457  0.028660155 -0.023382544     1.103603    1.1506439    579.49831   -35821.065   -3841.8652 
   18350       0.1835    412.87813    1.1190301 -0.043678386 -0.015500113 -0.023398569     1.095489    1.1425344    585.72133    -35829.52   -3532.8388 
   18400        0.184    409.83593    1.0981234 0.0048335554 -0.025176188 -0.023403814    1.0746009    1.1216083    581.40558   -35827.481   -3592.6024 
   18450       0.1845    408.09025    1.0677474 -0.020200088  0.037109878  -0.02340036    1.0443249    1.0911316     578.9291   -35827.259    -3615.524 
   18500        0.185    412.04195    1.0831038 0.0090154246   0.05661729 -0.023391787    1.0595519    1.1066163    584.53511   -35835.124   -3829.1216 
   18550       0.1855      409.975    1.0529713 0.00090513264 -0.0067409051 -0.023409684    1.0294755    1.0764271    581.60288   -35834.465   -3490.4518 
   18600        0.186    406.10818    1.0342294 -0.027079968  -0.03666499 -0.023423926    1.0106676    1.0577503    576.11728   -35831.211   -3234.9483 
   18650       0.1865    407.27917    1.0761712  0.027018579 -0.027910823 -0.023413091    1.0526078    1.0996927    577.77849   -35835.123    -3584.263 
   18700        0.187    409.02931    1.1122534 0.0076744717 -0.039638628 -0.023407112    1.0887529    1.1357112    580.26128   -35839.844   -3600.9642 
   18750       0.1875    407.85943    1.1610206  0.050549499 -0.011803878 -0.023395679    1.1374579    1.1845397    578.60166   -35840.395   -3999.2207 
   18800        0.188    406.09147    1.1614801 0.0077803127  0.019916417 -0.023395903    1.1379216    1.1849941    576.09357   -35840.085   -3963.9227 
   18850       0.1885    406.12771    1.1194565  0.022866418  0.012837178 -0.023413433    1.0958597    1.1430078    576.14499   -35842.328   -3850.5337 
   18900        0.189    410.05922     1.092934 -0.066473537 -0.0033999077 -0.023426426    1.0694242    1.1163974    581.72235   -35850.061   -3410.2018 
   18950       0.1895    409.93239    1.0938422 -0.026014931 0.00021853269 -0.023423895     1.070219    1.1174179    581.54242    -35852.07   -3560.1527 
   19000         0.19    406.03393    1.1554976 0.0097208905  0.015023861 -0.023412816    1.1318934    1.1790533    576.01196    -35848.71   -3934.1411 
   19050       0.1905    408.10993     1.224759 0.0088866301  0.040045031 -0.023399519    1.2011515    1.2483172    578.95703   -35853.795   -4245.6356 
   19100        0.191    410.67978    1.2545125  0.010090276 -0.012789633 -0.023401853    1.2310151    1.2779595     582.6027   -35859.537   -4172.7104 
   19150       0.1915    405.61163    1.2562709 -0.019320424  0.018114411 -0.023408358    1.2326388    1.2798516    575.41287   -35854.428   -4183.5496 
   19200        0.192    410.24956    1.3142326  0.014080087  0.026834734 -0.023400461    1.2906459     1.337767    581.99237   -35863.049   -4517.1582 
   19250       0.1925    404.82248    1.3315827 -0.020520061 0.0035131108 -0.023405419    1.3080178    1.3550943    574.29335   -35857.401   -4381.9193 
   19300        0.193    403.22896    1.3171564 -0.028787399   0.03235989 -0.023403956    1.2935893    1.3406692    572.03273   -35857.194   -4402.4297 
   19350       0.1935    406.13039    1.2961455  0.030141971 0.0046053522 -0.023409907    1.2726404    1.3195952    576.14879   -35863.357   -4436.3094 
   19400        0.194    407.04396    1.2969901 -0.0030825924 -0.015017493 -0.023427731    1.2734765    1.3204473     577.4448   -35866.648   -4262.9667 
   19450       0.1945    411.37481    1.3191243  0.051534234 -0.052393108 -0.023420104    1.2955962     1.342595    583.58868   -35874.813   -4394.2182 
   19500        0.195    404.07156    1.2759927  0.033814232 -0.023073757 -0.023418545    1.2524949    1.2994318    573.22808   -35866.512   -4289.1105 
   19550       0.1955    404.76906    1.2729814 0.0070167402 -0.017369421 -0.023422248    1.2493704    1.2965328    574.21757   -35869.581   -4208.7625 
   19600        0.196    405.32291     1.280064 -0.0050911352   0.01724004 -0.023411188    1.2564552    1.3036121    575.00328   -35872.409   -4307.3764 
   19650       0.1965    403.48335    1.3176156 0.0027966148  0.018812752 -0.023408223    1.2940299    1.3411396    572.39362   -35871.807   -4464.0832 
   19700        0.197     405.6477     1.359024  0.020983302  -0.01268597 -0.023407816    1.3355021    1.3824832    575.46403   -35876.859   -4557.7379 
   19750       0.1975    402.47021    1.3389731 -0.030258967  0.021707444 -0.023408056    1.3155416    1.3623409    570.95635   -35874.305   -4434.7385 
   19800        0.198    407.57308    1.3622538 -0.0086000105  0.048893592 -0.023406594    1.3387884    1.3856544    578.19544   -35883.511    -4675.158 
   19850       0.1985    402.91602    1.3397572 -0.025162033  0.014563439 -0.023415408    1.3162936     1.363155     571.5888   -35878.924   -4430.5288 
   19900        0.199    405.57964    1.3416949 -0.0015802757  0.013270859  -0.02342348    1.3180308     1.365292    575.36749   -35884.704    -4511.285 
   19950       0.1995     406.6472    1.3333585 -0.011719052  -0.01229694 -0.023434456    1.3097287    1.3569203    576.88195   -35888.221    -4364.475 
   20000          0.2    404.68033    1.3427519 -0.021433936 -0.010424996 -0.023427213    1.3192695    1.3661652    574.09169   -35887.413   -4369.6432 
Loop time of 2988.59 on 4 procs for 20000 steps with 10976 atoms

Pair  time (%) = 2646.89 (88.5668)
Neigh time (%) = 1.70502 (0.057051)
Comm  time (%) = 141.611 (4.73841)
Outpt time (%) = 0.133776 (0.00447622)
Other time (%) = 198.242 (6.63331)

Nlocal:    2744 ave 2754 max 2735 min
Histogram: 1 0 0 1 0 1 0 0 0 1
Nghost:    6295.75 ave 6318 max 6266 min
Histogram: 1 0 0 0 1 0 0 0 1 1
Neighs:    188908 ave 189345 max 187910 min
Histogram: 1 0 0 0 0 0 0 0 1 2
FullNghs:  0 ave 0 max 0 min
Histogram: 4 0 0 0 0 0 0 0 0 0

Total # of neighbors = 755632
Ave neighs/atom = 68.844
Neighbor list builds = 111
Dangerous builds = 0

######################################
# SIMULATION DONE
print "All done"
All done
