LAMMPS (28 Jun 2014)
# Input file for uniaxial tensile loading of single crystal aluminum
# Mark Tschopp, November 2010

# ------------------------ INITIALIZATION ----------------------------
units 		metal
dimension	3
boundary	p	p	p
atom_style	atomic
variable latparam equal 4.05

# ----------------------- ATOM DEFINITION ----------------------------
lattice		fcc ${latparam}
lattice		fcc 4.05
Lattice spacing in x,y,z = 4.05 4.05 4.05
region		whole block 0 10 0 10 0 10
create_box	1 whole
Created orthogonal box = (0 0 0) to (40.5 40.5 40.5)
  1 by 2 by 2 MPI processor grid
lattice 	fcc ${latparam} orient x 1 0 0 orient y 0 1 0 orient z 0 0 1
lattice 	fcc 4.05 orient x 1 0 0 orient y 0 1 0 orient z 0 0 1
Lattice spacing in x,y,z = 4.05 4.05 4.05
create_atoms	1 region whole
Created 4000 atoms

# ------------------------ FORCE FIELDS ------------------------------
pair_style	eam/alloy
pair_coeff	* * Al99.negRhoR.eam.alloy Al

# ------------------------- SETTINGS ---------------------------------
compute csym all centro/atom fcc
compute peratom all pe/atom

######################################
# EQUILIBRATION
reset_timestep	0
timestep 0.001
velocity all create 300 12345 mom yes rot no
fix 1 all npt temp 300 300 1 iso 0 0 1 drag 1

# Set thermo output
thermo 50
thermo_style custom step lx ly lz press pxx pyy pzz pe temp

# Run for at least 10 picosecond (assuming 1 fs timestep)
run 20000
Memory usage per processor = 3.04301 Mbytes
Step Lx Ly Lz Press Pxx Pyy Pzz PotEng Temp 
       0         40.5         40.5         40.5    2477.2959    2428.1627    2515.8267    2487.8982       -13440          300 
      50    40.560807    40.560807    40.560807    906.60439    836.28234    945.61116    937.91967    -13338.82    103.28218 
     100    40.636314    40.636314    40.636314   -4597.1788   -4591.8393   -4619.0671     -4580.63   -13373.538    171.82843 
     150    40.566046    40.566046    40.566046    545.52344     510.4592    623.14736    502.96376   -13348.913    124.17898 
     200    40.511572    40.511572    40.511572    3538.0164    3633.9982    3476.6838     3503.367   -13355.213    137.90695 
     250    40.565497    40.565497    40.565497     165.9856    89.507268    217.26956    191.17997   -13359.494    146.71708 
     300    40.610842    40.610842    40.610842   -2461.3686     -2407.58   -2478.8377   -2497.6879   -13360.103    149.20299 
     350     40.57103     40.57103     40.57103   -407.16719   -481.25721   -345.20354   -395.04082   -13367.334    163.76453 
     400    40.532049    40.532049    40.532049    2222.4218     2276.751    2293.3384    2097.1759   -13359.856    150.42316 
     450    40.565748    40.565748    40.565748    1.5689605    -40.54505   -32.407148    77.659079   -13363.075    157.36666 
     500    40.595631    40.595631    40.595631   -1609.8086   -1653.8347   -1477.6201    -1697.971   -13359.405     151.3381 
     550    40.570534    40.570534    40.570534   -161.29742   -149.53716   -166.63074   -167.72437   -13360.731    154.75586 
     600    40.544806    40.544806    40.544806    1384.6619    1413.1447    1432.0491     1308.792   -13361.912    158.16457 
     650    40.565935    40.565935    40.565935    212.27486    183.82605    244.95833    208.04021   -13358.099    151.74072 
     700    40.589677    40.589677    40.589677   -1216.4605   -1342.9463   -1124.9835   -1181.4516   -13360.202    156.93365 
     750     40.57262     40.57262     40.57262   -250.03017    -286.1319   -263.05098   -200.90762   -13360.543    158.59684 
     800    40.551064    40.551064    40.551064    1207.9134    1077.5627    1321.6899    1224.4876   -13357.149    153.19304 
     850    40.567346    40.567346    40.567346    35.785981    27.337364    95.137573   -15.116994   -13362.166    163.91804 
     900    40.586249    40.586249    40.586249    -905.7322   -936.71357   -840.02033   -940.46269   -13360.508    161.84712 
     950    40.575374    40.575374    40.575374   -242.57964   -258.25181   -191.68016   -277.80695   -13355.054    152.34754 
    1000    40.557325    40.557325    40.557325    865.52539    854.09988    837.69829    904.77799   -13361.119    165.23339 
    1050    40.567056    40.567056    40.567056    295.49384    232.10054    411.38514    242.99586   -13352.953    150.49569 
    1100    40.584127    40.584127    40.584127   -761.68467   -853.34874   -673.22094   -758.48433   -13360.461    166.16585 
    1150    40.575672    40.575672    40.575672   -142.11478    -201.4286   -30.271058   -194.64468   -13353.747    154.27707 
    1200    40.562101    40.562101    40.562101     595.1436    539.58278    626.17995    619.66808   -13359.815    167.15808 
    1250    40.569111    40.569111    40.569111    166.60983    93.122477    249.67745    157.02956   -13356.015    160.90608 
    1300    40.581585    40.581585    40.581585   -560.52539   -582.11532   -449.61337   -649.84747     -13357.6    165.10612 
    1350    40.575636    40.575636    40.575636   -187.07118   -340.00322   -118.58965   -102.62066   -13356.829    164.73606 
    1400    40.565835    40.565835    40.565835    564.30549    497.58936    640.42016    554.90697   -13354.391    161.15843 
    1450     40.57268     40.57268     40.57268   -8.0970835   -53.681395    -8.678259    38.068403   -13356.768    166.87955 
    1500    40.579477    40.579477    40.579477     -266.667   -331.96754   -175.67718   -292.35629   -13353.661    162.02255 
    1550     40.57653     40.57653     40.57653   -221.31753    -336.3239   -208.39947    -119.2292   -13357.335    170.24923 
    1600     40.56872     40.56872     40.56872    377.57442    358.15084    458.69162     315.8808   -13352.704    162.43448 
    1650     40.57303     40.57303     40.57303    120.89844    65.311416    161.25544    136.12847   -13355.408    168.79108 
    1700    40.580384    40.580384    40.580384   -350.24826   -403.35461   -355.57155   -291.81863    -13352.15    163.64852 
    1750    40.576546    40.576546    40.576546   -33.210752   -51.774911   -65.513499    17.656156   -13355.571    171.38199 
    1800    40.570394    40.570394    40.570394    304.33828    205.93574    338.69101    368.38808   -13351.242     164.1731 
    1850    40.573529    40.573529    40.573529    241.46993    161.47097     292.0795    270.85932   -13351.974    166.71617 
    1900    40.582216    40.582216    40.582216   -408.11226   -517.08252   -371.67211   -335.58214   -13355.866    175.40212 
    1950    40.578725    40.578725    40.578725   -121.39916   -78.039378   -81.158557   -204.99955   -13350.039     165.2528 
    2000    40.571203    40.571203    40.571203    262.09034     196.8123    290.04138    299.41734   -13356.435    178.78592 
    2050    40.573851    40.573851    40.573851    289.93849    437.96873    281.59339    150.25333   -13349.053    165.64033 
    2100    40.583408    40.583408    40.583408   -349.38412   -571.05086   -278.18303   -198.91847    -13352.81    174.06946 
    2150    40.580584    40.580584    40.580584   -114.91591   -185.43499   -83.840107   -75.472627   -13348.332    166.54037 
    2200    40.572924    40.572924    40.572924    267.33105    327.39863    146.52625    328.06826   -13352.352    175.45971 
    2250     40.57452     40.57452     40.57452    151.70961    254.17735    168.08505    32.866418   -13351.976    175.89445 
    2300    40.582221    40.582221    40.582221   -230.95359   -263.28501   -228.82415   -200.75161   -13351.114    175.36229 
    2350    40.582162    40.582162    40.582162   -261.01005   -230.47672   -222.68754   -329.86589   -13351.012    176.32523 
    2400    40.574812    40.574812    40.574812    303.77484    317.50344    229.85781    363.96327   -13348.898    173.38207 
    2450    40.575731    40.575731    40.575731    116.74018   -48.811404    232.50428    166.52766   -13349.761    176.20882 
    2500    40.581697    40.581697    40.581697   -87.434971   -224.22993   -51.529346    13.454364   -13348.617    175.12589 
    2550    40.583571    40.583571    40.583571    -281.5719   -330.01569   -352.37003   -162.32997   -13350.818    180.55014 
    2600    40.576889    40.576889    40.576889     319.0831    232.90262      394.756    329.59067   -13345.661     171.7326 
    2650    40.578632    40.578632    40.578632    12.302663    144.47143    -44.66509   -62.898355   -13350.915    183.03164 
    2700    40.583211    40.583211    40.583211   -174.84329    -293.7107   -111.56723   -119.25193   -13346.791    176.20921 
    2750    40.582178    40.582178    40.582178   -40.452791    -65.92849   -87.847976    32.418091   -13348.682    181.01297 
    2800    40.578395    40.578395    40.578395    110.13191     -19.3382    193.21994    156.51399   -13346.348    177.66343 
    2850    40.579022    40.579022    40.579022    123.73808    81.346919     123.6878    166.17953   -13349.589    185.07814 
    2900    40.584349    40.584349    40.584349     -70.8599   -153.66094   -33.716144   -25.202618   -13345.898    179.08413 
    2950    40.585046    40.585046    40.585046   -180.94186   -152.10409   -311.55344   -79.168037   -13345.442    179.37248 
    3000    40.580085    40.580085    40.580085      103.237    17.892286    199.82723    91.991483   -13349.974    189.28526 
    3050    40.580205    40.580205    40.580205    61.856592    43.807895    20.320955    121.44093   -13345.232    181.25186 
    3100    40.584409    40.584409    40.584409   -108.48586   -224.37982   -60.744168   -40.333595   -13347.434    186.66915 
    3150    40.585554    40.585554    40.585554   -140.59894   -193.54374   -104.23173   -124.02134   -13344.367    181.87463 
    3200    40.582508    40.582508    40.582508    55.815876   -26.211951    84.366068    109.29351   -13346.747     187.6536 
    3250    40.582588    40.582588    40.582588    200.76746    152.30639    135.55033    314.44566   -13343.946    183.37646 
    3300    40.587269    40.587269    40.587269   -208.27959   -370.88128   -87.115265   -166.84223   -13345.054    186.67509 
    3350    40.586269    40.586269    40.586269   -8.5292616   -68.976767   -14.609681    57.998663   -13343.377    184.58549 
    3400     40.58453     40.58453     40.58453   -3.2202824   -168.90782    48.038314    111.20866   -13346.332    191.44667 
    3450     40.58515     40.58515     40.58515    8.7058093   -99.986616    70.348588    55.755456   -13344.031    188.14822 
    3500    40.587386    40.587386    40.587386    -73.49021   -198.91168   -59.591816     38.03287   -13344.661     190.5172 
    3550    40.586647    40.586647    40.586647   -56.462689   -70.198656     7.493715   -106.68313   -13342.493    187.47902 
    3600     40.58489     40.58489     40.58489     107.8757    94.008174    58.235984    171.38295   -13342.407    188.45207 
    3650    40.586582    40.586582    40.586582   -3.6119827   -9.7858692   -45.304943    44.254864   -13342.062    188.92952 
    3700    40.588185    40.588185    40.588185   -27.253224   -83.721845   -11.487666     13.44984   -13342.509    190.95925 
    3750    40.588065    40.588065    40.588065   -6.5697531    44.077908   -57.067983    -6.719184   -13342.322    191.74698 
    3800    40.587221    40.587221    40.587221    19.500681   -97.968013    155.13526    1.3347944   -13342.316     192.8852 
    3850    40.587872    40.587872    40.587872    101.46611    48.946294    72.862647    182.58939   -13339.486    188.54048 
    3900    40.589752    40.589752    40.589752   -60.632102    42.310898   -161.69256   -62.514639   -13340.223    191.12808 
    3950    40.588748    40.588748    40.588748    25.493017   -117.81588    109.74113    84.553797   -13340.463    192.73458 
    4000    40.587839    40.587839    40.587839    64.701006    19.199051    38.707079    136.19689   -13340.463    193.88152 
    4050    40.588982    40.588982    40.588982    51.434361     25.71955    49.292891    79.290642   -13339.198    192.58255 
    4100    40.591138    40.591138    40.591138   -68.201675   -78.984175   -72.413977   -53.206873   -13342.921    200.93689 
    4150    40.590861    40.590861    40.590861   -60.675341   -173.29314   -23.249292    14.516405   -13338.616    193.74231 
    4200    40.589101    40.589101    40.589101    125.93182    101.78159    27.290904    248.72296   -13337.072    191.89658 
    4250    40.590069    40.590069    40.590069   -3.9984616   -93.110154    73.803842    7.3109272   -13339.785    198.28945 
    4300    40.592007    40.592007    40.592007   -100.98906    -134.9084   -91.586392   -76.472381   -13339.744    199.35194 
    4350    40.591121    40.591121    40.591121    31.969399   -16.231634    115.95473   -3.8148957   -13337.231    195.63333 
    4400    40.590571    40.590571    40.590571    5.5251291   -70.390297    33.205862    53.759822   -13340.041    202.21141 
    4450    40.591823    40.591823    40.591823   -3.4225316    31.441125   -37.370224   -4.3384965    -13337.88     199.1704 
    4500    40.593337    40.593337    40.593337   -65.770302    35.755586   -97.949567   -135.11693   -13337.423    199.41873 
    4550    40.592019    40.592019    40.592019   -63.864259   -161.52423   -87.197424    57.128879   -13338.214    202.09237 
    4600    40.589986    40.589986    40.589986    246.82735    316.32014     284.6894    139.47251   -13335.508    197.98846 
    4650    40.594028    40.594028    40.594028    -36.77729    -42.28652    5.0574651   -73.102816   -13336.249    200.56031 
    4700    40.595961    40.595961    40.595961   -161.98837   -160.36573   -173.59844   -152.00094   -13336.135    201.47749 
    4750    40.592588    40.592588    40.592588    75.162766    99.155886    221.54097   -95.208556   -13336.647    203.59734 
    4800    40.591947    40.591947    40.591947    91.789328    175.95484   -88.921679    188.33482   -13336.628    204.69445 
    4850    40.595161    40.595161    40.595161    2.8608815    -109.2217    54.634938    63.169411   -13335.003    202.68209 
    4900    40.597073    40.597073    40.597073   -209.81173   -40.120358   -240.43389   -348.88094     -13335.7     205.1627 
    4950    40.592619    40.592619    40.592619     162.4913     81.99136    157.41255       248.07    -13333.53    202.09454 
    5000    40.592793    40.592793    40.592793    181.33534    268.37097    241.33466    34.300392   -13334.232    204.57339 
    5050    40.598234    40.598234    40.598234   -116.73821   -167.18735   -170.55174   -12.475539   -13334.033    205.31212 
    5100    40.598463    40.598463    40.598463    -111.5442   -8.4991043   -165.40159   -160.73191   -13332.432    203.34789 
    5150    40.593924    40.593924    40.593924    99.135921    103.35701    88.842637    105.20811   -13334.954    209.34544 
    5200     40.59376     40.59376     40.59376    192.58375    271.00274    217.66636    89.082161   -13335.079    210.71126 
    5250    40.599184    40.599184    40.599184   -90.730862   -119.97137   -110.25638   -41.964837   -13330.275    202.54589 
    5300    40.599539    40.599539    40.599539   -145.15345   -135.34917    -207.4608   -92.650379    -13332.96    208.85473 
    5350      40.5949      40.5949      40.5949    223.26539    258.05954    313.45612    98.280509   -13332.055    208.22445 
    5400    40.595888    40.595888    40.595888    154.11271    183.93551    171.17055    107.23208   -13331.501    208.26751 
    5450     40.60088     40.60088     40.60088   -137.75477   -289.02442   -28.765864   -95.474026   -13330.945    208.30141 
    5500    40.600865    40.600865    40.600865   -220.97474   -153.24794   -291.27577   -218.40052   -13333.413    214.18825 
    5550    40.595297    40.595297    40.595297    182.54611    237.71258    218.77288    91.152872   -13332.637    213.80262 
    5600    40.596196    40.596196    40.596196    155.29325     92.62503    123.64715    249.60757   -13331.059    211.85978 
    5650    40.601798    40.601798    40.601798   -124.36042    -163.6268   -130.97795   -78.476523    -13328.98    208.94581 
    5700    40.601698    40.601698    40.601698   -128.36117   -143.14125   -90.686576   -151.25569   -13330.962    213.88991 
    5750     40.59704     40.59704     40.59704    250.44857    129.70651    257.13594    364.50326   -13329.373    211.92179 
    5800    40.598721    40.598721    40.598721    81.409404    72.273236    221.01833   -49.063355    -13329.48    213.23439 
    5850    40.602882    40.602882    40.602882    -203.3807   -202.39637   -188.45505   -219.29069   -13330.919    217.12069 
    5900    40.602122    40.602122    40.602122   -127.84353    -250.7452   -14.778467   -118.00693   -13329.607    215.66768 
    5950    40.598088    40.598088    40.598088    258.46159    276.75062    345.07895    153.55519   -13327.615    212.92316 
    6000     40.59993     40.59993     40.59993    85.714754    97.105115   -17.731321    177.77047   -13327.312    213.42914 
    6050      40.6035      40.6035      40.6035   -145.92355   -190.84098   -73.991331   -172.93835   -13330.133    219.99121 
    6100    40.601991    40.601991    40.601991   -24.298398    27.608396   -123.81612    23.312531    -13327.57    216.12349 
    6150    40.599704    40.599704    40.599704    91.986455   -58.902365    206.35838    128.50335   -13329.968    221.84831 
    6200    40.601585    40.601585    40.601585    16.908671    16.305898    68.739132   -34.319018   -13326.592    216.40399 
    6250    40.604425    40.604425    40.604425   -124.69188   -74.458873   -232.93409   -66.682667   -13327.345     218.9453 
    6300    40.602901    40.602901    40.602901    41.097529   -67.527313     215.5278   -24.707897   -13327.298    219.94671 
    6350    40.602059    40.602059    40.602059    54.618926    168.11393    -65.24391    60.986754   -13327.753    221.91138 
    6400    40.604104    40.604104    40.604104    -57.28154   -244.24033     80.37171   -7.9760018   -13327.197    221.91277 
    6450    40.604905    40.604905    40.604905   -101.59204   -17.803863   -200.21433   -86.757928   -13326.925     222.4652 
    6500    40.603497    40.603497    40.603497    37.224479   -148.46984   -28.647178    288.79045   -13326.857    223.40201 
    6550    40.603589    40.603589    40.603589    20.283361    29.455687    69.428085    -38.03369   -13324.777    220.45023 
    6600    40.605156    40.605156    40.605156    32.974853   -30.452947    30.172614    99.204891   -13325.175    222.29858 
    6650    40.606163    40.606163    40.606163    32.309117   -32.279653    297.00847   -167.80146   -13323.248    219.64612 
    6700    40.605571    40.605571    40.605571  -0.10038917   -31.039676   -14.064992    44.803501   -13325.435    224.94747 
    6750    40.604744    40.604744    40.604744    118.17985    13.408441    123.56733    217.56378   -13324.626    224.44742 
    6800    40.606026    40.606026    40.606026   -91.775072   -113.00508   -53.770471   -108.54966   -13324.543    225.34214 
    6850      40.6066      40.6066      40.6066   -132.98989   -182.91305   -109.99957   -106.05704   -13327.379    231.88097 
    6900    40.606145    40.606145    40.606145    36.398731   -44.853288    136.08549    17.963987   -13323.872    226.15651 
    6950    40.606778    40.606778    40.606778   -34.123286   -53.370922    -98.20249    49.203553   -13325.945    231.23406 
    7000    40.607515    40.607515    40.607515   -22.805034   -30.526969    68.465549   -106.35368   -13321.729    224.12473 
    7050    40.608035    40.608035    40.608035   -82.896109   -61.063981   -74.397704   -113.22664   -13324.217    229.97977 
    7100    40.607216    40.607216    40.607216   0.79660308   -14.885888    54.599806   -37.324108   -13323.224    229.11053 
    7150    40.607528    40.607528    40.607528    22.525897    46.560702   -54.245078    75.262068   -13323.197    230.10617 
    7200    40.609223    40.609223    40.609223   -82.602993   -106.16148   -1.3011626   -140.34633    -13323.54     231.8164 
    7250    40.609596    40.609596    40.609596    48.686658   -2.7054785    74.444763    74.320688   -13321.191    228.31695 
    7300    40.609199    40.609199    40.609199   -65.064541   -7.4182269   -174.65294    -13.12246   -13321.839    230.60103 
    7350    40.607988    40.607988    40.607988    145.43995    122.88239    180.14717    133.29028   -13319.796     227.6826 
    7400    40.610459    40.610459    40.610459   -39.318412   -23.317931   -67.590104   -27.047201   -13321.257    231.54015 
    7450    40.611884    40.611884    40.611884   -126.83743   -228.99628   -29.415786   -122.10023    -13322.91    235.76591 
    7500    40.609739    40.609739    40.609739    5.5546093   -78.592496    8.5696637     86.68666   -13321.028    233.15873 
    7550     40.60833     40.60833     40.60833    212.02649    147.47746    264.34741    224.25461   -13319.796    231.79238 
    7600    40.612076    40.612076    40.612076   -48.904929   -77.159216    10.773858   -80.329429   -13319.646    232.52975 
    7650    40.613787    40.613787    40.613787    7.6328135     -57.4989    124.88302   -44.485676   -13317.318    229.03847 
    7700    40.612007    40.612007    40.612007   -92.189081   -52.138473   -142.38487   -82.043896   -13319.544    234.36442 
    7750    40.607658    40.607658    40.607658    203.84841    206.88282    264.73036    139.93207   -13320.372    236.98247 
    7800    40.610987    40.610987    40.610987    7.3578879    78.620053   -69.259118    12.712729   -13320.102    237.46112 
    7850    40.615505    40.615505    40.615505   -188.91441   -122.91107   -151.98447   -291.84768   -13316.938    232.34391 
    7900    40.613708    40.613708    40.613708   -59.760951   -178.38778   -43.477469    42.582402   -13319.654    238.60056 
    7950    40.610195    40.610195    40.610195    65.041933    100.62359    141.25527   -46.753063    -13320.41    241.07034 
    8000    40.612196    40.612196    40.612196    45.292174    26.414408    85.051051    24.411063   -13318.237    237.85278 
    8050    40.616437    40.616437    40.616437   -202.50776   -219.27315   -265.60136   -122.64877   -13317.485    237.40758 
    8100    40.613547    40.613547    40.613547   -23.506072   -56.699723    11.354772   -25.173266   -13318.798    240.93791 
    8150    40.610801    40.610801    40.610801    230.92105    246.55942    198.61524     247.5885   -13316.547    237.56484 
    8200     40.61532     40.61532     40.61532   -76.902314   -150.79701     123.0218   -202.93173   -13318.193    241.73846 
    8250    40.617727    40.617727    40.617727   -96.140904    28.059171   -162.81977   -153.66212   -13314.267     235.1207 
    8300    40.614635    40.614635    40.614635    30.763273   -139.92941    211.52656    20.692668     -13316.2    239.83715 
    8350    40.611645    40.611645    40.611645    173.35392    266.83328    140.58918    112.63931   -13316.586    241.56407 
    8400    40.614191    40.614191    40.614191     140.5568   -6.7506676     142.4741    285.94696   -13313.324     236.2273 
    8450    40.618648    40.618648    40.618648   -280.24018   -216.94164   -179.24873   -444.53017   -13317.663    245.58995 
    8500    40.615306    40.615306    40.615306   -28.033948   -72.761427   -93.123561    81.783144   -13315.586    242.53561 
    8550    40.611627    40.611627    40.611627    277.52367    279.43422    319.04229     234.0945    -13315.07    242.50704 
    8600    40.616353    40.616353    40.616353   -156.01441    -315.1279    17.899573   -170.81489   -13317.149    247.48326 
    8650    40.619083    40.619083    40.619083   -72.488306   -186.91947   -26.290117   -4.2553345   -13313.855     242.0703 
    8700    40.618185    40.618185    40.618185   -120.77199   -41.647011   -92.290249    -228.3787   -13314.888     245.0148 
    8750    40.615031    40.615031    40.615031    184.81285    24.600171    266.33772    263.50067   -13312.676    241.69138 
    8800    40.615467    40.615467    40.615467    55.122307    60.695706    90.323701    14.347513   -13313.669    244.56134 
    8850    40.617569    40.617569    40.617569   -29.013301   -14.633514    14.184171   -86.590562   -13314.141    246.40996 
    8900     40.61858     40.61858     40.61858   -190.86224   -66.160221   -261.24449   -245.18199   -13315.394    249.77918 
    8950    40.616322    40.616322    40.616322    113.02681    16.736462    204.62163    117.72233   -13312.174    244.48154 
    9000    40.617676    40.617676    40.617676   -6.2133085   -93.300039    103.20861   -28.548495   -13315.907    252.64031 
    9050     40.61984     40.61984     40.61984   -54.237316     20.88986   -101.67402   -81.927787   -13311.618    245.26362 
    9100    40.619729    40.619729    40.619729   -53.594735   -180.80742   -34.678966    54.702183   -13312.365    247.63847 
    9150    40.617257    40.617257    40.617257     148.5365    223.83209    100.21297    121.56444   -13310.187    244.34686 
    9200    40.617439    40.617439    40.617439    71.306614    43.451908    34.040515    136.42742   -13311.714    248.22265 
    9250    40.619302    40.619302    40.619302    -84.70973   -151.46363   -69.305817   -33.359744   -13311.339    248.41219 
    9300    40.619206    40.619206    40.619206    122.39015    131.99395    25.058512    210.11798   -13311.819    250.25368 
    9350    40.620306    40.620306    40.620306   -22.617705    -214.5388    52.288591    94.397097   -13310.984    249.53384 
    9400    40.621348    40.621348    40.621348   -112.35299    56.223773    -309.9546    -83.32815   -13310.911    250.29247 
    9450    40.620502    40.620502    40.620502    118.40712    16.675388    170.58427     167.9617   -13308.654    246.82545 
    9500    40.621094    40.621094    40.621094   -75.549423   -95.170987   -167.04495    35.567665   -13312.378    254.93135 
    9550    40.620614    40.620614    40.620614    85.755243   -73.583145    177.89965    152.94922   -13310.538    252.27481 
    9600    40.622815    40.622815    40.622815   -102.46715   -54.642569   -88.077404   -164.68148    -13311.07    254.18309 
    9650    40.623377    40.623377    40.623377   -99.443277     -114.297   -146.05965   -37.973176   -13309.982    252.96851 
    9700    40.621373    40.621373    40.621373    33.375892    -92.07655    197.62394   -5.4197188    -13311.22    256.24445 
    9750    40.621293    40.621293    40.621293    61.468918    34.862292    18.646919    130.89754   -13309.064     252.9508 
    9800    40.623322    40.623322    40.623322    31.036798   -254.25318    219.96327     127.4003   -13308.756    253.22602 
    9850    40.624742    40.624742    40.624742   -213.30555   -206.37177    -341.1162   -92.428671    -13310.95    258.33887 
    9900     40.62186     40.62186     40.62186    155.35162    139.00343     214.9425    112.10892   -13307.276    252.08952 
    9950     40.62309     40.62309     40.62309   0.69354189    67.595618   -163.63043    98.115434   -13310.481    259.15559 
   10000    40.625805    40.625805    40.625805   -55.021863   -36.733699    22.421053   -150.75294   -13306.271    251.87052 
   10050    40.625258    40.625258    40.625258   -112.48457   -259.16674   -92.832404    14.545438   -13309.033    258.07107 
   10100    40.621291    40.621291    40.621291    193.48019    22.976909    502.59603    54.867629   -13308.504    257.89784 
   10150    40.623658    40.623658    40.623658    143.48371    65.259939    33.735031    331.45616   -13305.804    253.51775 
   10200    40.628749    40.628749    40.628749   -264.57479   -505.27054   -166.94855   -121.50528   -13308.743    260.04381 
   10250     40.62592     40.62592     40.62592    142.40381    308.12116    23.796547    95.293723   -13303.788    251.29192 
   10300    40.623852    40.623852    40.623852   -32.287402   -82.701319   -65.146002    50.985114   -13309.069    262.34567 
   10350    40.623248    40.623248    40.623248    177.49094    202.14584    265.38981    64.937171   -13305.312    255.90793 
   10400    40.626774    40.626774    40.626774   -207.42981    -223.1969   -245.62288   -153.46964   -13309.162    264.18926 
   10450    40.626692    40.626692    40.626692   -48.809986   -148.73788    74.080976   -71.773053   -13306.192    259.25842 
   10500    40.625453    40.625453    40.625453    2.4093812   -60.617759   -81.676305    149.52221   -13307.022    261.67938 
   10550    40.625152    40.625152    40.625152     115.2062    114.42771    315.95043   -84.759523   -13304.739    258.07692 
   10600    40.627983    40.627983    40.627983   -9.9439602    64.993839    -26.31382   -68.511899    -13304.85    259.10063 
   10650     40.62928     40.62928     40.62928   -76.152641    30.910032   -86.512299   -172.85566   -13304.526    259.28335 
   10700    40.626653    40.626653    40.626653     50.95403   -9.7246953    166.55411   -3.9673236   -13305.987    262.91546 
   10750    40.625297    40.625297    40.625297    109.37908    129.64515     183.1442    15.347884   -13304.411    260.66146 
   10800    40.628634    40.628634    40.628634   -68.543635   -235.51197   -58.311448    88.192508   -13305.609    263.75835 
   10850    40.629836    40.629836    40.629836   -212.23651   -337.36726   -95.804189   -203.53808   -13305.728    264.78714 
   10900    40.625372    40.625372    40.625372    153.31299     80.89142    160.52887    218.51868   -13303.935    262.10307 
   10950    40.625449    40.625449    40.625449     164.4388    363.12871    26.727089    103.46059   -13304.282    263.55843 
   11000    40.629292    40.629292    40.629292   -8.7917078   -272.46878    130.54174    115.55191   -13302.961    261.78024 
   11050     40.63081     40.63081     40.63081   -219.61019   -393.94733   -163.39283   -101.49042   -13305.438    267.33977 
   11100     40.62783     40.62783     40.62783    -4.238478   -32.554569     2.705024    17.134111   -13304.655    266.58789 
   11150    40.626393    40.626393    40.626393    53.651999   -10.749168    171.41126   0.29389881   -13304.431     266.9245 
   11200    40.628678    40.628678    40.628678    46.155173   -53.553456   -71.356917    263.37589   -13303.024    264.95976 
   11250    40.630993    40.630993    40.630993   -209.21128    -302.9868   -203.59236   -121.05469   -13303.679    266.98783 
   11300    40.627566    40.627566    40.627566    145.24944    295.43936    44.614863    95.694101   -13301.779    264.06103 
   11350    40.627192    40.627192    40.627192      133.957    75.912604    156.52771    169.43069   -13302.454    266.11375 
   11400    40.630798    40.630798    40.630798   -90.218122   -178.29163   -66.771729   -25.591003   -13302.126    266.21907 
   11450    40.632081    40.632081    40.632081   -23.276359     -97.9908   -33.094746    61.256469   -13300.936    264.66101 
   11500    40.630263    40.630263    40.630263     2.093752   -147.56716    52.152843    101.69557   -13301.546    266.57634 
   11550    40.628396    40.628396    40.628396    129.78066     149.6514    129.39541    110.29517   -13302.086     268.3551 
   11600    40.630024    40.630024    40.630024    74.096756   -185.73627    119.79072    288.23582   -13300.907    266.79436 
   11650    40.633846    40.633846    40.633846   -192.03141   -117.81924   -101.76088    -356.5141   -13302.654    270.88834 
   11700    40.632673    40.632673    40.632673   -44.520116   -165.29028   -97.840495    129.57043   -13300.227    266.90931 
   11750    40.629863    40.629863    40.629863    42.246228    -28.23502    140.32361    14.650098   -13302.162    271.36185 
   11800    40.630099    40.630099    40.630099    35.432046   -88.011785    19.699157    174.60877   -13302.044    271.84739 
   11850    40.632975    40.632975    40.632975   -110.66842   -134.81959   -153.09756   -44.088106   -13300.754    270.05037 
   11900    40.632825    40.632825    40.632825   -69.908364    39.743441   -13.232136    -236.2364   -13299.708    268.73153 
   11950    40.630641    40.630641    40.630641    136.13442    26.479288    132.99696    248.92702   -13301.022    271.96911 
   12000    40.632444    40.632444    40.632444   -71.774333    64.869277   -113.84216   -166.35012   -13301.193    272.99294 
   12050    40.633161    40.633161    40.633161   -123.58844   -238.32147   -147.63776    15.193922   -13301.852    274.95206 
   12100    40.631526    40.631526    40.631526    70.674922    122.29793   -61.790987    151.51782   -13300.263    272.56065 
   12150     40.63201     40.63201     40.63201    63.732518    79.310439    43.930173    67.956942   -13299.353    271.46979 
   12200    40.634847    40.634847    40.634847   -51.479183   -193.30867   -61.928802    100.79993    -13298.64    270.76079 
   12250    40.635303    40.635303    40.635303   -143.30211   -143.23777   -38.806045   -247.86252   -13301.087    276.16209 
   12300    40.632724    40.632724    40.632724     120.6383    40.298201    48.834581    272.78213   -13298.231    271.30156 
   12350    40.633212    40.633212    40.633212    138.66054    21.773532    189.35149     204.8566   -13298.728    272.92438 
   12400    40.636075    40.636075    40.636075   -85.394157   -154.59529   -65.257496   -36.329679    -13298.43    273.00199 
   12450    40.635829    40.635829    40.635829   -110.68753   -114.29307    39.291936   -257.06146   -13299.031    274.81226 
   12500    40.633129    40.633129    40.633129    65.343832   -128.08548    81.511793    242.60518    -13299.27    275.92232 
   12550    40.634198    40.634198    40.634198    110.85594    155.81129    11.162974    165.59354   -13297.748    273.62024 
   12600    40.637513    40.637513    40.637513   -192.02728    -314.1807   -82.170908   -179.73023   -13298.462    275.63917 
   12650    40.635265    40.635265    40.635265     31.38896    35.766933    -63.66389    122.06384   -13298.994    277.29638 
   12700    40.634653    40.634653    40.634653     27.99928   -59.107207    25.569067    117.53598     -13299.1    278.12637 
   12750    40.636696    40.636696    40.636696    -46.82606    118.43511   -78.987224   -179.92607   -13297.375    275.41822 
   12800    40.636928    40.636928    40.636928    42.559024   -172.56475    115.07444    185.16738    -13296.43    274.21384 
   12850    40.636428    40.636428    40.636428   -31.659564    5.3816303   -90.592501   -9.7678221   -13296.728    275.40651 
   12900    40.635367    40.635367    40.635367    97.723191   -33.170414    140.12692    186.21306   -13296.559    275.69564 
   12950    40.636954    40.636954    40.636954    89.537469    82.720093    91.302894     94.58942   -13296.902    276.96787 
   13000    40.639016    40.639016    40.639016    -135.1521   -229.04221   -319.43875    143.02466   -13297.995    279.68655 
   13050    40.637422    40.637422    40.637422   -39.960414   -96.991994    113.03698   -135.92623   -13297.574    279.46906 
   13100    40.635277    40.635277    40.635277    274.15587    321.46891     223.9771    277.02161    -13293.19      271.578 
   13150     40.63851     40.63851     40.63851   -174.82943   -165.19492    -138.7747   -220.51867   -13298.328    282.10742 
   13200    40.639064    40.639064    40.639064    72.799526   -175.13317    282.60805     110.9237   -13294.413    275.12171 
   13250    40.638311    40.638311    40.638311   -81.954709   -222.17617   -186.57803    162.89008    -13297.04     280.7848 
   13300     40.63611     40.63611     40.63611    50.334484    7.1422368    208.33847   -64.477259   -13296.486    280.28598 
   13350     40.63741     40.63741     40.63741  0.058722453   -41.308351   -58.596623    100.08114   -13297.119    282.08248 
   13400    40.639268    40.639268    40.639268   -211.49234   -205.51332   -269.05891   -159.90478   -13296.349    281.16127 
   13450    40.637475    40.637475    40.637475    231.29993    295.51349    236.01396    162.37235   -13293.672     276.5453 
   13500    40.638862    40.638862    40.638862   -60.791183   -239.94979   -55.579827    113.15607   -13294.568    278.84083 
   13550    40.637841    40.637841    40.637841   -39.261381   -130.83265    38.726103   -25.677593   -13296.985    284.07129 
   13600    40.636505    40.636505    40.636505    51.145529    51.918101   -101.69144    203.20993   -13296.279    283.25204 
   13650    40.638233    40.638233    40.638233   -22.409136   -137.80987    15.316956    55.265504    -13294.65    280.64407 
   13700    40.640041    40.640041    40.640041   -65.105087   -77.999409   -116.92739  -0.38846205   -13294.297    280.50137 
   13750    40.639032    40.639032    40.639032     51.67357   -14.007205    -66.16418     235.1921   -13294.246    280.93819 
   13800    40.637856    40.637856    40.637856    131.91283    166.37532    19.638094    209.72506   -13292.502    278.10186 
   13850    40.638276    40.638276    40.638276    90.948358   -25.273866    132.06157    166.05737   -13294.343    282.19073 
   13900    40.640703    40.640703    40.640703   -19.089473   -93.183808   -19.189956    55.105345   -13293.761    281.58294 
   13950    40.642398    40.642398    40.642398   -168.83085   -146.86046   -130.51318    -229.1189   -13295.219    284.92338 
   14000    40.639558    40.639558    40.639558   0.83405085   -302.74512    80.399634    224.84763   -13293.867    282.81866 
   14050    40.638259    40.638259    40.638259    48.473336    85.386539    19.554434    40.479036   -13295.588    286.66069 
   14100    40.640221    40.640221    40.640221   -41.196181   -34.593267   -62.012707   -26.982568   -13294.513    285.09081 
   14150    40.640816    40.640816    40.640816    51.324051    30.145659     211.6687   -87.842205   -13291.464    279.69501 
   14200      40.6406      40.6406      40.6406   -28.636153   -128.18872   -16.516585    58.796851   -13293.753    284.61715 
   14250    40.640934    40.640934    40.640934   -6.2469876   -28.220837   -179.35254    188.83242   -13294.542    286.63433 
   14300    40.640948    40.640948    40.640948    130.13433    91.927917    91.281869    207.19322   -13289.879    278.10293 
   14350    40.641749    40.641749    40.641749   -16.969898   -98.011873   -211.34141     258.4436   -13293.149    284.91517 
   14400    40.641313    40.641313    40.641313   -48.529864   -142.68579   -52.181938    49.278139   -13295.347    289.65268 
   14450    40.640382    40.640382    40.640382    90.569755    155.33258    61.326147    55.050535   -13291.935    283.52524 
   14500    40.642713    40.642713    40.642713    8.8538731    47.692447   -3.0715576    -18.05927   -13292.261    284.62315 
   14550    40.642849    40.642849    40.642849   -44.496477   -226.17302    55.034478     37.64911   -13291.967    284.52141 
   14600    40.640666    40.640666    40.640666    78.809294    100.96981   -3.9971373    139.45521   -13292.367    285.75474 
   14650    40.641363    40.641363    40.641363    3.9471325     33.45625    -125.7836    104.16875   -13292.003    285.50784 
   14700    40.642567    40.642567    40.642567   -64.693065    58.975987   -175.93403   -77.121151   -13293.618    289.08608 
   14750     40.64264     40.64264     40.64264    17.163888    11.827971    28.485071    11.178621   -13291.379    285.21066 
   14800    40.641848    40.641848    40.641848     18.74321   -25.000244   -50.292063    131.52194   -13292.094    287.04316 
   14850    40.641598    40.641598    40.641598    65.081636   -61.039837     80.98454    175.30021   -13291.729     286.7778 
   14900     40.64339     40.64339     40.64339   -128.77478    3.2002774   -262.97834   -126.54627   -13293.293    290.24667 
   14950    40.642969    40.642969    40.642969    7.5915285   -97.067193    -13.97985    133.82163   -13291.355    286.92989 
   15000    40.641833    40.641833    40.641833    79.179644    337.21922   -157.81189    58.131603   -13291.497     287.6353 
   15050    40.641223    40.641223    40.641223    94.117821    130.26884    193.39342   -41.308795   -13290.195    285.53798 
   15100    40.643031    40.643031    40.643031    67.148696    76.977333     40.28514    84.183614   -13290.435    286.41938 
   15150    40.644999    40.644999    40.644999   -211.68152   -375.86197   -134.85163   -124.33095   -13291.784    289.44991 
   15200    40.641624    40.641624    40.641624    105.33901    194.45053    91.236879     30.32963   -13290.104    286.60886 
   15250    40.641243    40.641243    40.641243    59.500006   -14.092544    55.244929    137.34763   -13292.057     290.7987 
   15300    40.643449    40.643449    40.643449   -64.557749    183.31733   -168.58345   -208.40713    -13292.13    291.34633 
   15350     40.64499     40.64499     40.64499   -113.62341   -96.469478   -195.56783   -48.832936     -13291.1    289.75225 
   15400    40.643904    40.643904    40.643904   -4.6250646    91.959695   -75.092529    -30.74236   -13290.598    289.17911 
   15450    40.643082    40.643082    40.643082   -37.625578    20.037767     -133.797   0.88250106    -13293.12    294.45494 
   15500    40.643663    40.643663    40.643663   -11.180368    155.94799   -59.139779   -130.34932    -13291.02    290.77801 
   15550    40.644619    40.644619    40.644619   -62.095468   -48.296127    7.8950464   -145.88532   -13289.888    288.97162 
   15600    40.643964    40.643964    40.643964   -3.3085826    152.51029   -61.135631   -101.30041   -13291.089    291.67966 
   15650     40.64334     40.64334     40.64334    66.075658    142.76604   -34.186898    89.647826   -13288.701    287.43868 
   15700    40.643762    40.643762    40.643762   -22.299251    191.86373    -90.29231   -168.46918   -13290.865    292.00042 
   15750    40.644054    40.644054    40.644054   -91.651629   -227.10485   -30.683781   -17.166257   -13290.889    292.41497 
   15800    40.643421    40.643421    40.643421    58.025929    122.07661   -94.266803    146.26798   -13290.291    291.62324 
   15850    40.644046    40.644046    40.644046    179.53313    116.71467    148.41266    273.47206     -13286.1    283.87233 
   15900    40.647129    40.647129    40.647129   -71.958332    5.2839105   -91.397817   -129.76109   -13289.227     290.2817 
   15950    40.646139    40.646139    40.646139   -147.03181   -192.70726   -173.47742    -74.91074   -13291.298    294.64541 
   16000    40.642288    40.642288    40.642288    178.87223    132.34673    116.19977     288.0702   -13291.094    294.60192 
   16050    40.644414    40.644414    40.644414    37.156511    -27.43672    148.97489   -10.068634   -13289.389    291.64512 
   16100    40.646865    40.646865    40.646865   -129.27546    -114.5368   -150.52608   -122.76349   -13289.158    291.53527 
   16150    40.645271    40.645271    40.645271   -112.33122   -206.12924   -86.019673   -44.844734   -13292.216    297.78489 
   16200    40.644026    40.644026    40.644026    180.07182    271.10533   -25.328427    294.43856   -13287.174    288.36388 
   16250    40.647088    40.647088    40.647088    -89.48641    39.046784   -198.16709   -109.33893    -13289.13    292.48009 
   16300    40.646257    40.646257    40.646257   -178.70866   -281.90082   -93.401257   -160.82389   -13292.045    298.44382 
   16350    40.643715    40.643715    40.643715    173.68117    294.87294    107.06391    119.10666   -13288.907    292.69197 
   16400    40.646675    40.646675    40.646675   -198.95553   -120.88133   -179.56827   -296.41699   -13290.572    296.23489 
   16450    40.645853    40.645853    40.645853    83.014521    179.50843   -47.833642    117.36877   -13287.496    290.59586 
   16500    40.645125    40.645125    40.645125    66.106829    234.95855    17.196577   -53.834644   -13287.836     291.5613 
   16550    40.644445    40.644445    40.644445    156.73854    269.45277    94.090659     106.6722   -13286.673    289.60718 
   16600    40.646557    40.646557    40.646557   -19.725056    12.202735   -79.804376    8.4264733   -13287.606    291.70749 
   16650    40.647068    40.647068    40.647068   -160.01101   -100.64462   -257.66926   -121.71914   -13289.088    294.87511 
   16700     40.64389     40.64389     40.64389    162.41867    19.853336    247.42731    219.97538   -13288.464    293.96368 
   16750    40.644756    40.644756    40.644756    50.803008    409.57374   -13.422158   -243.74256   -13287.905    293.17276 
   16800    40.646936    40.646936    40.646936    13.846086    57.343768   -43.884117    28.078607   -13286.228    290.21659 
   16850    40.647064    40.647064    40.647064   -170.97161   -124.41147   -130.01427   -258.48908   -13289.851    297.51009 
   16900    40.643293    40.643293    40.643293    204.44574    161.13308    252.30845    199.89569   -13287.697    293.61886 
   16950    40.644906    40.644906    40.644906    23.553234    99.698449   -100.44407    71.405322   -13288.703    295.84103 
   17000    40.647789    40.647789    40.647789   -123.67663   -255.46883   -173.82336    58.262304   -13288.368    295.45836 
   17050    40.647559    40.647559    40.647559     -88.8205     54.95319   -300.84046   -20.574228    -13287.95    294.91547 
   17100    40.645546    40.645546    40.645546     35.02211   -94.543794    157.58274    42.027383   -13288.581    296.39989 
   17150    40.646153    40.646153    40.646153   -42.376269     87.19877    -22.70215   -191.62543   -13288.681    296.85774 
   17200    40.647102    40.647102    40.647102   -96.877529   -58.348127   -145.06735   -87.217108   -13288.806    297.35878 
   17250    40.646814    40.646814    40.646814    23.702898    32.941958    17.310536    20.856201   -13286.447    293.04849 
   17300    40.645982    40.645982    40.645982    81.883873   -166.56937    55.536213    356.68478   -13286.269      292.956 
   17350    40.646045    40.646045    40.646045    93.681731    128.24395    79.305451     73.49579   -13286.565     293.7669 
   17400    40.647266    40.647266    40.647266     4.158086   -101.72277     32.64674    81.550288   -13287.342    295.51264 
   17450    40.647192    40.647192    40.647192    25.289382   -10.867575   -19.436549    106.17227   -13286.431     293.9773 
   17500    40.648431    40.648431    40.648431   -204.68322   -277.67585   -167.25036   -169.12345   -13289.782    300.69547 
   17550    40.646641    40.646641    40.646641     6.013639   -61.239263   -159.49176    238.77194   -13288.017    297.51597 
   17600    40.645343    40.645343    40.645343    13.548661   -29.011731    98.194174   -28.536458   -13287.482    296.71407 
   17650    40.645754    40.645754    40.645754    137.21396    334.19451   -74.607794    152.05518   -13285.091    292.30916 
   17700    40.648752    40.648752    40.648752   -123.21602   -24.680673    -172.9116   -172.05579   -13289.288     300.6472 
   17750    40.648943    40.648943    40.648943   -57.858982    5.8564736   -74.085801   -105.34762   -13286.633    295.72391 
   17800    40.647433    40.647433    40.647433     29.09867    149.39829   -122.50085    60.398575   -13285.646     294.0271 
   17850    40.646278    40.646278    40.646278     46.60431    56.844444   -31.260094    114.22858    -13287.37    297.57259 
   17900    40.647764    40.647764    40.647764   -59.855591   -117.88412   -193.55419    131.87154   -13287.919    298.84086 
   17950    40.647685    40.647685    40.647685    8.7299686    31.087578   -42.504244    37.606572   -13286.589    296.46916 
   18000     40.64756     40.64756     40.64756    107.11841    127.93879    64.237048    129.17939   -13287.935    299.26297 
   18050    40.651045    40.651045    40.651045   -228.57542    -182.3901   -215.22885   -288.10732   -13287.651    298.90435 
   18100    40.648756    40.648756    40.648756    109.22892    194.03894    18.506889    115.14094   -13283.302    290.67945 
   18150    40.647052    40.647052    40.647052    64.347825   -70.995007   -105.73536    369.77384   -13286.832    297.70403 
   18200      40.6476      40.6476      40.6476    154.04806    189.02456    166.58361    106.53603   -13284.811    293.98297 
   18250    40.650915    40.650915    40.650915    -189.0111    -234.3004   -408.04156    75.308658   -13287.758    299.86634 
   18300    40.649469    40.649469    40.649469    12.609741    35.589987   -35.626256    37.865491    -13285.27     295.2295 
   18350    40.648347    40.648347    40.648347    33.844165    84.678428    102.62119   -85.767124   -13287.945    300.58265 
   18400    40.648484    40.648484    40.648484    31.092319    38.086302   -122.73222    177.92287    -13284.68    294.43752 
   18450    40.648555    40.648555    40.648555    40.383904   -6.9794602     186.2561   -58.124932   -13286.366    297.86772 
   18500    40.649482    40.649482    40.649482    107.09207    193.74866   -35.093855    162.62141   -13284.199    293.83263 
   18550    40.651737    40.651737    40.651737   -230.79355     -254.856   -356.94577   -80.578873   -13288.248    301.82276 
   18600    40.649023    40.649023    40.649023   -8.6548665    22.379227    7.0621253   -55.405952   -13286.259    298.13271 
   18650     40.64602     40.64602     40.64602    265.69964    322.05829    98.286269    376.75437   -13284.333    294.55834 
   18700    40.650348    40.650348    40.650348    -169.4962   -240.31373   -111.34059    -156.8343   -13287.216    300.29054 
   18750    40.651511    40.651511    40.651511   -211.88679   -331.18955   -162.03288   -142.43794    -13288.78    303.47455 
   18800    40.647642    40.647642    40.647642    207.66597    271.94954    360.98229    -9.933915   -13283.641    293.67313 
   18850    40.648927    40.648927    40.648927    31.003083   -143.52767    15.203396    221.33353   -13286.226    298.82036 
   18900     40.64975     40.64975     40.64975   -60.351187   -125.43215    50.611214   -106.23263   -13286.647    299.77024 
   18950    40.649559    40.649559    40.649559   -121.21149   -96.988896   -118.73528   -147.91028   -13288.011    302.54121 
   19000    40.648081    40.648081    40.648081    130.32063    80.434456    216.66353    93.863901    -13284.27    295.42909 
   19050    40.650066    40.650066    40.650066   -29.528788    14.295621   -25.192514    -77.68947   -13286.106    299.10842 
   19100    40.651082    40.651082    40.651082   -97.953542    -184.2685   -126.77203    17.179908   -13286.734    300.44932 
   19150    40.650214    40.650214    40.650214   -39.782032    157.37874   -183.43747   -93.287363   -13285.615    298.40528 
   19200    40.647459    40.647459    40.647459    61.936295   -78.844295    11.241572    253.41161   -13285.215    297.74691 
   19250    40.646969    40.646969    40.646969       109.01   -3.9495833    132.78013    198.19946   -13285.944    299.27015 
   19300     40.65142     40.65142     40.65142   -135.25944   -222.07113   -136.57666   -47.130512   -13287.108     301.6354 
   19350    40.650925    40.650925    40.650925   -184.93844   -204.64644   -99.528922   -250.63997   -13285.638    298.89697 
   19400    40.646007    40.646007    40.646007    105.07578    107.23069    4.0799305    203.91671   -13287.513    302.63174 
   19450    40.646347    40.646347    40.646347     283.9766    369.53065    156.45115    325.94801   -13283.159    294.30362 
   19500    40.652053    40.652053    40.652053   -155.49513   -280.55041   -103.31177   -82.623213   -13284.855    297.67945 
   19550    40.651592    40.651592    40.651592   -74.334084   -216.49079   -73.949615    67.438154   -13284.963     297.9728 
   19600    40.647753    40.647753    40.647753     -15.3694   -33.485598     51.47751   -64.100111   -13286.646    301.31701 
   19650    40.646175    40.646175    40.646175    187.58554     278.9776    141.10391    142.67512   -13285.463    299.11233 
   19700    40.651099    40.651099    40.651099   -77.860831    -159.8856    107.24503   -180.94193   -13284.568    297.46543 
   19750    40.652348    40.652348    40.652348   -175.41794   -227.91925   -187.62379   -110.71078   -13285.477    299.30314 
   19800    40.648813    40.648813    40.648813    176.89017    242.40709    145.91954    142.34389   -13283.889    296.30835 
   19850    40.649342    40.649342    40.649342   -41.650191    12.372587   -166.71821     29.39505   -13288.124    304.57887 
   19900    40.650306    40.650306    40.650306   -84.679988   -135.28295   -205.86773    87.110716   -13286.857    302.19577 
   19950    40.650424    40.650424    40.650424    -133.8737   -82.557726   -105.62717   -213.43622   -13285.736    300.09361 
   20000    40.647946    40.647946    40.647946    24.104911    150.67615   -137.03241    58.670984   -13287.198    302.98722 
Loop time of 449.071 on 4 procs for 20000 steps with 4000 atoms

Pair  time (%) = 314.185 (69.9634)
Neigh time (%) = 0 (0)
Comm  time (%) = 100.976 (22.4854)
Outpt time (%) = 0.397373 (0.0884878)
Other time (%) = 33.5128 (7.46269)

Nlocal:    1000 ave 1000 max 1000 min
Histogram: 4 0 0 0 0 0 0 0 0 0
Nghost:    4235 ave 4235 max 4235 min
Histogram: 4 0 0 0 0 0 0 0 0 0
Neighs:    70000 ave 72653 max 67302 min
Histogram: 1 0 1 0 0 0 0 1 0 1
FullNghs:  0 ave 0 max 0 min
Histogram: 4 0 0 0 0 0 0 0 0 0

Total # of neighbors = 280000
Ave neighs/atom = 70
Neighbor list builds = 0
Dangerous builds = 0
unfix 1

# Store final cell length for strain calculations
variable tmp equal "lx"
variable L0 equal ${tmp}
variable L0 equal 40.6479456380621
print "Initial Length, L0: ${L0}"
Initial Length, L0: 40.6479456380621

######################################
# DEFORMATION
reset_timestep	0

fix		1 all npt temp 300 300 1 y 0 0 1 z 0 0 1 drag 1
variable srate equal 1.0e10
variable srate1 equal "v_srate / 1.0e12"
fix		2 all deform 1 x erate ${srate1} units box remap x
fix		2 all deform 1 x erate 0.01 units box remap x

# Output strain and stress info to file
# for units metal, pressure is in [bars] = 100 [kPa] = 1/10000 [GPa]
# p2, p3, p4 are in GPa
variable strain equal "(lx - v_L0)/v_L0"
variable p1 equal "v_strain"
variable p2 equal "-pxx/10000"
variable p3 equal "-pyy/10000"
variable p4 equal "-pzz/10000"
fix def1 all print 20 "${p1} ${p2} ${p3} ${p4}" file  Al99.negRhoR.eam.alloy.def1.txt screen no

# Use cfg for AtomEye
#dump 		1 all cfg 250 dump.tensile_*.cfg id type xs ys zs c_csym c_peratom fx fy fz
#dump_modify 1 element Al

# Display thermo
thermo 	50
thermo_style	custom step v_strain temp v_p2 v_p3 v_p4 ke pe press

run		20000
Memory usage per processor = 3.04301 Mbytes
Step strain Temp p2 p3 p4 KinEng PotEng Press 
       0 -8.7402048e-16    302.98722 -0.015067615  0.013703241 -0.0058670984    156.61752   -13287.198    24.104911 
      50       0.0005     297.1815  0.041296722 0.0091328097 -0.0019846362    153.61648   -13284.142   -161.48298 
     100        0.001    297.09038  0.065957241  0.014594864  0.031058442    153.56938   -13284.033   -372.03515 
     150       0.0015    297.16655  0.083981875 -0.012332551 -0.018183774    153.60875   -13284.003    -178.2185 
     200        0.002    297.65867  0.090690672 -0.034269143 -0.0078084562    153.86314   -13284.178   -162.04357 
     250       0.0025    302.10517    0.1537355 -0.013803734 -0.0027470955    156.16158   -13286.397   -457.28223 
     300        0.003    302.48363   0.20902145  0.013557201  0.052623038    156.35721     -13286.5   -917.33895 
     350       0.0035    297.61519   0.22291127  0.036204468  0.011055003    153.84066   -13283.882   -900.56913 
     400        0.004    300.08928   0.23773414  0.007002071 -0.013241164    155.11955   -13285.056   -771.65015 
     450       0.0045    304.98747   0.28207103 -0.0021063102 -0.047159861    157.65147    -13287.47   -776.01618 
     500        0.005    298.83984   0.28857347 -0.0009192027 -0.0093196266     154.4737    -13284.18   -927.78214 
     550       0.0055    302.89161   0.38554804  0.041274421  0.049713111     156.5681   -13286.144   -1588.4519 
     600        0.006    295.50338   0.38298694 -0.0045706923  0.010849412    152.74904   -13282.191   -1297.5522 
     650       0.0065    301.18359   0.40758896 -0.026173754   -0.0129885    155.68521   -13284.981    -1228.089 
     700        0.007    293.88865   0.41470002 -0.049415087 -0.016283914    151.91437    -13281.06   -1163.3367 
     750       0.0075     299.2569   0.47516357  0.010841483  0.011969792    154.68928   -13283.678   -1659.9161 
     800        0.008    291.95083   0.49904078 0.0031889724 -0.011482786    150.91269   -13279.735   -1635.8232 
     850       0.0085    305.72972   0.54048683  0.017741364  0.031760682    158.03515   -13286.688   -1966.6296 
     900        0.009    299.57007   0.57050606 -0.024137456 -0.030865394    154.85116   -13283.328    -1718.344 
     950       0.0095    302.35552    0.6206236 0.0044539008 -0.0028631608    156.29099   -13284.579   -2074.0478 
    1000         0.01    300.19013   0.65266898  0.016079847  0.032661137    155.17168   -13283.264   -2338.0332 
    1050       0.0105     295.8397   0.67285308 0.0072774853 -0.0017515786    152.92289   -13280.813   -2261.2633 
    1100        0.011    300.76686   0.68817519 -0.002555587  0.011155237    155.46979   -13283.151   -2322.5828 
    1150       0.0115    298.59652   0.71417729 -0.017656948 -0.033375967    154.34792   -13281.812   -2210.4813 
    1200        0.012    299.52628   0.78110919 -0.0062655792  0.015745658    154.82852   -13282.069   -2635.2975 
    1250       0.0125     296.8792   0.83193674  0.029697135 0.0019426749    153.46022   -13280.468   -2878.5885 
    1300        0.013    300.18559   0.84452339 0.0034832298  0.016768261    155.16933   -13281.941   -2882.5829 
    1350       0.0135     299.9861   0.87330026 0.0073090164 -0.028857706    155.06621   -13281.593   -2839.1719 
    1400        0.014    296.62815   0.88430605 -0.011589311 -0.015322563    153.33045   -13279.604   -2857.9806 
    1450       0.0145    299.72269    0.9354114 0.0091687331  0.031828928    154.93005   -13280.944   -3254.6969 
    1500        0.015    296.97031   0.99111401 -0.0012559438 -0.012619848    153.50732   -13279.255   -3257.4607 
    1550       0.0155    301.90528   0.99410796 0.0084916874   0.01511641    156.05826    -13281.53   -3392.3869 
    1600        0.016    303.34999     1.044633 -0.0030359601 0.0095936188    156.80504   -13281.998    -3503.969 
    1650       0.0165    296.01958     1.058196 -0.026079626 0.0042601682    153.01587   -13277.921   -3454.5884 
    1700        0.017    295.15241    1.0916608 -0.00020180865  0.010571362    152.56762   -13277.179   -3673.4345 
    1750       0.0175    301.18378    1.1404138  0.010119319  0.013102209    155.68531   -13279.992   -3878.7845 
    1800        0.018    303.47918    1.1637051  0.027159642 -0.0096313125    156.87182   -13280.874   -3937.4449 
    1850       0.0185     300.4304    1.1728644 -0.0080463032 -0.032853084    155.29588   -13278.984   -3773.2167 
    1900        0.019    296.55435    1.2075301 0.0042142309  0.007369172     153.2923   -13276.665   -4063.7118 
    1950       0.0195    297.50627    1.2689463  0.021008451  0.020267826    153.78436   -13276.824   -4367.4087 
    2000         0.02    296.22612    1.2952566 -0.013206302 0.0032343863    153.12263   -13275.824   -4284.2822 
    2050       0.0205    298.96195    1.2939782 -0.0092866891 -0.0039373729    154.53682   -13276.891   -4269.1806 
    2100        0.021    299.67129    1.3342688 -0.013359057 -0.0056718511    154.90348   -13276.912   -4384.1262 
    2150       0.0215     301.2381    1.3929793  0.004864045   0.01316065    155.71339   -13277.367   -4703.3465 
    2200        0.022      297.969    1.4114531 0.0082770959  0.012822388    154.02355   -13275.316   -4775.1754 
    2250       0.0225    302.21245    1.4522886  0.021850629   0.02207175    156.21704    -13277.14   -4987.3698 
    2300        0.023    299.95566    1.4469788 -0.018283791 -0.022443397    155.05048     -13275.6   -4687.5052 
    2350       0.0235    298.39127    1.4924758 0.0077839506 -0.016994919    154.24183   -13274.411    -4944.216 
    2400        0.024    301.85545    1.5433176  0.022810578  0.012553303     156.0325   -13275.814   -5262.2717 
    2450       0.0245    302.71155    1.6014565   0.01810659  0.018314521    156.47503   -13275.864    -5459.592 
    2500        0.025    299.21055    1.5888122 -0.012744455 0.0080117434    154.66532   -13273.651    -5280.265 
    2550       0.0255    300.68452     1.646648 -0.053761327  0.017327679    155.42723       -13274   -5367.3811 
    2600        0.026    302.24001    1.6926324   0.03210337 0.0029985572    156.23128   -13274.387   -5759.1145 
    2650       0.0265    296.71024    1.7075737 -0.0020880096  0.018643927    153.37288   -13271.105   -5747.0988 
    2700        0.027    301.02967    1.7447202  0.031873147 0.0028580903    155.60564   -13272.904   -5931.5047 
    2750       0.0275     298.1116    1.7606147 -0.0060798176 -0.029358065    154.09726   -13270.957   -5750.5895 
    2800        0.028    297.31903    1.8036537 -0.036233702 -0.013743502    153.68757   -13270.099   -5845.5882 
    2850       0.0285    302.30963    1.8391692  0.037975109 0.0081075946    156.26727   -13272.226   -6284.1731 
    2900        0.029    295.94744    1.8644794 0.0024258035  0.022863978    152.97858   -13268.484   -6299.2307 
    2950       0.0295    300.64201    1.8775189  0.007067395 -2.0208181e-05    155.40526   -13270.451    -6281.887 
    3000         0.03     301.8252    1.9069307 -0.0054022089 -0.0061409254    156.01686   -13270.593   -6317.9584 
    3050       0.0305    296.68185    1.9362646 -0.013950044 -0.013978766     153.3582   -13267.463   -6361.1194 
    3100        0.031    300.36113    1.9830298  0.012211559  0.027534071    155.26007   -13268.883   -6742.5849 
    3150       0.0315    298.13086    2.0114192 -0.0012427467  0.015134915    154.10721   -13267.244   -6751.0379 
    3200        0.032    300.18616    2.0382483  0.012621201 0.0099331704    155.16962   -13267.811   -6869.3422 
    3250       0.0325    294.61995    2.0740315 -0.014747373 -0.017403742    152.29239   -13264.435    -6806.268 
    3300        0.033    301.80717    2.0900951 0.0094742452   0.01442497    156.00754    -13267.64   -7046.6479 
    3350       0.0335    299.73683    2.1325446 2.9234668e-06 -0.012500384    154.93736   -13266.058   -7066.8239 
    3400        0.034    297.54142    2.1699204  0.013523562 0.0056812743    153.80253   -13264.402    -7297.084 
    3450       0.0345    296.02478    2.1709665  0.027638724 -0.0097386328    153.01856   -13263.096    -7296.222 
    3500        0.035    299.45494    2.2126645 0.00082772881 -0.018890764    154.79165   -13264.337   -7315.3384 
    3550       0.0355    304.59392    2.2683051 -0.050644257  0.016269574    157.44805   -13266.449   -7446.4347 
    3600        0.036    296.59419    2.2984977   0.00407926  0.010809232    153.31289   -13261.766   -7711.2873 
    3650       0.0365    301.79125    2.3181038  0.019015184  0.060731186    155.99932   -13263.901   -7992.8337 
    3700        0.037    298.03937    2.3412686 0.0019234889 -0.021319903    154.05992   -13261.405   -7739.5739 
    3750       0.0375    294.37668    2.3337017 -0.031488471 -0.027661163    152.16664    -13258.95   -7581.8402 
    3800        0.038    301.52013     2.402675  0.027151268 -0.013621611    155.85917   -13262.074   -8054.0156 
    3850       0.0385    295.87872    2.4214095  0.010376691 -0.015178489    152.94306   -13258.581   -8055.3589 
    3900        0.039    301.32687    2.4821299  0.020318166  0.033956042    155.75927   -13260.812   -8454.6804 
    3950       0.0395    303.59877    2.5149372 0.0091728406 -0.0080368644    156.93364   -13261.395   -8386.9106 
    4000         0.04    292.87302    2.5153378 -0.035092328 -0.036451109    151.38938   -13255.252   -8145.9813 
    4050       0.0405     295.9768    2.5726167 0.0079840622  0.021912408    152.99376   -13256.249   -8675.0439 
    4100        0.041      297.305    2.6104409 -0.010382229  0.021710075    153.68032   -13256.319   -8739.2292 
    4150       0.0415    294.79656    2.5988452 -0.012328835  0.013732172    152.38368   -13254.412   -8667.4951 
    4200        0.042    296.99001    2.6240593 -0.043303424 -0.033694908     153.5175   -13254.922   -8490.2032 
    4250       0.0425    302.75585    2.6845693  0.019235398  0.014749528    156.49793   -13257.273   -9061.8473 
    4300        0.043     298.8638    2.7209846  0.031752564  0.027560956    154.48608   -13254.626   -9267.6603 
    4350       0.0435    298.78996    2.7537132  0.010464055   0.01148099    154.44791   -13253.939   -9252.1942 
    4400        0.044    299.50511    2.7607264 -0.0072151854 -0.028556856    154.81758   -13253.658   -9083.1813 
    4450       0.0445     297.7444    2.7834621  -0.01188414 -0.035988354    153.90745   -13252.093   -9118.6321 
    4500        0.045    299.08867    2.8246081  0.009167468 -0.015185877    154.60232   -13252.126    -9395.299 
    4550       0.0455    296.59771    2.8844896  0.039622443   0.02619176    153.31471   -13250.167   -9834.3459 
    4600        0.046    306.25757    2.9137074  0.027626743   0.05749352    158.30801   -13254.486   -9996.0923 
    4650       0.0465    292.13753    2.8690341  -0.07991494 -0.062925729     151.0092   -13246.508   -9087.3115 
    4700        0.047    305.33022    2.9549923  0.011130421 -0.021723125    157.82865   -13252.643   -9814.6653 
    4750       0.0475    292.73148    2.9923424  0.020654807  0.014163164    151.31622   -13245.434   -10090.534 
    4800        0.048    297.90716    3.0209654  0.049519523  0.048693126    153.99158   -13247.413    -10397.26 
    4850       0.0485    300.03634    3.0314295 -0.033776224 -0.012220492    155.09218    -13247.81   -9951.4426 
    4900        0.049    300.80935    3.0208215  -0.05394464 -0.023938553    155.49176   -13247.495   -9809.7945 
    4950       0.0495    297.22722    3.0824616 -0.010649133 0.0031505749    153.64012   -13244.939   -10249.877 
    5000         0.05    296.83879     3.139492   0.05106153  0.016129919    153.43933   -13244.008   -10688.945 
    5050       0.0505    298.25965    3.1557295  0.024434775  0.026568712    154.17379   -13244.017    -10689.11 
    5100        0.051    297.79033    3.1551036 0.00094644025 -0.015783638    153.93119   -13243.041   -10467.555 
    5150       0.0515    300.80116    3.1597999 -0.034523989 -0.034137755    155.48753   -13243.854   -10303.794 
    5200        0.052    295.40154    3.2422136 -0.017843959 -0.0086884054     152.6964   -13240.319   -10718.937 
    5250       0.0525    299.17265    3.2825691  0.040103317  0.029745956    154.64573   -13241.511   -11174.728 
    5300        0.053    299.35929     3.312842  0.016457491   0.03213241     154.7422   -13240.851   -11204.773 
    5350       0.0535    298.63437    3.3127468 -0.022830475 0.00067833243    154.36749   -13239.707   -10968.649 
    5400        0.054    298.90945    3.3588504 -0.045091085 -0.022248931    154.50968   -13239.075   -10971.701 
    5450       0.0545     296.2288    3.3666115 0.00074408617 0.0024269551    153.12402   -13236.916   -11232.608 
    5500        0.055    300.09005    3.4306765  0.042432202  0.026968503    155.11994   -13238.129   -11666.924 
    5550       0.0555    299.28461    3.4514286 -0.0049915103  0.042940907     154.7036   -13236.926    -11631.26 
    5600        0.056    297.49305    3.4531322 0.0043876558 -0.030073995    153.77752   -13235.199    -11424.82 
    5650       0.0565    299.78458    3.4997563 -0.020048017 -0.035494348    154.96204   -13235.577   -11480.713 
    5700        0.057    297.91078    3.5463367  0.023969231 -0.0012168408    153.99346   -13233.796   -11896.964 
    5750       0.0575    296.03192    3.5570251  0.045200349 0.0099577317    153.02225   -13232.009   -12040.611 
    5800        0.058    294.88893     3.570493 -0.034028344 0.0035086348    152.43143   -13230.602   -11799.911 
    5850       0.0585    303.95709    3.6337812 -0.019838849 -0.0079927572    157.11886   -13234.452   -12019.832 
    5900        0.059    295.84177    3.6323803 -0.017130637 -0.031844937    152.92396   -13229.425   -11944.683 
    5950       0.0595    295.28594    3.6874785  0.017039698  0.050886575    152.63665   -13228.304   -12518.016 
    6000         0.06    302.05824     3.733602  0.042583162   0.02939239    156.13733    -13230.96   -12685.259 
    6050       0.0605    295.08957    3.7020954 -0.054332335  -0.02096254    152.53514   -13226.502   -12089.335 
    6100        0.061    303.28585    3.7761257 -0.018970415 -0.031832091    156.77189    -13229.88   -12417.744 
    6150       0.0615     296.1981     3.809397  0.038257548 0.0041182978    153.10815   -13225.352   -12839.243 
    6200        0.062    296.65112    3.8447205  0.038701861  0.030328796    153.34232    -13224.72   -13045.837 
    6250       0.0625    295.55272    3.8504763 -0.0084771071 -0.020460331    152.77455   -13223.283   -12738.463 
    6300        0.063    302.19169    3.8918672 -0.0030523901 -0.016120568     156.2063   -13225.833   -12908.981 
    6350       0.0635    300.53185    3.8969731 -0.0031654335 -0.019161865    155.34831   -13224.088   -12915.486 
    6400        0.064    299.78628    3.9332404  0.020799987  0.039222695    154.96292   -13222.813   -13310.877 
    6450       0.0645    297.21195    3.9465732 -0.0019085684  0.033864358    153.63222   -13220.588   -13261.763 
    6500        0.065    294.48803    3.9626759  -0.03926788 -0.0060432133     152.2242    -13218.28   -13057.883 
    6550       0.0655    300.59795     4.015366  -0.03009429 -0.0080290421    155.38248   -13220.532   -13257.476 
    6600        0.066    300.98609    4.0694573  0.051233428 0.0075484681    155.58312   -13219.812   -13760.797 
    6650       0.0665    299.94283    4.0914207  0.011869905  0.033380106    155.04385   -13218.353   -13788.902 
    6700        0.067    298.13501    4.1106544 0.0076372569 -0.030309618    154.10936    -13216.49   -13626.607 
    6750       0.0675    296.85075    4.1223072 -0.0083791969 -0.0052129967    153.44551    -13214.89   -13695.717 
    6800        0.068    297.31675    4.1619081  0.022507741 -0.012063381    153.68639   -13214.193   -13907.842 
    6850       0.0685    298.23029    4.1823126 0.00060121822 0.0028693321    154.15861   -13213.722   -13952.611 
    6900        0.069    297.59047    4.2099863 0.0070620996 -0.023786841    153.82788   -13212.446   -13977.539 
    6950       0.0695    297.45693    4.2304874 -0.031948067  0.029856202    153.75885   -13211.421   -14094.652 
    7000         0.07    298.74129    4.2793102  0.015668701 -0.012728935    154.42275   -13211.123   -14274.167 
    7050       0.0705    301.16619    4.3279718 -0.010822255  0.039333245    155.67621   -13211.403   -14521.609 
    7100        0.071    298.63148    4.3306429 -0.0040567808 0.0038409419    154.36599   -13209.122   -14434.757 
    7150       0.0715    300.40054    4.3562629 -0.0087989368 -0.0085307791    155.28044   -13209.063   -14463.111 
    7200        0.072    298.33748    4.3823927 0.0088489872 -0.0088722884    154.21402   -13207.011   -14607.898 
    7250       0.0725    290.15264    4.3873006 -0.0093510107 -0.0073383675    149.98318   -13201.796   -14568.704 
    7300        0.073    304.83195     4.465334  0.047854841  0.020321822    157.57109   -13208.391   -15111.702 
    7350       0.0735    298.03274    4.4642393 0.0060124896 -0.033526213     154.0565   -13203.879   -14789.085 
    7400        0.074    297.20019    4.4772184 -0.0095346285 -0.020853801    153.62614   -13202.448   -14822.767 
    7450       0.0745    299.60374    4.5371759  0.026202686  0.037479012    154.86857    -13202.68   -15336.192 
    7500        0.075    301.51921    4.5737044 -0.0079306265  0.022102957    155.85869   -13202.652   -15292.922 
    7550       0.0755    293.86327    4.5550889 -0.033613007 -0.016573784    151.90125   -13197.674    -15016.34 
    7600        0.076     295.2364    4.5815606 -0.040562433 0.00020741428    152.61104    -13197.36   -15137.352 
    7650       0.0765    295.93162    4.6410776  0.025047928  0.015339776     152.9704   -13196.695   -15604.884 
    7700        0.077    299.37173    4.6841647  0.028280195  0.011889859    154.74864   -13197.431   -15747.782 
    7750       0.0775    293.68907    4.6375966  0.014436548 -0.027102401     151.8112   -13193.452   -15416.436 
    7800        0.078    296.58935    4.7164126 -0.035665965 -0.024034055    153.31039   -13193.904   -15522.375 
    7850       0.0785    299.92842    4.7546475 -0.0026654351 -0.002748335     155.0364   -13194.572   -15830.779 
    7900        0.079    296.23771    4.7863402  0.035300396 0.0011960503    153.12863   -13191.604   -16076.122 
    7950       0.0795    297.91333    4.8186184 -0.0081342917  0.025113977    153.99477   -13191.404    -16118.66 
    8000         0.08    294.97347    4.7971759 -0.0071320442 -0.032789021    152.47513   -13188.811   -15857.516 
    8050       0.0805    303.86853     4.848143 -0.00048547467  0.013874809    157.07308   -13192.336   -16205.108 
    8100        0.081    303.32834    4.8914676 -0.017289574  0.023307225    156.79385   -13190.979   -16324.951 
    8150       0.0815    296.03908    4.8967705 -0.0092249842  0.025549915    153.02595   -13186.129   -16376.985 
    8200        0.082    291.02955    4.9234212  0.021480315 -0.0064135867    150.43647   -13182.445   -16461.626 
    8250       0.0825    297.44416    4.9639932 0.0052156712 0.0073787281    153.75225   -13184.663   -16588.625 
    8300        0.083    296.69995    5.0003966 -0.015619893 -0.032390669    153.36756    -13183.17   -16507.954 
    8350       0.0835    296.12493    5.0081825 -0.0078309176 -0.014243147    153.07033   -13181.759   -16620.361 
    8400        0.084    299.29091    5.0571345  0.016042335 0.0086781135    154.70686    -13182.28   -16939.517 
    8450       0.0845    295.26045    5.0462081  0.015896238 -0.022250546    152.62347    -13179.08   -16799.513 
    8500        0.085    297.51421    5.0988232 -0.014385668  0.029725202    153.78846   -13179.119   -17047.209 
    8550       0.0855    298.46396    5.1288125 0.0010838049 -0.030081151     154.2794   -13178.477   -16999.384 
    8600        0.086     293.4934    5.1460727 -0.042553233   0.04471167    151.71006   -13174.773    -17160.77 
    8650       0.0865    298.50571    5.1755515  0.043430821  0.030345916    154.30098   -13176.222   -17497.761 
    8700        0.087    300.59431    5.2130749 -0.0051577121 -0.028621211     155.3806   -13176.155    -17264.32 
    8750       0.0875    299.12767    5.2097018 -0.021486176 -0.013939155    154.62248    -13174.24   -17247.588 
    8800        0.088    292.80118    5.2267703  0.025940419  0.013171555    151.35224   -13169.812   -17552.941 
    8850       0.0885     296.1347    5.3097184   0.03461073 -0.012554301    153.07538   -13170.367   -17772.583 
    8900        0.089    295.57298    5.3176273 -0.032042879 -0.0047226911    152.78502   -13168.897   -17602.872 
    8950       0.0895    299.45506    5.3521114 -0.0089310683 0.0044651789    154.79171   -13169.719   -17825.485 
    9000         0.09    298.90145    5.4110657 -0.013184239 -0.0083887664    154.50554   -13168.244   -17964.975 
    9050       0.0905    296.11752    5.4270845 0.0027433375  0.029801094     153.0665   -13165.611   -18198.763 
    9100        0.091    299.54079    5.4784031  0.035124419  0.032722907    154.83603    -13166.18   -18487.501 
    9150       0.0915    297.23523    5.4419475 -0.026427363 -0.0022220953    153.64426   -13163.786   -18044.327 
    9200        0.092      298.529    5.4751772 -0.027613265 -0.025362822    154.31302   -13163.248   -18074.004 
    9250       0.0925     301.0143    5.5700174  0.011063478  0.031821225     155.5977   -13163.317   -18709.674 
    9300        0.093    296.09493    5.5794092  0.032831987 0.0089566998    153.05482   -13159.542   -18737.326 
    9350       0.0935    295.81304    5.5874452  0.004853763  -0.02662767    152.90911   -13158.168   -18552.238 
    9400        0.094    298.72864    5.6121393 -0.0038241855 -0.0057873866    154.41622   -13158.441   -18675.093 
    9450       0.0945    295.41433    5.6069385 -0.0086907466 -0.0062185746    152.70301   -13155.492   -18640.097 
    9500        0.095    294.60266    5.6742918 -0.0022277434  -0.01519599    152.28345   -13153.831   -18856.227 
    9550       0.0955    290.58125     5.664211 -0.0089161871 -0.0007794898    150.20474   -13150.502   -18848.384 
    9600        0.096    299.32377    5.7349541  0.024501379  0.049738009    154.72385   -13153.766   -19363.978 
    9650       0.0965    301.77857     5.783915 0.0088251167 -0.0049753686    155.99276   -13153.769   -19292.549 
    9700        0.097    294.19325    5.7300731 -0.068620165 -0.031873498    152.07182   -13148.579   -18765.265 
    9750       0.0975     296.4788    5.8085638 0.0053457345 -0.011321856    153.25325   -13148.493   -19341.959 
    9800        0.098    298.78221    5.8599759  0.081321977  0.043811714    154.44391   -13148.397   -19950.365 
    9850       0.0985    294.54056    5.8382562 -0.019131732 -0.005595465    152.25135   -13144.925    -19378.43 
    9900        0.099    298.11238     5.895893  -0.02654822 -0.049838948    154.09766   -13145.476   -19398.353 
    9950       0.0995    297.18191     5.907287 0.00052988778  -0.01760564    153.61669   -13143.696   -19634.037 
   10000          0.1    297.47855    5.9408356  0.035474368  0.031189569    153.77003   -13142.552   -20024.998 
   10050       0.1005    299.13484    5.9643064  0.025612423  0.047811134    154.62618    -13142.11   -20125.767 
   10100        0.101    298.74047    6.0038043 -0.024276471 -0.019226425    154.42233   -13140.589   -19867.671 
   10150       0.1015    297.34791    6.0389475 -0.017934034 -0.014281532     153.7025   -13138.545    -20022.44 
   10200        0.102    294.17653    6.0695719 -0.016967984  0.026234202    152.06318   -13135.578   -20262.794 
   10250       0.1025    297.16302    6.1165227   0.01855378  0.015446637    153.60693   -13135.786   -20501.744 
   10300        0.103    300.87986    6.1228653 -0.0094979662 0.0082340944     155.5282   -13136.376   -20405.338 
   10350       0.1035    293.58867     6.110837 -0.0070731598 -0.053454905    151.75931   -13131.271   -20167.696 
   10400        0.104    294.86111    6.1399551  0.021520593 -0.014658946    152.41704   -13130.586   -20489.389 
   10450       0.1045    293.02647    6.1693342  0.037307202 -0.014580265     151.4687   -13128.298   -20640.204 
   10500        0.105    298.20257    6.2654261 0.0019749772  0.021945502    154.14429   -13129.615   -20964.489 
   10550       0.1055    295.03768     6.230219 -0.049535383  0.022367022    152.50832   -13126.607   -20676.836 
   10600        0.106    295.18812    6.2227478 -0.019024206 -0.027343512    152.58608    -13125.32   -20587.934 
   10650       0.1065    293.97403    6.2641442   -0.0204232 0.0011276304     151.9585   -13123.325   -20816.162 
   10700        0.107    300.88267     6.366082  0.031387552  0.055024605    155.52966   -13125.513   -21508.314 
   10750       0.1075    293.32287    6.3473454 -0.023443364  0.021619257    151.62191   -13120.225   -21151.738 
   10800        0.108    296.95088    6.3366589  -0.03676758 -0.029341693    153.49727   -13120.714   -20901.832 
   10850       0.1085    299.57146     6.364098  0.033532834 -0.0077641371    154.85188   -13120.682   -21299.556 
   10900        0.109    295.86215    6.4291093   0.02209687 0.0032740571    152.93449   -13117.368   -21514.934 
   10950       0.1095    297.28029    6.4691765   0.04428295 0.0077154455    153.66754   -13116.692    -21737.25 
   11000         0.11    292.30487    6.4362835 -0.0048757563 -0.054465066    151.09569   -13112.716   -21256.476 
   11050       0.1105    298.26871    6.4831006 0.00057069523 0.0054368448    154.17847   -13114.394    -21630.36 
   11100        0.111    293.49378     6.509485  0.012801184  0.024435407    151.71025   -13110.502   -21822.405 
   11150       0.1115    297.52331    6.5704579 -0.013351648  0.012150228    153.79317   -13111.154   -21897.521 
   11200        0.112    295.68112    6.5860307 -0.035888535  0.011581027    152.84092   -13108.761   -21872.411 
[...]
   11600        0.116    294.72673    6.7368084 -0.0067328251 -0.036763374    152.34758   -13096.654   -22311.041 
   11650       0.1165    292.91381    6.7152791 -0.039666817 -0.043324485    151.41046   -13094.247   -22107.626 
   11700        0.117    297.39257    6.8147094   0.03790621   0.01630657    153.72559   -13095.085   -22896.407 
   11750       0.1175     298.6103    6.8478456 0.0094980845  0.057356366    154.35504   -13094.215       -23049 
   11800        0.118    291.37287    6.8089333 -0.0070814913 -0.009672429    150.61393   -13088.986   -22640.598 
   11850       0.1185    298.87714    6.8520819 0.0066802644 -0.025655919    154.49297   -13091.368   -22777.021 
   11900        0.119    296.96828     6.873201 -0.007874131  0.020372218    153.50627   -13088.877    -22952.33 
   11950       0.1195    293.26279    6.9098162 -0.030816998  0.029183181    151.59085   -13085.451   -23027.274 
   12000         0.12    297.49591    6.9081118 -0.0086414218  0.022988106      153.779    -13086.13   -23074.862 
   12050       0.1205    289.87702    6.9510751 -0.011976499 -0.027437428    149.84071   -13080.676   -23038.871 
   12100        0.121    297.39031    7.0437668  0.020527602   0.02581054    153.72442   -13083.028   -23633.683 
   12150       0.1215    294.47328    7.0130406  0.017205679 -0.0025943705    152.21657   -13079.986   -23425.506 
   12200        0.122    288.87448    6.9841946 -0.020820988 -0.058226394    149.32249   -13075.555   -23017.157 
   12250       0.1225     296.4361    7.0926949 0.0066377175 0.0088363797    153.23118   -13077.921   -23693.897 
   12300        0.123    297.95259    7.1221355  0.046074303  0.021647691    154.01507   -13077.151   -23966.192 
   12350       0.1235    294.06019    7.0959917 -0.039507466 -0.011524965    152.00304   -13073.591   -23483.197 
   12400        0.124    295.91404     7.135595 -0.0054328721 -0.035485523    152.96132   -13072.991   -23648.922 
   12450       0.1245    294.67965    7.1565441 0.0052073386  0.015641725    152.32325   -13070.794   -23924.644 
   12500        0.125    294.25865    7.1819526  0.025501049  0.034006713    152.10563   -13069.014   -24138.201 
   12550       0.1255    298.29131    7.2294312  0.027116501 -0.0049168606    154.19016   -13069.524   -24172.103 
   12600        0.126    291.69205    7.1522116 -0.021390282 -0.056410432    150.77892   -13064.545    -23581.37 
   12650       0.1265    290.40204    7.1642631 -0.0022974444 -0.0027285917     150.1121   -13062.314   -23864.124 
   12700        0.127    295.59003    7.2921561  0.070666258  0.024164632    152.79383   -13063.407    -24623.29 
   12750       0.1275    296.73543    7.3371581 0.0050749259  0.011360223     153.3859    -13062.41   -24511.978 
   12800        0.128    294.41202    7.3074754 -0.070318312 -0.037594871     152.1849   -13059.596   -23998.541 
   12850       0.1285    293.01446    7.3303453 -0.051798763 -0.015674148    151.46249   -13057.271   -24209.575 
   12900        0.129    292.37172    7.3704398 -0.0010011359  0.036540769    151.13025   -13055.343   -24686.598 
   12950       0.1295    293.85721    7.4285615  0.025428973  0.068122846    151.89812   -13054.502   -25073.711 
   13000         0.13    291.13307    7.3843516 0.0044515933 -0.0025810029    150.48998   -13051.486   -24620.741 
   13050       0.1305    295.06244    7.3611264 -0.031901105 -0.064410028    152.52111   -13051.897   -24216.051 
   13100        0.131     290.3222    7.3749717  -0.01241301 -0.058709952    150.07083   -13047.837   -24346.163 
   13150       0.1315    292.31522    7.4839375  0.065254201  0.022449449    151.10105   -13047.243   -25238.804 
   13200        0.132    293.19524    7.5401849  0.033967913   0.02550274    151.55594   -13046.056   -25332.185 
   13250       0.1325    294.85279    7.5530119 -0.044454991 -0.0081953719    152.41275   -13045.267   -25001.205 
   13300        0.133    295.53501    7.5297887 -0.031469986 -0.021271036    152.76539   -13043.966   -24923.492 
   13350       0.1335    292.09178    7.5543594 -0.026114302 -0.00019890609    150.98555   -13040.539   -25093.487 
   13400        0.134    294.68051    7.6081736  0.011589227  0.061306745    152.32369   -13040.227   -25603.565 
   13450       0.1345    298.11639    7.6472188  0.046757119  0.052968843    154.09974   -13040.339   -25823.149 
   13500        0.135     293.0708    7.5959958 -0.018362978 -0.042328282    151.49161    -13036.06   -25117.682 
   13550       0.1355    290.55541    7.5614974 -0.015677605 -0.080273713    150.19138   -13033.093   -24885.154 
   13600        0.136    291.63142    7.5690093  0.044904573 -0.024010894    150.74758   -13032.004   -25299.677 
   13650       0.1365    293.31332    7.6777487  0.071307028  0.064896821    151.61698   -13031.197   -26046.509 
   13700        0.137    291.01137    7.6726961 0.0026435788 0.0023864286    150.42707   -13028.333    -25592.42 
   13750       0.1375     293.5741    7.6704755  -0.08037469 -0.037422352    151.75177   -13027.961   -25175.595 
   13800        0.138     297.5101    7.7184605 -0.017431138  0.013634329    153.78634   -13028.303   -25715.546 
   13850       0.1385    294.56128    7.7925931  0.020722336    0.0837985    152.26206   -13025.077   -26323.713 
   13900        0.139     289.0184    7.7389687  0.012438212 -0.023095101    149.39688   -13020.519   -25761.039 
   13950       0.1395    292.42041    7.7317301 -0.012615925 0.0029133964    151.15542   -13020.576   -25740.092 
   14000         0.14    295.07982    7.8277115   0.01465897 -0.013955641     152.5301   -13020.234   -26094.716 
   14050       0.1405     288.1069    7.8057417 0.00089349998 -0.031365281    148.92572   -13014.912   -25917.566 
   14100        0.141    292.73752    7.8467977  0.020209267 -0.0086120711    151.31934   -13015.589    -26194.65 
   14150       0.1415     292.7639    7.8110535 -0.020349602  0.029996158    151.33297   -13013.887       -26069 
   14200        0.142    290.92108     7.802028 -0.042361152 0.0024191896     150.3804   -13011.225    -25873.62 
   14250       0.1425    298.38709     7.872411  0.076085145  0.029796484    154.23967   -13013.358   -26594.309 
   14300        0.143    291.56011    7.8138784 0.0015089911 -0.027541335    150.71072   -13008.113   -25959.487 
   14350       0.1435    292.26384    7.8484717 0.0040728757 -0.026413567    151.07449   -13006.754   -26087.103 
   14400        0.144    293.15258    7.8607063  0.029591384 0.0055690904    151.53389   -13005.484   -26319.556 
   14450       0.1445    293.34529     7.853228  0.032932835   0.02154618     151.6335   -13003.862   -26359.023 
   14500        0.145    293.65761    7.8061657 -0.032117028 -0.011441341    151.79494   -13002.298   -25875.358 
   14550       0.1455    286.65227    7.7391159  -0.08810256 -0.020783198     148.1738   -12996.966     -25434.1 
   14600        0.146    294.21599    7.7576857 0.0069785948  0.091394655    152.08358   -12999.171   -26186.863 
   14650       0.1465     293.6409    7.7147316  0.022386953  0.050902827    151.78631   -12997.183   -25960.071 
   14700        0.147    290.85182    7.6096555 -0.010031485 -0.0040118149     150.3446   -12994.064   -25318.707 
   14750       0.1475    298.97876    7.5147518 -0.024384095 -0.041144771    154.54551   -12996.587   -24830.743 
   14800        0.148    298.86378    7.3434104 0.0077921944 -0.039700416    154.48607   -12994.886   -24371.674 
   14850       0.1485    306.98524    7.1772125  0.035132833 0.0058562171    158.68414   -12997.506   -24060.672 
   14900        0.149    313.89007    6.9705114  0.017984929  0.071638362    162.25333   -12999.556   -23533.782 
   14950       0.1495    312.91984    6.7001307  -0.02895001 0.0055251715    161.75181   -12997.632   -22255.686 
   15000         0.15    321.20896    6.3853239 -0.063116735 -0.011967066    166.03655   -13000.588   -21034.134 
   15050       0.1505    330.53625    6.1005767 0.0054774045   0.03572923    170.85793   -13004.218   -20472.611 
   15100        0.151    332.20982    5.7524087  0.027099136 0.0069904562    171.72302   -13004.016   -19288.328 
   15150       0.1515    345.35385    5.4443199 0.0021434736  0.015991131    178.51731   -13009.898   -18208.182 
   15200        0.152    349.57471    5.0811613 -0.036347408  0.081795501    180.69913   -13011.365   -17088.698 
   15250       0.1525    362.25822    4.7596779  -0.03556406   0.10283895    187.25537   -13017.451   -16089.842 
   15300        0.153    361.89811    4.3961453  -0.05529858  0.026516548    187.06923   -13016.962   -14557.878 
   15350       0.1535    361.14007     4.091827 -0.098079493  0.037554076    186.67739   -13016.487   -13437.672 
   15400        0.154    358.73853    3.8698611 -0.061841381  0.074191608      185.436   -13015.282   -12940.704 
   15450       0.1545    370.40358    3.6655297  0.099571102   0.10067335     191.4658   -13021.412   -12885.914 
   15500        0.155     382.9725    3.4122874  0.039540163  0.034488981    197.96282   -13028.075   -11621.055 
   15550       0.1555    378.46185    3.1590083 -0.011131292  -0.10940773    195.63122    -13025.88   -10128.231 
   15600        0.156    385.89066    3.0821383    0.0282036 -0.082152616    199.47125   -13029.881   -10093.964 
   15650       0.1565     386.8572    2.9736626   0.04556101  0.033055006    199.97086   -13030.638   -10174.262 
   15700        0.157    383.95848     2.819619  -0.07826135  0.059492944    198.47248   -13029.434   -9336.1686 
   15750       0.1575    391.12845    2.7763696 -0.064036753  0.085423428    202.17872   -13033.482   -9325.8544 
   15800        0.158    388.03882    2.6840826 -0.034951115  0.010344495    200.58166   -13032.279   -8864.9199 
   15850       0.1585    387.90649    2.6540947  0.030329633 -0.026180245    200.51326   -13032.555   -8860.8137 
   15900        0.159    381.98862    2.6749921  0.015085498 -0.055045364    197.45424   -13029.832   -8783.4409 
   15950       0.1595    383.93814    2.6946585 0.0082399298   0.03658674    198.46197   -13031.199   -9131.6172 
   16000         0.16    389.89002     2.693839 0.0027668471 0.0017110045    201.53857   -13034.661   -8994.3894 
   16050       0.1605    385.40943     2.598318 -0.012549195  0.040741291     199.2225   -13032.745   -8755.0336 
   16100        0.161    391.16785    2.6283006 -0.075406328   0.10297199    202.19909   -13036.185   -8852.8874 
   16150       0.1615    387.58378    2.5202493 -0.066510452  0.068130376    200.34644   -13034.899   -8406.2309 
   16200        0.162    389.87328    2.4376367 0.0045206429 -0.031360575    201.52991   -13036.613   -8035.9894 
   16250       0.1625    391.36877    2.4925378  0.029084134 -0.079979578    202.30295    -13037.83    -8138.808 
   16300        0.163    388.26545     2.488895  0.094771241  0.014242804    200.69881   -13036.695   -8659.6969 
   16350       0.1635    388.89893    2.4411782  0.066939501 -0.049433729    201.02626   -13037.548   -8195.6133 
   16400        0.164    396.53589    2.4548472 -0.0075610792 -0.076134606    204.97389    -13042.04   -7903.8385 
   16450       0.1645    396.50718    2.4761002  -0.05304439  0.097373016    204.95905    -13042.55   -8401.4296 
   16500        0.165    396.05639    2.5046693  -0.12123949  0.095985743    204.72603   -13042.885   -8264.7187 
   16550       0.1655    397.19288    2.5827449 -0.028459159  0.074905341    205.31349    -13044.11   -8763.9702 
   16600        0.166    389.47741    2.5448917  0.063797163  0.032500022    201.32528     -13040.7    -8803.963 
   16650       0.1665    391.01176    2.5892952  0.086404716  -0.13320759    202.11841    -13041.97   -8474.9743 
   16700        0.167    397.28009     2.579077  0.071165362 -0.079907663    205.35858   -13045.724   -8567.7824 
   16750       0.1675    396.76652    2.6653048  0.011549786  0.018354252     205.0931   -13045.997   -8984.0294 
   16800        0.168    390.60547    2.6887077 -0.062341783  0.026681956    201.90839   -13043.319   -8843.4929 
   16850       0.1685    393.25961    2.7609369 -0.023289498  0.040298246    203.28034   -13045.186   -9259.8188 
   16900        0.169     395.4557    2.8339328  0.043903051  0.013731629    204.41553   -13046.832   -9638.5583 
   16950       0.1695    383.45376     2.793422  0.026522431 -0.071078035    198.21159   -13041.112   -9162.8879 
   17000         0.17    387.31093    2.8214648 -0.0071832969 -0.0078922078    200.20541   -13043.589   -9354.6311 
   17050       0.1705     393.0202     2.856726  0.052862217  0.014022194    203.15659   -13047.013   -9745.3681 
   17100        0.171    390.16096    2.8030526 -0.010899761 -0.037194588    201.67862   -13046.022   -9183.1943 
   17150       0.1715    388.47752    2.7944876 -0.033224992 0.0066120513    200.80843   -13045.639    -9226.249 
   17200        0.172    381.14923    2.8172945 0.0087921676 -0.043993095    197.02035   -13042.311   -9273.6454 
   17250       0.1725    383.28616    2.8537712  0.037124897  0.013559841    198.12496    -13043.86   -9681.5198 
   17300        0.173    387.33326    2.8872244  0.015857989  0.015578061    200.21695   -13046.399    -9728.868 
   17350       0.1735    381.92804     2.775236 -0.040446469  0.019567424    197.42293    -13044.02   -9181.1897 
   17400        0.174    380.03734     2.760697  -0.05178648 -0.083485754     196.4456   -13043.479   -8751.4158 
   17450       0.1745    382.44465    2.7176848  0.035315576  0.034333279    197.68997   -13045.151    -9291.112 
   17500        0.175    382.62451    2.6913497   0.08483978  0.070955584    197.78294   -13045.686   -9490.4835 
   17550       0.1755    376.00715      2.64213  -0.05854502 -0.012088983    194.36235   -13042.701   -8571.6533 
   17600        0.176    385.67418    2.5987671 -0.073981364 -0.022621851    199.35935   -13048.135   -8340.5462 
   17650       0.1765    376.06649    2.5057785 0.0085398021 -0.053873825    194.39303   -13043.625   -8201.4817 
   17700        0.177    379.54105    2.5273621  0.090857187  0.046076995    196.18906   -13045.877   -8880.9875 
   17750       0.1775    389.91944    2.5407843  0.024504896   0.10230604    201.55377   -13051.765   -8891.9841 
   17800        0.178    382.88823     2.405346 -0.091444001 -0.084225972    197.91926   -13048.601   -7432.2535 
   17850       0.1785    382.81114    2.3554294   -0.0156514  -0.11754421    197.87941   -13049.037    -7407.446 
   17900        0.179    383.39276    2.3999307   0.12044045 -0.028592926    198.18006   -13049.872   -8305.9274 
   17950       0.1795    380.25027     2.372738  0.081816336  0.084861816    196.55567   -13048.784   -8464.7205 
   18000         0.18    378.93359    2.2563663 0.0052273684   0.02461679    195.87506   -13048.624   -7620.7015 
   18050       0.1805    388.19937    2.1704615 -0.094950931 -0.057615822    200.66465   -13053.906   -6726.3159 
   18100        0.181    381.84533    2.1402147  -0.04000425 -0.055654293    197.38017   -13051.137   -6815.1873 
   18150       0.1815    390.72113    2.1937779   0.11647264  0.079326959    201.96818   -13056.262   -7965.2583 
   18200        0.182    380.04533    2.1257445 0.0092117122  0.039861667    196.44973   -13051.296   -7249.3928 
   18250       0.1825    388.06513    2.0717962 0.00049680613 -0.019536499    200.59526   -13056.002   -6842.5215 
   18300        0.183     386.1135    2.0472223 -0.013462563 -0.053812855    199.58644   -13055.561   -6599.8229 
   18350       0.1835    389.88007    2.0222359  0.046483459 -0.0096517571    201.53342   -13058.105   -6863.5587 
   18400        0.184    386.67758    2.0026835 -0.044879833  0.032623535    199.87802   -13057.046   -6634.7574 
   18450       0.1845    388.31506    1.9328984  0.028091675  0.041538921    200.72445   -13058.496   -6675.0965 
   18500        0.185    382.81851    1.8641445  0.010500413  0.034869947    197.88322   -13056.289   -6365.0494 
   18550       0.1855    390.53685    1.8163102 -0.029835317 -0.083184525    201.87292   -13060.909   -5677.6345 
   18600        0.186    390.05829    1.8211315 -0.043818161 -0.036510428    201.62555     -13061.3   -5802.6763 
   18650       0.1865    386.94886    1.8797933  0.030566583  0.059650108    200.01825   -13060.321   -6566.7001 
   18700        0.187    381.67064    1.8372904 -0.0097106385  0.046900745    197.28987   -13058.221   -6248.2683 
   18750       0.1875    380.82282    1.8906754 -0.048961268  0.024818268    196.85163   -13058.394   -6221.7746 
   18800        0.188    387.51753    1.9714685  0.032132341 -0.025965477     200.3122   -13062.424    -6592.118 
   18850       0.1885     378.4893    1.9792041  0.054552931 -0.049835455    195.64541   -13058.312   -6613.0718 
   18900        0.189    390.20955     2.031281  0.028996591 -0.027597115    201.70373   -13064.932   -6775.6016 
   18950       0.1895    385.26153    2.0437644  0.036711712 -0.062434157    199.14604   -13062.944   -6726.8065 
   19000         0.19    384.23037    2.1329255  0.060917847  0.023120076    198.61303   -13062.972    -7389.878 
   19050       0.1905    381.96384    2.1088738  0.070087395  0.034930493    197.44143   -13062.361    -7379.639 
   19100        0.191    376.77104    2.1148495 -0.025544426  0.015845185    194.75721   -13060.212   -7017.1675 
   19150       0.1915    383.01935     2.100685 -0.072046896 -0.033635664    197.98704   -13063.938   -6650.0083 
   19200        0.192    384.85478    2.1796117 -0.042794156   0.03126366    198.93579   -13065.391   -7226.9373 
   19250       0.1925    377.58297     2.181366 -0.039270112   0.10107718    195.17691   -13062.139   -7477.2435 
   19300        0.193    373.17313    2.1711531 -0.029610395  0.083429492    192.89741   -13060.391    -7416.574 
   19350       0.1935    377.90603    2.2117251  0.019331114  0.017490375    195.34391   -13063.363   -7495.1554 
   19400        0.194    377.33289    2.1805553  0.035953781  -0.09318209    195.04764   -13063.535   -7077.7565 
   19450       0.1945    373.91452    2.2263731   0.02122276  -0.11915744    193.28065   -13062.234   -7094.7949 
   19500        0.195    380.00365    2.2782948  0.042883979  0.038653454    196.42819   -13065.871   -7866.1073 
   19550       0.1955    374.13113    2.2242006  0.035359821  0.036449664    193.39262   -13063.326    -7653.367 
   19600        0.196     379.1233    2.1616986 -0.061611343 -0.028420439    195.97313   -13066.386   -6905.5562 
   19650       0.1965    375.72944    2.1774062 -0.060020555 -0.033011513     194.2188   -13065.103   -6947.9137 
   19700        0.197    373.63293    2.1886652   0.05199892  0.023665101    193.13509   -13064.496    -7547.764 
   19750       0.1975    379.74202    2.2722646   0.04111267  0.061535499    196.29295   -13068.117   -7916.3758 
   19800        0.198    372.66337    2.2061171 0.0084137666 -0.028485004    192.63391   -13064.923   -7286.8194 
   19850       0.1985    374.50113    2.2025382 0.0029602356 -0.053530653    193.58387   -13066.329   -7173.2258 
   19900        0.199    370.34111    2.1665469 -0.042685717 -0.034681938    191.43351    -13064.63   -6963.9309 
   19950       0.1995    371.68452    2.2297888 -0.027998436 0.0046335411    192.12794    -13065.76   -7354.7464 
   20000          0.2    371.96782    2.3176495  0.033205129  0.081028053    192.27438   -13066.326   -8106.2757 
Loop time of 421.796 on 4 procs for 20000 steps with 4000 atoms

Pair  time (%) = 331.539 (78.6017)
Neigh time (%) = 0.557015 (0.132058)
Comm  time (%) = 70.191 (16.641)
Outpt time (%) = 0.142974 (0.0338965)
Other time (%) = 19.3662 (4.59136)

Nlocal:    1000 ave 1010 max 988 min
Histogram: 1 0 0 0 0 1 1 0 0 1
Nghost:    3730 ave 3746 max 3706 min
Histogram: 1 0 0 0 1 0 0 0 0 2
Neighs:    68699.2 ave 69404 max 67467 min
Histogram: 1 0 0 0 0 1 0 0 0 2
FullNghs:  0 ave 0 max 0 min
Histogram: 4 0 0 0 0 0 0 0 0 0

Total # of neighbors = 274797
Ave neighs/atom = 68.6993
Neighbor list builds = 83
Dangerous builds = 0

######################################
# SIMULATION DONE
print "All done"
All done
