ITEM: TIMESTEP
100
ITEM: NUMBER OF ATOMS
4000
ITEM: BOX BOUNDS pp pp pp
-0.0945203 40.5945
-0.0700834 40.5701
-0.069969 40.57
ITEM: ATOMS mass type id x y z vx vy vz fx fy fz xrad yrad zrad vxrad vyrad vzrad fxrad fyrad fzrad xub yub zub vxub vyub vzub fxub fyub fzub xlb ylb zlb vxlb vylb vzlb fxlb fylb fzlb 
26.982 1 2 1.94872 1.97019 -0.0938183 3.05706 -0.670085 -1.99076 -0.443349 -0.466981 0.265533 0 0 0 0 0 0 -0.0234144 -0.11231 -0.174914 1.96347 1.97428 -0.0939815 3.17856 -0.490407 -1.81419 -0.449889 -0.479886 0.275457 1.95306 1.95827 -0.100688 2.93486 -0.850591 -2.16755 -0.436807 -0.454109 0.255625 
26.982 1 3 1.83987 -0.112397 2.1204 -0.459464 2.75544 1.21275 0.0487008 0.368695 -0.28988 0 0 0 0 0 0 -0.058261 -0.173466 -0.0869402 1.85157 -0.113247 2.119 -0.396277 2.93647 1.20997 0.0479519 0.382805 -0.299322 1.84725 -0.120261 2.1155 -0.523601 2.57349 1.21562 0.0494469 0.354563 -0.280393 
26.982 1 8 3.81895 1.98173 1.98923 1.85017 2.07405 -2.07693 0.230741 0.165643 0.180462 0 0 0 0 0 0 0.000533549 -0.144018 -0.121964 3.83063 1.97821 1.9857 1.96018 2.16199 -2.07022 0.235088 0.178073 0.185202 3.82433 1.97744 1.98645 1.73969 1.98599 -2.08326 0.226426 0.153207 0.175781 
26.982 1 41 -0.123167 3.78959 -0.104387 4.38637 4.41813 -0.385849 0.0154253 0.770744 0.286435 0 0 0 0 0 0 -0.112269 -0.11877 -0.154808 -0.109242 3.79419 -0.103541 4.44345 4.80626 -0.187656 0.00938457 0.7935 0.295704 -0.115864 3.77795 -0.112277 4.32874 4.02952 -0.584256 0.0214816 0.747994 0.277173 
26.982 1 43 1.80104 4.09116 1.90245 -2.1917 -4.7574 5.22478 0.665701 -0.704643 0.24772 0 0 0 0 0 0 -0.0344481 -0.109926 -0.116008 1.80492 4.08143 1.90501 -2.36284 -5.08248 5.42892 0.667538 -0.723026 0.249967 1.81621 4.09401 1.89353 -2.02064 -4.43238 5.02168 0.663897 -0.686263 0.245546 
26.982 1 202 1.84715 1.92591 4.10989 4.50425 0.0189054 -4.11261 0.223808 0.17633 -0.219948 0 0 0 0 0 0 -0.0694551 -0.138546 -0.109628 1.86012 1.92636 4.10202 4.62621 0.178716 -4.34848 0.228741 0.179026 -0.228246 1.85335 1.91764 4.11219 4.38145 -0.14136 -3.87605 0.218894 0.173644 -0.21159 
26.982 1 241 -0.161793 3.86937 4.08096 4.74369 -0.739184 -1.79315 -0.01279 0.197365 -0.0153597 0 0 0 0 0 0 -0.117404 -0.132602 -0.125564 -0.142929 3.87174 4.07377 4.99684 -0.526415 -1.98411 -0.0146198 0.200674 -0.0243497 -0.159382 3.86003 4.08257 4.49001 -0.952313 -1.60129 -0.0109409 0.194056 -0.00630166 
26.982 1 245 3.88661 4.00613 4.00578 -0.0385701 -2.50061 -2.52198 0.0471249 -0.272377 -0.0411275 0 0 0 0 0 0 -0.00750542 -0.0662754 -0.0474484 3.89316 3.99647 3.99925 -0.0919722 -2.80111 -2.6721 0.0493343 -0.29423 -0.0476322 3.89707 4.0089 4.0067 0.0148498 -2.19923 -2.37101 0.0449272 -0.250494 -0.0345382 
26.982 1 6 6.10942 1.87328 -0.0189027 -2.90935 2.50124 1.7883 -0.286748 0.440778 0.22186 0 0 0 0 0 0 -0.084689 -0.103262 -0.194157 6.11076 1.86578 -0.017872 -3.19685 2.43624 1.96534 -0.302077 0.453371 0.221276 6.12275 1.87297 -0.0269618 -2.62148 2.56682 1.61126 -0.271353 0.428176 0.222443 
26.982 1 9 8.06485 -0.232585 -0.0383446 -1.78495 4.78888 -0.109304 -0.0736758 0.48764 0.140201 0 0 0 0 0 0 -0.00808368 -0.177879 -0.0999354 8.06889 -0.230402 -0.0451076 -1.85889 5.0461 -0.215572 -0.0763036 0.493285 0.137672 8.07345 -0.243515 -0.0386087 -1.71022 4.53167 -0.00270445 -0.070986 0.481997 0.142755 
26.982 1 12 8.11587 1.94461 2.05386 -3.00676 0.195157 1.43933 -0.111086 -0.126075 -0.135093 0 0 0 0 0 0 -0.0213144 -0.158035 -0.0957506 8.11348 1.93694 2.04783 -3.31464 0.110094 1.3073 -0.118126 -0.123069 -0.139283 8.13084 1.94449 2.05356 -2.6977 0.280984 1.5711 -0.104022 -0.129109 -0.13094 
26.982 1 47 6.07353 4.00146 2.11845 1.61268 -0.257775 1.34554 -0.0740666 -0.310006 -0.58446 0 0 0 0 0 0 -0.0531579 -0.0554018 -0.121924 6.08004 3.99314 2.11696 1.52198 -0.437035 1.29881 -0.0896096 -0.318075 -0.598208 6.08182 4.00288 2.11362 1.70418 -0.0771412 1.39232 -0.0585101 -0.301895 -0.5707 
26.982 1 49 8.00965 3.97889 -0.153286 -4.77616 0.629832 -1.85267 0.0257138 0.0397725 0.553606 0 0 0 0 0 0 -0.0261317 -0.0312291 -0.260853 8.00974 3.97174 -0.153636 -4.99327 0.517616 -1.64646 0.0194711 0.0365989 0.569969 8.02221 3.97915 -0.159965 -4.55798 0.74347 -2.05891 0.0319875 0.0429551 0.537234 
26.982 1 206 5.98004 1.88412 3.91445 -2.08805 -2.19853 3.28995 -0.235683 0.419111 0.368862 0 0 0 0 0 0 -0.0494622 -0.136416 -0.0856841 5.98745 1.87745 3.91216 -2.1618 -2.24132 3.3701 -0.247244 0.427518 0.374846 5.98745 1.88302 3.91108 -2.0141 -2.15487 3.21018 -0.224137 0.410703 0.362894 
26.982 1 209 8.04735 -0.163856 4.01386 -7.8192 2.27341 1.26735 0.0518579 -0.0638905 0.153297 0 0 0 0 0 0 -0.0177294 -0.183716 -0.171293 8.04391 -0.166416 4.01167 -8.08361 2.36225 1.3113 0.0593409 -0.0580902 0.154565 8.06333 -0.170008 4.01042 -7.55387 2.18457 1.22299 0.0443777 -0.0697298 0.15197 
26.982 1 249 8.1014 3.87796 4.18902 -0.523128 1.49997 -0.35633 -0.206618 0.295402 -0.228333 0 0 0 0 0 0 -0.00739876 -0.0245464 -0.0256899 8.10394 3.87436 4.18072 -0.648885 1.51154 -0.606357 -0.204379 0.294574 -0.23938 8.11153 3.87461 4.19174 -0.396754 1.48955 -0.106695 -0.208887 0.296266 -0.217304 
26.982 1 10 10.028 1.92413 -0.02937 -5.44437 -8.38679 -1.55356 -0.0607219 0.188124 0.157537 0 0 0 0 0 0 0.0634187 -0.144299 -0.20584 10.027 1.90425 -0.0323851 -5.66644 -8.87088 -1.47306 -0.0630261 0.196996 0.160369 10.0395 1.93629 -0.033351 -5.22146 -7.90153 -1.63363 -0.0584254 0.179224 0.154693 
26.982 1 16 11.9337 2.07582 2.12226 -2.1932 -2.45001 -0.492873 0.175729 -0.412142 -0.21088 0 0 0 0 0 0 0.0734196 -0.191144 -0.163855 11.9342 2.07018 2.11655 -2.25483 -2.49072 -0.631808 0.186687 -0.413796 -0.218654 11.9417 2.07372 2.12167 -2.13093 -2.40908 -0.354193 0.164772 -0.410525 -0.203137 
26.982 1 51 9.95328 3.96767 2.04223 -1.48918 -0.897997 -5.85955 0.0310268 0.165011 -0.0549567 0 0 0 0 0 0 0.0212387 -0.0368934 -0.0904085 9.95879 3.96414 2.03801 -1.48899 -0.864117 -5.87866 0.0302684 0.166477 -0.0561251 9.95843 3.96431 2.04018 -1.48883 -0.931063 -5.84085 0.0317668 0.163538 -0.0538256 
26.982 1 53 11.9261 4.03966 0.0410457 1.69081 -0.213569 7.57901 0.310664 0.079227 -0.398741 0 0 0 0 0 0 0.0673051 -0.0624931 -0.260444 11.9401 4.03501 0.0473389 2.0898 -0.179015 7.84611 0.320352 0.0885553 -0.409688 11.9207 4.03743 0.0277169 1.29176 -0.247467 7.31288 0.300951 0.0698749 -0.387803 
26.982 1 210 10.061 1.87848 4.26267 -0.574577 -4.8004 3.02778 -0.039505 -0.304761 -0.0803117 0 0 0 0 0 0 0.00674769 -0.11016 -0.0784315 10.0618 1.8712 4.25604 -0.734506 -4.97776 2.90537 -0.0426648 -0.312561 -0.0813989 10.0708 1.87798 4.26371 -0.413899 -4.62241 3.14919 -0.0363371 -0.296985 -0.0792892 
26.982 1 213 12.2343 -0.160316 4.04461 0.404432 -4.81393 0.0459105 -0.787212 -0.0254709 0.46705 0 0 0 0 0 0 0.0343488 -0.176664 -0.210324 12.2408 -0.167956 4.03808 0.391492 -4.92176 -0.0531813 -0.80373 -0.0272749 0.475525 12.2363 -0.161336 4.0455 0.418065 -4.70589 0.143731 -0.77069 -0.0236662 0.458522 
26.982 1 253 12 3.87646 4.05158 -4.08006 6.84493 -3.75987 0.196863 0.708315 0.177675 0 0 0 0 0 0 0.0158694 -0.0188076 -0.0311258 11.9999 3.87837 4.04587 -4.19992 7.13598 -3.81997 0.199689 0.721536 0.178236 12.0086 3.86758 4.05168 -3.95997 6.55452 -3.7008 0.194062 0.695086 0.177092 
26.982 1 20 16.2901 1.8503 2.12145 2.54203 2.92331 3.56662 -0.652382 0.475127 -0.0421032 0 0 0 0 0 0 -0.100013 -0.186899 -0.120027 16.2963 1.84734 2.11457 2.6016 2.9761 3.47441 -0.669127 0.476932 -0.0491376 16.2881 1.84539 2.12203 2.483 2.87031 3.65894 -0.635588 0.473321 -0.0350601 
26.982 1 55 14.1095 4.0842 1.96161 2.29303 2.19406 -1.64811 -0.0710476 -0.0658398 0.295552 0 0 0 0 0 0 -0.00640857 -0.0961749 -0.133956 14.112 4.08174 1.95544 2.2537 2.22701 -1.72887 -0.0703869 -0.0664376 0.300335 14.1134 4.07977 1.96146 2.33276 2.16133 -1.56727 -0.0716767 -0.0652596 0.290785 
26.982 1 57 16.2588 3.77295 0.0654074 -5.16156 -1.05823 -5.12597 -0.478953 0.638924 -0.235719 0 0 0 0 0 0 -0.0768956 -0.0733308 -0.255851 16.2531 3.76832 0.0533536 -5.55556 -0.935327 -5.45143 -0.498524 0.664092 -0.243052 16.2687 3.7706 0.0705044 -4.7672 -1.18082 -4.7996 -0.459326 0.613747 -0.228375 
26.982 1 214 13.9555 2.00077 4.11299 -4.41892 -5.28227 4.32293 0.800938 0.230756 -0.1229 0 0 0 0 0 0 0.0435191 -0.13021 -0.116266 13.9505 1.98816 4.12015 -4.57057 -5.49769 4.6027 0.812903 0.243515 -0.135587 13.9669 2.00565 4.10018 -4.26643 -5.06678 4.0423 0.789018 0.217982 -0.110229 
26.982 1 257 16.068 3.98167 4.04154 -2.44404 4.24667 -0.4971 0.142492 0.231906 -0.234368 0 0 0 0 0 0 -0.0102874 -0.0435794 -0.032278 16.0695 3.9812 4.04269 -2.50094 4.39923 -0.457361 0.137221 0.237793 -0.245902 16.0708 3.97519 4.03474 -2.3868 4.09394 -0.53746 0.147827 0.226009 -0.222834 
26.982 1 218 18.2257 1.88542 3.93798 -2.40875 -0.00829966 2.71512 0.360271 0.391294 0.0393629 0 0 0 0 0 0 -0.000977402 -0.150359 -0.0403417 18.2228 1.88267 3.94084 -2.52736 0.0350719 2.90152 0.364975 0.397499 0.0360203 18.2307 1.88033 3.92943 -2.29043 -0.0520786 2.52831 0.355596 0.385114 0.0427112 
26.982 1 18 18.1856 1.9366 -0.111192 2.84712 -1.11575 -0.783752 0.194793 0.116782 0.286827 0 0 0 0 0 0 -0.0640724 -0.118925 -0.234203 18.1887 1.93331 -0.119131 2.88867 -1.11418 -0.958157 0.180898 0.118132 0.290072 18.1848 1.9321 -0.110273 2.80602 -1.11739 -0.608356 0.20873 0.115451 0.283603 
26.982 1 19 18.1551 -0.0846321 1.91 -0.783108 2.96691 1.42968 0.425097 -0.173382 0.519311 0 0 0 0 0 0 -0.0416994 -0.243593 -0.0560104 18.154 -0.0860907 1.90491 -0.805654 2.95985 1.47315 0.435438 -0.191953 0.530026 18.1583 -0.0918593 1.90876 -0.760608 2.97443 1.38658 0.414772 -0.154753 0.508609 
26.982 1 21 20.3069 -0.0320258 -0.100387 3.22804 0.919639 -2.87778 0.0225838 -0.365348 0.311486 0 0 0 0 0 0 0.00864575 -0.189042 -0.121052 20.3104 -0.0274392 -0.106343 3.39074 1.09886 -2.89415 0.0230194 -0.385163 0.320925 20.3033 -0.0452664 -0.101442 3.06538 0.740931 -2.86103 0.0221522 -0.345471 0.302044 
26.982 1 22 22.3216 1.9451 -0.00268132 1.64787 2.36873 -3.57656 -0.261236 -0.256708 -0.139 0 0 0 0 0 0 -0.00636033 -0.11873 -0.201294 22.3205 1.94917 -0.0096513 1.65765 2.53828 -3.7086 -0.264765 -0.273261 -0.142287 22.3206 1.93319 -0.00272067 1.63772 2.19906 -3.44454 -0.25774 -0.240113 -0.135703 
26.982 1 24 20.1025 2.0743 1.90604 4.6441 5.93107 -4.61375 0.202145 -0.514074 0.182597 0 0 0 0 0 0 0.0202876 -0.158506 -0.0441695 20.1117 2.08078 1.8993 4.95113 6.17782 -4.70352 0.203876 -0.526592 0.187679 20.0936 2.06 1.90645 4.33654 5.68419 -4.52402 0.200421 -0.501507 0.177506 
26.982 1 59 18.1184 4.2136 1.96549 6.73843 2.19158 -3.42151 0.129915 -0.753605 0.326207 0 0 0 0 0 0 -0.0261292 -0.0408614 -0.0857823 18.1286 4.21124 1.9565 6.95604 2.18952 -3.55215 0.111949 -0.764683 0.32817 18.1104 4.20908 1.96817 6.5205 2.1932 -3.29076 0.147938 -0.742541 0.324256 
26.982 1 61 20.2242 3.89879 -0.0519899 -1.39114 5.5403 1.61682 -0.120235 0.661619 0.0159039 0 0 0 0 0 0 -0.00366751 0.00132526 -0.270073 20.2246 3.89946 -0.0485778 -1.40478 5.76257 1.85425 -0.130168 0.676694 0.00892797 20.2237 3.89112 -0.0624482 -1.37783 5.31793 1.37935 -0.110268 0.646556 0.0229032 
26.982 1 63 22.1663 3.97344 1.98006 0.443762 1.94833 -4.95782 0.0229942 -0.0178103 0.179089 0 0 0 0 0 0 0.00435736 -0.018441 -0.0784012 22.1649 3.97968 1.968 0.444641 2.2855 -5.23453 0.0328605 -0.013467 0.185672 22.1657 3.96024 1.98583 0.443214 1.61133 -4.68095 0.0131052 -0.0221297 0.172495 
26.982 1 222 22.3673 2.02653 4.00453 -1.52121 -1.02389 2.87043 -0.432357 -0.155635 0.00148965 0 0 0 0 0 0 -0.0458954 -0.143028 -0.0556505 22.3617 2.02312 4.00364 -1.72228 -1.08476 2.94451 -0.436233 -0.166557 0.00594118 22.3707 2.02217 3.99976 -1.32007 -0.962883 2.7962 -0.428499 -0.144674 -0.00296867 
26.982 1 261 20.1328 3.88735 3.9241 3.6181 3.04049 1.03372 0.259256 0.256766 0.245818 0 0 0 0 0 0 0.00113089 -0.0379127 -0.00863576 20.1394 3.89208 3.9222 3.82627 3.35203 1.13808 0.26023 0.263464 0.257617 20.1264 3.87563 3.92035 3.40972 2.72852 0.929246 0.258287 0.25007 0.234001 
26.982 1 25 24.3132 -0.206198 -0.0547988 -4.02763 -2.75964 -0.504297 -0.00567843 0.998993 -0.662545 0 0 0 0 0 0 -0.0165857 -0.185906 -0.1294 24.3089 -0.212776 -0.0529035 -4.10625 -2.70148 -0.415553 -0.0102818 1.01457 -0.675212 24.3132 -0.208286 -0.0637574 -3.94925 -2.81775 -0.593092 -0.00109494 0.983443 -0.649896 
26.982 1 26 26.2758 1.9048 -0.0444683 -2.34391 3.5191 -0.760357 -0.255852 0.445827 -0.0173436 0 0 0 0 0 0 0.0481325 -0.107713 -0.231952 26.27 1.90792 -0.0513983 -2.47823 3.88635 -0.857656 -0.258241 0.466939 -0.0175644 26.2753 1.89385 -0.0445395 -2.21005 3.15173 -0.662112 -0.253507 0.424727 -0.0171211 
26.982 1 27 26.3685 -0.148258 2.00324 -4.14403 -4.82767 0.796099 0.183124 0.504973 0.108206 0 0 0 0 0 0 0.078996 -0.237223 -0.0785253 26.3567 -0.161153 2.00095 -4.36165 -4.98142 0.888645 0.192281 0.52421 0.116943 26.3739 -0.143975 1.9992 -3.92661 -4.67284 0.703719 0.173949 0.485748 0.0994877 
26.982 1 28 24.4133 1.95406 2.07505 2.29216 -2.60828 -2.94593 -0.072913 -0.240124 -0.34364 0 0 0 0 0 0 -0.0316137 -0.137074 -0.0884831 24.4069 1.95174 2.06739 2.17935 -2.56171 -3.16947 -0.0735612 -0.236869 -0.357766 24.4155 1.9486 2.07642 2.40523 -2.65465 -2.72205 -0.0723114 -0.24334 -0.329515 
26.982 1 65 24.0574 3.90487 0.0213971 0.110185 -2.8982 -6.22093 0.642301 0.488946 -0.51452 0 0 0 0 0 0 0.0264749 0.0150625 -0.279048 24.0536 3.89915 0.0114362 0.199924 -2.91642 -6.5223 0.674346 0.500494 -0.53469 24.0572 3.90366 0.0243814 0.0204034 -2.87981 -5.91889 0.610199 0.477431 -0.49434 
26.982 1 67 26.1708 4.11944 1.87035 -1.1377 2.67169 -1.83627 0.495779 -0.317892 0.0426695 0 0 0 0 0 0 0.0298826 -0.0195919 -0.103739 26.1678 4.12001 1.86464 -1.01613 2.72245 -1.95918 0.515789 -0.331736 0.0367766 26.1677 4.11197 1.86972 -1.25927 2.62134 -1.71226 0.475735 -0.304011 0.0485973 
26.982 1 225 24.4361 0.0545924 4.16033 1.72683 -1.08449 -2.48562 -0.122836 -0.390833 -0.523401 0 0 0 0 0 0 -0.0311731 -0.201139 -0.129016 24.4351 0.047397 4.15773 1.75992 -1.30084 -2.54951 -0.132512 -0.41276 -0.534405 24.4328 0.0531979 4.15733 1.69382 -0.867285 -2.42214 -0.113162 -0.368878 -0.512385 
26.982 1 226 26.4639 1.92314 4.04565 -2.68009 -2.70841 2.13716 0.147515 0.33831 0.0240684 0 0 0 0 0 0 0.0600741 -0.109185 -0.0392221 26.4506 1.91462 4.04942 -2.92025 -2.78157 2.33407 0.158414 0.352764 0.0191108 26.4707 1.92392 4.03625 -2.43964 -2.63428 1.94024 0.136609 0.323882 0.0290487 
26.982 1 265 24.3907 3.94558 3.91214 1.22787 -2.00787 -0.893218 -0.282625 0.206387 0.555642 0 0 0 0 0 0 -0.00399203 -0.0114682 -0.00101436 24.3862 3.94379 3.90563 1.14819 -1.87986 -0.931524 -0.281738 0.220141 0.56957 24.3909 3.94045 3.91302 1.30826 -2.13548 -0.854712 -0.283542 0.192665 0.541701 
26.982 1 30 30.4956 2.00317 -0.0565022 -4.20912 6.01287 -5.98142 -0.387891 0.21544 -0.37894 0 0 0 0 0 0 0.0265981 -0.17729 -0.201846 30.4887 2.00336 -0.0651681 -4.32736 6.12679 -6.20898 -0.392403 0.208938 -0.390759 30.4919 1.99518 -0.0548194 -4.09162 5.8995 -5.75255 -0.383385 0.221976 -0.367082 
26.982 1 32 28.3695 2.09502 1.95823 -0.922331 2.51102 -0.806294 -0.288483 -0.331568 0.216672 0 0 0 0 0 0 0.0453076 -0.197992 -0.0833513 28.3674 2.09423 1.95236 -0.929538 2.54625 -0.847875 -0.30413 -0.351233 0.224754 28.3631 2.08806 1.9578 -0.91536 2.47629 -0.763477 -0.27284 -0.311887 0.208646 
26.982 1 69 28.1797 3.99609 -0.1092 2.46315 1.43074 1.99131 0.338205 0.196773 -0.00949254 0 0 0 0 0 0 0.0119542 -0.00611182 -0.264029 28.1761 3.99279 -0.114679 2.49862 1.49384 1.90589 0.342553 0.20365 -0.0142479 28.1749 3.99248 -0.110757 2.42752 1.36816 2.07795 0.333858 0.189924 -0.00470945 
26.982 1 71 30.2913 3.97625 1.93083 -1.77099 0.152682 -1.35882 -0.116922 0.104385 0.17629 0 0 0 0 0 0 0.0154547 -0.0468841 -0.109601 30.2883 3.97228 1.92556 -1.7676 0.146488 -1.45946 -0.122011 0.107679 0.170164 30.2838 3.97329 1.92978 -1.77456 0.159242 -1.25683 -0.111802 0.101123 0.182484 
26.982 1 230 30.3795 2.02475 4.03929 4.04066 0.457501 -0.719222 -0.00267146 0.060283 0.191932 0 0 0 0 0 0 -0.00239633 -0.20121 -0.0686418 30.3827 2.01642 4.03754 4.28291 0.25153 -0.625316 -0.00749503 0.0422782 0.197299 30.3658 2.02533 4.03546 3.79821 0.664359 -0.812626 0.00218474 0.0783407 0.186602 
26.982 1 269 28.3516 4.14334 4.05615 -3.60499 1.43707 0.622869 -0.315241 -0.726139 0.0363474 0 0 0 0 0 0 -0.0047918 -0.0564344 -0.0196614 28.3447 4.14244 4.05438 -3.76823 1.36593 0.610965 -0.329783 -0.749311 0.0311156 28.3501 4.13735 4.05231 -3.44166 1.50848 0.635121 -0.300674 -0.702933 0.0416045 
26.982 1 35 34.4068 0.0434605 1.9695 -6.54772 0.394396 -0.952487 -0.0281625 -0.00229188 -0.369111 0 0 0 0 0 0 -0.0289787 -0.189518 -0.171193 34.3897 0.0410107 1.96878 -6.87931 0.459867 -0.948365 -0.0328342 -0.000349479 -0.386405 34.409 0.0373232 1.9639 -6.21627 0.33006 -0.955805 -0.0234852 -0.00418221 -0.351758 
26.982 1 36 32.3963 2.11965 2.06059 6.53278 2.05218 -0.391088 -0.0228779 -0.413238 -0.256349 0 0 0 0 0 0 0.0111975 -0.19655 -0.141235 32.4017 2.11242 2.05509 6.91755 1.80604 -0.509769 -0.0175403 -0.439764 -0.267542 32.3783 2.11915 2.05982 6.14751 2.29914 -0.271022 -0.0282098 -0.386649 -0.245069 
26.982 1 73 32.2528 4.16829 0.0250468 0.473267 -9.19201 -1.89605 0.738287 -0.300246 -0.347092 0 0 0 0 0 0 0.0973164 -0.0236668 -0.268585 32.2464 4.15045 0.0196999 0.541759 -9.75161 -2.01778 0.748894 -0.318933 -0.358885 32.2465 4.17935 0.0233973 0.404462 -8.6315 -1.77329 0.727659 -0.281537 -0.335239 
26.982 1 75 34.4161 4.00768 2.08605 -0.410613 0.42682 3.0884 0.00479249 0.202679 -0.541343 0 0 0 0 0 0 0.0372016 -0.0339148 -0.222063 34.4106 3.99749 2.08328 -0.336161 0.243542 2.98936 0.00977961 0.206518 -0.561258 34.4068 4.01096 2.0825 -0.485696 0.610596 3.18857 -0.000261392 0.198832 -0.521335 
26.982 1 234 34.4156 2.09108 4.00213 3.39199 -0.677632 -4.38879 -0.0764827 -0.189887 -0.0937313 0 0 0 0 0 0 -0.0243655 -0.114971 -0.0888632 34.4167 2.08276 3.99413 3.66329 -0.883038 -4.58565 -0.070092 -0.201968 -0.0991908 34.3999 2.09168 4.00454 3.12015 -0.471357 -4.19122 -0.0829157 -0.177753 -0.0882493 
26.982 1 273 32.4056 4.03383 4.03263 -2.18723 0.375922 0.510658 0.195454 0.0311172 0.00190998 0 0 0 0 0 0 0.00859332 -0.040363 -0.0418994 32.3988 4.02717 4.02921 -2.1839 0.296235 0.484871 0.199529 0.0317586 0.00200915 32.3996 4.03358 4.03044 -2.19111 0.455584 0.537 0.191374 0.030464 0.00183675 
26.982 1 4 40.5299 1.99755 2.11347 2.26511 6.23375 -0.871404 0.122502 -0.170606 -0.332344 0 0 0 0 0 0 -0.0635984 -0.184638 -0.129822 40.5254 2.00625 2.11198 2.50164 6.63598 -0.854755 0.127174 -0.168186 -0.338941 40.5134 1.981 2.10868 2.02807 5.83091 -0.887193 0.117825 -0.173055 -0.325679 
26.982 1 40 36.4621 1.91745 2.03957 -4.56332 -0.111015 7.74116 0.000160402 0.35953 -0.522926 0 0 0 0 0 0 0.0398344 -0.112117 -0.244021 36.4506 1.91456 2.04324 -4.62703 -0.0641345 7.82033 0.0043464 0.361553 -0.543622 36.4568 1.91256 2.02954 -4.49971 -0.157746 7.66327 -0.00408047 0.357501 -0.502142 
26.982 1 79 38.4084 4.11285 1.99868 -0.265967 -3.26152 -4.04536 0.655691 -0.243307 -0.070146 0 0 0 0 0 0 -0.0421876 -0.0820761 -0.176854 38.4021 4.10646 1.98937 -0.10202 -3.30115 -4.28915 0.665867 -0.240296 -0.0808953 38.3956 4.11238 2.0017 -0.430869 -3.2223 -3.80035 0.645468 -0.246343 -0.0593127 
26.982 1 237 36.4622 0.0248549 3.97928 -0.364074 -4.03645 -2.26077 0.297938 -0.264595 0.148987 0 0 0 0 0 0 0.0452481 -0.185893 -0.167872 36.4486 0.0183415 3.97294 -0.455817 -4.16625 -2.35855 0.311984 -0.269981 0.15035 36.459 0.0227983 3.98 -0.272175 -3.90545 -2.16279 0.283859 -0.259173 0.147627 
26.982 1 238 38.3872 1.93657 4.01064 -0.951262 -1.98419 2.7474 0.345007 0.209791 0.157088 0 0 0 0 0 0 0.0425171 -0.135441 -0.110191 38.3775 1.93259 4.00769 -0.921884 -1.98709 2.73247 0.354676 0.210517 0.155347 38.378 1.93276 4.00796 -0.981072 -1.98142 2.76268 0.335297 0.209062 0.158848 
26.982 1 277 36.4229 4.17275 3.98506 1.83089 2.7114 2.24672 0.266516 -0.676375 0.232974 0 0 0 0 0 0 0.0208109 -0.0419726 -0.0643334 36.4145 4.1673 3.97764 1.93075 2.55899 2.11542 0.288085 -0.692078 0.233651 36.4145 4.1713 3.98684 1.73024 2.86364 2.37849 0.244864 -0.6607 0.232346 
26.982 1 42 1.96312 6.01627 -0.151526 -6.69387 0.552161 -2.06352 -0.25805 0.182856 0.242842 0 0 0 0 0 0 -0.0560799 -0.0132094 -0.197731 1.96502 6.00822 -0.160677 -6.9744 0.428862 -2.22352 -0.267216 0.186646 0.251535 1.98012 6.01827 -0.149425 -6.4129 0.676386 -1.90315 -0.248844 0.179118 0.23416 
26.982 1 48 4.09749 5.9664 1.97844 3.34448 -1.64482 0.735737 -0.456628 0.198005 -0.100654 0 0 0 0 0 0 -0.0654348 -0.02111 -0.131997 4.1086 5.95875 1.97477 3.35261 -1.76645 0.685443 -0.481369 0.200047 -0.108207 4.10328 5.96802 1.97578 3.33725 -1.52168 0.786499 -0.431855 0.196033 -0.0930574 
26.982 1 81 -0.0933316 8.08365 -0.103313 -0.691606 2.87847 5.16513 0.0718187 -0.177968 0.279407 0 0 0 0 0 0 -0.120416 -0.00474605 -0.14184 -0.0811706 8.07678 -0.105464 -0.681275 2.69665 5.28293 0.065787 -0.191249 0.288269 -0.0843995 8.08532 -0.10823 -0.701889 3.06085 5.04762 0.0779015 -0.164663 0.270523 
26.982 1 83 2.02074 8.11436 2.07743 2.43801 3.29833 -0.839337 -0.132488 -0.511737 -0.171134 0 0 0 0 0 0 -0.128201 -0.014638 -0.105278 2.02847 8.11288 2.06912 2.33746 3.29055 -1.06123 -0.143566 -0.518739 -0.178568 2.03203 8.11065 2.07945 2.53926 3.30659 -0.616978 -0.121346 -0.504727 -0.163676 
26.982 1 85 3.88388 8.16981 -0.096954 -0.800443 -2.16336 -0.512678 0.40937 -0.943165 0.16646 0 0 0 0 0 0 -0.0277797 0.0436312 -0.259228 3.8877 8.16888 -0.105343 -0.961408 -2.27311 -0.686045 0.407343 -0.975095 0.163511 3.89701 8.16558 -0.0955909 -0.638682 -2.0535 -0.338507 0.411455 -0.911199 0.169421 
26.982 1 242 1.97781 6.07388 3.98185 -0.703915 -2.70556 1.54288 0.206508 -0.219128 0.245115 0 0 0 0 0 0 -0.140668 0.0155981 -0.0814875 1.97963 6.06211 3.98139 -0.972358 -3.03629 1.59117 0.202136 -0.227594 0.23653 1.99496 6.07964 3.97668 -0.435046 -2.37399 1.49536 0.210931 -0.210644 0.253786 
26.982 1 285 4.17169 7.98591 4.15524 3.31769 0.0436094 1.09742 -0.513791 0.0541328 -0.426481 0 0 0 0 0 0 -0.0558189 0.00416412 -0.0414117 4.18473 7.98244 4.15263 3.36032 0.048167 1.03042 -0.539706 0.0582544 -0.440185 4.17547 7.98416 4.15225 3.27569 0.0391967 1.16465 -0.487828 0.0500058 -0.412719 
26.982 1 46 6.03821 6.09191 -0.0738293 -0.187731 -1.80524 1.42062 -0.0785685 -0.469851 -0.00130781 0 0 0 0 0 0 -0.0505372 -0.0165061 -0.274433 6.04034 6.08562 -0.0738162 -0.401254 -1.9978 1.53376 -0.0915741 -0.486426 -0.00320232 6.05086 6.09219 -0.0808788 0.0269476 -1.61175 1.30787 -0.0655085 -0.453214 0.000608509 
26.982 1 52 8.0535 6.03027 1.92091 1.06008 -2.41357 -3.73523 -0.122185 -0.473174 0.303822 0 0 0 0 0 0 0.00130609 0.00318169 -0.0922142 8.05544 6.0237 1.91969 0.910907 -2.64943 -3.60699 -0.120484 -0.49315 0.316229 8.0643 6.03081 1.9158 1.2099 -2.1768 -3.86402 -0.123897 -0.453141 0.2914 
26.982 1 87 6.08455 7.88819 1.9738 -0.761926 -3.24771 0.417863 -0.470045 0.667174 0.160278 0 0 0 0 0 0 -0.0292666 0.0508374 -0.128852 6.09188 7.88228 1.97309 -0.88093 -3.30608 0.517255 -0.492861 0.677186 0.160987 6.092 7.88886 1.96819 -0.64235 -3.18932 0.318591 -0.447204 0.657199 0.159569 
26.982 1 89 7.94451 8.0876 -0.00902834 -7.34293 4.27606 -2.60356 0.116727 0.0815011 -0.392047 0 0 0 0 0 0 0.0141594 0.0823373 -0.280158 7.94503 8.09076 -0.010373 -7.59355 4.44616 -2.60826 0.113497 0.0835012 -0.402544 7.95667 8.07921 -0.0146876 -7.0919 4.1056 -2.59799 0.119947 0.0795343 -0.381519 
26.982 1 246 6.03251 5.8796 4.08789 3.57559 2.05273 -1.89939 -0.130986 0.0645308 -0.0877943 0 0 0 0 0 0 -0.00671102 -0.0119365 -0.0320923 6.04181 5.87964 4.07979 3.66982 2.12146 -2.14909 -0.128125 0.0568173 -0.102804 6.03808 5.87346 4.0904 3.48173 1.98529 -1.64949 -0.133859 0.0723088 -0.0727379 
26.982 1 289 7.79056 7.99547 4.08733 -3.59516 -1.05769 -0.901859 0.944583 0.0755095 -0.268135 0 0 0 0 0 0 0.0388035 0.00775797 -0.0270094 7.79199 7.9917 4.08219 -3.5481 -1.11213 -0.989666 0.978228 0.0731548 -0.271734 7.8019 7.99403 4.08686 -3.64188 -1.00291 -0.814168 0.91091 0.0779036 -0.264529 
26.982 1 92 8.01245 10.1938 2.10175 -1.20078 -5.29351 -1.36232 -0.350881 -0.4577 -0.257368 0 0 0 0 0 0 -0.00325898 -0.0142314 -0.157206 8.01903 10.188 2.09159 -1.3128 -5.44621 -1.55821 -0.373674 -0.463169 -0.252714 8.01859 10.1953 2.10563 -1.0883 -5.14167 -1.16607 -0.328099 -0.452246 -0.262025 
26.982 1 286 5.98953 10.0646 4.0984 4.80085 -5.49957 2.9302 0.23946 0.275034 -0.44316 0 0 0 0 0 0 -0.005526 0.0130317 -0.0506481 5.99939 10.053 4.09854 4.91101 -5.75694 2.93098 0.238277 0.286476 -0.46194 5.99457 10.0718 4.09265 4.69146 -5.24269 2.93003 0.240685 0.263558 -0.424347 
26.982 1 50 9.99022 6.00915 -0.0876154 -1.04562 -1.556 0.820866 0.295919 -0.0355465 -0.0767488 0 0 0 0 0 0 0.0521723 0.0608255 -0.276154 9.9934 6.0014 -0.0920924 -1.00486 -1.75132 0.773399 0.317531 -0.0408079 -0.0810966 9.99767 6.01084 -0.0901749 -1.08637 -1.36037 0.868879 0.274269 -0.0302631 -0.0723953 
26.982 1 56 12.1091 6.12039 1.83654 2.78838 -2.8045 2.62625 -0.105496 -0.268059 0.364134 0 0 0 0 0 0 0.0133842 0.0465829 -0.148589 12.1144 6.11385 1.8402 2.83163 -2.97014 2.87696 -0.10264 -0.276812 0.371282 12.1124 6.12091 1.82651 2.7452 -2.6383 2.37551 -0.108368 -0.259279 0.356992 
26.982 1 91 9.82584 8.07423 1.77797 2.10386 1.31472 6.436 0.72124 -0.189491 0.926501 0 0 0 0 0 0 0.069015 0.0577281 -0.166657 9.83095 8.07621 1.7826 2.2377 1.39427 6.82461 0.74228 -0.199451 0.946969 9.83149 8.06703 1.76694 1.97015 1.23511 6.04739 0.700162 -0.179483 0.906026 
26.982 1 250 10.0825 6.08442 3.85813 -3.01432 -5.30861 -4.03071 -0.464987 -0.194473 0.365015 0 0 0 0 0 0 0.00867936 0.0108258 -0.0141428 10.0837 6.07285 3.85628 -3.16649 -5.61472 -3.97757 -0.462 -0.197177 0.371994 10.092 6.09 3.85434 -2.86192 -5.00162 -4.08432 -0.467994 -0.191719 0.358016 
26.982 1 293 11.8983 8.02584 3.97937 0.28348 -2.18042 0.305568 0.539478 0.141391 -0.140695 0 0 0 0 0 0 0.0181506 0.0121445 -0.0493101 11.9039 8.02383 3.98045 0.37886 -2.17377 0.429942 0.55678 0.139418 -0.134238 11.9013 8.02265 3.97263 0.18803 -2.18708 0.180809 0.522177 0.143422 -0.147153 
26.982 1 54 14.2764 5.98877 -0.175752 -1.59143 2.91263 -6.76089 -0.380152 -0.0448834 0.326077 0 0 0 0 0 0 -0.0370402 0.033932 -0.271884 14.2765 5.98977 -0.188632 -1.72425 3.03948 -6.98395 -0.384876 -0.0403061 0.333237 14.2825 5.98169 -0.169862 -1.45839 2.78644 -6.53682 -0.375402 -0.0494354 0.318931 
26.982 1 60 16.1442 6.03224 2.01499 2.60647 -0.665318 1.97715 0.0856145 0.139855 -0.0164966 0 0 0 0 0 0 -0.00678404 0.0209086 -0.112732 16.1473 6.02938 2.01328 2.64199 -0.606705 1.99067 0.0862862 0.147099 -0.0268017 16.1455 6.02905 2.01036 2.57087 -0.723521 1.96372 0.085003 0.132628 -0.00616878 
26.982 1 95 14.2181 8.05996 2.11485 0.904377 3.21574 2.17384 -0.250094 0.00817322 -0.258693 0 0 0 0 0 0 -0.0370887 0.058218 -0.169428 14.2203 8.0618 2.10852 0.908537 3.34822 2.07025 -0.244648 0.0098078 -0.259765 14.2223 8.05289 2.11487 0.900357 3.08313 2.27754 -0.255521 0.0065738 -0.25759 
26.982 1 97 16.1422 8.00056 -0.0442063 -2.35087 -3.70556 4.0521 0.110265 0.283219 0.0418462 0 0 0 0 0 0 8.81613e-05 0.103748 -0.267046 16.1399 7.99507 -0.0433256 -2.47173 -3.7769 4.20817 0.10647 0.288068 0.0429199 16.1487 8.00085 -0.0521351 -2.22947 -3.63431 3.89644 0.11412 0.278389 0.0407722 
26.982 1 254 14.046 5.94008 3.9422 3.57794 -4.82898 0.580518 0.0512107 0.165854 0.371695 0 0 0 0 0 0 -0.00925049 -0.00578843 -0.0187422 14.0537 5.93179 3.9428 3.70456 -4.99772 0.745696 0.0470386 0.160013 0.385684 14.0447 5.94233 3.93592 3.45158 -4.65958 0.414525 0.0554193 0.171719 0.357721 
26.982 1 297 16.1272 8.08901 4.0459 -3.57667 1.80985 2.11025 0.212558 -0.339766 -0.00538876 0 0 0 0 0 0 -0.0110152 0.00447192 -0.0402323 16.1294 8.08935 4.04867 -3.60882 1.84402 2.28296 0.202939 -0.350646 -0.0106541 16.1292 8.08347 4.03748 -3.54432 1.77594 1.93722 0.222225 -0.328855 -0.00010148 
26.982 1 58 18.2522 6.01019 -0.0482809 2.26134 5.14294 1.93352 -0.175072 0.437888 -0.173391 0 0 0 0 0 0 0.0138316 0.0749997 -0.278054 18.2525 6.00976 -0.0466234 2.1457 5.34263 2.08532 -0.197953 0.452261 -0.183222 18.2541 6.00454 -0.0569902 2.37682 4.94389 1.78174 -0.152127 0.423536 -0.163561 
26.982 1 62 22.0485 6.04668 -0.235104 4.39419 -1.99106 3.48996 0.296449 -0.335111 0.757083 0 0 0 0 0 0 0.00189705 0.104389 -0.275697 22.0539 6.03937 -0.235535 4.59037 -2.1704 3.66199 0.304809 -0.349118 0.769424 22.0413 6.04795 -0.241766 4.19806 -1.81103 3.318 0.28808 -0.321082 0.744745 
26.982 1 64 20.2152 5.96909 1.9935 2.70865 0.228352 5.16735 0.0511749 0.420991 -0.196792 0 0 0 0 0 0 0.00356516 0.0692987 -0.139929 20.2202 5.96072 1.9981 2.85174 0.171215 5.33949 0.0438378 0.44214 -0.212805 20.2102 5.9714 1.98253 2.5655 0.28614 4.99531 0.058543 0.399853 -0.180784 
26.982 1 99 18.2215 8.13354 2.05426 0.517165 -1.45303 -0.479797 0.135782 -0.662612 -0.34768 0 0 0 0 0 0 0.036029 0.0548474 -0.18708 18.222 8.12894 2.04718 0.534225 -1.59256 -0.677704 0.137295 -0.675288 -0.355153 18.2231 8.13298 2.055 0.500178 -1.31288 -0.28201 0.134335 -0.649923 -0.34018 
26.982 1 103 22.3887 8.00459 1.8912 -3.68837 0.862906 -0.198374 -0.766873 0.353173 -0.165098 0 0 0 0 0 0 -0.0333565 0.0678187 -0.231822 22.3786 7.99524 1.89413 -4.15953 0.683585 -0.0852576 -0.795866 0.359171 -0.181176 22.3967 8.00876 1.88191 -3.21684 1.04335 -0.311336 -0.737894 0.347167 -0.149031 
26.982 1 258 18.2392 6.05166 4.11898 -2.46364 -1.47531 2.28348 -0.323568 0.0017266 -0.386325 0 0 0 0 0 0 -0.00888915 0.00774159 -0.0186557 18.2461 6.04463 4.11629 -2.32972 -1.6054 2.25545 -0.336395 0.000131096 -0.391083 18.2344 6.05265 4.11602 -2.59796 -1.34485 2.31108 -0.310698 0.00333638 -0.381573 
26.982 1 262 22.2562 6.17726 3.91404 -0.656052 -2.7226 -1.83939 0.143886 -0.895071 0.220492 0 0 0 0 0 0 -0.0015416 -0.00562891 -0.0176312 22.2464 6.17393 3.90771 -0.963306 -2.86563 -1.89173 0.142321 -0.917345 0.23417 22.264 6.1746 3.91472 -0.34803 -2.57903 -1.78715 0.145436 -0.872792 0.206765 
26.982 1 301 20.3147 8.00786 3.98605 4.23746 -8.21389 1.04817 -0.753488 0.159359 -0.564572 0 0 0 0 0 0 -0.0131274 0.0158293 -0.0702742 20.3213 7.99122 3.98669 4.37545 -8.68398 1.09214 -0.771855 0.159693 -0.578844 20.3083 8.01938 3.97973 4.09971 -7.74228 1.00395 -0.735127 0.15904 -0.550329 