ITEM: TIMESTEP
17275
ITEM: NUMBER OF ATOMS
4000
ITEM: BOX BOUNDS pp pp pp
-3.5852 44.0852
1.41796 39.082
0.841681 39.6583
ITEM: ATOMS mass type id x y z vx vy vz fx fy fz xrad yrad zrad vxrad vyrad vzrad fxrad fyrad fzrad xub yub zub vxub vyub vzub fxub fyub fzub xlb ylb zlb vxlb vylb vzlb fxlb fylb fzlb 
26.982 1 43 -2.55577 5.52628 3.0741 -3.20826 1.42268 -4.38072 0.422326 0.609296 -0.833355 0 0 0 0 0 0 -0.226577 -0.00659536 -0.133389 -17.6265 12.261 28.4633 -2.42055 6.3689 1.46595 0.422239 0.633024 -0.866066 18.8647 -3.3128 -23.7451 -4.05085 -3.49855 -10.2547 0.422345 0.585565 -0.800585 
26.982 1 202 -2.31444 3.61608 4.84605 3.3045 -0.901486 -1.8405 -0.22192 -0.242199 0.42853 0 0 0 0 0 0 -0.162415 -0.079042 -0.0801553 7.61225 -13.9058 14.6834 5.52258 0.744102 8.30546 -0.216413 -0.261439 0.450209 -5.91611 18.8034 -6.09665 0.996822 -2.48252 -12.0468 -0.227584 -0.222674 0.406741 
26.982 1 245 -0.297879 5.6325 4.72539 -7.33057 -5.15247 -1.31751 0.17348 0.609503 0.175093 0 0 0 0 0 0 -0.0315753 -0.000390772 -0.0591988 -12.2851 17.154 12.3298 -13.0575 -0.084108 6.55665 0.182888 0.620704 0.169968 17.4 -7.82075 -4.08185 -1.64668 -10.1062 -9.26457 0.163964 0.59848 0.180182 
26.982 1 8 -0.192994 3.57843 3.0064 -5.34329 2.33303 -1.27939 0.0004551 -0.0705416 -0.679641 0 0 0 0 0 0 -0.00745153 -0.115975 -0.175032 -5.35522 23.1007 12.8275 -4.99092 4.04423 4.75789 0.0171961 -0.0916321 -0.694022 10.6435 -18.3563 -8.20801 -5.75407 0.691702 -7.38824 -0.0164752 -0.0492429 -0.665356 
26.982 1 45 -0.182767 5.85137 1.44881 0.807381 0.949177 -1.76465 0.25728 -0.117225 0.0604364 0 0 0 0 0 0 0.0169467 0.0192353 -0.272094 -5.25213 8.84782 53.861 -2.45874 2.39141 1.75642 0.265064 -0.118577 0.0476406 10.6493 0.946314 28.843 4.10746 -0.429009 -5.31729 0.249498 -0.115784 0.0732031 
26.982 1 205 -0.265295 1.85094 4.95848 -6.3049 2.55061 -1.36622 0.249777 -0.453813 0.408791 0 0 0 0 0 0 -0.0114193 -0.127126 -0.104159 2.37237 32.2845 15.8607 5.31775 -3.04753 11.0202 0.274763 -0.488971 0.429774 2.65853 50.0307 -7.09966 -18.0221 8.18509 -13.7964 0.224602 -0.418437 0.387655 
26.982 1 3037 39.8934 19.2022 20.0168 6.80517 3.27435 2.63165 -0.122798 0.267212 0.186602 0 0 0 0 0 0 0.0262653 -0.0114593 -6.85933e-05 29.9139 23.7892 21.8252 5.34042 4.32946 7.40198 -0.121688 0.283387 0.196033 44.267 15.0518 18.71 8.27497 2.31576 -2.10173 -0.123983 0.251123 0.177141 
26.982 1 206 1.97303 3.87962 4.91686 -1.43109 0.77365 7.72034 -0.142159 -0.683718 -0.353433 0 0 0 0 0 0 0.0120458 -0.0814696 -0.0480832 14.15 -17.7422 43.7161 5.34499 -10.6705 24.5158 -0.131926 -0.740859 -0.345134 -5.27189 23.3581 -34.987 -8.25539 12.3731 -9.12665 -0.152529 -0.626291 -0.361817 
26.982 1 12 4.53611 4.68926 3.44379 -3.24992 0.888818 3.23201 0.0717427 -0.974929 0.286106 0 0 0 0 0 0 -0.000560939 -0.0682931 -0.151902 9.18104 -2.51591 -7.81207 0.209928 -11.9979 6.46883 0.0802862 -1.03122 0.274979 4.01174 9.8752 13.3576 -6.75207 13.9563 -0.0742444 0.0630739 -0.918281 0.297154 
26.982 1 9 4.75212 2.41798 1.63726 1.51505 0.635665 1.66391 -0.203257 -0.119169 0.763974 0 0 0 0 0 0 -0.00182484 -0.132678 -0.197203 4.05309 13.3326 13.8679 8.17864 -7.99566 12.7534 -0.18955 -0.141509 0.801229 9.57519 -11.0654 -11.9667 -5.218 9.37357 -9.5011 -0.217058 -0.0966906 0.726612 
26.982 1 6 2.28984 4.20698 1.89445 -7.66613 -0.282882 3.06939 0.0956846 -0.223576 -0.3462 0 0 0 0 0 0 0.01722 -0.0474411 -0.25885 -5.23171 -19.9576 25.2084 -8.11786 -6.80198 9.25198 0.100238 -0.249977 -0.342288 14.6592 26.1285 -22.8554 -7.27487 6.3491 -3.16649 0.0910147 -0.196916 -0.35017 
26.982 1 1000 40.0565 17.3617 18.1025 0.992032 -0.926138 -1.97322 0.488148 -0.774399 -0.126945 0 0 0 0 0 0 0.03025 0.0065124 -0.0131665 28.3507 29.9815 25.9326 1.71847 0.0326416 -0.012036 0.503776 -0.781091 -0.133112 46.1319 4.71502 10.4962 0.261896 -1.78312 -3.9021 0.472458 -0.767628 -0.120836 
26.982 1 7 2.12923 1.47575 2.94361 -1.03956 -0.47067 2.62969 0.0952161 0.693662 0.309961 0 0 0 0 0 0 0.00480481 -0.17739 -0.198115 11.1135 26.9066 14.9384 8.06201 -12.6392 16.8521 0.122239 0.686667 0.316109 -2.05384 54.7735 -10.3808 -10.242 11.7759 -11.6891 0.0680462 0.700757 0.303576 
26.982 1 209 6.00702 2.32311 4.62686 -5.63193 -4.42252 -3.27189 -0.228739 -0.272499 -0.993352 0 0 0 0 0 0 0.00653299 -0.113971 -0.145071 2.60541 0.762974 1.55336 -13.0045 -8.34102 4.20484 -0.231222 -0.290602 -1.0327 13.5273 1.44756 6.55813 1.74005 -0.363902 -10.729 -0.226329 -0.254174 -0.954134 
26.982 1 51 7.11357 5.32835 2.6029 0.135561 -0.846266 1.40706 -0.169868 0.150134 -0.269354 0 0 0 0 0 0 -0.014487 -0.0299077 -0.188388 -4.91771 4.75941 -25.2928 6.33817 -10.2576 -2.65275 -0.150733 0.128308 -0.282697 22.4878 4.15071 29.2591 -6.13379 8.72514 5.50015 -0.189141 0.172228 -0.256004 
26.982 1 210 6.66083 4.84161 5.32691 -0.92578 4.58373 7.0473 0.604034 -0.0981876 0.260441 0 0 0 0 0 0 0.00875605 -0.0668372 -0.0200975 -7.99861 -0.825537 14.9376 -8.6652 -5.88636 10.2146 0.622611 -0.118648 0.262331 24.7474 8.32524 -5.46712 6.8072 15.1827 3.90115 0.585349 -0.0773677 0.258572 
26.982 1 11 8.61788 2.57416 3.22483 2.21234 1.18674 -3.47853 -0.132897 0.109389 0.0291985 0 0 0 0 0 0 0.00656069 -0.182593 -0.162369 -4.93984 70.1431 -32.3047 -3.78423 2.56647 -9.61714 -0.165005 0.0906388 0.0280449 25.6722 13.8877 37.3979 8.20479 -0.0411438 2.68444 -0.100938 0.128228 0.0303243 
26.982 1 10 7.35904 3.25649 0.83002 -3.35067 0.781175 -4.2352 -0.41061 0.894046 0.013717 0 0 0 0 0 0 0.00414331 -0.0906024 -0.219221 22.5091 3.84777 -2.35951 3.5088 -1.82086 1.09363 -0.407447 0.904906 0.0203527 -4.32427 0.315074 2.70549 -10.2662 3.46768 -9.54633 -0.413902 0.88332 0.00700637 
26.982 1 253 9.35889 5.18662 4.23357 -2.11565 0.858058 1.08172 0.0473155 -0.221323 0.193637 0 0 0 0 0 0 -0.000180816 -0.047618 -0.053009 3.13945 1.47567 52.9236 -6.39235 -1.96637 2.12243 0.0435004 -0.246435 0.204359 18.4629 7.20017 -45.5864 2.17267 3.8389 0.0841324 0.0510619 -0.195994 0.183005 
26.982 1 16 11.3125 3.4026 2.62672 -2.44574 6.61283 -0.217853 -0.0852335 0.638034 0.652601 0 0 0 0 0 0 0.00728682 -0.127595 -0.20459 -7.44886 31.3723 -6.10857 -12.7506 7.88917 -6.21124 -0.0792438 0.653485 0.658234 33.0466 -26.8692 9.99303 7.93253 5.43821 5.83389 -0.0911726 0.62282 0.647082 
26.982 1 213 10.7363 2.12521 4.97518 -5.07223 -1.11884 -1.94386 0.318056 0.149307 -0.151311 0 0 0 0 0 0 -0.00775513 -0.11492 -0.114553 5.41924 2.13707 15.5658 -8.44812 -7.51283 -4.06528 0.312276 0.163462 -0.14325 18.986 -0.464181 -6.83558 -1.63982 5.38469 0.225447 0.323804 0.135312 -0.159265 
26.982 1 255 11.8103 5.68774 5.57353 -0.259303 3.69295 2.80173 0.0363607 -0.148349 -0.0296974 0 0 0 0 0 0 -0.016476 -0.0415659 -0.0322259 -7.4741 -0.993475 59.4285 -8.51313 -1.98679 12.8136 0.0199974 -0.176128 -0.0376099 33.3961 10.5236 -49.3336 8.06053 9.48794 -7.19673 0.0527171 -0.120397 -0.02174 
26.982 1 15 13.2262 1.87604 3.73268 -2.61517 -4.47284 3.24361 0.452792 0.70138 -0.312484 0 0 0 0 0 0 -0.0306192 -0.200179 -0.158872 -7.85954 42.8542 22.2662 -17.9062 -8.71291 10.7144 0.434983 0.710969 -0.310612 36.6306 39.4866 -15.9959 12.8064 -0.144771 -4.14049 0.470747 0.691811 -0.314223 
26.982 1 214 14.2194 3.93669 5.51106 3.2164 -3.28485 -8.76244 -0.240306 -0.262697 -0.205691 0 0 0 0 0 0 -0.0251458 -0.0959724 -0.0240404 16.7068 7.63918 20.0642 -5.551 -9.10116 -0.942955 -0.264117 -0.289228 -0.207912 14.0705 -1.98824 -10.2736 12.0916 2.62347 -16.5562 -0.216456 -0.23614 -0.203383 
26.982 1 20 16.3517 4.30045 3.7483 3.31361 -1.77578 -0.385857 0.51687 0.236124 0.776849 0 0 0 0 0 0 -0.00249545 -0.047612 -0.0676461 26.102 -19.1175 14.4896 0.385493 -7.06697 2.32745 0.523965 0.238992 0.782438 8.14622 25.5065 -8.23196 6.35773 3.56116 -3.06839 0.509712 0.23327 0.771355 
26.982 1 14 13.8337 4.5918 2.76064 3.75914 -4.06694 -7.70386 -0.193103 -0.111075 -0.299198 0 0 0 0 0 0 -0.0406631 -0.061369 -0.183246 -10.5833 37.9964 40.8817 -11.8953 -7.73719 -10.8756 -0.206526 -0.131596 -0.301719 40.6489 -31.0326 44.5607 19.559 -0.280942 -4.46775 -0.179638 -0.090366 -0.296613 
26.982 1 57 16.4653 5.64745 1.47336 3.16296 -1.4956 -4.34449 -1.12813 0.768388 -0.554713 0 0 0 0 0 0 -0.0423039 -0.0054182 -0.263954 22.4243 39.8714 -11.021 1.62538 4.25115 -6.7743 -1.1349 0.772796 -0.570702 12.0181 -30.508 12.6851 4.78878 -7.17485 -1.87638 -1.12156 0.764213 -0.538797 
26.982 1 17 15.646 2.69136 1.80554 5.40127 1.25087 0.852084 -0.496289 -0.511093 -0.193817 0 0 0 0 0 0 -0.0553893 -0.166862 -0.229738 24.8602 52.9953 28.6315 0.348084 0.321789 -5.00942 -0.511226 -0.518892 -0.217679 7.9367 31.2289 54.8639 10.61 2.29306 6.74771 -0.481273 -0.503319 -0.169902 
26.982 1 19 18.1028 2.08998 3.06662 1.22659 -2.72006 -5.9292 -0.0249927 -0.249681 -0.124315 0 0 0 0 0 0 0.0068498 -0.203181 -0.132492 32.9234 1.44781 16.8647 -2.74942 0.110453 -5.98834 -0.0181722 -0.237694 -0.155829 3.99538 0.153399 -11.9824 5.31655 -5.53083 -5.83763 -0.0317842 -0.261975 -0.0927814 
26.982 1 217 15.8459 1.69443 4.80837 -0.439632 4.69454 -4.81654 -0.0466799 0.251597 0.216502 0 0 0 0 0 0 -0.00848031 -0.172984 -0.121348 22.2876 43.9942 20.9554 -11.1003 4.35141 6.99969 -0.0540809 0.273598 0.221473 10.9435 38.0721 -12.572 10.3873 5.08608 -16.6137 -0.0390932 0.229473 0.211648 
26.982 1 218 18.8311 3.94389 5.31954 3.38751 -3.59798 1.83699 -0.28113 0.43403 -0.17899 0 0 0 0 0 0 0.0173351 -0.0630813 -0.0327087 -3.17095 -1.6272 7.0049 -2.96296 -1.96435 2.12659 -0.27094 0.457179 -0.215543 41.5516 7.3044 2.48036 9.798 -5.22473 1.55338 -0.291394 0.410774 -0.142389 
26.982 1 59 18.807 5.67902 3.05324 5.59587 -0.222401 2.99696 0.123088 0.474928 0.796255 0 0 0 0 0 0 0.0352351 -0.0137777 -0.0912486 31.8275 -11.9633 19.0582 9.97062 -0.724038 3.53521 0.156701 0.467752 0.803988 6.43467 21.2488 -14.1333 1.22532 0.23889 2.49846 0.0893611 0.482099 0.788605 
26.982 1 24 21.5335 4.55581 3.94587 -2.57482 1.34876 3.21762 -0.197905 -0.242386 -0.214882 0 0 0 0 0 0 -0.0175907 -0.0368598 -0.0955712 4.68512 23.5226 21.5878 -8.41549 10.5554 4.54902 -0.234141 -0.24017 -0.242927 38.3156 -16.5429 -14.9693 3.26754 -7.85237 1.90245 -0.161741 -0.244772 -0.186865 
26.982 1 221 20.2817 1.82269 4.67182 7.0324 6.41313 -1.69904 0.267646 0.157385 0.283418 0 0 0 0 0 0 0.0271053 -0.164021 -0.109553 -0.975718 42.2335 -10.5061 1.55732 13.1725 -2.2642 0.269961 0.189365 0.293401 41.524 40.1341 18.646 12.5151 -0.354464 -1.14406 0.265238 0.125122 0.273444 
26.982 1 23 22.1863 2.06252 2.62058 5.1051 -0.176818 -5.42867 -0.304108 0.0276938 0.277533 0 0 0 0 0 0 0.0501058 -0.192678 -0.135846 12.0032 69.6954 20.268 5.35157 9.1481 1.53532 -0.323105 0.0687763 0.281974 31.6923 13.0881 -16.2368 4.8445 -9.53708 -12.4146 -0.28511 -0.0136714 0.272922 
26.982 1 18 18.3067 3.99697 1.03693 -0.489359 -0.78655 3.47372 0.637442 -0.989879 -0.479674 0 0 0 0 0 0 0.0342939 -0.061919 -0.246034 28.7631 10.2974 2.71979 0.104275 -0.898513 5.1175 0.690929 -1.01295 -0.480894 8.51331 -4.48666 -1.93278 -0.995037 -0.649944 1.8658 0.584163 -0.966971 -0.478544 
26.982 1 61 20.8434 6.51921 1.30932 7.25059 3.52116 2.16494 -0.224167 -0.673574 0.147992 0 0 0 0 0 0 0.0384852 0.00693872 -0.248973 32.9246 -3.93193 -10.4579 13.6385 10.8592 4.80505 -0.219276 -0.689236 0.176042 8.74249 14.7572 11.7799 0.872297 -3.88987 -0.45037 -0.229067 -0.657994 0.11986 
26.982 1 63 24.1487 3.53879 3.31568 1.88402 7.77214 -2.37639 0.660518 0.396726 0.0308185 0 0 0 0 0 0 0.0546376 -0.115981 -0.150443 28.1126 31.5944 15.7063 -1.47689 17.5317 0.516027 0.674676 0.413254 0.0350842 19.4936 -26.5865 -10.3135 5.27566 -2.04916 -5.26528 0.646562 0.380057 0.0264489 
26.982 1 222 22.9432 2.44889 5.59644 -2.97993 -6.27923 1.26385 -0.0614847 -0.194075 -0.0882906 0 0 0 0 0 0 0.0320542 -0.257625 0.00951438 20.456 20.3216 12.8321 1.51443 -3.91779 5.62724 -0.0446857 -0.208038 -0.0807836 24.6673 -17.7028 -2.80305 -7.49578 -8.64727 -3.10007 -0.078285 -0.180225 -0.0959064 
26.982 1 28 26.6542 2.67071 2.42352 -1.5736 -4.53926 3.49335 -0.251853 -0.296599 0.0256088 0 0 0 0 0 0 -0.0183143 -0.173481 -0.205217 33.732 9.41604 25.1525 -1.55704 -4.02615 9.96199 -0.282134 -0.295071 0.0402893 18.228 -6.2915 -21.8276 -1.56989 -5.01861 -3.03884 -0.221322 -0.298231 0.0108396 
26.982 1 265 26.5275 4.74664 4.273 4.43799 1.93298 -1.92249 -0.307645 -0.422907 -0.323098 0 0 0 0 0 0 -0.0224317 -0.075104 -0.11801 30.5407 -23.298 6.13851 1.1367 -2.78683 -0.300361 -0.336796 -0.44698 -0.333721 21.1933 30.8066 1.19218 7.83854 6.70949 -3.52583 -0.278082 -0.398887 -0.31245 
26.982 1 263 24.2199 4.62595 5.99751 -1.70391 -0.816794 0.641006 0.355152 0.121496 0.315904 0 0 0 0 0 0 0.00959821 -0.0812495 -0.00357567 14.5857 19.9807 29.7793 -9.94439 5.09602 4.38758 0.357651 0.111725 0.323617 33.1508 -12.7541 -18.805 6.60694 -6.73359 -3.0894 0.352918 0.131311 0.308293 
26.982 1 228 26.2663 2.53504 6.39963 4.90896 10.7044 1.47161 -0.303949 0.345829 -0.625197 0 0 0 0 0 0 -0.0194476 -0.2677 -0.021984 46.5644 17.299 12.6859 4.31539 6.18635 4.51713 -0.343545 0.333647 -0.63987 4.58911 -14.5353 -0.913506 5.55303 15.2774 -1.54952 -0.264047 0.358121 -0.61062 
26.982 1 1025 24.7653 1.51972 18.8885 -4.1259 0.168779 3.06873 0.331972 -0.391143 -0.423214 0 0 0 0 0 0 0.0280027 -0.273202 -0.0433138 8.37464 55.9915 46.191 -12.3357 -1.38212 5.53323 0.335201 -0.400236 -0.435597 39.8659 25.623 -8.1728 4.18415 1.76878 0.642979 0.328837 -0.382025 -0.410811 
26.982 1 67 28.646 4.65792 2.36302 0.745459 -0.612701 -0.23665 -0.370933 0.113962 0.459577 0 0 0 0 0 0 -0.0040872 -0.0526131 -0.275974 26.9839 -9.82565 9.68905 -1.38546 -4.61346 -0.271648 -0.388093 0.109194 0.466337 28.3014 17.136 -6.28208 2.94808 3.46636 -0.155026 -0.353441 0.118664 0.452895 
26.982 1 226 28.5272 2.63627 4.53161 1.8375 2.69422 1.13882 -0.0587076 0.331516 -0.31683 0 0 0 0 0 0 -0.0191212 -0.180179 -0.151165 27.3368 -12.5912 20.2234 -2.67971 -0.281132 4.23644 -0.0818475 0.331725 -0.322471 27.7546 15.8197 -12.4328 6.43844 5.77716 -1.94598 -0.035249 0.33141 -0.311262 
26.982 1 32 30.6088 2.86669 2.59359 0.144506 -4.20425 4.65284 0.27773 -0.518054 -0.37143 0 0 0 0 0 0 0.00984998 -0.191017 -0.237744 10.3147 13.7775 28.379 -2.15501 -3.72091 5.58512 0.272769 -0.541317 -0.385881 48.1994 -10.1719 -24.5353 2.49949 -4.60309 3.75449 0.282769 -0.49474 -0.35696 
26.982 1 269 30.6232 4.80688 4.45921 5.49892 -0.953532 1.31598 0.0978824 -0.141238 0.116422 0 0 0 0 0 0 0.0111069 -0.069903 -0.105157 25.9887 13.4186 29.2623 4.606 -3.86716 1.85239 0.102869 -0.162123 0.115491 32.6281 -5.80056 -21.3898 6.45518 2.04022 0.838634 0.092986 -0.120345 0.117366 
26.982 1 71 32.6913 4.83933 2.52894 1.73285 1.28256 1.60244 0.220398 0.0400557 -0.136891 0 0 0 0 0 0 0.00729991 -0.0681982 -0.275382 31.291 19.6054 2.4583 2.60085 0.7679 1.91248 0.227643 0.0375738 -0.144445 30.5563 -11.9017 1.48288 0.874975 1.87854 1.37185 0.213097 0.0425363 -0.129319 
26.982 1 230 32.7652 2.76284 4.33525 0.521866 4.44149 -0.900081 -0.064125 0.189123 0.0617739 0 0 0 0 0 0 0.0171193 -0.180576 -0.158915 13.4878 -10.3251 -11.3804 -0.0595482 2.22888 -4.8028 -0.0684111 0.184169 0.0685773 48.5943 13.7857 19.0701 1.12936 6.74514 3.07549 -0.0598717 0.19414 0.0549806 
26.982 1 273 34.6974 4.70933 4.51023 -4.62731 0.720562 -0.78072 0.491891 0.186005 0.17165 0 0 0 0 0 0 0.0176564 -0.061648 -0.0972983 47.737 19.952 -14.2043 -2.12794 0.466502 -3.7137 0.498542 0.207606 0.176735 17.2854 -12.5772 22.1337 -7.17662 1.03625 2.20645 0.485151 0.164372 0.166592 
26.982 1 36 35.0105 2.80126 2.33428 -3.04004 -1.22933 1.13709 0.167407 0.364733 0.772898 0 0 0 0 0 0 0.0218049 -0.164526 -0.208151 45.3933 -6.5332 -17.8078 0.943912 -2.82982 -1.58593 0.171131 0.378493 0.786828 20.2838 9.94216 21.3403 -7.05933 0.446998 3.92451 0.163644 0.350995 0.758988 
26.982 1 75 36.8899 4.93873 2.70135 -4.16124 1.34829 7.80083 0.200114 0.289726 0.253235 0 0 0 0 0 0 0.0242588 -0.0563008 -0.246106 44.7283 26.2643 7.89156 -0.325401 3.55715 8.79213 0.207923 0.307963 0.260285 23.9061 -18.5377 -3.58297 -8.07343 -0.812754 6.86252 0.192241 0.27142 0.246177 
26.982 1 234 37.0286 2.98466 4.82526 -0.15707 -3.6814 0.845546 -0.0754391 0.797489 -0.430267 0 0 0 0 0 0 0.0136173 -0.161699 -0.153463 61.0211 -2.65531 -3.39462 7.85879 -4.34715 -0.715017 -0.0830917 0.830467 -0.439394 7.88475 6.39518 12.0602 -8.28975 -2.93734 2.43715 -0.0678586 0.764528 -0.421133 
26.982 1 40 39.3188 3.36139 2.98322 -2.15556 3.49922 -3.11503 -0.156431 -0.403776 -0.633372 0 0 0 0 0 0 -0.0340223 -0.186386 -0.17568 57.539 23.3638 -3.62897 6.54395 6.16898 0.86463 -0.154059 -0.412375 -0.650133 15.316 -18.9689 8.39946 -10.9387 0.893244 -7.1088 -0.158851 -0.395232 -0.616634 
26.982 1 277 38.9748 5.17064 4.84764 6.05327 -1.14532 5.56684 0.332186 0.493301 -0.00857053 0 0 0 0 0 0 0.000379723 -0.0298696 -0.090378 43.7507 28.9279 -6.76181 14.3918 -4.83492 3.673 0.337055 0.529603 -0.0236354 28.3876 -20.5359 15.5307 -2.38661 2.66006 7.50018 0.327279 0.456982 0.00650181 
26.982 1 241 43.19 5.45022 4.80275 3.38741 0.479405 -1.36468 -0.430234 0.245312 0.659898 0 0 0 0 0 0 -0.0370426 -0.0327517 -0.0314574 7.0684 13.3153 -15.1696 11.4026 -0.275846 -0.251407 -0.449972 0.258776 0.663438 -9.16266 -4.33299 23.6309 -4.75489 1.33234 -2.5076 -0.410516 0.23187 0.656369 
26.982 1 4 43.2953 3.47234 3.04017 8.8085 -6.35465 -1.5015 -0.294348 -0.286605 -0.991864 0 0 0 0 0 0 -0.0638368 -0.177562 -0.118737 26.4539 8.36515 18.6819 10.6093 0.804285 8.58063 -0.313898 -0.277675 -1.01563 53.0579 -3.7747 -13.8764 6.9176 -13.4652 -11.6305 -0.27489 -0.295432 -0.968128 
26.982 1 79 41.1972 5.32434 2.62748 2.50185 -3.94935 -6.8177 0.390935 -0.0667274 0.533729 0 0 0 0 0 0 -0.0622921 -0.0129864 -0.177897 34.9135 37.8181 -22.9175 6.85679 -1.14396 -6.95031 0.396055 -0.0626134 0.543292 41.0337 -29.2462 26.9901 -1.9576 -6.69762 -6.69571 0.385811 -0.0709197 0.524217 
26.982 1 238 41.4317 3.21669 5.02189 -1.98041 -2.63418 3.46864 -0.519987 0.556994 -0.118061 0 0 0 0 0 0 -0.0252502 -0.166306 -0.109571 53.7834 -6.00669 -7.55195 3.17371 -3.9403 4.78156 -0.521383 0.572867 -0.122576 22.5926 10.2012 16.5152 -7.23622 -1.21823 2.11884 -0.518687 0.541285 -0.113697 
26.982 1 83 -2.37444 9.76044 3.40262 2.17425 1.72311 -0.567719 -0.0989745 0.145647 -0.286314 0 0 0 0 0 0 -0.0984261 -0.0305721 -0.180458 -5.07096 32.7691 13.0495 0.214807 6.15545 1.75435 -0.0999824 0.155113 -0.287144 6.65687 -14.7648 -7.47119 4.09854 -2.71279 -2.87761 -0.0979161 0.136065 -0.285543 
26.982 1 242 -2.46853 7.61398 5.11098 -2.64762 1.29643 -4.58006 0.0507808 0.311105 -0.967797 0 0 0 0 0 0 -0.124984 -0.0178004 -0.126303 -7.11568 25.6517 25.4331 0.12923 2.96932 1.76377 0.0486044 0.336736 -1.00205 8.41049 -12.2062 -16.1513 -5.52972 -0.3597 -10.9109 0.0529035 0.28534 -0.933561 
26.982 1 48 -0.0517267 7.92062 3.29303 -0.454374 1.78471 -3.23877 -0.312249 0.295697 0.230948 0 0 0 0 0 0 -0.0252378 0.0195696 -0.157477 -35.0564 47.8882 -20.014 -6.42994 8.58559 -0.348576 -0.320028 0.300328 0.236089 40.8071 -33.7831 25.0656 5.57537 -4.96254 -6.23717 -0.30438 0.291023 0.225797 
26.982 1 88 0.156682 10.675 2.53021 -2.76025 -4.31452 3.52771 0.407901 0.0996391 0.336209 0 0 0 0 0 0 -0.0584041 -0.0308247 -0.231872 -30.8079 27.9068 26.6833 -9.01514 0.584537 13.6726 0.402818 0.0999074 0.353027 37.0858 -7.8055 -22.9905 3.60432 -9.1962 -6.65415 0.41309 0.0992855 0.319279 
26.982 1 42 -2.22017 7.65184 1.31532 -2.3307 1.75217 -0.484765 -0.435627 0.334823 -0.243793 0 0 0 0 0 0 -0.11799 0.0471657 -0.228002 -0.539668 30.672 9.43021 -4.90833 7.6571 -0.497302 -0.452695 0.336471 -0.248185 2.55064 -17.1579 -8.36811 0.249838 -4.1477 -0.467968 -0.418525 0.333137 -0.239401 
26.982 1 285 -0.31092 9.93549 5.41211 3.70243 0.555686 -2.87356 -0.135083 0.504418 -0.209191 0 0 0 0 0 0 -0.0706419 0.0291923 -0.0314727 -26.535 39.6922 20.8657 0.841274 6.09324 12.102 -0.140317 0.539392 -0.20523 31.7555 -21.3975 -11.2768 6.59958 -4.97482 -17.9049 -0.12978 0.469273 -0.213302 
26.982 1 47 2.26464 6.29417 3.58981 -1.5359 -5.14867 1.43404 -0.337011 0.0924913 0.185183 0 0 0 0 0 0 -0.00707089 -0.011315 -0.144527 -13.3714 24.2565 -9.6106 -6.77595 -3.31803 2.57922 -0.354255 0.0727273 0.177835 22.8904 -13.3439 15.3113 3.71056 -6.81553 0.17738 -0.319796 0.112491 0.192488 
26.982 1 249 4.49979 6.55314 5.49333 0.112493 -3.80399 1.7668 -0.0991872 0.139639 -0.388232 0 0 0 0 0 0 -0.00338448 -0.0277095 -0.0278054 -2.81659 -19.3035 20.6966 -5.65998 -11.0034 8.17437 -0.0970674 0.127333 -0.392186 15.9694 30.6363 -10.8463 5.87745 3.5383 -4.67616 -0.101404 0.152254 -0.384354 
26.982 1 87 2.58016 8.90459 2.69875 -6.55258 6.37422 2.18055 -0.72724 0.203149 -0.144799 0 0 0 0 0 0 -0.043336 -0.0303266 -0.226612 -17.9578 17.7031 25.5931 -12.7542 9.06434 12.2858 -0.749836 0.205673 -0.149004 28.3097 -1.29568 -21.5645 -0.26842 3.75163 -7.96944 -0.704586 0.200605 -0.140631 
26.982 1 289 4.58884 9.15142 4.54362 -3.90399 -4.57698 -1.0392 0.251533 0.286605 -0.0258019 0 0 0 0 0 0 0.00329065 0.00969763 -0.0478293 14.0377 14.94 52.4692 -8.15404 -3.00445 10.3859 0.259962 0.305355 -0.0190214 -0.561256 1.91437 -44.7433 0.390249 -6.06651 -12.5538 0.243079 0.267851 -0.0326564 
26.982 1 52 4.67388 7.16064 2.5955 0.423247 1.03277 3.08176 0.766986 0.13173 -0.0810097 0 0 0 0 0 0 -0.00830275 -0.0237577 -0.23339 11.678 -4.28074 23.7222 -0.415981 -4.48473 9.36715 0.790984 0.128086 -0.0859083 1.7832 17.0433 -19.7041 1.20729 6.70686 -3.19573 0.742825 0.135624 -0.0760668 
26.982 1 89 4.91979 9.81909 1.70224 -0.945301 1.88981 -0.818715 0.558447 0.03515 -0.180447 0 0 0 0 0 0 0.019001 -0.0344053 -0.283642 16.5142 15.0665 -23.4183 -0.754634 -0.165477 -1.01897 0.578257 0.0389015 -0.197935 -2.52976 3.27621 25.4136 -1.13543 4.03481 -0.625993 0.538551 0.0313965 -0.162908 
26.982 1 823 22.1048 1.11217 16.9692 -9.74934 -4.95029 2.75015 0.554336 0.761993 -0.130537 0 0 0 0 0 0 0.00703525 -0.204036 -0.176032 6.29652 -6.92687 15.9612 -21.243 -7.17228 0.0685681 0.562546 0.766522 -0.125893 37.4271 6.50444 18.1185 1.83949 -2.66631 5.52248 0.546136 0.757499 -0.135225 
26.982 1 91 7.13682 10.1485 3.41632 -5.2568 -2.6774 4.59934 0.521023 -0.475354 0.417329 0 0 0 0 0 0 0.0417145 0.00458751 -0.140778 15.6927 -0.911265 17.6459 -2.90669 -5.19621 9.90598 0.541129 -0.475143 0.424944 1.96358 19.9083 -12.0545 -7.63438 -0.0457184 -0.714872 0.500823 -0.475477 0.409716 
26.982 1 250 7.0902 7.48068 4.41141 -0.306392 -1.1206 -2.81687 -0.17852 -0.237044 0.0303728 0 0 0 0 0 0 0.0142623 -0.00549527 -0.0583248 11.969 6.78606 42.467 0.502365 -8.47073 0.767813 -0.159297 -0.246201 0.0290114 5.58034 6.81225 -35.153 -1.16592 6.40203 -6.43894 -0.197921 -0.227657 0.0317461 
26.982 1 50 7.18679 8.06341 1.57863 8.44344 1.81635 -0.123692 0.299925 -0.0403257 0.0302824 0 0 0 0 0 0 0.0374979 0.0122072 -0.282018 33.6278 11.6678 -1.358 21.866 -11.9849 -2.50289 0.334563 -0.0526716 0.021386 -15.8805 2.91128 3.31493 -5.04955 15.7754 2.35153 0.265153 -0.0277412 0.0393152 
26.982 1 293 9.52385 10.3271 5.19253 -2.7101 9.18269 1.69484 -0.483376 -0.378073 0.198943 0 0 0 0 0 0 -0.0121195 0.00499874 -0.037838 11.6287 28.5954 58.9667 -2.14985 7.54064 8.37934 -0.495229 -0.376909 0.200826 10.2138 -9.40247 -49.8548 -3.27138 10.9364 -5.01407 -0.471569 -0.379131 0.196893 
26.982 1 56 9.44697 8.06667 3.25828 0.969592 -3.58733 -4.65852 -0.0288916 -0.0350298 -0.0169348 0 0 0 0 0 0 0.0020729 0.00899318 -0.153436 14.7579 -2.73628 19.8634 0.827812 -17.4632 -7.1371 -0.0322952 -0.0591784 -0.0159087 7.01001 17.3815 -14.5106 1.11125 10.4433 -2.11549 -0.025492 -0.0106682 -0.0179376 
26.982 1 95 11.8623 9.06189 2.15245 -1.76139 -6.14669 4.89409 0.789019 -0.202232 0.688602 0 0 0 0 0 0 -0.0402313 0.00336192 -0.260028 7.70258 4.5517 -11.6651 -2.07217 -15.3826 4.2113 0.784096 -0.221037 0.703433 18.197 12.0545 14.8532 -1.40593 3.21506 5.64074 0.794048 -0.183172 0.673777 
26.982 1 254 11.6578 8.33826 4.91359 2.86489 1.41934 0.770701 -0.325901 0.0389615 -0.569386 0 0 0 0 0 0 -0.0116825 -0.00290958 -0.0419105 -4.61772 -9.16299 66.3936 -4.41612 -5.75524 11.6467 -0.332677 0.0296339 -0.568489 30.2229 24.2953 -57.815 10.2016 8.69263 -10.0856 -0.31908 0.0484891 -0.570427 
26.982 1 53 11.5944 6.22048 2.87436 -1.35112 2.79522 -0.689546 0.256619 0.227921 0.29582 0 0 0 0 0 0 0.00180071 -0.0200151 -0.177245 -15.2395 32.132 -30.52 -15.0351 0.72312 -7.19197 0.258714 0.190962 0.295615 41.3659 -21.5132 34.8246 12.4065 5.03418 5.86998 0.254652 0.265135 0.296076 
26.982 1 55 14.2588 6.71622 4.54249 3.40634 -4.42632 -1.42169 -0.101629 -0.540729 0.0472978 0 0 0 0 0 0 0.00646212 -0.00830425 -0.0418341 -1.052 13.2103 28.1424 -5.71948 -4.28261 4.74971 -0.0879668 -0.547611 0.0457441 31.9067 -1.54278 -20.2497 12.6364 -4.44976 -7.55068 -0.115295 -0.533606 0.0487943 
26.982 1 97 15.8786 9.63072 1.56753 3.26668 6.19127 1.86016 0.119457 0.0461268 -0.0550627 0 0 0 0 0 0 -0.0156044 0.000527111 -0.268571 24.0684 15.7717 18.6135 5.81396 11.9033 2.03906 0.141596 0.0345666 -0.0587335 9.09977 2.03945 -16.921 0.68705 0.535204 1.72185 0.0970347 0.0578029 -0.0514103 
26.982 1 60 16.5341 7.66884 3.54124 -1.1685 -1.74309 1.8132 0.0211883 -0.444444 0.405822 0 0 0 0 0 0 0.00157324 -0.0198203 -0.062981 30.0629 16.0662 -1.5253 -0.372916 3.92113 1.75361 0.0325113 -0.465692 0.416782 4.44478 -2.54005 7.35917 -1.94966 -7.36375 1.8919 0.00961749 -0.42303 0.39484 
26.982 1 297 14.1061 9.28574 3.86837 -0.757624 5.72231 -0.919684 0.543044 -0.0462389 0.29126 0 0 0 0 0 0 -0.0025464 -0.00392584 -0.0693176 30.4646 48.6127 0.509312 3.25552 9.68828 -1.04631 0.554133 -0.052324 0.303238 -0.767018 -31.4986 6.04463 -4.76138 1.83313 -0.796815 0.531867 -0.0399719 0.279123 
26.982 1 54 14.0778 7.34861 1.72559 1.14982 2.58081 2.62696 0.420209 -0.359553 0.202585 0 0 0 0 0 0 -0.0435498 -0.0208136 -0.268153 -1.14944 24.7136 -36.6286 -5.30909 2.52131 -5.69416 0.422235 -0.386374 0.1997 31.5964 -11.7866 38.5385 7.70125 2.75004 10.9546 0.418138 -0.332442 0.205452 
26.982 1 261 21.7232 6.04021 6.21746 -0.593609 0.961254 2.23694 0.278399 0.634335 -0.00369679 0 0 0 0 0 0 -0.00886907 -0.00445522 -0.0101347 19.3606 19.7821 5.1493 -0.626263 10.2783 -0.784355 0.267831 0.647194 -0.0172612 24.0173 -9.70309 6.12916 -0.556403 -8.36655 5.26648 0.288915 0.621484 0.009965 
26.982 1 58 17.9953 8.13418 1.44406 1.88862 -11.8995 -1.95433 1.06755 -0.660832 -0.51004 0 0 0 0 0 0 0.03506 -0.00488771 -0.258591 1.94981 72.171 27.8702 4.96161 -0.640885 0.652533 1.10395 -0.675803 -0.503961 34.6753 -57.728 -26.0919 -1.23296 -23.1669 -4.47082 1.03088 -0.645726 -0.516157 
26.982 1 99 18.371 9.7197 3.62971 -5.61338 -2.80163 1.80101 0.00438146 0.0323723 -0.0950336 0 0 0 0 0 0 0.0169139 -0.0084707 -0.0737932 33.9138 41.1224 18.3262 3.40386 8.46444 5.18965 0.022581 0.0216336 -0.0965355 3.4932 -23.2573 -12.2542 -14.7099 -14.0558 -1.53333 -0.0141173 0.0431772 -0.0935179 
26.982 1 258 19.0758 7.6762 5.44945 -0.302605 -3.01082 -2.19115 0.149839 -0.237112 -0.127396 0 0 0 0 0 0 0.0269879 -0.0185047 -0.0298597 19.2081 17.548 6.51492 6.60949 2.19469 -3.3273 0.175816 -0.256223 -0.152146 19.5631 -4.02176 3.17437 -7.24043 -8.23372 -1.04187 0.123759 -0.217951 -0.102557 
26.982 1 64 21.5443 7.3539 3.95531 -0.0143626 -0.890727 7.96094 -0.496024 0.0693793 -0.180717 0 0 0 0 0 0 -0.00762929 -0.0126414 -0.080712 23.8037 12.3689 3.42896 7.49213 7.96472 5.44265 -0.513253 0.0509774 -0.197605 19.2242 0.562576 3.2453 -7.52654 -9.79723 10.5034 -0.478867 0.0877031 -0.163751 
26.982 1 301 20.9675 9.82424 5.25725 -4.0986 -1.66937 3.10853 0.00816859 0.234448 -0.508688 0 0 0 0 0 0 0.0104346 0.0090066 -0.0237681 13.5302 11.0799 6.42294 2.62202 7.34983 3.86039 0.0171197 0.242539 -0.516442 28.3913 6.99317 3.01697 -10.7999 -10.6955 2.42925 -0.000928113 0.226372 -0.500787 
26.982 1 101 20.7295 9.02084 2.12981 1.77177 0.477267 -0.839607 -0.195086 0.772057 -0.0555751 0 0 0 0 0 0 0.0267842 0.00904031 -0.230163 19.6006 3.54635 36.4283 8.87146 0.383781 -4.5688 -0.192705 0.762372 -0.0680628 21.8475 12.9886 47.5826 -5.35609 0.537547 2.89613 -0.197654 0.781741 -0.0431176 
26.982 1 103 23.8756 8.48483 2.29833 -0.460044 3.08692 -0.964501 0.353087 0.172463 -0.0201191 0 0 0 0 0 0 0.01976 -0.0018708 -0.26022 4.15278 30.4924 -6.49615 -14.0916 10.0125 -2.48641 0.342935 0.185519 -0.0400071 42.9204 -14.9995 9.89435 13.2513 -3.89391 0.597079 0.363366 0.159372 -0.00027659 
26.982 1 262 23.9775 6.34575 3.95206 -3.64858 2.33196 1.09836 0.725854 -0.486268 -0.18948 0 0 0 0 0 0 0.00539692 -0.0137309 -0.130612 10.792 8.35262 -0.164594 -15.3155 11.4693 -3.17136 0.717032 -0.497907 -0.221872 36.5007 2.50575 6.95197 8.10552 -6.86452 5.37007 0.734894 -0.474765 -0.157068 
26.982 1 305 26.2659 8.58575 4.35507 1.65894 -1.33666 4.64668 -0.10014 -0.327843 -0.329295 0 0 0 0 0 0 -0.0335146 0.0111806 -0.0960302 20.1816 58.1649 -22.3793 -15.0963 5.46148 -0.476355 -0.138702 -0.314992 -0.343297 31.1008 -42.4743 30.0265 18.5942 -8.13814 9.85623 -0.0611853 -0.340823 -0.315144 
26.982 1 68 26.3463 6.83024 2.23818 2.60619 -3.06144 2.52677 -0.451689 -0.377825 -0.0727449 0 0 0 0 0 0 -0.0248507 -0.0330135 -0.272133 28.5618 20.6002 0.294334 -5.1628 -0.193436 0.286248 -0.488842 -0.391136 -0.0760132 22.7867 -8.74903 2.92477 10.5019 -5.93469 4.82449 -0.414164 -0.364673 -0.0693946 
26.982 1 108 26.1169 10.5885 2.43194 2.21385 1.99064 1.42078 -0.206092 0.148695 0.563912 0 0 0 0 0 0 -0.00833897 0.00901863 -0.236281 -8.52371 34.273 -24.8735 -18.0751 4.03006 -4.69117 -0.253681 0.159917 0.574801 59.5336 -14.3733 28.6711 22.6971 -0.0473231 7.62199 -0.158207 0.137452 0.553054 
26.982 1 303 23.5904 8.68167 5.23981 3.04553 0.27491 6.19047 0.208532 0.490126 0.737351 0 0 0 0 0 0 0.00950034 0.0148511 -0.0242079 -4.28996 19.0539 -14.0618 -16.9847 14.2057 0.757963 0.216685 0.504654 0.735502 50.8312 -3.2894 23.5158 23.2018 -13.6606 11.6976 0.200558 0.475585 0.739361 
26.982 1 308 25.9678 10.6694 5.94329 -0.346057 4.91782 0.74997 -0.581883 0.46863 -0.172663 0 0 0 0 0 0 -0.0256285 0.0137879 -0.046552 24.1385 18.8845 25.7921 -14.2441 7.4491 -1.6045 -0.60989 0.48247 -0.202392 26.6183 1.31541 -14.8241 13.7639 2.43199 3.18091 -0.553562 0.45464 -0.14278 
26.982 1 107 28.3557 8.48884 2.26153 -2.05313 1.32456 0.700902 0.0276511 0.506617 0.449198 0 0 0 0 0 0 -0.00634229 0.0207294 -0.285083 23.5046 40.3316 2.91796 -6.6693 3.07911 -2.9097 -0.0109414 0.516053 0.451433 31.1799 -25.0533 0.483806 2.71079 -0.422972 4.4202 0.0666633 0.497099 0.447094 