ITEM: TIMESTEP
650
ITEM: NUMBER OF ATOMS
4000
ITEM: BOX BOUNDS pp pp pp
-0.206303 40.7063
-0.0226227 40.5226
-0.0290942 40.5291
ITEM: ATOMS mass type id x y z vx vy vz fx fy fz xrad yrad zrad vxrad vyrad vzrad fxrad fyrad fzrad xub yub zub vxub vyub vzub fxub fyub fzub xlb ylb zlb vxlb vylb vzlb fxlb fylb fzlb 
26.982 1 2 1.94573 1.93056 0.040007 -5.91331 -3.52872 2.0954 -0.456777 0.0661892 -0.0461532 0 0 0 0 0 0 -0.0443622 -0.110716 -0.188039 2.08687 2.1078 0.179777 -5.8485 -3.10503 2.60925 -0.47537 0.0570098 -0.0438426 2.02513 1.66053 -0.188045 -5.97853 -3.95165 1.58485 -0.438149 0.075384 -0.0484467 
26.982 1 3 1.94107 0.00183557 2.02848 3.72572 -6.01434 0.125893 -0.386585 0.0938834 -0.293537 0 0 0 0 0 0 -0.0501093 -0.184769 -0.0876665 1.94537 -0.116904 2.04592 3.50525 -6.48091 -0.0650986 -0.38604 0.0945441 -0.306167 2.15698 0.017342 1.93271 3.94391 -5.54688 0.321338 -0.387158 0.0932307 -0.280902 
26.982 1 8 3.99038 2.09431 1.88816 -4.51274 2.39746 1.47594 -0.410462 -0.346789 0.548316 0 0 0 0 0 0 -0.01115 -0.162539 -0.102937 4.03267 2.09668 1.87087 -4.62964 2.60384 1.55427 -0.414432 -0.359226 0.569931 4.14458 1.99937 1.82656 -4.39666 2.19315 1.40056 -0.406498 -0.334309 0.526682 
26.982 1 41 -0.12912 3.87453 -0.00165405 1.12627 -4.26276 3.25564 -0.0866102 0.673025 0.0686645 0 0 0 0 0 0 -0.0983215 -0.123569 -0.161757 -0.136886 3.95821 0.132668 0.891875 -4.2686 3.63161 -0.0877877 0.706433 0.0684167 0.124101 3.70817 -0.224795 1.3615 -4.25671 2.88059 -0.0853823 0.639587 0.0689545 
26.982 1 43 1.94231 4.02794 1.94061 2.041 -0.159701 -1.54207 -0.419068 0.031612 -0.0544215 0 0 0 0 0 0 -0.0554757 -0.0934572 -0.127775 1.85262 3.94337 1.89803 1.83416 -0.250322 -1.6913 -0.443073 0.028774 -0.0467428 2.25368 4.0294 1.90461 2.24851 -0.0700558 -1.38923 -0.395021 0.0344534 -0.0621014 
26.982 1 202 1.69776 2.09578 3.99736 0.378064 4.30166 4.72537 0.416802 -0.0970214 0.15207 0 0 0 0 0 0 -0.0756815 -0.14721 -0.101215 1.77796 2.08754 3.92663 0.54833 4.58674 4.89396 0.423129 -0.100057 0.157155 1.83847 2.01049 3.99857 0.207097 4.01658 4.5613 0.410466 -0.0939748 0.146972 
26.982 1 241 -0.246933 4.06896 4.00346 5.74819 1.49267 2.54872 0.265935 -0.190468 0.034823 0 0 0 0 0 0 -0.114264 -0.143316 -0.107673 -0.189836 4.23383 3.95165 5.63231 1.95626 2.70212 0.272516 -0.199387 0.0352077 -0.0581963 3.82007 3.98567 5.86517 1.02637 2.39947 0.259366 -0.181556 0.0344459 
26.982 1 245 3.84771 4.03153 4.02287 7.39332 1.02092 0.587586 0.0919835 -0.501293 0.0261607 0 0 0 0 0 0 -0.0106536 -0.0735272 -0.0382452 3.86878 3.87878 3.98337 7.68764 1.08355 0.605878 0.0918833 -0.526873 0.0351095 4.02339 4.10161 3.99212 7.09948 0.958985 0.57237 0.0920764 -0.475698 0.0171758 
26.982 1 6 5.92444 1.94543 -0.0403448 0.0180166 -4.08297 -2.1036 0.113655 0.19015 -0.0708964 0 0 0 0 0 0 -0.0633553 -0.105271 -0.207117 5.80869 1.83465 0.0479007 -0.421709 -4.19791 -1.60988 0.122637 0.193693 -0.078792 6.21175 1.96372 -0.21557 0.457392 -3.96696 -2.59443 0.104626 0.18663 -0.0630026 
26.982 1 9 7.96116 -0.0626804 0.0281528 0.973648 1.24974 1.69025 -0.205623 -0.20095 -0.348145 0 0 0 0 0 0 -0.0202528 -0.192676 -0.108705 8.01295 0.0407791 0.000513454 0.962334 1.56689 1.95089 -0.221138 -0.202315 -0.352636 8.0571 -0.269443 -0.0324423 0.987299 0.933097 1.43065 -0.1901 -0.199568 -0.343659 
26.982 1 12 8.24658 1.90042 1.96876 -1.42964 -0.58829 2.06678 -1.10118 0.103964 0.531551 0 0 0 0 0 0 -0.0258531 -0.16005 -0.0879055 8.2309 1.84148 1.86112 -1.79891 -0.925117 2.12644 -1.12176 0.112642 0.53945 8.40919 1.86625 1.99755 -1.05993 -0.250699 2.00979 -1.08064 0.0952978 0.523676 
26.982 1 47 5.84193 3.94652 2.09833 -0.754198 2.31924 -2.23977 0.517943 0.216587 -0.169399 0 0 0 0 0 0 -0.0306869 -0.0530772 -0.12702 5.66859 3.88866 1.94731 -1.44483 2.42473 -2.55518 0.529085 0.217166 -0.180898 6.18657 3.92254 2.17098 -0.0643181 2.21583 -1.92141 0.506748 0.21601 -0.157901 
26.982 1 49 7.87803 3.97705 0.133475 -2.54463 5.28463 3.60098 0.148775 0.237559 -0.306663 0 0 0 0 0 0 -0.00172413 -0.0136321 -0.262169 7.87616 3.95948 0.235611 -2.58083 5.7147 4.17392 0.161884 0.247543 -0.318637 8.02691 3.91248 -0.056526 -2.50844 4.85637 3.03089 0.135604 0.227531 -0.294654 
26.982 1 206 6.1859 1.94185 4.07533 5.12087 -3.74353 3.11386 -0.610737 -0.317976 -0.506714 0 0 0 0 0 0 -0.059522 -0.140151 -0.0948841 6.22633 2.01453 4.08668 5.30723 -3.52176 3.26429 -0.625591 -0.317686 -0.516653 6.317 1.77677 3.99362 4.93439 -3.96329 2.96681 -0.595879 -0.318231 -0.496772 
26.982 1 209 8.02644 -0.108824 4.06222 -3.46772 -0.425859 -6.56736 -0.11921 0.189264 -0.132079 0 0 0 0 0 0 -0.0227204 -0.198513 -0.171745 8.1237 -0.19515 3.85722 -3.54696 -0.726255 -7.51777 -0.126276 0.182619 -0.134589 8.07632 -0.125694 4.19639 -3.38713 -0.12378 -5.61475 -0.112157 0.195969 -0.129555 
26.982 1 249 7.94656 3.9873 3.99108 2.53998 -0.542372 -6.06096 0.118888 0.00596862 -0.0499495 0 0 0 0 0 0 -0.0108593 -0.0182938 -0.0237561 8.05301 3.93061 3.88165 2.56879 -0.535597 -6.22926 0.11978 0.0171587 -0.0534247 7.98632 3.96162 4.03052 2.50988 -0.548339 -5.89014 0.117969 -0.00526594 -0.0464685 
26.982 1 10 9.88349 1.87001 -0.0756722 -0.972724 3.07593 4.30348 0.612198 0.224903 -0.375933 0 0 0 0 0 0 0.072177 -0.124599 -0.224024 10.0393 1.79154 -0.133223 -0.815664 3.10225 4.32507 0.622873 0.241052 -0.390293 9.85039 1.8554 -0.106327 -1.12854 3.05061 4.28471 0.601527 0.208713 -0.361562 
26.982 1 16 12.0586 1.90886 1.81211 1.8834 -3.16635 3.3243 -0.526589 0.134376 0.44203 0 0 0 0 0 0 0.063915 -0.197355 -0.162616 12.2573 1.95393 1.6219 2.17639 -3.04784 3.06189 -0.531526 0.132276 0.466597 11.9576 1.76988 1.92241 1.58954 -3.28555 3.58799 -0.521708 0.136475 0.417439 
26.982 1 51 10.0461 3.86877 2.07257 -0.693331 4.22427 -1.71893 0.0186405 0.431472 -0.299759 0 0 0 0 0 0 0.0203305 -0.0299272 -0.102784 10.1504 3.95954 2.00306 -0.961099 4.58792 -1.64192 0.0201669 0.436249 -0.305769 10.0638 3.69572 2.06202 -0.425943 3.86142 -1.79586 0.0170897 0.426642 -0.293717 
26.982 1 53 12.0441 4.1167 0.051035 -2.60639 1.4057 -1.02253 -0.137936 -0.306726 -0.24196 0 0 0 0 0 0 0.02452 -0.0560898 -0.27222 12.3143 4.08992 -0.023451 -2.59651 1.26434 -1.38002 -0.146656 -0.309946 -0.258927 11.8717 4.06113 0.0373724 -2.61546 1.54811 -0.664462 -0.129197 -0.30357 -0.22498 
26.982 1 210 10.0027 2.06498 4.20772 -2.98631 1.43578 -0.690409 0.256206 -0.121533 -0.733133 0 0 0 0 0 0 0.0214631 -0.100481 -0.0847701 10.1152 2.02479 3.99788 -3.05237 1.37161 -1.01321 0.27164 -0.129045 -0.750077 10.012 2.01158 4.34679 -2.92151 1.49905 -0.366711 0.240711 -0.114015 -0.716172 
26.982 1 213 11.9943 0.0162006 3.9115 -1.85007 3.24746 -0.630436 0.0284271 -0.108073 0.106733 0 0 0 0 0 0 0.0360705 -0.195667 -0.185687 12.0601 0.0671673 3.63523 -1.9376 3.47489 -1.15336 0.0363495 -0.122001 0.111449 12.0259 -0.139403 4.11642 -1.7642 3.01963 -0.106802 0.0204267 -0.0941504 0.102 
26.982 1 253 12.1401 4.01624 3.81222 0.397907 0.965067 4.60311 -0.267092 -0.194091 0.402367 0 0 0 0 0 0 0.0080838 -0.0364442 -0.0329032 12.2914 4.12286 3.91801 0.486304 1.3887 5.39199 -0.268619 -0.201848 0.421429 12.086 3.82788 3.63463 0.30782 0.543287 3.81304 -0.265603 -0.186349 0.383323 
26.982 1 20 16.3153 1.99227 1.93742 -6.03209 -4.15085 2.44268 -0.516876 0.17791 -0.0447674 0 0 0 0 0 0 -0.0848948 -0.188788 -0.106179 16.3358 1.85703 1.87466 -5.98402 -4.69735 2.48206 -0.526732 0.175855 -0.0405107 16.3435 2.0352 1.9201 -6.08037 -3.60047 2.40268 -0.506992 0.180005 -0.0490546 
26.982 1 55 14.2093 4.12859 1.9077 3.05758 0.33217 5.43291 0.313011 -0.293714 0.0298485 0 0 0 0 0 0 0.001112 -0.0853776 -0.127208 14.2708 4.12745 1.76757 3.22337 0.284696 5.49521 0.327038 -0.302352 0.0362554 14.2212 4.0481 1.96752 2.8919 0.382421 5.37002 0.298983 -0.285063 0.0234275 
26.982 1 57 16.174 3.9832 -0.185138 -1.61483 -3.54336 1.99423 0.0473809 0.0541413 0.411149 0 0 0 0 0 0 -0.0406614 -0.0778874 -0.259765 16.0792 4.06942 -0.393803 -1.60672 -3.53945 1.70441 0.0452056 0.0571393 0.437723 16.3178 3.81524 -0.0654631 -1.62235 -3.54317 2.28429 0.0495615 0.0511513 0.384542 
26.982 1 214 14.1369 2.09767 3.75197 0.208036 2.69984 4.91412 -0.0154503 -0.191477 0.390394 0 0 0 0 0 0 0.0344733 -0.15836 -0.0900457 14.2146 2.12355 3.80734 0.589362 2.78496 5.26361 -0.00888524 -0.203556 0.410996 14.1323 1.97819 3.62451 -0.175282 2.61467 4.56322 -0.0220494 -0.179338 0.369794 
26.982 1 257 16.2153 4.20118 4.03138 -5.31631 2.30871 0.0165012 -0.198615 -0.634644 -0.285526 0 0 0 0 0 0 -0.0117807 -0.062447 -0.0265109 16.3121 4.19637 3.99402 -5.21134 2.37403 0.11151 -0.206042 -0.653698 -0.295098 16.1681 4.12414 3.99744 -5.41863 2.24696 -0.0798907 -0.19114 -0.615541 -0.275942 
26.982 1 218 18.1814 2.05132 4.15761 -0.618644 -0.202192 1.82034 -0.252368 -0.115559 -0.056283 0 0 0 0 0 0 -0.0265128 -0.152867 -0.0407312 18.1315 1.92074 4.18338 -0.798895 -0.611791 1.90222 -0.271564 -0.12846 -0.0535813 18.256 2.08969 4.06098 -0.436001 0.211274 1.73891 -0.233098 -0.102593 -0.0589678 
26.982 1 18 18.3293 2.01789 0.0274212 1.95626 0.116217 2.27314 -0.242036 -0.226588 -0.367312 0 0 0 0 0 0 -0.0573085 -0.113665 -0.226112 18.3724 1.98221 0.00954443 2.25033 -0.185891 2.44864 -0.249447 -0.235011 -0.372327 18.3109 1.96121 -0.0431888 1.6633 0.423042 2.09838 -0.234619 -0.218143 -0.362333 
26.982 1 19 18.2557 -0.0320524 2.05243 -0.394404 3.01728 -0.456271 -0.460225 0.164861 -0.0831846 0 0 0 0 0 0 -0.0441702 -0.234395 -0.0502002 18.3175 -0.123012 2.03058 -0.219436 2.90295 -0.328778 -0.470212 0.169884 -0.0878868 18.2185 -0.044178 1.99481 -0.569566 3.13435 -0.583127 -0.450209 0.159834 -0.0784923 
26.982 1 21 20.216 -0.0991527 -0.133471 -0.30928 2.56134 -5.8874 0.334586 0.145347 0.56272 0 0 0 0 0 0 0.0120655 -0.180535 -0.12214 20.2528 -0.279382 -0.0708307 -0.137727 1.92021 -5.59317 0.345873 0.141772 0.577206 20.1794 -0.0218229 -0.284597 -0.47873 3.20719 -6.18171 0.323293 0.14896 0.548228 
26.982 1 22 22.2024 2.05783 -0.040654 -5.17995 1.88377 5.88225 0.0354077 0.0303522 0.218919 0 0 0 0 0 0 -0.0113761 -0.089439 -0.198661 22.2282 2.04131 -0.221495 -5.08937 1.95769 5.63552 0.0346135 0.0320408 0.228875 22.1525 1.98182 0.0517198 -5.26732 1.81375 6.13028 0.0362181 0.0286962 0.208936 
26.982 1 24 20.1863 1.92534 2.15371 -2.32482 1.54869 0.825364 0.328544 0.385389 -0.807684 0 0 0 0 0 0 0.0389738 -0.165943 -0.0500742 20.1338 1.8096 2.21421 -2.5789 1.3905 1.11189 0.343488 0.388604 -0.828498 20.2392 1.94922 2.01337 -2.06873 1.71254 0.540154 0.313613 0.382209 -0.78685 
26.982 1 59 18.1936 4.02096 1.92571 0.491403 -8.82561 -1.71857 0.158214 0.16127 0.125965 0 0 0 0 0 0 -0.00994395 -0.0353741 -0.0901347 18.258 3.92926 1.80277 0.719636 -9.06775 -1.83797 0.152779 0.170876 0.124854 18.1541 4.03061 1.96871 0.264986 -8.58058 -1.59955 0.163678 0.151698 0.1271 
26.982 1 61 20.1314 4.20103 -0.0438607 0.898117 -1.9982 1.47595 0.196531 -0.394991 0.220926 0 0 0 0 0 0 0.0224157 -0.00307758 -0.255873 20.1114 4.1514 -0.130429 0.904003 -2.2521 1.48452 0.202547 -0.405866 0.226899 20.1516 4.16894 -0.0457774 0.893276 -1.74087 1.46852 0.190525 -0.384111 0.214937 
26.982 1 63 22.2733 4.12618 2.10607 1.31334 0.703942 1.87491 -0.0636199 -0.362367 -0.910152 0 0 0 0 0 0 -0.00491569 -0.0304159 -0.110737 22.2298 4.28613 1.89443 1.31997 1.15865 1.61872 -0.0640714 -0.380779 -0.937995 22.2929 3.8839 2.23817 1.30878 0.253143 2.13201 -0.0631451 -0.343938 -0.882279 
26.982 1 222 22.3935 2.26232 4.04418 -3.30532 4.579 2.42898 -0.0952779 -0.724859 0.0751517 0 0 0 0 0 0 -0.0346516 -0.148584 -0.0441117 22.2925 2.17008 3.9484 -3.55427 4.50138 2.2464 -0.0946333 -0.755486 0.0812844 22.4701 2.26237 4.06917 -3.05453 4.66123 2.61219 -0.0959297 -0.69417 0.0690467 
26.982 1 261 20.1818 3.89581 3.9881 0.808778 -1.75392 1.33093 0.0955016 0.496908 0.351561 0 0 0 0 0 0 -0.00450328 -0.0378833 -0.0117094 20.1455 3.987 3.99279 0.581326 -1.59041 1.39402 0.0870729 0.508245 0.360641 20.2183 3.72238 3.91266 1.03841 -1.91512 1.26796 0.103934 0.485608 0.34253 
26.982 1 25 24.2813 0.115479 -0.078518 -0.422776 -3.02361 -4.93895 0.327203 -0.142643 -0.0554076 0 0 0 0 0 0 -0.0125415 -0.196908 -0.141402 24.1718 0.13429 -0.0439572 -0.704419 -3.05864 -4.96707 0.332927 -0.156885 -0.0466321 24.3424 -0.00635559 -0.202123 -0.137702 -2.98511 -4.91007 0.321535 -0.128374 -0.0642299 
26.982 1 26 26.43 2.03475 -0.139217 3.099 1.62581 1.39097 -0.333435 -0.0907834 0.398029 0 0 0 0 0 0 0.0478502 -0.11098 -0.233649 26.4393 2.18433 -0.262831 3.28338 2.24746 1.17909 -0.337903 -0.0971229 0.421108 26.3474 1.79255 -0.104261 2.91466 1.0065 1.60448 -0.328943 -0.0844048 0.374936 
26.982 1 27 26.359 -0.00883615 1.90525 -3.8984 -0.547039 -0.75355 -0.0976491 0.184042 0.237379 0 0 0 0 0 0 0.0685409 -0.237113 -0.0728788 26.3209 0.0127375 1.75075 -3.95817 -0.479806 -1.23832 -0.103557 0.189633 0.240492 26.3236 -0.132718 1.97948 -3.83799 -0.609841 -0.270049 -0.0917136 0.178494 0.234235 
26.982 1 28 24.3029 2.12406 1.88559 -2.06702 0.611892 -0.851033 0.200571 -0.0163564 0.193972 0 0 0 0 0 0 -0.0227325 -0.126937 -0.078589 24.1602 2.19525 1.70721 -2.36134 0.820958 -1.02805 0.208228 -0.0285986 0.195128 24.3969 1.96052 1.98447 -1.77064 0.406817 -0.673828 0.192961 -0.00404925 0.192824 
26.982 1 65 24.4076 3.99985 -0.20937 1.70644 -0.318177 0.861774 -0.268559 -0.0748206 0.659314 0 0 0 0 0 0 -0.00942461 0.0230828 -0.269632 24.4853 3.97229 -0.359791 1.95756 -0.098446 0.875034 -0.277957 -0.0758274 0.677927 24.2816 3.94517 -0.147174 1.45653 -0.536287 0.850254 -0.259119 -0.0737938 0.640712 
26.982 1 67 26.3982 4.11701 1.97511 -0.684954 -2.934 3.19767 -0.0750892 -0.0882764 -0.284924 0 0 0 0 0 0 0.00484012 -0.0263231 -0.113084 26.6607 4.13023 1.87347 0.0178698 -2.78909 3.22152 -0.0794975 -0.108045 -0.302286 26.0624 4.02208 1.99695 -1.38831 -3.0762 3.17558 -0.0706551 -0.0684681 -0.267537 
26.982 1 225 24.2754 0.122511 3.994 4.48902 -3.02661 0.931183 0.143061 -0.0499202 0.0820836 0 0 0 0 0 0 -0.032646 -0.197345 -0.121787 24.2781 -0.0393988 3.84164 4.57721 -3.39811 0.813071 0.14497 -0.0571876 0.0785632 24.2239 0.181988 4.0757 4.40225 -2.65055 1.0489 0.141179 -0.0426059 0.0856112 
26.982 1 226 26.3864 2.26543 4.0177 -2.43094 0.72119 -2.37506 -0.201409 -0.931794 -0.0920256 0 0 0 0 0 0 0.0278663 -0.141565 -0.0359882 26.3988 2.29164 3.97372 -2.30531 0.854832 -2.4966 -0.209648 -0.970771 -0.0983167 26.3005 2.14764 3.99078 -2.5561 0.592556 -2.25343 -0.193144 -0.892738 -0.0857219 
26.982 1 265 24.4321 4.14189 4.03011 3.80759 1.43447 0.29791 -0.231602 -0.182515 0.035225 0 0 0 0 0 0 -0.0151053 -0.0294643 -0.00816917 24.3549 4.13035 3.97793 3.83155 1.44167 0.194731 -0.241644 -0.199584 0.0422988 24.4606 4.07108 4.01156 3.78513 1.42995 0.402344 -0.221511 -0.16539 0.0281712 
26.982 1 30 30.4239 2.04511 0.100407 0.199101 -1.04914 -3.58684 -0.273784 -0.169176 -0.373644 0 0 0 0 0 0 0.01595 -0.190633 -0.198332 30.4205 1.89362 0.0362024 0.387187 -1.14406 -3.67115 -0.287294 -0.179859 -0.382135 30.3044 2.10422 0.0762829 0.00897593 -0.952764 -3.50141 -0.260283 -0.158446 -0.365121 
26.982 1 32 28.2946 2.09613 2.08989 0.174816 0.19661 -4.37922 0.354326 -0.373309 -0.540856 0 0 0 0 0 0 0.0619007 -0.211014 -0.0957417 28.2587 1.98916 2.09512 0.296192 0.153412 -4.33293 0.357111 -0.404863 -0.557771 28.2323 2.11102 2.00496 0.0512328 0.242104 -4.4251 0.35154 -0.341693 -0.523962 
26.982 1 69 28.4255 4.08764 -0.0394394 -0.748894 -2.81791 4.94671 -0.0557241 -0.0232228 0.281027 0 0 0 0 0 0 0.0153381 -0.00365761 -0.261696 28.4417 4.06231 -0.0573779 -0.690352 -2.57315 5.26028 -0.0572243 -0.0230562 0.284967 28.3112 4.03069 -0.11032 -0.809995 -3.06204 4.63361 -0.0542361 -0.0233864 0.277123 
26.982 1 71 30.6099 3.93965 2.00538 2.22899 -1.29417 -2.09355 -0.512151 -0.00913606 0.406429 0 0 0 0 0 0 0.00549166 -0.0523574 -0.0913483 30.5977 3.87369 1.99917 2.25906 -1.25973 -1.91787 -0.52742 -0.00253646 0.417504 30.4996 3.92294 1.93274 2.1972 -1.32882 -2.26669 -0.496901 -0.0157335 0.395327 
26.982 1 230 30.3345 1.93006 4.16051 2.98781 -1.12634 -0.681559 0.472782 0.122933 -0.099289 0 0 0 0 0 0 0.0174553 -0.173645 -0.0928458 30.2206 1.67969 4.18607 2.98609 -1.79385 -0.720702 0.484953 0.122909 -0.106205 30.3262 2.08809 4.06501 2.98834 -0.456172 -0.639023 0.460602 0.123012 -0.0923829 
26.982 1 269 28.4946 4.05223 3.92119 1.68604 -3.30728 -0.161588 -0.111853 0.0158918 0.483297 0 0 0 0 0 0 0.0213214 -0.0418939 -0.0147179 28.4954 4.02858 3.86121 1.75131 -3.20724 -0.107057 -0.101093 0.0109653 0.498692 28.3958 3.99414 3.91061 1.61936 -3.40514 -0.214457 -0.122657 0.0208326 0.467887 
26.982 1 35 34.5307 0.126593 2.18808 4.4723 5.34131 -1.76641 0.594411 -0.426067 -0.538381 0 0 0 0 0 0 -0.0135513 -0.215285 -0.173419 34.4487 0.179971 2.0903 4.71641 5.81904 -2.01445 0.60726 -0.450403 -0.550648 34.4421 -0.0302214 2.20724 4.22974 4.86377 -1.51542 0.581597 -0.401673 -0.526136 
26.982 1 36 32.5134 1.92898 1.9795 -3.6281 -5.02583 -0.139916 0.0758085 0.523139 0.699869 0 0 0 0 0 0 0.00193731 -0.190377 -0.122744 32.4858 1.81521 1.9427 -3.63135 -5.08781 -0.0732621 0.0736421 0.528963 0.71771 32.3943 1.95069 1.93788 -3.62517 -4.96098 -0.203441 0.0779867 0.517369 0.682 
26.982 1 73 32.454 3.94372 -0.0178822 3.33546 3.44129 -5.24308 0.503567 -0.0547963 0.0930091 0 0 0 0 0 0 0.100594 -0.0247262 -0.2638 32.2823 3.7882 -0.0821122 3.00573 3.70865 -5.42748 0.508486 -0.0430581 0.0841474 32.479 4.01674 -0.0420914 3.66388 3.17497 -5.05758 0.498627 -0.066554 0.101916 
26.982 1 75 34.5547 3.96854 2.10105 3.66059 0.207563 2.23129 0.0681149 -0.0266893 -0.410941 0 0 0 0 0 0 0.0340894 -0.0373866 -0.218264 34.6344 3.83853 2.03228 4.17929 0.0485178 2.23645 0.0705199 -0.00807535 -0.422939 34.3036 4.01544 2.09055 3.14032 0.365501 2.22851 0.0656982 -0.0453416 -0.398934 
26.982 1 234 34.6339 1.98633 4.10121 1.31466 -0.41749 -0.118603 -0.0411015 0.271257 0.392614 0 0 0 0 0 0 -0.0315424 -0.0989887 -0.0815589 34.7478 1.8823 4.03243 1.62821 -0.467898 -0.159804 -0.0417206 0.278672 0.401541 34.3485 1.99738 4.1004 1.00097 -0.36745 -0.073456 -0.040458 0.263873 0.383683 
26.982 1 273 32.6265 4.01501 4.16277 -2.43821 -0.588564 1.22398 -0.515635 -0.717513 -0.224389 0 0 0 0 0 0 -0.0116319 -0.0623565 -0.0495705 32.6199 3.87398 4.20277 -2.28456 -1.06867 1.42716 -0.532203 -0.743338 -0.229415 32.4858 4.07269 4.0525 -2.59339 -0.109796 1.02356 -0.499054 -0.691713 -0.219384 
26.982 1 4 40.6783 1.95646 1.9604 -0.0268407 2.52903 -3.61415 0.259939 0.163798 0.475763 0 0 0 0 0 0 -0.075279 -0.194124 -0.127689 40.5416 2.00201 1.85271 -0.15331 2.65501 -4.02587 0.263158 0.173671 0.492744 40.5706 1.81719 1.99006 0.0992725 2.40158 -3.19645 0.256715 0.153908 0.458793 
26.982 1 40 36.6169 2.0935 2.09202 1.34355 -1.2122 -1.84469 0.214983 -0.332591 0.0703396 0 0 0 0 0 0 0.0423717 -0.148659 -0.241159 36.6494 2.23482 2.08514 1.63457 -0.78046 -1.77049 0.223541 -0.354809 0.0720449 36.3887 1.85872 2.02074 1.05244 -1.64538 -1.91402 0.206428 -0.310398 0.0686365 
26.982 1 79 38.6576 4.0017 2.05835 -5.16979 -3.1425 -7.40223 0.129601 -0.0500362 -0.233477 0 0 0 0 0 0 -0.0482456 -0.0957653 -0.179979 38.6056 3.99252 2.01538 -5.25813 -3.02435 -7.5074 0.13256 -0.0395577 -0.240296 38.4893 3.92724 2.02216 -5.08165 -3.26312 -7.2938 0.126636 -0.0605768 -0.226615 
26.982 1 237 36.7315 0.0326601 4.30259 1.64136 -2.63042 -1.89161 -0.234642 -0.331006 -0.661309 0 0 0 0 0 0 0.0267349 -0.177283 -0.207704 36.6693 -0.00643804 4.24119 1.6914 -2.88922 -1.92527 -0.243157 -0.353648 -0.683187 36.5977 -0.0314499 4.2942 1.59104 -2.37139 -1.85473 -0.226098 -0.308347 -0.639426 
26.982 1 238 38.6481 2.0201 4.31451 -2.81304 -0.924602 -0.272591 0.306071 -0.0957701 -0.47308 0 0 0 0 0 0 0.0369128 -0.134379 -0.129623 38.557 2.06909 4.21745 -2.83456 -0.813493 -0.42327 0.313843 -0.101764 -0.490427 38.5192 1.87707 4.34202 -2.79125 -1.03758 -0.1187 0.298297 -0.0898032 -0.455746 
26.982 1 277 36.7974 3.96062 4.08332 -6.22194 4.57651 3.13029 -0.443183 0.295046 0.209818 0 0 0 0 0 0 -0.00744284 -0.0302053 -0.057134 36.7963 3.83939 3.94474 -6.37005 4.60088 3.03044 -0.449312 0.303306 0.219014 36.6022 3.998 4.15117 -6.07461 4.54821 3.23217 -0.437067 0.286767 0.200632 
26.982 1 42 1.93347 6.21608 0.055584 2.61299 -5.60443 -0.177499 -0.637153 -0.627854 0.124322 0 0 0 0 0 0 -0.0925745 -0.0241013 -0.215894 1.92847 6.08732 0.041244 2.51067 -6.02619 -0.0407495 -0.668712 -0.636595 0.122019 2.16041 6.2732 -0.0188995 2.71772 -5.18084 -0.314287 -0.605515 -0.619133 0.126632 
26.982 1 48 3.91636 6.09863 2.04451 1.57412 -1.26313 -1.40582 0.0282844 -0.0152787 -0.418703 0 0 0 0 0 0 -0.0302298 -0.0196283 -0.137694 3.80035 6.04191 1.88975 1.32077 -1.35207 -1.80034 0.038528 -0.0112991 -0.431971 4.22962 6.08343 2.1198 1.82911 -1.17255 -1.01115 0.0180329 -0.0192829 -0.405441 
26.982 1 81 -0.0763233 8.27083 -0.0916555 0.198965 1.71121 1.51189 -0.473474 -0.673056 0.837825 0 0 0 0 0 0 -0.118931 -0.00778032 -0.148796 -0.0559588 8.11536 0.036084 -0.246307 1.62807 2.11575 -0.488801 -0.687824 0.860489 0.148987 8.36433 -0.308137 0.645964 1.79476 0.907522 -0.458061 -0.658307 0.815174 
26.982 1 83 1.88994 8.10428 2.17052 2.49329 4.39228 -0.968164 -0.713967 -0.0902728 -0.797333 0 0 0 0 0 0 -0.152601 -0.00315523 -0.110327 1.75692 8.08449 2.08686 2.01959 4.75231 -1.23433 -0.744185 -0.0882591 -0.810924 2.24489 8.06191 2.1746 2.96908 4.03256 -0.701651 -0.683695 -0.0923311 -0.78373 
26.982 1 85 3.85218 8.04215 -0.0826209 -0.473416 -1.53959 3.44532 0.524784 0.236162 0.421923 0 0 0 0 0 0 -0.0161926 0.0652762 -0.264963 3.74642 8.00408 -0.234634 -0.932185 -1.50098 3.57679 0.543937 0.244129 0.434339 4.15505 8.01787 -0.0192588 -0.0134415 -1.57819 3.31309 0.505625 0.228167 0.409506 
26.982 1 242 1.96636 5.96201 3.90476 4.66222 -5.8418 0.347665 -0.685773 0.250516 0.40224 0 0 0 0 0 0 -0.139307 0.0190712 -0.062709 1.84969 5.92116 3.92278 4.54834 -5.49689 0.674705 -0.707111 0.257008 0.419698 2.30489 5.93042 3.81638 4.77819 -6.18699 0.0237099 -0.664411 0.244022 0.384781 
26.982 1 285 3.78705 8.11122 4.00456 -3.65634 0.40674 4.03016 0.664513 -0.0251388 0.281756 0 0 0 0 0 0 -0.0154651 -0.000706142 -0.0212511 3.55129 8.11024 3.8528 -4.37793 0.591147 3.8525 0.686291 -0.0263424 0.295001 4.21991 8.04961 4.08603 -2.93247 0.222964 4.21086 0.642714 -0.0239921 0.26848 
26.982 1 46 5.91569 6.02174 0.00782019 2.44636 -0.459368 2.54681 0.141953 -0.0357838 -0.229496 0 0 0 0 0 0 -0.0305665 -0.013051 -0.277439 5.87887 5.9409 0.18377 2.18801 -0.554433 3.13505 0.162023 -0.0332743 -0.247033 6.12453 6.03101 -0.256102 2.70456 -0.361463 1.96039 0.12178 -0.0383215 -0.211936 
26.982 1 52 7.81967 6.06114 2.15174 -1.95848 -3.35761 3.76207 0.388913 -0.0427489 -0.527082 0 0 0 0 0 0 0.0251107 0.0118607 -0.106445 7.9252 6.04298 2.31272 -1.90267 -3.3133 4.52285 0.411533 -0.0434683 -0.538344 7.86103 6.00801 1.91103 -2.01466 -3.39935 3.00364 0.36622 -0.0420911 -0.515789 
26.982 1 87 5.89594 8.14274 1.87793 3.51185 1.5261 4.67083 -0.212479 0.127338 0.449137 0 0 0 0 0 0 -0.00234646 0.0439071 -0.137254 5.82359 8.14366 1.82794 3.32252 1.55289 4.96058 -0.208112 0.129474 0.458046 6.14063 8.07948 1.84853 3.7021 1.4998 4.38241 -0.216932 0.125162 0.440228 
26.982 1 89 7.81762 8.04262 -0.00796709 2.72992 -0.858863 1.46598 0.449763 0.200414 0.0185561 0 0 0 0 0 0 0.0374906 0.0664756 -0.268303 7.98367 8.02572 0.0310358 3.0895 -0.875136 1.77711 0.468012 0.201927 0.0191405 7.79915 7.99804 -0.134968 2.37028 -0.841574 1.15687 0.4314 0.19889 0.0180037 
26.982 1 246 5.80987 6.11709 3.94881 -4.5708 -1.44076 -0.701082 0.311118 0.0220521 0.59564 0 0 0 0 0 0 0.00442987 0.0019503 -0.00379045 5.83817 6.172 3.71866 -4.64615 -1.39465 -1.25826 0.322065 0.0243839 0.612336 5.95317 5.9902 4.10885 -4.49505 -1.48493 -0.141724 0.300115 0.0196816 0.578904 
26.982 1 289 7.99375 8.07094 4.125 -0.295129 2.64993 -0.448653 -0.181269 -0.0338909 -0.166362 0 0 0 0 0 0 0.00744856 0.00569502 -0.0310615 8.14611 7.93689 4.04599 -0.131844 2.42204 -0.637776 -0.18031 -0.0375625 -0.17356 7.98847 8.14311 4.13338 -0.458569 2.87907 -0.256987 -0.182271 -0.0302331 -0.159159 
26.982 1 92 7.92567 10.1617 2.07697 6.12628 3.85467 1.57462 -0.156539 -0.708963 -0.38969 0 0 0 0 0 0 0.0175845 -0.0218338 -0.166177 7.9048 9.93485 1.87221 5.99484 3.55997 1.37501 -0.155993 -0.723728 -0.40131 8.0944 10.336 2.20262 6.25811 4.14905 1.7763 -0.157167 -0.694209 -0.37807 
26.982 1 286 5.90989 10.0974 3.95936 2.91343 -1.41617 -1.12704 -0.244664 -0.316886 -0.0335449 0 0 0 0 0 0 -0.00476325 -0.00887145 -0.0360482 5.87719 10.0043 3.88785 2.96989 -1.53952 -1.05818 -0.248003 -0.326309 -0.0312343 6.11529 10.1383 3.96123 2.85926 -1.29285 -1.19176 -0.241352 -0.307533 -0.0358903 
26.982 1 50 10.021 6.01962 0.189201 -4.50759 -3.47479 -2.47528 -0.433714 0.11112 0.0489717 0 0 0 0 0 0 0.0318205 0.0659713 -0.268422 10.1796 5.96455 0.0597615 -4.71417 -3.47595 -2.61009 -0.448233 0.113139 0.0447955 9.98482 6.0034 0.230908 -4.29978 -3.47138 -2.33922 -0.419227 0.109018 0.0531997 
26.982 1 56 12.19 6.06448 1.99143 -1.86477 -2.06073 -3.10618 -0.488699 0.00660652 0.186944 0 0 0 0 0 0 -0.0142511 0.0713581 -0.143281 12.2354 5.93643 2.06948 -1.89601 -2.19727 -2.73681 -0.499531 0.0211569 0.185652 12.2421 6.12184 1.83353 -1.83261 -1.92083 -3.47651 -0.477842 -0.00799923 0.188264 
26.982 1 91 9.88682 8.15445 2.16096 -1.73827 -0.705351 0.349052 0.424574 -0.395492 -0.0121905 0 0 0 0 0 0 0.0442457 0.030841 -0.167489 10.0179 8.13487 2.17675 -1.71225 -0.506598 0.655395 0.427966 -0.409327 -0.0156677 9.87837 8.11275 2.06617 -1.76353 -0.901919 0.0454548 0.421138 -0.381694 -0.00866352 
26.982 1 250 9.90202 5.89408 3.98169 -0.874503 0.661109 4.63362 0.451798 0.312584 0.018184 0 0 0 0 0 0 0.0109734 0.0279733 -0.0229198 10.0474 5.76742 4.09801 -0.723068 0.605844 5.43124 0.456601 0.328908 0.0299671 9.87855 5.9499 3.7939 -1.027 0.720367 3.83715 0.446961 0.296206 0.00644515 
26.982 1 293 12.2478 8.12418 3.95487 -4.63536 2.99432 1.40397 -0.481129 0.028186 -0.116515 0 0 0 0 0 0 -0.0135465 -0.000131994 -0.0557423 12.4112 7.95932 4.00519 -4.74468 2.65179 1.8691 -0.490204 0.0207388 -0.115008 12.1819 8.22781 3.83355 -4.52598 3.33894 0.940022 -0.472025 0.0356323 -0.117983 
26.982 1 54 14.2612 5.90173 -0.127589 -0.902589 0.212254 -1.01713 -0.211669 0.540638 -0.124765 0 0 0 0 0 0 -0.0478152 0.048712 -0.273466 14.1948 6.03829 -0.137394 -1.21627 0.491901 -0.823106 -0.218743 0.564195 -0.129714 14.4005 5.69443 -0.206703 -0.588602 -0.064157 -1.21202 -0.204535 0.517065 -0.119818 
26.982 1 60 16.4275 6.11622 1.93101 -3.37907 3.31386 -0.373908 -0.59225 0.0324772 -0.0572183 0 0 0 0 0 0 -0.0221024 0.0176844 -0.104966 16.4906 6.26403 1.69623 -3.32957 3.98661 -0.901168 -0.608397 0.0240507 -0.0567095 16.4131 5.89679 2.08574 -3.42862 2.64342 0.153001 -0.576086 0.0409155 -0.0577138 
26.982 1 95 14.3171 8.05553 1.86196 0.277953 5.39035 -1.56697 -0.230777 -0.00474059 0.311457 0 0 0 0 0 0 -0.0547752 0.060718 -0.177138 14.4466 8.08516 1.5727 0.433794 5.86226 -2.09055 -0.241906 -0.00361101 0.307557 14.2604 7.96457 2.07194 0.121544 4.92018 -1.04182 -0.219565 -0.0058413 0.315368 
26.982 1 97 16.2088 8.06764 -0.200329 -3.0902 1.54527 3.27334 0.26901 -0.126322 0.197472 0 0 0 0 0 0 -0.00149694 0.105424 -0.267382 16.1278 8.14828 -0.125536 -3.45777 2.00351 3.79195 0.27441 -0.140399 0.207533 16.3382 7.92496 -0.364203 -2.72329 1.08666 2.75432 0.263655 -0.112206 0.187417 
26.982 1 254 14.067 6.0756 3.88102 -1.54182 0.995747 -0.884866 0.65825 0.285891 0.417535 0 0 0 0 0 0 0.00261448 0.0202506 -0.0192365 14.163 5.9312 3.87532 -1.64291 0.876505 -0.764332 0.667327 0.303157 0.430879 14.0444 6.14925 3.81545 -1.44064 1.11919 -1.00707 0.649206 0.268621 0.404204 
26.982 1 297 16.3033 8.17009 3.91729 -4.39737 -3.10949 1.55505 -0.399339 -0.459732 0.311584 0 0 0 0 0 0 -0.0155094 -0.00192726 -0.0281158 16.3831 8.10223 3.69548 -4.40296 -3.15293 1.01618 -0.413824 -0.47737 0.320722 16.272 8.17663 4.06852 -4.39244 -3.06426 2.09539 -0.38483 -0.442087 0.302432 
26.982 1 58 18.231 6.21061 -0.111798 -3.77088 1.05767 0.791124 -0.00615964 -0.0156946 -0.0674412 0 0 0 0 0 0 0.040667 0.063109 -0.264904 18.0082 6.25501 -0.075585 -4.38771 1.4664 1.11334 -0.00883432 -0.0178293 -0.0598713 18.4779 6.09459 -0.237408 -3.15408 0.651134 0.467961 -0.0034871 -0.0135453 -0.0750189 
26.982 1 62 22.2027 6.03347 -0.0227317 0.589112 2.07231 -3.02695 0.212336 0.219165 0.263527 0 0 0 0 0 0 0.00856746 0.105015 -0.264703 22.2086 5.96263 -0.0774289 0.57592 2.1212 -3.01768 0.213796 0.225385 0.270791 22.173 6.0321 -0.056525 0.604034 2.02386 -3.03592 0.210895 0.21295 0.256264 
26.982 1 64 20.2932 6.13624 2.08007 -5.55808 -2.06374 3.49092 -0.390943 -0.24074 -0.260305 0 0 0 0 0 0 0.0071567 0.0522761 -0.129903 20.102 6.22725 1.84969 -6.07934 -1.91647 3.09232 -0.396872 -0.246993 -0.26234 20.4845 5.97305 2.23125 -5.03525 -2.21031 3.89002 -0.385009 -0.234495 -0.258239 
26.982 1 99 18.2469 8.37147 2.01663 4.3263 2.56435 3.72743 0.0941708 -0.81857 -0.221275 0 0 0 0 0 0 0.0380732 0.0395944 -0.185398 18.2537 8.48839 1.78902 4.26787 3.1485 3.28932 0.0980623 -0.845337 -0.223362 18.2646 8.19251 2.16475 4.38547 1.98053 4.16666 0.090263 -0.791785 -0.219198 
26.982 1 103 22.2087 8.11919 2.13675 -0.516901 2.45854 4.50042 0.45308 -0.104676 -0.520853 0 0 0 0 0 0 0.00803361 0.0540878 -0.208849 21.8867 8.10073 2.29687 -0.96823 2.56689 5.23978 0.470574 -0.101448 -0.529227 22.5067 8.0753 1.89742 -0.0643475 2.3487 3.7638 0.435615 -0.107942 -0.512476 
26.982 1 258 18.2523 5.97495 4.01079 -2.18185 -2.64063 1.50019 0.167242 0.396737 -0.029732 0 0 0 0 0 0 0.00866108 0.0131822 -0.0196418 18.3129 5.9415 3.87942 -2.1841 -2.56943 1.32606 0.171318 0.410244 -0.0356379 18.2164 5.93662 4.07142 -2.17759 -2.71073 1.67511 0.163197 0.383232 -0.0237934 
26.982 1 262 22.2606 5.84749 4.09342 -2.05235 0.8889 -1.65043 -0.137941 0.592808 0.260777 0 0 0 0 0 0 -0.00206785 0.0294833 -0.0158015 21.9544 5.85375 4.03031 -2.81831 1.20848 -1.56563 -0.138446 0.619028 0.268927 22.5425 5.76893 4.08585 -1.28499 0.569935 -1.7337 -0.137406 0.566588 0.252668 
26.982 1 301 20.2096 8.10489 3.96427 -1.56644 -2.02156 1.63047 -0.125215 0.166154 0.471979 0 0 0 0 0 0 0.0065509 0.0296099 -0.0438872 20.0826 7.94606 3.95597 -2.13152 -2.38878 1.65718 -0.124434 0.181405 0.480384 20.3367 8.20205 3.90229 -1.00047 -1.65445 1.60577 -0.126002 0.150866 0.463592 