ITEM: TIMESTEP
15075
ITEM: NUMBER OF ATOMS
4000
ITEM: BOX BOUNDS pp pp pp
-3.13807 43.6381
0.833916 39.6661
0.818352 39.6816
ITEM: ATOMS mass type id x y z vx vy vz fx fy fz xrad yrad zrad vxrad vyrad vzrad fxrad fyrad fzrad xub yub zub vxub vyub vzub fxub fyub fzub xlb ylb zlb vxlb vylb vzlb fxlb fylb fzlb 
26.982 1 43 -0.753632 4.71978 2.57454 -3.95284 -1.47131 0.723719 -0.233934 -0.118843 -0.243245 0 0 0 0 0 0 -0.0947777 -0.111331 -0.1835 -18.1291 2.99736 18.372 -5.25373 0.304514 3.18533 -0.230165 -0.121471 -0.241557 22.2112 5.21491 -14.622 -2.65561 -3.20838 -1.71221 -0.237748 -0.116268 -0.244897 
26.982 1 202 -0.831824 2.90203 4.71014 5.29194 -1.98373 -3.54511 -0.0194579 0.162419 -0.22521 0 0 0 0 0 0 -0.106465 -0.0979553 -0.118164 3.23499 -15.6108 5.02367 6.6035 -3.10688 -4.22608 -0.0255218 0.163001 -0.220911 0.697379 20.0521 3.3096 3.97692 -0.835842 -2.82219 -0.0134271 0.161775 -0.229534 
26.982 1 241 -3.10512 4.72125 4.43435 1.93495 -5.27429 0.664373 -0.0444348 -0.0512762 0.218923 0 0 0 0 0 0 -0.105111 -0.154997 -0.135965 -5.18857 12.469 -13.8921 3.97558 -5.71483 -2.36667 -0.0358979 -0.0621447 0.236511 5.08679 -4.16482 21.6435 -0.117023 -4.79004 3.73266 -0.0530423 -0.040409 0.201386 
26.982 1 3 -0.661073 0.851192 2.69433 -6.64861 -2.46142 -2.2274 -0.183013 0.0290007 0.900305 0 0 0 0 0 0 -0.10902 -0.144726 -0.154975 -4.23021 8.45051 22.071 -6.32506 -2.30244 -0.0199445 -0.186515 0.0277676 0.9295 8.4895 -8.45144 -18.0706 -6.97152 -2.61544 -4.42026 -0.179562 0.0302289 0.871154 
26.982 1 245 1.49579 4.6263 4.77118 -1.44627 0.838659 -1.59738 -0.168956 -0.358592 -0.346452 0 0 0 0 0 0 -0.0164294 -0.035498 -0.0515774 -3.42175 8.59886 2.93562 -2.88724 2.45137 -2.49464 -0.180956 -0.361328 -0.346179 11.4105 -0.503773 5.45386 0.00159035 -0.722655 -0.662893 -0.156943 -0.355917 -0.346749 
26.982 1 8 1.40496 2.86286 2.48434 -1.71347 3.75962 -3.79702 0.260624 0.235291 0.0668667 0 0 0 0 0 0 -9.95019e-05 -0.105962 -0.204321 -4.54037 17.6989 3.30071 -2.88767 4.97779 -2.55844 0.277624 0.246455 0.0749437 12.3284 -13.4061 0.342818 -0.537903 2.55842 -4.99587 0.243635 0.224101 0.0588882 
26.982 1 47 3.84089 4.98166 2.98359 -2.19892 4.20912 -1.51087 -0.0670065 -0.19266 0.00723043 0 0 0 0 0 0 0.0294212 -0.0564182 -0.214984 -4.09054 19.4241 -7.17644 -4.01212 5.4619 -5.34036 -0.0779232 -0.202333 -0.00908271 16.0859 -10.4796 11.8054 -0.38238 3.01976 2.33869 -0.056058 -0.18297 0.0235312 
26.982 1 206 3.90607 2.56388 4.78999 1.52483 -1.01452 0.445763 -0.147159 0.319662 -0.649054 0 0 0 0 0 0 0.0356251 -0.116245 -0.100263 9.62074 -11.4031 24.4339 1.70019 0.23964 3.7577 -0.157222 0.321352 -0.662891 2.49326 15.2144 -15.9209 1.34734 -2.20606 -2.82449 -0.137143 0.317956 -0.63522 
26.982 1 7 3.85595 1.17823 2.36364 -2.7277 7.25389 -3.15189 -0.0725086 0.0437408 0.152816 0 0 0 0 0 0 0.0385987 -0.164988 -0.174084 3.05004 36.6493 -1.55178 -1.98271 6.62286 -0.728114 -0.0748582 0.0470369 0.154293 8.90639 45.4778 5.01987 -3.48657 7.91964 -5.52435 -0.0702433 0.0404545 0.151519 
26.982 1 45 1.62576 5.21424 0.871058 -0.735352 -1.78768 4.29456 0.082437 0.146726 -0.160802 0 0 0 0 0 0 0.0244805 -0.0298438 -0.266503 0.0258245 5.75759 47.3171 -2.10752 -0.592363 5.8585 0.0806592 0.14468 -0.170216 8.20883 3.54415 34.238 0.640526 -2.93689 2.77228 0.0842177 0.148775 -0.151335 
26.982 1 205 1.54107 1.03893 4.5594 0.874712 -1.42187 -4.13705 -0.0211674 0.0110697 0.0905092 0 0 0 0 0 0 0.00208363 -0.175979 -0.140715 -5.16361 35.9122 2.77292 -0.14655 -0.98703 -3.31643 -0.0257427 0.00985526 0.0899047 13.162 45.8795 5.20209 1.88531 -1.83354 -4.92029 -0.0165771 0.0122341 0.091116 
26.982 1 249 5.98651 4.99662 4.77968 1.71843 3.50221 2.67814 0.898031 0.17032 -0.00355447 0 0 0 0 0 0 0.0277699 -0.0408572 -0.0592302 7.2325 -10.947 12.678 0.754003 -0.108244 4.0751 0.924676 0.160142 0.00437557 8.33291 19.8707 -4.25255 2.67606 7.15852 1.32279 0.87143 0.180488 -0.0115293 
26.982 1 12 6.1315 2.95442 2.86136 4.02848 0.203823 -1.27773 0.0544997 0.119906 0.183494 0 0 0 0 0 0 0.0059089 -0.114015 -0.214614 7.42308 8.10934 -6.28347 3.76519 0.847015 -3.27797 0.0651491 0.104804 0.167117 8.43301 -3.47823 10.7288 4.28157 -0.375445 0.761002 0.0438562 0.135061 0.199867 
26.982 1 51 8.62242 4.63997 2.55093 1.57173 4.20762 -1.78673 0.0697658 -0.575386 -0.251622 0 0 0 0 0 0 -0.0207169 -0.0541506 -0.249759 -6.01762 13.8828 -20.5159 0.962846 4.01366 -2.30446 0.0734659 -0.605627 -0.242119 26.2066 -5.64973 24.331 2.16747 4.46641 -1.21628 0.0660946 -0.545079 -0.261101 
26.982 1 210 8.40988 2.88678 4.70577 0.218621 -2.59354 3.70827 0.191213 0.0233068 -0.237014 0 0 0 0 0 0 -0.039294 -0.0872027 -0.107121 2.04159 6.58015 13.0915 -1.56253 -2.69591 5.6458 0.19117 0.0215446 -0.255067 17.7383 -2.17744 -4.90039 1.99341 -2.45078 1.81213 0.191274 0.0251292 -0.218999 
26.982 1 11 8.52873 0.849992 2.89853 0.521983 2.4847 -2.03945 -0.152881 0.19595 -0.275357 0 0 0 0 0 0 -0.0529056 -0.180074 -0.179761 1.92163 61.6484 -21.7392 -0.775675 6.94604 -4.55834 -0.159617 0.187813 -0.288927 18.1773 19.8072 26.1729 1.82511 -1.93259 0.511012 -0.146109 0.20415 -0.261722 
26.982 1 253 10.8301 4.59411 4.68134 0.0920506 -2.77001 -0.227599 0.390294 -0.290738 -0.210014 0 0 0 0 0 0 0.00680604 -0.0302806 -0.0653772 8.19966 1.22601 44.2125 -0.533055 -2.14627 6.47782 0.406201 -0.30129 -0.206844 15.9295 6.97105 -36.0083 0.716991 -3.33059 -6.88604 0.374448 -0.280128 -0.21319 
26.982 1 16 11.0038 2.99535 2.50598 1.69944 -0.228388 0.817524 -0.0968697 -0.216186 0.101232 0 0 0 0 0 0 -0.0587862 -0.0752866 -0.226911 9.0619 26.3495 -6.32584 -0.60794 3.5599 1.35091 -0.11342 -0.231506 0.112891 15.4659 -21.7252 9.93501 4.02467 -3.9791 0.318887 -0.0802884 -0.200848 0.0896109 
26.982 1 55 13.3137 4.64589 3.00496 3.75208 0.890575 -1.38294 0.128012 0.202219 0.21229 0 0 0 0 0 0 -0.0304792 0.0193459 -0.163517 12.698 8.66561 16.0171 2.91836 3.93656 2.17341 0.130883 0.207577 0.207855 15.8602 -0.444931 -11.2557 4.60538 -2.10149 -4.89419 0.125117 0.196881 0.216683 
26.982 1 214 13.423 2.44952 4.88217 1.45422 0.0841182 -4.23135 -0.231498 0.93605 -0.510828 0 0 0 0 0 0 -0.0163632 -0.0694652 -0.0569815 26.8448 6.56464 12.0843 2.15576 2.14675 -3.85529 -0.239834 0.954715 -0.522333 1.92438 -2.98088 -3.56914 0.773384 -1.94412 -4.57809 -0.223165 0.91743 -0.499394 
26.982 1 213 10.8567 0.97473 4.45184 -1.65824 2.36654 -0.408426 0.0571327 0.311447 0.19276 0 0 0 0 0 0 -0.023749 -0.166483 -0.127447 10.3279 3.33856 15.2139 -2.27617 4.06552 0.608223 0.0467242 0.319644 0.202539 13.8623 -2.97698 -7.57404 -1.01996 0.701296 -1.39344 0.0676095 0.303287 0.183042 
26.982 1 14 13.5205 2.9655 0.915323 3.26193 2.30197 -0.178911 -0.0664808 -0.128418 -0.260936 0 0 0 0 0 0 -0.0782481 -0.0209764 -0.263815 7.93139 33.2614 35.234 1.4848 7.51821 1.78597 -0.0653914 -0.135067 -0.265058 21.0464 -28.7187 46.4532 5.06497 -2.87601 -2.09119 -0.0675413 -0.12175 -0.256837 
26.982 1 15 13.1599 0.901051 2.74536 2.5793 1.03372 0.0212445 0.272384 0.195703 -0.372941 0 0 0 0 0 0 -0.0396351 -0.218742 -0.130366 11.243 41.4694 11.519 1.7515 2.76212 0.443149 0.278194 0.202158 -0.373282 16.9462 39.9746 -7.31519 3.42661 -0.67528 -0.351449 0.266614 0.189285 -0.372574 
26.982 1 20 15.656 2.89371 2.8752 -0.763172 0.710393 -4.75173 0.156585 0.441052 -0.475458 0 0 0 0 0 0 -0.00154493 -0.0477394 -0.115256 30.0655 -13.9409 7.14443 0.717484 -0.0333864 -3.8862 0.165598 0.445974 -0.489417 2.45514 18.4403 -2.67817 -2.23834 1.48646 -5.56625 0.147572 0.436166 -0.461559 
26.982 1 257 15.7681 4.71062 4.71222 2.58707 -3.29146 0.10842 -0.0833986 0.369364 0.326951 0 0 0 0 0 0 0.000138894 0.00703619 -0.0312935 23.353 -16.5425 14.7897 2.95122 -4.04088 3.92287 -0.0820997 0.386047 0.33855 9.43418 24.8293 -6.55342 2.23162 -2.5002 -3.66308 -0.0847196 0.3527 0.315423 
26.982 1 218 17.9848 2.96693 4.82377 4.91739 4.55918 -2.90764 0.243717 -0.446675 -0.412896 0 0 0 0 0 0 0.038569 -0.0853675 -0.0454981 7.3077 -3.58136 1.95211 3.30942 5.78724 -1.94578 0.249949 -0.459661 -0.421249 29.2077 8.25255 6.53118 6.5212 3.36852 -3.82726 0.237557 -0.433688 -0.404534 
26.982 1 17 15.5867 1.02522 1.11641 -0.55318 0.203235 -0.117694 0.393398 -0.384489 -0.618512 0 0 0 0 0 0 -0.00733107 -0.184732 -0.196242 28.2446 46.4864 32.6344 1.39183 4.21868 -2.03712 0.408285 -0.401271 -0.637303 4.08278 35.3382 49.4494 -2.5037 -3.75809 1.84986 0.378499 -0.367671 -0.599793 
26.982 1 217 15.8708 1.07137 4.66623 -2.16383 -0.0914528 1.6965 0.170556 -0.678389 0.200816 0 0 0 0 0 0 0.0122807 -0.19309 -0.0813151 32.3273 41.8579 10.2529 -0.0998386 1.37816 1.8449 0.180673 -0.699733 0.210716 0.596283 40.0362 -2.15377 -4.22509 -1.52952 1.57499 0.16043 -0.65707 0.190941 
26.982 1 57 15.9001 4.98434 0.956094 -0.627029 2.36873 2.06088 -0.0222697 -0.363832 -0.148205 0 0 0 0 0 0 -0.0192599 0.0490604 -0.268161 25.6297 27.8372 -10.4398 0.157894 6.86249 2.39507 -0.0262484 -0.368263 -0.145119 7.38344 -18.9975 11.009 -1.41105 -2.07643 1.77942 -0.0183123 -0.359431 -0.151389 
26.982 1 59 18.2752 4.83178 2.74283 -3.0537 -3.91505 7.24522 -0.47628 0.283811 0.166086 0 0 0 0 0 0 -0.0114508 0.0341979 -0.141959 30.7668 -10.2814 13.2001 -1.73573 -6.04027 10.8351 -0.488671 0.294836 0.170368 6.30589 18.7924 -8.95342 -4.37892 -1.77255 3.7114 -0.463844 0.272696 0.161764 
26.982 1 21 20.6226 0.933755 0.869531 -0.19521 0.8145 2.54115 -0.496009 -0.231474 -0.0103581 0 0 0 0 0 0 0.0420837 -0.189622 -0.136135 30.7435 -16.6891 1.66292 0.622605 0.328176 1.47924 -0.509296 -0.252203 0.00525917 10.5139 16.9122 -1.30465 -1.00745 1.33053 3.66272 -0.482564 -0.210684 -0.0260584 
26.982 1 24 20.4092 2.82113 2.98458 2.32137 -1.20757 1.90592 -0.0635002 -0.381492 -0.0236212 0 0 0 0 0 0 0.0377706 -0.156512 -0.0582381 10.7609 14.0235 14.4497 0.629198 1.3712 4.23502 -0.0699292 -0.394897 -0.0262739 29.9915 -9.59496 -9.78376 4.00659 -3.73198 -0.370925 -0.0569576 -0.36805 -0.0210357 
26.982 1 261 20.4059 4.90078 4.68364 -1.33347 3.18998 0.969101 -0.153166 0.342421 -0.34654 0 0 0 0 0 0 -0.00831722 -0.0200179 -0.0340488 20.3913 8.17783 2.78234 -1.68517 5.33073 1.41065 -0.165568 0.345871 -0.342412 20.3569 0.487124 5.42603 -0.990185 1.08617 0.565244 -0.140659 0.338875 -0.350647 
26.982 1 61 20.4537 4.71945 1.04434 3.39303 -2.41817 -0.35875 0.127007 -0.153656 -0.465886 0 0 0 0 0 0 -0.0229962 0.0232801 -0.275973 30.8785 -7.00246 -9.58081 4.42713 -3.78388 -1.22375 0.122218 -0.133445 -0.485511 9.9828 15.189 10.2931 2.36293 -1.0423 0.564713 0.131905 -0.173935 -0.446369 
26.982 1 18 18.152 2.79898 0.879087 2.90585 -2.60263 1.93536 -0.125041 0.399812 0.195465 0 0 0 0 0 0 -0.00121022 -0.0502995 -0.2502 30.6808 6.78773 3.62242 4.15577 -0.474772 1.67602 -0.137243 0.406388 0.201347 6.1255 -2.45221 -3.22882 1.64231 -4.68387 2.26539 -0.11277 0.393336 0.189485 
26.982 1 19 18.1646 0.986781 2.78362 -2.41939 -0.392554 1.84414 -0.0495396 -0.170624 0.525719 0 0 0 0 0 0 0.0437175 -0.239102 -0.0651879 36.7656 -2.27162 11.4029 -0.917821 1.95147 3.99109 -0.0513357 -0.183431 0.538392 0.0815101 2.70278 -7.13115 -3.93153 -2.691 -0.249228 -0.0477015 -0.157742 0.513083 
26.982 1 63 22.6984 4.85267 2.89268 6.46772 4.14061 -2.14672 0.0279169 -0.0890295 0.230999 0 0 0 0 0 0 0.00694405 -0.0427367 -0.102681 28.9093 23.783 10.0062 6.66357 7.58539 0.0999936 0.0273222 -0.0951507 0.230449 15.8982 -15.2299 -5.47828 6.27352 0.732706 -4.35087 0.0285684 -0.0829737 0.231509 
26.982 1 222 22.7947 2.79396 4.73373 1.57787 -3.83975 2.0458 -0.19343 -0.288552 -0.304012 0 0 0 0 0 0 0.0142044 -0.178216 -0.0860324 19.1237 16.788 7.43441 1.29806 -1.3856 3.63266 -0.197771 -0.294922 -0.303802 25.8351 -12.5003 0.869223 1.84485 -6.25393 0.490352 -0.18909 -0.282134 -0.304292 
26.982 1 28 24.9596 2.68709 2.85851 -4.33694 -1.56346 0.11603 0.230457 0.445657 -0.195268 0 0 0 0 0 0 0.00477494 -0.215846 -0.100659 28.3914 9.79078 16.5639 -3.30132 -1.54537 3.24779 0.237097 0.45871 -0.19436 20.3953 -5.66176 -12.3037 -5.37306 -1.53142 -3.00587 0.223777 0.432645 -0.196273 
26.982 1 265 25.0243 4.81657 4.92689 -2.77773 3.11922 2.52648 -0.121322 -0.168758 -0.043111 0 0 0 0 0 0 0.00862318 -0.0501687 -0.0362152 27.9382 -17.2935 3.59364 -2.10625 2.30541 4.22122 -0.112794 -0.176537 -0.0458657 20.948 25.7632 5.03458 -3.44744 3.97951 0.86071 -0.129919 -0.160961 -0.0404067 
26.982 1 65 24.8841 4.72277 0.968488 -0.242003 -1.50234 3.69754 0.358333 0.140347 0.19545 0 0 0 0 0 0 0.0500049 -0.0272813 -0.260555 24.715 26.7717 34.5349 0.912347 0.543036 7.25593 0.379157 0.149039 0.203705 23.9242 -18.579 -34.0092 -1.38803 -3.53444 0.183059 0.3375 0.131629 0.187161 
26.982 1 22 22.6527 2.77759 1.0399 -2.51104 -2.18586 1.26748 0.17431 0.630526 -0.02503 0 0 0 0 0 0 0.0519512 -0.139083 -0.19964 34.4967 17.3663 -4.48991 -1.778 -0.509146 -0.0741914 0.174676 0.641097 -0.0231239 10.2998 -13.0951 5.14365 -3.22953 -3.81442 2.65671 0.173979 0.619978 -0.0269993 
26.982 1 67 27.0863 5.035 2.84972 -0.36587 0.207543 0.854886 0.219235 -0.0948132 -0.243006 0 0 0 0 0 0 0.00163895 -0.00591562 -0.142734 26.5045 -4.45196 8.74445 -0.796917 -0.130071 1.3208 0.22311 -0.106569 -0.236727 25.9185 13.319 -4.39514 0.0704497 0.588335 0.415805 0.215321 -0.0831469 -0.249335 
26.982 1 226 27.4724 2.96809 4.38965 -1.32785 -3.27744 -5.18519 -0.202351 -0.517825 0.230656 0 0 0 0 0 0 -0.0431004 -0.131393 -0.0777568 27.9296 -8.17232 15.231 -1.30301 -4.88637 -2.95427 -0.211015 -0.521332 0.241207 25.2907 12.9596 -7.72928 -1.34246 -1.60932 -7.39963 -0.193693 -0.514343 0.220048 
26.982 1 32 29.6301 2.94849 2.72432 -2.41701 -0.855057 -3.98857 0.278576 -0.172382 0.184846 0 0 0 0 0 0 0.00331959 -0.120365 -0.104016 13.2461 10.3998 23.0154 -3.83995 1.30383 -1.53472 0.277604 -0.175269 0.194469 43.6325 -5.72612 -18.9336 -0.979812 -2.94905 -6.41341 0.279588 -0.169564 0.175152 
26.982 1 269 29.897 4.68959 4.76815 -1.28592 0.54411 -1.53813 -0.244538 0.118764 0.178618 0 0 0 0 0 0 -0.0157364 -0.0133118 -0.0350224 27.0161 14.657 24.7926 -2.02174 1.40187 1.16596 -0.26577 0.124834 0.181572 30.4526 -6.46368 -16.3662 -0.528643 -0.269608 -4.19997 -0.22325 0.112657 0.175607 
26.982 1 229 29.5345 0.945964 4.65469 7.55388 1.54333 1.15689 0.0532524 -0.171244 -0.333588 0 0 0 0 0 0 -0.00984552 -0.211808 -0.14727 17.9581 37.7096 26.65 6.42539 2.55289 3.43947 0.0488259 -0.19512 -0.314257 38.7777 44.131 -18.4895 8.70718 0.59387 -1.09321 0.0577009 -0.147343 -0.352988 
26.982 1 26 27.4844 2.68999 1.04572 2.57978 -3.00676 -1.54001 -0.398542 0.739916 -0.32922 0 0 0 0 0 0 -0.0614337 -0.122243 -0.20821 15.8246 18.7576 25.3049 1.54035 0.586213 1.45469 -0.407881 0.761449 -0.345301 37.4151 -14.6711 -24.6711 3.62417 -6.56 -4.49386 -0.389202 0.718351 -0.313251 
26.982 1 29 29.7611 0.877361 0.941233 -1.61769 0.454825 -1.82533 -0.602106 0.0303026 -0.16736 0 0 0 0 0 0 0.00145677 -0.198006 -0.1341 24.2186 -23.3874 59.0359 -2.31018 -1.49282 1.3995 -0.611172 0.0358275 -0.175008 32.8303 23.6076 22.5232 -0.927702 2.44131 -5.03342 -0.593046 0.0247429 -0.159819 
26.982 1 69 29.4576 4.95016 0.942215 -2.53885 0.521206 -5.81867 0.326538 -0.146417 -0.129137 0 0 0 0 0 0 -0.031648 0.0312161 -0.268468 26.3137 31.6153 12.5805 -2.91093 4.01069 -4.04852 0.334208 -0.142559 -0.13094 30.1824 -23.0052 -12.1431 -2.15765 -2.93253 -7.55084 0.318888 -0.150343 -0.127382 
26.982 1 71 32.0854 4.70058 2.71618 2.65792 -1.66229 -4.38912 -0.350392 -0.154221 -0.0392877 0 0 0 0 0 0 0.0312261 -0.0611238 -0.159214 30.255 17.4738 0.953936 2.77003 0.640985 -3.84089 -0.35391 -0.157768 -0.0547113 30.8323 -9.24973 3.26031 2.54618 -3.91579 -4.88364 -0.346856 -0.150704 -0.0238626 
26.982 1 230 31.8726 2.66685 4.66337 -0.0214612 3.2867 1.58119 0.0687516 0.290792 -0.0766353 0 0 0 0 0 0 0.0504006 -0.162419 -0.096162 15.4386 -5.76435 -4.10451 -1.92065 2.1785 -1.52913 0.0736974 0.276755 -0.0678854 45.2836 9.93178 12.3628 1.89068 4.46022 4.73798 0.0638498 0.304869 -0.0854289 
26.982 1 273 33.9971 4.42307 4.76377 1.68641 0.756603 -4.71945 1.00298 0.258895 0.0141269 0 0 0 0 0 0 0.0273346 -0.0750852 -0.0642599 43.1167 20.8684 -7.40257 3.30433 0.550596 -8.30297 1.02407 0.25476 -0.0022458 21.1197 -13.2366 15.7781 0.0556655 0.997098 -1.09592 0.981858 0.263044 0.0304568 
26.982 1 36 34.3443 2.78947 2.75766 6.05785 -0.642873 1.19391 -0.0618459 -0.263008 0.0738821 0 0 0 0 0 0 0.0214704 -0.195573 -0.143663 37.6785 -2.0749 -11.2398 8.71921 -2.14617 -1.77719 -0.0494148 -0.272501 0.0770448 27.2666 6.39025 15.5545 3.38113 0.911939 4.21247 -0.0742881 -0.253507 0.0707783 
26.982 1 30 31.696 2.70566 0.906139 -5.32581 -1.40737 4.52385 0.530071 0.779785 -0.216244 0 0 0 0 0 0 0.0892883 -0.100902 -0.211148 42.375 -17.9063 12.0596 -3.74486 -2.95328 7.85748 0.544155 0.80377 -0.225035 17.8643 21.9212 -11.7189 -6.916 0.180757 1.23443 0.515936 0.755772 -0.207456 
26.982 1 75 36.6682 4.78035 2.8131 2.14998 -0.882728 7.13327 -0.203329 -0.248074 -0.205794 0 0 0 0 0 0 0.000964161 -0.0833068 -0.152454 39.6605 21.5306 5.45833 2.64027 1.53009 7.55195 -0.202149 -0.261919 -0.20161 29.26 -13.2631 -1.01033 1.64004 -3.26555 6.78261 -0.204524 -0.234287 -0.209955 
26.982 1 234 36.5501 2.73105 4.68613 0.554304 -3.59669 0.901032 -0.00263803 0.362792 -0.0462993 0 0 0 0 0 0 -0.000944011 -0.180759 -0.106852 49.933 0.0316104 -1.86746 2.20246 -4.13082 -0.772474 -0.002732 0.361074 -0.0365242 18.7834 4.11951 10.2062 -1.11209 -3.01096 2.63269 -0.00256062 0.364482 -0.0560481 
26.982 1 40 38.8242 2.73601 2.75671 -1.31818 0.105173 4.3654 0.295504 0.34709 -0.100519 0 0 0 0 0 0 0.00192649 -0.188205 -0.137626 46.7577 21.1482 -8.31898 -0.977255 0.987855 3.02593 0.308418 0.342391 -0.100104 25.9027 -17.0421 12.6373 -1.65966 -0.740273 5.76024 0.282581 0.351756 -0.10091 
26.982 1 277 39.0554 4.48687 4.79248 2.73624 0.115389 -1.30587 -0.19171 -0.248367 -0.159304 0 0 0 0 0 0 -0.00616588 -0.06791 -0.0627256 36.8128 29.128 -4.84453 2.13923 2.24438 -1.6743 -0.192711 -0.240213 -0.162278 36.306 -21.3487 13.43 3.32744 -1.96704 -0.870025 -0.190733 -0.256505 -0.156332 
26.982 1 34 36.6031 2.78621 0.95812 0.0818072 -1.55604 -2.39052 -0.198346 -0.295919 -0.223855 0 0 0 0 0 0 -0.00332577 -0.124484 -0.203909 41.2754 22.8242 53.8812 0.9266 -0.500294 -1.30402 -0.203147 -0.318613 -0.23327 27.5758 -18.7971 27.8609 -0.780742 -2.59609 -3.44264 -0.19355 -0.273238 -0.214419 
26.982 1 4 43.5605 2.65981 2.71807 0.485615 -2.28433 -2.54717 0.0598172 0.115196 -0.136733 0 0 0 0 0 0 -0.00626807 -0.193432 -0.122902 23.5358 -1.08942 6.13721 0.0338201 -1.68507 -1.92479 0.0653543 0.131782 -0.120843 57.4902 5.03532 -1.94316 0.933345 -2.8529 -3.12671 0.0542367 0.0986059 -0.152611 
26.982 1 79 41.1963 4.62398 2.81449 5.5178 -3.80306 0.175477 0.0589853 -0.253735 -0.185617 0 0 0 0 0 0 -0.0234961 -0.0743033 -0.131346 30.9396 29.8043 -19.2667 4.36047 -0.651602 -3.19751 0.0663453 -0.251803 -0.181963 45.9125 -21.7817 23.7267 6.67623 -6.92509 3.59728 0.0516006 -0.255632 -0.189248 
26.982 1 238 41.2708 2.49521 4.76223 5.14286 -2.16573 5.04261 0.124664 0.440512 -0.245536 0 0 0 0 0 0 -0.000279888 -0.166244 -0.119455 48.0335 -5.61674 -6.91911 5.36013 -3.08094 3.6115 0.131859 0.461555 -0.244878 28.9308 9.2868 15.3929 4.92048 -1.2046 6.52492 0.117389 0.41948 -0.246152 
26.982 1 41 43.5287 4.73001 0.891693 -6.53564 -1.19278 -2.78869 -0.0575094 -0.192732 -0.0916542 0 0 0 0 0 0 0.0206512 -0.0738519 -0.26578 -12.7335 15.3373 7.98109 -6.3485 2.32316 -3.33124 -0.054996 -0.202141 -0.0998272 12.4235 -7.03888 -7.69856 -6.71862 -4.66784 -2.21078 -0.0601153 -0.183413 -0.0834957 
26.982 1 38 41.2447 2.50248 0.84104 2.42193 -3.96918 0.898683 -0.0753144 0.522785 -0.0178767 0 0 0 0 0 0 -0.0228108 -0.136706 -0.178064 32.3311 10.9842 65.3454 0.293051 -3.05293 3.80958 -0.0766556 0.549797 -0.00819263 44.6573 -7.2872 16.1914 4.56309 -4.84459 -1.96679 -0.0739834 0.495819 -0.0275901 
26.982 1 83 -0.678775 8.70203 2.95115 4.91418 5.9496 3.55167 -0.277976 -0.0150464 -0.199231 0 0 0 0 0 0 -0.0750021 -0.0122885 -0.188508 -4.65442 28.0262 11.7985 5.41293 5.87137 3.51736 -0.275195 -0.0143411 -0.202853 8.85272 -11.5149 -7.18132 4.41279 6.06475 3.64616 -0.28086 -0.0158126 -0.195669 
26.982 1 242 -0.767603 6.52162 4.54636 -7.00091 -0.135725 -2.77892 0.021749 -0.0853144 0.500935 0 0 0 0 0 0 -0.0788084 -0.00831925 -0.0780687 -9.93835 21.7417 15.25 -8.09021 1.46726 -1.02596 0.0352612 -0.0843738 0.519021 13.9414 -9.73501 -7.16982 -5.9234 -1.70425 -4.46525 0.00818157 -0.0863037 0.482853 
26.982 1 281 -3.06148 8.30131 4.74717 -2.50584 3.6697 4.3834 0.0433035 0.585866 0.291384 0 0 0 0 0 0 -0.109886 -0.076747 -0.168319 44.1866 37.6745 4.16689 -1.7666 5.25397 5.10851 0.0552042 0.594853 0.284829 37.0645 -21.9849 4.23168 -3.26347 2.09883 3.71636 0.0312494 0.576814 0.297941 
26.982 1 42 -0.811528 6.95947 0.933511 -5.21363 -0.673165 -1.3857 -0.132871 -0.17962 0.0319824 0 0 0 0 0 0 -0.104382 0.0110496 -0.232166 -0.26968 20.7414 9.48809 -3.58041 2.36388 -1.91901 -0.129155 -0.194344 0.0294018 4.2718 -7.86599 -9.19292 -6.84184 -3.67622 -0.823099 -0.136655 -0.164947 0.0346036 
26.982 1 48 1.65814 6.83984 2.91613 4.20655 3.0127 0.439045 -0.257135 0.5747 0.32133 0 0 0 0 0 0 -0.00713305 0.0143032 -0.168366 -23.3701 35.1165 -18.4502 0.885249 8.09063 -3.52154 -0.268703 0.579183 0.315604 31.7254 -22.5182 22.893 7.54572 -2.02293 4.41644 -0.245559 0.570142 0.327025 
26.982 1 285 1.48135 9.02747 4.79894 -3.76862 -2.60884 -0.747588 0.24767 -0.300127 0.0811096 0 0 0 0 0 0 -0.00478246 0.00197386 -0.0246982 -21.4857 30.4825 4.05919 -6.6467 0.281482 0.120142 0.254126 -0.293327 0.0989951 29.4979 -13.4135 4.32962 -0.876435 -5.46817 -1.5775 0.241232 -0.307016 0.0631536 
26.982 1 87 4.10855 8.27281 2.66699 2.9637 1.30521 0.402595 -0.207709 0.536203 -0.346687 0 0 0 0 0 0 -0.0336889 -0.0211566 -0.18675 -7.15331 14.987 10.895 0.461451 1.89471 2.09575 -0.232206 0.561223 -0.346865 19.789 0.729601 -6.90065 5.49 0.770289 -1.24793 -0.183097 0.511184 -0.346541 
26.982 1 246 3.77642 6.89055 4.92429 3.64524 0.974909 1.45644 0.070346 0.574717 -0.0202881 0 0 0 0 0 0 -0.0109849 0.0172698 -0.0329811 10.9531 10.7782 17.4971 3.88877 -0.36552 3.39496 0.0569524 0.598494 -0.0111501 0.998651 1.98325 -8.89531 3.41965 2.35274 -0.447691 0.0838055 0.550884 -0.0294927 
26.982 1 88 1.74523 10.2043 2.39235 2.96851 -0.699444 2.47662 0.198507 -0.125621 -0.269471 0 0 0 0 0 0 -0.0393308 -0.0451297 -0.18958 -19.3394 20.9912 12.1968 -0.298373 0.261679 4.70614 0.212377 -0.130355 -0.259985 27.9142 -1.30635 -8.78522 6.26177 -1.61855 0.295032 0.184711 -0.120871 -0.279021 
26.982 1 286 4.43126 10.2729 4.60927 0.74328 0.433279 -0.496832 -0.835705 -0.0351483 -0.123041 0 0 0 0 0 0 -0.0420926 -0.00397092 -0.0233624 0.794343 30.8717 44.294 -0.683077 3.1693 5.54702 -0.872602 -0.0298835 -0.117219 12.5553 -11.1817 -36.4373 2.19546 -2.29336 -6.53539 -0.798686 -0.0404086 -0.128981 
26.982 1 289 6.20752 8.08782 4.71509 -2.07606 -1.35012 2.72929 0.512785 0.214255 -0.00827856 0 0 0 0 0 0 0.00469678 -0.0144797 -0.032623 20.2705 12.2839 34.0952 -0.684894 0.434836 7.67826 0.517676 0.213538 -0.00306398 -4.18964 3.00285 -25.9154 -3.46249 -3.09593 -2.19928 0.50802 0.214962 -0.0136241 
26.982 1 52 6.43925 6.50277 2.46987 -2.8639 -2.10855 -0.319483 -0.042244 -0.139941 0.325306 0 0 0 0 0 0 0.0025787 -0.0742771 -0.221822 13.8258 4.34158 14.2478 -1.89653 -3.34737 2.25094 -0.0466523 -0.146062 0.342271 2.65065 7.69799 -10.5106 -3.83514 -0.808955 -2.84075 -0.0377615 -0.133749 0.30832 
26.982 1 91 8.62125 8.47187 2.79393 0.115032 0.102706 0.792258 0.0688596 -0.0391076 0.270663 0 0 0 0 0 0 0.000264927 -0.0615114 -0.1485 15.141 3.86014 11.1779 1.18875 -0.811202 2.11504 0.0653547 -0.0494232 0.278382 5.04522 12.2252 -6.8298 -0.976901 1.06696 -0.496499 0.0723734 -0.0287786 0.262903 
26.982 1 250 8.82378 6.35491 4.52576 -0.996739 0.131104 1.26251 -0.425171 0.613664 0.210261 0 0 0 0 0 0 -0.0180281 -0.0104231 -0.0563965 12.0044 14.6047 36.7741 -0.523727 -0.113022 4.61689 -0.439558 0.618281 0.233568 8.59298 -2.71232 -29.1499 -1.48466 0.445881 -2.09206 -0.410749 0.609164 0.186935 
26.982 1 92 6.59079 10.3763 2.97564 2.64494 -0.201399 2.71232 -0.365468 -0.0446298 -0.109231 0 0 0 0 0 0 -0.0148357 -0.00552158 -0.101443 5.43242 9.24298 16.0044 2.19137 -0.388487 2.8822 -0.379901 -0.034191 -0.117708 11.3995 10.8519 -11.2729 3.10088 0.0306317 2.58708 -0.350912 -0.0550876 -0.100823 
26.982 1 290 8.69853 10.4703 4.88142 1.77924 3.89683 -1.15577 0.21598 0.0517124 -0.41752 0 0 0 0 0 0 0.00494053 0.0108927 -0.017977 14.5577 29.7685 53.1467 2.47989 5.60751 4.1141 0.216878 0.0650642 -0.417276 5.80666 -9.61893 -44.5864 1.06917 2.2095 -6.41288 0.215145 0.038359 -0.417857 
26.982 1 90 8.53255 10.5069 0.951496 0.209322 -1.42979 3.18159 0.111534 0.359549 -0.505955 0 0 0 0 0 0 0.027392 0.0144249 -0.292247 17.1099 -3.36958 39.9747 1.40037 -3.37973 2.57715 0.112341 0.389476 -0.529086 2.93039 23.8532 41.8328 -0.997828 0.58203 3.84067 0.110732 0.329589 -0.482872 
26.982 1 89 6.25288 8.70495 0.885378 -1.95047 0.0819841 -1.5842 0.328596 0.10743 -0.0330639 0 0 0 0 0 0 -0.0185612 -0.0772107 -0.283396 17.5383 18.8565 -18.8576 -0.515428 -0.0286603 -5.05156 0.329599 0.108482 -0.0373711 -1.45873 -2.25946 19.2589 -3.39124 0.24957 1.92189 0.327743 0.106344 -0.0287805 
26.982 1 293 10.975 8.44024 4.6357 -1.07999 3.42119 2.05309 -0.35078 0.246112 -0.249688 0 0 0 0 0 0 -0.0081814 -0.00346472 -0.043917 12.5906 29.9861 45.3182 0.420207 5.15099 7.51663 -0.359389 0.251178 -0.243057 11.7741 -14.1008 -37.2925 -2.59239 1.71584 -3.40372 -0.342182 0.241105 -0.256324 
26.982 1 56 11.0992 6.43598 2.58276 3.61593 -0.957834 -3.75602 -0.179325 0.332525 0.298783 0 0 0 0 0 0 -0.00514491 -0.0398158 -0.212858 17.6684 12.6334 18.1585 3.8548 -2.40169 -1.03101 -0.176782 0.34125 0.312721 7.01471 -0.717892 -14.2228 3.37439 0.541425 -6.43207 -0.181892 0.323927 0.284884 
26.982 1 95 12.9325 8.68639 2.69028 0.455843 -4.04259 3.03614 0.555411 -0.320123 -0.538468 0 0 0 0 0 0 0.0270287 -0.0515713 -0.16758 9.30361 18.4745 -9.3936 0.748083 -5.77543 2.75094 0.577517 -0.334595 -0.54462 18.4089 -2.0846 13.562 0.161556 -2.29818 3.37057 0.533217 -0.305689 -0.532296 
26.982 1 254 13.4737 6.93073 4.57746 -4.73445 0.434619 0.850282 0.165314 -0.305151 -0.113238 0 0 0 0 0 0 0.00622952 -0.0311711 -0.0652626 7.44431 1.10088 45.4743 -5.32062 -0.697646 8.83243 0.173943 -0.329278 -0.120117 21.4182 11.8144 -37.595 -4.14108 1.60563 -7.10121 0.156604 -0.281042 -0.106334 
26.982 1 294 13.2537 10.3904 4.70898 2.9877 0.710804 1.439 -0.0451498 0.579263 -0.0640442 0 0 0 0 0 0 0.000941039 0.0441454 -0.0392475 17.1455 41.7851 -0.914755 3.85541 3.38349 0.688443 -0.046162 0.622218 -0.0704302 11.1972 -21.922 9.161 2.1075 -1.95635 2.21471 -0.0442843 0.536295 -0.0576299 
26.982 1 93 10.8404 8.75994 0.928873 2.50018 -1.43041 2.51162 -0.23257 -0.721391 -0.725703 0 0 0 0 0 0 0.00280053 -0.0692239 -0.295356 10.1296 2.26742 41.9255 3.11761 -4.52413 2.87473 -0.227319 -0.737338 -0.747987 14.0198 14.457 39.9041 1.8789 1.70034 2.209 -0.237877 -0.705464 -0.703442 
26.982 1 60 15.9418 6.76047 2.98891 0.477655 -0.902676 -3.44161 -0.18052 0.0122415 -0.0959336 0 0 0 0 0 0 0.0014792 0.0091948 -0.151104 30.8824 6.76349 -2.39925 2.01509 -1.04498 -1.7762 -0.182646 0.0220692 -0.105325 2.21055 5.66891 7.10624 -1.0555 -0.735214 -5.06027 -0.178498 0.0023912 -0.0866164 
26.982 1 297 15.6581 8.93148 4.71741 -1.72282 1.82683 -4.02914 0.110316 -0.330585 0.200683 0 0 0 0 0 0 0.0114873 -0.0146974 -0.0421559 26.5083 40.0769 1.37457 -0.601196 7.08896 -3.97692 0.118208 -0.341384 0.20455 6.06844 -23.129 6.87009 -2.84096 -3.39813 -4.05563 0.102243 -0.31987 0.196887 
26.982 1 99 17.9164 8.78579 2.93284 0.210917 -4.41825 0.759953 0.237858 -0.603426 -0.418345 0 0 0 0 0 0 0.0447668 -0.0341727 -0.167982 25.9437 19.7168 9.25284 2.14817 -1.98868 4.05982 0.262296 -0.611951 -0.43267 10.4949 -3.09191 -4.63317 -1.72315 -6.81016 -2.49275 0.213473 -0.594978 -0.404138 
26.982 1 258 18.0543 6.84122 4.90709 0.380862 -3.33907 0.168006 0.385185 -0.50006 -0.549766 0 0 0 0 0 0 0.0190319 0.0212625 -0.052619 16.528 8.31759 5.33871 1.01835 -3.96232 -0.209424 0.404102 -0.480994 -0.567414 20.1165 4.32098 3.28867 -0.260904 -2.69795 0.571561 0.366339 -0.51918 -0.532115 
26.982 1 100 15.2537 10.5228 2.58161 -0.559734 3.11845 -4.4584 0.228068 0.373922 0.134756 0 0 0 0 0 0 0.0170526 0.046531 -0.157985 19.0585 46.9937 -16.7337 -0.404411 6.06326 -6.40233 0.237635 0.387821 0.139667 12.7087 -26.7365 20.5995 -0.714563 0.185277 -2.47786 0.21839 0.360026 0.129826 
26.982 1 97 15.5105 8.44719 0.909055 4.32237 -2.38145 2.72851 0.165542 0.469583 0.128917 0 0 0 0 0 0 0.00370101 -0.0289422 -0.269002 22.2876 7.2136 18.0612 5.10343 -3.8034 5.11912 0.166836 0.486714 0.134586 9.96714 8.81548 -17.7387 3.54468 -0.924147 0.374946 0.164142 0.452445 0.12316 
26.982 1 64 20.5526 6.78957 2.55245 3.70371 -0.976993 7.05582 -0.281434 0.681352 0.517408 0 0 0 0 0 0 -0.0537427 0.0723368 -0.165973 22.0976 2.9662 0.0110505 3.66315 -0.857942 8.43958 -0.301677 0.702902 0.535886 18.9506 9.63235 3.81528 3.73731 -1.05921 5.71768 -0.261064 0.659702 0.498987 
26.982 1 301 20.6926 8.54447 4.81028 1.2355 -2.00372 4.67652 -0.770088 0.111072 -0.28104 0 0 0 0 0 0 -0.0375305 0.00626598 -0.0625678 14.8383 -4.07522 1.52636 0.707552 -2.36375 4.94786 -0.806587 0.115598 -0.296384 26.4965 20.2549 6.97031 1.76746 -1.61756 4.44773 -0.733402 0.106512 -0.265677 
26.982 1 104 20.3921 10.4754 2.75898 3.66657 -0.0941571 -2.30332 -0.256949 0.158106 0.624786 0 0 0 0 0 0 0.00432471 -0.0219666 -0.187559 24.055 37.2396 16.9176 4.14483 3.82072 0.0309444 -0.286407 0.160059 0.621941 16.7181 -17.1238 -12.6361 3.18635 -3.99324 -4.59537 -0.227374 0.156198 0.627613 
26.982 1 105 25.0042 8.72449 0.874134 3.53592 -4.43633 0.796164 -0.0525224 -0.198127 0.152328 0 0 0 0 0 0 0.00369781 0.0103532 -0.273527 23.1172 21.4063 55.9544 3.44814 -2.71231 1.43399 -0.0448339 -0.202597 0.159002 25.6829 -4.92975 25.4823 3.63 -6.14566 0.181857 -0.0602084 -0.19368 0.145663 
26.982 1 103 22.7571 8.81427 2.79091 -0.418416 -0.00554507 -4.89744 -0.0639851 -0.166094 -0.136938 0 0 0 0 0 0 -0.0414956 0.0405851 -0.18364 16.3493 22.9612 -2.53211 -1.50962 1.23069 -7.25594 -0.0748089 -0.169515 -0.13662 28.5044 -6.11595 6.8611 0.674464 -1.19312 -2.49619 -0.0530317 -0.162706 -0.137196 