ITEM: TIMESTEP
14425
ITEM: NUMBER OF ATOMS
4000
ITEM: BOX BOUNDS pp pp pp
-3.00596 43.506
0.760981 39.739
0.831705 39.6683
ITEM: ATOMS mass type id x y z vx vy vz fx fy fz xrad yrad zrad vxrad vyrad vzrad fxrad fyrad fzrad xub yub zub vxub vyub vzub fxub fyub fzub xlb ylb zlb vxlb vylb vzlb fxlb fylb fzlb 
26.982 1 43 -0.537268 4.62516 2.87767 -0.085045 1.18514 2.02621 -0.399307 0.00535918 -0.21 0 0 0 0 0 0 -0.102843 -0.108002 -0.216506 -16.9092 1.83538 17.2267 -1.71909 2.91925 4.31814 -0.415168 -0.00953311 -0.223238 21.1853 6.28299 -12.9132 1.55105 -0.515908 -0.236538 -0.383367 0.0202638 -0.196805 
26.982 1 202 -0.656442 2.54604 4.83776 2.37629 -2.51136 -0.472244 -0.351806 0.209363 -0.441928 0 0 0 0 0 0 -0.0743679 -0.155315 -0.188545 2.75684 -15.0202 5.35093 3.11171 -4.15513 -0.927346 -0.373536 0.21356 -0.456209 1.28647 18.8626 3.18964 1.64346 -0.836862 0.0247291 -0.330094 0.205214 -0.427641 
26.982 1 241 -3.05291 4.65662 4.6511 0.750793 -0.639597 4.46397 0.26865 -0.15207 0.221862 0 0 0 0 0 0 -0.0924785 -0.156248 -0.153123 -6.12889 11.9974 -11.5171 1.85009 0.18395 1.02421 0.275469 -0.162574 0.233514 5.87092 -3.73638 19.661 -0.356566 -1.42128 7.93557 0.26186 -0.141586 0.210292 
26.982 1 245 1.61667 4.72615 4.76781 4.73397 -1.23627 0.89515 0.124002 -0.560134 -0.408118 0 0 0 0 0 0 -0.017531 -0.0752079 -0.0744061 -2.47557 7.90678 3.56584 3.2981 -0.370383 0.472686 0.125309 -0.590765 -0.414477 10.4885 0.475675 4.77002 6.17888 -2.06058 1.35582 0.122751 -0.529463 -0.401761 
26.982 1 8 1.55781 2.71755 2.54847 -4.82601 5.8712 0.345518 0.106629 -0.0114491 0.386173 0 0 0 0 0 0 -0.0612616 -0.186481 -0.160165 -3.97719 16.9936 2.78957 -5.74207 7.402 0.638997 0.102707 -0.0219523 0.415595 11.8556 -12.871 0.932962 -3.9023 4.35779 0.0855173 0.110642 -0.000906166 0.356762 
26.982 1 47 3.94872 4.69491 2.68462 -1.11288 -2.55308 1.01909 -0.218417 0.0216787 0.293026 0 0 0 0 0 0 0.0289239 -0.0870343 -0.185045 -3.27392 18.3003 -5.48873 -2.26124 -0.902812 -1.20089 -0.221676 0.0165328 0.306868 15.2971 -9.85079 9.47784 0.0413713 -4.14421 3.26843 -0.215147 0.0268852 0.279138 
26.982 1 206 3.92683 2.69107 4.45656 1.5836 -3.20105 0.884818 -0.347777 -0.265343 0.516559 0 0 0 0 0 0 -0.00687639 -0.149289 -0.077314 9.30071 -11.57 22.0629 1.97057 -2.54865 3.75344 -0.360736 -0.281797 0.544027 2.66955 15.7293 -14.2669 1.20011 -3.80162 -1.9432 -0.334867 -0.248835 0.489075 
26.982 1 7 4.03862 0.717166 2.51096 -2.3849 1.1705 1.71211 -0.29697 0.100139 0.70888 0 0 0 0 0 0 -0.00511883 -0.18348 -0.133982 2.69378 36.6322 -2.65001 -2.18787 1.42748 3.14255 -0.306856 0.0862315 0.744772 9.44839 44.6949 6.35486 -2.58576 0.946662 0.330477 -0.287097 0.114104 0.673005 
26.982 1 45 1.72317 4.92935 0.923818 -3.77173 4.95766 -0.0134195 -0.338564 -0.250872 -0.250586 0 0 0 0 0 0 -0.0606309 -0.0510215 -0.27034 0.743786 4.62845 46.4849 -4.92447 6.1915 1.13474 -0.355498 -0.264515 -0.257448 7.46895 4.19168 35.1241 -2.60989 3.76845 -1.12787 -0.321544 -0.23726 -0.243732 
26.982 1 249 6.0394 4.58975 4.77161 -1.3687 -1.69774 -3.0078 0.329153 0.117331 -0.549497 0 0 0 0 0 0 0.0207896 -0.0497112 -0.083098 7.57701 -9.55532 12.0166 -1.77928 -3.70528 -2.0626 0.338755 0.111558 -0.559274 7.94029 17.7487 -3.65603 -0.964622 0.358111 -3.91355 0.319535 0.12321 -0.539821 
26.982 1 12 6.16803 2.62807 2.69106 -2.97865 4.85189 1.22477 0.292376 0.0937996 0.0123752 0 0 0 0 0 0 0.0543085 -0.14512 -0.203695 7.65889 7.26207 -5.74277 -3.51166 5.97027 0.6082 0.308886 0.0810447 0.019282 8.1177 -3.18901 9.79965 -2.45554 3.78079 1.87919 0.275825 0.106616 0.00540083 
26.982 1 51 8.47674 4.32459 2.63845 -1.59533 -5.64395 -4.82265 0.00272112 0.00696782 0.387571 0 0 0 0 0 0 -0.00182847 -0.0559266 -0.249818 -5.81343 13.4355 -19.7008 -2.40036 -5.5482 -6.25583 0.000932189 0.00808578 0.402531 25.5874 -5.75495 23.6365 -0.805017 -5.68819 -3.34829 0.00449722 0.00595378 0.372657 
26.982 1 210 8.56044 2.70779 4.86988 -4.3512 0.0674306 7.14005 0.393027 0.0764476 -0.478564 0 0 0 0 0 0 -0.0321542 -0.133329 -0.143145 2.93231 6.06593 12.0484 -5.06647 1.37073 9.44754 0.392393 0.0634849 -0.495885 17.0223 -1.91413 -3.57699 -3.64767 -1.20354 4.8724 0.393749 0.0894467 -0.461282 
26.982 1 253 10.8327 4.49248 4.67429 -2.71089 2.70942 -4.05495 0.00421471 -0.429184 -0.047635 0 0 0 0 0 0 -0.0157317 -0.0512148 -0.0978793 8.56586 0.530848 39.9231 -3.43896 3.77622 2.17569 -0.00612177 -0.439399 -0.0560542 15.4628 7.54047 -31.782 -1.98321 1.7025 -10.2456 0.0145818 -0.418918 -0.0391846 
26.982 1 16 10.9613 2.62954 2.62185 -2.43862 3.67097 -0.0149262 -0.1823 -0.0299229 0.260997 0 0 0 0 0 0 -0.0483728 -0.143189 -0.220633 10.1781 23.5856 -6.40291 -4.03451 7.56786 0.247344 -0.197976 -0.0356009 0.25831 14.15 -19.5793 10.1999 -0.832235 -0.202475 -0.251057 -0.166568 -0.0242342 0.263744 
26.982 1 55 13.1833 4.59315 2.84774 -1.46718 -5.43487 -5.45956 0.099231 0.351652 -0.39121 0 0 0 0 0 0 -0.000364774 -0.0298032 -0.214627 12.9071 7.01195 13.5696 -2.09971 -3.43747 -2.74703 0.112153 0.354243 -0.404363 15.2976 1.18688 -9.17377 -0.816707 -7.37792 -8.13185 0.0863325 0.349081 -0.37804 
26.982 1 214 13.0554 2.73487 4.60402 2.47256 -4.95576 -1.11551 0.37983 0.00021008 0.379755 0 0 0 0 0 0 0.0448873 -0.148513 -0.121016 25.809 5.82162 11.2667 3.64358 -3.43666 -0.335852 0.387406 -0.0106843 0.389728 2.13253 -1.55835 -3.3483 1.32173 -6.43808 -1.86984 0.37222 0.0110815 0.369797 
26.982 1 213 11.0306 0.738214 4.79487 -0.766155 -0.699527 5.17022 -0.322508 0.128857 -0.382958 0 0 0 0 0 0 -0.0131506 -0.173047 -0.210878 10.7626 2.08538 14.6087 -1.10613 1.03587 7.37181 -0.348339 0.12945 -0.392275 13.6595 -2.07041 -6.32495 -0.416124 -2.40497 3.00085 -0.296623 0.128281 -0.373655 
26.982 1 14 13.3474 2.73676 0.871246 -1.38921 2.07582 0.269533 -0.279059 -0.213514 0.156456 0 0 0 0 0 0 0.0034958 -0.0872617 -0.208092 8.75285 29.6068 34.189 -2.73376 6.8292 1.83351 -0.287457 -0.208093 0.162173 19.7865 -25.4135 47.3505 -0.0258083 -2.64595 -1.24545 -0.270558 -0.218957 0.150771 
26.982 1 20 15.6638 2.64295 2.81244 0.197 2.19869 -1.58713 -0.235822 0.253293 0.0321716 0 0 0 0 0 0 -0.00633198 -0.160883 -0.164943 28.9897 -13.8238 6.75325 1.87605 2.24629 -1.677 -0.238524 0.259397 0.0444326 3.49045 17.9307 -2.47046 -1.4768 2.18671 -1.44939 -0.233127 0.247188 0.0198532 
26.982 1 257 15.5236 4.659 4.64881 -0.199732 -0.323004 4.76568 0.245623 -0.323015 0.214934 0 0 0 0 0 0 0.01103 -0.0606025 -0.0639543 22.9421 -16.0657 12.5719 0.178686 -2.0932 7.92392 0.262577 -0.328052 0.225163 9.29621 24.338 -4.5104 -0.567426 1.48934 1.64687 0.228588 -0.318014 0.204597 
26.982 1 218 17.9342 2.62173 4.67988 -3.14098 -0.20795 -3.16596 -0.0977278 -0.318644 -0.112603 0 0 0 0 0 0 -0.0223456 -0.146074 -0.0786915 8.33377 -4.44361 1.76625 -4.86097 0.445063 -4.00903 -0.105944 -0.325862 -0.0938047 28.0572 8.53013 6.38146 -1.42573 -0.822931 -2.2876 -0.0895116 -0.311447 -0.131531 
26.982 1 59 17.8092 4.51046 2.66716 -1.91047 -3.36669 0.135279 -0.202255 0.500061 0.327767 0 0 0 0 0 0 -0.0420643 -0.0731375 -0.173956 29.5354 -9.49281 11.6985 -0.82614 -4.76323 1.66964 -0.209097 0.525649 0.345737 6.58314 17.4614 -7.6625 -3.0021 -1.94226 -1.34951 -0.195446 0.474408 0.309773 
26.982 1 19 17.9707 0.457838 2.76963 2.24188 -6.67328 1.84838 -0.0790173 0.186796 -0.187658 0 0 0 0 0 0 -0.0137317 -0.172931 -0.124562 35.709 -3.84854 10.2314 3.53433 -5.40113 3.55109 -0.0824552 0.184659 -0.181786 0.731575 3.34465 -6.04762 0.93859 -7.91455 0.199519 -0.0756259 0.188974 -0.193585 
26.982 1 24 20.0606 2.7278 2.62217 -4.61528 1.86596 -3.24157 0.460738 -0.0578412 0.294768 0 0 0 0 0 0 -0.0103603 -0.183875 -0.144015 11.4105 12.4523 12.7322 -6.1024 4.66113 -1.58608 0.465464 -0.0668332 0.305249 28.651 -8.11534 -8.84884 -3.13733 -0.873219 -4.84746 0.455994 -0.0488785 0.284238 
26.982 1 261 19.9889 4.59813 4.75562 -2.20037 2.04593 1.1809 0.467031 -0.0394186 -0.197909 0 0 0 0 0 0 0.00341218 -0.025291 -0.0531407 19.8066 6.54888 2.84771 -1.68785 3.45946 1.11079 0.474259 -0.0161442 -0.199547 20.1127 1.60239 5.45955 -2.72006 0.668919 1.28848 0.459831 -0.0627616 -0.196394 
26.982 1 61 20.3009 4.68592 0.717991 1.70395 2.43908 2.88756 -0.224296 -0.104983 -0.0177962 0 0 0 0 0 0 -0.00637614 -0.0111185 -0.266696 30.1111 -5.78207 -9.24023 2.68353 0.992657 1.20123 -0.233672 -0.10456 -0.0164164 10.444 14.0091 9.2303 0.725181 3.90275 4.63995 -0.214919 -0.10552 -0.0192041 
26.982 1 63 22.3613 4.63024 2.73364 0.965872 -0.514234 1.86876 0.0563341 0.133914 -0.0376644 0 0 0 0 0 0 -0.00210284 -0.0042041 -0.148931 28.4075 21.514 8.57346 1.33217 2.42502 3.38706 0.0568833 0.146525 -0.0323418 15.7529 -13.3143 -4.41515 0.599907 -3.41581 0.39233 0.055788 0.121239 -0.0430562 
26.982 1 222 22.5147 2.68689 4.55581 -2.78915 -1.50927 2.68368 -0.348129 -0.0751303 -0.0154763 0 0 0 0 0 0 -0.0395184 -0.131015 -0.108019 18.8623 15.2571 6.49297 -3.0049 0.965544 3.56464 -0.354089 -0.0652725 -0.0113944 25.5707 -11.0786 1.41274 -2.58375 -3.94465 1.83402 -0.34219 -0.0849944 -0.0196253 
26.982 1 28 24.9065 2.43005 2.63196 -1.64175 -0.950793 4.95489 -0.178647 0.440727 0.030214 0 0 0 0 0 0 0.00302327 -0.183378 -0.151701 27.7032 9.48115 14.9272 -0.79381 -1.07183 6.41512 -0.173784 0.456926 0.0417096 21.0307 -5.76854 -11.1503 -2.48845 -0.777719 3.50321 -0.183526 0.424579 0.0186915 
26.982 1 265 24.9344 4.42922 4.53093 4.15651 4.57428 1.44025 -0.405397 0.216892 0.426988 0 0 0 0 0 0 -0.00324423 -0.0192476 -0.043219 27.495 -16.9365 2.44584 4.73046 3.51093 1.90685 -0.40538 0.233492 0.444414 21.2639 24.7182 5.35174 3.58392 5.68376 0.999283 -0.405406 0.200317 0.409528 
26.982 1 225 24.5121 0.840642 4.82828 0.764756 -0.718994 -0.537225 0.904867 -0.955074 -0.998938 0 0 0 0 0 0 -0.00576966 -0.190772 -0.189256 31.5857 17.2045 13.1341 1.8276 0.63007 2.41709 0.925561 -0.98404 -1.01511 16.2462 -16.9702 -4.68121 -0.310729 -2.03472 -3.45252 0.884142 -0.926162 -0.982905 
26.982 1 65 24.6811 4.59538 0.84234 0.671961 8.19596 -0.522367 0.215642 0.016674 0.0665563 0 0 0 0 0 0 0.000969053 0.0191209 -0.26189 23.6624 25.492 32.3722 1.89148 10.3763 2.20963 0.214923 0.0346172 0.0688547 24.6193 -17.449 -32.1545 -0.540138 6.0348 -3.21026 0.216346 -0.00127411 0.064209 
26.982 1 22 22.5101 2.68662 0.699545 -0.962957 1.95217 0.722633 -0.0355612 -0.0929644 0.273327 0 0 0 0 0 0 -0.00823486 -0.144124 -0.198363 33.716 16.3489 -3.83714 -0.0343252 3.54348 -1.17864 -0.034236 -0.106026 0.28008 10.8136 -12.1596 3.74917 -1.87869 0.407886 2.67741 -0.0368971 -0.0799098 0.266577 
26.982 1 67 27.1653 4.72049 2.8403 -0.445713 1.69587 -0.735357 0.0341081 -0.497365 0.988169 0 0 0 0 0 0 -0.00463028 0.00604851 -0.148496 26.8622 -4.34968 8.99864 -0.770222 0.889211 -0.903272 0.037402 -0.49256 0.999269 25.7959 12.6773 -4.71084 -0.119931 2.54046 -0.538078 0.0308402 -0.502174 0.976989 
26.982 1 226 27.0144 2.59409 4.75704 -2.12932 -6.00818 1.11009 0.0414941 0.191192 -0.312995 0 0 0 0 0 0 0.00203217 -0.104262 -0.0961518 27.3138 -7.74593 14.0799 -1.90168 -7.59111 3.34307 0.0455743 0.199587 -0.305505 25.065 11.8756 -5.87894 -2.35126 -4.36709 -1.09819 0.0374238 0.18284 -0.320556 
26.982 1 32 29.4669 2.81226 2.8413 4.21286 0.183366 -4.47533 -0.053975 0.387144 -0.23349 0 0 0 0 0 0 -0.0413253 -0.142893 -0.143289 14.0337 8.74701 21.4915 3.19111 2.65905 -2.53141 -0.0504756 0.382297 -0.221788 42.6162 -4.25195 -17.2198 5.24214 -2.23654 -6.38688 -0.0574508 0.391992 -0.24525 
26.982 1 269 29.3639 4.69683 4.94061 -2.49284 0.723038 5.05075 0.195193 -0.127312 -0.437565 0 0 0 0 0 0 -0.0158606 -0.00662078 -0.0402887 26.7363 14.1513 23.1519 -2.34282 1.28186 8.02765 0.191412 -0.123096 -0.446455 29.7613 -5.85369 -14.43 -2.6303 0.201354 2.12012 0.198971 -0.131517 -0.428781 
26.982 1 26 27.145 3.06686 0.768584 0.283326 3.21906 4.01198 0.00776472 -0.629718 -0.108182 0 0 0 0 0 0 -0.00244158 -0.125041 -0.217749 16.2699 17.0456 23.0561 -0.773492 6.60759 6.4106 0.0056257 -0.654519 -0.101377 36.3667 -12.0987 -23.0289 1.34375 -0.120239 1.65239 0.00993087 -0.604924 -0.115014 
26.982 1 229 29.2195 0.930311 4.66952 0.0266735 7.95215 0.318423 0.210142 -0.439539 -0.108361 0 0 0 0 0 0 -0.0440506 -0.189779 -0.158346 18.5691 36.9053 25.3973 -1.29923 9.80383 2.16388 0.204584 -0.450032 -0.107642 37.6277 45.0154 -17.2485 1.36915 6.15547 -1.49495 0.215712 -0.429082 -0.109093 
26.982 1 69 29.4483 4.78772 0.852847 4.43729 5.99964 -2.82864 0.256267 -0.00473944 -0.337148 0 0 0 0 0 0 -0.033682 0.00906274 -0.262836 26.6269 29.2412 11.3729 4.36974 9.69962 -1.51169 0.260774 -0.0192394 -0.337902 29.9511 -20.8558 -11.1673 4.50786 2.32473 -4.10425 0.251791 0.00969282 -0.336469 
26.982 1 233 34.2118 0.816224 4.49856 0.964683 0.506977 -3.28214 -0.43439 -0.235378 0.45385 0 0 0 0 0 0 0.00213058 -0.18626 -0.138289 34.4402 38.1959 -11.3062 2.59512 1.75088 -5.89552 -0.449564 -0.239552 0.464532 30.4863 43.4575 19.2599 -0.66861 -0.689201 -0.610822 -0.419255 -0.23116 0.443157 
26.982 1 31 31.6366 0.847422 2.90103 -3.66492 0.912571 -2.26911 0.256013 0.302904 -1.91034e-06 0 0 0 0 0 0 -0.00377535 -0.230789 -0.164902 29.2169 19.0321 3.81235 -3.81122 -0.361833 -3.63596 0.268502 0.301119 -0.00538097 31.0886 62.7143 0.629157 -3.52143 2.22806 -0.872268 0.243553 0.304718 0.0052904 
26.982 1 71 31.7279 4.91265 2.71851 2.61664 -2.68211 2.98918 -0.0989918 -0.120855 -0.104745 0 0 0 0 0 0 -0.00469405 -0.0075224 -0.12694 29.9098 16.3409 0.510771 2.79483 -0.518244 3.39873 -0.106861 -0.121749 -0.0958638 30.5939 -7.60526 3.64832 2.43781 -4.79571 2.6337 -0.0911603 -0.120004 -0.113695 
26.982 1 230 31.7535 3.0616 4.63458 -2.17772 5.74609 1.08417 0.0245563 -0.660648 -0.0380375 0 0 0 0 0 0 0.000350936 -0.0856899 -0.0436716 16.5955 -4.49408 -2.3659 -4.01934 4.92667 -1.42032 0.0317658 -0.683198 -0.0237967 44.0132 9.54457 10.5172 -0.327366 6.6209 3.63518 0.0173974 -0.638144 -0.0522827 
26.982 1 273 34.1042 4.73958 4.71593 3.8696 -4.00464 -4.49683 -0.12337 0.421948 0.300073 0 0 0 0 0 0 0.0123435 -0.000317238 -0.0366859 42.4181 21.2377 -5.64535 5.12234 -3.44003 -6.88423 -0.122346 0.423509 0.313341 22.1979 -12.8777 13.878 2.61046 -4.53535 -2.0711 -0.124381 0.420305 0.286817 
26.982 1 36 34.1182 2.94513 2.81361 5.89021 2.11763 -2.0103 -0.32113 -0.446173 -0.418477 0 0 0 0 0 0 0.0365676 -0.129184 -0.189666 36.2396 -1.1467 -9.35309 7.60285 1.31994 -5.20962 -0.328376 -0.469507 -0.430421 28.4196 5.87452 13.7246 4.16867 2.95822 1.23509 -0.313906 -0.422882 -0.406564 
26.982 1 30 31.6299 2.77042 0.876482 1.69058 5.7389 -3.51273 0.333752 0.23562 0.123907 0 0 0 0 0 0 0.0100977 -0.128132 -0.252261 41.3487 -16.7289 10.1194 3.55607 4.34288 -1.34486 0.337506 0.225702 0.129115 18.8954 20.9814 -9.89153 -0.183864 7.16744 -5.63595 0.329967 0.245541 0.118645 
26.982 1 73 33.881 4.79993 0.921466 -0.48641 2.38927 0.524325 0.2476 -0.502051 -0.73757 0 0 0 0 0 0 0.066437 -0.0226777 -0.292979 32.8246 23.4129 18.3526 -0.0646457 5.13191 4.26039 0.256365 -0.505625 -0.759086 31.2988 -14.9813 -17.9196 -0.925836 -0.327399 -3.14397 0.238721 -0.498502 -0.716144 
26.982 1 75 36.2848 4.79624 2.85684 -2.61756 3.68766 -2.91847 0.637198 -0.0148219 -0.260788 0 0 0 0 0 0 0.0304249 -0.0312194 -0.197757 39.1101 19.8991 5.50136 -2.67129 6.6555 -3.35536 0.651821 -0.0100563 -0.285872 29.2402 -11.5009 -1.03293 -2.57885 0.747302 -2.41886 0.622536 -0.0196663 -0.235718 
26.982 1 234 36.2711 2.80551 4.64437 7.52494 3.88308 -1.85622 0.528736 -0.184558 -0.262375 0 0 0 0 0 0 0.0542802 -0.0949383 -0.081466 48.6686 0.406987 -0.878458 8.97252 3.72777 -3.6675 0.549084 -0.18893 -0.252169 19.6843 3.99359 9.07713 6.06672 4.08355 0.00534961 0.508374 -0.180153 -0.272578 
26.982 1 40 38.7123 2.60431 2.61151 -1.22375 0.52173 -5.92378 0.25628 -0.138131 0.592899 0 0 0 0 0 0 0.00549538 -0.166581 -0.165216 46.5695 20.2608 -7.51922 -1.06099 2.0247 -7.65532 0.255142 -0.137077 0.610371 26.08 -16.3111 11.486 -1.39209 -0.945108 -4.13189 0.257399 -0.139213 0.575493 
26.982 1 277 38.7959 4.47821 4.51192 -7.03564 -0.0466454 -0.452889 -0.0897094 0.0581345 0.472419 0 0 0 0 0 0 0.00769491 -0.0491276 -0.0464018 37.0089 27.7598 -5.1222 -7.75035 2.54471 0.0523851 -0.0860809 0.0708221 0.486428 35.8052 -19.9089 13.0813 -6.32623 -2.60273 -0.893553 -0.0933631 0.045451 0.458431 
26.982 1 35 36.3535 0.80114 2.75567 5.10513 4.71889 -7.22029 0.433982 -0.140539 0.257834 0 0 0 0 0 0 0.0484111 -0.187942 -0.184495 27.4088 5.16295 5.88155 4.59165 5.25572 -7.90567 0.447033 -0.150604 0.268549 41.173 -4.83203 -1.63543 5.61163 4.2348 -6.49142 0.420936 -0.130488 0.247106 
26.982 1 77 38.7996 4.68023 0.997078 5.34402 -1.03021 -1.22414 -0.278029 0.466471 -0.453395 0 0 0 0 0 0 -0.0322686 -0.0637206 -0.277079 38.3646 13.7423 15.5851 5.56688 -0.740226 -6.68703 -0.285655 0.49071 -0.485863 34.5119 -5.52965 66.087 5.12089 -1.30078 4.26174 -0.270434 0.442191 -0.420915 
26.982 1 4 43.3177 2.62019 2.78627 1.51531 -3.04997 -1.40742 0.689304 0.562864 0.234151 0 0 0 0 0 0 0.0742594 -0.127214 -0.194261 24.16 -1.00127 5.84451 0.306465 -3.99463 -1.39311 0.717352 0.588268 0.245963 56.6434 4.97918 -1.56733 2.72374 -2.07421 -1.37747 0.661246 0.537493 0.222354 
26.982 1 79 41.1365 4.47514 2.80983 -2.11424 3.11077 -1.99117 0.00861857 0.420107 -0.139041 0 0 0 0 0 0 0.047112 -0.0735178 -0.19302 31.816 27.7604 -16.9731 -3.35839 6.19761 -5.84791 0.0181087 0.447632 -0.14432 45.1524 -19.9391 21.3668 -0.871031 0.0508267 1.91297 -0.000880661 0.392568 -0.133751 
26.982 1 238 41.1804 2.68256 4.74626 -2.04275 2.51836 -1.78939 -0.184752 -0.127752 0.222582 0 0 0 0 0 0 0.00347779 -0.129825 -0.0837028 47.9218 -4.48452 -5.81007 -1.5225 1.26208 -3.81227 -0.187142 -0.129724 0.230918 29.1021 8.6346 14.2001 -2.56966 3.81405 0.278308 -0.182388 -0.125822 0.214211 
26.982 1 39 41.36 0.806533 2.77387 1.33491 -0.36707 1.49785 -0.643776 -0.481981 -0.0079552 0 0 0 0 0 0 0.00750612 -0.187645 -0.15558 38.701 35.7564 14.0783 1.32368 -0.821131 2.9016 -0.642667 -0.49587 -0.00492374 38.7463 45.7471 -9.72634 1.35464 0.125935 0.154291 -0.644909 -0.468162 -0.0109928 
26.982 1 83 -0.464377 8.53974 2.82208 2.38399 -3.18372 4.02772 -0.585991 -0.0577851 0.043244 0 0 0 0 0 0 -0.0689873 0.0118063 -0.262506 -4.47114 27.6467 11.7473 2.32574 -3.22124 4.47191 -0.617522 -0.0580668 0.0353729 8.85906 -11.3969 -7.45198 2.44389 -3.1126 3.64002 -0.554394 -0.0574878 0.0511662 
26.982 1 242 -0.674076 6.60095 4.76746 0.892592 -2.82247 1.19439 -0.0624733 -0.100797 -0.520357 0 0 0 0 0 0 -0.0648005 -0.0203624 -0.110711 -9.15955 20.641 14.6669 -0.123483 -1.20533 2.64092 -0.0766753 -0.11095 -0.539094 13.1162 -8.39714 -6.21055 1.90096 -4.40475 -0.187001 -0.0481737 -0.0906029 -0.501596 
26.982 1 44 -3.01355 6.59428 2.6257 1.85043 0.359975 1.31096 0.0242094 0.0513988 0.473909 0 0 0 0 0 0 -0.143638 -0.0416094 -0.216264 35.8703 35.8927 1.42143 2.81993 5.44995 0.756115 0.0264353 0.0525516 0.486159 45.3368 -23.6696 2.48409 0.882549 -4.69409 1.91483 0.0220567 0.0502712 0.461705 
26.982 1 281 -2.90684 8.6401 4.72982 -1.21802 0.227326 1.91584 -0.120981 -0.48153 -0.128068 0 0 0 0 0 0 -0.108496 -0.0612139 -0.139406 44.0069 36.9783 3.963 -0.922369 1.83997 2.31965 -0.136746 -0.500968 -0.135488 37.2979 -20.5332 4.34196 -1.52606 -1.36941 1.56668 -0.105139 -0.46213 -0.120627 
26.982 1 48 1.66873 6.73156 2.93188 -2.73507 0.949723 -3.62889 0.130987 -0.487952 -0.299313 0 0 0 0 0 0 -0.0439225 0.00860408 -0.196132 -21.2721 31.6252 -16.0974 -5.999 5.99322 -6.75199 0.124013 -0.512478 -0.311998 29.424 -19.1643 20.5334 0.54743 -4.05664 -0.490732 0.138028 -0.463441 -0.286613 
26.982 1 285 1.73283 8.59627 4.72023 3.83592 -3.52068 -1.13139 0.0446037 -0.265634 0.623305 0 0 0 0 0 0 -0.00789316 0.00102803 -0.0574328 -19.5757 27.9838 3.87884 1.36668 -0.133959 -0.796276 0.0513435 -0.272069 0.638917 27.8696 -11.7035 4.30558 6.31755 -6.88744 -1.43209 0.0379002 -0.259235 0.60766 
26.982 1 87 4.05274 8.54889 2.85806 2.62071 -1.65987 0.00626832 -0.0118802 -0.280079 -0.303046 0 0 0 0 0 0 0.00423944 -0.00521571 -0.184543 -6.07179 14.9916 10.4935 0.88508 -1.41136 0.719959 -0.00172349 -0.285292 -0.312639 18.3975 1.33384 -6.16649 4.37536 -1.8651 -0.67374 -0.0220513 -0.274914 -0.293422 
26.982 1 246 4.01604 6.60685 4.70906 -0.912115 -1.68112 3.16171 -0.220707 -0.0377336 0.136221 0 0 0 0 0 0 0.00655946 -0.00981076 -0.0524478 10.8274 10.8641 16.3394 -0.73657 -2.14556 4.92156 -0.221437 -0.0465001 0.140163 1.4077 1.40686 -8.21173 -1.07154 -1.18118 1.43033 -0.220005 -0.0289557 0.132214 
26.982 1 88 1.66542 10.5078 2.90108 0.904613 -5.92314 4.89862 0.10683 -0.0477224 -0.25897 0 0 0 0 0 0 -0.0560973 0.0402058 -0.24182 -17.5113 20.6412 11.7473 -1.689 -5.0606 6.17129 0.099063 -0.0277748 -0.276979 25.6988 -0.303113 -7.37334 3.52041 -6.74568 3.67036 0.114624 -0.0676657 -0.240948 
26.982 1 46 3.93157 6.61598 0.769101 -2.39708 2.20809 -1.94697 -0.0279098 0.324628 -0.198771 0 0 0 0 0 0 0.0306047 0.017915 -0.278673 -8.58578 -2.55372 16.0216 -5.00406 1.76063 1.07251 -0.0311821 0.344413 -0.201158 20.5582 14.8901 -15.8835 0.214831 2.70173 -4.91364 -0.0246259 0.304817 -0.196312 
26.982 1 289 6.33029 8.43771 4.5995 -2.47929 -0.40956 1.70041 -0.177477 0.00266851 0.155297 0 0 0 0 0 0 0.00148558 0.00211376 -0.0623135 19.045 11.7609 31.137 -0.775534 0.101186 6.113 -0.177864 0.014443 0.164772 -2.87835 4.29108 -23.226 -4.17804 -0.888374 -2.69163 -0.177124 -0.00911861 0.145786 
26.982 1 52 6.11963 6.35897 2.60054 3.11839 3.59117 2.42121 0.437494 0.499493 0.428403 0 0 0 0 0 0 0.0667108 -0.0108631 -0.225929 12.6138 4.68877 13.262 4.33793 2.79359 4.04191 0.450818 0.518998 0.440277 3.06947 7.13245 -9.32171 1.89362 4.43579 0.847829 0.424128 0.480034 0.416533 
26.982 1 91 8.53408 8.46206 2.81625 2.76426 -4.98553 -6.75896 0.27172 -0.121995 -0.197471 0 0 0 0 0 0 -0.0193064 -0.0613433 -0.212232 14.2492 4.3262 10.2786 3.56132 -6.0181 -5.16768 0.273042 -0.133609 -0.215007 5.64029 11.7981 -5.93273 1.95603 -3.91008 -8.31342 0.270407 -0.110466 -0.179964 
26.982 1 250 8.64805 6.32381 4.5267 3.54826 -3.31823 3.21058 -0.41173 -0.160824 -0.140452 0 0 0 0 0 0 -0.0181474 -0.0114217 -0.107501 11.1804 14.4688 34.9204 4.3193 -3.49561 6.32354 -0.426716 -0.152715 -0.150303 8.94294 -2.57797 -27.3165 2.76543 -3.07964 0.0945998 -0.396713 -0.16888 -0.130617 
26.982 1 92 6.55467 10.6659 2.94034 -3.90163 0.635925 1.78001 -0.289187 -0.49079 -0.62311 0 0 0 0 0 0 -0.00555698 -0.0520556 -0.165675 5.38684 9.70484 15.714 -4.37505 0.610518 2.63948 -0.283587 -0.507043 -0.643283 11.2143 11.0156 -11.1087 -3.4255 0.700555 0.969533 -0.29481 -0.474624 -0.602963 
26.982 1 290 8.78099 10.2957 4.78047 2.30722 6.73356 3.51213 0.319781 0.619127 0.0866984 0 0 0 0 0 0 0.0181791 0.00696543 -0.0316298 14.0063 28.7232 49.6136 2.68978 8.17437 9.54423 0.335141 0.633697 0.0988042 6.39564 -8.86503 -41.2867 1.92237 5.31677 -2.5025 0.304459 0.604513 0.0745285 
26.982 1 293 10.9826 8.29546 4.8663 -1.03252 2.11636 4.75262 -0.324954 1.04447 -0.796652 0 0 0 0 0 0 -0.00434438 0.0349727 -0.0633325 11.9261 28.6519 42.1544 -0.416824 3.41415 10.6095 -0.33051 1.08384 -0.805621 12.3531 -12.9833 -33.6959 -1.65361 0.841973 -1.08725 -0.319388 1.00508 -0.787738 
26.982 1 56 10.9093 6.43616 2.86186 -0.230295 0.0471331 3.11677 -0.155023 0.188737 -0.113379 0 0 0 0 0 0 -0.0152887 -0.0338182 -0.232841 17.3938 13.0945 16.7707 -0.215763 -0.130896 5.61395 -0.161685 0.202655 -0.122226 6.80301 -1.10888 -12.3318 -0.242567 0.2778 0.666261 -0.148345 0.174873 -0.104493 
26.982 1 95 13.1044 8.23409 2.82108 2.29099 3.85246 4.51778 0.113258 0.184716 0.802489 0 0 0 0 0 0 0.0100223 0.0276525 -0.202461 9.54061 18.5336 -8.66539 1.94015 3.39814 3.65126 0.126231 0.206436 0.811844 18.434 -2.97045 13.042 2.64043 4.32206 5.43029 0.100224 0.162991 0.793143 
26.982 1 254 13.4265 6.40856 4.88589 -4.26722 -5.1631 4.84909 -0.733135 -0.056638 -0.510796 0 0 0 0 0 0 0.00320399 -0.00344998 -0.0638175 7.71671 0.878777 41.0637 -5.00524 -6.44774 12.1262 -0.731082 -0.0480697 -0.522461 20.9649 11.0648 -32.6073 -3.51887 -3.83107 -2.39498 -0.735289 -0.0652225 -0.499188 
26.982 1 93 10.9495 8.52619 1.06615 -5.18991 -0.340778 -3.45022 -0.393322 -0.312857 -0.513171 0 0 0 0 0 0 0.0121279 -0.0274497 -0.287163 10.1116 3.35602 41.8668 -5.40806 -1.80412 -3.91227 -0.411453 -0.310928 -0.531732 14.1491 12.9617 40.1734 -4.97001 1.16575 -2.93304 -0.375202 -0.314797 -0.494604 
26.982 1 60 15.37 6.53184 2.56526 3.13607 -4.25839 -0.210404 0.433678 -0.0949154 -0.0729333 0 0 0 0 0 0 -0.0195366 -0.0289363 -0.203049 29.1703 6.5697 -3.83617 5.36915 -4.54228 0.946929 0.45078 -0.0797176 -0.0756932 2.72205 5.48941 7.6411 0.906778 -3.94579 -1.32144 0.4165 -0.110148 -0.0701709 
26.982 1 297 15.4984 8.5209 4.46989 3.27024 4.35162 3.04562 0.0312718 0.688358 -0.0363735 0 0 0 0 0 0 0.0103009 0.0362297 -0.0613347 25.5599 36.4123 0.808693 4.87529 9.53093 3.80057 0.0465242 0.718723 -0.0289792 6.6395 -20.2149 6.90211 1.66881 -0.802598 2.31801 0.0159005 0.657995 -0.0438101 
26.982 1 99 17.8425 8.61507 2.62823 -2.29408 -0.0764509 -1.00809 0.0879452 -0.0654453 0.12137 0 0 0 0 0 0 0.0368519 0.041545 -0.183266 24.9983 18.2818 6.5474 -1.17261 1.21658 2.68975 0.0935692 -0.0643648 0.133895 11.2637 -1.9305 -2.5917 -3.4148 -1.33958 -4.66044 0.0822616 -0.0665707 0.108841 
26.982 1 258 17.6569 6.62236 4.57849 0.0526124 -2.80972 -1.30003 0.19132 -0.178801 0.183258 0 0 0 0 0 0 0.00771086 0.00267699 -0.0325761 16.1361 8.24654 4.92938 -0.335455 -3.38006 -1.01779 0.198697 -0.168514 0.208514 19.6892 4.04313 3.0005 0.434707 -2.21986 -1.55113 0.183888 -0.18916 0.157964 
26.982 1 97 15.5038 8.6475 0.747899 -0.749218 -2.34965 2.84639 0.300234 -0.229922 0.214449 0 0 0 0 0 0 -0.0307229 0.0414367 -0.264044 21.8427 8.39755 16.3854 0.104392 -3.90812 5.13839 0.311729 -0.24233 0.219042 10.3427 8.09733 -16.4366 -1.60354 -0.76077 0.592327 0.288671 -0.217568 0.209845 
26.982 1 58 17.8439 6.59498 0.716316 -3.76745 1.31402 1.2543 0.0479304 -0.153113 0.0136616 0 0 0 0 0 0 -0.00286467 0.00370856 -0.274528 3.35392 48.406 18.7011 -4.08858 6.57193 3.63842 0.0461404 -0.147951 0.00500577 32.8518 -36.1871 -18.6233 -3.45505 -3.91431 -1.04559 0.0496836 -0.158393 0.0222653 
26.982 1 64 19.8503 6.30205 2.83417 -2.92556 -4.71643 1.22701 0.440118 0.856326 -0.261267 0 0 0 0 0 0 0.0298993 0.0533456 -0.160176 21.5619 2.43017 -0.274449 -3.30436 -5.20959 1.71782 0.44527 0.888597 -0.258908 18.0856 9.2704 4.60935 -2.55345 -4.18787 0.787078 0.434959 0.823979 -0.263701 
26.982 1 301 20.2359 8.58894 4.64267 1.88165 -4.10628 0.570537 0.031727 0.0461625 -0.382547 0 0 0 0 0 0 -0.00263511 0.00537544 -0.0655816 14.5358 -3.75016 0.875736 1.96941 -4.77913 1.15437 0.0267601 0.0472412 -0.379313 25.8837 20.0906 7.23651 1.79679 -3.41353 0.0294411 0.0367183 0.0450982 -0.385781 
26.982 1 105 24.9374 8.70091 0.926812 -3.02811 -0.724657 0.658411 -0.202904 -0.697506 -0.509929 0 0 0 0 0 0 0.0418797 -0.00893497 -0.280615 23.025 20.6742 55.8343 -3.04909 0.164627 0.873318 -0.203483 -0.706481 -0.52806 25.6929 -4.16687 25.6621 -3.00566 -1.59798 0.4739 -0.202305 -0.688611 -0.491826 
26.982 1 103 22.5945 8.53379 2.6697 -3.66426 -4.80935 -6.57686 -0.123496 0.459309 0.248448 0 0 0 0 0 0 -0.047854 -0.0183341 -0.181834 16.5611 21.687 -1.46673 -3.99229 -3.55931 -8.35718 -0.130452 0.464282 0.263554 27.9933 -5.34754 5.50148 -3.33568 -6.01424 -4.75206 -0.116491 0.454298 0.233339 
26.982 1 262 22.5231 6.64913 4.6706 1.68992 -3.58746 -0.758358 -0.344056 0.0439449 0.0234655 0 0 0 0 0 0 -0.0135309 0.0148914 -0.0562008 19.3546 3.21292 2.59632 1.54076 -4.36631 -1.34534 -0.355399 0.0588556 0.0283198 25.0895 9.12902 5.56396 1.83936 -2.77163 -0.133608 -0.33266 0.0290115 0.018589 
26.982 1 305 24.8388 8.59312 4.444 2.49096 -1.82202 1.80957 -0.0819039 0.153945 0.467711 0 0 0 0 0 0 -0.00318822 -0.0037183 -0.052777 26.3731 46.8478 -15.9177 2.85935 2.75583 0.178954 -0.090661 0.152121 0.480606 22.1588 -30.4225 23.6104 2.12522 -6.36372 3.47948 -0.0731149 0.155723 0.454864 
26.982 1 68 24.6318 6.45954 2.72204 0.443506 2.61651 -0.562211 0.294456 0.329593 -0.00345179 0 0 0 0 0 0 0.00805963 0.0217942 -0.177591 28.4525 17.4538 3.4504 0.77648 3.79219 -0.567942 0.302265 0.350513 -0.0148422 19.6572 -5.52324 0.628699 0.108745 1.48168 -0.515568 0.286688 0.308663 0.00785987 
26.982 1 107 27.2231 8.65972 2.75706 1.535 -1.00369 2.27593 0.0901633 -0.0594394 0.0454232 0 0 0 0 0 0 0.0273211 -0.000101225 -0.217341 23.4868 35.1882 5.46107 1.30611 1.49633 2.68587 0.0896382 -0.0726979 0.0393364 29.2122 -18.8238 -1.24037 1.76309 -3.48441 1.91917 0.0907218 -0.0462748 0.0514885 
26.982 1 266 26.9736 6.75731 4.80076 1.03222 -3.0355 -2.68823 0.243229 -0.217104 -0.455782 0 0 0 0 0 0 0.00213096 0.00488008 -0.064489 32.8804 15.4776 0.49481 1.50113 -2.84656 -2.14147 0.242297 -0.213688 -0.46419 19.3963 -2.91806 7.93746 0.568952 -3.18109 -3.19291 0.24416 -0.220516 -0.447424 
26.982 1 72 29.3458 6.63955 2.7775 -1.6957 3.92041 2.27957 0.21454 0.194797 0.482347 0 0 0 0 0 0 -0.0362292 0.0497768 -0.166478 24.897 22.4385 16.7315 -2.72326 6.00742 3.69251 0.215995 0.204772 0.488689 31.4805 -10.1632 -12.4186 -0.668924 1.87595 0.921187 0.213097 0.184794 0.475931 
26.982 1 309 29.4557 8.68914 4.73789 0.421777 -5.15908 7.10263 -0.159173 0.0229592 0.0697793 0 0 0 0 0 0 -0.0112732 -0.00315978 -0.0658628 29.1781 14.5472 -11.3465 0.261016 -5.04561 7.58004 -0.162622 0.015748 0.0639812 27.4458 1.94297 19.6944 0.586597 -5.25116 6.67134 -0.155711 0.030145 0.0755614 
26.982 1 111 31.7117 8.64689 2.76448 -1.23914 2.98543 -0.378546 0.0766544 -0.300459 0.42114 0 0 0 0 0 0 -0.0160162 0.00451583 -0.161349 33.4066 9.22785 -14.9978 -0.558708 3.3193 -1.54984 0.0765282 -0.302233 0.431563 27.1241 7.27769 19.1833 -1.9213 2.6888 0.833023 0.076724 -0.298697 0.410678 
26.982 1 270 31.6662 6.57674 4.85174 2.64059 0.235754 -0.543181 -0.0818921 0.278545 -0.254128 0 0 0 0 0 0 -0.0051769 0.0181557 -0.0420038 39.0631 38.9425 12.3337 3.13442 4.05673 1.63717 -0.0820405 0.290692 -0.270311 21.3474 -26.6615 -3.73241 2.15018 -3.54424 -2.66442 -0.0817441 0.266398 -0.238024 
26.982 1 76 34.2741 6.5734 2.67872 0.389229 3.05982 5.94252 -0.261901 1.09674 0.422041 0 0 0 0 0 0 0.029439 0.046443 -0.165603 43.3215 38.1638 -32.884 1.97803 7.79144 3.3172 -0.262917 1.12063 0.443085 21.6438 -25.882 36.9271 -1.21267 -1.62972 8.62251 -0.260956 1.07279 0.401034 