ITEM: TIMESTEP
6225
ITEM: NUMBER OF ATOMS
4000
ITEM: BOX BOUNDS pp pp pp
-1.33938 41.8394
0.366791 40.1332
0.343671 40.1563
ITEM: ATOMS mass type id x y z vx vy vz fx fy fz xrad yrad zrad vxrad vyrad vzrad fxrad fyrad fzrad xub yub zub vxub vyub vzub fxub fyub fzub xlb ylb zlb vxlb vylb vzlb fxlb fylb fzlb 
26.982 1 3 0.753903 0.370548 2.45204 -3.00949 -1.02691 -0.827523 0.253455 0.393194 0.282843 0 0 0 0 0 0 -0.0700197 -0.122453 -0.212917 0.67084 3.64303 5.24638 -3.46502 -0.319711 0.153964 0.258331 0.411915 0.283397 3.1199 -3.78111 -1.05746 -2.54508 -1.73059 -1.79113 0.248525 0.374454 0.282246 
26.982 1 8 2.84614 2.30942 2.31987 -1.95792 2.16713 0.705563 0.388499 0.00683009 0.331235 0 0 0 0 0 0 -0.0604624 -0.0610674 -0.22011 -0.405995 5.9267 2.5659 -2.89655 3.19305 0.042445 0.396043 0.0174443 0.343516 8.13956 -2.0682 1.35858 -1.00688 1.15449 1.38551 0.380895 -0.00377877 0.318965 
26.982 1 43 0.799535 4.47418 2.53165 1.44551 3.02498 -3.22188 -0.308244 -0.293815 0.141337 0 0 0 0 0 0 -0.0753464 -0.0951726 -0.229375 -4.82262 0.730848 4.2034 -0.265879 2.19646 -3.17979 -0.31011 -0.311249 0.147248 8.72454 7.5487 0.133163 3.17131 3.86125 -3.25033 -0.306454 -0.276349 0.135373 
26.982 1 202 0.849327 2.35114 4.62933 2.8634 1.828 0.945418 0.164067 0.0174854 -0.874078 0 0 0 0 0 0 -0.0569575 -0.0525187 -0.137363 1.46009 -0.447879 5.9068 2.52123 1.06313 0.733025 0.175828 0.015988 -0.894036 2.53907 4.39089 2.74272 3.2185 2.60522 1.17877 0.15226 0.0189961 -0.854164 
26.982 1 201 -1.24139 0.370627 4.32378 -5.02869 -1.26598 -1.4359 -0.118181 -0.538039 0.0241617 0 0 0 0 0 0 -0.115544 -0.0914125 -0.232112 42.7778 44.5015 5.79598 -4.65447 -0.876582 0.0311905 -0.116018 -0.564468 0.017835 38.5955 36.669 2.22853 -5.40157 -1.65067 -2.88524 -0.120358 -0.511623 0.0304304 
26.982 1 245 2.96645 4.49946 4.29433 3.53619 7.8814 -2.10098 0.236426 -0.476418 0.397189 0 0 0 0 0 0 -0.00484615 -0.0218512 -0.0802971 2.67954 4.10716 4.29685 3.12097 8.37419 -2.20588 0.247249 -0.490724 0.400234 5.29975 4.2387 3.66362 3.96376 7.4038 -1.98216 0.225557 -0.462098 0.394131 
26.982 1 241 -1.34474 4.30765 4.46788 1.97392 -3.22199 -1.87897 0.0508256 0.0861142 -0.262358 0 0 0 0 0 0 -0.109894 -0.102059 -0.180704 -3.67506 4.78963 3.78698 1.3432 -3.27012 -2.63769 0.0540454 0.0812833 -0.278435 3.51313 3.15296 4.54947 2.60902 -3.16093 -1.09969 0.0475686 0.0909572 -0.246347 
26.982 1 205 3.04336 0.476744 4.38976 4.5591 -3.46115 3.18092 -0.262695 -0.0358901 0.290637 0 0 0 0 0 0 -0.0219748 -0.166163 -0.144653 1.45559 39.5125 3.988 3.94436 -4.24449 3.31643 -0.275118 -0.0287989 0.282712 6.65857 41.8907 4.15835 5.1805 -2.66377 3.06079 -0.250255 -0.0430533 0.298559 
26.982 1 47 5.19519 4.27652 2.3415 -4.26846 -1.38772 -3.57032 -0.178267 0.0126623 0.0868179 0 0 0 0 0 0 -0.0448386 0.0262958 -0.184346 2.9346 5.68817 1.93675 -4.69429 -0.109359 -4.07473 -0.175386 0.0178097 0.0865662 9.2149 2.23009 2.03344 -3.8402 -2.64557 -3.05176 -0.181181 0.00753112 0.0870741 
26.982 1 206 5.18719 2.30149 4.44615 1.76773 -0.0884998 -0.27952 -0.211189 0.616541 -0.449381 0 0 0 0 0 0 -0.0166297 -0.0380923 -0.0847253 7.55016 1.24891 8.80169 2.32314 -0.517258 0.578288 -0.22184 0.646766 -0.47562 4.58443 2.60641 -0.515092 1.21356 0.35545 -1.11485 -0.200518 0.586277 -0.423134 
26.982 1 249 7.38038 4.32926 4.38112 2.39767 4.72913 -1.95419 0.0393421 -0.206339 -0.137297 0 0 0 0 0 0 0.0066532 -0.00130427 -0.0537482 9.47441 -1.81064 5.08552 2.73353 3.73524 -1.31049 0.0490295 -0.204087 -0.151331 6.76482 9.82879 3.03916 2.05535 5.73993 -2.58355 0.0296759 -0.208643 -0.123217 
26.982 1 209 7.4438 0.309559 4.34124 -1.19898 -1.26781 -2.61622 -0.0987501 -0.135068 -0.211152 0 0 0 0 0 0 0.00857143 -0.169489 -0.133813 9.7036 -1.49509 2.70272 -0.738637 -1.67137 -3.41683 -0.0916609 -0.119816 -0.211893 6.67531 1.25995 5.33853 -1.66632 -0.849873 -1.80805 -0.105839 -0.150365 -0.210395 
26.982 1 7 5.20661 0.394927 2.44798 0.323528 -1.59867 4.16634 -0.129566 0.217794 -0.626656 0 0 0 0 0 0 -0.0191811 -0.220339 -0.183539 6.86797 39.7822 -0.915818 0.322156 -1.79874 3.51536 -0.1382 0.22317 -0.656414 5.30016 41.4679 5.09959 0.325112 -1.38081 4.83609 -0.120895 0.212314 -0.596895 
26.982 1 6 5.2843 2.36493 0.373345 3.08416 -3.23468 -2.51236 -0.500779 -0.14591 0.0564027 0 0 0 0 0 0 -0.0477142 -0.0683018 -0.254776 4.44914 -0.111789 3.92892 3.00005 -4.44611 -1.8934 -0.511164 -0.139447 0.0525658 7.87186 4.1002 -3.96367 3.17125 -2.00538 -3.10919 -0.490403 -0.152427 0.0602337 
26.982 1 49 7.36225 4.4329 0.305897 -4.96175 3.1256 -6.5957 -0.333718 -0.532377 -0.0272123 0 0 0 0 0 0 -0.0200952 -0.00315478 -0.257393 10.2992 0.16299 -2.1451 -4.26165 1.72324 -8.40141 -0.341091 -0.53656 -0.0164359 5.9055 8.04526 1.97863 -5.666 4.53635 -4.76933 -0.326337 -0.528228 -0.0379846 
26.982 1 12 7.3294 2.25087 2.26275 -1.53905 -4.85323 0.364301 0.206348 0.543612 0.473215 0 0 0 0 0 0 0.0300216 -0.0969705 -0.173902 7.13474 2.16257 1.30544 -1.18507 -5.01547 -0.206616 0.206917 0.57111 0.486036 9.00716 1.58412 2.51323 -1.89866 -4.6744 0.950664 0.205815 0.516038 0.460429 
26.982 1 51 9.49054 4.21579 2.1904 -1.84045 2.9998 3.48892 -0.0130104 0.294021 0.470014 0 0 0 0 0 0 0.0413352 -0.0580318 -0.175787 4.47914 4.08409 -1.82593 -3.21268 3.38307 2.44497 -0.01641 0.309325 0.4951 15.7317 3.70702 5.49419 -0.47389 2.63641 4.54919 -0.0095816 0.278652 0.444961 
26.982 1 210 9.53297 2.30979 4.28266 -4.81212 -0.62455 4 -0.192082 0.219953 0.199999 0 0 0 0 0 0 0.0183763 -0.0592382 -0.0780218 8.13067 3.66538 7.01232 -5.36953 -0.924259 4.08997 -0.188648 0.236525 0.206876 12.1679 0.188962 0.898258 -4.2615 -0.309961 3.91141 -0.195525 0.203328 0.193156 
26.982 1 11 9.48592 0.296585 2.37277 0.227086 -0.296283 -0.320478 0.0446231 -0.0305773 -0.171138 0 0 0 0 0 0 0.0360382 -0.186347 -0.211282 7.52264 41.1118 -3.96039 -0.238059 0.226625 -2.27971 0.054237 -0.0226826 -0.173011 12.6993 39.9269 8.00554 0.687636 -0.803194 1.65193 0.0349758 -0.0385075 -0.169285 
26.982 1 16 11.6402 2.26521 2.36537 1.1211 -1.5487 1.97428 0.219731 0.106705 -0.072385 0 0 0 0 0 0 0.0511981 -0.112481 -0.242114 12.8434 2.96302 -1.68557 1.07793 -0.731391 1.28108 0.230001 0.117835 -0.0725178 11.4552 0.817567 5.6949 1.16701 -2.34612 2.67559 0.20948 0.095542 -0.0722782 
26.982 1 253 11.5695 4.33048 4.42445 -1.25376 -0.263368 -5.74602 0.117998 0.00728633 -0.41868 0 0 0 0 0 0 0.00141974 -0.0356665 -0.0708808 11.6804 3.32301 13.1554 -1.37613 -0.969572 -3.8176 0.111195 -0.00119101 -0.440832 12.4731 4.70681 -4.94753 -1.12937 0.470862 -7.66546 0.124809 0.0157072 -0.396511 
26.982 1 55 13.7406 4.49847 2.29769 2.95609 0.156871 -1.69747 0.201177 -0.522036 0.130406 0 0 0 0 0 0 -0.021009 -0.0955626 -0.177744 14.46 3.86266 3.82192 2.94124 -0.0671617 -1.18857 0.199284 -0.539309 0.134308 13.7943 4.49897 0.066679 2.97285 0.401656 -2.19014 0.203112 -0.504838 0.126493 
26.982 1 214 13.8674 2.31526 4.26344 2.44781 2.72289 -0.183174 -0.38752 0.415767 0.0820938 0 0 0 0 0 0 -0.0209021 -0.102127 -0.133133 17.7202 1.81423 9.18051 3.25264 2.67705 0.97269 -0.405966 0.42896 0.0791332 10.7805 2.07505 -1.31085 1.64555 2.78919 -1.33419 -0.36902 0.402549 0.085078 
26.982 1 257 16.0013 4.326 4.43742 -1.51454 -1.56082 -0.357425 -0.0419727 0.0505916 -0.106098 0 0 0 0 0 0 -0.00289221 -0.00816775 -0.0702553 17.3314 -0.731304 6.54863 -0.990781 -2.77002 0.273809 -0.0454892 0.0695052 -0.127054 15.1909 8.7283 1.67178 -2.03845 -0.335649 -0.980449 -0.0383991 0.0316661 -0.085135 
26.982 1 213 11.5734 0.330278 4.38908 1.46284 1.57401 0.281776 0.422923 0.10205 -0.146126 0 0 0 0 0 0 0.0467912 -0.16372 -0.176535 10.6992 -2.65327 5.1474 1.18246 1.24639 1.47127 0.43191 0.10767 -0.153413 13.4519 2.45633 2.96719 1.74113 1.91771 -0.904934 0.413931 0.0964471 -0.138845 
26.982 1 20 15.9782 2.47562 2.47507 2.35593 3.22716 0.951998 -0.0291219 0.230729 -0.782147 0 0 0 0 0 0 -0.0437845 -0.135459 -0.221854 18.2427 -3.18546 5.84816 2.95905 2.40368 1.6762 -0.0355363 0.240225 -0.807556 14.2156 7.43329 -1.62005 1.75265 4.07639 0.240407 -0.0226612 0.221189 -0.756741 
26.982 1 218 18.1168 2.38079 4.36367 3.18532 2.8608 -0.177069 0.294729 -0.278478 0.110997 0 0 0 0 0 0 0.0304427 -0.10938 -0.0680735 15.4554 -1.78186 5.28356 2.65696 2.89758 -0.353917 0.301804 -0.276821 0.112882 21.024 5.83602 2.79991 3.71068 2.84864 0.00712423 0.287673 -0.280153 0.109136 
26.982 1 59 18.2262 4.1984 2.34103 -0.847543 9.70565 -0.103186 -0.330939 0.67385 0.340545 0 0 0 0 0 0 -0.0166562 -0.0110968 -0.183257 22.127 1.60677 4.09556 0.0265354 9.76366 0.872562 -0.334519 0.698058 0.345076 14.5768 6.15769 -0.122394 -1.72473 9.66956 -1.06491 -0.327343 0.649645 0.336053 
26.982 1 217 16.0384 0.418256 4.1162 -6.023 1.80631 -2.53441 -0.0669295 -0.323962 0.679846 0 0 0 0 0 0 -0.0275611 -0.19487 -0.159262 20.3265 36.2012 6.5497 -5.26467 0.878337 -1.39244 -0.0678755 -0.327196 0.702945 12.2384 45.0876 1.04432 -6.78371 2.7536 -3.67199 -0.0659265 -0.320733 0.65678 
26.982 1 19 18.1825 0.491515 2.34839 5.3922 -2.20772 7.15344 0.0556428 0.0314605 -0.169706 0 0 0 0 0 0 0.00394129 -0.200401 -0.144134 24.6039 -5.81857 3.76333 7.06738 -3.90559 8.41084 0.064673 0.0333495 -0.166194 11.9948 5.97589 0.211902 3.71467 -0.496674 5.90556 0.0466178 0.0295519 -0.173197 
26.982 1 57 15.9555 4.37474 0.291824 -1.30378 -2.70651 2.42397 -0.0193153 0.0813612 0.313004 0 0 0 0 0 0 0.0131462 -0.0462105 -0.251463 17.5096 6.03922 -3.04818 -0.816345 -1.59974 2.81195 -0.0265795 0.0812172 0.321416 14.9158 2.06329 2.86768 -1.78997 -3.79536 2.05859 -0.0120184 0.0814754 0.304601 
26.982 1 21 20.5423 0.502932 0.391912 2.50644 -3.12222 -1.41198 -0.457754 0.33242 0.0826455 0 0 0 0 0 0 0.00472136 -0.153141 -0.132134 23.7702 -8.72513 2.53068 3.34133 -4.86345 -0.826454 -0.459865 0.342259 0.0767554 17.3107 8.90662 -2.53122 1.67062 -1.37303 -1.98114 -0.455643 0.322525 0.0885754 
26.982 1 261 20.268 4.33539 4.41886 4.66561 -1.0813 3.01638 0.0303233 0.209474 -0.419296 0 0 0 0 0 0 -0.000780116 -0.0180164 -0.0584927 18.0913 3.15242 7.22737 4.50045 -0.229987 3.97448 0.0267348 0.230664 -0.441528 22.4371 4.88462 0.967163 4.82567 -1.91489 2.07007 0.033912 0.18828 -0.397063 
26.982 1 24 20.3985 2.48451 2.35751 -2.44887 -0.325909 1.42198 0.0281959 -0.526937 0.07994 0 0 0 0 0 0 0.0131155 -0.148959 -0.103719 18.522 1.35028 4.42289 -2.56375 -0.302254 2.54524 0.0351158 -0.525175 0.0813764 22.2616 2.91551 -0.42027 -2.33883 -0.328698 0.306859 0.0212757 -0.528717 0.0785564 
26.982 1 63 22.4043 4.39739 2.36689 -2.10736 -1.08017 -1.57123 -0.0198185 -0.0349135 -0.4051 0 0 0 0 0 0 0.0308429 -0.0410802 -0.158566 24.8488 6.09406 1.36763 -1.3723 -0.198592 -1.24979 -0.0249274 -0.0332141 -0.431022 19.7085 2.0777 2.66801 -2.84531 -1.94431 -1.87801 -0.0147179 -0.0366181 -0.379152 
26.982 1 222 22.5866 2.41725 4.22718 -1.25084 -0.211226 1.74501 -0.37162 -0.130113 0.3865 0 0 0 0 0 0 0.0113087 -0.178807 -0.0802149 21.1518 2.02407 5.13302 -1.32406 -0.0624667 2.30054 -0.372776 -0.136762 0.399996 23.7692 2.10091 2.6888 -1.18005 -0.33861 1.2005 -0.370498 -0.123479 0.373021 
26.982 1 28 24.7139 2.34952 2.29379 9.71587 -0.789445 1.92062 0.0708285 0.601062 0.612517 0 0 0 0 0 0 -0.0264034 -0.138317 -0.119599 24.5405 5.61843 4.42347 10.2429 -0.23265 3.30494 0.0792395 0.612909 0.627178 24.4091 -1.62559 -0.553919 9.19307 -1.32598 0.543756 0.0624319 0.589195 0.597847 
26.982 1 61 20.1167 4.35441 0.320196 2.92864 -0.188393 0.845803 0.674741 0.238869 -0.0223983 0 0 0 0 0 0 -0.0448033 0.00747596 -0.260324 23.3616 -1.12006 -3.61924 3.63836 -0.567741 0.102435 0.693049 0.252344 -0.0296431 16.8604 9.1848 3.47991 2.21397 0.205897 1.60621 0.656401 0.225421 -0.0151099 
26.982 1 22 22.7237 2.3347 0.360412 -6.16412 -1.03186 2.31355 -0.681393 0.0852471 0.0252435 0 0 0 0 0 0 0.0499214 -0.0849961 -0.204311 26.9073 3.9403 -0.0244111 -5.06587 0.122141 2.92746 -0.691427 0.108203 0.00147895 18.2972 0.0179098 -0.0302279 -7.26231 -2.16902 1.71483 -0.671323 0.0622574 0.0490345 
26.982 1 265 24.5731 4.39236 4.23771 0.0619602 1.02449 -1.80087 0.292896 0.0341557 0.0119477 0 0 0 0 0 0 0.0160675 -0.0501751 -0.0647539 26.4989 -1.86162 4.23373 0.700521 -1.37867 -1.47192 0.308268 0.0232008 0.0232147 22.1544 10.0028 3.59491 -0.572226 3.44049 -2.12014 0.277485 0.0450775 0.000657429 
26.982 1 67 26.838 4.34937 2.26415 -3.44601 -3.32401 -0.917899 -0.264108 -0.122729 0.357437 0 0 0 0 0 0 -0.00163648 0.0283637 -0.204074 28.7842 0.507478 3.75899 -3.5911 -3.97676 0.15219 -0.271946 -0.123291 0.380993 24.1543 7.53274 0.0692917 -3.2922 -2.65804 -1.97454 -0.256246 -0.122198 0.333846 
26.982 1 226 26.7433 2.42746 4.34793 -0.974943 4.74267 2.73737 0.103495 0.0224936 0.0332532 0 0 0 0 0 0 -0.0435271 -0.0885945 -0.058506 26.5865 2.29683 5.09759 -1.26046 4.93222 3.52991 0.0996671 0.0289002 0.0518129 26.1754 1.85967 2.94701 -0.677938 4.58297 1.95242 0.107339 0.0160633 0.0146578 
26.982 1 32 28.9295 2.22773 2.38353 -1.31026 -5.75434 -1.133 -0.0248966 0.393741 -0.100919 0 0 0 0 0 0 0.0541692 -0.0582229 -0.181048 25.5802 3.07315 4.64605 -2.57583 -5.44283 -0.0624973 -0.0286445 0.41533 -0.111742 31.2722 0.668288 -0.5805 -0.0389599 -6.04181 -2.18598 -0.0211481 0.372169 -0.0901282 
26.982 1 269 29.0638 4.29652 4.1327 5.49656 -4.62438 0.727351 -0.322999 0.133082 0.397723 0 0 0 0 0 0 -0.0180437 -0.0170726 -0.0625273 27.2392 9.02878 9.42672 5.19373 -3.47157 1.8045 -0.332476 0.130729 0.421581 29.9019 -1.0916 -1.78435 5.80961 -5.75957 -0.335996 -0.313461 0.135419 0.37385 
26.982 1 27 27.0813 0.214463 2.38596 -1.74123 -2.21336 -0.19694 -1.0336 -0.12364 0.413634 0 0 0 0 0 0 -0.0751907 -0.210835 -0.0884124 28.1039 2.47566 -1.24833 -1.37358 -1.286 -0.239478 -1.03958 -0.119804 0.424376 25.3266 -2.86931 5.29492 -2.10375 -3.12345 -0.14547 -1.02762 -0.127432 0.402874 
26.982 1 26 26.7576 2.2382 0.427974 2.53622 -2.0827 -2.76152 0.16654 0.724762 0.0317708 0 0 0 0 0 0 -0.0282193 -0.0131186 -0.241276 23.7743 3.87254 3.71834 1.68471 -2.20143 -1.0545 0.163376 0.754793 0.0263373 29.0113 -0.122108 -3.63294 3.39489 -1.94349 -4.4548 0.169725 0.694754 0.0371806 
26.982 1 71 31.2073 4.31251 2.28177 0.570023 -2.25942 -0.322392 -0.18282 0.0585359 0.315447 0 0 0 0 0 0 -0.0450512 -0.0790567 -0.178899 31.3115 4.9188 1.45871 0.537957 -1.99098 -0.779435 -0.177095 0.056047 0.306461 29.828 3.03788 2.42997 0.598597 -2.51481 0.158638 -0.188554 0.0610473 0.324436 
26.982 1 230 31.1142 2.26052 4.36343 -0.226091 2.92379 -2.24673 -0.0857096 0.332008 -0.141288 0 0 0 0 0 0 0.0104869 -0.0897761 -0.127104 26.4268 -0.909214 5.29814 -1.34705 2.20966 -2.03386 -0.0814955 0.348825 -0.162259 34.537 4.71862 2.8284 0.895299 3.66305 -2.43712 -0.0899107 0.315174 -0.120317 
26.982 1 233 33.3801 0.20797 4.40528 4.10107 1.76101 -3.20931 -0.391462 0.495795 -0.0397075 0 0 0 0 0 0 0.0198402 -0.17401 -0.214101 32.6285 38.0677 -0.137599 4.16149 1.46234 -4.42674 -0.3911 0.50073 -0.0647817 32.6303 42.8445 8.36474 4.04192 2.08482 -1.96743 -0.391855 0.490884 -0.0145602 
26.982 1 273 33.2724 4.49906 4.37669 -3.21228 5.702 -1.81695 -0.261336 -0.437106 -0.293878 0 0 0 0 0 0 0.00289389 -0.0536716 -0.0582175 37.6766 5.38012 3.66854 -2.38778 7.22591 -2.06757 -0.259964 -0.458766 -0.316344 27.3281 2.94188 4.46595 -4.04589 4.18986 -1.55172 -0.262725 -0.415447 -0.271426 
26.982 1 229 28.996 0.335998 4.39887 1.27944 -2.19654 -0.746772 -0.127891 -0.229011 -0.0772868 0 0 0 0 0 0 0.011716 -0.172518 -0.149802 27.5825 34.3697 9.80553 0.647841 -3.36084 0.957555 -0.135661 -0.235636 -0.0801078 29.414 46.7947 -1.6212 1.91984 -1.00562 -2.43256 -0.120074 -0.222384 -0.0744502 
26.982 1 29 28.7853 0.25533 0.41804 7.35926 0.36178 -5.63464 0.695113 -0.141907 -0.352233 0 0 0 0 0 0 0.069957 -0.126171 -0.178307 27.5444 -5.20104 42.5763 7.17898 -1.71076 -4.35392 0.707913 -0.143707 -0.376742 29.0047 4.87772 38.7598 7.53907 2.44775 -6.90564 0.682255 -0.140008 -0.327729 
26.982 1 73 33.1333 4.45823 0.353815 -4.76462 0.769424 -3.14313 0.0558217 -0.45575 -0.00873499 0 0 0 0 0 0 -0.0381726 -0.0829347 -0.273637 30.044 9.94545 2.61196 -4.63754 1.7319 -3.2342 0.0555139 -0.464402 -0.0224275 34.6904 -1.6867 -2.66995 -4.89904 -0.179922 -3.02809 0.0560926 -0.447076 0.00498217 
26.982 1 36 33.143 2.2509 2.46347 -1.11801 -4.1457 1.30569 0.1032 0.241361 -0.152728 0 0 0 0 0 0 -0.0254839 -0.171712 -0.180568 32.6963 1.50175 -0.0935943 -0.879207 -5.10267 0.261743 0.100439 0.252141 -0.16915 32.0669 2.27502 4.35337 -1.36317 -3.16858 2.37372 0.105916 0.230633 -0.13625 
26.982 1 75 35.336 4.13601 2.31681 -2.70324 -0.479533 -2.90554 -0.179437 0.339876 0.134661 0 0 0 0 0 0 0.029058 -0.0499794 -0.143478 38.6529 2.45403 3.69065 -2.05695 -0.0240126 -2.49353 -0.189693 0.359856 0.126038 30.2315 5.12028 0.255403 -3.35773 -0.92908 -3.29627 -0.169185 0.31996 0.143304 
26.982 1 234 35.4403 2.24885 4.41877 1.91723 1.3545 0.226963 -0.107202 0.261341 0.0226958 0 0 0 0 0 0 0.0248063 -0.128731 -0.107793 38.9227 1.28723 5.68585 2.77916 1.51739 -0.471285 -0.105638 0.270454 0.00702145 30.1723 2.45737 2.55674 1.04642 1.20736 0.946986 -0.108785 0.252254 0.0384189 
26.982 1 40 37.5418 2.15587 2.28743 -2.7226 4.27357 1.66412 0.145866 0.0817531 0.755699 0 0 0 0 0 0 -0.0327159 -0.106017 -0.0940768 39.7816 6.86835 2.30496 -2.0717 5.58709 0.763536 0.151095 0.075542 0.766814 33.27 -3.33975 1.57902 -3.38164 2.9712 2.58543 0.140676 0.0880464 0.744622 
26.982 1 37 37.6793 0.355361 0.410344 -2.18015 -4.00914 1.39905 -0.431842 -0.285187 -0.346447 0 0 0 0 0 0 -0.0518004 -0.159287 -0.137598 41.6675 4.81229 43.579 -1.48327 -2.53235 1.87815 -0.449979 -0.292768 -0.356291 31.6891 -4.9385 37.7501 -2.87853 -5.46842 0.937562 -0.413625 -0.277546 -0.336541 
26.982 1 34 35.3191 2.23431 0.438971 0.594797 0.590214 -1.59153 -0.102846 0.146949 -0.368133 0 0 0 0 0 0 -0.0286285 -0.113052 -0.210826 36.5869 10.1128 44.8226 0.885409 1.68669 -0.664424 -0.106893 0.145761 -0.385169 32.2931 -6.41537 36.5511 0.302435 -0.502305 -2.50277 -0.0987973 0.14825 -0.351043 
26.982 1 277 37.5141 4.1813 4.1808 -1.93271 -0.251322 2.96769 0.0589474 0.335505 0.175383 0 0 0 0 0 0 0.00750219 -0.0245592 -0.0599467 37.0902 6.75643 0.581624 -1.59647 1.98211 1.68842 0.0627917 0.348831 0.187058 35.8987 0.923081 7.16896 -2.2787 -2.47386 4.26732 0.0551088 0.322192 0.16372 
26.982 1 4 41.801 2.4581 2.4447 -5.69611 1.98448 -4.74681 0.0965004 -0.149136 -0.00328731 0 0 0 0 0 0 0.0399291 -0.0162806 -0.185689 35.4523 2.52936 3.30925 -6.94834 1.75157 -4.23374 0.0995157 -0.156646 -0.00380117 45.6423 1.61677 0.877116 -4.44299 2.22752 -5.23713 0.0934571 -0.141587 -0.00281873 
26.982 1 79 39.6231 4.30419 2.45339 -2.1577 -2.10844 -1.74348 0.188151 0.0212558 -0.0232161 0 0 0 0 0 0 0.00405031 0.0273796 -0.20485 36.9153 9.54909 -0.716285 -2.23691 -0.0400549 -3.49868 0.191817 0.0174171 -0.0269841 40.0569 -1.61263 4.93185 -2.08553 -4.16524 0.0310002 0.1845 0.025116 -0.0194874 
26.982 1 238 39.7804 2.22487 4.42793 -2.7987 -1.54691 -4.25653 -0.372944 0.258831 -0.300481 0 0 0 0 0 0 -0.0515794 -0.0832949 -0.0727802 42.4145 3.87 4.04527 -1.58235 -1.86474 -4.84766 -0.380316 0.262866 -0.321793 34.8667 -0.17617 4.20153 -4.02135 -1.21522 -3.64555 -0.365583 0.254846 -0.279204 
26.982 1 1 41.889 0.486722 0.475675 0.055205 -4.49367 -1.79555 -0.345201 -0.267724 -0.197896 0 0 0 0 0 0 0.057637 -0.109736 -0.200759 40.7163 45.3763 4.83407 -0.235347 -3.67525 -1.66594 -0.353866 -0.282641 -0.202168 40.5577 36.018 -4.68789 0.344667 -5.30855 -1.91409 -0.336523 -0.252811 -0.193651 
26.982 1 39 39.7926 0.209121 2.27185 -4.18144 2.99772 1.71016 -0.111391 0.400916 0.440533 0 0 0 0 0 0 -0.0394579 -0.212863 -0.058213 38.5726 40.3422 4.19481 -4.51815 2.87189 2.74446 -0.115799 0.416968 0.46649 38.7405 40.5143 -0.349736 -3.84987 3.13458 0.704285 -0.106921 0.384902 0.414597 
26.982 1 38 39.6317 2.49151 0.381471 -1.62544 -1.42895 3.73434 0.293409 -0.401751 -0.0261244 0 0 0 0 0 0 0.0112116 0.0266856 -0.243764 38.663 6.05217 45.4997 -1.53266 -0.738719 5.42972 0.296007 -0.430015 -0.0310345 38.3314 -1.83539 35.7504 -1.72442 -2.09969 2.05717 0.290881 -0.373433 -0.021197 
26.982 1 83 0.977598 8.37484 2.58685 -0.374528 -0.275748 3.83043 -0.531471 0.720782 -0.744409 0 0 0 0 0 0 -0.0683697 -0.011853 -0.220567 -0.237705 14.592 4.68603 -0.768894 1.14779 4.9554 -0.539971 0.737069 -0.759144 4.48857 1.63256 -0.244654 0.0308741 -1.69727 2.72091 -0.52296 0.704451 -0.72975 
26.982 1 242 0.775031 6.63137 4.47173 -0.737055 -3.43394 0.374816 0.140883 -0.729679 0.178482 0 0 0 0 0 0 -0.0804469 -0.0361457 -0.10979 -1.97789 7.03676 8.20233 -1.858 -2.62649 1.49106 0.142326 -0.743857 0.182754 5.82541 5.64977 0.126947 0.394943 -4.2278 -0.71577 0.139385 -0.71554 0.17414 
26.982 1 285 2.99112 8.27209 4.44533 0.973373 6.57046 -3.93615 0.140113 0.611506 0.111941 0 0 0 0 0 0 0.00175237 0.0109171 -0.0663659 -3.23245 9.13753 2.70629 -0.395414 7.45755 -4.24655 0.146417 0.628822 0.119997 11.2703 6.8854 5.54195 2.35559 5.68628 -3.61708 0.133794 0.594193 0.1038 
26.982 1 42 0.824646 6.46436 0.58469 -2.81577 -6.34167 -0.937149 -0.300408 -0.0647229 -0.0596841 0 0 0 0 0 0 -0.0801868 -0.0132242 -0.238339 -0.627224 6.05864 2.52276 -3.54012 -5.77226 -0.562344 -0.309603 -0.063846 -0.0646977 4.58263 6.29706 -2.16293 -2.0762 -6.89691 -1.30258 -0.291229 -0.0656058 -0.0547042 
26.982 1 281 -1.40001 8.4312 4.43409 -1.43744 -0.836614 0.569047 0.0963755 -0.327693 -0.105901 0 0 0 0 0 0 -0.114177 -0.104691 -0.163229 42.5618 14.4064 6.1243 -1.24388 1.08653 1.18194 0.0905582 -0.333258 -0.108851 38.4911 1.96167 2.12285 -1.63183 -2.74854 -0.0254581 0.102167 -0.322182 -0.10298 
26.982 1 84 -1.39 10.3 2.47205 1.80619 0.281307 -2.61603 0.0703701 0.0246235 -0.370979 0 0 0 0 0 0 -0.183092 -0.0472615 -0.209968 40.3836 12.5057 -4.63727 1.80667 0.763072 -4.57019 0.0677801 0.0179394 -0.385989 40.6702 7.68863 8.83763 1.80172 -0.185167 -0.659661 0.0729726 0.0313139 -0.355992 
26.982 1 48 2.92239 6.37863 2.43164 -3.2297 4.33404 -0.0679911 0.313098 -0.112184 -0.0262041 0 0 0 0 0 0 0.0149061 -0.00581534 -0.237818 -2.53907 6.99766 0.598293 -4.62271 6.16633 -1.02882 0.333918 -0.127965 -0.0246275 10.4322 5.18372 3.54413 -1.82339 2.51327 0.906425 0.292215 -0.0963694 -0.0278535 
26.982 1 87 4.85846 8.4355 2.41318 1.67309 -4.0817 -0.31936 0.514689 -0.368096 -0.0650292 0 0 0 0 0 0 0.00673266 -0.0322069 -0.247437 2.76222 11.0288 6.26489 0.557672 -3.74215 0.662308 0.523782 -0.402493 -0.0517454 8.73367 5.33495 -2.15708 2.79548 -4.41311 -1.28633 0.505504 -0.33368 -0.0783734 
26.982 1 246 5.34355 6.26009 4.32469 -1.47345 2.69827 3.20569 -0.583936 0.255617 -0.0169561 0 0 0 0 0 0 -0.000139709 0.0209777 -0.0678364 8.00429 7.17228 4.3134 -0.830229 3.91631 4.65199 -0.573298 0.266189 -0.0135366 4.4531 4.77395 3.68761 -2.11183 1.49384 1.77088 -0.594597 0.245068 -0.0203466 
26.982 1 52 7.32597 6.29543 2.35489 1.62631 -1.88565 -0.149846 -0.0037019 0.162232 -0.326463 0 0 0 0 0 0 -0.0396949 0.0535082 -0.183691 8.53572 6.11429 6.3355 2.01009 -1.68188 0.750324 0.00600522 0.17101 -0.327359 7.59921 5.91173 -2.33268 1.23772 -2.0778 -1.03108 -0.0134286 0.153471 -0.325559 
26.982 1 289 7.12504 8.42945 4.17278 -2.58691 -3.28203 3.8553 0.435462 -0.037741 0.395073 0 0 0 0 0 0 -0.00130086 -0.00323999 -0.0658185 10.6864 7.25593 6.31871 -1.95596 -3.08661 5.38594 0.448464 -0.0508021 0.413809 5.06052 9.10151 1.37102 -3.21876 -3.47001 2.32756 0.422425 -0.0246623 0.376384 
26.982 1 92 7.10776 10.4102 2.34697 2.47518 0.678144 -2.27287 0.517425 0.234408 -0.136987 0 0 0 0 0 0 0.0186401 -0.0296838 -0.249317 6.67356 11.0525 5.68645 2.43109 1.37111 -0.507881 0.536884 0.223435 -0.127437 9.03995 9.35315 -1.69752 2.51591 -0.000473298 -4.02011 0.497892 0.245462 -0.146567 
26.982 1 91 9.34135 8.37055 2.31248 -3.21466 -4.85437 2.3624 -0.0284122 -0.364184 -0.0927015 0 0 0 0 0 0 -0.0523327 0.0336978 -0.187794 10.7572 6.94826 4.28636 -2.92073 -5.60823 3.08604 -0.0313694 -0.387941 -0.0864453 9.16373 9.29875 -0.3616 -3.51353 -4.09487 1.65859 -0.0254629 -0.340425 -0.0989501 
26.982 1 250 9.47425 6.29581 4.3038 6.2163 -1.06259 -0.53199 -0.248519 -0.0151999 -0.0396256 0 0 0 0 0 0 -0.0132196 0.00308842 -0.0539308 9.33908 7.1907 13.601 5.82059 -0.502485 1.4503 -0.255232 -0.0121461 -0.0578965 10.8407 4.86237 -5.67203 6.60752 -1.6 -2.5166 -0.24178 -0.01827 -0.0213012 
26.982 1 50 9.41282 6.22773 0.174853 2.24694 -0.701763 5.14252 0.184424 0.302709 0.456761 0 0 0 0 0 0 -0.0145256 0.00870985 -0.25434 12.0582 9.82642 -1.02622 2.47856 1.47143 5.13657 0.178487 0.313161 0.485861 8.01067 2.05737 0.614707 2.01354 -2.86989 5.17327 0.190396 0.292255 0.427635 
26.982 1 290 9.51133 10.398 4.29068 2.16369 -2.81721 4.09237 -0.321623 -0.357912 0.186818 0 0 0 0 0 0 -0.0105056 -0.016487 -0.0750105 8.48814 14.1853 13.6065 2.10831 -0.969709 7.25714 -0.321305 -0.384659 0.177375 11.7739 6.19118 -5.64888 2.21515 -4.65843 0.944014 -0.321927 -0.33112 0.196302 
26.982 1 93 11.5889 8.17976 0.223704 3.85627 1.84642 0.171301 -0.177781 0.468466 0.332207 0 0 0 0 0 0 -0.0383748 0.0431371 -0.254364 11.2559 6.64378 38.0495 3.61177 1.26033 0.424268 -0.18513 0.48564 0.36619 12.9352 9.23835 42.9423 4.10382 2.4467 -0.054168 -0.170433 0.451285 0.29819 
26.982 1 56 11.6113 6.2933 2.20254 -5.87015 -0.950317 -0.232767 -0.286107 0.0881022 0.31207 0 0 0 0 0 0 -0.0142318 -0.0454391 -0.146923 13.8376 6.64311 5.11182 -5.72441 -0.704639 0.317058 -0.298028 0.0833315 0.325567 10.4035 5.37939 -1.41826 -6.01258 -1.18498 -0.765325 -0.27415 0.0928173 0.298578 
26.982 1 293 11.543 8.16805 4.39504 3.54652 2.9122 -4.7152 -0.0890306 0.38282 -0.260778 0 0 0 0 0 0 -0.0104572 0.0191081 -0.0597915 10.4405 8.78834 13.1169 3.26122 4.61155 -2.75519 -0.0951691 0.397435 -0.294197 13.6512 7.04177 -4.97101 3.8329 1.21244 -6.66448 -0.0828483 0.368233 -0.2273 
26.982 1 95 13.7838 8.32837 2.37806 -5.63377 3.57655 -0.187424 0.00879667 -0.325787 -0.358405 0 0 0 0 0 0 0.0328306 -0.00961796 -0.155223 15.5276 10.5198 -1.54111 -5.70573 4.52773 -0.803894 0.00646946 -0.331254 -0.37535 12.798 5.62679 5.59872 -5.561 2.63136 0.447229 0.011173 -0.320351 -0.34145 
26.982 1 254 13.6459 6.2331 4.36532 -0.895194 1.76134 4.30901 0.252976 0.243694 -0.119252 0 0 0 0 0 0 0.00406076 -0.00365476 -0.054703 12.4559 6.43549 10.6939 -1.19919 1.68656 6.50852 0.251213 0.249243 -0.139073 15.6087 5.47983 -2.62356 -0.589194 1.85432 2.11728 0.254783 0.23815 -0.0993934 
26.982 1 297 15.9794 8.43441 4.40979 0.608617 2.09077 0.374451 -0.38009 -0.171244 -0.22684 0 0 0 0 0 0 0.00370182 -0.0126895 -0.068219 18.8565 12.7178 -0.0850402 1.16443 3.73882 0.32636 -0.391814 -0.18357 -0.244451 13.6178 3.64569 8.26418 0.053196 0.452839 0.434107 -0.368294 -0.158907 -0.209177 
26.982 1 294 13.6168 10.2522 4.22904 4.20936 -1.35298 -0.559125 0.0830356 0.230423 0.441386 0 0 0 0 0 0 -0.00709129 0.00371819 -0.0329538 15.5519 19.4242 1.63543 4.56282 0.925759 -1.43213 0.0775835 0.235424 0.446153 12.4419 0.656499 6.18918 3.85812 -3.63167 0.33136 0.0885315 0.225463 0.436743 
26.982 1 94 13.758 10.3845 0.143826 5.54728 3.33903 1.50194 0.248458 -0.339716 0.372102 0 0 0 0 0 0 -0.00573717 -0.0058511 -0.263413 15.7051 14.8425 42.6154 5.82264 5.04676 2.503 0.25347 -0.342378 0.38695 12.5544 5.48271 38.1648 5.2697 1.62591 0.510232 0.243468 -0.337098 0.357275 
26.982 1 96 11.4857 10.173 2.29833 -3.86401 4.40372 4.37788 0.224739 0.0832699 -0.0993501 0 0 0 0 0 0 -0.0455811 0.0539417 -0.186828 11.274 10.7058 -4.25287 -4.19824 5.57504 2.81229 0.226704 0.0935776 -0.105543 12.6917 9.21963 8.15097 -3.53311 3.23776 5.96155 0.22277 0.0730182 -0.0931216 
26.982 1 54 13.7686 6.37703 0.235533 4.66581 -3.55371 5.02053 0.325327 -0.328848 0.564574 0 0 0 0 0 0 0.0332978 -0.0257835 -0.262085 11.224 10.3719 -4.80119 4.0188 -2.28063 3.71011 0.338813 -0.338377 0.580622 17.0789 1.80651 4.47629 5.3141 -4.81775 6.34954 0.311879 -0.319377 0.548501 
26.982 1 60 16.0057 6.25923 2.49418 0.0261871 0.691026 0.278247 -0.43608 0.078626 -0.293661 0 0 0 0 0 0 0.0293057 0.0298759 -0.193587 19.6587 9.65577 -0.864247 1.12541 1.32727 -0.201675 -0.450118 0.0892329 -0.310427 12.8583 2.2763 5.14591 -1.07486 0.062136 0.771715 -0.421972 0.0680205 -0.276897 
26.982 1 99 17.9928 8.33052 2.41658 0.348741 0.599246 0.655654 0.425307 0.384765 -0.0833158 0 0 0 0 0 0 0.00974909 0.015378 -0.249487 16.6714 11.0356 -1.23993 0.66087 0.239686 0.365584 0.429151 0.402218 -0.096402 19.5761 5.0864 5.36666 0.0385778 0.96048 0.958917 0.421548 0.367352 -0.0702132 
26.982 1 258 18.0606 6.38074 4.30182 -1.40044 2.14831 -1.09521 0.37406 -0.332772 0.330305 0 0 0 0 0 0 0.0104862 0.00766774 -0.0694996 17.1523 10.3979 5.09168 -1.60564 2.61472 -1.22992 0.384387 -0.334851 0.337947 19.2259 1.79099 2.86885 -1.19948 1.69596 -0.951262 0.363774 -0.330682 0.322684 
26.982 1 298 18.0273 10.3786 4.44046 0.986749 2.6057 -1.0647 -0.139034 0.0871393 -0.455555 0 0 0 0 0 0 -0.00193214 -0.0224414 -0.0807546 17.7117 11.5531 -4.97739 0.802928 2.72148 -3.51222 -0.146091 0.0753163 -0.476954 18.6041 8.7791 13.2403 1.17194 2.49668 1.39531 -0.131907 0.0989935 -0.43414 
26.982 1 301 20.1097 8.42669 4.50964 0.497869 -6.54223 5.88785 0.234952 -0.647936 -0.321616 0 0 0 0 0 0 -0.00666912 -0.0221927 -0.0536347 17.6621 6.39157 4.38964 0.176225 -7.62637 5.72459 0.237374 -0.674942 -0.321554 22.5528 9.94457 4.00499 0.814872 -5.45103 6.0612 0.232518 -0.620893 -0.321711 
26.982 1 64 20.2451 6.51738 2.38278 4.22712 -2.56536 -0.856561 -0.149034 -0.353117 0.0670064 0 0 0 0 0 0 -0.05109 0.0196571 -0.18986 19.4003 6.15439 0.248712 4.20652 -3.02186 -1.09547 -0.155828 -0.377353 0.0618588 21.0896 6.30277 3.80604 4.24535 -2.09419 -0.608479 -0.142245 -0.32886 0.0721738 
26.982 1 103 22.3283 8.32795 2.43926 -1.97767 -4.45033 -3.37988 -0.352163 -0.0645509 -0.290784 0 0 0 0 0 0 -0.0117159 0.00523741 -0.190977 20.0827 14.1116 3.36526 -2.28033 -3.19534 -3.83643 -0.360924 -0.0630697 -0.310639 24.3084 2.03599 0.818914 -1.68229 -5.69074 -2.91259 -0.343471 -0.0659863 -0.270931 
26.982 1 262 22.4078 6.35207 4.2177 -4.37446 1.48702 2.83505 -0.289665 0.051321 0.513445 0 0 0 0 0 0 -0.00601131 0.00182265 -0.0385091 20.344 6.94352 3.79829 -4.50179 1.03577 2.81656 -0.301357 0.0535176 0.535166 24.211 5.18588 4.00411 -4.25232 1.9491 2.8636 -0.278017 0.0491223 0.491723 