ITEM: TIMESTEP
16800
ITEM: NUMBER OF ATOMS
4000
ITEM: BOX BOUNDS pp pp pp
-3.48866 43.9887
1.3237 39.1763
0.845184 39.6548
ITEM: ATOMS mass type id x y z vx vy vz fx fy fz xrad yrad zrad vxrad vyrad vzrad fxrad fyrad fzrad xub yub zub vxub vyub vzub fxub fyub fzub xlb ylb zlb vxlb vylb vzlb fxlb fylb fzlb 
26.982 1 43 -2.36038 5.42131 3.07833 1.63407 -4.09312 2.04531 -0.00150655 -0.1339 -0.391524 0 0 0 0 0 0 -0.110894 -0.0893131 -0.154555 -17.9184 9.86538 25.6736 2.71393 0.425359 7.8217 -0.0181192 -0.121381 -0.40433 19.3884 -0.989366 -20.9413 0.510997 -8.58717 -3.7468 0.0151108 -0.14652 -0.378823 
26.982 1 202 -2.28529 3.5298 5.13486 7.72948 -0.350733 -3.03733 0.576895 -0.912259 0.0528505 0 0 0 0 0 0 -0.227139 -0.160112 -0.0130301 6.63678 -14.826 10.7661 9.72633 1.85122 4.00431 0.570107 -0.925738 0.0756948 -5.02727 19.6957 -1.5878 5.66666 -2.51437 -10.0998 0.583638 -0.898741 0.0297825 
26.982 1 245 -0.283079 5.50566 5.04169 -0.692623 0.208364 -2.80213 -0.227247 0.0909165 -0.20217 0 0 0 0 0 0 -0.027021 -0.0184891 -0.0283094 -9.7599 14.6645 9.00851 -5.88757 4.99941 4.21424 -0.246259 0.103296 -0.190173 14.7554 -5.48695 -0.107142 4.47542 -4.48733 -9.8537 -0.20823 0.0786202 -0.214354 
26.982 1 8 -0.238798 3.37448 2.95449 -0.747843 2.32769 2.38266 -0.203918 0.219792 -0.278338 0 0 0 0 0 0 -0.0608388 -0.136716 -0.158029 -5.58138 21.817 10.0034 -0.911678 5.11665 7.9614 -0.214496 0.22367 -0.282488 10.6366 -17.343 -5.46437 -0.621473 -0.413155 -3.23931 -0.193457 0.215981 -0.27435 
26.982 1 45 -0.0539513 5.79182 1.53325 1.88337 2.15671 4.18913 -0.116601 0.0667495 -0.358173 0 0 0 0 0 0 -0.0111735 -0.0149952 -0.256121 -3.75421 8.18711 52.2537 -0.861915 3.29293 7.79751 -0.12921 0.0808785 -0.375424 9.22971 1.60257 30.6232 4.66097 1.07589 0.568929 -0.103933 0.052603 -0.340987 
26.982 1 205 -0.0193144 1.53573 4.77032 5.52887 1.8179 1.98893 0.409104 0.347486 1.00022 0 0 0 0 0 0 -0.00043022 -0.118477 -0.131023 -2.27306 33.9752 10.6767 13.5764 -0.578691 9.87395 0.434679 0.346936 1.04386 7.67079 47.8809 -2.28394 -2.58504 4.24267 -5.91222 0.383412 0.348075 0.956428 
26.982 1 2801 -3.0683 19.4854 15.9602 3.90586 1.09077 0.994231 -0.207942 -0.182239 0.377471 0 0 0 0 0 0 -0.167276 0.117023 -0.0551569 41.5629 8.17338 31.7133 5.64306 -1.63126 -2.26279 -0.210142 -0.163906 0.364707 40.4613 30.9166 0.208267 2.10684 3.8461 4.34135 -0.205851 -0.200739 0.390335 
26.982 1 209 5.86592 1.93157 4.33695 -1.89721 -3.04304 1.48899 0.943374 -0.401371 0.645725 0 0 0 0 0 0 -0.0128782 -0.173837 -0.0786826 5.68078 2.0016 -2.4037 -8.00872 -5.59206 8.50369 0.946724 -0.433501 0.669453 10.0593 -0.456638 9.91957 4.20107 -0.361057 -5.49889 0.940027 -0.36914 0.621936 
26.982 1 47 2.09879 6.02025 3.54749 -3.51123 -0.772589 5.9167 0.0788554 0.035416 0.44707 0 0 0 0 0 0 0.0209937 -0.00360668 -0.122795 -11.3162 22.973 -10.1268 -8.12533 1.17861 6.60523 0.0832742 0.0335669 0.451071 20.3533 -12.5384 15.7851 1.11138 -2.58832 5.14444 0.0744551 0.0374485 0.442928 
26.982 1 206 1.79745 3.68791 4.71906 4.41335 -0.0862947 -1.71175 0.255139 -0.589834 0.482954 0 0 0 0 0 0 0.0266824 -0.10101 -0.0151489 11.0398 -13.6163 36.3934 9.67703 -6.98774 11.3173 0.270713 -0.609749 0.520538 -2.64115 18.9467 -28.0453 -0.881888 6.93885 -14.7666 0.239437 -0.569705 0.445224 
26.982 1 12 4.26389 4.07277 3.72189 -2.74668 -0.729212 -4.61056 0.0974927 0.693788 0.366954 0 0 0 0 0 0 -0.0132337 -0.0506973 -0.0537776 7.4841 2.20142 -8.65021 -0.411986 -10.4316 -3.38685 0.102097 0.702957 0.386285 5.05599 4.0032 14.7718 -5.11967 9.12967 -5.87213 0.0927778 0.684953 0.347455 
26.982 1 9 4.82657 2.21604 2.00166 -4.77224 1.05794 2.30172 -0.185542 -0.160076 -0.978385 0 0 0 0 0 0 -0.000260351 -0.190516 -0.178422 1.25322 16.5272 9.78734 0.53126 -4.21057 9.98999 -0.188108 -0.191608 -0.970685 12.4285 -14.5325 -7.13688 -10.1328 6.41829 -5.42399 -0.183094 -0.128425 -0.986288 
26.982 1 6 2.1873 3.91966 1.66707 -0.712043 5.42049 -2.62706 0.389527 0.189505 -0.271649 0 0 0 0 0 0 -0.0081533 -0.0540479 -0.249608 -5.26632 -17.6876 22.2271 -0.798099 1.17933 2.52306 0.396379 0.187583 -0.286328 14.3702 23.3969 -20.3137 -0.67385 9.75392 -7.80663 0.382574 0.191588 -0.257107 
26.982 1 249 4.26868 6.16072 5.72103 0.43745 -3.18794 -2.19802 0.328946 -0.374355 -0.637846 0 0 0 0 0 0 0.00783812 -0.0392394 -0.0232365 -0.513003 -16.7345 18.2342 -4.59855 -8.59001 2.81876 0.340534 -0.395579 -0.648401 13.0784 27.3592 -7.92225 5.46504 2.33009 -7.21844 0.317314 -0.352867 -0.627483 
26.982 1 51 6.9683 4.76964 3.03334 -2.44321 2.35134 7.21797 -0.0560591 0.256626 -0.406398 0 0 0 0 0 0 0.00570265 -0.0318132 -0.12398 -7.71463 8.10527 -22.8775 2.16722 -4.59882 2.86455 -0.0520303 0.249877 -0.400828 24.9158 -0.231773 27.6828 -7.10739 9.44471 11.5991 -0.0601769 0.263601 -0.41202 
26.982 1 210 6.85584 4.21607 5.63273 -2.83754 2.37573 2.12638 0.01735 0.135459 -0.245519 0 0 0 0 0 0 -0.0319996 -0.0912131 0.00121641 -4.59743 2.98285 14.0617 -8.65981 -5.15322 4.09513 -0.0029501 0.116502 -0.242195 21.6331 3.36526 -3.99736 2.9719 10.0198 0.189574 0.0376356 0.154616 -0.248894 
26.982 1 11 8.77749 2.41603 3.43533 -5.43319 -1.61229 -0.38352 -0.294179 -0.0109595 -0.0741089 0 0 0 0 0 0 0.0109158 -0.198222 -0.132571 -2.67746 68.9979 -29.2899 -9.20312 1.51904 -5.81741 -0.298862 -0.0261019 -0.0684402 23.6336 14.8239 34.7882 -1.6545 -4.61564 5.06675 -0.289544 0.00435077 -0.0798386 
26.982 1 49 5.00962 4.9496 0.932251 0.958696 1.27478 1.92774 -0.282956 0.229336 0.535158 0 0 0 0 0 0 -0.0255342 0.0119164 -0.271133 22.6 -13.737 -17.4216 6.66667 -2.13669 -0.355304 -0.297583 0.227755 0.547147 -8.64647 21.8144 17.9555 -4.84007 4.80296 4.24236 -0.268503 0.231098 0.523109 
26.982 1 98 18.441 11.8367 1.65749 3.19293 -1.98236 2.60806 -0.369279 -0.416621 0.250106 0 0 0 0 0 0 -0.0171843 -0.0251443 -0.243619 4.95299 15.2693 57.6627 6.01588 5.60811 5.41833 -0.354843 -0.431348 0.251525 32.6394 7.2432 25.3732 0.308783 -9.5595 -0.158487 -0.384038 -0.40183 0.248696 
26.982 1 10 7.4615 3.07746 1.10626 0.503327 -0.30366 3.12808 -0.0727399 0.717869 -0.178769 0 0 0 0 0 0 0.0357716 -0.120066 -0.230536 19.6086 4.75532 -4.16303 5.73236 -1.53858 6.62545 -0.0588819 0.725781 -0.165316 -1.30221 -0.815797 5.04374 -4.75949 0.999194 -0.337536 -0.086743 0.710071 -0.192314 
26.982 1 253 9.53747 4.89785 4.06913 -0.976257 6.81668 -2.67454 -0.36389 -0.095144 0.540075 0 0 0 0 0 0 0.00371748 -0.0468502 -0.0639251 4.90969 2.10644 52.2256 -3.65494 6.00257 -1.29654 -0.368411 -0.117014 0.544556 16.9552 6.0725 -45.2413 1.72016 7.76697 -4.01977 -0.359447 -0.0731238 0.53563 
26.982 1 16 11.5153 3.21178 2.61305 3.28265 4.87091 -0.244262 0.116063 0.0359126 0.528533 0 0 0 0 0 0 0.012969 -0.15704 -0.212796 -2.41045 30.6418 -3.69256 -7.18129 6.7779 -3.51458 0.133541 0.0272396 0.502231 28.3065 -26.3944 7.52001 13.8169 3.03004 3.07092 0.0986504 0.0446604 0.554811 
26.982 1 213 10.8328 1.9252 5.1536 -4.41596 8.09452 -3.44957 0.18182 0.273279 0.035009 0 0 0 0 0 0 0.0249967 -0.246656 -0.0563468 7.02121 4.53224 16.5722 -7.79628 4.47874 -4.34362 0.188614 0.253988 0.0307525 17.4736 -3.12242 -7.50919 -0.971681 11.7927 -2.51994 0.174998 0.292624 0.0392861 
26.982 1 255 11.9766 4.8324 5.27702 -2.8026 7.74049 9.56911 0.375138 0.0573044 0.255549 0 0 0 0 0 0 0.0120179 -0.0359761 -0.0167506 -3.3971 0.683148 54.7863 -11.3812 3.45572 17.9389 0.390631 0.0388866 0.270683 29.5518 7.23157 -45.293 5.84256 12.1385 1.20182 0.359671 0.07585 0.240469 
26.982 1 55 14.6401 6.39241 4.34407 -5.48898 -0.0780696 3.56972 -0.759625 -0.912326 0.527525 0 0 0 0 0 0 -0.0193991 -0.00931737 -0.054392 3.8837 12.9511 25.448 -15.2188 0.0886252 8.54393 -0.77457 -0.919527 0.525979 27.6329 -1.8466 -17.9814 4.35264 -0.142746 -1.35539 -0.744581 -0.905025 0.52912 
26.982 1 214 14.3604 3.37916 5.49674 -4.76762 4.04826 1.23783 -0.378167 0.631406 0.331624 0 0 0 0 0 0 -0.0316133 -0.154959 0.0126832 20.6988 9.29802 16.814 -12.6979 1.62963 6.69257 -0.399672 0.611238 0.345495 10.2581 -4.63899 -7.06811 3.27479 6.54798 -4.1937 -0.356563 0.651669 0.317738 
26.982 1 20 16.4321 4.33523 3.73748 -2.71655 0.580926 -1.5632 0.353603 -0.325102 0.218588 0 0 0 0 0 0 -0.0194217 -0.0595096 -0.084619 27.8547 -16.8766 13.0068 -6.6606 -3.3661 1.67461 0.337407 -0.330867 0.208483 6.46179 23.4735 -6.79238 1.3581 4.5633 -4.76604 0.369903 -0.319335 0.228686 
26.982 1 257 16.823 6.07213 5.94883 -2.88149 3.28491 1.82915 0.282111 -0.239441 0.189414 0 0 0 0 0 0 0.000805429 -0.0203835 -0.00206688 20.1272 -15.6514 27.1322 -6.94542 3.05561 10.848 0.286072 -0.250503 0.185952 14.9898 25.9955 -16.3982 1.27508 3.56459 -7.15603 0.278175 -0.228333 0.192912 
26.982 1 14 13.989 4.24658 2.72572 -0.0333454 2.6701 3.09479 -0.306595 0.0116736 -0.0377453 0 0 0 0 0 0 -0.044115 -0.068474 -0.196338 -3.47859 38.8825 41.9295 -13.5139 1.67878 1.80795 -0.334941 -0.00325833 -0.0534719 33.734 -32.5 43.4047 13.5884 3.75158 4.44072 -0.278168 0.0266397 -0.021964 
26.982 1 57 16.3062 5.51703 1.40677 7.24635 1.80979 -4.09158 -0.789117 0.555619 0.00435886 0 0 0 0 0 0 -0.0371247 0.0153701 -0.286487 23.4918 36.9356 -10.0954 4.05666 7.87466 -5.90675 -0.809522 0.573124 -0.0152415 10.5519 -27.7142 11.5972 10.5439 -4.20778 -2.2277 -0.768639 0.538114 0.023951 
26.982 1 1090 8.88488 10.2585 20.0691 4.06029 -0.0895104 -2.70292 0.060633 0.567871 0.0946048 0 0 0 0 0 0 -0.0542988 -0.0336719 0.0414467 13.8318 32.6305 45.4011 6.12595 9.73489 2.94491 0.0616579 0.597519 0.102181 7.23766 -13.2278 -4.77137 1.95566 -9.97044 -8.31964 0.0595947 0.538122 0.0870478 
26.982 1 17 15.786 2.377 1.74315 -1.36317 1.90789 -7.07717 0.323235 0.534891 0.539085 0 0 0 0 0 0 -0.0479787 -0.172466 -0.227536 27.2771 52.6615 30.7252 -5.55456 3.29878 -11.0484 0.319021 0.544066 0.533978 5.69058 31.0597 52.6221 2.9681 0.619828 -3.0678 0.327684 0.525674 0.544213 
26.982 1 218 18.5241 3.78773 5.28168 -3.28005 3.51544 0.77324 0.195224 -0.0438481 0.0790179 0 0 0 0 0 0 0.00224068 -0.0883299 0.00172566 -0.00899759 -2.23197 6.10473 -10.6983 4.05035 3.22636 0.19332 -0.0343931 0.0835602 37.729 7.75049 3.29545 4.21348 3.0023 -1.66872 0.197051 -0.0533501 0.0744392 
26.982 1 59 18.7731 5.9323 3.66243 0.354315 -3.57584 1.63467 0.306299 0.113185 -0.12925 0 0 0 0 0 0 0.0284972 0.0105651 -0.0764151 30.912 -11.6696 19.2725 0.456568 -2.9972 2.80581 0.338979 0.124697 -0.140499 7.25941 21.6231 -13.1558 0.288861 -4.18921 0.506246 0.273405 0.101482 -0.117952 
26.982 1 24 20.598 3.89658 3.27601 0.573173 5.94433 2.35521 -0.160134 0.446566 0.365859 0 0 0 0 0 0 0.0203022 -0.0204698 -0.0764976 5.612 19.0418 19.6462 -2.76079 12.4106 6.00227 -0.143235 0.499528 0.374851 35.5216 -13.2335 -14.3829 3.9208 -0.492757 -1.27037 -0.177225 0.39335 0.356746 
26.982 1 261 21.6027 5.77367 5.32371 1.76032 1.95052 2.50303 -0.203104 0.763383 -0.093297 0 0 0 0 0 0 0.0218392 0.00871722 -0.0499366 19.0213 15.2484 5.02694 1.92788 11.0121 2.84381 -0.188064 0.788836 -0.134662 24.1224 -5.56306 4.45194 1.60777 -7.11227 2.1733 -0.218331 0.737831 -0.0519331 
26.982 1 19 18.2882 1.86004 3.00251 3.1023 -2.6695 -0.818814 0.0545766 0.014255 0.181194 0 0 0 0 0 0 -0.0160028 -0.237965 -0.108946 35.351 0.639839 16.3144 -2.09297 -1.93116 0.481106 0.050821 0.00286765 0.192779 1.86831 0.666252 -11.5824 8.39772 -3.36283 -2.08281 0.0584924 0.0255584 0.169604 
26.982 1 221 20.5186 1.81485 4.85644 2.71739 -2.18941 -0.298286 -0.590696 -0.594091 0.0311122 0 0 0 0 0 0 0.0105354 -0.18302 -0.0869744 1.58549 40.2834 -10.061 -2.09675 0.275027 -1.29041 -0.588992 -0.590036 0.0509811 39.4299 42.244 18.5675 7.54787 -4.62301 0.68886 -0.592568 -0.598262 0.0111112 
26.982 1 63 24.2033 4.38088 2.92175 -2.43544 1.15457 0.817086 -0.269044 -0.0612063 -0.158531 0 0 0 0 0 0 -0.0174705 -0.00477359 -0.102769 29.5722 28.6822 13.7158 -4.50942 7.43095 3.77374 -0.298677 -0.0407184 -0.130404 18.1669 -21.8086 -9.12255 -0.35412 -5.1303 -2.12193 -0.239316 -0.0819517 -0.186797 
26.982 1 222 22.7988 3.15422 5.25282 0.133593 -6.65208 1.00355 0.682372 -0.336511 -0.428317 0 0 0 0 0 0 0.0412257 -0.0993774 -0.0447443 18.5845 20.0018 10.9299 2.75318 -4.29339 3.17033 0.719381 -0.339155 -0.430332 26.2811 -15.8012 -1.5946 -2.50558 -8.98559 -1.15635 0.645308 -0.334071 -0.426454 
26.982 1 28 26.3762 2.37073 2.77701 -0.740901 2.19384 0.931815 -0.0221309 -0.251735 -0.0324344 0 0 0 0 0 0 -0.00938858 -0.221842 -0.0882539 32.8984 9.25832 22.5397 1.12489 2.19074 6.54085 -0.0388758 -0.261527 -0.00975781 18.5549 -6.57222 -18.4921 -2.61671 2.23983 -4.70236 -0.00522609 -0.242059 -0.0553271 
26.982 1 265 26.5951 4.77803 4.0645 0.278537 1.53261 6.41828 0.19802 0.0807571 0.310359 0 0 0 0 0 0 -0.0254618 -0.0357259 -0.0649984 31.5026 -21.1354 5.20892 -0.23102 -2.14315 7.71946 0.166278 0.0749351 0.315284 20.3828 28.8328 1.69034 0.833898 5.26981 5.14127 0.230136 0.0864894 0.305342 
26.982 1 998 42.4299 17.1302 16.1435 -0.574413 2.48687 -0.242811 -0.49629 0.180276 -0.196194 0 0 0 0 0 0 0.0295136 0.00538189 -0.0510887 35.3023 44.9766 30.4459 1.99867 -0.204788 1.85511 -0.501403 0.184644 -0.208213 43.4924 -10.9081 1.77071 -3.18426 5.25239 -2.27294 -0.491167 0.175952 -0.184046 
26.982 1 23 22.5823 1.96345 2.88701 4.40617 1.70427 0.621556 0.0721977 0.165826 -0.181586 0 0 0 0 0 0 0.0561618 -0.22733 -0.0800604 11.8747 66.4957 17.2289 5.35217 7.03811 6.6201 0.105805 0.179683 -0.154731 32.6354 16.2784 -12.6683 3.4445 -3.6259 -5.36618 0.0385401 0.151721 -0.208675 
26.982 1 67 28.6572 4.58381 2.39974 0.297972 0.760634 -1.92905 0.145668 0.0889193 0.0203155 0 0 0 0 0 0 0.0523042 -0.0235167 -0.208042 27.6136 -8.06685 9.62599 -0.147734 -2.33709 -1.40016 0.137786 0.080577 0.0216873 27.7381 15.3461 -6.17331 0.774105 3.94115 -2.411 0.153806 0.0972691 0.0188854 
26.982 1 226 28.6184 2.4663 4.39633 6.9165 -0.245237 -0.372748 0.0675599 0.530285 -0.177801 0 0 0 0 0 0 0.0317996 -0.18106 -0.123384 28.8344 -11.4094 18.9582 5.83694 -2.03295 1.68919 0.0668574 0.523433 -0.186201 26.4777 14.425 -11.4535 8.03827 1.63907 -2.40554 0.0685142 0.537176 -0.169468 
26.982 1 32 31.0447 2.70164 2.61232 9.24072 -0.674608 0.247567 -0.324183 -0.669678 0.145908 0 0 0 0 0 0 0.0412134 -0.178217 -0.192881 11.8752 13.1858 27.8089 7.5618 1.12158 2.1618 -0.341921 -0.699113 0.144312 47.5733 -9.77462 -23.9505 10.9586 -2.39006 -1.63026 -0.306322 -0.640198 0.14744 
26.982 1 269 30.9025 4.70648 4.43703 2.72045 -0.0979512 -0.718414 0.0116087 0.212251 -0.328085 0 0 0 0 0 0 0.0116829 -0.0560636 -0.0982948 26.7369 14.4229 28.8346 2.06951 -1.74811 0.522166 0.00811805 0.19967 -0.322698 32.4973 -6.88926 -21.0405 3.41316 1.63074 -1.89762 0.0152326 0.224912 -0.333478 
26.982 1 2839 42.0036 19.1904 17.9751 -6.0061 4.93158 -0.919654 -0.270993 0.00489795 -0.274972 0 0 0 0 0 0 0.07827 0.0667195 -0.0911844 40.399 4.88966 37.3719 -6.05198 0.601373 0.52277 -0.268269 -0.000972413 -0.292846 37.4211 33.7897 -1.19437 -5.99741 9.33647 -2.30307 -0.273777 0.0107235 -0.257007 
26.982 1 71 33.1038 4.70716 2.43511 0.821432 3.26299 3.30398 -0.201116 -0.261415 0.515711 0 0 0 0 0 0 0.0167858 -0.0575205 -0.267143 31.5632 19.6017 2.15018 0.807885 3.43124 4.25608 -0.190086 -0.273818 0.537686 31.2056 -12.0462 1.55934 0.846794 3.17599 2.42873 -0.212134 -0.248955 0.493688 
26.982 1 230 33.0877 2.7762 4.54614 0.943657 5.16726 -3.4407 -0.728283 0.0530602 0.22945 0 0 0 0 0 0 0.00979712 -0.171427 -0.14089 14.2774 -9.09889 -9.35737 -0.300144 2.81791 -7.17365 -0.7306 0.0482114 0.239038 48.5398 12.7188 17.4299 2.21052 7.60333 0.358585 -0.725929 0.0579475 0.219853 
26.982 1 273 34.5863 5.08168 4.90127 1.07067 -1.0319 -3.14875 0.987209 -0.0804372 -0.981582 0 0 0 0 0 0 0.0298739 -0.0507741 -0.0985474 46.5627 20.6045 -12.3121 3.14448 -1.93779 -6.32234 1.01643 -0.0901909 -1.00399 18.3787 -12.3599 20.9934 -1.04662 -0.0659463 0.0693715 0.957921 -0.0706504 -0.959188 
26.982 1 36 34.8987 2.57771 2.60945 0.925297 1.06065 -1.64916 0.666107 0.782237 -0.323899 0 0 0 0 0 0 0.0182918 -0.178737 -0.209217 43.6032 -5.87463 -16.2223 4.20251 -1.03042 -4.5045 0.68509 0.812342 -0.315108 21.9855 8.97683 20.2708 -2.38011 3.22512 1.25915 0.647066 0.752152 -0.332772 
26.982 1 75 36.9251 4.87756 2.613 -3.73705 -7.10421 -7.27055 0.0876909 -0.156755 0.585176 0 0 0 0 0 0 -0.0364536 -0.0629691 -0.213052 43.1611 25.3777 7.28281 -0.751897 -5.74814 -5.99356 0.0955981 -0.155838 0.611804 25.7151 -17.642 -3.18114 -6.79216 -8.41657 -8.49644 0.0796367 -0.157654 0.558472 
26.982 1 234 36.9351 2.84278 4.5162 8.02252 -5.57614 -1.45765 -0.131486 0.210261 0.192256 0 0 0 0 0 0 0.0186315 -0.17241 -0.137673 57.4029 -2.22608 -3.1519 14.9118 -7.53218 -2.3277 -0.123223 0.224533 0.199616 11.5058 5.81964 11.1778 1.03099 -3.54904 -0.552409 -0.139898 0.196022 0.18486 
26.982 1 40 39.1841 2.99533 2.86848 -2.34868 -3.94666 -5.20234 0.0554801 0.0684198 -0.255148 0 0 0 0 0 0 0.00349876 -0.216102 -0.168807 53.3687 22.0995 -5.79723 5.86134 -2.69219 -0.847758 0.0640017 0.0794758 -0.266906 19.4095 -18.2894 10.3413 -10.6326 -5.15085 -9.56856 0.0468333 0.0573712 -0.243571 
26.982 1 277 39.0311 5.16553 4.86637 4.31766 -1.9923 1.25827 -0.290528 -0.397114 -0.535021 0 0 0 0 0 0 -0.00865365 -0.0517301 -0.0720597 40.1353 30.7271 -5.92927 11.922 -5.76808 -0.0782754 -0.28914 -0.399967 -0.556997 32.3145 -22.2478 14.71 -3.3759 1.88766 2.63797 -0.292084 -0.394226 -0.513068 
26.982 1 964 -3.28363 17.58 18.178 -3.26565 -5.70014 6.49013 0.11257 -0.449641 -0.329366 0 0 0 0 0 0 -0.0908586 -0.0318277 -0.0875435 31.9051 5.33187 17.8553 -3.62474 -15.7342 6.88537 0.104433 -0.448972 -0.343084 49.7265 29.7265 18.5544 -2.94414 4.42258 6.14847 0.120691 -0.450363 -0.315532 
26.982 1 415 12.9191 1.64147 9.64127 -1.7445 -3.66908 1.26384 -0.429503 0.343458 -0.500135 0 0 0 0 0 0 0.0361733 -0.249073 -0.0458803 12.4469 14.95 51.5218 -3.1549 -7.51998 0.791225 -0.419236 0.343222 -0.525762 15.5999 -14.2109 -32.8047 -0.284749 0.200531 1.81431 -0.439851 0.343694 -0.474364 
26.982 1 241 43.1295 5.07575 5.1724 1.48073 -1.30616 -0.576267 -0.384601 0.972964 0.203121 0 0 0 0 0 0 0.12378 -0.00484226 -0.0852969 3.41304 13.4144 -15.1454 8.90527 -2.15203 -0.318698 -0.388967 0.993019 0.217734 -5.38476 -5.07682 24.3506 -6.05339 -0.369252 -0.846678 -0.380316 0.952923 0.188402 
26.982 1 813 11.3522 1.34197 16.1091 -1.04506 -1.33301 -0.207166 0.0784117 0.0371732 0.0278183 0 0 0 0 0 0 0.00345684 -0.204672 -0.148155 7.71675 0.0589476 8.66092 -0.18754 -0.422231 -2.63724 0.084979 0.0523888 0.0217389 17.6868 0.154345 23.755 -1.89014 -2.21931 2.32626 0.0718401 0.0218368 0.0340285 
26.982 1 4 43.4766 3.13319 3.08916 1.34043 3.18422 -4.38567 -0.381509 -0.258276 -0.313241 0 0 0 0 0 0 -0.0352066 -0.201366 -0.163881 25.9722 4.80766 14.0269 3.10236 9.68418 4.95663 -0.390142 -0.257643 -0.318958 54.1306 -0.74494 -9.10931 -0.500644 -3.28194 -13.759 -0.372889 -0.258948 -0.307714 
26.982 1 79 41.2395 4.88162 3.00624 -0.0660658 1.46763 3.57482 -0.307729 0.555649 -0.179169 0 0 0 0 0 0 -0.0130779 -0.0930076 -0.133233 33.0523 36.0828 -22.6526 3.85497 4.18669 4.08436 -0.306851 0.578153 -0.185801 43.1976 -28.271 27.4817 -4.08219 -1.19992 3.05755 -0.308698 0.53312 -0.172656 
26.982 1 238 41.2662 3.05733 5.07248 -5.00628 6.10009 -2.73037 -0.330878 -0.230643 0.120239 0 0 0 0 0 0 0.0292612 -0.253575 -0.0471059 51.4682 -5.64885 -7.93909 -1.13756 6.21017 -3.04463 -0.322581 -0.250562 0.142662 24.7928 9.64779 17.0134 -8.96147 6.08199 -2.43812 -0.339261 -0.210647 0.0976689 
26.982 1 41 43.0977 5.09463 1.04921 4.23734 -2.55953 -1.0114 0.217775 0.0366552 -0.0464478 0 0 0 0 0 0 -0.0101591 -0.0786739 -0.253551 -7.89462 27.3479 5.66782 10.4361 8.03268 -3.41636 0.214045 0.049504 -0.0366367 5.96985 -19.0767 -5.07162 -2.04041 -13.1482 1.41011 0.221442 0.0236703 -0.0563402 
26.982 1 141 20.5652 13.3296 1.07017 -0.925904 -4.12287 2.03463 0.343767 0.613364 0.352233 0 0 0 0 0 0 0.00945123 -0.0222975 -0.244586 14.4001 37.9593 32.0512 -3.35229 4.32814 11.6464 0.363872 0.60856 0.364468 26.7612 -11.9909 49.9113 1.49467 -12.5157 -7.53117 0.323528 0.618419 0.339981 
26.982 1 90 7.6374 10.4267 1.03618 -6.76893 1.03151 2.76772 0.205348 0.0578002 -0.262941 0 0 0 0 0 0 0.0421591 -0.0485528 -0.275309 18.1141 -9.0218 39.8612 -4.79488 -3.20761 4.00309 0.224747 0.0610799 -0.254144 0.472215 29.0357 42.1665 -8.76486 5.43069 1.60339 0.185777 0.0545994 -0.271776 
26.982 1 83 -2.02435 9.92878 3.9318 -5.21116 2.28622 -2.85128 -0.0900318 -0.139819 -0.718062 0 0 0 0 0 0 -0.208726 0.0147829 -0.0981589 -4.00963 31.2463 12.9035 -6.58541 5.01852 -1.80968 -0.113063 -0.144401 -0.739953 6.12822 -12.8019 -6.2824 -3.86851 -0.434581 -3.8617 -0.0668763 -0.135338 -0.696242 
26.982 1 242 -2.33252 7.35676 4.90395 4.19616 -6.72822 -1.57958 -0.581724 0.232475 0.510613 0 0 0 0 0 0 -0.149167 0.01995 -0.0724689 -8.39604 24.9874 22.1588 6.9899 -6.37526 4.93705 -0.601353 0.233369 0.521146 9.82592 -11.9392 -13.3065 1.31378 -7.05163 -8.06549 -0.562102 0.231515 0.500024 
26.982 1 48 -0.0726297 7.84833 3.41289 3.31197 -4.67119 -4.5683 0.00299702 0.0162596 0.0216576 0 0 0 0 0 0 -0.0334819 -0.00526973 -0.0951756 -32.3545 44.883 -20.8779 -2.35598 0.84015 -3.32044 -0.0155288 0.0165071 0.0250632 37.8739 -30.8262 26.2098 9.02816 -10.1258 -5.90281 0.0217204 0.0160061 0.0181907 
26.982 1 88 0.574574 10.4789 3.08641 -4.5854 -3.28544 -5.15188 -0.0857256 0.468726 -0.325205 0 0 0 0 0 0 -0.0294869 0.0256122 -0.144956 -27.8196 25.5532 23.0055 -9.47884 0.890661 3.04914 -0.108359 0.486329 -0.321963 34.7224 -5.7597 -18.1979 0.401005 -7.43786 -13.3511 -0.0628116 0.45107 -0.328488 
26.982 1 42 -2.25402 7.72414 1.43739 -3.80518 -0.4933 -3.50589 0.183174 -0.312355 0.0782768 0 0 0 0 0 0 -0.16611 -0.0121711 -0.196574 0.455653 28.0509 9.66497 -6.16313 4.67911 -3.79417 0.181933 -0.301409 0.0763028 1.30433 -14.2697 -8.37033 -1.44378 -5.65169 -3.20536 0.184508 -0.323396 0.0801929 
26.982 1 81 42.963 9.37689 0.870478 3.38228 -0.30837 1.53292 0.0263024 0.130656 0.512905 0 0 0 0 0 0 0.0313755 0.0241394 -0.243985 2.98542 23.9858 5.24962 11.9261 4.24084 3.90435 0.0315494 0.148927 0.538175 -5.19938 -6.55872 -4.95483 -5.24683 -4.84116 -0.760143 0.0209688 0.112274 0.487617 
26.982 1 87 2.67934 8.63011 3.05029 -0.0909332 3.38807 -0.713836 -0.00240413 0.446722 -0.469288 0 0 0 0 0 0 0.013964 -0.0149306 -0.166025 -15.2954 16.4065 21.4726 -5.1578 5.34588 8.13048 0.00101016 0.445208 -0.468253 25.665 -0.466758 -16.731 5.04666 1.4923 -9.57371 -0.00571011 0.448317 -0.47039 
26.982 1 286 2.7402 10.7402 4.98472 0.21817 -5.81816 -3.81752 -0.214685 0.110691 0.0361005 0 0 0 0 0 0 0.00169104 0.00680302 -0.0196477 -5.85648 35.9475 63.4502 -3.47459 -2.50148 10.2178 -0.2128 0.124451 0.0525308 16.4459 -15.8081 -54.9408 4.01574 -9.12677 -17.9338 -0.216434 0.0969465 0.0194929 
26.982 1 133 9.53989 12.9135 0.738693 7.37424 -3.81957 0.520245 -0.0451205 0.0203882 0.541178 0 0 0 0 0 0 0.0712109 0.00749106 -0.272095 14.4281 17.0881 13.805 6.7806 -3.81023 2.29874 -0.0383374 0.0224431 0.564791 7.17104 8.08258 -13.7604 7.94113 -3.71879 -1.1931 -0.0519293 0.0184547 0.517471 
26.982 1 1025 25.3678 1.38883 19.9317 5.98715 -1.38473 -4.30671 -0.563363 -0.493506 0.147989 0 0 0 0 0 0 -0.0713809 -0.241207 -0.106028 12.5156 56.7725 46.2126 -0.315541 -3.78554 -2.25717 -0.585954 -0.488733 0.149939 36.9264 24.746 -6.12744 12.3655 1.06263 -6.31117 -0.540501 -0.498258 0.146177 
26.982 1 289 4.80909 8.83556 4.8918 2.05983 7.24104 1.28415 0.426844 -0.0417787 -0.103584 0 0 0 0 0 0 0.0143569 -0.00172257 -0.0302022 16.0406 14.0703 47.6217 -1.52781 8.34054 11.4784 0.448247 -0.0397122 -0.0973356 -2.26899 2.22682 -39.1695 5.68581 6.21587 -8.96654 0.405377 -0.0437374 -0.109978 
26.982 1 52 4.86695 6.97228 2.8292 1.91844 -0.745572 0.999298 -0.16823 -0.446881 0.226329 0 0 0 0 0 0 -0.0287553 -0.00637933 -0.168235 12.1904 -1.87295 21.2591 1.37057 -6.04906 5.88245 -0.171964 -0.466473 0.236561 1.55488 14.3223 -16.7871 2.42108 4.69047 -3.85846 -0.164626 -0.427104 0.216034 
26.982 1 91 7.45279 9.51734 3.72728 -4.01305 2.29321 -0.672285 -0.312952 0.513412 0.371639 0 0 0 0 0 0 0.0132591 0.00310422 -0.0688963 15.0866 -0.0964039 15.667 -2.58627 -1.04174 3.37884 -0.309197 0.531529 0.394704 3.10759 17.8801 -9.46109 -5.45737 5.74744 -4.71375 -0.316923 0.495327 0.348503 
26.982 1 250 7.13088 6.9527 4.67883 -2.46464 -3.28968 7.45425 -0.586807 -0.15503 0.252995 0 0 0 0 0 0 -0.0256185 -0.00517069 -0.0241292 11.5645 9.53587 41.4349 -1.19652 -9.76069 9.41235 -0.610538 -0.1642 0.268566 5.98051 3.05751 -33.5773 -3.77346 3.34172 5.47161 -0.563228 -0.145703 0.23736 
26.982 1 89 5.10166 9.72419 1.9873 -1.34005 -3.74665 2.67166 0.303453 -0.260571 0.684593 0 0 0 0 0 0 -0.033718 -0.047472 -0.233687 16.7117 16.1061 -22.7999 -1.78109 -6.1819 1.28778 0.307903 -0.270717 0.710215 -2.48772 2.10991 25.3629 -0.895248 -1.22626 4.04915 0.298866 -0.250373 0.658923 
26.982 1 50 7.30302 7.51189 1.78106 -4.9157 3.60497 -3.05388 0.0795908 0.351405 0.188407 0 0 0 0 0 0 0.0203727 -0.00973202 -0.26372 28.166 17.3294 -0.130633 5.05133 -8.37936 -5.3016 0.0987895 0.331843 0.184625 -10.2621 -3.79988 2.44469 -14.9365 15.7362 -0.722287 0.0602308 0.37109 0.192206 
26.982 1 293 9.62089 9.40655 5.56004 -5.96393 2.04563 -1.91283 0.117027 0.972694 -0.0402071 0 0 0 0 0 0 0.00941593 0.035025 -0.0129128 11.589 28.8356 56.3761 -6.07019 -0.660232 3.78192 0.121665 1.00951 -0.0298263 10.3601 -11.4329 -46.5289 -5.8522 4.86463 -7.60473 0.112303 0.935875 -0.0506335 
26.982 1 56 9.42267 7.49824 3.38838 0.734624 5.35838 -2.35922 0.567278 0.318172 -0.0552441 0 0 0 0 0 0 0.0229286 0.0194036 -0.146664 14.8363 2.88312 20.939 0.35837 -6.77429 -4.10068 0.570894 0.318794 -0.0593459 6.79443 10.6785 -15.3608 1.11641 17.6408 -0.558049 0.563561 0.317647 -0.0511431 
26.982 1 95 11.9047 8.77239 2.45164 0.644941 7.85501 2.0886 0.100704 0.254813 -0.00446451 0 0 0 0 0 0 -0.0238572 0.0145344 -0.24017 7.92885 8.6219 -10.8152 -0.174068 -0.610593 0.719692 0.0971586 0.257978 0.00782418 17.9699 7.46244 14.5648 1.50177 16.4357 3.52205 0.104224 0.251737 -0.0167784 
26.982 1 254 11.8779 7.75208 5.05785 -4.17258 -2.07234 2.1253 0.253361 0.147039 -0.443229 0 0 0 0 0 0 0.00455776 0.00270494 -0.039547 -0.98195 -6.33165 61.6648 -11.2511 -9.16886 11.8935 0.259828 0.145188 -0.441448 26.9315 20.3663 -52.8154 2.96378 5.12361 -7.60401 0.246915 0.148928 -0.445064 
26.982 1 53 11.7205 6.00937 2.89867 1.57378 -1.51526 -5.25409 0.569018 0.0458036 -0.413132 0 0 0 0 0 0 0.0128442 -0.00153062 -0.189533 -8.8416 32.4189 -27.8354 -11.3273 -1.54104 -9.93672 0.581997 0.0273731 -0.427357 35.1186 -22.156 32.1546 14.5379 -1.35137 -0.523606 0.556037 0.0643942 -0.398821 
26.982 1 97 16.1608 9.85998 1.8667 0.353926 0.412868 -0.196859 0.374194 -0.447698 0.411648 0 0 0 0 0 0 -0.0229321 -0.00326572 -0.25326 23.6245 13.3625 19.008 1.09538 6.40268 -0.443897 0.379618 -0.448498 0.426544 10.0823 4.99106 -16.745 -0.387603 -5.52779 0.0925091 0.368568 -0.446812 0.396757 
26.982 1 60 16.883 7.79186 3.96225 -1.80789 -0.153104 -2.00978 -0.332734 0.339842 -1.03806 0 0 0 0 0 0 -0.00325519 0.0131925 -0.103305 30.4803 13.3033 -0.766689 -2.82029 6.40118 -2.89107 -0.331283 0.347196 -1.07922 4.67951 0.578113 7.42577 -0.746464 -6.67496 -1.1106 -0.334287 0.332449 -0.996851 
26.982 1 297 14.3446 9.00207 4.04484 -1.26073 3.71634 -2.12514 -0.0133189 1.08608 0.0573585 0 0 0 0 0 0 -0.0204304 0.033044 -0.0811926 28.9638 46.4342 1.04783 2.15594 8.06892 -3.1848 -0.021511 1.11533 0.0546174 1.15647 -29.8124 5.85039 -4.65973 -0.575324 -1.0548 -0.00512794 1.0569 0.0600963 
26.982 1 54 14.1828 7.32283 1.9136 6.29752 1.79445 -4.8323 0.259825 -0.530345 -0.559146 0 0 0 0 0 0 -0.0273938 0.00786627 -0.280623 1.99593 24.3036 -32.432 -0.193559 3.50992 -12.8036 0.268865 -0.547227 -0.590574 28.5672 -11.3453 34.7081 12.8849 0.164623 3.13962 0.250789 -0.51335 -0.52775 
26.982 1 299 16.7355 9.62073 5.87554 5.07145 3.05642 3.60976 -0.0101107 0.453759 -0.138478 0 0 0 0 0 0 -0.00345174 0.0254871 -0.0229463 4.72698 14.7689 -13.3741 7.52937 4.95467 -1.91088 -0.0135625 0.479274 -0.161357 29.4278 3.03409 24.0373 2.59332 1.16227 9.14631 -0.00672639 0.428272 -0.115531 
26.982 1 58 18.3234 7.87157 1.63413 1.22035 -3.02112 0.189863 -0.103853 -0.0167257 0.0322621 0 0 0 0 0 0 -0.00558093 0.0345128 -0.255668 1.81947 66.3026 26.8268 0.619475 8.8455 2.75828 -0.0804807 -0.00233726 0.0395517 35.4578 -52.2536 -24.7212 1.82234 -14.91 -2.27424 -0.12745 -0.0311996 0.0249966 
26.982 1 99 18.8865 9.80607 3.61032 -3.08282 -5.31771 8.5775 -0.124094 0.58668 0.0666345 0 0 0 0 0 0 0.014881 0.0205126 -0.0867366 30.7664 35.2496 16.6138 3.2103 8.12655 12.8847 -0.102011 0.607911 0.0537028 7.68474 -17.1103 -10.6134 -9.40547 -18.7636 4.32111 -0.146504 0.565517 0.079734 
26.982 1 258 19.0884 7.96676 5.56207 -0.369597 2.03896 -5.03711 0.503106 -0.102022 0.376924 0 0 0 0 0 0 0.0518088 -0.00856463 -0.0216246 17.1274 15.082 6.79045 2.03333 8.91023 -4.6731 0.554043 -0.110728 0.360805 21.6652 -0.841359 3.11449 -2.7687 -4.84838 -5.39853 0.451952 -0.0933878 0.393224 
26.982 1 64 21.1192 8.04366 3.41204 -5.42664 0.611245 0.0164978 -0.267979 -0.318681 0.0916503 0 0 0 0 0 0 0.0486289 -4.95702e-05 -0.101278 20.5333 8.9835 3.23505 -2.75393 8.79251 0.70682 -0.220984 -0.317446 0.0782277 21.6512 5.47216 2.3281 -8.08976 -7.60017 -0.634202 -0.315106 -0.319997 0.105178 
26.982 1 301 21.1805 10.0704 5.60462 -0.186212 -0.596603 -1.02722 -0.33478 -0.472171 -0.204537 0 0 0 0 0 0 0.0334729 -0.0211868 -0.0316702 11.6652 6.72178 6.28834 0.83716 9.98538 1.6479 -0.30305 -0.494495 -0.230994 30.6753 11.9535 3.81023 -1.16779 -11.1916 -3.64434 -0.366628 -0.44984 -0.177805 
26.982 1 103 23.6018 8.97849 1.23036 -2.09754 2.18022 5.85668 -0.174398 -0.150573 0.00614572 0 0 0 0 0 0 0.00808504 -0.0254472 -0.24822 9.59156 28.0578 -7.16585 -12.5047 8.24232 4.44432 -0.221245 -0.159424 0.00851228 36.9255 -11.4432 8.39939 8.38477 -3.91765 7.32812 -0.127495 -0.141837 0.00357999 
26.982 1 262 23.6576 7.22129 3.18491 -3.55671 -4.18481 -9.90954 0.179175 -0.760796 0.335015 0 0 0 0 0 0 -0.0300622 0.00845425 -0.142137 15.3874 5.56488 0.217618 -12.4159 1.12241 -11.0126 0.123927 -0.743929 0.320876 31.2588 7.20192 5.01785 5.36761 -9.50536 -8.77336 0.234385 -0.777791 0.349045 