ITEM: TIMESTEP
11725
ITEM: NUMBER OF ATOMS
4000
ITEM: BOX BOUNDS pp pp pp
-2.45721 42.9572
0.670442 39.8296
0.660272 39.8397
ITEM: ATOMS mass type id x y z vx vy vz fx fy fz xrad yrad zrad vxrad vyrad vzrad fxrad fyrad fzrad xub yub zub vxub vyub vzub fxub fyub fzub xlb ylb zlb vxlb vylb vzlb fxlb fylb fzlb 
26.982 1 43 -0.142621 4.48319 2.6469 3.51818 -3.19959 -0.197605 -0.0855658 0.499714 -0.0297959 0 0 0 0 0 0 -0.114782 0.0138471 -0.16709 -13.4242 0.124851 11.9679 2.19301 -2.7264 1.57155 -0.0873338 0.525668 -0.0267589 17.4963 7.77771 -7.87782 4.84927 -3.65235 -1.94206 -0.0837997 0.47375 -0.0327897 
26.982 1 202 -0.231523 2.59063 4.48814 1.57905 0.268203 0.200719 0.0263539 0.0063197 0.330957 0 0 0 0 0 0 -0.0775017 -0.0497255 -0.101162 1.15609 -9.16149 6.07348 1.55662 -1.69324 -0.00655449 0.0226167 0.00654437 0.330427 2.74152 13.1581 1.93432 1.60844 2.26454 0.444003 0.0300683 0.00608302 0.331516 
26.982 1 245 2.11867 4.70593 4.73447 -1.20158 2.68672 3.13109 -0.0142382 -0.459103 -0.528662 0 0 0 0 0 0 -0.0240966 -0.0384557 -0.0698459 0.612527 7.15768 4.43373 -2.19385 3.25897 3.32907 -0.0169378 -0.460938 -0.550498 7.51419 1.23021 4.01732 -0.198779 2.14312 2.96511 -0.011559 -0.457313 -0.506828 
26.982 1 2 -0.443604 2.79025 0.606362 -0.553288 2.95498 -0.996063 0.225922 -0.721305 -0.00613268 0 0 0 0 0 0 -0.0778858 0.0330131 -0.201321 1.575 15.1952 21.2465 -0.543025 4.54705 1.77283 0.223968 -0.739648 -0.00827616 1.85422 -10.7585 -21.4072 -0.559773 1.40381 -3.73722 0.227859 -0.703036 -0.00395687 
26.982 1 3 -0.135357 0.850954 2.46946 -0.11788 -2.23543 -1.51698 -0.291878 -0.578351 0.0734472 0 0 0 0 0 0 -0.0463856 -0.172806 -0.0777723 -2.91181 7.45596 13.7082 -0.736547 -1.56978 0.753698 -0.294221 -0.606513 0.0749423 6.97593 -7.18214 -9.94559 0.510205 -2.88512 -3.76641 -0.289557 -0.550241 0.0719818 
26.982 1 201 -2.51387 0.594201 4.52726 -2.19682 2.72243 5.26087 0.354632 0.333848 0.00709162 0 0 0 0 0 0 -0.106632 -0.0581152 -0.192539 43.1465 45.2241 16.1613 -2.43071 3.33994 7.41854 0.36071 0.344022 0.0137236 37.9284 35.8659 -8.1038 -1.96067 2.12886 3.1319 0.348541 0.323699 0.000470845 
26.982 1 1 -2.547 0.623062 0.459836 -0.685042 -0.0838033 -1.46816 0.239648 0.589904 0.617517 0 0 0 0 0 0 -0.100436 -0.0540395 -0.0695206 35.3336 52.8607 3.82618 -2.1634 1.62943 -2.77347 0.248165 0.608188 0.636832 45.6827 28.2782 -4.25854 0.797959 -1.77256 -0.141882 0.231125 0.571642 0.598292 
26.982 1 5 2.01264 0.753546 0.617305 0.796129 4.85268 -4.35713 0.101004 -0.296162 -0.345153 0 0 0 0 0 0 0.0396758 -0.127232 -0.172272 2.74845 39.7973 -11.3472 0.393804 6.17709 -6.01802 0.102911 -0.308232 -0.351559 5.08416 41.6997 11.3507 1.20056 3.56508 -2.65357 0.0990979 -0.284118 -0.338736 
26.982 1 8 1.97569 2.63758 2.47366 -0.387201 1.82725 6.31737 0.306882 0.346414 0.530767 0 0 0 0 0 0 0.021813 -0.069031 -0.125615 -2.99638 14.2167 1.88533 -0.975227 3.35694 6.96155 0.310194 0.345586 0.538507 10.8176 -10.1491 1.90202 0.211019 0.312315 5.70573 0.303565 0.347204 0.523067 
26.982 1 7 4.36947 0.777125 2.3447 2.3728 -0.235785 -3.42301 -0.125923 -0.232075 0.64782 0 0 0 0 0 0 0.0513676 -0.197529 -0.0972637 3.64754 38.6262 -4.8906 1.72153 -0.554206 -3.68452 -0.132418 -0.243105 0.666515 8.39768 42.9137 8.45786 3.02512 0.112609 -3.12328 -0.11942 -0.221097 0.629152 
26.982 1 47 4.26222 4.55452 2.58522 -0.93621 3.64212 -1.5547 0.0164814 0.405871 -0.341759 0 0 0 0 0 0 -0.0276599 -0.0590123 -0.168059 -0.995588 14.0682 -1.36307 -2.33709 5.23485 -2.70417 0.0193984 0.415662 -0.347765 12.866 -5.89738 5.38104 0.473579 2.09333 -0.374524 0.0135271 0.396056 -0.33574 
26.982 1 206 4.30715 2.7903 4.44439 0.374917 -0.594185 1.21449 0.0119268 -0.799405 0.193555 0 0 0 0 0 0 0.00995533 -0.147612 -0.0702437 9.06627 -7.23407 16.02 0.458605 -2.68424 4.17236 0.0163245 -0.814121 0.192004 2.89253 11.6408 -8.06969 0.297493 1.52397 -1.71008 0.00748098 -0.784736 0.195118 
26.982 1 249 6.61411 4.8295 4.55758 3.22253 -2.33111 -7.36631 0.201396 -0.756857 -0.309497 0 0 0 0 0 0 0.0153309 -0.0564721 -0.0554533 8.19643 -5.38343 10.2553 3.06288 -3.62183 -6.61993 0.214291 -0.775344 -0.322932 7.82842 14.072 -2.14582 3.3779 -1.00003 -8.07979 0.188431 -0.738445 -0.296055 
26.982 1 49 6.67572 4.4802 0.520119 1.67755 -3.7404 -0.0917387 -0.299649 0.321748 0.0107199 0 0 0 0 0 0 -0.00445836 -0.0410237 -0.253316 14.4924 -5.54785 -12.689 2.84954 -5.47882 -1.82501 -0.300621 0.341717 0.0239799 1.65306 13.4899 12.5026 0.496196 -1.97199 1.69421 -0.298677 0.301768 -0.00257936 
26.982 1 12 6.43293 2.72106 2.52016 1.46511 0.745472 3.45387 0.396718 0.249793 0.252936 0 0 0 0 0 0 0.0220306 -0.187413 -0.120399 7.95439 4.96876 -3.87192 1.65962 1.48892 2.68314 0.40885 0.25447 0.263076 7.71663 -0.668029 7.79727 1.26482 0.0408952 4.26358 0.384563 0.24503 0.242774 
26.982 1 51 9.06224 4.62874 2.55849 -5.6391 3.50286 5.66074 -0.352523 0.356185 0.129374 0 0 0 0 0 0 -0.00858227 -0.0318834 -0.125873 -2.99444 11.1959 -13.004 -6.79245 4.43244 3.47288 -0.349631 0.355218 0.142461 23.4298 -2.89221 16.9883 -4.50031 2.6153 7.88832 -0.355409 0.357069 0.116232 
26.982 1 210 8.76939 2.70408 4.54809 -3.53444 1.96458 4.25135 -0.0131397 -0.187351 -0.343804 0 0 0 0 0 0 -0.00419609 -0.172919 -0.121226 4.3146 2.76784 6.84697 -4.00599 1.91303 5.5755 -0.0146101 -0.189374 -0.35574 15.5372 1.44888 1.16712 -3.07523 2.04509 2.95179 -0.0116922 -0.185429 -0.331845 
26.982 1 253 11.3823 4.74715 4.62811 -0.194067 -3.14624 -1.93379 -0.468668 -0.0205087 -0.358891 0 0 0 0 0 0 -0.0136815 -0.0544323 -0.044131 10.7365 0.275519 26.6195 -0.526721 -3.68012 1.55461 -0.479931 -0.0363805 -0.374952 13.9537 8.30727 -18.3909 0.135197 -2.56539 -5.39608 -0.457377 -0.00474498 -0.34282 
26.982 1 10 8.88009 2.72349 0.570758 0.320827 0.18249 -6.94124 -0.00806766 -0.0482206 -0.0377034 0 0 0 0 0 0 -0.00961452 -0.167335 -0.193465 15.0426 3.73916 -7.54804 1.33752 0.978998 -8.00081 -0.00178038 -0.0440164 -0.0361993 5.07795 0.521501 7.46738 -0.702424 -0.594189 -5.83066 -0.0144136 -0.0524799 -0.0392681 
26.982 1 16 11.0483 2.71715 2.48336 -0.312138 -0.699449 -4.97727 0.236003 -0.155726 0.312525 0 0 0 0 0 0 -0.00811503 -0.228998 -0.0972746 12.8142 13.1606 -6.39231 -0.502989 2.07627 -4.86459 0.243439 -0.16718 0.327051 11.2277 -8.87851 10.151 -0.11912 -3.44762 -5.06258 0.228519 -0.144338 0.29802 
26.982 1 53 11.0626 4.76959 0.504755 3.21289 -1.32749 3.25942 0.0521722 -0.25962 0.118169 0 0 0 0 0 0 -0.0409158 -0.0219266 -0.257388 7.84545 16.3508 -16.7963 2.27765 1.51326 0.519637 0.0507147 -0.277113 0.124437 16.2181 -7.84849 16.5302 4.15032 -4.13436 6.03898 0.0535598 -0.242136 0.111857 
26.982 1 55 13.3257 4.86637 2.5271 2.18399 -1.2045 -3.9025 0.367571 -0.793763 0.35509 0 0 0 0 0 0 0.00631686 -0.0769439 -0.10378 14.3602 3.50482 7.9795 2.0384 -1.02757 -2.54449 0.372058 -0.823548 0.356675 13.7619 5.27071 -4.02917 2.33558 -1.34553 -5.2203 0.363073 -0.764004 0.353535 
26.982 1 214 13.2924 2.66802 4.39618 2.06837 0.320859 2.50782 0.137012 -0.303017 -0.333608 0 0 0 0 0 0 0.00120365 -0.184068 -0.108083 23.1622 3.14186 9.17203 3.38461 0.811701 2.64605 0.135018 -0.308497 -0.343219 4.88928 1.05601 -1.45916 0.757823 -0.138277 2.39327 0.138972 -0.297565 -0.323926 
26.982 1 14 13.2443 2.78421 0.708323 -0.594261 -2.6116 1.09857 0.124547 -0.305617 -0.392322 0 0 0 0 0 0 0.0132088 -0.187876 -0.199114 10.6573 16.7132 32.92 -1.01085 1.39725 1.47218 0.129575 -0.329576 -0.418331 17.3071 -12.3439 48.5151 -0.170705 -6.59057 0.767544 0.11944 -0.281712 -0.366337 
26.982 1 57 15.5245 4.49232 0.719608 -0.575596 -0.425054 -0.110925 0.27355 0.268375 -0.461506 0 0 0 0 0 0 0.0675803 -0.0723717 -0.262763 21.5248 14.2492 -7.28195 0.170216 1.88028 -1.60084 0.287262 0.276097 -0.486488 10.469 -6.27534 7.52988 -1.3252 -2.6968 1.42443 0.259823 0.260734 -0.436501 
26.982 1 20 15.7588 2.57221 2.59723 1.96268 0.276759 -0.555239 -0.2586 0.0756821 0.398127 0 0 0 0 0 0 0.0455619 -0.230139 -0.137233 24.3158 -11.879 7.48536 3.6377 -1.20343 -0.560252 -0.268139 0.0862913 0.389071 8.13296 15.9162 -3.43613 0.28483 1.78491 -0.513124 -0.249059 0.0650717 0.407216 
26.982 1 257 15.6054 4.65597 4.49492 0.100577 -1.50507 -0.533977 0.292945 -0.202288 -0.0348457 0 0 0 0 0 0 0.0183339 -0.0704262 -0.034905 21.8297 -11.2734 7.47178 0.719914 -3.7741 0.0480215 0.298187 -0.215798 -0.0246013 10.3407 19.5849 0.467485 -0.51991 0.798677 -1.08823 0.287675 -0.188784 -0.0450388 
26.982 1 218 18.01 2.66178 4.52707 -2.00107 -0.634357 1.59142 -0.149728 -0.0418857 0.0759872 0 0 0 0 0 0 0.0123655 -0.174591 -0.130531 11.8192 -2.98838 3.39731 -3.00577 -1.4265 1.93954 -0.150713 -0.0317629 0.0702667 24.6328 7.22735 4.62813 -1.00344 0.186762 1.27961 -0.148739 -0.052044 0.0816939 
26.982 1 59 17.9213 4.73458 2.62862 5.47734 -3.9301 1.05285 -0.205787 -0.516198 -0.321724 0 0 0 0 0 0 0.0428142 -0.111309 -0.18427 26.7796 -5.14034 8.42788 6.61699 -6.05792 2.59523 -0.216329 -0.52509 -0.338804 9.48507 13.6266 -4.28232 4.32375 -1.77598 -0.448295 -0.195286 -0.507338 -0.30463 
26.982 1 24 20.2173 2.64773 2.68753 -1.36229 3.8411 -2.9959 0.0746163 -0.595654 -0.138403 0 0 0 0 0 0 0.0103596 -0.193799 -0.214757 14.8702 5.67465 9.76473 -2.34365 6.50955 -2.32698 0.0761152 -0.605338 -0.149877 25.5208 -1.46436 -5.55201 -0.385788 1.21595 -3.63289 0.0731444 -0.586063 -0.126936 
26.982 1 261 20.3977 4.53442 4.50074 -0.998811 -0.893216 2.82559 -0.134891 0.243573 0.784356 0 0 0 0 0 0 0.0138602 -0.0505113 -0.0721682 18.9514 3.63712 4.85578 -0.612309 -0.339658 1.7809 -0.129113 0.270573 0.799277 21.7986 4.43997 3.12363 -1.38983 -1.41552 3.90345 -0.140647 0.216557 0.769443 
26.982 1 63 22.492 4.5328 2.519 -0.466394 -4.16504 -4.46327 0.234262 -0.100532 0.303394 0 0 0 0 0 0 0.00190886 -0.0733269 -0.241013 28.2639 13.9292 4.81001 -0.396771 -2.25935 -4.01999 0.237409 -0.0827218 0.306626 16.2528 -5.86541 -0.881823 -0.528172 -6.04961 -4.8698 0.231165 -0.118385 0.3002 
26.982 1 222 22.58 2.58917 4.59241 2.18201 3.2859 -0.509753 -0.118006 0.0277847 0.0589328 0 0 0 0 0 0 0.000494886 -0.170254 -0.145214 19.8393 8.54892 7.03218 1.94383 6.17558 -0.586869 -0.117939 0.0355995 0.0600147 24.8366 -4.49928 1.14052 2.42283 0.427552 -0.401932 -0.118021 0.0199055 0.0578539 
26.982 1 28 24.7708 2.53289 2.48145 -4.76694 -1.15617 0.0191195 0.0637532 0.0825888 0.401944 0 0 0 0 0 0 -0.0288893 -0.172322 -0.170391 26.4342 8.63613 10.9695 -4.8918 -0.491811 1.6344 0.0667365 0.0941981 0.418408 22.229 -4.6784 -7.22462 -4.63244 -1.78092 -1.581 0.0607787 0.0710068 0.385575 
26.982 1 265 24.7875 4.46108 4.47202 3.61514 0.5813 -1.24386 -0.298048 0.263943 0.138722 0 0 0 0 0 0 -0.0252842 -0.0542258 -0.0859359 27.2265 -13.7074 3.97902 3.54191 -0.966671 -1.75016 -0.319221 0.283963 0.149991 21.441 21.6038 3.90788 3.69712 2.16076 -0.710727 -0.276857 0.243906 0.127488 
26.982 1 67 26.9986 4.54261 2.56649 -2.53774 0.486454 1.22492 0.03032 0.0428736 -0.360668 0 0 0 0 0 0 -0.0110016 -0.0296661 -0.224568 27.3966 -2.78515 7.31605 -2.86868 -0.228796 2.36637 0.0257275 0.0589008 -0.372396 25.2465 10.8142 -3.34639 -2.20074 1.22801 0.11061 0.0349308 0.0268654 -0.34894 
26.982 1 226 27.0047 2.80257 4.6424 -5.54193 -2.01542 0.223084 0.252431 -0.542566 -0.0187533 0 0 0 0 0 0 0.010707 -0.177318 -0.12161 26.3053 -3.50894 11.3094 -5.11175 -3.39063 1.87345 0.260337 -0.553503 -0.0210006 26.3669 8.0785 -3.12619 -5.96432 -0.591917 -1.40458 0.244488 -0.531646 -0.016512 
26.982 1 32 29.2871 2.82801 2.66201 -0.403405 0.251712 -1.16961 0.110174 -0.508992 -0.111204 0 0 0 0 0 0 0.00502695 -0.17962 -0.149544 17.3475 6.58499 13.917 -1.69707 0.215127 1.47471 0.108225 -0.537447 -0.108034 39.3654 -2.01758 -9.7719 0.896336 0.32617 -3.7891 0.112107 -0.480507 -0.114387 
26.982 1 26 27.2764 2.60408 0.505538 -0.483324 2.40984 -0.00647369 -0.196909 -0.278623 1.24937 0 0 0 0 0 0 -0.0113884 -0.0806636 -0.171158 18.9889 10.1988 15.1237 -1.1555 4.54707 2.28899 -0.194265 -0.28617 1.27968 34.219 -6.12783 -15.3907 0.198088 0.3067 -2.26566 -0.199524 -0.270958 1.21912 
26.982 1 269 29.3936 4.50448 4.68501 -1.53472 2.96175 5.35541 -0.0779312 0.167155 0.409252 0 0 0 0 0 0 0.00409193 -0.0606029 -0.0740561 26.728 12.4736 19.0294 -1.50723 3.27186 6.56328 -0.0749819 0.173478 0.410018 30.2428 -4.49721 -10.6399 -1.55293 2.67564 4.18048 -0.08092 0.160864 0.408384 
26.982 1 71 31.612 4.52306 2.6143 -4.06948 -1.40909 -5.90159 -0.0242515 -0.128051 0.404179 0 0 0 0 0 0 -0.0014986 -0.0246032 -0.197664 30.4043 11.3579 0.430263 -4.30623 -0.217857 -5.88153 -0.0220233 -0.132631 0.421116 30.4175 -3.36223 3.71869 -3.83278 -2.56874 -5.88646 -0.0264715 -0.123428 0.387165 
26.982 1 230 31.6747 2.57382 4.65884 1.54925 -0.391722 2.27134 -0.0318094 0.616147 0.294627 0 0 0 0 0 0 -0.0053755 -0.162058 -0.120465 20.413 -4.27243 3.02521 0.450238 -0.0512073 1.19422 -0.0307071 0.629775 0.285615 40.5727 8.36466 5.33793 2.65305 -0.683734 3.38514 -0.0329433 0.602602 0.30352 
26.982 1 30 31.7815 2.81238 0.507077 -4.30597 -0.567741 0.580623 -0.0476013 -0.737951 0.173715 0 0 0 0 0 0 -0.00769907 -0.0793105 -0.179209 37.8235 -11.3712 3.40166 -3.18385 -2.17809 2.37257 -0.0466774 -0.767491 0.201375 23.2943 15.797 -3.66889 -5.43493 1.06505 -1.18163 -0.0484854 -0.708355 0.146039 
26.982 1 273 33.8804 4.48476 4.55538 -2.64702 0.817018 -0.261952 -0.181053 0.222857 0.153664 0 0 0 0 0 0 -0.023327 -0.0510333 -0.074983 41.1885 17.2432 -0.0410952 -2.52356 2.91601 -2.21674 -0.193737 0.226587 0.164085 23.6478 -9.3312 8.14649 -2.7728 -1.25629 1.71757 -0.168321 0.219195 0.14321 
26.982 1 36 33.8937 2.50205 2.59253 0.320882 0.933684 1.9084 0.046239 -0.0955535 0.182212 0 0 0 0 0 0 -0.0264524 -0.174872 -0.149799 34.8754 -0.565073 -4.58158 0.661229 1.31674 0.527462 0.0504988 -0.10079 0.183111 30.0092 4.45952 8.70558 -0.0240903 0.58964 3.32813 0.0419905 -0.0902264 0.181226 
26.982 1 75 36.1552 4.33558 2.90389 3.5856 -4.95862 -1.22775 -0.122478 0.587437 -0.787827 0 0 0 0 0 0 -0.0425227 -0.00648237 -0.18519 39.4708 12.2565 5.42094 3.46179 -2.68678 -1.07253 -0.131583 0.604312 -0.814342 29.4236 -4.69611 -0.694968 3.69903 -7.21621 -1.3365 -0.113377 0.570606 -0.761299 
26.982 1 234 36.0886 2.32699 4.50381 1.52941 -3.24329 3.1887 0.307528 -0.432702 0.258992 0 0 0 0 0 0 -0.0492457 -0.167647 -0.112846 45.5385 0.245876 2.53303 2.75326 -3.3935 2.12993 0.302378 -0.44142 0.253004 23.2359 3.25166 5.54197 0.299835 -3.05633 4.29021 0.312759 -0.423873 0.264982 
26.982 1 34 36.3013 2.33542 0.723137 -5.71358 6.03518 0.826311 -0.443003 0.490456 0.176156 0 0 0 0 0 0 -0.0340862 -0.118746 -0.199479 39.5219 18.1259 51.6172 -5.48528 7.78521 1.62834 -0.451867 0.510884 0.175821 29.7195 -14.7348 29.8533 -5.95088 4.29355 0.0591018 -0.434137 0.470031 0.176432 
26.982 1 40 38.6146 2.50986 2.5266 -3.18581 -3.15895 -5.15938 -0.628307 -0.345643 0.467381 0 0 0 0 0 0 -0.0171761 -0.135408 -0.178706 44.7204 15.8991 -4.13118 -2.05165 -1.1592 -6.04628 -0.641461 -0.341229 0.483494 28.6317 -12.0712 8.09372 -4.32959 -5.12516 -4.22559 -0.615081 -0.35007 0.451317 
26.982 1 237 38.6926 0.666185 4.83101 -4.65167 -8.21191 -1.14212 -0.353115 -0.0486799 -0.542148 0 0 0 0 0 0 -0.0459773 -0.18754 -0.160771 39.8182 7.44419 14.2894 -4.07914 -7.49412 0.146364 -0.363534 -0.0652005 -0.564516 33.6926 -7.4339 -5.57679 -5.23422 -8.89507 -2.38895 -0.342577 -0.0321145 -0.519844 
26.982 1 4 42.8998 2.4994 2.58605 -1.19863 -0.970834 1.50521 -0.0502255 0.259017 -0.227803 0 0 0 0 0 0 -0.0286464 -0.0236529 -0.171306 28.3191 0.593145 5.26157 -2.50878 -0.880091 1.37461 -0.0513144 0.265297 -0.222699 52.7454 3.21118 -1.1935 0.112378 -1.02765 1.67465 -0.0491586 0.252689 -0.232836 
26.982 1 241 42.8357 4.55061 4.48375 -2.77701 0.398191 5.5139 0.46921 0.19203 -0.322698 0 0 0 0 0 0 0.0130401 0.0143513 -0.0951375 -6.35231 9.12495 -4.79497 -3.21699 1.41473 3.94743 0.476923 0.211773 -0.330288 5.95901 -1.04213 12.7913 -2.34219 -0.583109 7.1139 0.461479 0.17226 -0.315021 
26.982 1 77 38.0692 4.52441 0.786386 6.02491 -3.30041 1.83855 0.314597 0.459662 -0.171469 0 0 0 0 0 0 0.0141198 0.0429593 -0.27163 38.0682 12.5348 26.1678 6.17465 -3.40445 -1.98002 0.307444 0.490308 -0.193745 34.231 -4.54776 55.3561 5.87079 -3.17665 5.67804 0.321732 0.428976 -0.149192 
26.982 1 277 38.3803 4.20862 4.63544 -3.39301 3.4739 -1.02112 0.326933 0.523055 -0.135904 0 0 0 0 0 0 -0.000976796 -0.0136064 -0.0701912 37.6803 20.9621 -4.79403 -3.39057 6.47344 -1.42399 0.329211 0.536348 -0.14404 35.1968 -13.6077 13.1221 -3.40466 0.503349 -0.569615 0.324697 0.509788 -0.127686 
26.982 1 79 40.5784 4.41383 2.40464 6.60926 -3.26861 -2.41422 0.290352 0.809036 0.656853 0 0 0 0 0 0 0.029653 0.0304625 -0.236142 34.7888 22.3433 -10.3479 5.83871 -1.73828 -4.70643 0.288203 0.839304 0.666903 42.0547 -14.5754 14.0941 7.37321 -4.77571 -0.0653748 0.29252 0.778714 0.646913 
26.982 1 238 40.8445 2.6808 4.64887 -0.243584 1.25407 2.23316 -0.431577 -0.396522 -0.40876 0 0 0 0 0 0 -0.00981125 -0.0660016 -0.0806752 47.0093 -0.45694 -1.46002 0.58473 0.34099 1.06578 -0.435295 -0.402848 -0.415951 30.3488 4.65668 9.8066 -1.08115 2.20527 3.43831 -0.427832 -0.390204 -0.401541 
26.982 1 39 40.6476 0.638611 2.62357 -0.000313566 2.58652 5.00823 0.369638 0.10425 0.152047 0 0 0 0 0 0 -0.04588 -0.198694 -0.166513 38.3626 37.1636 11.3353 0.261831 1.83819 6.98509 0.370573 0.102046 0.154693 38.6358 44.0782 -7.12562 -0.262576 3.37 3.08745 0.368742 0.106463 0.149404 
26.982 1 83 -0.275013 8.45987 2.82617 0.824448 2.64475 2.05163 0.289484 -0.0608918 -0.0662807 0 0 0 0 0 0 -0.114135 -0.0880247 -0.18767 -3.53711 22.4113 8.80397 0.289277 4.50394 3.4303 0.298619 -0.0645994 -0.0736359 7.31506 -6.30251 -4.3298 1.36153 0.817483 0.715177 0.280337 -0.0571989 -0.0589544 
26.982 1 242 -0.0629295 6.40594 4.63303 3.04456 0.178336 4.41839 -0.407886 0.144135 -0.221226 0 0 0 0 0 0 -0.121466 -0.0291087 -0.124185 -7.00881 14.9608 12.6024 1.99521 2.44492 4.66984 -0.413663 0.158398 -0.240025 11.2149 -3.06615 -4.2817 4.09323 -2.06714 4.21015 -0.402122 0.129859 -0.202394 
26.982 1 84 -2.44456 10.4399 2.56688 -0.413154 -3.23599 -2.57261 -0.267504 0.0700967 0.422308 0 0 0 0 0 0 -0.195165 -0.0477793 -0.191293 41.5171 16.6834 -12.7656 0.191907 -2.47141 -4.21999 -0.27406 0.0778974 0.436517 39.617 3.63205 16.6566 -1.02992 -3.95965 -0.904483 -0.260915 0.0623074 0.408082 
26.982 1 281 -2.62055 8.51541 4.6376 1.00118 0.336112 4.6054 0.365971 -0.0077528 0.0658375 0 0 0 0 0 0 -0.113889 -0.119816 -0.180999 43.5538 29.3021 4.30008 1.25629 3.45827 4.31637 0.368613 -0.00614166 0.0581212 37.259 -13.0406 3.96909 0.734575 -2.76609 4.93051 0.363352 -0.00942592 0.0736001 
26.982 1 88 1.93992 10.4852 2.83585 4.40961 -0.527387 -3.80411 0.0241848 -0.625546 -0.810158 0 0 0 0 0 0 0.00510543 -0.0126706 -0.157003 -10.6827 16.9445 9.03334 2.02462 0.195444 -3.76913 0.0228404 -0.638205 -0.825439 18.4924 3.35276 -4.57423 6.813 -1.22696 -3.81374 0.0254748 -0.612947 -0.794925 
26.982 1 48 2.05565 6.46981 2.57191 -2.00451 0.695515 -5.55946 -0.0547472 0.180514 0.335265 0 0 0 0 0 0 -0.0748311 -0.0216598 -0.177272 -13.1915 20.0971 -8.70083 -4.92767 4.39398 -8.24656 -0.0572164 0.203434 0.345842 21.2029 -8.10058 12.6672 0.936465 -2.98755 -2.84847 -0.0522872 0.157596 0.324736 
26.982 1 282 -0.439215 10.4717 4.64965 -4.21888 1.66094 -3.29061 0.253791 -0.0558558 0.242681 0 0 0 0 0 0 -0.0537408 -0.0173814 -0.0648804 -2.29999 31.2638 -0.436856 -4.39998 4.2089 -4.55291 0.25555 -0.0597939 0.252127 5.69151 -11.0064 8.64022 -4.04597 -0.863269 -2.00374 0.252007 -0.0519864 0.233263 
26.982 1 85 2.22281 8.47751 0.777251 -7.24415 1.60419 1.42903 -0.351008 0.14559 0.104613 0 0 0 0 0 0 -0.0252942 0.000529132 -0.26593 -10.2568 18.0691 17.4938 -9.81894 3.2939 3.14524 -0.353526 0.154631 0.110856 18.5654 -1.85193 -17.2994 -4.65663 -0.0535148 -0.267817 -0.348519 0.136555 0.0983187 
26.982 1 285 2.15058 8.48432 4.72018 5.88401 0.243482 -4.27632 -0.258417 -0.115957 -0.529934 0 0 0 0 0 0 -0.0212111 0.00521368 -0.0607671 -13.1403 18.2797 3.52042 3.64997 2.77139 -4.71094 -0.265628 -0.101853 -0.550152 21.3606 -2.14478 4.864 8.13483 -2.27587 -3.81816 -0.251245 -0.13009 -0.509709 
26.982 1 87 4.47627 8.36941 2.59902 -4.01868 4.06242 2.95844 -0.229165 0.0460927 0.131753 0 0 0 0 0 0 -0.00211611 0.0522991 -0.153959 -2.14745 14.0486 9.78145 -5.49423 4.62166 3.14002 -0.235863 0.0567309 0.14612 14.5109 1.9253 -5.75055 -2.52414 3.53181 2.8075 -0.222501 0.0354334 0.117426 
26.982 1 246 4.2806 6.51928 4.67315 2.3912 -1.44027 -2.51473 0.0176347 0.16462 -0.288493 0 0 0 0 0 0 -0.00485945 0.000364622 -0.0478552 10.1512 10.516 12.7387 2.16394 -0.851634 -1.04703 0.0195897 0.171255 -0.303648 1.8082 1.62058 -4.47119 2.63626 -2.00345 -3.96297 0.0156383 0.157932 -0.273345 
26.982 1 289 6.56382 8.38026 4.63312 -4.81872 -2.3762 -2.34145 -0.107129 0.105342 -0.505596 0 0 0 0 0 0 0.00187157 0.0272798 -0.062484 14.8695 9.41476 21.452 -3.81275 -1.22452 0.660365 -0.109212 0.121657 -0.519715 1.09958 6.55515 -13.2618 -5.82223 -3.5058 -5.31955 -0.105126 0.0890476 -0.49148 
26.982 1 52 6.56369 6.39559 2.37052 3.48145 -4.55255 0.0312161 0.119031 0.281242 0.33999 0 0 0 0 0 0 0.0374916 0.00803545 -0.139604 9.88059 5.26798 11.0547 4.21116 -4.58394 0.579244 0.127078 0.28649 0.357081 6.05126 6.64871 -7.39815 2.7473 -4.49121 -0.472523 0.11094 0.275978 0.322901 
26.982 1 92 6.68131 10.427 2.66972 -0.48858 4.36371 7.84198 -0.127962 -0.181733 -0.219799 0 0 0 0 0 0 -0.0043034 0.0383508 -0.212164 6.06575 11.2922 13.908 -0.804413 4.53216 8.74601 -0.129151 -0.180488 -0.232758 10.1326 8.95367 -9.66682 -0.172245 4.22178 6.9855 -0.126793 -0.182986 -0.206863 
26.982 1 46 4.33773 6.39759 0.570188 3.37997 4.50157 0.714215 0.0175571 0.051791 -0.107447 0 0 0 0 0 0 -0.0335548 -0.00852326 -0.271027 -3.18461 -1.73709 10.0016 1.42663 4.07939 2.19289 0.0153827 0.0558999 -0.0960332 15.1932 13.6603 -10.0562 5.34154 4.95349 -0.715555 0.0197086 0.0476623 -0.118855 
26.982 1 91 8.73193 8.45137 2.80498 -1.62127 5.07933 -0.682858 0.458241 0.233618 0.201787 0 0 0 0 0 0 0.000827945 0.0111424 -0.162785 12.8565 6.62597 7.20215 -1.02553 5.38326 -0.285491 0.465042 0.240722 0.206737 6.91919 9.49583 -2.6831 -2.23101 4.80102 -1.03796 0.451372 0.226527 0.196771 
26.982 1 250 8.98828 6.41132 4.76191 -2.57875 -4.48714 -0.682123 -0.0134451 0.550532 -0.727503 0 0 0 0 0 0 0.00885594 0.0110036 -0.0544925 9.19808 13.8177 28.0198 -2.1288 -3.94914 2.13969 -0.0039623 0.561194 -0.747863 11.0939 -1.77304 -19.6773 -3.04283 -4.9802 -3.49695 -0.0229546 0.539825 -0.707157 
26.982 1 290 9.00929 10.4598 4.68745 3.55969 -0.442714 3.66061 0.148937 -0.545565 -0.264447 0 0 0 0 0 0 0.00531422 -0.0119742 -0.057612 12.0044 24.9517 35.3129 4.72267 1.4497 8.52906 0.164829 -0.556209 -0.282313 8.33209 -4.72191 -26.964 2.38472 -2.32049 -1.1822 0.133013 -0.534865 -0.246614 
26.982 1 293 11.2627 8.35237 4.56375 -2.30325 2.08191 -0.507812 -0.0523678 0.247906 0.322122 0 0 0 0 0 0 -0.0108645 0.0194737 -0.0267746 10.2963 23.2093 29.8112 -1.8759 5.16544 3.12201 -0.0570689 0.268488 0.327725 14.1244 -7.36598 -21.73 -2.73889 -0.994006 -4.12227 -0.0476387 0.227365 0.316529 
26.982 1 89 6.80905 8.57961 0.680135 -1.9785 1.92016 2.04638 -0.532311 0.185875 0.0290577 0 0 0 0 0 0 0.0245785 0.055532 -0.274439 12.9261 14.468 -7.42409 -0.972485 3.61226 -0.41969 -0.541121 0.193888 0.0295126 3.48302 1.9268 7.59184 -2.99251 0.258584 4.56019 -0.52353 0.177815 0.0285724 
26.982 1 93 11.0653 8.58805 0.591737 2.60341 -1.45087 -3.06527 0.217297 0.535832 -0.102794 0 0 0 0 0 0 -0.0727261 0.0233321 -0.254821 10.795 5.90248 40.8112 2.74035 -1.90306 -3.10213 0.2129 0.558819 -0.0818418 13.2507 10.5438 40.4829 2.46647 -0.965621 -2.9819 0.221672 0.512826 -0.123768 
26.982 1 56 11.432 6.67628 2.40389 1.5691 1.14784 0.3808 -0.815281 0.183627 0.792554 0 0 0 0 0 0 -0.0584706 0.00626665 -0.107205 17.2763 12.5478 11.0467 2.23513 2.86909 2.00197 -0.832635 0.174412 0.824725 7.52226 -0.0696849 -7.33866 0.901901 -0.536834 -1.19653 -0.79792 0.192731 0.760378 
26.982 1 95 13.6411 8.68648 2.50909 -1.5584 2.99359 -2.60088 -0.122181 -0.28519 0.191966 0 0 0 0 0 0 0.0333286 0.00841062 -0.131075 12.2619 17.8553 -6.35681 -2.65944 4.22029 -4.10169 -0.125762 -0.289623 0.200188 16.4513 -1.31085 10.2962 -0.457118 1.77852 -1.05715 -0.11857 -0.280824 0.183756 
26.982 1 254 13.6236 6.67573 4.68659 1.07307 -1.77104 6.61835 -0.387861 -0.0159634 -0.332222 0 0 0 0 0 0 -0.00362493 0.000386714 -0.0214253 10.1014 3.41585 25.623 0.209375 -2.53584 10.6254 -0.393539 -0.0185324 -0.3325 18.6167 9.08652 -17.3598 1.9433 -0.972201 2.62725 -0.382114 -0.0134669 -0.331931 
26.982 1 54 13.4153 6.67416 0.58598 0.148107 4.97535 -0.0959401 0.255676 0.483469 -0.0578414 0 0 0 0 0 0 0.0354723 0.0346161 -0.279993 8.64349 18.0774 -16.6325 -0.479582 6.39169 -2.08299 0.270791 0.485429 -0.0547482 19.6438 -5.67525 16.5234 0.783462 3.57725 1.92526 0.240524 0.481491 -0.0609322 
26.982 1 100 15.8609 10.5982 2.68302 2.59272 0.425609 -4.0085 0.2447 -0.0179599 0.323453 0 0 0 0 0 0 0.0487702 -0.000300672 -0.192909 18.361 37.3973 -10.0993 2.70503 3.68753 -5.92224 0.254375 -0.0181384 0.330003 14.334 -16.8635 14.3391 2.48369 -2.82142 -2.06183 0.235045 -0.0177747 0.316895 
26.982 1 60 15.6618 6.55204 2.49248 0.948152 -5.75806 0.524785 0.154438 0.316905 -0.13528 0 0 0 0 0 0 0.0309525 0.0356728 -0.14776 25.5499 9.3381 -5.16815 2.06332 -6.74441 0.464556 0.156354 0.319642 -0.137025 6.70362 2.82508 9.02772 -0.169593 -4.74862 0.623519 0.152487 0.314172 -0.133464 
26.982 1 297 15.8098 8.39712 4.53171 -2.18994 -1.85913 -1.96629 0.11691 0.427576 -0.0656295 0 0 0 0 0 0 0.0150948 0.0317373 -0.0488098 22.9941 24.9943 0.368581 -1.3385 1.86043 -2.1634 0.124544 0.448359 -0.0695241 9.59403 -9.00094 7.67111 -3.03768 -5.55674 -1.74145 0.109272 0.406783 -0.0617297 
26.982 1 99 18.1774 8.45852 2.6873 1.04862 -3.89653 1.52463 -0.0509294 0.437358 -0.0418968 0 0 0 0 0 0 -0.0260712 0.0535608 -0.178518 21.4252 13.981 0.55891 2.48277 -2.85719 3.08399 -0.0534039 0.454185 -0.0550876 15.4054 2.08601 3.69773 -0.390692 -4.9106 0.00922168 -0.048495 0.420567 -0.0287469 
26.982 1 258 17.9489 6.59506 4.49889 0.47002 -0.840789 -2.78593 0.194377 -0.200095 0.652203 0 0 0 0 0 0 0.0124178 -0.00732998 -0.0327571 16.8114 9.55407 4.44176 0.487087 -1.18038 -2.83619 0.20118 -0.204866 0.671866 19.5152 2.74131 3.52524 0.440319 -0.473129 -2.70714 0.187506 -0.195343 0.632576 
26.982 1 64 20.2643 6.40453 2.70487 1.19899 0.664893 2.53364 0.19737 0.776351 -0.206215 0 0 0 0 0 0 0.0387234 -0.0463642 -0.179027 21.2166 3.65857 -1.37687 1.89603 -0.158087 2.91647 0.21224 0.798435 -0.212968 19.2789 8.27924 5.64168 0.493568 1.52278 2.18966 0.182515 0.754303 -0.19948 
26.982 1 301 20.4185 8.48562 4.78912 -0.611969 1.48108 -2.45849 0.0536095 -0.356001 -0.483034 0 0 0 0 0 0 0.000829541 -0.00955887 -0.042466 15.4971 -0.710928 1.5154 -0.887253 -0.555564 -3.30021 0.0599282 -0.360932 -0.498153 25.2958 16.8941 7.06006 -0.342282 3.54032 -1.58168 0.0473103 -0.351038 -0.467976 
26.982 1 298 18.2436 10.5065 4.64576 -0.0615768 2.84106 2.75355 -0.184661 0.285423 -0.528932 0 0 0 0 0 0 -0.0106682 0.00558281 -0.0689514 16.4376 11.906 -13.5218 -0.339684 3.17043 1.59843 -0.184963 0.290183 -0.548962 20.5489 8.42373 21.8059 0.218627 2.52371 3.93516 -0.18437 0.280664 -0.508957 
26.982 1 58 17.9583 6.71312 0.581089 -2.17873 -2.55231 1.21674 0.215271 -0.674896 0.143945 0 0 0 0 0 0 0.0160805 -0.00673823 -0.269622 4.62174 35.6553 13.303 -2.98647 1.03056 2.8371 0.216713 -0.697282 0.144512 31.731 -23.1546 -13.3441 -1.38244 -6.10563 -0.346109 0.213817 -0.652498 0.143423 
26.982 1 104 20.5192 10.2809 2.71824 -1.4307 0.25813 1.7265 -0.268237 0.551739 0.0261596 0 0 0 0 0 0 -0.0454003 0.0126268 -0.130059 21.2555 26.9233 8.43866 -0.836144 2.83682 3.98902 -0.26949 0.570341 0.029667 19.7785 -7.07217 -4.11402 -2.02945 -2.31381 -0.488801 -0.266949 0.53322 0.0226325 
26.982 1 103 22.7257 8.56627 2.67763 0.924453 -5.92432 3.46521 -0.163239 -0.434061 -0.467584 0 0 0 0 0 0 0.000329161 -0.0600937 -0.155961 17.9531 18.5997 1.04516 0.298995 -5.7368 3.06401 -0.167334 -0.452226 -0.48579 26.979 -2.19436 3.19639 1.54775 -6.07689 3.90898 -0.159105 -0.415873 -0.449398 
26.982 1 262 22.8399 6.6475 4.67858 0.246405 -1.17337 2.61012 -0.72414 -0.458549 -0.209965 0 0 0 0 0 0 -0.0171425 -0.0344424 -0.0620848 20.7935 5.21139 3.34887 -0.367502 -2.62153 2.14675 -0.743863 -0.473503 -0.226832 24.3865 7.1757 5.00431 0.863823 0.294989 3.10959 -0.704356 -0.443635 -0.193151 
26.982 1 302 22.6538 10.4586 4.53763 2.79186 -1.43237 3.49954 0.230822 0.332962 0.416451 0 0 0 0 0 0 0.00714327 0.00443675 -0.0170506 17.9131 25.7139 3.7492 2.33796 1.33913 3.47425 0.236842 0.338626 0.425883 26.8903 -5.35996 4.32514 3.24567 -4.17429 3.55995 0.224885 0.327352 0.407017 
26.982 1 101 20.4596 8.45235 0.765425 0.65825 3.25864 4.63669 0.153022 -0.317247 -0.326339 0 0 0 0 0 0 -0.0121385 -0.0323112 -0.273178 17.4044 6.41394 39.428 1.37269 1.62139 4.34694 0.156432 -0.333712 -0.345987 23.4956 9.72344 42.0423 -0.0609156 4.93531 4.95211 0.149607 -0.300756 -0.306777 
26.982 1 305 24.9196 8.48082 4.62456 -5.05292 2.29014 -0.869472 0.0521285 0.409629 -0.00457027 0 0 0 0 0 0 0.00914222 0.00295728 -0.0483895 25.8592 35.4319 -11.8943 -4.95044 6.03297 -3.23333 0.0535141 0.419063 -0.0104701 23.0452 -19.203 20.1297 -5.15048 -1.42581 1.52256 0.0507867 0.400221 0.00134095 
26.982 1 68 24.7626 6.55032 2.63536 -1.26131 -2.40324 1.79533 0.164086 -0.205593 -0.400276 0 0 0 0 0 0 0.00117092 -0.0576797 -0.215925 28.1656 13.3051 5.07593 -1.05436 -1.59525 1.32764 0.158394 -0.201343 -0.412967 20.4205 -1.15251 -0.955883 -1.46218 -3.19131 2.29665 0.169814 -0.209859 -0.387551 
26.982 1 105 24.834 8.43588 0.56911 0.187397 -3.13658 3.1454 0.112901 0.0315725 0.269908 0 0 0 0 0 0 0.0513253 -0.0574706 -0.269919 23.4696 16.5599 54.0415 0.126442 -1.95079 3.90418 0.117723 0.0221411 0.280363 25.2522 -0.509368 27.0281 0.253948 -4.31064 2.39973 0.108095 0.0410104 0.259473 
26.982 1 102 22.7646 10.524 0.585531 2.50852 0.94588 -0.137933 -0.306935 -0.172101 0.198619 0 0 0 0 0 0 0.0298664 0.00138936 -0.271222 28.7119 12.2357 47.1695 4.11929 2.34486 1.02157 -0.311979 -0.184198 0.206528 16.3111 8.20189 33.9927 0.893578 -0.4226 -1.26511 -0.301874 -0.159961 0.190718 