ITEM: TIMESTEP
6925
ITEM: NUMBER OF ATOMS
4000
ITEM: BOX BOUNDS pp pp pp
-1.48165 41.9816
0.391942 40.1081
0.409185 40.0908
ITEM: ATOMS mass type id x y z vx vy vz fx fy fz xrad yrad zrad vxrad vyrad vzrad fxrad fyrad fzrad xub yub zub vxub vyub vzub fxub fyub fzub xlb ylb zlb vxlb vylb vzlb fxlb fylb fzlb 
26.982 1 43 0.567537 4.22284 2.34455 4.85459 -1.16311 4.44465 0.299822 0.249835 0.421649 0 0 0 0 0 0 -0.0764441 -0.0139141 -0.181682 -6.05968 -0.417763 4.17205 3.44071 -2.27709 5.42147 0.299743 0.257646 0.435743 9.76292 8.1616 -0.319221 6.27982 -0.0374521 3.48001 0.299894 0.242038 0.407553 
26.982 1 202 0.724773 2.21789 4.30978 -1.86015 10.4748 -3.22238 -0.160526 0.282618 0.0886097 0 0 0 0 0 0 -0.0379498 -0.100124 -0.129957 1.41494 -1.24586 5.68752 -1.86488 9.9161 -2.66082 -0.165279 0.30395 0.0851831 2.59944 4.88483 2.23263 -1.84455 11.0443 -3.76517 -0.155761 0.261291 0.0920588 
26.982 1 201 -1.46174 0.280765 4.40037 -4.15765 -3.61212 0.274153 -0.214358 0.20737 0.0759541 0 0 0 0 0 0 -0.0864376 -0.121207 -0.213201 42.9981 44.5623 7.04559 -3.78286 -3.45434 2.24702 -0.224736 0.212352 0.0758117 38.2193 36.3815 1.0403 -4.53197 -3.7643 -1.67842 -0.203974 0.202391 0.0760945 
26.982 1 241 -1.51766 4.18541 4.41913 0.245628 -3.50809 -1.12511 0.0222686 0.25108 -0.190409 0 0 0 0 0 0 -0.126366 -0.0549517 -0.141837 -4.11445 4.85765 3.13945 -0.152344 -3.00793 -2.04487 0.0166327 0.26903 -0.208258 3.89334 2.81003 5.00899 0.645238 -3.99429 -0.185878 0.0279254 0.233139 -0.17255 
26.982 1 4 -1.59136 2.21396 2.44693 -0.0504126 -2.27644 0.94208 0.521808 0.115934 -0.191261 0 0 0 0 0 0 -0.159473 -0.0915723 -0.186979 34.5949 1.92528 3.90819 -1.04275 -2.91514 2.03096 0.523218 0.131542 -0.197615 46.3577 1.6952 0.180177 0.942314 -1.62389 -0.123451 0.520425 0.100318 -0.184912 
26.982 1 2 0.693915 2.4894 0.411607 -0.811517 -1.62511 -1.0921 0.110404 -0.429515 -0.41919 0 0 0 0 0 0 -0.0590313 -0.10671 -0.213039 2.14649 6.75939 9.216 -0.635563 -0.428156 1.15345 0.120286 -0.442414 -0.427665 1.78292 -2.5716 -9.34843 -0.981734 -2.80239 -3.33282 0.100509 -0.41664 -0.410718 
26.982 1 45 2.89437 4.40504 0.316754 3.61756 -5.89819 5.64302 -0.139111 -0.30817 -0.0610546 0 0 0 0 0 0 0.00275631 -0.017836 -0.261832 3.00694 3.83696 41.4742 3.52589 -6.67446 5.66876 -0.138156 -0.326958 -0.0463221 5.05963 4.29009 39.5402 3.71941 -5.10424 5.63247 -0.140075 -0.289369 -0.0757575 
26.982 1 8 2.85647 2.27016 2.33745 -0.502254 0.440891 -5.71804 -0.358086 0.0446471 -0.0336426 0 0 0 0 0 0 0.0043494 -0.164072 -0.191648 -0.754931 6.62699 2.21752 -1.07987 2.0822 -6.18729 -0.369141 0.0575946 -0.0444927 8.74482 -2.88111 1.63506 0.0847685 -1.18451 -5.23376 -0.347042 0.0316973 -0.0227845 
26.982 1 245 2.90049 4.39762 4.4028 -5.05275 0.218567 3.04723 -0.287405 -0.554932 -0.411581 0 0 0 0 0 0 -0.00826024 -0.040321 -0.0683604 2.59212 4.11165 4.35359 -5.30122 0.511918 3.46876 -0.296032 -0.577014 -0.430835 5.49134 4.00175 3.72804 -4.79152 -0.0576418 2.63928 -0.278775 -0.532864 -0.39231 
26.982 1 205 2.82117 0.249138 4.37281 2.2615 1.64248 -1.79123 -0.0210704 0.0387145 -0.107367 0 0 0 0 0 0 -0.00512988 -0.183532 -0.205565 0.927565 38.8835 3.76764 1.71284 1.71216 -2.29618 -0.0224641 0.0527588 -0.120627 6.97456 42.0247 4.25118 2.81516 1.58826 -1.26893 -0.0196759 0.0246854 -0.094098 
26.982 1 47 4.9231 4.15792 2.28323 -2.21268 0.248757 -3.52336 0.172312 0.511307 -0.101151 0 0 0 0 0 0 -0.00683979 -0.0372255 -0.182649 2.49246 6.26562 1.84931 -2.56768 1.42474 -3.66914 0.170514 0.527685 -0.107808 9.31369 1.39085 1.89673 -1.85501 -0.905499 -3.36383 0.174089 0.494952 -0.094474 
26.982 1 206 4.95511 2.16783 4.12436 -1.65196 2.3817 4.8178 0.0650189 0.238627 0.462539 0 0 0 0 0 0 -0.0194558 -0.109161 -0.105176 7.69648 0.713357 9.05777 -1.25939 1.97899 5.9088 0.0593092 0.255711 0.483506 4.17444 2.83993 -1.50399 -2.04243 2.80068 3.74899 0.0707086 0.221545 0.441613 
26.982 1 12 7.21116 2.01279 2.37999 -0.491443 -0.405733 -3.22312 -0.0296899 0.66132 0.108713 0 0 0 0 0 0 -0.0626868 -0.101397 -0.136387 7.27282 1.93958 1.13243 -0.205126 -0.0811103 -3.71446 -0.0240758 0.688224 0.103325 8.8 1.29818 2.81421 -0.782759 -0.710083 -2.71367 -0.0353424 0.634402 0.114118 
26.982 1 9 7.23348 0.351894 0.3257 2.69746 4.73767 -10.4376 -0.0857636 -0.415799 -0.275008 0 0 0 0 0 0 -0.0708787 -0.159536 -0.164624 4.18647 8.77547 1.50004 1.52508 6.74196 -10.5083 -0.0795783 -0.435732 -0.279016 11.9453 -8.93949 -1.74101 3.86967 2.74889 -10.3446 -0.0919666 -0.395837 -0.27094 
26.982 1 249 7.10276 4.16559 4.18876 0.958499 -0.924758 -5.66919 -0.110961 -0.19008 0.285672 0 0 0 0 0 0 -0.00556429 -0.016021 -0.0379946 9.31854 -2.74745 5.31788 0.941984 -1.92117 -5.15354 -0.111713 -0.182193 0.303987 6.53237 10.4106 2.32823 0.971145 0.0933483 -6.16804 -0.110307 -0.197954 0.267373 
26.982 1 209 7.20842 0.22007 4.47424 -3.24945 0.67913 0.0360968 -0.113191 -0.0754751 -0.502522 0 0 0 0 0 0 -0.0197492 -0.180564 -0.157055 9.83187 -1.90382 2.18673 -2.8409 0.413728 -0.751864 -0.112497 -0.0699129 -0.51324 6.24213 1.45038 6.02241 -3.66506 0.962406 0.834867 -0.113923 -0.0810623 -0.491821 
26.982 1 49 7.10063 4.12416 0.418192 2.95661 1.05073 -4.21502 0.0539967 0.199468 0.00137753 0 0 0 0 0 0 -0.0375579 0.0183895 -0.275715 10.6076 -1.18 -3.12528 3.71887 -0.167262 -5.94691 0.0546958 0.20161 -0.0103025 5.24118 8.74008 3.06713 2.1883 2.28787 -2.4621 0.0532336 0.19732 0.0130465 
26.982 1 51 9.25266 4.36219 2.35514 -0.0288702 4.19889 1.51869 0.306854 -0.410385 0.211877 0 0 0 0 0 0 0.00279348 0.0262724 -0.148722 3.33612 4.45765 -2.61219 -1.39614 4.60356 -0.0319235 0.315265 -0.409738 0.208421 16.5379 3.60104 6.50503 1.33403 3.81889 3.09261 0.298367 -0.41107 0.215331 
26.982 1 210 9.41973 2.21982 4.28842 2.68047 0.468418 3.06424 -0.268229 0.302079 0.260589 0 0 0 0 0 0 0.0400644 -0.0863147 -0.0402859 7.58781 3.24209 6.92846 1.91141 0.0620957 3.13685 -0.263145 0.327584 0.267791 12.6223 0.398295 0.891748 3.44405 0.893217 2.99915 -0.273375 0.276527 0.253339 
26.982 1 11 9.27497 0.256946 2.33657 -1.3738 -3.42999 -1.31707 0.328772 0.136877 -0.510438 0 0 0 0 0 0 0.0570601 -0.235358 -0.0967134 7.04121 41.4005 -5.63892 -1.83022 -2.86289 -3.64274 0.335079 0.144714 -0.521394 12.8984 39.5207 9.50372 -0.919367 -3.98057 1.02291 0.322442 0.129039 -0.499461 
26.982 1 16 11.3582 2.34214 2.29411 -4.67972 -0.306349 -2.47555 0.384991 -0.0660369 0.358841 0 0 0 0 0 0 0.0269122 -0.135885 -0.101985 12.5232 3.50715 -2.56345 -4.94257 0.379481 -3.66267 0.386598 -0.0567968 0.368474 11.3277 0.398496 6.31754 -4.41054 -0.969195 -1.28046 0.383368 -0.0753683 0.349187 
26.982 1 253 11.5472 4.21572 4.45714 -2.36034 1.12624 -3.30452 -0.233968 0.180675 -0.302801 0 0 0 0 0 0 -0.00953301 -0.0176476 -0.0387018 11.615 2.62847 14.5418 -2.70016 0.357764 -1.38553 -0.241071 0.193371 -0.30904 12.6097 5.15193 -6.36578 -2.0164 1.92841 -5.20855 -0.226879 0.167958 -0.296613 
26.982 1 10 9.37577 2.29627 0.318516 -4.24597 1.19417 -6.15026 -0.360336 -0.0177591 -0.040882 0 0 0 0 0 0 0.0131713 -0.0722377 -0.242891 12.2052 0.921177 -3.35804 -3.86576 0.801789 -7.4709 -0.365346 -0.02053 -0.0419676 7.93246 2.8909 3.09732 -4.62741 1.60254 -4.80827 -0.355349 -0.0150582 -0.0397848 
26.982 1 53 11.4633 4.13156 0.395442 -1.48016 -2.21496 4.31508 0.234476 0.481538 -0.201522 0 0 0 0 0 0 -0.000721861 0.0388354 -0.26591 11.5158 7.75902 -6.05176 -2.08375 -1.62981 3.07142 0.236828 0.509056 -0.209018 12.5451 -0.195454 5.94278 -0.872032 -2.78599 5.57651 0.232103 0.453975 -0.194063 
26.982 1 55 13.7197 4.13038 2.50113 -1.93574 -1.31411 -0.918996 -0.055944 0.128996 -0.379645 0 0 0 0 0 0 0.0459199 -0.0160408 -0.151789 14.4274 3.27711 4.1062 -2.07584 -1.42337 -0.861326 -0.0488413 0.148135 -0.394482 13.872 4.32344 0.0849502 -1.79071 -1.18089 -0.955048 -0.0630302 0.109812 -0.364822 
26.982 1 214 13.7318 2.25217 4.48352 -2.57867 -1.55909 -4.1768 0.135729 -0.00209484 -0.256094 0 0 0 0 0 0 -0.0208702 -0.0991001 -0.0727001 18.16 1.68821 9.94846 -1.78995 -1.61016 -3.53572 0.136144 0.0105869 -0.268322 10.1575 2.04525 -1.73782 -3.36012 -1.48183 -4.80691 0.135334 -0.0148336 -0.243918 
26.982 1 20 15.9606 2.1332 2.37094 -1.8548 -2.82503 -4.44063 -0.11445 0.684651 0.0978859 0 0 0 0 0 0 0.075734 -0.101286 -0.211797 18.6928 -4.43154 5.99945 -1.19494 -4.35951 -4.19471 -0.107978 0.718199 0.0986651 13.7871 7.96655 -2.0867 -2.51384 -1.26303 -4.66994 -0.120955 0.65104 0.0970939 
26.982 1 15 13.6739 0.476912 2.42388 1.37859 1.97705 5.29089 -0.115634 -0.133667 -0.221798 0 0 0 0 0 0 -0.00963413 -0.234973 -0.136565 12.5812 36.1052 4.04204 0.860364 1.59333 6.69318 -0.12269 -0.139931 -0.225807 15.6007 45.2442 -0.0199899 1.8996 2.37477 3.90173 -0.108573 -0.127477 -0.217836 
26.982 1 14 13.8278 2.37496 0.297469 -2.55313 -1.5443 3.31907 -0.205377 0.104889 0.361284 0 0 0 0 0 0 0.0649653 -0.0877755 -0.23776 12.2731 5.08408 34.0568 -2.97603 -0.440891 2.50574 -0.202288 0.121436 0.371115 16.2425 -1.12033 46.9143 -2.12316 -2.63356 4.15071 -0.208458 0.088219 0.35143 
26.982 1 257 15.8314 4.39704 4.28342 0.0566326 -1.61915 1.21958 0.234836 -0.0574169 0.00190409 0 0 0 0 0 0 0.019095 -0.0165227 -0.0772188 17.569 -1.5739 6.7662 0.577824 -3.04388 1.69905 0.237979 -0.0562314 -0.000882334 14.6705 9.68498 1.04808 -0.462813 -0.174416 0.751654 0.231718 -0.0586107 0.00474159 
26.982 1 218 18.035 2.34373 4.26248 0.49103 -1.76198 5.06282 0.224143 -0.0457989 0.231828 0 0 0 0 0 0 0.0140894 -0.0946276 -0.13109 15.0353 -1.94319 5.07505 0.0309323 -2.37481 4.88671 0.226511 -0.0468134 0.234621 21.3061 5.8961 2.70818 0.947457 -1.1219 5.25144 0.221739 -0.0447895 0.22905 
26.982 1 59 18.0449 4.42396 2.50337 -2.3196 5.04706 0.905275 -0.0544104 -0.119463 -0.515049 0 0 0 0 0 0 0.00536036 -0.0369587 -0.255835 22.6115 1.53034 4.68604 -1.31384 4.73405 1.53702 -0.0678297 -0.129341 -0.532819 13.7553 6.66012 -0.494064 -3.32942 5.38283 0.296021 -0.0410054 -0.109587 -0.497264 
26.982 1 217 15.8118 0.407521 4.45772 -2.02623 -5.53891 -3.82743 0.385178 -0.214885 0.240421 0 0 0 0 0 0 0.0242875 -0.187379 -0.160112 20.6573 35.464 7.78359 -1.39404 -6.76001 -2.74702 0.397744 -0.219813 0.240638 11.5102 45.767 0.396752 -2.65878 -4.29574 -4.89468 0.372565 -0.209993 0.240142 
26.982 1 21 20.1805 0.29513 0.558547 -4.49742 2.11771 -4.53364 0.60067 0.149818 -0.473172 0 0 0 0 0 0 0.00494988 -0.0851093 -0.123052 23.8881 -10.1476 2.87172 -4.00986 0.309206 -4.49256 0.604616 0.161353 -0.489311 16.4678 9.87085 -2.65727 -4.98538 3.93811 -4.55586 0.59674 0.138267 -0.45706 
26.982 1 221 20.4169 0.447094 4.34466 -1.26639 2.26546 1.53149 -0.492646 -0.0553077 -0.0203416 0 0 0 0 0 0 0.018741 -0.17146 -0.180579 18.5203 39.5636 0.202636 -1.99908 1.66717 1.35483 -0.507322 -0.0620535 -0.0156618 22.3102 41.7688 7.75755 -0.536478 2.88085 1.72006 -0.477921 -0.0486067 -0.0250309 
26.982 1 261 20.2468 4.49389 4.42133 -0.831354 -5.19245 0.0495952 0.243995 -0.550942 -0.301317 0 0 0 0 0 0 0.0161133 -0.0532279 -0.0961902 18.0092 3.64083 7.73995 -0.841066 -5.36007 0.707288 0.254121 -0.582751 -0.31171 22.4723 4.68632 0.364658 -0.828915 -5.00445 -0.590702 0.233859 -0.519134 -0.290895 
26.982 1 24 20.2936 2.45195 2.3746 -4.65851 2.46814 -2.94703 0.00822724 -0.107977 0.499529 0 0 0 0 0 0 0.0156672 -0.0756561 -0.216282 18.349 1.17773 5.16308 -4.73839 2.54651 -1.97897 0.00903681 -0.109664 0.513036 22.2204 2.99335 -1.2351 -4.58452 2.4126 -3.90015 0.0074346 -0.106343 0.486038 
26.982 1 63 22.5803 4.49184 2.44635 -3.2774 0.650582 -2.67144 -0.532613 -0.408422 0.308389 0 0 0 0 0 0 -0.0046119 -0.0436912 -0.259222 25.6471 6.70333 1.69933 -2.44034 1.62044 -2.51302 -0.535101 -0.415963 0.295404 19.2305 1.62958 2.39049 -4.11898 -0.299023 -2.80849 -0.530142 -0.400933 0.321405 
26.982 1 222 22.5567 2.28092 4.41595 0.281695 -1.98556 -6.65279 -0.445808 0.287756 -0.0184662 0 0 0 0 0 0 0.0203827 -0.123293 -0.134579 21.0959 1.91843 5.78584 0.138336 -1.78255 -6.33322 -0.46288 0.300512 -0.0122944 23.7337 1.90395 2.31856 0.419866 -2.16615 -6.95657 -0.428702 0.274954 -0.024628 
26.982 1 28 24.5817 2.26287 2.55425 -4.80749 -2.22317 0.278601 0.332289 0.457145 -0.393621 0 0 0 0 0 0 -0.0436931 -0.126747 -0.219572 24.7012 5.77539 5.45068 -4.36767 -1.93372 1.2186 0.341281 0.485238 -0.41786 23.9296 -1.98732 -1.17239 -5.24198 -2.49458 -0.651568 0.323278 0.428958 -0.369372 
26.982 1 265 24.6475 4.36829 4.39218 2.95023 0.974492 1.4833 0.194927 0.0791634 -0.195236 0 0 0 0 0 0 -0.00338473 -0.0255259 -0.0958585 26.905 -3.60151 4.69658 3.42898 -1.25265 1.95719 0.204492 0.0964999 -0.20718 21.8417 11.6614 3.34347 2.47225 3.21142 1.01914 0.185354 0.0617979 -0.183265 
26.982 1 67 26.9335 4.35987 2.34434 2.1448 1.80541 -2.37228 -0.533919 0.1065 0.0784537 0 0 0 0 0 0 -0.0192099 -0.047232 -0.222837 28.6444 0.0657696 4.43782 1.855 1.33826 -1.92191 -0.540542 0.123465 0.0749708 24.4064 7.96353 -0.556911 2.44472 2.28358 -2.80922 -0.527291 0.0894921 0.0819815 
26.982 1 226 26.6965 2.34045 4.45214 -2.25303 4.68121 -2.86383 0.231685 -0.11785 0.054944 0 0 0 0 0 0 -0.0363643 -0.100328 -0.0873586 26.3996 1.94666 5.86309 -2.42084 4.34562 -1.77207 0.241219 -0.111488 0.050907 26.1913 2.01068 2.2902 -2.0727 5.04585 -3.95014 0.222082 -0.124242 0.0589449 
26.982 1 269 28.7696 4.2415 4.35306 -2.33256 5.09461 -1.43394 0.516253 0.251969 0.536138 0 0 0 0 0 0 0.0100136 -0.0297751 -0.0558635 26.6942 9.61972 10.7431 -2.63277 6.20044 0.414235 0.52254 0.253005 0.558275 29.7533 -1.82022 -2.75299 -2.01882 4.00656 -3.26546 0.509965 0.250929 0.514037 
26.982 1 27 26.7469 0.441399 2.28517 0.680214 -3.45725 -4.6048 0.00199388 -0.353237 0.497871 0 0 0 0 0 0 -0.0742033 -0.169678 -0.135397 28.0997 3.56803 -1.18638 1.19847 -2.11103 -4.36721 0.0104287 -0.354614 0.519319 24.5806 -3.54491 4.91971 0.168079 -4.78378 -4.83426 -0.00652827 -0.351898 0.476461 
26.982 1 29 28.8559 0.478889 0.386549 0.533383 6.60289 -2.88164 0.350475 -0.326745 -0.189983 0 0 0 0 0 0 0.0350617 -0.0833144 -0.146777 27.3993 -6.42609 43.5164 0.302898 4.92331 -1.77869 0.363427 -0.332316 -0.1816 29.1769 6.50885 37.6333 0.763767 8.29555 -3.97474 0.337499 -0.32117 -0.198358 
26.982 1 32 28.9188 2.28162 2.4841 0.598227 -0.278164 4.33298 0.0148257 0.248957 -0.376745 0 0 0 0 0 0 0.0406383 -0.0754102 -0.191216 24.4858 3.601 5.57127 -0.9008 0.628992 5.73413 0.0165049 0.255553 -0.37548 32.2364 0.221374 -1.4121 2.10579 -1.15961 2.94809 0.0131383 0.242361 -0.37802 
26.982 1 71 31.0277 4.3044 2.43076 -0.368617 3.36835 4.77577 0.0949141 0.228896 -0.173397 0 0 0 0 0 0 -0.0275564 -0.0445172 -0.222672 31.0466 5.23301 1.4128 -0.517548 4.12604 5.04416 0.0856577 0.237888 -0.180101 29.5889 2.67676 2.6725 -0.221907 2.62264 4.53236 0.104217 0.219918 -0.166719 
26.982 1 230 31.2003 2.39971 4.36171 2.72282 -1.12351 4.72134 -0.170114 -0.084957 0.47182 0 0 0 0 0 0 0.0271337 -0.136423 -0.106053 25.7117 -1.51019 5.38487 1.7262 -2.3735 5.07091 -0.172326 -0.0974263 0.486268 35.2822 5.57094 2.64826 3.72083 0.152825 4.39226 -0.167852 -0.0724792 0.457351 
26.982 1 273 33.3023 4.38181 4.40068 -0.619718 -5.78828 -2.62643 -0.178024 -0.229182 0.295793 0 0 0 0 0 0 -0.0149391 -0.047176 -0.0588761 38.3007 6.12666 3.49176 0.316003 -4.46456 -2.47011 -0.187028 -0.241548 0.309356 26.5854 1.92906 4.59623 -1.56709 -7.09931 -2.7668 -0.168965 -0.216809 0.282226 
26.982 1 229 28.8945 0.361908 4.43431 -4.42799 -3.80128 -1.3737 0.0103582 -0.133499 0.0682551 0 0 0 0 0 0 0.0282579 -0.158952 -0.15028 26.8733 33.6928 10.9376 -5.27861 -4.84267 -0.102565 0.0096502 -0.126569 0.0698436 29.8124 47.4933 -2.77662 -3.56765 -2.73032 -2.62933 0.0110025 -0.140422 0.0666352 
26.982 1 36 33.2573 2.42388 2.48596 1.23068 0.808732 -0.589125 0.124731 -0.347798 -0.433427 0 0 0 0 0 0 -0.026417 -0.169867 -0.191703 33.0451 1.0305 -0.785349 1.75824 0.220338 -1.45462 0.123682 -0.357559 -0.454269 31.7696 3.06236 4.98955 0.692777 1.41942 0.300533 0.125813 -0.338003 -0.412587 
26.982 1 73 33.2486 4.41729 0.466291 -0.929458 -2.03404 -0.179736 0.184776 -0.174507 0.0439014 0 0 0 0 0 0 -0.00488357 -0.044069 -0.272488 30.3192 10.6518 2.84227 -0.563963 -0.83951 -0.199633 0.18304 -0.176827 0.0351132 34.468 -2.5058 -2.78889 -1.30653 -3.2158 -0.132252 0.186476 -0.17217 0.0526808 
26.982 1 75 35.3327 4.41373 2.56162 2.32754 -0.28544 -2.13653 0.641492 0.080127 -0.590484 0 0 0 0 0 0 0.0299352 -0.0400602 -0.223649 38.8823 3.15216 4.27488 2.71504 0.623038 -1.59957 0.654828 0.077531 -0.615327 29.7891 4.94462 0.0580719 1.92706 -1.18243 -2.64988 0.628136 0.0827098 -0.565601 
26.982 1 234 35.6286 2.32403 4.18664 -3.06578 -3.6846 2.98313 -0.129962 0.0143048 0.323331 0 0 0 0 0 0 -0.0416157 -0.0897041 -0.102384 39.7453 1.25497 4.87064 -1.9627 -3.88565 2.73252 -0.129215 0.0267459 0.329759 29.5202 2.60769 2.81908 -4.17954 -3.46399 3.25855 -0.13064 0.00185323 0.316983 
26.982 1 40 37.7992 2.40633 2.31753 2.313 -1.9116 2.71363 -0.123334 -0.0594458 -0.0334752 0 0 0 0 0 0 -0.0548191 -0.0538907 -0.232644 40.2819 7.94684 1.45438 2.8336 -0.489998 1.48543 -0.124672 -0.0525013 -0.0497896 33.0517 -3.95153 2.38717 1.78496 -3.31479 3.96538 -0.121955 -0.0664542 -0.0170966 
26.982 1 277 37.8714 4.43754 4.26389 -2.75958 1.74562 1.76448 -0.384097 -0.0551284 0.0329593 0 0 0 0 0 0 -0.00549788 -0.00381124 -0.080425 37.4921 8.50927 -0.364597 -2.61827 4.38666 0.772399 -0.381588 -0.048555 0.0315324 35.9768 -0.348811 8.1917 -2.91064 -0.882578 2.78021 -0.386581 -0.0617341 0.0344999 
26.982 1 35 35.4779 0.373481 2.39816 0.960198 1.14727 3.08311 -0.0581173 -0.197051 -0.446575 0 0 0 0 0 0 -0.0640661 -0.179831 -0.182686 32.8107 2.99408 2.04222 0.459762 2.05709 3.13257 -0.072393 -0.185437 -0.471988 36.1968 -3.09168 1.9743 1.45685 0.265647 3.05869 -0.0437838 -0.20865 -0.421146 
26.982 1 79 40.0227 4.16123 2.32773 -2.83348 2.59367 3.06729 -0.357853 0.635892 0.0245196 0 0 0 0 0 0 -0.000709351 0.0482469 -0.22554 37.0752 10.8691 -2.00343 -3.00706 4.95606 1.84549 -0.364378 0.661825 0.0142102 40.4359 -3.25042 5.86643 -2.66466 0.240373 4.31502 -0.351246 0.60995 0.0348399 
26.982 1 238 39.7952 2.23008 4.36289 0.838092 1.40125 -0.329147 0.282115 0.3966 0.21013 0 0 0 0 0 0 0.0088181 -0.0521978 -0.0722217 43.0827 3.64228 3.72351 2.04608 1.17417 -0.390774 0.28977 0.418612 0.209847 33.968 0.0262594 4.3035 -0.375506 1.64396 -0.244259 0.274464 0.374575 0.21045 
26.982 1 39 39.8252 0.34694 2.24462 -1.42321 -0.626359 8.3497 -0.0649672 -0.342725 0.0670781 0 0 0 0 0 0 0.00762597 -0.220234 -0.166208 38.3166 40.0863 4.8675 -1.49676 -1.44321 9.83439 -0.0677395 -0.352746 0.0633558 38.8028 41.0032 -1.17337 -1.35275 0.203449 6.89592 -0.0621736 -0.332714 0.0708416 
26.982 1 38 39.9609 2.26652 0.268171 0.19492 0.112101 4.47529 -0.392808 0.238545 -0.0165038 0 0 0 0 0 0 -0.0101316 -0.0265736 -0.250693 38.7968 6.07245 46.5097 0.132261 0.475339 6.39379 -0.409303 0.251109 -0.0153891 38.5969 -2.33653 34.3953 0.254557 -0.230367 2.57459 -0.376231 0.225969 -0.0175855 
26.982 1 237 37.8192 0.389545 4.24642 1.81177 2.1804 -6.04182 -0.63734 -0.0747774 0.064194 0 0 0 0 0 0 -0.0263985 -0.181175 -0.134791 37.6454 3.34734 7.96437 1.96907 2.89794 -5.3127 -0.641383 -0.0715394 0.0643971 35.7268 -3.45708 -0.172788 1.64846 1.47857 -6.74849 -0.633273 -0.0780113 0.0640459 
26.982 1 83 0.679758 8.28306 2.24757 -1.15558 2.92096 2.02693 0.449624 -0.12766 0.39429 0 0 0 0 0 0 -0.130579 -0.0970155 -0.18129 -0.849406 15.505 4.82466 -1.92877 4.39195 3.02821 0.454118 -0.13308 0.414717 4.76747 0.508273 -1.16972 -0.374162 1.45689 1.03731 0.445185 -0.122237 0.373855 
26.982 1 242 0.689859 6.16487 4.31358 2.18157 -3.5546 2.09919 -0.0586249 0.223409 -0.223642 0 0 0 0 0 0 -0.0917786 0.00623864 -0.115676 -2.70233 7.18497 8.72402 1.20394 -2.79237 3.64333 -0.0602807 0.232891 -0.230275 6.64234 4.5419 -0.799387 3.16769 -4.30541 0.57756 -0.0569406 0.213942 -0.217001 
26.982 1 281 -1.39675 8.43254 4.29257 4.1101 -0.912313 -0.72642 -0.0795005 -0.419863 0.451563 0 0 0 0 0 0 -0.127264 -0.105962 -0.1476 42.7702 15.7521 6.09616 4.12253 1.27928 -0.822105 -0.085154 -0.426401 0.464549 38.5729 0.596481 1.77602 4.09487 -3.08602 -0.614443 -0.0737834 -0.413347 0.438602 
26.982 1 88 2.94287 10.2216 2.43394 4.29574 -4.74593 2.46754 -0.1727 -0.0551711 0.0853903 0 0 0 0 0 0 -0.0424587 -0.0166603 -0.104123 -1.48676 13.2902 4.52817 2.6985 -3.76817 3.19826 -0.164958 -0.0523069 0.0902979 9.67332 6.69031 -0.505499 5.90689 -5.71649 1.74504 -0.180476 -0.0580796 0.0804531 
26.982 1 285 2.74153 8.1147 4.29668 -0.615109 0.12143 7.22946 0.24863 0.146008 -0.0079981 0 0 0 0 0 0 -0.0171526 -0.00298123 -0.033849 -4.37289 9.56617 2.32392 -2.17264 1.06494 7.53118 0.248222 0.155397 0.00391405 12.1482 6.11349 5.52793 0.956397 -0.81847 6.93674 0.249022 0.13662 -0.0199292 
26.982 1 48 2.83371 6.21632 2.21927 -7.61759 -1.97707 -0.979787 -0.0610593 0.234748 0.311236 0 0 0 0 0 0 -0.0367017 -0.0159006 -0.180603 -3.47971 7.68818 -0.310516 -9.10834 -1.02192 -1.77423 -0.0618503 0.228937 0.321288 11.4316 4.14019 3.9196 -6.11459 -2.92371 -0.17021 -0.060268 0.240602 0.30119 
26.982 1 87 5.09783 8.15981 2.41962 -2.84862 -4.10848 -1.90567 -0.204114 0.334373 -0.409606 0 0 0 0 0 0 0.00156177 -0.0358794 -0.153297 2.42 10.956 6.7914 -3.82027 -3.95268 -0.734167 -0.199742 0.340993 -0.419547 9.75896 4.83179 -2.7786 -1.86808 -4.25588 -3.05951 -0.208532 0.327741 -0.399691 
26.982 1 246 4.92437 6.27371 4.24401 -0.325245 -0.570994 -0.892546 0.179387 -0.211976 0.454907 0 0 0 0 0 0 0.000810275 -0.00804524 -0.0525235 8.27851 7.92883 5.26722 0.457671 0.253827 1.14494 0.17914 -0.215573 0.460062 3.54397 4.01924 2.47529 -1.09885 -1.3823 -2.92175 0.179607 -0.208371 0.449755 
26.982 1 289 7.1561 8.24265 4.24178 -3.80627 -4.35113 -2.06145 -0.130814 0.142458 0.442585 0 0 0 0 0 0 0.00266926 -0.010157 -0.0328014 11.2733 7.17307 7.45809 -3.14701 -4.45052 -0.574576 -0.133642 0.142516 0.455871 4.70687 8.78655 0.27021 -4.46312 -4.24345 -3.53939 -0.128041 0.142373 0.429314 
26.982 1 286 4.89148 10.0562 4.35464 -0.0216269 -1.14868 5.19859 0.298974 0.531883 0.259945 0 0 0 0 0 0 0.00252312 0.0150093 -0.0136958 6.78523 13.7111 13.6242 -0.355403 0.27431 8.39172 0.301057 0.553692 0.267912 5.00861 5.92462 -5.67798 0.327619 -2.57314 2.00953 0.296837 0.51004 0.251957 
26.982 1 85 2.92271 8.43636 0.472416 3.37948 -0.105415 -1.72397 -0.255333 -0.540633 -0.251819 0 0 0 0 0 0 -0.0314398 -0.0831958 -0.278914 -3.48457 12.1216 7.798 2.19515 0.670044 0.305355 -0.260008 -0.563919 -0.25557 11.5975 4.23154 -7.77886 4.57158 -0.864818 -3.74339 -0.250651 -0.517352 -0.248063 
26.982 1 52 7.11506 6.16251 2.47811 -0.364533 -4.46347 -3.99828 -0.115459 0.253802 -0.713719 0 0 0 0 0 0 0.00958802 0.00260728 -0.184577 8.64799 6.22889 7.05478 0.038091 -4.70387 -3.34066 -0.115118 0.25558 -0.738527 7.23252 5.50554 -2.90985 -0.770867 -4.20793 -4.63411 -0.115892 0.252049 -0.688902 
26.982 1 92 7.12047 10.4165 2.48178 2.29808 3.09992 0.477953 -0.190691 -0.14507 -0.358375 0 0 0 0 0 0 -6.92007e-05 -0.0197498 -0.122458 6.71823 11.481 6.85067 2.18446 4.20341 2.03052 -0.204276 -0.151381 -0.374828 9.18973 8.9232 -2.69616 2.41027 2.01382 -1.05131 -0.177156 -0.138825 -0.341949 
26.982 1 91 9.25381 8.38731 2.4233 3.25429 -5.24241 -6.13016 0.113094 -0.286093 -0.361391 0 0 0 0 0 0 0.0422974 -0.0553323 -0.190578 10.9353 6.57955 4.67242 3.63317 -5.87309 -6.08133 0.117427 -0.302823 -0.389479 8.94971 9.67493 -0.627677 2.87031 -4.60564 -6.15269 0.108693 -0.269368 -0.333296 
26.982 1 250 9.23929 6.41297 4.30119 0.55366 -2.60696 -0.353692 0.347422 -0.488575 0.0779188 0 0 0 0 0 0 0.0136018 -0.017921 -0.0444174 8.85901 7.76452 14.7519 0.120763 -2.14889 1.02501 0.357249 -0.509929 0.0890355 10.9906 4.50454 -6.93356 0.983774 -3.03951 -1.73299 0.337494 -0.467197 0.0668159 
26.982 1 290 9.27588 10.3114 4.39708 0.603465 1.2474 -2.94847 0.482723 -0.0128276 0.0277806 0 0 0 0 0 0 0.0236967 0.00164429 -0.0387026 8.32102 15.3992 15.7879 0.775451 3.5579 -0.193962 0.498507 -0.00574609 0.0173576 11.6101 4.78138 -7.70968 0.428769 -1.06242 -5.68328 0.466932 -0.0199015 0.0382305 
26.982 1 293 11.4941 8.3623 4.32411 2.61634 -3.07168 -0.8136 0.106339 -0.0674105 0.193328 0 0 0 0 0 0 0.00790244 -0.0109491 -0.0580821 10.2319 10.2372 14.4317 2.42272 -1.07712 1.30027 0.109335 -0.0757032 0.203933 13.8768 5.95141 -6.52272 2.81097 -5.06552 -2.90993 0.103319 -0.059069 0.182768 
26.982 1 89 7.12072 8.09364 0.346698 -0.617319 4.69429 -4.98631 0.503925 0.586049 0.622238 0 0 0 0 0 0 0.0246408 -0.0568735 -0.271621 9.05705 9.75817 0.0690214 0.14004 5.25304 -5.50314 0.527215 0.599604 0.640102 6.83507 5.90623 -0.243824 -1.38238 4.14785 -4.43967 0.480541 0.572511 0.604356 
26.982 1 56 11.5971 6.22189 2.61657 0.026373 0.733383 -5.57712 -0.494358 -0.209663 -0.436378 0 0 0 0 0 0 -0.0232821 0.036568 -0.175708 14.1275 6.76791 5.81155 0.304112 1.33286 -5.52293 -0.504914 -0.210607 -0.455617 10.2015 5.08438 -1.39218 -0.246877 0.146793 -5.60587 -0.483845 -0.208699 -0.417151 
26.982 1 95 13.6098 8.27972 2.29227 -3.94361 -0.836792 3.08093 0.139477 0.177283 0.348727 0 0 0 0 0 0 0.000912929 0.0176604 -0.207386 15.3366 10.8066 -2.35826 -4.27691 -0.15939 2.38091 0.142309 0.175006 0.366816 12.7266 5.21615 6.14223 -3.60922 -1.5098 3.80822 0.136647 0.179599 0.33071 
26.982 1 254 13.7037 6.32149 4.36674 1.08722 -2.02683 3.77745 0.290203 0.164919 0.274771 0 0 0 0 0 0 0.00971209 0.019855 -0.0444641 12.3788 6.39001 11.9609 0.890358 -2.19395 5.78872 0.297716 0.177865 0.286908 15.8882 5.67955 -3.9881 1.28828 -1.84167 1.77377 0.282739 0.152028 0.26269 
26.982 1 54 13.5874 6.1382 0.540134 -2.29564 -2.64831 2.43908 0.254566 -0.103291 -0.194823 0 0 0 0 0 0 0.0367722 0.0516437 -0.273062 10.7473 11.3027 -5.62159 -2.77657 -0.57047 0.944411 0.261921 -0.0970847 -0.190097 17.2793 0.369452 5.79014 -1.81163 -4.72062 3.95417 0.247209 -0.109476 -0.199554 
26.982 1 297 15.9945 8.28292 4.6305 1.23632 -1.75704 0.893575 -0.223738 0.104152 -0.690022 0 0 0 0 0 0 -0.0106174 -0.012657 -0.0780298 19.3193 13.5741 0.0321666 1.70299 -0.110989 1.15411 -0.23018 0.0977211 -0.718975 13.2422 2.46103 8.49427 0.772013 -3.39903 0.652244 -0.217246 0.110612 -0.661016 
26.982 1 60 15.7957 6.5426 2.33648 -2.48104 3.6234 5.24484 0.289475 -0.758481 0.298542 0 0 0 0 0 0 0.0394481 -0.0188622 -0.218214 20.1725 10.4368 -1.51066 -1.48075 4.56698 4.75569 0.287361 -0.785647 0.300056 11.98 2.0317 5.37129 -3.48206 2.68694 5.75695 0.291629 -0.731311 0.297082 
26.982 1 99 17.98 8.45369 2.39806 -4.76028 4.11518 -1.50994 -0.114541 -0.42151 0.0931211 0 0 0 0 0 0 -0.0331497 -0.0690212 -0.189033 16.935 11.1253 -1.65086 -4.3878 4.15238 -2.09274 -0.126346 -0.446029 0.0957991 19.317 5.21406 5.63395 -5.1286 4.08009 -0.906302 -0.102692 -0.396963 0.090464 
26.982 1 258 18.0934 6.29137 4.44191 0.106486 -5.80859 -1.38479 -0.274841 0.348273 -0.229794 0 0 0 0 0 0 -0.0125537 -0.0199018 -0.0786127 17.0131 10.4167 5.07761 -0.313435 -5.91685 -1.57182 -0.286827 0.337948 -0.243497 19.4559 1.56776 3.06645 0.522312 -5.68618 -1.1833 -0.262853 0.35865 -0.216037 
26.982 1 298 17.9999 10.3143 4.31027 1.64804 3.65694 -2.53127 -0.153171 0.0725308 0.698034 0 0 0 0 0 0 -0.00729522 -0.00289065 -0.0284247 17.64 11.5161 -6.88115 1.39731 3.85529 -4.88859 -0.162231 0.0757822 0.715657 18.6508 8.66784 14.7891 1.90258 3.46555 -0.158273 -0.144138 0.0692293 0.680417 
26.982 1 100 15.6312 10.2314 2.47088 -2.62201 3.54523 -3.03216 0.470885 0.00719516 -0.13612 0 0 0 0 0 0 -0.0271836 -0.0521 -0.184406 17.709 20.942 -3.71222 -2.22215 6.60735 -4.39675 0.466634 0.00266614 -0.142562 14.1167 -0.915596 7.84344 -3.01608 0.487704 -1.64492 0.475171 0.0117161 -0.129641 
26.982 1 98 18.0536 10.2369 0.194906 -1.66495 -7.2336 -8.52279 -0.149272 0.216436 0.580969 0 0 0 0 0 0 -0.00123952 -0.0263907 -0.265021 14.4906 13.3207 45.1049 -2.42942 -7.11228 -7.9133 -0.164704 0.22422 0.59636 21.9113 6.72453 35.6334 -0.891864 -7.34537 -9.11704 -0.133776 0.208684 0.565587 
26.982 1 301 20.1129 8.23785 4.4916 2.56029 -0.212821 -3.90218 0.299145 0.325305 -0.195463 0 0 0 0 0 0 0.0169888 0.0154 -0.0607627 17.4034 5.56037 4.16598 2.26072 -0.996954 -4.50263 0.310409 0.34631 -0.20219 22.8147 10.3732 4.09679 2.85522 0.58078 -3.28801 0.287814 0.304321 -0.188742 
26.982 1 64 20.1805 6.50606 2.36051 4.42247 -2.5065 2.1527 0.183516 -0.332994 0.272686 0 0 0 0 0 0 0.013142 -0.0765782 -0.230953 19.3585 6.08585 -0.221593 4.6086 -2.79781 1.48646 0.191345 -0.3591 0.268461 21.0001 6.32505 4.12324 4.23315 -2.19719 2.8362 0.175649 -0.306846 0.276933 
26.982 1 103 22.2647 8.43053 2.49368 -0.578788 -6.81493 3.96661 0.288327 -0.387835 0.320039 0 0 0 0 0 0 0.049561 -0.0202267 -0.212613 19.8809 15.3722 3.08679 -0.721722 -5.45664 3.86232 0.300524 -0.412317 0.329556 24.3488 0.961964 1.09903 -0.445305 -8.15238 4.08921 0.276035 -0.363342 0.310533 
26.982 1 262 22.3101 6.37619 4.55769 3.20643 -3.37854 -1.56962 0.284702 0.261212 -0.48713 0 0 0 0 0 0 0.0086226 -0.00280899 -0.0795832 20.298 6.76641 3.89392 3.45221 -3.64913 -2.10038 0.292366 0.263179 -0.502214 24.0283 5.38419 4.49242 2.95167 -3.09429 -1.02437 0.276989 0.259251 -0.472029 
26.982 1 305 24.4526 8.56845 4.35028 4.67855 -2.0686 -0.357975 0.0233377 -0.270458 -0.0804204 0 0 0 0 0 0 -0.0163941 -0.00553245 -0.0822443 25.6461 19.3579 -1.57055 4.93782 0.525943 -1.93665 0.0106066 -0.280745 -0.0879219 22.6975 -2.73984 9.54324 4.41479 -4.63817 1.23786 0.0360213 -0.260171 -0.0728784 
26.982 1 101 20.114 8.4331 0.474428 -2.70388 -0.381059 4.10547 0.314305 -0.355638 -0.245306 0 0 0 0 0 0 0.0526778 -0.0546009 -0.275162 16.4989 11.5791 41.8294 -3.33007 -0.407896 4.16101 0.323484 -0.38759 -0.254535 23.7257 4.74665 39.4798 -2.07757 -0.344057 4.0611 0.305085 -0.323633 -0.236087 
26.982 1 68 24.6175 6.40623 2.56985 -1.23517 2.02357 -0.494502 0.17462 0.257893 -0.119238 0 0 0 0 0 0 -0.0324741 -0.00414262 -0.22508 27.8912 8.58278 5.22706 -0.811805 3.07033 -0.0223045 0.186004 0.263817 -0.136581 20.7784 3.60534 -0.904776 -1.66236 0.986295 -0.949774 0.163208 0.251972 -0.101853 
26.982 1 107 26.7547 8.4432 2.55332 3.54389 0.0519489 -1.16757 -0.10895 -0.315772 -0.455213 0 0 0 0 0 0 -0.0416233 0.0189721 -0.197279 26.3635 16.7871 4.17735 3.27735 2.04614 -0.779544 -0.111395 -0.334062 -0.478589 26.3067 -0.461126 0.130681 3.80949 -1.93691 -1.53455 -0.106507 -0.297456 -0.431847 