ITEM: TIMESTEP
14725
ITEM: NUMBER OF ATOMS
4000
ITEM: BOX BOUNDS pp pp pp
-3.06693 43.5669
0.767777 39.7322
0.840589 39.6594
ITEM: ATOMS mass type id x y z vx vy vz fx fy fz xrad yrad zrad vxrad vyrad vzrad fxrad fyrad fzrad xub yub zub vxub vyub vzub fxub fyub fzub xlb ylb zlb vxlb vylb vzlb fxlb fylb fzlb 
26.982 1 43 -0.524907 4.63804 2.91658 -4.73658 0.906601 2.57917 -0.370975 -0.216341 -0.479238 0 0 0 0 0 0 -0.0655248 -0.0817797 -0.158403 -17.3662 2.28059 17.9235 -6.57051 2.43104 5.07707 -0.372634 -0.216814 -0.494021 21.7775 5.86303 -13.5391 -2.89811 -0.584184 0.114036 -0.369351 -0.215901 -0.46447 
26.982 1 202 -0.823675 2.91741 4.91571 -2.172 -5.52495 1.67398 -0.103418 -0.559003 -0.149028 0 0 0 0 0 0 -0.0613585 -0.0760178 -0.115867 2.86667 -15.131 5.40293 -1.52193 -7.17287 1.73168 -0.0970647 -0.570537 -0.17481 0.953309 19.7131 3.29181 -2.81698 -3.85155 1.65958 -0.109819 -0.547559 -0.123261 
26.982 1 241 -3.06634 4.86847 4.85185 0.0818062 2.96368 2.16752 0.0344978 -0.326782 -0.327126 0 0 0 0 0 0 -0.0991635 -0.109489 -0.124287 -5.76707 12.5153 -12.3186 1.3232 4.07893 -0.920064 0.0426778 -0.345296 -0.332285 5.60231 -3.82778 20.859 -1.16247 1.8965 5.2834 0.0262769 -0.308333 -0.32201 
26.982 1 245 1.54412 4.41592 4.87651 0.714109 -1.67051 0.0790975 -0.0140174 0.318205 -0.0668581 0 0 0 0 0 0 -0.0144693 -0.00983121 -0.0421686 -2.94437 7.88476 3.40429 -0.692031 -0.329031 -0.931658 -0.0247111 0.340579 -0.071315 10.9127 -0.120588 5.14648 2.12986 -2.96638 1.12798 -0.00333588 0.295912 -0.0623654 
26.982 1 8 1.59824 2.58895 2.66925 3.33271 -3.14936 5.81159 -0.380477 0.115403 0.569688 0 0 0 0 0 0 -0.0213103 -0.135868 -0.187467 -4.12298 17.1529 3.08318 2.67596 -2.55261 6.90159 -0.396976 0.126824 0.592072 12.1827 -13.2946 0.875936 3.99409 -3.72899 4.76127 -0.363982 0.104016 0.547348 
26.982 1 47 3.73861 4.28054 2.962 2.27273 -1.24934 1.64709 0.195664 0.276845 -0.534024 0 0 0 0 0 0 0.00553603 -0.0614219 -0.16256 -3.78576 18.3199 -5.98781 1.32842 0.0626811 -1.212 0.188177 0.288535 -0.552064 15.476 -10.6929 10.5244 3.21849 -2.50435 4.53345 0.203156 0.265191 -0.516031 
26.982 1 206 3.94048 2.63153 5.00953 -0.829649 -3.19034 3.55756 0.015057 -0.25122 -0.380117 0 0 0 0 0 0 0.0348668 -0.111656 -0.0669218 9.46231 -11.5224 23.5419 -0.352124 -2.95669 6.46261 0.0134298 -0.254067 -0.384763 2.62156 15.5671 -14.6405 -1.30991 -3.36361 0.705278 0.0166221 -0.248313 -0.375565 
26.982 1 807 4.2558 0.941356 18.4357 3.76673 3.75201 -5.03375 -0.484427 -0.312364 -0.0390008 0 0 0 0 0 0 -0.104019 -0.284186 -0.027438 6.47902 57.3736 15.5226 4.1341 5.90114 -6.00919 -0.502232 -0.346 -0.0407677 6.20203 24.6838 21.3744 3.39802 1.68604 -4.03766 -0.466604 -0.278731 -0.0372447 
26.982 1 801 -3.14015 0.797192 16.2511 -4.35929 2.15868 2.69682 -0.179397 0.222047 -0.133379 0 0 0 0 0 0 -0.102886 -0.0895027 -0.160686 43.6111 54.9622 7.12134 -4.85266 4.44416 1.60259 -0.179491 0.218098 -0.116009 37.3965 26.5703 25.362 -3.86315 -0.085681 3.85365 -0.179343 0.225992 -0.150724 
26.982 1 249 6.0375 4.70023 4.59868 -1.2719 0.665835 -3.48373 0.10933 0.0221468 0.480188 0 0 0 0 0 0 0.01036 -0.0430943 -0.0328747 7.48629 -10.0523 12.079 -1.7713 -1.85953 -2.72769 0.108813 0.0115141 0.507902 8.09857 18.471 -4.06645 -0.782671 3.24297 -4.19584 0.109825 0.0328218 0.452463 
26.982 1 12 6.35406 2.54762 3.0125 -3.87021 -4.24239 -0.0153142 -0.294742 -0.00883893 0.629221 0 0 0 0 0 0 0.00893166 -0.203248 -0.127997 7.74781 7.44238 -5.63059 -4.31046 -3.45669 -0.876241 -0.308327 -0.010392 0.637591 8.47148 -3.52719 10.3252 -3.44113 -4.97002 0.884423 -0.28118 -0.00722947 0.620823 
26.982 1 51 8.41118 4.89934 2.85818 4.65878 -4.86328 2.74648 0.146343 -0.0997824 -0.554862 0 0 0 0 0 0 0.0356086 -0.012913 -0.196561 -6.05786 14.1886 -19.8227 4.12977 -4.39476 1.57898 0.152365 -0.107976 -0.568553 25.758 -5.35208 24.1948 5.17365 -5.27451 3.95907 0.140328 -0.0916187 -0.541179 
26.982 1 210 8.86444 2.78602 4.46254 -2.55137 -1.84694 3.30327 -0.077778 -0.305338 0.394369 0 0 0 0 0 0 0.00936066 -0.172657 -0.0855792 3.01159 6.44891 12.1822 -3.80817 -1.29759 5.11026 -0.0855269 -0.323809 0.421267 17.609 -2.14266 -4.52763 -1.30289 -2.35846 1.53451 -0.0699683 -0.286898 0.367462 
26.982 1 253 10.8548 4.72006 4.57866 -0.741376 4.27244 2.35337 -0.0476971 0.0673981 0.358179 0 0 0 0 0 0 -0.00991562 -0.0389597 -0.0613529 8.45436 1.13676 41.7578 -1.43808 5.44876 9.00237 -0.0568831 0.0621246 0.378429 15.6673 7.39728 -33.8107 -0.0457925 3.15462 -4.25381 -0.0385109 0.0725708 0.337923 
26.982 1 16 11.0036 2.86991 2.58326 6.47239 -3.75637 1.49183 -0.139802 -0.139952 0.129628 0 0 0 0 0 0 -0.00980345 -0.160547 -0.166672 9.75647 24.9736 -6.34933 4.68599 -0.211515 1.85009 -0.150113 -0.14597 0.132003 14.7088 -20.491 10.0618 8.27319 -7.27012 1.16336 -0.129467 -0.133982 0.127283 
26.982 1 55 13.1325 4.65497 2.78377 -0.136869 1.90125 0.298474 0.240402 -0.328769 -0.505129 0 0 0 0 0 0 0.00239191 -0.0401221 -0.187316 12.7588 7.77481 14.4699 -0.592531 4.32745 3.89041 0.248113 -0.331037 -0.50805 15.387 0.552598 -10.2067 0.33928 -0.472423 -3.2512 0.232687 -0.326572 -0.502189 
26.982 1 214 13.2351 2.60648 4.62857 1.51271 -3.28669 -2.9658 -0.105248 0.181511 0.10235 0 0 0 0 0 0 -0.0473809 -0.138783 -0.126333 26.3548 6.13161 11.5476 2.60018 -1.81169 -2.29173 -0.113665 0.18876 0.10418 1.98933 -2.12681 -3.58614 0.445109 -4.7268 -3.61138 -0.0968909 0.174285 0.100518 
26.982 1 999 41.1905 16.4615 18.1275 -1.23313 2.08601 -4.48198 -0.0736123 -0.302964 0.279861 0 0 0 0 0 0 0.0218663 0.000139316 0.00488954 27.7567 20.8051 29.8423 -1.50973 2.06542 -3.54828 -0.0630615 -0.308827 0.291851 49.2743 12.0111 6.40662 -0.961146 2.15088 -5.39051 -0.0842213 -0.297104 0.267979 
26.982 1 2829 29.6127 20.2838 16.4573 2.78094 4.39708 1.63102 -0.525996 -0.441399 -0.0907115 0 0 0 0 0 0 -0.0936733 0.0957966 -0.116307 35.8629 37.6437 5.87561 4.49145 6.82766 0.611221 -0.541785 -0.433242 -0.0955801 20.9282 3.2145 26.9128 1.06355 2.01437 2.67223 -0.510194 -0.449565 -0.0858471 
26.982 1 20 15.5855 2.77274 2.52715 -0.117207 1.79904 -0.604005 -0.0286322 -0.358599 -0.424019 0 0 0 0 0 0 -0.00311994 -0.103506 -0.232355 29.4482 -13.7795 6.49122 1.49751 1.31429 -0.208298 -0.0310595 -0.375996 -0.428948 2.90179 18.1437 -2.77999 -1.72795 2.31879 -0.949329 -0.0262945 -0.341158 -0.419054 
26.982 1 257 15.4735 4.51982 4.50591 2.72745 3.06424 1.40759 -0.0318254 0.0519598 0.0755083 0 0 0 0 0 0 -0.00600945 -0.0127604 -0.0868561 23.0008 -16.5123 13.3086 2.9687 2.56803 4.45617 -0.0361267 0.0600245 0.0800714 9.16556 24.5083 -5.53491 2.49678 3.60542 -1.60771 -0.0275504 0.0439076 0.0709857 
26.982 1 218 17.9984 2.55311 4.49188 -1.01352 -0.996261 -2.0023 -0.180668 -0.0813464 0.267278 0 0 0 0 0 0 -0.0046764 -0.0833604 -0.100547 7.90192 -4.25072 1.42731 -2.62225 -0.000990065 -2.20713 -0.185879 -0.099894 0.279146 28.6288 8.1995 6.3412 0.590652 -1.95307 -1.75903 -0.175458 -0.0626935 0.25545 
26.982 1 59 17.8435 4.54176 2.7423 0.759409 -1.67962 -6.46716 -0.0744598 0.40292 -0.286746 0 0 0 0 0 0 -0.00761911 -0.0247723 -0.262279 29.8989 -9.88294 12.3011 1.92292 -3.19605 -4.68226 -0.0835091 0.408192 -0.298584 6.29871 17.911 -8.1148 -0.41189 -0.13586 -8.1996 -0.0654094 0.397684 -0.274929 
26.982 1 19 18.0556 0.703493 2.48764 -2.08142 -4.4044 0.403761 -0.251812 -0.11367 0.291088 0 0 0 0 0 0 -0.00588875 -0.168476 -0.194102 36.1488 -3.14565 10.3889 -0.934395 -3.19372 2.12858 -0.259643 -0.118526 0.304676 0.470516 3.13064 -6.76891 -3.24005 -5.58023 -1.26757 -0.244 -0.108696 0.277544 
26.982 1 24 20.3489 3.00419 2.85788 0.352084 0.420894 1.54579 -0.434984 -0.596961 -0.406803 0 0 0 0 0 0 -0.0140115 -0.0848972 -0.253227 11.2646 13.4758 13.5405 -1.03948 2.66296 3.66034 -0.452081 -0.622922 -0.415514 29.371 -8.5816 -9.18618 1.73413 -1.7633 -0.51396 -0.417839 -0.571012 -0.398175 
26.982 1 261 20.0179 4.70406 4.87219 -1.46289 -3.58679 0.792426 0.476926 0.0345669 -0.406191 0 0 0 0 0 0 0.0106575 -0.00784614 -0.0703909 19.9845 7.23655 2.94988 -1.0351 -1.25079 0.766231 0.493895 0.0407916 -0.420236 19.9912 1.12722 5.58714 -1.89972 -5.88433 0.854732 0.459962 0.0283079 -0.392226 
26.982 1 7 3.82497 0.884532 2.79662 -1.14762 0.0605297 1.88669 0.0630158 -0.217161 0.120035 0 0 0 0 0 0 0.0387834 -0.213947 -0.164777 2.65969 36.6908 -1.84823 -0.213486 -0.4555 3.84779 0.0588134 -0.232076 0.12931 9.13938 44.9683 6.12399 -2.0939 0.613214 -0.0216519 0.0671818 -0.202232 0.11074 
26.982 1 63 22.6273 4.37853 2.73086 -0.52222 4.52928 1.54631 0.11407 1.3004 0.354369 0 0 0 0 0 0 0.0036113 -0.0325168 -0.220458 28.7813 22.1658 9.0929 -0.219049 7.80016 3.68044 0.110319 1.33908 0.375623 15.8986 -14.4686 -4.9439 -0.827328 1.29468 -0.54826 0.117816 1.26169 0.333068 
26.982 1 222 22.4559 2.67568 4.70175 -1.36014 2.55853 -1.99632 0.426251 0.41647 0.791871 0 0 0 0 0 0 0.0171961 -0.0646749 -0.0803867 18.8179 15.9291 6.95644 -1.28976 4.84184 -1.09637 0.436306 0.426308 0.813786 25.4823 -11.7728 1.23649 -1.44413 0.313203 -2.86414 0.416235 0.406647 0.769938 
26.982 1 28 24.8713 2.73202 2.63737 1.1027 0.701633 -0.157638 0.459468 -0.229193 0.0502612 0 0 0 0 0 0 0.0205896 -0.115333 -0.222117 27.9465 9.82814 15.421 2.04715 1.06982 1.8616 0.477726 -0.229906 0.0652201 20.6926 -5.50785 -11.6462 0.158149 0.385735 -2.17104 0.441164 -0.228491 0.0352478 
26.982 1 265 25.067 4.70507 4.50085 -0.490324 0.231438 2.45501 -0.199547 0.0840584 0.39221 0 0 0 0 0 0 0.00541323 -0.0252449 -0.0799556 27.7994 -17.0018 2.63112 0.0142994 -1.16964 3.89881 -0.199994 0.0879289 0.405109 21.2006 25.3384 5.10003 -0.993143 1.67894 1.03563 -0.199109 0.0802032 0.379344 
26.982 1 225 24.9521 0.809986 4.80889 2.76216 1.08277 4.55519 0.0508428 0.633148 0.157526 0 0 0 0 0 0 0.0587072 -0.166766 -0.169571 32.3774 17.5894 13.9689 4.32468 2.79689 7.51325 0.0703172 0.64765 0.16093 16.3063 -17.421 -5.55788 1.18444 -0.604608 1.63631 0.0313214 0.6187 0.15405 
26.982 1 2801 43.3439 20.3375 16.3518 0.845386 2.03908 -5.91264 0.153468 -0.18242 -0.297698 0 0 0 0 0 0 -0.0635008 0.0443455 -0.169944 39.5027 15.0367 33.2091 -0.0462957 1.41964 -3.96998 0.160258 -0.20615 -0.318593 41.2805 25.7208 -0.623113 1.73992 2.68387 -7.81382 0.146679 -0.158673 -0.276753 
26.982 1 31 31.7278 0.526669 2.62679 2.00045 -1.60303 -3.41119 0.610943 0.595742 0.277535 0 0 0 0 0 0 -0.032527 -0.165876 -0.158989 29.2516 18.2835 3.12839 1.83793 -3.12661 -5.11904 0.624167 0.620394 0.283259 31.1755 62.8202 0.75765 2.16252 -0.0332118 -1.67131 0.597709 0.571057 0.271776 
26.982 1 67 27.3293 4.64252 2.79894 -7.44647 1.11963 2.0989 0.00850664 0.595346 -0.573213 0 0 0 0 0 0 0.00896023 -0.0175407 -0.215182 26.9058 -4.65897 8.75847 -8.07912 0.397952 1.34991 0.0177648 0.606547 -0.578386 26.0443 12.8322 -4.56052 -6.80877 1.88386 2.87433 -0.000758396 0.58419 -0.5681 
26.982 1 226 27.2947 2.70074 4.48571 -7.72979 2.07347 0.90988 0.0971211 -0.707885 0.647864 0 0 0 0 0 0 0.038634 -0.160127 -0.107366 27.6806 -7.98021 14.4838 -7.6959 1.2223 3.65401 0.111492 -0.73465 0.66405 25.2242 12.3298 -6.83273 -7.75359 2.98798 -1.81591 0.0827272 -0.681147 0.631678 
26.982 1 32 29.7299 2.61821 2.77673 1.95034 1.49852 -1.15604 -0.625058 -0.478749 0.169911 0 0 0 0 0 0 -0.0217222 -0.142188 -0.173788 13.8866 9.22005 22.1188 0.470376 4.0525 1.38302 -0.634779 -0.482244 0.186359 43.2439 -5.1087 -17.9835 3.44475 -0.997436 -3.66382 -0.61536 -0.475268 0.153393 
26.982 1 269 29.616 4.76736 4.74731 2.49913 -3.27683 2.89994 0.11271 -0.541881 -0.141718 0 0 0 0 0 0 0.00918456 -0.0551501 -0.0637146 26.934 14.4535 23.7487 2.18972 -2.30356 5.69427 0.122001 -0.563355 -0.138091 30.0232 -6.01399 -15.4149 2.82765 -4.20836 0.148893 0.103393 -0.520422 -0.145355 
26.982 1 2807 3.7079 20.2227 18.5917 -0.873871 3.89898 2.21131 -0.241779 -0.0270407 0.0872318 0 0 0 0 0 0 -0.0600439 0.133599 -0.114417 2.95946 50.8516 17.0171 -0.567221 8.67303 0.495229 -0.234561 -0.0240605 0.0697043 8.57978 -10.2007 20.2101 -1.1842 -0.842008 3.95738 -0.249 -0.030033 0.104804 
26.982 1 158 41.2727 14.3965 0.902024 -2.47707 0.473814 0.873143 0.111014 -0.0703479 -0.228675 0 0 0 0 0 0 -0.0211551 0.0492168 -0.263041 45.2897 4.34788 17.2709 -2.38042 -0.516408 4.29635 0.11438 -0.0704724 -0.243445 31.9381 24.2312 -17.067 -2.56526 1.5068 -2.51499 0.107743 -0.0702191 -0.213897 
26.982 1 635 36.6886 0.815045 14.3624 -1.05244 -1.77959 4.97238 -0.534991 0.0587197 0.200177 0 0 0 0 0 0 0.000370763 -0.25614 0.0302513 33.5745 31.644 34.7672 -1.0175 -2.22364 8.0371 -0.537599 0.0586565 0.199182 35.599 49.8771 -6.45667 -1.0976 -1.29991 1.92376 -0.532399 0.0587024 0.201228 
26.982 1 233 34.1648 0.769767 4.73834 1.05983 -2.91119 4.78309 -0.0932821 -0.087487 -0.0256154 0 0 0 0 0 0 -0.0110789 -0.169757 -0.164412 34.8367 38.5257 -11.8539 2.8602 -1.84834 1.72697 -0.0977045 -0.0830464 -0.041312 29.9216 43.0358 20.2889 -0.74735 -3.92537 7.89197 -0.0888984 -0.092033 -0.00993313 
26.982 1 998 41.2469 18.5104 16.3057 -6.31691 0.626578 2.11125 -0.387313 0.011414 -0.0839564 0 0 0 0 0 0 -0.0172389 0.0742248 -0.0756448 30.2778 45.4799 28.0522 -6.43703 4.34243 3.29052 -0.387332 0.00272921 -0.0810947 46.9458 -8.56915 4.39214 -6.19018 -3.06863 0.968545 -0.387336 0.0200868 -0.0867055 
26.982 1 71 31.6891 4.37221 2.47186 -0.325348 0.424205 2.06801 0.702114 0.449186 0.497494 0 0 0 0 0 0 0.0145039 -0.0811704 -0.210529 29.8675 16.3802 0.376446 -0.0992585 2.71283 2.58231 0.717097 0.454639 0.520866 30.498 -8.72321 3.28961 -0.550666 -1.825 1.60769 0.687088 0.443746 0.474092 
26.982 1 230 31.859 2.64957 4.74092 -3.51689 -0.931989 -0.655808 0.2216 0.341337 -0.126862 0 0 0 0 0 0 -0.0265787 -0.0837076 -0.092957 16.1457 -5.336 -3.00764 -5.46853 -2.3374 -3.34056 0.230676 0.366236 -0.130572 44.616 9.56713 11.3705 -1.55361 0.531735 2.07206 0.212543 0.316449 -0.123141 
26.982 1 273 34.4332 4.78869 4.59595 -4.93868 1.04989 -1.10914 -0.113237 -0.372598 0.567842 0 0 0 0 0 0 -0.00197291 -0.0253092 -0.0803212 43.1145 21.3439 -6.52723 -3.6305 1.17452 -4.05535 -0.117447 -0.375068 0.572733 22.0833 -12.8864 14.5169 -6.26002 0.955583 1.87872 -0.109043 -0.370155 0.563036 
26.982 1 36 34.2402 2.57044 2.80913 -0.906501 -0.155846 -5.53294 -0.318226 -0.000789048 0.0417412 0 0 0 0 0 0 -0.0110242 -0.0890362 -0.242327 36.8444 -1.88056 -10.2402 0.947225 -1.36512 -8.53737 -0.330287 0.00281964 0.050969 27.9826 5.86006 14.6009 -2.77569 1.09999 -2.48077 -0.306213 -0.00444742 0.0324883 
26.982 1 39 41.2767 0.643753 2.86681 1.18174 -0.360373 2.35485 0.234589 0.515618 -0.504914 0 0 0 0 0 0 0.0057095 -0.229649 -0.181268 38.5466 35.4964 14.6149 0.992123 -0.139337 3.67617 0.249623 0.535492 -0.52425 38.6274 45.6797 -10.0749 1.38349 -0.543624 1.09406 0.219572 0.495737 -0.48561 
26.982 1 2225 24.9025 20.0589 4.73217 -1.81802 -2.92761 -3.34875 0.0212631 0.402767 0.325891 0 0 0 0 0 0 -0.053199 0.0937837 -0.0959651 24.217 34.2253 -18.22 -3.24906 -1.78057 -7.11979 0.0332601 0.413726 0.350307 24.292 6.11314 26.4531 -0.378507 -4.04519 0.448672 0.00934866 0.391867 0.30132 
26.982 1 75 36.3221 4.45361 2.60591 4.50437 -0.652198 3.18457 0.696978 0.225744 0.466514 0 0 0 0 0 0 -0.0203831 -0.0187274 -0.221353 39.1887 20.335 5.17763 5.14446 2.25966 3.40197 0.717372 0.252356 0.484015 29.1461 -12.6251 -1.20752 3.84231 -3.54162 3.0339 0.676676 0.199163 0.449042 
26.982 1 234 36.6915 2.71865 4.87726 3.04966 1.88909 -3.00443 -0.094263 0.600019 0.0660855 0 0 0 0 0 0 -0.00796069 -0.0457187 -0.0861735 49.5477 0.204415 -1.05149 5.00126 1.55312 -4.51746 -0.097824 0.620028 0.0593923 19.5569 4.02405 9.71685 1.07993 2.27021 -1.43877 -0.0906354 0.579989 0.0727487 
26.982 1 40 38.8735 2.89666 2.88969 10.3558 -0.396941 2.02649 -0.158186 0.418563 0.0574325 0 0 0 0 0 0 -0.0600506 -0.101131 -0.18335 46.756 20.9832 -7.61856 10.8174 0.829758 0.795463 -0.174502 0.43687 0.0426867 26.1173 -16.4492 12.1433 9.88693 -1.58922 3.3149 -0.141734 0.400165 0.0721214 
26.982 1 277 38.9837 4.70365 4.9703 -3.4706 4.738 -2.88863 -0.130166 -0.182822 -0.198065 0 0 0 0 0 0 -0.0260296 -0.0145418 -0.0422731 36.9984 28.7365 -4.53408 -4.20485 7.18013 -3.1543 -0.148623 -0.181888 -0.216843 36.0919 -20.4338 13.4155 -2.74293 2.33576 -2.55619 -0.111632 -0.183778 -0.179361 
26.982 1 35 36.8775 0.79855 3.06272 3.53612 -6.0056 3.87773 -0.599879 0.303765 -0.497443 0 0 0 0 0 0 -0.0285284 -0.189717 -0.208037 27.7579 5.29039 6.16357 3.29764 -6.11765 3.71618 -0.623525 0.31712 -0.507592 41.7843 -4.96211 -1.30662 3.76151 -5.84196 4.08398 -0.576144 0.290312 -0.487363 
26.982 1 2229 29.5718 20.1843 4.70157 -0.946568 2.01349 -6.45199 0.16919 0.0756308 -0.121301 0 0 0 0 0 0 -0.0524978 0.0722071 -0.121364 21.3298 17.733 4.94291 -0.421547 2.89742 -7.00245 0.170253 0.0851465 -0.119228 35.3175 22.8925 3.27479 -1.49201 1.15582 -5.85972 0.16815 0.0661667 -0.12345 
26.982 1 4 43.4658 2.69739 2.8398 -1.88381 -0.0540982 2.18248 0.0360044 0.359308 0.211212 0 0 0 0 0 0 0.0452591 -0.111701 -0.173848 23.8486 -1.09253 6.0917 -3.29098 -0.32807 3.09964 0.0505217 0.382528 0.207862 57.1295 5.22206 -1.70988 -0.472579 0.250951 1.31325 0.0213941 0.336064 0.214536 
26.982 1 79 41.3601 4.71373 2.94628 -2.49873 -1.13194 -3.79944 -0.219275 0.244831 -0.0778263 0 0 0 0 0 0 0.000539763 -0.0235858 -0.101764 31.5988 28.9217 -17.8992 -3.87122 1.56423 -7.27503 -0.213834 0.248865 -0.0752747 45.7073 -20.6244 22.5648 -1.12274 -3.79705 -0.273311 -0.224645 0.240783 -0.0804224 
26.982 1 238 41.1281 2.65185 4.63352 3.74313 -4.11453 -0.378406 0.361453 0.401009 0.562079 0 0 0 0 0 0 -0.000187243 -0.0624304 -0.0469163 47.9473 -4.97359 -6.4391 3.84249 -5.84183 -1.95432 0.362104 0.426411 0.582019 28.8607 9.06161 14.6033 3.63913 -2.34832 1.24648 0.360841 0.375567 0.542103 
26.982 1 995 36.6919 16.3803 18.2416 -0.557251 -0.717308 2.93712 -0.449348 -0.149911 0.0514607 0 0 0 0 0 0 -0.0112304 -0.00690239 0.0216493 35.034 20.6782 27.7554 -1.46045 -0.773374 2.06029 -0.455475 -0.156784 0.0596073 34.2113 11.8939 8.74834 0.359233 -0.634749 3.85572 -0.443207 -0.143084 0.0433533 
26.982 1 83 -1.00801 8.77188 2.69016 -3.94474 4.4667 -2.87577 0.133237 -0.285794 0.200165 0 0 0 0 0 0 -0.0583618 0.0148779 -0.177757 -5.02762 28.0473 11.5624 -4.22968 5.42577 -3.02445 0.140303 -0.299759 0.20648 8.43881 -11.3309 -7.52911 -3.6583 3.5444 -2.66672 0.126085 -0.271838 0.193902 
26.982 1 242 -0.834456 6.79366 4.56564 3.09459 -4.10045 -1.77242 0.142328 -0.288326 0.0753525 0 0 0 0 0 0 -0.0756756 0.00728052 -0.057851 -9.63774 21.4364 14.7752 1.87919 -2.11003 -0.90988 0.153972 -0.307087 0.0803509 13.3813 -8.80546 -6.71639 4.30571 -6.05072 -2.56862 0.130679 -0.269572 0.0704378 
26.982 1 44 -3.11814 6.74554 2.84365 -2.39875 -3.67848 -3.7847 -0.0566601 -0.424123 -0.565388 0 0 0 0 0 0 -0.183493 0.0101842 -0.103241 36.104 37.533 1.44783 -1.44303 0.818102 -4.4594 -0.0358245 -0.446875 -0.573812 45.0166 -25.0052 2.89221 -3.35079 -8.13715 -3.0613 -0.0775919 -0.401372 -0.556996 
26.982 1 281 43.3981 8.50912 4.78233 -0.0470912 -3.00991 -3.85655 0.465617 0.640494 0.0809351 0 0 0 0 0 0 0.0363382 -0.0225065 -0.0406809 43.8031 37.3651 4.09135 0.182283 -1.40353 -4.08011 0.482736 0.663374 0.092697 36.9622 -21.1851 4.32163 -0.287555 -4.60035 -3.57634 0.448463 0.617637 0.069118 
26.982 1 48 1.49225 6.62951 2.70234 -4.26618 -4.56171 -1.46205 -0.0880113 -0.17573 0.0831813 0 0 0 0 0 0 -0.0170096 0.0380319 -0.163253 -22.4155 33.0556 -17.3615 -7.65031 0.804879 -4.83247 -0.0930994 -0.178813 0.0766952 30.3181 -20.798 21.3285 -0.862844 -9.89411 1.93451 -0.0828707 -0.172636 0.0897353 
26.982 1 285 1.52834 8.67226 4.60809 0.454849 -5.25464 -0.645418 -0.242308 -0.653831 0.323913 0 0 0 0 0 0 -0.0253741 -0.0129996 -0.0716788 -20.5144 29.0742 3.76764 -2.2885 -2.0397 -0.855181 -0.249622 -0.675834 0.322387 28.5011 -12.6444 4.18951 3.21266 -8.45224 -0.396723 -0.234907 -0.631804 0.325553 
26.982 1 87 3.68249 8.63946 2.70089 0.315197 -0.527892 -0.259794 0.32383 -0.105333 0.108515 0 0 0 0 0 0 -0.0128895 -0.00878828 -0.189867 -6.91881 15.2556 10.5399 -1.55352 0.098314 0.586134 0.327238 -0.123165 0.0990535 18.5954 1.25655 -6.53211 2.20159 -1.1077 -1.06663 0.320478 -0.0875008 0.11809 
26.982 1 246 3.65291 6.43088 4.5862 -2.82116 -1.55005 1.9544 0.085283 0.424488 0.211298 0 0 0 0 0 0 0.00418964 0.00721156 -0.0332835 10.6174 10.6073 16.5725 -2.35975 -1.75677 3.16783 0.0848653 0.426284 0.226992 0.981705 1.31305 -8.69452 -3.26792 -1.30452 0.774417 0.0857299 0.422775 0.195701 
26.982 1 88 1.28988 10.6167 2.90247 1.43815 -0.878298 0.165414 0.168916 0.276002 -0.739907 0 0 0 0 0 0 -0.0608471 -0.0110695 -0.229379 -18.722 21.1321 12.1158 -1.81071 0.432552 1.58197 0.158882 0.273798 -0.760412 26.2634 -0.569832 -7.74089 4.71058 -2.14915 -1.20033 0.178988 0.278229 -0.719334 
26.982 1 2431 31.9059 20.1574 10.6859 1.67809 2.39318 -4.01335 0.0277718 0.229883 0.0125251 0 0 0 0 0 0 -0.04785 0.164933 -0.1211 29.9909 1.58721 18.921 3.2578 1.05311 -4.40932 0.0354399 0.249488 0.00209582 30.7969 39.0384 1.65735 0.0866489 3.77444 -3.60648 0.0201006 0.210222 0.0229639 
26.982 1 289 5.93808 8.49689 4.80901 -2.55606 -0.0833671 1.45537 -0.0394323 0.242013 -0.13388 0 0 0 0 0 0 0.000982459 0.00424701 -0.0520389 19.2779 12.1385 32.6301 -0.560934 1.31916 5.50636 -0.0425356 0.249016 -0.132563 -3.82144 4.03344 -24.3067 -4.55301 -1.45344 -2.56631 -0.0364059 0.235082 -0.135134 
26.982 1 52 6.0268 6.76691 2.9047 -0.194322 -4.65185 -3.35546 -0.118937 -0.36901 -0.54 0 0 0 0 0 0 0.0254932 0.0177011 -0.190043 12.919 4.97659 14.0533 1.04641 -5.20381 -1.95806 -0.123423 -0.377473 -0.560351 2.65003 7.6653 -9.50555 -1.44492 -4.052 -4.69714 -0.114449 -0.360535 -0.519628 
26.982 1 91 8.25236 8.37509 2.71293 -2.6635 -0.341993 1.18015 0.433435 0.451322 0.505517 0 0 0 0 0 0 0.0147536 -0.0231468 -0.211389 14.2945 4.05277 10.657 -1.49314 -0.849226 2.57769 0.440737 0.465786 0.513444 5.08865 11.9025 -6.52284 -3.85074 0.209326 -0.184379 0.426063 0.436861 0.497646 
26.982 1 250 8.31676 6.61644 4.78921 -1.62574 -3.20676 -0.721526 0.132786 0.213897 0.483829 0 0 0 0 0 0 0.0156131 -0.008316 -0.0444439 11.15 14.9237 36.0524 -0.562569 -2.80088 1.88566 0.142171 0.205166 0.499381 8.36806 -2.43797 -27.9376 -2.7061 -3.54964 -3.32393 0.123353 0.222623 0.468252 
26.982 1 92 5.97703 10.4752 2.89458 0.533396 1.14317 4.399 0.00226986 -0.152883 0.182484 0 0 0 0 0 0 -0.00257926 -0.0486951 -0.152455 4.81102 9.4469 15.88 0.544478 1.08899 4.87039 0.00135643 -0.15803 0.164494 10.7085 10.8973 -11.3675 0.520166 1.23872 3.977 0.00312476 -0.147769 0.200506 
26.982 1 290 8.29183 10.501 4.84707 -3.6252 5.76732 -3.17831 -0.125725 0.0291794 -0.0544745 0 0 0 0 0 0 0.00383233 -9.0624e-05 -0.0399772 13.756 29.2981 51.3572 -2.65596 7.30294 1.74152 -0.121921 0.0411892 -0.0657575 5.72755 -9.02935 -42.9055 -4.60557 4.25438 -8.08165 -0.129701 0.0171531 -0.0432513 
26.982 1 293 10.451 8.62633 4.87428 0.843835 3.22324 -0.222295 0.331531 -0.0816902 0.388666 0 0 0 0 0 0 0.0144381 -0.00330952 -0.0473063 11.5957 29.5405 43.7645 1.6916 5.45297 4.67735 0.348673 -0.0783853 0.388254 11.6674 -13.2121 -35.2996 -0.0133823 1.01616 -5.11066 0.314323 -0.0850421 0.388979 
26.982 1 56 10.7466 6.83893 2.9213 -3.92384 -2.76361 -6.42285 -0.168394 -0.193403 -0.607619 0 0 0 0 0 0 -0.0115155 -0.00518617 -0.217683 17.2386 13.5002 17.5729 -4.06366 -3.33828 -3.93485 -0.167507 -0.207372 -0.619694 6.68196 -0.70315 -13.0177 -3.78365 -2.1435 -8.86197 -0.169317 -0.179564 -0.595589 
26.982 1 95 12.9115 8.85781 2.82475 -0.729492 -0.473579 -2.12094 0.0869797 -0.479334 -0.406745 0 0 0 0 0 0 0.0176691 0.00409896 -0.21416 9.26497 19.0609 -8.98571 -1.09041 -0.914861 -3.29747 0.0945769 -0.49211 -0.411364 18.3609 -2.25348 13.3671 -0.365573 -0.0209327 -0.904013 0.0794031 -0.46666 -0.402214 
26.982 1 254 13.1463 6.64165 4.37757 -4.81045 -1.33298 1.58139 0.337714 0.589788 0.501106 0 0 0 0 0 0 0.00700074 0.00994453 -0.0720143 7.28088 0.999368 42.6407 -5.62356 -1.0996 8.66458 0.344744 0.59738 0.51116 20.8803 11.4153 -35.2066 -3.98629 -1.52218 -5.48217 0.330721 0.582054 0.491052 
26.982 1 2031 31.8513 20.3165 2.65155 -1.89973 5.46937 -2.79396 -0.038385 -0.382915 -0.319406 0 0 0 0 0 0 -0.0377577 0.065412 -0.236296 13.9926 39.075 22.5703 -3.18961 9.04797 -0.446513 -0.0289931 -0.402768 -0.339127 46.7068 1.93297 -18.6518 -0.626908 1.94046 -5.11409 -0.0477617 -0.363041 -0.299652 
26.982 1 60 15.7341 6.65231 2.69747 -2.14822 -2.83956 -2.47505 -0.167569 0.0466009 0.25186 0 0 0 0 0 0 0.0116097 0.000863994 -0.233726 30.1402 6.71173 -3.28689 -0.536643 -2.8244 -1.08082 -0.176651 0.0458195 0.256255 2.50671 5.58803 7.35458 -3.75314 -2.82753 -3.82551 -0.158507 0.047271 0.247461 
26.982 1 297 15.5888 8.44378 4.74961 0.119969 -7.73093 1.88095 -0.159272 0.00625262 0.0364818 0 0 0 0 0 0 -0.0139398 0.00161545 -0.075773 26.0692 37.8081 1.2966 1.27771 -2.94632 2.40974 -0.171599 0.0080072 0.0191527 6.33752 -21.7647 6.96775 -1.02986 -12.4933 1.37688 -0.146924 0.00443536 0.0537751 
26.982 1 99 17.9666 8.53478 3.06136 -0.399427 1.61261 1.22029 -0.0148149 -0.634321 -0.77233 0 0 0 0 0 0 -0.030932 -0.0357038 -0.171714 25.4815 18.6809 8.15479 0.871008 3.61232 5.10381 -0.00887916 -0.637696 -0.795352 11.0415 -2.48985 -3.33423 -1.6674 -0.354887 -2.61234 -0.0207846 -0.631015 -0.749355 
26.982 1 258 17.9207 6.38551 4.78505 7.76554 1.43169 0.377788 -0.365122 0.678168 -0.16158 0 0 0 0 0 0 -0.00628472 0.0274948 -0.0708307 16.3163 7.94541 5.21468 7.97139 1.66238 0.491736 -0.366082 0.714292 -0.1739 20.0485 3.867 3.12329 7.55468 1.22221 0.292003 -0.36421 0.642056 -0.149279 
26.982 1 425 24.8385 0.91311 8.68065 -1.85335 -0.936326 0.718436 0.119862 -0.208957 -0.137569 0 0 0 0 0 0 -0.0139146 -0.177604 -0.0919161 34.4076 20.4849 15.7417 0.267092 1.31955 1.27812 0.136355 -0.220974 -0.142124 14.0679 -19.9683 0.803007 -3.9801 -3.14659 0.198738 0.103339 -0.196939 -0.132982 
26.982 1 2831 31.7275 20.2236 18.3308 0.793842 0.604473 -2.55 0.399489 -0.366984 0.074646 0 0 0 0 0 0 -0.0691432 0.133297 -0.0266107 28.6027 29.8329 19.0975 0.470913 1.19077 -2.57054 0.417724 -0.380382 0.0677984 31.7965 10.839 17.6467 1.11677 0.0548028 -2.49237 0.381172 -0.353567 0.0815114 
26.982 1 64 20.025 6.36374 2.66785 -1.60542 -0.588824 0.384083 0.222676 0.120636 0.502552 0 0 0 0 0 0 -0.0151923 -0.0306264 -0.193514 21.618 2.46281 -0.25119 -1.88103 -0.391586 1.56306 0.23953 0.150451 0.517321 18.3774 9.36242 4.25207 -1.33826 -0.747277 -0.749291 0.205823 0.0907653 0.487752 
26.982 1 301 20.4821 8.36455 4.57958 -2.01923 -0.606529 1.43769 -0.117797 0.138936 -0.216976 0 0 0 0 0 0 0.00215381 0.00158238 -0.0470551 14.7347 -4.10029 1.03051 -2.42416 -1.13902 2.43734 -0.116434 0.149765 -0.228066 26.178 19.9904 6.954 -1.61214 -0.0485438 0.4788 -0.119209 0.128089 -0.205871 
26.982 1 433 34.1585 0.896413 8.59959 2.51341 -1.69567 -1.57955 -0.00329064 -0.0645393 -0.0550333 0 0 0 0 0 0 0.00689033 -0.18181 -0.15786 21.8448 26.7169 13.6393 1.99129 1.9792 0.522287 0.00215274 -0.069616 -0.0568412 42.9078 -26.2801 2.72408 3.03819 -5.31751 -3.64146 -0.00879475 -0.0595598 -0.0532004 
26.982 1 103 22.723 8.82393 2.94615 4.68034 4.3732 0.354022 -0.216599 -0.401064 -0.44695 0 0 0 0 0 0 0.0298468 -0.0356685 -0.149683 16.5818 22.5163 -1.68391 4.21034 6.24311 -1.33057 -0.233073 -0.420297 -0.462315 28.2177 -5.59093 6.26839 5.15166 2.55464 2.07799 -0.20006 -0.381897 -0.43171 
26.982 1 262 22.8213 6.59657 4.48633 -5.42622 6.20469 -5.1271 -0.402772 -0.156002 0.0693724 0 0 0 0 0 0 -0.00680069 -0.000822587 -0.0698276 19.5945 3.06831 2.23485 -5.78945 6.17136 -5.73284 -0.416318 -0.146865 0.0671728 25.434 9.17068 5.55378 -5.06154 6.28179 -4.48457 -0.389177 -0.165168 0.0716236 
26.982 1 305 24.9857 8.42984 4.79197 0.0232412 -1.48748 3.63295 0.156772 0.474236 -0.157786 0 0 0 0 0 0 0.012791 0.0169703 -0.0593665 26.5377 47.9787 -16.0086 -0.0742147 2.57346 2.40636 0.161158 0.496405 -0.1549 22.2651 -31.8782 24.394 0.126391 -5.51687 4.89734 0.152501 0.452102 -0.160621 
26.982 1 68 25.0564 6.52127 2.58093 -4.54241 -2.80306 0.145878 -0.241405 0.282373 0.212318 0 0 0 0 0 0 0.0211048 0.0025579 -0.246183 29.0352 17.8237 3.21293 -4.10322 -2.17391 -0.102178 -0.248972 0.293866 0.218245 19.8988 -5.76621 0.580328 -4.98171 -3.38745 0.433957 -0.233804 0.270894 0.206351 
26.982 1 107 27.1579 8.53819 2.7258 -6.30918 -1.41861 4.60234 0.332924 0.0457974 0.0653892 0 0 0 0 0 0 -0.0292142 -0.0133979 -0.211436 23.3407 35.7263 5.45496 -6.29528 0.467152 4.909 0.34376 0.0462589 0.0817903 29.1921 -19.6077 -1.29638 -6.32147 -3.29029 4.35199 0.322138 0.045409 0.0490041 
26.982 1 266 27.218 6.71892 4.8268 2.04828 -7.17123 3.27194 -0.0568501 -0.027233 -0.249296 0 0 0 0 0 0 -0.011886 -0.00656034 -0.0760808 33.2207 15.4008 0.698422 2.41955 -8.09657 4.16974 -0.0649811 -0.0362704 -0.265126 19.5105 -2.91405 7.78445 1.6867 -6.20009 2.41904 -0.0487736 -0.0181806 -0.233497 
26.982 1 72 29.6092 6.54351 2.64016 0.701662 0.0986359 -0.236693 -0.274698 0.262723 0.103274 0 0 0 0 0 0 -0.0503822 -0.0421328 -0.19067 24.7917 22.8948 16.8403 -0.407538 1.97488 0.500208 -0.283524 0.268527 0.112119 32.0644 -10.8082 -12.8011 1.81396 -1.73804 -0.918563 -0.26593 0.256987 0.0944054 
26.982 1 309 29.6093 8.61814 4.58889 4.22344 -3.6793 -1.17325 -0.223683 0.0436888 -0.0304179 0 0 0 0 0 0 -0.0195996 -0.0149831 -0.0406654 29.1878 14.4413 -11.5097 4.04358 -4.2985 -1.26534 -0.227422 0.0340476 -0.0213851 27.6968 1.90538 19.5597 4.40892 -3.03877 -1.03307 -0.220019 0.0533849 -0.0394551 
26.982 1 111 31.8198 8.6264 2.92663 -3.48698 -2.94704 -3.02408 0.245079 -0.196061 0.0546288 0 0 0 0 0 0 0.00647308 -0.0217387 -0.110495 33.698 9.34859 -15.3909 -2.8587 -2.41472 -5.40947 0.259086 -0.204064 0.0544177 26.9875 7.11916 19.8958 -4.11938 -3.44301 -0.603183 0.23097 -0.188017 0.0547742 
26.982 1 270 31.9748 6.41966 4.51608 0.675174 -1.10151 -1.3248 -0.0331032 -0.239846 -0.325547 0 0 0 0 0 0 0.0110868 -0.0154826 -0.0426052 39.4772 39.9121 12.5234 1.20248 3.17687 0.546991 -0.0222754 -0.240504 -0.312185 21.4905 -27.9425 -4.59048 0.149972 -5.34222 -3.14008 -0.0439762 -0.239136 -0.33886 
26.982 1 76 34.0859 6.45729 2.64876 1.47106 -5.43028 -2.87762 0.285873 0.535849 -0.0748414 0 0 0 0 0 0 0.0359227 -0.0487498 -0.175131 43.6061 39.4695 -33.8181 3.22135 -0.484454 -6.06401 0.289269 0.554178 -0.0559993 20.9052 -27.4168 37.8015 -0.299137 -10.3394 0.364467 0.282389 0.517583 -0.0936858 