ITEM: TIMESTEP
5000
ITEM: NUMBER OF ATOMS
4000
ITEM: BOX BOUNDS pp pp pp
-1.09041 41.5904
0.271595 40.2284
0.270361 40.2296
ITEM: ATOMS mass type id x y z vx vy vz fx fy fz xrad yrad zrad vxrad vyrad vzrad fxrad fyrad fzrad xub yub zub vxub vyub vzub fxub fyub fzub xlb ylb zlb vxlb vylb vzlb fxlb fylb fzlb 
26.982 1 3 1.06487 0.457033 2.32531 3.14626 -1.9866 -3.79932 -0.138281 -0.921677 0.137552 0 0 0 0 0 0 -0.062084 -0.135112 -0.205256 1.17051 2.61789 4.06641 2.78403 -1.04523 -2.86127 -0.136684 -0.959523 0.144315 2.78406 -2.39514 -0.0140165 3.51759 -2.92428 -4.73029 -0.139857 -0.883732 0.130794 
26.982 1 8 2.95234 2.31466 2.4117 -2.37834 0.0168796 4.65615 0.603751 0.232984 -0.149441 0 0 0 0 0 0 -0.00469388 -0.0873572 -0.240057 0.526657 4.96788 3.38914 -3.23403 0.690777 4.64804 0.613847 0.234272 -0.146109 7.00628 -0.942247 0.835002 -1.51046 -0.647198 4.6712 0.593662 0.231762 -0.152832 
26.982 1 43 0.936369 4.40925 2.32818 0.190503 7.50462 -3.39192 0.572508 -0.135482 0.320295 0 0 0 0 0 0 -0.112419 -0.110392 -0.176287 -3.00435 2.13607 3.94235 -1.19657 6.66612 -3.09555 0.581519 -0.13865 0.328743 6.71517 6.15192 0.108207 1.58992 8.35427 -3.68404 0.563492 -0.132333 0.311813 
26.982 1 202 1.02961 2.21878 4.41976 -2.02513 -1.08493 4.23597 0.148928 0.197654 -0.0114871 0 0 0 0 0 0 -0.0999916 -0.0322598 -0.128653 1.62172 0.229366 5.93283 -2.07804 -2.06918 4.58711 0.157222 0.189072 -0.00466059 2.2743 3.60728 2.39172 -1.96035 -0.0898156 3.90097 0.140614 0.20629 -0.0183732 
26.982 1 205 3.29785 0.314258 4.42707 -3.07609 -1.43446 1.35533 -0.147354 -0.271037 -0.186134 0 0 0 0 0 0 0.014266 -0.16876 -0.183167 2.32832 40.0409 4.26698 -3.97239 -1.91507 1.28033 -0.14748 -0.28203 -0.193771 5.88839 41.2133 4.05623 -2.17181 -0.943526 1.43882 -0.14721 -0.259985 -0.178559 
26.982 1 201 -0.989627 0.220325 4.43715 3.12405 -0.819422 -6.82964 0.0589563 -0.16167 -0.187541 0 0 0 0 0 0 -0.110088 -0.0578684 -0.235993 42.2394 43.9348 4.75074 3.63115 -0.132299 -6.28861 0.0618569 -0.178624 -0.205053 39.1374 37.1221 3.59735 2.6187 -1.5035 -7.35465 0.0560727 -0.14465 -0.170025 
26.982 1 245 3.09074 4.30234 4.28756 -0.985982 0.0633755 -0.80743 0.0791298 0.258552 0.144906 0 0 0 0 0 0 -0.0240138 -0.019623 -0.0722169 2.96494 3.93779 4.72559 -1.15149 0.244403 -1.06511 0.0866725 0.26634 0.144224 4.84923 4.14778 3.32412 -0.807777 -0.104132 -0.540503 0.0715423 0.250736 0.145499 
26.982 1 47 5.27938 4.27331 2.27613 -0.344424 -0.132694 0.318345 -0.283627 0.35759 -0.068363 0 0 0 0 0 0 -0.0610961 -0.0234734 -0.197758 3.60688 4.90423 1.92427 -1.10005 0.461647 0.5305 -0.288971 0.379326 -0.0535766 8.35905 3.13401 2.03221 0.414644 -0.708262 0.116522 -0.27834 0.335791 -0.0832297 
26.982 1 206 5.27227 2.38284 4.19727 -1.92623 0.654832 -4.13981 -0.130425 -0.411943 0.203519 0 0 0 0 0 0 -0.0233743 -0.0978273 -0.10223 7.02635 2.08859 7.36548 -1.88324 -0.0283727 -3.08161 -0.13522 -0.420568 0.224348 4.92778 2.08181 0.5173 -1.96514 1.3507 -5.18106 -0.125638 -0.403344 0.182614 
26.982 1 49 7.32403 4.26978 0.297323 -1.52695 4.25507 -3.15092 -0.0165509 -0.129269 -0.130279 0 0 0 0 0 0 -0.0842504 -0.00846987 -0.270201 9.5124 1.84119 -0.921039 -1.22198 3.03839 -3.86542 -0.0130924 -0.11657 -0.133218 6.3242 6.1782 0.862341 -1.83824 5.48249 -2.42179 -0.0201013 -0.14204 -0.127345 
26.982 1 12 7.22016 2.20803 2.11179 -4.88779 -1.61568 2.69282 0.336855 0.109886 0.289521 0 0 0 0 0 0 -0.0821092 -0.105953 -0.131807 6.80221 2.12626 1.91174 -5.06351 -1.69415 2.40308 0.339787 0.122651 0.309757 8.82922 1.68691 1.72086 -4.71644 -1.5243 2.99383 0.333861 0.0970997 0.26924 
26.982 1 249 7.33787 4.32666 4.10819 6.10596 3.63288 4.20362 0.158262 0.311407 0.279586 0 0 0 0 0 0 -0.0028235 0.00695971 -0.0312769 9.06638 0.0054995 4.03054 6.32435 2.59142 5.10205 0.16768 0.338572 0.304463 6.7958 8.1372 3.65113 5.88344 4.69199 3.31367 0.148793 0.284183 0.254678 
26.982 1 51 9.47607 4.20381 2.04802 0.343468 -1.94199 -1.83043 0.0787414 0.431026 0.336252 0 0 0 0 0 0 0.0596616 -0.0207224 -0.134256 6.08268 4.12905 -0.541176 -1.02367 -1.93093 -2.98038 0.0857038 0.45334 0.354007 13.8575 3.76611 4.03926 1.70465 -1.93654 -0.66785 0.0717397 0.40868 0.31846 
26.982 1 210 9.40511 2.53447 4.24669 0.726938 -5.2503 2.69761 0.351674 -0.402164 -0.195139 0 0 0 0 0 0 0.0439341 -0.100266 -0.0576379 8.57392 4.29324 6.73225 0.288541 -5.12332 3.60516 0.34863 -0.409781 -0.197357 11.2266 0.164615 1.22107 1.16109 -5.36567 1.79241 0.354671 -0.394639 -0.192944 
26.982 1 11 9.4835 0.289978 2.11727 -3.42254 -5.61813 -3.0856 0.0660019 -0.195348 0.624483 0 0 0 0 0 0 0.0831912 -0.224816 -0.0845071 8.07475 40.8571 -1.92206 -4.02435 -5.95817 -4.60299 0.0733365 -0.187304 0.629441 11.8958 40.3448 5.57221 -2.82172 -5.26942 -1.5524 0.0586186 -0.203405 0.619539 
26.982 1 10 9.29021 2.15165 0.257241 -2.13522 -2.13852 2.21608 0.651765 0.248552 -0.407925 0 0 0 0 0 0 0.0813401 -0.0546134 -0.247039 11.3184 1.50255 -1.83553 -1.99066 -2.22816 1.44066 0.663718 0.262231 -0.416655 8.26151 2.20721 1.69815 -2.28304 -2.03576 3.00446 0.639718 0.234866 -0.399171 
26.982 1 9 7.37354 0.251058 0.100021 0.0342179 0.774368 -0.211274 -0.351597 -0.289952 0.276873 0 0 0 0 0 0 -0.0754663 -0.146624 -0.147852 6.4249 5.05799 0.530455 -1.06033 2.58955 0.252489 -0.361147 -0.303451 0.292075 9.51955 -5.21189 -0.982982 1.1262 -1.0246 -0.661477 -0.342093 -0.2764 0.261707 
26.982 1 209 7.35478 0.306043 4.11707 0.150892 -1.48806 0.193405 0.32122 0.0586326 0.0816793 0 0 0 0 0 0 -0.024251 -0.18567 -0.138977 9.0308 -0.638108 3.08356 0.374059 -2.63147 0.221553 0.326015 0.0614157 0.0928736 6.87786 0.571182 4.61785 -0.0750639 -0.335253 0.170874 0.316426 0.0558588 0.0704382 
26.982 1 16 11.4982 2.19983 2.11303 1.4461 -0.127984 -1.54375 0.265868 0.231273 0.586677 0 0 0 0 0 0 0.127627 -0.131332 -0.155603 12.8307 2.73091 -1.2533 1.43393 0.185613 -2.33849 0.265869 0.245635 0.604036 10.9793 1.06991 4.87924 1.4624 -0.428537 -0.73871 0.265857 0.216898 0.569335 
26.982 1 253 11.7613 4.34108 4.12303 -0.469481 0.142026 2.75098 -0.327443 -0.158489 0.3888 0 0 0 0 0 0 0.0172107 -0.0603148 -0.0611007 11.9414 4.38122 10.779 -0.564676 -0.157637 4.7477 -0.338174 -0.16878 0.410952 12.3926 3.79263 -3.06716 -0.371239 0.457965 0.758182 -0.31665 -0.14822 0.366682 
26.982 1 55 13.7158 4.40059 2.28512 -2.67226 -3.03016 -1.33531 0.453847 -0.380454 0.30882 0 0 0 0 0 0 0.0199601 -0.0720328 -0.241147 14.5669 3.88087 3.4879 -2.68512 -3.08275 -0.675238 0.451468 -0.393851 0.325496 13.4835 4.41337 0.488896 -2.65547 -2.96083 -1.98137 0.456284 -0.367052 0.292166 
26.982 1 214 13.891 2.31051 4.30191 1.21934 -0.851386 1.84304 -0.187208 0.0739955 -0.456687 0 0 0 0 0 0 -0.00106877 -0.164508 -0.161918 16.9699 1.89499 8.16249 2.00943 -0.673366 2.94036 -0.192467 0.0771779 -0.469199 11.4229 2.13328 -0.106824 0.431966 -1.01386 0.75 -0.181872 0.0708073 -0.444151 
26.982 1 20 15.9971 2.51698 2.27753 -3.01559 -0.962758 3.60135 -0.305655 -0.274586 -0.0134824 0 0 0 0 0 0 -0.0508915 -0.169312 -0.207623 17.4706 -1.82962 5.03917 -2.51635 -2.11322 4.83601 -0.312746 -0.290847 -0.0188437 14.9257 6.30013 -1.08752 -3.51486 0.207855 2.37663 -0.298522 -0.258344 -0.0080911 
26.982 1 257 15.9105 4.42405 4.37138 0.265063 3.2805 -0.10564 0.0660512 -0.470527 -0.506377 0 0 0 0 0 0 -0.00805688 -0.0461899 -0.106021 16.6633 1.02095 5.84981 0.640386 1.86461 0.814368 0.0663966 -0.477506 -0.530237 15.5761 7.30869 2.34664 -0.109136 4.70288 -1.01998 0.0657325 -0.463573 -0.482515 
26.982 1 218 17.9135 2.40458 4.41202 -2.8837 0.601795 -0.0596178 0.463403 -0.136127 -0.174462 0 0 0 0 0 0 -0.0387479 -0.134455 -0.133542 15.8511 -1.19264 5.24651 -3.37359 -0.241833 0.340154 0.468512 -0.135455 -0.185608 20.1751 5.43685 3.04151 -2.39531 1.46371 -0.454747 0.458298 -0.136829 -0.163301 
26.982 1 18 18.4119 2.27291 0.261613 0.0714901 -0.712367 -1.41993 -0.5396 0.189001 -0.0542712 0 0 0 0 0 0 -0.0209033 -0.0694495 -0.200673 19.6895 0.261636 2.06794 0.553282 -1.03291 -1.02005 -0.551163 0.192021 -0.0534135 17.3274 3.71489 -2.20708 -0.412276 -0.371168 -1.80512 -0.527981 0.185992 -0.0551004 
26.982 1 59 18.1733 4.10935 2.34099 -4.61249 -4.45808 -1.637 0.268083 0.406321 -0.183487 0 0 0 0 0 0 -0.00540351 -0.0139983 -0.226098 21.0251 2.18307 3.2799 -3.90776 -5.07323 -1.2268 0.277647 0.422221 -0.186547 15.5254 5.53171 0.8083 -5.31674 -3.82504 -2.03622 0.258553 0.390426 -0.180437 
26.982 1 261 20.3262 4.33696 4.34488 3.38257 -2.99812 2.8724 -0.26204 -0.158467 -0.174225 0 0 0 0 0 0 -0.00746849 -0.01004 -0.0900342 18.4456 2.63151 6.08258 2.88339 -3.13731 4.14612 -0.26109 -0.152094 -0.182826 22.2051 5.5401 2.06929 3.87963 -2.84417 1.60544 -0.26299 -0.164851 -0.165652 
26.982 1 221 20.0966 0.380109 4.24322 -2.42963 5.65731 -0.62986 0.28677 -0.32775 0.186578 0 0 0 0 0 0 -0.0648274 -0.180813 -0.168218 19.2826 40.5367 1.29763 -3.17289 5.94794 -1.46557 0.284899 -0.328677 0.195724 20.9108 40.8687 6.66664 -1.68485 5.38256 0.212558 0.288622 -0.326829 0.177459 
26.982 1 24 20.4256 2.12491 2.36894 -0.320856 -0.846697 0.0272855 -0.711693 0.619113 -0.665216 0 0 0 0 0 0 -0.0321639 -0.0846309 -0.226321 18.9408 1.04901 2.95271 -0.86036 -0.965885 0.868727 -0.719539 0.63952 -0.670908 21.9032 2.64144 1.19067 0.216592 -0.705866 -0.801821 -0.70384 0.598717 -0.659541 
26.982 1 63 22.2 4.23677 2.26546 -2.61921 -0.711069 4.15968 0.396359 0.372879 0.245667 0 0 0 0 0 0 0.0114593 -0.000806854 -0.264405 23.4347 5.25953 1.05525 -1.77497 -0.474864 4.60531 0.393396 0.389591 0.261164 20.7679 2.72101 2.89214 -3.46616 -0.930268 3.72557 0.399279 0.356183 0.230113 
26.982 1 222 22.3894 2.25216 4.14733 2.6715 -2.7679 4.91681 0.263158 0.0137366 0.470646 0 0 0 0 0 0 0.0168974 -0.0561321 -0.100687 21.0642 1.78222 4.57043 2.48648 -2.47802 5.25124 0.276346 0.0204137 0.488184 23.516 2.15784 3.19571 2.85483 -3.03949 4.59017 0.249918 0.00704044 0.453114 
26.982 1 23 22.29 0.129436 2.15992 -0.542984 -1.48159 -0.849247 0.558761 0.298489 0.0426145 0 0 0 0 0 0 0.0153446 -0.180822 -0.203794 19.9865 41.1757 3.33646 -1.3911 -0.290948 -0.124918 0.573174 0.310132 0.0526707 24.4036 39.7304 0.404925 0.305841 -2.66076 -1.56048 0.5443 0.286872 0.0325694 
26.982 1 28 24.3611 2.27344 2.23276 5.37952 2.48222 -5.21407 0.438559 -0.458696 0.302945 0 0 0 0 0 0 0.0616214 -0.091465 -0.256065 23.6851 4.69923 3.02734 5.84029 3.35359 -4.33744 0.453256 -0.480714 0.318446 24.6536 -0.711703 0.840758 4.92095 1.62976 -6.0828 0.423783 -0.436683 0.287417 
26.982 1 265 24.5786 4.29658 4.28542 0.607987 1.18262 -0.346516 -0.0707917 -0.133709 -0.0635739 0 0 0 0 0 0 0.014712 -0.0241531 -0.098575 25.794 0.46316 3.93354 1.15639 -0.305991 0.36937 -0.0638529 -0.143456 -0.0623635 22.9677 7.62278 4.0974 0.0591554 2.68201 -1.05628 -0.0777954 -0.12397 -0.0648284 
26.982 1 67 26.6122 4.22072 2.27625 5.51038 -0.967131 1.50544 0.221386 -0.00987151 0.319994 0 0 0 0 0 0 0.000947634 -0.0419873 -0.263578 28.4813 1.0541 2.79278 5.8989 -1.39996 2.52086 0.230031 -0.0171529 0.334484 24.1476 6.86958 1.17369 5.1249 -0.526146 0.503076 0.212699 -0.00253035 0.305451 
26.982 1 226 26.7727 2.37159 4.3024 0.707376 -2.03421 4.82052 -0.303801 -0.393207 0.00399974 0 0 0 0 0 0 0.0299633 -0.140454 -0.133833 26.7278 2.43881 4.34128 0.93103 -2.12927 5.7507 -0.300131 -0.407635 -0.000555006 26.2306 1.74612 3.72188 0.490246 -1.91717 3.89705 -0.307526 -0.378792 0.00852678 
26.982 1 32 28.7778 2.15335 2.3014 -1.14984 3.20248 -2.86226 0.216277 0.278914 0.0500999 0 0 0 0 0 0 -0.0362071 -0.159147 -0.19149 26.5857 2.4232 3.3178 -1.87138 3.48909 -1.94589 0.224173 0.290282 0.0433448 30.1589 1.3158 0.695177 -0.426703 2.93262 -3.76386 0.208352 0.26759 0.0568043 
26.982 1 269 28.8599 4.30148 4.35596 2.90314 -1.39867 -0.971037 0.00876405 0.119594 -0.239239 0 0 0 0 0 0 -0.00580934 -0.0377124 -0.0837867 27.5249 7.78113 8.52264 2.64241 -0.0607308 -0.0538673 0.00976252 0.110894 -0.238396 29.3983 0.300741 -0.33453 3.16977 -2.72565 -1.87414 0.00776742 0.128365 -0.240096 
26.982 1 225 24.4967 0.167597 4.29294 1.74223 -2.82862 0.428628 -0.103376 0.526899 -0.467722 0 0 0 0 0 0 0.0610861 -0.151133 -0.201247 25.5701 0.908521 3.76429 2.25708 -1.44328 0.338293 -0.102547 0.553684 -0.48699 23.0321 -1.22683 4.29279 1.22686 -4.20103 0.526915 -0.104286 0.50009 -0.448455 
26.982 1 71 30.9726 4.16979 2.38338 7.0079 0.103922 -1.07451 -0.181315 0.193297 -0.279956 0 0 0 0 0 0 -0.0200851 -0.00682996 -0.229839 31.2019 4.82662 2.14312 7.04651 0.661662 -1.37429 -0.184966 0.183009 -0.296564 29.7225 2.9838 2.05373 6.9655 -0.445741 -0.755507 -0.177678 0.203657 -0.263391 
26.982 1 230 30.9511 2.30218 4.3261 -5.00197 1.48542 0.943004 0.153025 -0.591935 -0.193762 0 0 0 0 0 0 -0.0349254 -0.130383 -0.122465 27.6225 -0.0969463 4.69752 -6.10436 1.02009 1.83142 0.154556 -0.608006 -0.210896 33.2656 4.1355 3.44597 -3.9008 1.96961 0.074335 0.151523 -0.575854 -0.176629 
26.982 1 233 33.3546 0.260614 4.252 -3.64763 5.6147 2.45767 -0.61971 -0.0065006 -0.0225672 0 0 0 0 0 0 -0.0247904 -0.165927 -0.173357 32.7088 38.6249 1.07087 -3.77336 5.22202 1.50043 -0.63114 0.00606698 -0.0215348 32.7974 42.5541 6.94019 -3.52178 6.02822 3.43548 -0.608234 -0.0190784 -0.0235701 
26.982 1 30 30.8326 2.32671 0.15503 5.67382 3.98356 4.1561 0.236861 -0.130225 0.38353 0 0 0 0 0 0 -0.0176575 -0.0645751 -0.190262 31.319 -1.45294 -0.0710942 6.14928 2.96069 4.48323 0.234677 -0.140043 0.396005 29.32 5.51626 -0.269816 5.19179 5.01284 3.84175 0.239021 -0.120403 0.371034 
26.982 1 273 33.2142 4.24334 4.1963 6.06794 4.05309 0.481383 -0.181985 -0.0981686 0.250681 0 0 0 0 0 0 -0.00657467 -0.0246198 -0.0722608 36.6609 3.78987 3.89188 7.14595 5.38451 0.386518 -0.181529 -0.102499 0.253243 28.5366 4.16039 3.9804 4.98194 2.72743 0.589476 -0.182417 -0.0937932 0.248154 
26.982 1 36 32.9971 2.1478 2.30274 1.11089 -1.55708 -1.09553 0.248383 0.2755 -0.0189201 0 0 0 0 0 0 -0.0108881 -0.11496 -0.21902 32.467 2.22078 0.984508 1.04666 -1.92378 -1.33744 0.244884 0.284029 -0.0332688 32.3102 1.50043 3.05706 1.17037 -1.17511 -0.832923 0.251903 0.266983 -0.00460557 
26.982 1 35 35.3731 0.264527 2.36847 -4.0766 -2.07642 -0.0214107 0.100092 0.288209 -0.351998 0 0 0 0 0 0 0.0460538 -0.175675 -0.181238 33.7746 1.71288 1.77175 -4.27673 -1.62486 0.16681 0.111807 0.299734 -0.363084 35.5726 -1.83116 2.39406 -3.87799 -2.5089 -0.192631 0.0883576 0.276666 -0.34091 
26.982 1 75 35.3436 4.29199 2.26441 -3.33592 3.09689 0.591831 -0.236373 -0.19989 0.0807012 0 0 0 0 0 0 -0.0353958 -0.0865282 -0.177156 37.9478 2.77745 2.76922 -2.54051 3.34109 1.73626 -0.241863 -0.20947 0.0836047 31.3097 5.25506 1.17985 -4.13983 2.85411 -0.536524 -0.230864 -0.190267 0.077813 
26.982 1 234 35.3651 2.42193 4.36744 0.305977 1.17289 4.63516 -0.0164528 -0.438167 -0.193252 0 0 0 0 0 0 0.0352884 -0.10699 -0.0955972 37.9898 1.41226 5.71387 1.19952 1.34873 5.40575 -0.0121059 -0.449982 -0.206009 31.3141 2.83231 2.5165 -0.596895 1.00832 3.8858 -0.020774 -0.42637 -0.180461 
26.982 1 277 37.4515 4.37539 4.37147 -0.464746 0.148977 0.692471 -0.229604 -0.372771 -0.0494128 0 0 0 0 0 0 0.00298718 -0.0526956 -0.0503682 36.776 5.09898 2.28936 -0.228375 1.03581 -0.244066 -0.231888 -0.38654 -0.0591017 36.4982 3.10535 5.93932 -0.710483 -0.729529 1.64473 -0.22728 -0.358969 -0.0397282 
26.982 1 77 37.4349 4.30151 0.296395 3.57044 -0.808129 2.47212 -0.00807269 -0.268731 -0.353271 0 0 0 0 0 0 0.0272219 -0.0801281 -0.266646 38.828 6.50053 40.7411 3.66501 -0.659437 1.97102 -0.0102604 -0.278298 -0.370481 34.4202 1.56539 40.48 3.47057 -0.949251 2.9796 -0.00583669 -0.259129 -0.33607 
26.982 1 40 37.4266 2.25082 2.35974 1.03179 -3.25867 -1.25615 0.110754 -0.0315214 -0.14992 0 0 0 0 0 0 0.0376165 -0.178396 -0.166206 39.0777 5.74554 2.79659 1.87728 -2.55368 -1.07719 0.117344 -0.0275465 -0.154015 34.1521 -1.86791 1.34384 0.17658 -3.95717 -1.42129 0.104192 -0.0354329 -0.145804 
26.982 1 41 41.629 4.24947 0.571613 -2.44528 -2.46223 3.87914 -0.313442 0.190441 -0.987347 0 0 0 0 0 0 -0.0315227 -0.0579019 -0.294427 -4.47944 5.75277 6.40309 -3.33942 -2.01396 5.34319 -0.326675 0.19537 -1.01114 4.40459 2.21452 -5.92207 -1.54626 -2.89907 2.43191 -0.300146 0.185539 -0.963541 
26.982 1 241 41.7045 4.34296 4.48348 0.831897 1.85963 3.46861 -0.052219 0.0057839 -0.14912 0 0 0 0 0 0 -0.00772944 -0.0203393 -0.0415989 -2.67748 4.82033 4.12356 0.136883 2.3228 3.64356 -0.0504811 0.00312373 -0.143519 2.74921 3.32809 4.33785 1.53048 1.40961 3.31028 -0.0539266 0.00845257 -0.154772 
26.982 1 4 41.6854 2.32654 2.39361 -1.18708 5.07964 -0.55153 0.0140757 -0.129687 0.0813349 0 0 0 0 0 0 -0.0481786 -0.162682 -0.207491 36.9587 2.73115 2.64966 -2.47184 5.09774 0.0696332 0.0102586 -0.154816 0.0790673 44.4023 1.31151 1.54697 0.0992127 5.07223 -1.16189 0.0179591 -0.104477 0.0836049 
26.982 1 79 39.4285 4.20629 2.35864 -0.0453405 1.08929 -1.79687 0.0960466 0.0085603 -0.0528196 0 0 0 0 0 0 -0.00425183 -0.0589258 -0.172818 37.4371 7.10099 0.501508 -0.673088 2.78476 -2.4754 0.0830617 0.011664 -0.0528523 39.6025 0.776411 3.63407 0.577423 -0.594934 -1.10306 0.109105 0.00551029 -0.0527704 
26.982 1 238 39.8295 2.32514 4.44937 -0.563766 -0.416439 -1.49043 -0.752171 -0.245437 -0.160826 0 0 0 0 0 0 -0.0547775 -0.142317 -0.112443 41.402 4.04525 4.36152 0.324326 -0.288812 -1.87067 -0.769556 -0.265183 -0.164002 36.434 0.00389609 4.02389 -1.45876 -0.529788 -1.09463 -0.734732 -0.225668 -0.15764 
26.982 1 83 1.10102 8.13425 2.3377 5.24789 0.00456351 5.71964 -0.181045 0.2892 -0.0304739 0 0 0 0 0 0 -0.127311 -0.0212899 -0.109489 0.193955 12.3246 3.37165 4.90098 1.94695 7.03582 -0.175492 0.311165 -0.0366735 3.8436 3.52876 0.691601 5.60409 -1.93707 4.40935 -0.186637 0.26719 -0.0242797 
26.982 1 242 1.07045 6.41367 4.4333 2.9961 1.00545 1.26231 0.153599 -0.481149 -0.0218979 0 0 0 0 0 0 -0.123165 -0.0316413 -0.0605014 -0.766498 6.325 6.65104 2.2795 1.74667 2.54158 0.166703 -0.489295 -0.0225933 4.74295 6.04413 1.69419 3.72273 0.275863 -0.00256729 0.140458 -0.473045 -0.0212512 
26.982 1 285 3.11062 8.32587 4.42079 1.16233 -3.29559 2.60338 0.195891 -0.0558715 -0.320665 0 0 0 0 0 0 -0.0162051 -0.00832432 -0.0287985 -1.48586 8.71868 2.57712 -0.368738 -2.91898 2.79199 0.205758 -0.0487819 -0.331226 9.34835 7.52466 5.73102 2.70752 -3.67096 2.42009 0.185956 -0.062973 -0.310131 
26.982 1 42 1.12213 6.20546 0.172851 6.08763 -1.62528 -1.16206 -0.174392 -0.158559 0.813456 0 0 0 0 0 0 -0.0812363 -0.0690113 -0.226949 0.156008 5.39948 1.62257 5.59944 -1.07063 -0.663416 -0.17479 -0.146574 0.83064 3.93001 6.5537 -1.94854 6.58823 -2.16834 -1.655 -0.173991 -0.170614 0.79629 
26.982 1 48 3.13946 6.26139 2.27087 -1.54365 6.45799 0.748681 0.0808602 -0.0595857 0.179399 0 0 0 0 0 0 0.00308433 -0.0596056 -0.158536 -0.878507 5.75579 1.01775 -2.8497 7.54246 0.951143 0.0885158 -0.0445433 0.192567 8.79222 6.30988 2.9219 -0.225816 5.38259 0.554464 0.0731505 -0.0746945 0.166191 
26.982 1 85 3.17101 8.21808 0.160773 5.5211 -1.48061 -3.32122 0.169241 0.234326 0.434405 0 0 0 0 0 0 0.0134545 -0.0417782 -0.261351 -0.935167 10.2869 4.11107 4.21653 -0.337246 -1.66177 0.1813 0.258513 0.455049 8.9034 5.75004 -4.45417 6.83371 -2.61448 -4.9734 0.15715 0.210052 0.413782 
26.982 1 44 -1.18681 6.1826 2.44458 2.88318 6.08003 2.66151 0.180397 0.305611 0.0320408 0 0 0 0 0 0 -0.209791 -0.0411193 -0.0979119 38.74 4.90266 2.48934 2.34357 7.50269 2.75325 0.171745 0.326805 0.0322483 42.2571 6.98895 1.79815 3.42929 4.66426 2.57703 0.189064 0.284402 0.0318401 
26.982 1 87 5.07792 8.27973 2.24111 4.31333 -3.63999 -0.711535 0.398842 0.20458 0.224535 0 0 0 0 0 0 0.00963057 -0.0297002 -0.135437 3.86467 9.94231 5.0985 3.44349 -2.58025 0.189621 0.395928 0.212738 0.227232 7.71376 6.21603 -1.21703 5.19041 -4.69275 -1.60491 0.401705 0.196395 0.221802 
26.982 1 246 5.23988 6.39387 4.40471 -6.63066 2.65376 -1.18195 -0.0680044 -0.342098 -0.480312 0 0 0 0 0 0 -0.00133059 -0.0123943 -0.056766 7.17254 6.35604 3.12165 -6.44867 3.75899 -0.307905 -0.0649627 -0.34437 -0.502932 4.72295 5.97652 5.14721 -6.80642 1.56054 -2.04964 -0.0711175 -0.339878 -0.457774 
26.982 1 52 7.41247 6.41424 2.19526 -1.77528 -2.57418 -0.780618 -0.146748 -0.378029 0.648917 0 0 0 0 0 0 -0.0393204 -0.0141431 -0.115972 8.20872 6.45825 5.39609 -1.65884 -2.18184 -0.234633 -0.146777 -0.386466 0.679695 7.80623 5.92376 -1.60037 -1.89612 -2.95377 -1.3138 -0.14676 -0.369655 0.618095 
26.982 1 289 7.33298 8.3837 4.29045 -1.88063 -3.42177 2.16382 0.189714 -0.35367 0.0538742 0 0 0 0 0 0 0.00155965 -0.0145755 -0.0250543 9.91611 6.80852 5.34546 -1.21688 -3.1247 2.94133 0.190645 -0.375181 0.0586237 5.94856 9.56396 2.69293 -2.5449 -3.71179 1.38802 0.18878 -0.332135 0.0490879 
26.982 1 89 7.43113 8.26151 0.328246 3.35315 2.36635 2.02963 -0.153085 0.36313 -0.11635 0 0 0 0 0 0 -0.0060403 0.0309311 -0.260421 8.2369 8.94278 0.874038 3.52334 3.15865 2.02053 -0.158076 0.363145 -0.113153 7.8188 7.1836 -0.856261 3.1784 1.58198 2.05814 -0.148082 0.3631 -0.119524 
26.982 1 286 5.2615 10.4122 4.35973 3.8131 -1.06244 0.0368264 -0.197433 -0.482709 -0.367582 0 0 0 0 0 0 0.00115516 -0.0254648 -0.035333 6.62642 11.5525 8.93004 3.95419 0.122323 2.17139 -0.20644 -0.508799 -0.379128 5.33655 8.91733 -0.752892 3.68502 -2.24509 -2.09867 -0.18845 -0.456598 -0.356054 
26.982 1 88 3.07048 10.3969 2.32118 0.265177 -4.18146 -3.10591 0.109906 -0.425592 0.20789 0 0 0 0 0 0 -0.0407792 -0.0105595 -0.106937 0.875896 12.4588 3.69045 -0.840491 -4.11614 -2.27953 0.111531 -0.442162 0.209507 6.91188 7.98063 0.34567 1.38595 -4.24501 -3.92925 0.108246 -0.409061 0.206304 
26.982 1 92 7.33878 10.315 2.39899 -4.36688 3.10435 1.60639 0.110681 -0.209299 -0.273429 0 0 0 0 0 0 0.0388368 0.019949 -0.171544 6.88032 10.0733 3.99308 -4.64464 3.61975 3.36184 0.106798 -0.222428 -0.281107 8.99956 10.2242 0.213131 -4.09039 2.59681 -0.136149 0.114603 -0.196135 -0.26578 
26.982 1 91 9.59001 8.25568 2.30933 2.25193 0.458863 1.1728 -0.597925 0.197388 -0.334282 0 0 0 0 0 0 -0.0107818 0.0375151 -0.138332 10.6652 7.58035 3.49219 2.37064 -0.167527 1.75022 -0.61227 0.196467 -0.336199 9.5098 8.54501 0.536084 2.12803 1.09194 0.608472 -0.583526 0.198374 -0.332422 
26.982 1 250 9.63294 6.14741 4.27436 -1.6137 0.493211 0.503967 -0.462969 0.0942374 0.151205 0 0 0 0 0 0 -0.00518591 0.00466191 -0.0209295 9.86897 6.24537 11.2041 -2.05384 1.41607 2.43258 -0.475691 0.105703 0.158493 10.3841 5.61758 -3.21578 -1.17854 -0.41145 -1.4261 -0.450214 0.0828001 0.143888 
26.982 1 50 9.36643 6.33032 0.154047 -0.0225465 2.41712 -2.71037 0.605503 -0.25277 0.162002 0 0 0 0 0 0 0.0351334 -0.0206188 -0.269374 11.454 7.88972 -0.761187 0.273551 4.0552 -2.81574 0.609518 -0.265673 0.160593 8.27685 4.32041 0.427467 -0.322479 0.790903 -2.58594 0.601481 -0.239881 0.163431 
26.982 1 290 9.51572 10.3489 4.11399 -0.988979 3.40914 -1.83489 0.0436007 -0.245216 0.428052 0 0 0 0 0 0 -0.00181446 0.00155119 -0.0416693 8.63657 12.2478 10.0187 -1.273 4.66273 0.708116 0.0424283 -0.254362 0.454556 11.3887 8.12002 -2.3168 -0.708966 2.16278 -4.37107 0.0448203 -0.236037 0.401516 
26.982 1 93 11.6973 8.20038 0.180235 0.648047 -0.583915 1.09603 -0.133891 0.238752 0.34897 0 0 0 0 0 0 0.0341552 -0.00291402 -0.270809 11.4146 7.60027 38.0809 0.428577 -1.56494 1.19435 -0.135771 0.240206 0.36371 12.7905 8.4208 42.9386 0.868643 0.411937 1.01994 -0.131984 0.237374 0.33426 
26.982 1 56 11.5503 6.4088 2.15255 -3.93867 -0.285287 2.52431 0.196539 -0.702911 0.0608077 0 0 0 0 0 0 0.0574502 -0.0663877 -0.175222 13.2792 6.58229 4.71653 -3.4936 -0.560973 3.04972 0.185648 -0.725779 0.0614274 10.6365 5.78973 -1.0111 -4.38057 0.00063597 2.01155 0.207472 -0.680021 0.0601487 
26.982 1 293 11.5818 8.21086 4.13045 -3.18994 0.401964 1.97195 0.228214 0.34078 0.680571 0 0 0 0 0 0 0.00120121 0.00851484 -0.0314815 10.6035 7.31911 10.2785 -3.4287 0.909295 3.74068 0.222109 0.349815 0.704992 13.365 8.70761 -2.5569 -2.95121 -0.101624 0.205609 0.234376 0.331801 0.65614 
26.982 1 95 13.8616 8.34963 2.28621 -2.1859 2.73599 -1.02714 -0.302834 -0.107728 0.0463505 0 0 0 0 0 0 0.0525807 -0.0430197 -0.192078 15.5169 9.51875 -0.798939 -2.12213 3.44055 -1.5199 -0.302248 -0.106303 0.0578876 12.8145 6.77835 4.7846 -2.24978 2.03448 -0.521889 -0.303451 -0.109151 0.0348228 
26.982 1 254 13.8022 6.3132 4.27917 2.40131 -0.371471 0.149608 -0.0872662 0.0933122 -0.15966 0 0 0 0 0 0 0.00436979 -0.0236401 -0.0704164 12.8912 6.29396 8.76652 2.15554 0.116792 1.57659 -0.0932986 0.0852567 -0.153925 15.3336 5.89429 -0.758073 2.6491 -0.845747 -1.27469 -0.0811869 0.101356 -0.165379 
26.982 1 60 15.9938 6.2642 2.25575 -0.279029 -7.18043 -0.113937 -0.0262254 0.0252389 0.18796 0 0 0 0 0 0 0.00138639 -0.0117478 -0.260173 18.5419 8.70621 -0.456386 0.418017 -6.74642 -0.609553 -0.0215336 0.0401269 0.195129 13.8527 3.36106 4.37655 -0.975965 -7.60852 0.393005 -0.0308962 0.0103234 0.180816 
26.982 1 297 15.9901 8.32436 4.16286 2.98435 -2.8168 2.45829 0.123499 0.0620131 0.266149 0 0 0 0 0 0 0.0102051 0.000289484 -0.0668315 17.9693 10.6178 0.40552 3.59528 -1.31276 1.99131 0.129697 0.0688925 0.286791 14.4253 5.63283 7.38581 2.37436 -4.3146 2.93168 0.117313 0.055122 0.245567 
26.982 1 294 13.756 10.1736 4.31089 -1.54443 -4.05973 -1.40445 0.0656596 0.157043 -0.190814 0 0 0 0 0 0 0.00487842 0.0103856 -0.0474554 14.9763 16.618 2.92737 -0.98967 -2.22091 -2.05028 0.0650977 0.168844 -0.196655 13.1453 3.39626 5.16169 -2.09964 -5.8946 -0.749066 0.0662149 0.145259 -0.184961 
26.982 1 94 13.6486 10.377 0.346024 1.0577 -2.18132 3.25882 0.348248 -0.275066 -0.330332 0 0 0 0 0 0 0.0476349 0.0108364 -0.287036 15.1556 13.4641 41.9831 1.43735 -1.02867 4.19054 0.358782 -0.28402 -0.343648 12.7389 6.94686 39.3387 0.673742 -3.3348 2.33249 0.33762 -0.266101 -0.317044 
26.982 1 99 18.1941 8.29135 2.31017 -1.65525 5.83719 -1.9821 -0.482163 0.257808 -0.313697 0 0 0 0 0 0 -0.0526545 0.00022248 -0.239155 16.7643 10.9765 -0.82031 -1.77368 6.08906 -2.49395 -0.501741 0.269456 -0.328334 19.8331 5.18358 4.85147 -1.53371 5.57923 -1.46115 -0.462524 0.246137 -0.299053 
26.982 1 258 18.0689 6.17648 4.18898 2.77232 -0.401973 3.63663 0.208927 0.318248 0.31709 0 0 0 0 0 0 -0.00543262 0.0119679 -0.0829542 17.4672 9.12431 5.0867 2.34954 0.583413 4.10183 0.20916 0.339748 0.328174 18.8796 2.7746 2.7552 3.19545 -1.37926 3.17525 0.20871 0.296743 0.30602 
26.982 1 301 20.2404 8.31965 4.33633 -2.7315 -3.39163 0.643999 -0.207384 -0.165015 -0.33465 0 0 0 0 0 0 -0.013179 -0.0237309 -0.0678782 18.3159 6.65851 4.67909 -3.23063 -4.04603 0.723501 -0.21624 -0.181656 -0.340549 22.1642 9.57229 3.47183 -2.2334 -2.73642 0.575272 -0.198543 -0.148369 -0.328762 
26.982 1 101 20.3238 8.36749 0.280611 0.510661 0.356382 6.32193 -0.419496 -0.0435917 0.0783047 0 0 0 0 0 0 -0.0529906 -0.0417495 -0.281566 17.5932 10.5399 40.8344 0.0266647 1.08054 7.22087 -0.434291 -0.0431795 0.0838748 23.0545 5.7886 40.3532 0.992644 -0.368334 5.42847 -0.404662 -0.0440826 0.0727449 
26.982 1 64 20.1804 6.49364 2.24346 0.0900899 0.946365 3.46885 0.217085 -0.90334 0.306253 0 0 0 0 0 0 -0.00569167 -0.0682905 -0.228356 19.2643 6.40848 0.358027 0.0462638 0.618164 3.55603 0.213102 -0.926319 0.320946 21.0988 6.12044 3.53732 0.133231 1.28073 3.38986 0.221089 -0.880386 0.291532 
26.982 1 103 22.2494 8.3283 2.26564 -2.26657 2.17051 3.80816 0.667812 0.115172 0.290361 0 0 0 0 0 0 0.0406104 -0.0536805 -0.185681 20.1657 12.2829 3.56269 -2.2815 3.61206 4.47186 0.688789 0.122201 0.298672 24.1261 3.96651 0.389965 -2.25735 0.734848 3.1587 0.646773 0.108095 0.28203 
26.982 1 262 22.382 6.30341 4.25162 1.46164 3.95048 1.91386 0.054915 -0.305829 -0.148513 0 0 0 0 0 0 0.0101649 -0.0168673 -0.0843227 20.2232 7.04199 4.09322 1.54765 4.39763 2.29643 0.0606388 -0.310678 -0.14686 24.3371 5.11156 3.88262 1.37094 3.51074 1.53845 0.0491349 -0.300997 -0.150215 
26.982 1 305 24.7503 8.17813 4.15152 -2.58 5.21157 1.63922 -0.830107 0.246572 0.315237 0 0 0 0 0 0 -0.00650238 0.00168827 -0.0584133 25.6167 14.0589 0.805124 -2.16364 7.73924 0.562889 -0.839825 0.266271 0.334514 23.4818 1.89635 6.97123 -2.99851 2.68987 2.72531 -0.820405 0.226866 0.295958 
26.982 1 302 22.3003 10.3124 4.30158 -1.35965 1.40626 0.896048 0.591077 -0.00960977 -0.263864 0 0 0 0 0 0 0.0217692 -0.0145646 -0.0390118 20.4806 12.7923 6.4648 -1.5581 2.35242 0.802134 0.618523 -0.0185272 -0.268879 23.9108 7.49462 1.61357 -1.16468 0.469191 1.00123 0.563529 -0.000693386 -0.258869 
26.982 1 102 22.3562 10.2179 0.246548 1.17392 0.496348 -5.61512 0.35572 0.659876 0.328288 0 0 0 0 0 0 -0.00923103 -0.00498027 -0.265404 22.9202 10.2011 43.0802 1.69357 0.397638 -4.5532 0.367326 0.684501 0.338551 21.5865 9.90117 38.0488 0.651341 0.600623 -6.66459 0.344086 0.635223 0.318034 
26.982 1 68 24.393 6.19154 2.33437 12.7281 6.1421 -3.90405 0.179664 0.139599 0.00566879 0 0 0 0 0 0 0.00733415 -0.0251188 -0.259074 26.3638 6.88289 3.88818 13.6178 7.17621 -3.15448 0.173443 0.142295 0.0076757 22.0176 5.03235 0.190044 11.8341 5.11189 -4.64353 0.185831 0.136876 0.00359833 
26.982 1 107 26.6433 8.24819 2.1975 -1.17433 0.213927 4.30053 0.333118 0.435461 -0.339766 0 0 0 0 0 0 -0.000543533 -0.0614225 -0.235599 27.1183 13.3877 2.47541 -1.22149 1.95162 5.25097 0.332554 0.448219 -0.349106 25.5622 2.69074 1.33795 -1.12812 -1.5249 3.36427 0.333711 0.422667 -0.330466 
26.982 1 266 26.9029 6.4235 4.08092 0.521923 2.13711 1.56482 -0.556464 -0.704867 0.688959 0 0 0 0 0 0 -0.00417906 -0.0332398 -0.0821067 30.4325 8.18013 2.25854 0.917469 3.45609 1.45724 -0.559486 -0.728013 0.710259 22.7742 4.20977 5.37253 0.129399 0.826816 1.68472 -0.553421 -0.681719 0.667636 
26.982 1 108 24.5537 10.2386 2.10929 0.0780409 -4.78073 2.09902 -0.237201 -0.00380933 0.213828 0 0 0 0 0 0 0.0047227 -0.0500315 -0.159551 18.7506 12.8541 0.407154 -1.41463 -3.80819 1.62744 -0.24557 -0.00499614 0.229461 29.9557 7.2925 3.23665 1.56957 -5.74346 2.58934 -0.228861 -0.00262789 0.198201 
26.982 1 309 28.9035 8.18956 4.28241 -7.12485 -2.16237 2.70633 0.0759026 0.787573 -0.305929 0 0 0 0 0 0 0.0041554 0.0108957 -0.07396 29.6168 9.16351 0.060988 -7.43014 -1.68286 1.4001 0.0784181 0.811223 -0.30756 27.3842 6.80956 7.98384 -6.81733 -2.6371 4.02723 0.0734195 0.763942 -0.304293 
26.982 1 72 28.8162 6.25752 2.18005 0.754626 4.07111 -1.00192 0.14094 0.0794499 0.361311 0 0 0 0 0 0 0.00819255 -0.0210675 -0.259233 27.7544 7.35416 3.92356 0.417715 5.06451 0.0620686 0.150543 0.0748276 0.377869 29.0653 4.69004 -0.135588 1.09084 3.08109 -2.05038 0.131333 0.0841137 0.344733 