ITEM: TIMESTEP
14825
ITEM: NUMBER OF ATOMS
4000
ITEM: BOX BOUNDS pp pp pp
-3.08726 43.5873
0.792583 39.7074
0.829209 39.6708
ITEM: ATOMS mass type id x y z vx vy vz fx fy fz xrad yrad zrad vxrad vyrad vzrad fxrad fyrad fzrad xub yub zub vxub vyub vzub fxub fyub fzub xlb ylb zlb vxlb vylb vzlb fxlb fylb fzlb 
26.982 1 43 -1.05248 4.40174 2.81404 1.82278 5.56511 0.748993 0.251639 0.211066 -0.176134 0 0 0 0 0 0 -0.140544 -0.101117 -0.190419 -18.0525 2.19551 18.0555 0.145818 7.62186 2.82548 0.246691 0.223725 -0.191072 21.4458 5.43846 -13.8526 3.50095 3.53951 -1.29548 0.256498 0.198413 -0.161215 
26.982 1 202 -0.827754 2.571 4.8623 3.99409 0.956759 2.50773 0.169716 0.118765 -0.0517746 0 0 0 0 0 0 -0.136046 -0.0809709 -0.134968 2.95463 -15.6592 5.32893 4.78843 -0.462044 2.0224 0.173382 0.130073 -0.0662853 0.89438 19.5065 3.28133 3.20152 2.40421 3.0358 0.165959 0.107481 -0.0373033 
26.982 1 241 43.273 4.96666 4.76069 -3.16194 1.28649 0.830115 0.413887 -0.263331 0.012616 0 0 0 0 0 0 0.0165007 -0.0387033 -0.0733787 -5.96193 12.6934 -12.7178 -1.94152 2.20939 -2.46579 0.428269 -0.284431 -0.00833281 5.16725 -3.84394 21.0969 -4.38686 0.40938 4.15534 0.399427 -0.242272 0.0335851 
26.982 1 245 1.35288 4.57422 4.66012 -1.72563 0.729787 -2.20109 0.17142 -0.300169 0.123519 0 0 0 0 0 0 -0.0205585 -0.0395899 -0.0621916 -3.26898 8.18062 3.07346 -3.13034 2.30567 -3.54726 0.184846 -0.311003 0.132942 10.8884 -0.135343 5.06667 -0.313043 -0.796998 -0.812827 0.15791 -0.289332 0.114071 
26.982 1 8 1.42667 2.78725 2.64111 -2.53661 0.08008 -4.2044 0.0478587 -0.472638 0.698788 0 0 0 0 0 0 -0.0665289 -0.0907057 -0.190961 -4.36003 17.411 3.15203 -3.2509 0.861246 -3.46393 0.0606707 -0.491724 0.723441 12.1095 -13.1992 0.77539 -1.81929 -0.682371 -4.90313 0.0349692 -0.453615 0.674186 
26.982 1 47 3.84349 4.76166 2.91103 -1.46275 5.06499 -0.938443 0.0414506 -0.657859 -0.307587 0 0 0 0 0 0 -0.019204 -0.00861487 -0.166503 -3.77963 18.9377 -6.34953 -2.71795 6.69499 -4.39677 0.0426647 -0.675121 -0.319516 15.7084 -10.3829 10.8073 -0.206204 3.4961 2.54824 0.0401944 -0.640575 -0.295712 
26.982 1 206 3.89643 2.56113 4.81765 -2.37296 4.35233 -0.90946 -0.177639 0.0837154 -0.112294 0 0 0 0 0 0 0.0215616 -0.102164 -0.0605123 9.47549 -11.5855 23.6556 -2.05397 4.80137 2.07953 -0.180852 0.0870741 -0.117558 2.5484 15.4503 -15.1149 -2.6956 3.96481 -3.85124 -0.174455 0.0803629 -0.107039 
26.982 1 807 4.27918 0.960833 18.4183 -0.635025 1.70492 -1.71109 -0.204613 0.00646144 -0.247598 0 0 0 0 0 0 -0.0280918 -0.267094 -0.0719113 6.5353 57.5542 15.4137 -0.627117 3.5612 -2.77059 -0.224972 0.00179337 -0.258414 6.22036 24.5013 21.4527 -0.64088 -0.0686603 -0.631217 -0.184144 0.0110412 -0.236795 
26.982 1 801 43.1792 0.869872 16.4136 1.40269 -1.97468 1.97565 0.342109 0.208204 -0.0908359 0 0 0 0 0 0 0.0472469 -0.183607 -0.140639 43.2587 55.2079 7.20646 1.73683 -0.251355 1.3672 0.366784 0.20984 -0.0881132 37.0797 26.425 25.6125 1.06651 -3.65555 2.64244 0.317309 0.206548 -0.0936579 
26.982 1 249 6.17142 4.88852 4.77545 2.92327 2.74549 2.02352 -0.10147 -0.163801 -0.132422 0 0 0 0 0 0 -0.00814132 -0.0322875 -0.0485861 7.59418 -10.1484 12.3733 2.56798 -0.0839997 3.07965 -0.113956 -0.182677 -0.143628 8.2822 18.9091 -3.98442 3.26843 5.62133 1.01271 -0.0889325 -0.144898 -0.121209 
26.982 1 12 6.1481 2.72591 3.0049 3.89431 1.03121 -2.17198 0.206073 -0.24823 0.251848 0 0 0 0 0 0 0.0232914 -0.133397 -0.07165 7.50314 7.70472 -5.74 3.50062 2.19789 -3.58391 0.216566 -0.257701 0.25066 8.32765 -3.4721 10.4434 4.27698 -0.0752871 -0.720669 0.195593 -0.238733 0.253039 
26.982 1 51 8.59088 4.78228 2.82501 -4.68285 3.19468 1.2707 -0.224778 -0.182026 -0.321245 0 0 0 0 0 0 -0.00889236 0.00322428 -0.162071 -5.92358 14.0899 -19.9829 -5.36326 3.50211 -0.220622 -0.228756 -0.203396 -0.331175 26.002 -5.52139 24.3137 -4.01766 2.94328 2.80898 -0.220827 -0.160642 -0.311229 
26.982 1 210 8.69163 2.70277 4.56699 -5.41003 4.57474 -0.532976 -0.211745 -0.0509076 0.284692 0 0 0 0 0 0 -0.040163 -0.140993 -0.0853183 2.72043 6.40514 12.486 -6.91269 5.34001 1.28387 -0.230077 -0.0729867 0.276162 17.5737 -2.30655 -4.60018 -3.91601 3.84715 -2.30994 -0.193453 -0.0287787 0.293323 
26.982 1 253 10.7828 4.74921 4.6447 2.02035 2.9878 -0.295944 0.226035 0.473086 0.199018 0 0 0 0 0 0 0.00826467 -0.00424169 -0.0603495 8.31649 1.24895 42.5036 1.37081 4.02842 6.23308 0.238412 0.474837 0.18584 15.6775 7.30967 -34.4016 2.66792 2.00351 -6.77939 0.213599 0.471383 0.212304 
26.982 1 16 11.1056 2.7752 2.89654 0.323555 -2.4089 1.43391 0.0764165 -0.443066 -0.107818 0 0 0 0 0 0 0.0170266 -0.0971435 -0.133106 9.67393 25.2245 -5.99286 -1.53586 1.26591 1.59049 0.0841752 -0.457421 -0.116259 15.0127 -20.973 10.3556 2.19766 -6.05609 1.31072 0.0687015 -0.428677 -0.0993133 
26.982 1 55 13.3886 4.64264 2.73019 0.593089 1.58635 -0.713609 -0.381717 0.0349056 -0.241441 0 0 0 0 0 0 0.0184246 -0.0261773 -0.191137 12.9719 7.989 14.7953 -0.161531 4.29094 2.93853 -0.402683 0.0545371 -0.251898 15.7005 0.279044 -10.6145 1.36796 -1.06826 -4.32314 -0.360752 0.0152567 -0.230976 
26.982 1 214 13.417 2.75876 4.69639 1.40909 -2.94592 -2.98591 -0.155155 -0.462897 -0.501867 0 0 0 0 0 0 0.00523879 -0.0703974 -0.0854721 26.6433 6.42572 11.7139 2.31469 -1.24105 -2.04749 -0.167522 -0.46491 -0.519833 2.07856 -2.15762 -3.59554 0.522464 -4.61444 -3.89355 -0.142755 -0.460898 -0.483873 
26.982 1 999 41.1183 16.3161 18.1728 -3.17607 -1.14478 1.59492 -0.261715 -0.00389555 0.0614555 0 0 0 0 0 0 -0.0417026 -0.016664 0.0442295 27.6597 20.6422 30.0081 -3.25794 -1.40869 2.99652 -0.269048 -0.0145313 0.0656646 49.1901 11.878 6.3366 -3.1003 -0.835995 0.221844 -0.254465 0.00678174 0.0572507 
26.982 1 213 10.8623 0.776504 4.76436 0.775378 -2.28079 3.41184 0.0328336 0.112873 -0.176206 0 0 0 0 0 0 -0.0309268 -0.17283 -0.155055 10.4463 2.76581 15.2532 0.336564 -0.532071 5.06734 0.0342916 0.113044 -0.200965 13.7094 -2.7263 -7.01371 1.2297 -3.9973 1.79013 0.0314093 0.112797 -0.151373 
26.982 1 20 15.5859 2.79044 2.58148 1.47598 3.12275 5.64814 -0.0108469 0.0272053 -0.0430315 0 0 0 0 0 0 0.0061218 -0.0979472 -0.209979 29.6055 -13.8457 6.61216 2.91754 2.61366 6.49937 -0.0195874 0.0366497 -0.033618 2.75385 18.2043 -2.76633 0.0380421 3.66686 4.84921 -0.00207415 0.017713 -0.0524162 
26.982 1 257 15.6739 4.64773 4.61101 2.00062 0.182047 3.76325 -0.179093 0.217708 0.197983 0 0 0 0 0 0 0.0025592 -0.0118008 -0.0594571 23.2186 -16.4532 13.7461 2.04874 -0.151766 7.28441 -0.190252 0.237378 0.208328 9.35759 24.6696 -5.7402 1.96317 0.559402 0.280324 -0.167913 0.198001 0.187658 
26.982 1 218 17.945 2.81002 4.34098 1.7368 6.69034 -2.09972 0.0684294 -0.279021 0.256204 0 0 0 0 0 0 0.0186575 -0.134851 -0.0851827 7.6918 -3.92759 1.28355 0.215403 7.61999 -1.92998 0.0657109 -0.29082 0.276026 28.7357 8.3491 6.20562 3.25314 5.80064 -2.22976 0.0710987 -0.267258 0.236417 
26.982 1 59 17.8006 4.88535 2.63536 0.409149 3.50546 3.42951 0.188496 0.0270206 -0.461965 0 0 0 0 0 0 0.00869189 -0.0143832 -0.216581 29.963 -9.71634 12.4027 1.47014 1.73258 5.70945 0.194794 0.0185538 -0.463784 6.15238 18.3946 -8.40435 -0.658749 5.30141 1.20354 0.182215 0.0354057 -0.460108 
26.982 1 145 24.8253 12.3709 0.86742 -0.771003 0.159362 0.786682 0.124242 0.180041 -0.0825643 0 0 0 0 0 0 -0.00117235 0.005439 -0.279342 28.7254 24.1956 46.7237 -0.657028 2.44385 1.23494 0.116167 0.198045 -0.0811054 19.7644 0.102654 34.8735 -0.878449 -2.0883 0.404771 0.132298 0.162095 -0.084049 
26.982 1 24 20.2655 2.67883 2.69995 2.85438 0.346629 -0.481224 0.387725 0.238181 0.00140694 0 0 0 0 0 0 0.0085587 -0.107048 -0.144408 11.0315 13.3337 13.602 1.37023 2.35347 1.63362 0.391008 0.232287 -0.00309766 29.4363 -9.12902 -9.53777 4.32967 -1.60554 -2.54512 0.38443 0.244051 0.00593361 
26.982 1 261 20.3666 4.61948 4.68191 2.41965 -1.00571 -0.534615 -0.310867 0.0948796 -0.103802 0 0 0 0 0 0 -0.00866438 -0.0334073 -0.0780954 20.3802 7.35717 2.76108 2.71419 1.07107 -0.573376 -0.318959 0.100462 -0.111669 20.2923 0.801389 5.41706 2.11634 -3.04601 -0.460296 -0.302815 0.0893397 -0.0959378 
26.982 1 7 3.714 0.887688 2.75849 -2.65956 2.5183 -0.651282 -0.13955 -0.190049 0.364649 0 0 0 0 0 0 -0.0142472 -0.231245 -0.0962993 2.64225 36.594 -1.69604 -1.98205 1.6099 1.07501 -0.139725 -0.197282 0.380362 8.96237 45.0257 5.92137 -3.34932 3.46352 -2.32397 -0.13945 -0.182879 0.348955 
26.982 1 63 22.4583 4.56952 2.65517 -1.84716 -3.61659 -10.0137 0.329707 0.375434 -0.00606511 0 0 0 0 0 0 0.0229186 -0.047611 -0.224044 28.6275 22.6691 9.23064 -1.75029 -0.404757 -8.40765 0.338239 0.390389 -0.00683032 15.7102 -14.6257 -5.20846 -1.94564 -6.79111 -11.5794 0.32118 0.360478 -0.00526441 
26.982 1 222 22.7454 2.78218 4.66093 1.94477 -5.37155 3.128 -0.29776 0.00188898 0.43873 0 0 0 0 0 0 -0.0259671 -0.0750477 -0.0767258 19.1198 16.2307 7.02764 2.04677 -3.39175 4.28042 -0.304813 0.00461722 0.456413 25.7542 -11.9016 1.10508 1.83079 -7.31065 2.0077 -0.290699 -0.000895729 0.421042 
26.982 1 28 24.9884 2.60331 2.68892 -1.63181 -1.06232 -0.750612 -0.106545 0.181974 -0.15722 0 0 0 0 0 0 0.00384161 -0.0864521 -0.208684 28.1583 9.70035 15.7009 -0.747434 -0.823745 1.4852 -0.107542 0.199852 -0.148605 20.7068 -5.67703 -11.8018 -2.51665 -1.24919 -2.97852 -0.105513 0.16404 -0.16579 
26.982 1 265 24.8463 4.51798 4.65172 0.839583 -2.60365 2.2192 0.11128 0.51922 0.433017 0 0 0 0 0 0 -0.00708307 0.00279921 -0.0660857 27.6261 -17.3478 2.92612 1.42245 -3.82046 3.55687 0.103327 0.554209 0.448322 20.9245 25.2752 5.12767 0.257515 -1.33848 0.907112 0.119215 0.484252 0.417666 
26.982 1 225 24.9257 0.865628 4.55168 -1.51193 -1.12219 2.79624 0.363426 0.449892 1.29734 0 0 0 0 0 0 0.0401138 -0.170139 -0.145493 32.5065 17.776 13.9998 0.0098555 0.263397 5.61288 0.368468 0.450212 1.3263 16.1146 -17.5427 -6.08116 -3.04762 -2.48059 0.0157864 0.358447 0.449478 1.26841 
26.982 1 2801 43.5563 20.1898 16.388 -0.925496 0.761267 3.95143 -0.289358 0.431365 -0.757467 0 0 0 0 0 0 -0.011268 0.0312165 -0.127315 39.6111 14.8007 33.4469 -1.93343 -0.0970446 6.09143 -0.304597 0.433391 -0.767505 41.5568 25.664 -0.779662 0.086133 1.64518 1.85506 -0.274121 0.429312 -0.747451 
26.982 1 403 -0.893681 0.979949 10.6791 -0.744065 -3.11584 2.30766 -0.0700344 -0.227141 0.0337798 0 0 0 0 0 0 -0.069079 -0.206128 -0.0341716 7.70081 60.2774 14.3604 0.298743 -1.60305 3.40486 -0.0563181 -0.246374 0.0558095 -4.06669 21.4212 6.3285 -1.7796 -4.5993 1.24233 -0.0838773 -0.207938 0.0116666 
26.982 1 67 27.0084 4.53844 2.70449 0.0260314 -6.32076 3.17859 0.253136 0.480478 0.0416235 0 0 0 0 0 0 -0.0293131 -0.00476142 -0.179577 26.5415 -4.85539 8.59924 -0.19497 -7.05495 2.68212 0.254806 0.498863 0.0537203 25.7552 12.785 -4.56693 0.250411 -5.54439 3.70302 0.25147 0.462079 0.0295192 
26.982 1 226 27.2126 2.9007 4.87298 1.66829 5.71309 0.453488 -0.156814 -0.4161 -0.226483 0 0 0 0 0 0 0.0303855 -0.117818 -0.0932101 27.6244 -7.9026 15.1493 2.06074 4.9037 2.98144 -0.162745 -0.415507 -0.225163 25.1051 12.6138 -6.70326 1.28434 6.58392 -2.05047 -0.15091 -0.416816 -0.227845 
26.982 1 32 29.4053 2.67599 2.77017 -0.884061 4.8772 -5.11431 0.37454 -0.230105 -0.116011 0 0 0 0 0 0 0.0519922 -0.219026 -0.138967 13.3973 9.5259 22.3849 -2.35356 7.8434 -2.64843 0.389166 -0.235386 -0.115295 43.069 -5.33835 -18.239 0.59761 1.96917 -7.54912 0.359861 -0.224886 -0.116734 
26.982 1 269 29.6373 4.55337 4.57939 -1.66989 3.47583 2.01784 0.185057 -0.0759415 0.887311 0 0 0 0 0 0 0.0157336 -0.065031 -0.0447321 26.9093 14.31 23.8697 -2.08443 4.51408 4.95159 0.196636 -0.0704985 0.904857 30.0761 -6.33429 -15.8492 -1.23783 2.47922 -0.874546 0.173473 -0.0813891 0.869828 
26.982 1 421 20.0882 0.91247 8.63436 -3.42795 -0.364377 1.03279 0.217095 -0.0303091 -0.432654 0 0 0 0 0 0 0.0236989 -0.171873 -0.124764 19.2708 59.4221 16.8814 -2.73599 0.168967 3.56453 0.227827 -0.0284062 -0.455555 20.8971 22.2116 -0.470179 -4.13189 -0.872891 -1.46331 0.206323 -0.032254 -0.409733 
26.982 1 2611 8.52113 20.2944 14.4601 2.70271 3.32261 1.09917 0.174329 -0.416235 -0.491531 0 0 0 0 0 0 -0.0611795 0.0918938 -0.153135 7.90778 39.6666 35.3408 1.37514 6.27332 1.2655 0.158486 -0.416556 -0.503747 12.0891 0.99033 -6.74332 4.03467 0.380401 0.961517 0.190254 -0.415904 -0.479371 
26.982 1 122 -1.01346 14.2602 0.840658 -1.12025 1.0433 -2.49756 0.463332 0.0765928 -0.200311 0 0 0 0 0 0 -0.0280721 -0.00646239 -0.26164 -4.97797 1.44664 22.5614 -2.42691 -0.97142 -0.565658 0.47892 0.0844531 -0.208395 8.41306 26.947 -22.6924 0.199466 3.10942 -4.42012 0.447759 0.0687345 -0.192174 
26.982 1 62 22.5896 6.91869 1.01635 -0.844139 -0.235761 -6.1423 0.298015 -0.693673 -0.073612 0 0 0 0 0 0 0.0485713 -0.045959 -0.28325 24.5063 19.425 19.1321 -1.07364 1.92319 -3.39459 0.315293 -0.718923 -0.0909179 20.09 -6.63918 -18.5474 -0.611424 -2.37108 -8.83791 0.280743 -0.668447 -0.0563315 
26.982 1 998 40.6966 18.3542 16.4299 -0.623858 -4.84469 3.57946 0.486692 0.566021 0.236507 0 0 0 0 0 0 -0.0142943 0.0996703 -0.0292689 29.7001 45.6835 28.2955 -0.697374 -1.33651 4.78595 0.500606 0.569153 0.242964 46.3874 -9.08766 4.40561 -0.544926 -8.33643 2.41453 0.472704 0.562881 0.230132 
26.982 1 71 32.0772 4.59762 2.5828 0.533828 0.381192 -0.146893 -0.312362 0.027678 0.452517 0 0 0 0 0 0 0.02905 -0.100727 -0.18106 30.2707 16.8165 0.570546 0.640343 2.73619 0.751006 -0.318345 0.0351768 0.463506 30.8507 -8.74445 3.34355 0.427731 -1.92801 -0.990583 -0.306371 0.0202042 0.441535 
26.982 1 230 31.8828 2.56965 4.79205 -0.98131 0.261199 1.37875 -0.23575 0.458526 -0.216141 0 0 0 0 0 0 -0.00256906 -0.156878 -0.137289 15.9768 -5.57233 -3.21726 -2.87392 -0.949653 -1.38362 -0.247068 0.485137 -0.231746 44.8136 9.60462 11.7049 0.922257 1.53258 4.18338 -0.224433 0.431896 -0.200491 
26.982 1 273 34.2209 4.52387 4.51367 1.39941 -0.179669 0.396674 0.0901287 0.507627 0.557287 0 0 0 0 0 0 -0.0138471 -0.0571329 -0.0804489 43.0239 21.0514 -6.88989 2.75865 -0.290474 -2.51649 0.0817849 0.517773 0.556624 21.7236 -13.1603 14.7376 0.0280175 -0.0363665 3.35474 0.0985788 0.497562 0.558022 
26.982 1 36 34.2179 2.56637 2.81932 6.72855 0.373498 -2.50481 0.260202 0.000362791 -0.708578 0 0 0 0 0 0 -0.0621413 -0.160595 -0.175943 37.0068 -2.01901 -10.489 9.03311 -0.545766 -5.14139 0.270867 0.0129235 -0.724619 27.7497 5.95009 14.8954 4.4087 1.34263 0.179389 0.249595 -0.0121573 -0.692531 
26.982 1 39 41.3167 0.884904 2.93093 0.896773 3.38318 3.25494 0.334579 -0.0407059 -0.155591 0 0 0 0 0 0 -0.0198297 -0.231191 -0.0796955 38.5456 35.7487 14.82 0.547103 3.84488 4.69144 0.33694 -0.0405981 -0.170899 38.673 45.864 -10.1253 1.26204 2.96113 1.87821 0.3323 -0.0407738 -0.140332 
26.982 1 2225 24.7393 20.2771 4.80608 -3.00278 0.0168864 -2.65976 0.0830873 -0.267582 -0.50213 0 0 0 0 0 0 -0.0596611 0.0632677 -0.153241 23.9212 34.5729 -18.5042 -4.2962 1.29598 -6.71418 0.0865817 -0.275042 -0.53391 24.2544 6.20484 26.9056 -1.70012 -1.22868 1.41553 0.0795471 -0.260128 -0.470339 
26.982 1 75 36.8677 4.84492 2.85087 -3.15843 -0.0786652 -0.0846841 -0.603358 -0.408506 0.633193 0 0 0 0 0 0 -0.0428008 -0.0204121 -0.167611 39.7837 21.0077 5.45825 -2.79919 2.56746 0.0949041 -0.618236 -0.438077 0.638328 29.6114 -12.5522 -0.971086 -3.53661 -2.69225 -0.19768 -0.588405 -0.378819 0.628073 
26.982 1 234 36.7656 2.73857 4.75871 -2.43171 -2.76742 -5.42323 -0.206919 0.625726 -0.324142 0 0 0 0 0 0 -0.0139769 -0.117133 -0.0875166 49.7811 0.161352 -1.32573 -0.883538 -3.31689 -7.38321 -0.210466 0.637837 -0.350944 19.4413 4.06713 9.7774 -3.99593 -2.17065 -3.40853 -0.203302 0.613684 -0.297276 
26.982 1 40 39.2287 2.49113 3.03135 -5.38812 -6.16187 -1.70224 -0.482973 0.820155 -0.440845 0 0 0 0 0 0 -0.0149789 -0.15523 -0.101671 47.1192 20.6708 -7.6071 -5.21749 -5.1378 -3.31635 -0.481574 0.833225 -0.462016 26.4313 -16.9889 12.4409 -5.55996 -7.15202 -0.0355603 -0.484271 0.80719 -0.41968 
26.982 1 277 38.9697 4.93537 4.72501 4.70303 -1.95126 -1.6241 -0.184174 -0.549053 -0.142091 0 0 0 0 0 0 -0.00248625 -0.0463354 -0.0592319 36.8982 29.1748 -4.80233 4.1741 -0.0258894 -1.97447 -0.186874 -0.576624 -0.150379 36.1312 -20.4435 13.2179 5.22884 -3.83017 -1.20654 -0.181428 -0.521403 -0.133746 
26.982 1 35 36.5936 0.781194 2.98558 -6.28161 -3.81954 -3.28036 0.0398204 -0.127944 -0.871853 0 0 0 0 0 0 -0.0226834 -0.215828 -0.120515 27.4078 5.2602 6.06359 -6.91026 -3.65721 -3.93466 0.043304 -0.119894 -0.909807 41.5365 -5.01113 -1.33636 -5.66319 -3.93119 -2.58302 0.0363762 -0.135937 -0.833906 
26.982 1 101 20.4158 8.68128 1.06306 1.32122 -2.99032 0.149824 -0.392555 0.0269536 -0.888127 0 0 0 0 0 0 0.00744907 -0.00436885 -0.290004 18.687 0.88185 38.5814 1.77578 -4.77693 -0.762343 -0.403372 0.0106716 -0.908895 22.1165 15.6974 43.2428 0.866769 -1.16324 1.09224 -0.381754 0.0432541 -0.867376 
26.982 1 4 43.4968 2.77457 2.97546 -2.52327 -4.76802 -1.93865 -0.0440256 0.0448591 0.018038 0 0 0 0 0 0 0.0255919 -0.086141 -0.127877 23.7349 -1.03807 6.31135 -3.75857 -4.73588 -1.44173 -0.0408621 0.052516 0.00307783 57.2649 5.28051 -1.63308 -1.28615 -4.77032 -2.38747 -0.047192 0.0372374 0.0329684 
26.982 1 79 41.1294 4.71062 2.85135 -0.925903 -1.10614 2.11819 -0.00516806 -0.0157631 0.0656732 0 0 0 0 0 0 0.020714 0.0121414 -0.185582 31.2206 29.1763 -18.3207 -2.18137 1.67473 -1.36827 -0.00264485 -0.0143966 0.0440914 45.5878 -20.9217 22.8221 0.334182 -3.85655 5.65638 -0.00770161 -0.0170761 0.0873074 
26.982 1 238 41.4692 2.8353 5.04006 -1.15402 -0.76432 -1.33729 -0.410905 -0.285064 -0.521857 0 0 0 0 0 0 0.00126007 -0.121288 -0.0610454 48.2723 -4.94701 -6.17357 -1.24155 -2.07369 -3.05508 -0.416117 -0.295848 -0.535268 29.1806 9.3611 15.1735 -1.06815 0.582965 0.424027 -0.40567 -0.274197 -0.508433 
26.982 1 995 36.3868 16.4588 18.3538 -0.0527403 0.335571 -0.191912 0.15252 -0.452992 -0.0623154 0 0 0 0 0 0 -0.0196698 -0.0184463 0.00116334 34.6288 20.7418 27.7667 -0.772955 0.129079 -1.47681 0.152845 -0.470167 -0.0737667 33.9793 11.9801 8.96779 0.680412 0.568748 1.13458 0.152183 -0.435762 -0.0508562 
26.982 1 83 -0.879293 8.60955 2.70469 6.36505 -1.85723 0.191572 -0.0921207 0.408634 -0.036553 0 0 0 0 0 0 -0.109699 -0.00740873 -0.202434 -4.89388 27.9406 11.578 6.28378 -1.24414 -0.083671 -0.101421 0.413413 -0.0545985 8.59967 -11.5744 -7.48889 6.44681 -2.4341 0.528829 -0.0827995 0.403889 -0.0184546 
26.982 1 242 -0.831685 6.5192 4.3364 -3.59868 -2.08332 -2.02723 -0.0513912 0.196418 0.447981 0 0 0 0 0 0 -0.135537 -0.0451165 -0.0843886 -9.73939 21.3467 14.6482 -4.94786 0.00571645 -0.949692 -0.0571963 0.199494 0.464422 13.5247 -9.29562 -7.02265 -2.25504 -4.13895 -3.03798 -0.0456722 0.193349 0.431571 
26.982 1 44 43.2695 6.70518 2.71985 -1.50454 3.86578 0.350377 0.187546 -0.272613 -0.584488 0 0 0 0 0 0 0.0150555 -0.0305681 -0.237402 35.9555 37.9223 1.2873 -0.31635 8.48375 -0.0949794 0.181879 -0.276902 -0.611254 44.6324 -25.5065 2.83067 -2.69279 -0.718006 0.846141 0.193144 -0.268401 -0.55762 
26.982 1 281 -3.10383 8.37926 4.71588 -3.55609 -3.75094 -0.966743 -0.147674 0.463512 -0.461706 0 0 0 0 0 0 -0.126071 -0.113187 -0.161953 43.9869 37.3898 4.03151 -3.30218 -2.09996 -1.00698 -0.145198 0.476408 -0.472581 37.0818 -21.4978 4.27248 -3.82317 -5.38782 -0.869154 -0.1502 0.450584 -0.450809 
26.982 1 48 1.48177 6.39938 2.72216 4.18857 0.420128 3.80413 0.002173 0.0359736 0.0726433 0 0 0 0 0 0 -0.00686385 -0.0415518 -0.191407 -22.7479 33.3661 -17.6852 0.828449 6.25166 0.113171 0.00689702 0.0356995 0.0642854 30.6644 -21.6009 21.7154 7.56791 -5.38257 7.52301 -0.00259532 0.0363152 0.0809922 
26.982 1 285 1.38293 8.50681 4.56268 -1.00288 3.56072 -1.57844 0.103351 -0.316869 0.189666 0 0 0 0 0 0 -0.00538499 -0.00454607 -0.0386293 -20.9268 29.2208 3.70629 -3.82665 7.01735 -1.70357 0.108119 -0.320138 0.217907 28.6569 -13.1504 4.18244 1.83614 0.121318 -1.41165 0.0985242 -0.313553 0.161412 
26.982 1 87 3.85071 8.46582 2.68458 -0.500017 -1.72396 -0.727671 -0.143245 0.0348606 0.148732 0 0 0 0 0 0 -0.00707616 0.00766652 -0.186382 -6.92843 15.1072 10.6064 -2.49387 -1.45948 0.0158003 -0.137154 0.0329526 0.164184 18.972 1.03256 -6.6066 1.51256 -1.94245 -1.42984 -0.149353 0.0368358 0.133277 
26.982 1 246 3.69146 6.6934 4.65176 3.4615 1.62482 4.6133 0.123497 0.0144264 0.684092 0 0 0 0 0 0 0.010924 -0.00385302 -0.0379196 10.7214 10.8369 16.7781 4.07933 1.41548 6.13095 0.134173 0.010346 0.707439 0.985217 1.5775 -8.74718 2.85852 1.8735 3.13164 0.112845 0.0185441 0.660722 
26.982 1 88 1.62987 10.395 2.75807 3.29232 -2.42893 -0.481798 -0.170578 0.342294 -0.408963 0 0 0 0 0 0 -0.0138628 0.0359898 -0.214685 -18.6903 20.9948 12.1173 0.164153 -1.71742 0.872854 -0.164297 0.346478 -0.415431 26.9468 -0.896632 -8.00574 6.44477 -3.10107 -1.78595 -0.176857 0.338154 -0.402512 
26.982 1 49 6.2438 4.28621 0.814969 0.168353 0.295433 -1.99258 0.00425439 0.804103 0.4942 0 0 0 0 0 0 -0.0029163 0.0417334 -0.254648 18.1493 -10.9396 -15.8757 1.57119 0.00301791 -2.78561 0.0127576 0.824969 0.512363 -2.15591 18.3979 16.1059 -1.25306 0.634478 -1.13529 -0.00423244 0.783349 0.476049 
26.982 1 289 6.09668 8.29223 4.78504 5.13759 0.652304 0.683074 -0.27365 0.542765 0.083961 0 0 0 0 0 0 -0.0170799 0.0224732 -0.0280518 19.6642 12.0598 33.0266 7.37507 2.26669 4.93704 -0.290968 0.569924 0.092249 -3.8658 3.67591 -24.7301 2.89796 -0.929755 -3.5421 -0.256287 0.515662 0.0756551 
26.982 1 52 6.13937 6.53852 2.59681 3.44622 -1.11248 -2.76939 -0.0259104 -0.0545145 -0.0856104 0 0 0 0 0 0 0.00617609 0.00722727 -0.182445 13.174 4.6714 13.8914 4.90185 -1.7519 -1.42467 -0.0249732 -0.0602812 -0.0819269 2.64392 7.48383 -9.93341 1.98088 -0.422469 -4.0603 -0.0268313 -0.0486887 -0.0892204 
26.982 1 91 8.33631 8.73583 3.06943 0.436786 2.11194 -3.639 -0.0301312 -0.406531 -0.608714 0 0 0 0 0 0 0.0182608 -0.0403365 -0.17302 14.5153 4.35364 11.1669 1.72951 1.54809 -2.55134 -0.0306923 -0.418692 -0.640542 5.05473 12.2976 -6.29596 -0.875262 2.7182 -4.68981 -0.0296041 -0.394418 -0.576853 
26.982 1 250 8.38996 6.6057 4.80594 3.39177 -0.227589 -2.8455 0.0927747 0.0589594 -0.128605 0 0 0 0 0 0 -0.00143138 -0.00759266 -0.0633127 11.346 14.9292 36.3448 4.49651 -0.031266 -0.335096 0.0862838 0.0483129 -0.144804 8.33753 -2.4935 -28.1779 2.26921 -0.361337 -5.35121 0.099268 0.0696124 -0.112357 
26.982 1 92 6.07229 10.5337 2.79038 2.09095 4.66233 0.52635 -0.017879 0.303515 0.650149 0 0 0 0 0 0 -0.0314082 0.0114258 -0.129677 4.91912 9.47927 15.7935 2.14352 4.59285 0.489351 -0.0156415 0.31585 0.665755 10.8154 10.9611 -11.4641 2.03474 4.77235 0.613367 -0.0201589 0.291207 0.634539 
26.982 1 290 8.2966 10.6363 4.86683 2.0749 0.395659 -2.53926 -0.130406 -0.129723 -0.343339 0 0 0 0 0 0 -0.018224 -0.00285194 -0.0429092 13.8815 29.5683 51.8708 3.08359 1.81847 2.02499 -0.149673 -0.128568 -0.353969 5.63129 -9.05116 -43.3599 1.05231 -1.00441 -7.08704 -0.111125 -0.1309 -0.332698 
26.982 1 293 10.6972 8.64233 4.64389 1.10477 -2.37545 0.293739 -0.122658 0.42083 0.519517 0 0 0 0 0 0 0.00993877 -0.00466374 -0.0598298 11.9474 29.7524 44.0283 2.13544 -0.535953 5.15526 -0.111081 0.416591 0.518652 11.8241 -13.4191 -36.0051 0.062543 -4.1938 -4.56143 -0.134284 0.425086 0.520522 
26.982 1 56 10.5205 6.85767 2.79111 4.14758 0.978642 1.65142 0.385675 -0.522655 -0.619853 0 0 0 0 0 0 -0.00199849 0.0123804 -0.207703 17.0169 13.4235 17.7145 4.35154 -0.0618437 4.2406 0.407421 -0.542639 -0.642546 6.46836 -0.618817 -13.3943 3.94292 2.06146 -0.885896 0.363883 -0.502706 -0.597068 
26.982 1 95 13.0005 8.89343 2.75676 2.63207 0.953141 -1.2795 0.0345071 -0.328185 -0.347897 0 0 0 0 0 0 -0.0248675 -0.00451512 -0.191876 9.33599 19.0197 -9.15191 2.51337 0.0127021 -2.43656 0.0430096 -0.352561 -0.361144 18.481 -2.16914 13.4219 2.75437 1.90214 -0.0806707 0.0259894 -0.303849 -0.334535 
26.982 1 254 12.9246 6.78753 4.56043 -1.13966 -4.22462 0.0447906 0.174279 -0.193583 0.174236 0 0 0 0 0 0 0.0106762 -0.0217997 -0.0502042 6.99495 1.14637 43.5479 -1.6921 -4.3877 7.16743 0.187517 -0.217648 0.17653 20.7366 11.53 -35.7272 -0.576162 -4.0208 -7.051 0.160986 -0.169564 0.172048 
26.982 1 2031 31.7235 20.2218 2.71352 -1.16406 1.49053 3.61302 0.00371264 0.275263 -0.567191 0 0 0 0 0 0 -0.14712 0.0766839 -0.154885 13.7356 39.3066 22.8815 -2.35562 4.70566 6.21145 -0.000578508 0.28179 -0.567283 46.6865 1.51691 -18.8157 0.00969669 -1.67607 1.04314 0.00797275 0.268715 -0.56711 
26.982 1 60 15.3735 6.61019 2.69424 -5.53295 -0.358471 -3.78128 -0.0157807 0.0175113 -0.164313 0 0 0 0 0 0 0.0128171 -0.0319292 -0.183552 29.9314 6.65677 -3.13908 -4.33216 -0.275387 -2.48813 -0.0294159 0.0255136 -0.168661 2.003 5.52656 7.22528 -6.72582 -0.41645 -5.03052 -0.00209594 0.00948934 -0.159948 
26.982 1 297 15.3729 8.42229 4.65717 -2.96519 -1.09407 2.01861 -0.0245493 -0.487819 0.0252111 0 0 0 0 0 0 -0.0014946 -0.0201944 -0.0358423 25.9426 38.2794 1.23408 -2.3172 3.99477 2.17465 -0.021254 -0.504776 0.0321254 6.04132 -22.3073 6.86605 -3.60394 -6.16017 1.88722 -0.0277988 -0.470855 0.0183467 
26.982 1 99 17.7706 8.42195 2.70915 -2.79598 2.4641 1.67881 0.0868193 -0.141968 -0.1285 0 0 0 0 0 0 -0.00286815 -0.0370524 -0.17073 25.4119 18.7649 8.17115 -1.66969 4.82053 5.11816 0.0817865 -0.141643 -0.145248 10.7236 -2.82659 -4.02989 -3.91785 0.138276 -1.71471 0.0919319 -0.142256 -0.111766 
26.982 1 258 17.8 6.54786 4.67176 -5.439 -1.93051 1.16969 0.0852831 0.280232 0.279099 0 0 0 0 0 0 -0.00103816 -0.00933771 -0.0466247 16.2064 8.1182 5.11825 -5.46058 -1.83652 1.40565 0.0818773 0.279903 0.282454 19.9204 3.98613 3.01417 -5.42098 -2.00322 0.962081 0.0887588 0.280549 0.27576 
26.982 1 10 8.69981 2.63434 1.09412 -1.57936 0.598465 -8.11189 -0.279671 0.151518 -0.0758304 0 0 0 0 0 0 -0.0125348 -0.0936578 -0.195255 18.4506 6.08957 -8.12689 -0.607434 1.96361 -8.45504 -0.289867 0.155346 -0.0811289 1.92459 -2.16503 8.91776 -2.55529 -0.741591 -7.70614 -0.269547 0.147824 -0.0705771 
26.982 1 2005 1.40241 20.2124 1.01648 -2.48855 -1.4886 1.64368 0.232463 0.0399433 -0.132252 0 0 0 0 0 0 -0.113831 0.0310351 -0.222581 -1.48238 25.8737 72.7141 -2.27056 -1.5516 6.52278 0.226517 0.0329384 -0.127445 9.0944 14.5941 8.98952 -2.69799 -1.41392 -3.21112 0.238471 0.046887 -0.137168 
26.982 1 64 20.2405 6.61144 2.61342 0.535269 3.70068 -2.64245 -0.452622 -0.19051 0.5253 0 0 0 0 0 0 -0.0265268 -0.057582 -0.188689 21.8197 2.74384 -0.195325 0.392779 4.21011 -1.86394 -0.462427 -0.199939 0.531374 18.6062 9.54552 4.11252 0.670037 3.23153 -3.37498 -0.442837 -0.181067 0.519284 
26.982 1 301 20.0294 8.65805 4.52521 -6.30662 -1.35024 6.20238 0.265941 -0.496212 0.131479 0 0 0 0 0 0 0.00757354 -0.0153961 -0.0395163 14.2413 -3.85232 1.08064 -6.77439 -1.64806 7.39628 0.274163 -0.510657 0.138399 25.766 20.3021 6.81769 -5.83647 -1.02765 5.0504 0.257737 -0.481762 0.124582 
26.982 1 433 34.2051 0.799292 8.40753 -1.26065 -1.50197 1.70141 0.0348307 0.00873297 0.50031 0 0 0 0 0 0 -0.0554789 -0.196747 -0.133426 21.8239 26.9673 13.6576 -1.91691 2.34875 3.8495 0.0295562 0.0156585 0.522075 42.9976 -26.7692 2.33935 -0.602266 -5.30427 -0.407301 0.0401768 0.00183327 0.478592 
26.982 1 103 22.612 8.92156 2.7575 -3.20146 1.17638 -1.61383 0.147941 -0.366504 -0.172861 0 0 0 0 0 0 0.036792 0.003773 -0.18806 16.396 22.765 -2.04332 -3.9663 2.73381 -3.54584 0.156698 -0.376374 -0.176581 28.1773 -5.66833 6.27497 -2.43572 -0.329972 0.36131 0.139153 -0.356596 -0.169133 
26.982 1 262 22.3115 6.59877 4.52006 -0.299209 -6.87451 -0.0860877 0.385051 0.19095 -0.150473 0 0 0 0 0 0 0.0220058 -0.0076418 -0.0591941 19.0346 3.05118 2.22998 -0.683978 -6.9502 -0.447608 0.40599 0.190854 -0.149579 24.9705 9.16204 5.64839 0.086869 -6.75535 0.312439 0.364074 0.191073 -0.151379 
26.982 1 305 24.8134 8.70352 4.62705 -6.362 -0.20782 0.396717 -0.0440302 -0.313828 0.924432 0 0 0 0 0 0 0.00360573 -0.0230665 -0.04748 26.3638 48.6731 -16.3018 -6.24457 4.08196 -0.962242 -0.0421922 -0.329941 0.938561 22.0865 -32.0516 24.3793 -6.47358 -4.45994 1.79408 -0.0458815 -0.297698 0.910276 
26.982 1 68 24.8234 6.79391 2.91711 1.54127 -0.246086 1.50738 -0.0707907 -0.797029 -0.654024 0 0 0 0 0 0 0.0176439 -0.0294633 -0.207056 28.8562 18.1667 3.54042 2.27227 0.562515 1.13729 -0.0757284 -0.820699 -0.669036 19.6036 -5.59418 0.949724 0.809247 -1.00875 1.9162 -0.0658484 -0.77339 -0.639096 
26.982 1 107 27.1984 8.55869 2.74749 5.28614 1.06956 -1.75905 0.0346173 -0.341268 0.639313 0 0 0 0 0 0 -0.0291933 -0.0396397 -0.184821 23.3962 35.9307 5.51691 5.70152 3.09202 -1.51062 0.0375322 -0.347811 0.649147 29.2058 -19.7997 -1.28885 4.87268 -0.938208 -1.9516 0.0317029 -0.334716 0.629427 
26.982 1 266 27.2857 6.49813 4.53253 -2.08145 -5.60705 1.16284 -0.359904 -0.390876 0.522421 0 0 0 0 0 0 -0.0208459 -0.00400346 -0.042222 33.3331 15.0806 0.476111 -1.49659 -6.40965 1.97466 -0.372395 -0.38565 0.551347 19.5222 -3.06563 7.44091 -2.658 -4.757 0.395541 -0.347432 -0.396044 0.493523 
26.982 1 72 29.3695 6.39212 2.85269 1.69785 1.37376 2.2131 0.560857 0.710012 -0.5531 0 0 0 0 0 0 -0.0140185 0.00325185 -0.14618 24.4104 22.9134 17.1487 0.440701 3.43451 3.21907 0.58507 0.731984 -0.54871 31.9504 -11.1606 -12.6583 2.95778 -0.64725 1.26403 0.536631 0.688147 -0.557531 
26.982 1 309 29.515 8.50514 4.66079 -3.76741 1.14253 -1.53572 0.0197962 0.0132627 -0.414937 0 0 0 0 0 0 -0.00471674 0.0159193 -0.0378311 29.0521 14.2517 -11.4121 -4.17007 0.637766 -1.12225 0.0196472 0.0250802 -0.404 27.6281 1.84138 19.6291 -3.3593 1.67133 -1.89969 0.0199553 0.00151012 -0.425828 
26.982 1 111 31.9568 8.78267 2.86433 -1.71551 4.71462 -5.47014 -0.507778 -0.545895 -0.53345 0 0 0 0 0 0 -0.0169871 0.0125837 -0.173786 33.9001 9.53387 -15.6653 -1.17765 4.93679 -7.76006 -0.532908 -0.579259 -0.54831 27.0387 7.22036 20.0695 -2.25752 4.52882 -3.1452 -0.482564 -0.51255 -0.518611 
26.982 1 270 31.8927 6.60303 4.56439 -1.90755 3.88267 3.82379 0.0748305 -0.277523 -0.330083 0 0 0 0 0 0 0.00227937 -0.0304113 -0.0548248 39.4425 40.5137 12.7986 -1.42234 8.22841 6.21949 0.0689942 -0.293521 -0.333107 21.3409 -28.2086 -4.74501 -2.39023 -0.418769 1.48579 0.0807319 -0.261471 -0.327004 
26.982 1 76 34.5917 6.69374 2.7895 1.45048 -0.833167 0.0950051 -0.800352 -0.576983 -0.532771 0 0 0 0 0 0 0.00247655 -0.0625774 -0.200197 44.2885 40.2011 -33.9517 3.23815 4.10934 -2.64092 -0.827944 -0.602752 -0.54331 21.2079 -27.7065 38.2428 -0.355895 -5.73031 2.88396 -0.772607 -0.551118 -0.522233 