ITEM: TIMESTEP
14375
ITEM: NUMBER OF ATOMS
4000
ITEM: BOX BOUNDS pp pp pp
-2.9958 43.4958
0.763582 39.7364
0.82276 39.6772
ITEM: ATOMS mass type id x y z vx vy vz fx fy fz xrad yrad zrad vxrad vyrad vzrad fxrad fyrad fzrad xub yub zub vxub vyub vzub fxub fyub fzub xlb ylb zlb vxlb vylb vzlb fxlb fylb fzlb 
26.982 1 43 -0.651877 4.55939 2.66412 3.93972 1.45241 5.17068 -0.0309714 0.0654978 0.22012 0 0 0 0 0 0 -0.0988126 -0.0945412 -0.218796 -16.9554 1.67646 16.9015 2.42433 3.33203 7.59469 -0.0301199 0.0687348 0.228786 20.984 6.30461 -13.0005 5.45598 -0.396657 2.77304 -0.0317953 0.0622828 0.21147 
26.982 1 202 -0.893574 2.65361 4.65947 5.42337 -0.478848 5.42934 0.330685 -0.173544 0.109215 0 0 0 0 0 0 -0.0693226 -0.161434 -0.188065 2.46606 -14.8316 5.19432 6.39113 -2.12224 5.28086 0.335654 -0.179224 0.104341 1.08449 18.8829 3.00184 4.45866 1.19308 5.6198 0.325682 -0.167916 0.114089 
26.982 1 241 -2.95321 4.67892 4.67743 -2.96806 -0.454319 -6.23613 -0.125363 -0.122843 0.274289 0 0 0 0 0 0 -0.0907296 -0.146333 -0.159756 -6.08965 11.9734 -11.3061 -2.03202 0.498731 -9.84028 -0.123144 -0.135166 0.272074 6.01115 -3.67401 19.5155 -3.91258 -1.36425 -2.60215 -0.12756 -0.110611 0.276533 
26.982 1 245 1.4556 4.58637 4.60441 2.3702 4.76839 4.10508 0.0522027 0.0582394 -0.0212684 0 0 0 0 0 0 -0.0270535 -0.0497958 -0.0694588 -2.57405 7.71178 3.4276 0.983874 5.87834 3.72495 0.0468749 0.0680419 -0.00919663 10.2481 0.384926 4.59385 3.76524 3.69822 4.52453 0.0574984 0.0484762 -0.0333866 
26.982 1 8 1.73927 2.54791 2.67244 -0.501761 -1.04191 -4.13276 -0.402434 0.599811 -0.0990542 0 0 0 0 0 0 -0.0664251 -0.176468 -0.171658 -3.76274 16.7469 2.91945 -1.22518 0.338461 -4.27804 -0.416591 0.617895 -0.0957076 11.9875 -12.9691 1.06562 0.22873 -2.40712 -3.95388 -0.388338 0.581744 -0.10242 
26.982 1 47 3.92396 4.66465 2.72887 1.17917 4.36842 -2.06861 0.1234 -0.250105 -0.0172653 0 0 0 0 0 0 0.0377986 -0.079741 -0.188339 -3.24943 18.1788 -5.31982 0.0489734 6.31013 -4.44757 0.126701 -0.26432 -0.0219394 15.2086 -9.7969 9.41212 2.31534 2.48426 0.339001 0.120069 -0.235844 -0.0126221 
26.982 1 206 3.81254 2.67635 4.59528 0.764293 4.08638 -5.27428 0.409757 -0.322273 0.0412641 0 0 0 0 0 0 0.00409442 -0.136642 -0.0906267 9.1574 -11.6259 22.0755 1.17112 4.89928 -2.74642 0.422132 -0.312283 0.0475698 2.56976 15.7486 -13.9897 0.361617 3.32459 -7.7587 0.397378 -0.332259 0.0349332 
26.982 1 7 4.06371 0.703792 2.71584 1.21612 0.559619 -6.41622 -0.142906 -0.0701311 -0.3171 0 0 0 0 0 0 0.00555079 -0.186511 -0.146667 2.70037 36.6026 -2.49227 1.43244 0.791655 -5.48444 -0.139242 -0.0589232 -0.321406 9.47801 44.691 6.62069 0.996247 0.360344 -7.29858 -0.146594 -0.0813706 -0.312746 
26.982 1 45 1.70477 4.708 0.898839 4.7279 2.08844 -1.338 -0.315799 0.277286 0.295645 0 0 0 0 0 0 -0.05249 -0.05612 -0.262 0.763998 4.33915 46.4099 3.98856 3.43932 -0.18426 -0.329152 0.275266 0.299433 7.39533 4.03198 35.1653 5.47572 0.780318 -2.45838 -0.302477 0.279333 0.291883 
26.982 1 249 6.25803 4.64989 4.71477 -5.87795 1.10699 2.93866 -0.0950235 -0.39332 0.0229233 0 0 0 0 0 0 0.00783707 -0.0638039 -0.0813493 7.8129 -9.40334 11.9172 -6.35945 -0.581139 3.93296 -0.100207 -0.420781 0.0246826 8.12964 17.7105 -3.65806 -5.40267 2.8412 1.98456 -0.0898437 -0.365914 0.0211012 
26.982 1 12 6.34711 2.52389 2.68247 -2.14079 -0.719918 -3.15599 -0.261149 0.146381 0.556926 0 0 0 0 0 0 0.0380712 -0.139891 -0.207466 7.86064 7.09898 -5.70779 -2.66244 0.345098 -3.9421 -0.276203 0.153415 0.556884 8.26237 -3.24131 9.76177 -1.6284 -1.7394 -2.33175 -0.246106 0.139342 0.556991 
26.982 1 51 8.5768 4.55038 2.74835 -2.34598 -2.37307 4.50573 0.0325602 -0.251318 -0.835829 0 0 0 0 0 0 -0.0103018 -0.0550158 -0.270616 -5.68009 13.6536 -19.5114 -3.05127 -2.25891 3.19644 0.0263014 -0.251137 -0.854177 25.6447 -5.52822 23.681 -1.65522 -2.437 5.8549 0.0388214 -0.251469 -0.817497 
26.982 1 210 8.7916 2.7046 4.54172 -1.83352 0.0348109 1.57617 -0.514207 0.190495 0.736936 0 0 0 0 0 0 -0.0440355 -0.131907 -0.146148 3.19101 5.99177 11.6089 -2.36172 1.43733 3.93517 -0.535534 0.183698 0.742011 17.2164 -1.85263 -3.78135 -1.31809 -1.33564 -0.745703 -0.49288 0.197233 0.731822 
26.982 1 253 10.9031 4.44253 4.77041 -0.162544 -4.05361 0.232662 0.0620927 0.615785 -0.121145 0 0 0 0 0 0 -0.00267112 -0.0156875 -0.0856409 8.66367 0.428212 39.7122 -0.74688 -3.22235 6.52965 0.0654704 0.643763 -0.115475 15.4975 7.53604 -31.3666 0.420578 -4.82614 -6.02161 0.0587487 0.58781 -0.12686 
26.982 1 16 11.0157 2.63225 2.72606 -0.397985 -4.72593 -3.1944 0.0569647 0.253797 -0.0873623 0 0 0 0 0 0 -0.0254691 -0.129286 -0.238459 10.3032 23.391 -6.30749 -1.86397 -0.827957 -2.72872 0.0612477 0.249771 -0.105106 14.1251 -19.3851 10.3278 1.07731 -8.60033 -3.6345 0.0527307 0.257803 -0.0696123 
26.982 1 55 13.252 4.79602 2.83228 -0.459904 0.510361 4.57455 -0.116965 -0.531899 -0.0564405 0 0 0 0 0 0 -0.00885302 -0.0440687 -0.214191 13.0076 7.10661 13.4208 -1.19612 2.82613 7.44871 -0.115584 -0.550909 -0.0500134 15.3273 1.49102 -9.0419 0.293972 -1.74849 1.74008 -0.118321 -0.512949 -0.0628861 
26.982 1 214 13.1869 2.83662 4.78619 -7.86271 1.19145 -4.68093 0.396358 -0.145152 -0.117637 0 0 0 0 0 0 0.0378049 -0.127208 -0.121347 25.8847 5.83923 11.4211 -6.94332 2.91276 -4.03315 0.407486 -0.144799 -0.117106 2.3126 -1.37904 -3.12527 -8.76191 -0.491205 -5.30272 0.385267 -0.145562 -0.118198 
26.982 1 213 10.9711 0.837042 4.62016 1.82357 -2.45566 -1.81538 0.142073 -0.151241 0.531667 0 0 0 0 0 0 0.0118308 -0.198653 -0.190621 10.7074 2.09205 14.3339 1.72373 -0.526393 0.194829 0.145086 -0.17227 0.543141 13.5871 -1.88616 -6.38682 1.93221 -4.35276 -3.79568 0.139106 -0.130223 0.520208 
26.982 1 14 13.3104 2.57229 0.933526 1.97832 4.0826 -2.34249 0.0142262 0.00525449 -0.0514711 0 0 0 0 0 0 -0.000637317 -0.0858161 -0.205467 8.77697 29.2035 34.1844 0.736314 8.79504 -0.840759 0.0134656 0.00605958 -0.0600404 19.6815 -25.3453 47.495 3.23739 -0.602667 -3.79458 0.015055 0.00445324 -0.0428821 
26.982 1 20 15.5908 2.59405 2.85289 1.93366 0.825164 -0.508369 0.0592496 0.0437238 0.0291555 0 0 0 0 0 0 -0.0105513 -0.151584 -0.168878 28.8307 -13.8725 6.80983 3.61045 0.67093 -0.695766 0.0564915 0.0566231 0.0281572 3.49903 17.875 -2.43251 0.262158 1.01543 -0.2726 0.0620089 0.0308035 0.0301252 
26.982 1 257 15.634 4.62266 4.6062 -2.92029 -0.157939 -3.75199 -0.132523 0.263476 0.317015 0 0 0 0 0 0 -0.00537882 -0.054003 -0.0698524 23.038 -16.0179 12.3856 -2.74293 -1.87781 -0.893615 -0.132494 0.267413 0.32985 9.41646 24.2112 -4.39682 -3.08607 1.60578 -6.57068 -0.132537 0.259509 0.304173 
26.982 1 218 18.0155 2.55653 4.71597 -0.0445004 -0.204042 1.53755 -0.125593 0.57352 -0.184531 0 0 0 0 0 0 -0.00869798 -0.123848 -0.0962039 8.4956 -4.54331 1.85422 -1.61363 0.302267 0.675207 -0.126185 0.602331 -0.188525 28.0563 8.49283 6.37819 1.51953 -0.672767 2.43646 -0.124978 0.544703 -0.18056 
26.982 1 59 17.8542 4.74149 2.74869 -0.922027 -2.5084 -2.09403 0.11104 -0.568431 -0.198924 0 0 0 0 0 0 -0.0253613 -0.0833408 -0.179519 29.5236 -9.18656 11.7161 0.162729 -4.11151 -0.696192 0.12191 -0.571803 -0.200585 6.68305 17.6117 -7.50338 -2.01399 -0.8786 -3.4403 0.10019 -0.5651 -0.197276 
26.982 1 19 17.8899 0.779612 2.69675 0.144683 -4.9327 -0.647817 0.184071 -0.231013 0.216219 0 0 0 0 0 0 -0.00984656 -0.184556 -0.147923 35.5642 -3.59555 10.086 1.34142 -3.53428 0.898291 0.191216 -0.238093 0.21929 0.713324 3.72837 -6.03439 -1.06213 -6.29888 -2.14118 0.17689 -0.22395 0.213159 
26.982 1 24 20.3066 2.66599 2.75099 -1.91968 0.339453 -0.177475 -0.543955 0.0635844 -0.329965 0 0 0 0 0 0 -0.0199791 -0.183952 -0.15012 11.7289 12.247 12.7874 -3.25777 3.1314 1.53466 -0.558889 0.0768986 -0.344839 28.8251 -8.04107 -8.63274 -0.590462 -2.39791 -1.83782 -0.529064 0.0502617 -0.31508 
26.982 1 261 20.1769 4.58985 4.61847 -2.78313 -2.5274 2.27672 -0.318823 0.279008 0.255665 0 0 0 0 0 0 -0.0181347 -0.030767 -0.0445697 19.9675 6.47688 2.72104 -2.16166 -1.48155 2.15521 -0.329833 0.296252 0.267481 20.3281 1.65181 5.32434 -3.41175 -3.5358 2.43701 -0.307842 0.26175 0.243867 
26.982 1 61 20.1312 4.55322 0.697918 4.12032 1.19672 -3.59318 0.0956666 0.362113 0.355697 0 0 0 0 0 0 -0.0142324 -0.027345 -0.255369 29.8888 -5.84414 -9.16449 5.19986 -0.279785 -5.3968 0.0995308 0.368872 0.36288 10.3268 13.8006 9.12911 3.04191 2.6943 -1.72377 0.0917549 0.355301 0.348585 
26.982 1 63 22.3421 4.6887 2.67205 -0.640418 0.0321111 -1.22035 0.183551 -0.367665 0.364702 0 0 0 0 0 0 0.00685242 0.0102001 -0.162519 28.3718 21.4308 8.44532 -0.342369 2.69269 0.270132 0.193069 -0.358476 0.360165 15.752 -13.1203 -4.39607 -0.937509 -2.58812 -2.66975 0.173981 -0.376898 0.369264 
26.982 1 222 22.5139 2.69325 4.51867 1.75235 1.75362 -2.78895 -0.0673635 -0.258497 0.316496 0 0 0 0 0 0 -0.0216608 -0.135286 -0.104585 18.8739 15.1411 6.42322 1.45387 4.09456 -2.11181 -0.0547032 -0.249239 0.322518 25.5601 -10.9565 1.42113 2.04188 -0.547483 -3.43427 -0.0801342 -0.267767 0.310442 
26.982 1 28 24.9145 2.57072 2.57902 0.992562 -3.14697 -5.12364 -0.145108 0.0874188 0.51905 0 0 0 0 0 0 0.000832658 -0.171679 -0.136035 27.6726 9.63094 14.819 1.79313 -3.47961 -4.08474 -0.149 0.0992656 0.538797 21.0813 -5.64432 -11.1322 0.193593 -2.76281 -6.15396 -0.141239 0.0755359 0.499269 
26.982 1 265 24.639 4.40604 4.61998 5.04278 -5.18974 -3.65987 0.383242 0.737985 -0.0542647 0 0 0 0 0 0 0.0146355 -0.00848803 -0.0398906 27.1753 -16.8965 2.52852 5.45673 -6.7529 -3.55958 0.401166 0.765045 -0.0458128 20.9968 24.6254 5.46032 4.63083 -3.58131 -3.73373 0.365265 0.711004 -0.0627632 
26.982 1 225 24.7474 0.654728 4.51535 -6.99506 -0.00651175 6.18286 -0.0971833 1.21736 0.701148 0 0 0 0 0 0 -0.00128798 -0.174578 -0.169306 31.7793 16.9396 12.6794 -6.25303 1.4907 9.00536 -0.0915366 1.24627 0.731316 16.5277 -17.084 -4.8399 -7.74893 -1.4717 3.39706 -0.102865 1.18848 0.670979 
26.982 1 65 24.7184 4.47383 0.821757 -1.51286 -5.84598 2.16931 0.0190712 0.705665 -0.175651 0 0 0 0 0 0 0.00333894 0.0254369 -0.255885 23.6421 25.2718 32.2226 -0.349454 -4.19438 5.01215 0.0179439 0.73099 -0.186667 24.7178 -17.477 -32.0305 -2.66902 -7.47927 -0.628945 0.0202074 0.680331 -0.164673 
26.982 1 22 22.5021 2.58117 0.661379 1.15429 0.988194 1.16139 -0.00216767 0.348704 0.0501406 0 0 0 0 0 0 -0.011223 -0.137106 -0.205111 33.6616 16.1597 -3.77362 2.13653 2.54859 -0.58241 -0.00291895 0.364798 0.0389697 10.8533 -12.1882 3.62465 0.18528 -0.527122 2.95962 -0.00143869 0.332573 0.0613002 
26.982 1 67 27.1173 4.65854 2.933 3.1553 -1.83388 1.89466 -0.225737 0.230422 -0.579144 0 0 0 0 0 0 -0.0157168 0.00444129 -0.14232 26.8321 -4.36647 9.1111 2.94521 -2.97825 1.67186 -0.239406 0.253388 -0.588472 25.7362 12.5642 -4.62342 3.36603 -0.650899 2.1484 -0.212038 0.207481 -0.56993 
26.982 1 226 27.1237 2.78147 4.76237 -1.71297 1.16188 -4.65013 -0.131293 -0.481313 0.498239 0 0 0 0 0 0 -0.0119447 -0.106034 -0.0736675 27.413 -7.47906 13.9944 -1.37533 -0.48731 -3.00124 -0.141029 -0.481602 0.523647 25.19 11.9759 -5.76977 -2.04552 2.86769 -6.2737 -0.1215 -0.481093 0.472758 
26.982 1 32 29.3172 2.8028 2.91431 0.433531 2.99415 1.92693 0.286998 -0.327284 -0.379369 0 0 0 0 0 0 -0.0428072 -0.152938 -0.147317 13.9417 8.60758 21.4795 -0.683627 5.65036 3.75602 0.286652 -0.333232 -0.389231 42.4165 -4.13891 -17.0475 1.55724 0.394631 0.132641 0.287403 -0.321439 -0.369603 
26.982 1 269 29.5078 4.67837 4.71196 -2.46662 -0.766337 0.412583 -0.18438 0.0796867 0.511762 0 0 0 0 0 0 -0.0166553 -0.0104686 -0.019335 26.8757 14.1067 22.7836 -2.28038 -0.378877 3.20516 -0.189167 0.0861929 0.530325 29.9171 -5.85206 -14.5071 -2.64129 -1.11666 -2.33582 -0.179516 0.0731492 0.493141 
26.982 1 26 27.1095 2.75525 0.647004 1.02277 6.83874 -1.88509 0.00910498 0.203851 0.623836 0 0 0 0 0 0 0.00333564 -0.130828 -0.202609 16.2886 16.5554 22.8276 0.025542 10.383 0.341847 0.00840482 0.212706 0.633022 36.2828 -12.2387 -23.0274 2.02296 3.3396 -4.07495 0.00985035 0.194924 0.614667 
26.982 1 229 29.3434 0.614496 4.57326 -6.14634 0.721384 1.71017 0.414981 0.737872 0.373614 0 0 0 0 0 0 -0.0488112 -0.173764 -0.157082 18.7598 36.5005 25.2175 -7.37612 2.22424 3.39633 0.412426 0.760298 0.402391 37.6919 44.7807 -17.2483 -4.90129 -0.728537 0.0545113 0.417627 0.715429 0.344833 
26.982 1 69 29.3053 4.67967 0.91854 2.23007 -4.06937 -1.96893 -0.0377352 0.58043 0.0458223 0 0 0 0 0 0 -0.0383824 0.0119895 -0.264512 26.4933 28.9519 11.3804 2.12542 -0.746448 -0.577801 -0.045759 0.612624 0.0412601 29.8066 -20.788 -11.0277 2.33755 -7.36857 -3.31643 -0.0297384 0.548205 0.0504242 
26.982 1 233 34.0059 0.727414 4.72683 4.3248 0.565493 -2.01022 0.348719 0.455084 -0.68871 0 0 0 0 0 0 0.0317533 -0.162219 -0.151828 34.1568 38.0411 -10.9349 5.89047 1.82997 -4.76691 0.377669 0.460538 -0.690098 30.37 43.4272 19.3568 2.75841 -0.652766 0.800179 0.319629 0.449604 -0.687295 
26.982 1 31 31.8252 0.846351 2.92453 -1.94535 1.6659 2.26562 -0.397579 -0.240549 -0.344012 0 0 0 0 0 0 -0.0127986 -0.24464 -0.171908 29.42 19.0916 3.91089 -2.13331 0.390387 0.96339 -0.400855 -0.23862 -0.348798 31.2729 62.6454 0.592096 -1.75977 2.98309 3.59742 -0.394372 -0.242534 -0.339206 
26.982 1 71 31.6487 4.87787 2.64989 -1.39534 4.42988 -1.87269 0.371105 -0.168997 0.323914 0 0 0 0 0 0 0.0153496 -0.00815536 -0.121849 29.8269 16.1938 0.437098 -1.30777 6.67541 -1.75836 0.384932 -0.167736 0.334555 30.5283 -7.5344 3.59824 -1.48258 2.2354 -1.93301 0.357202 -0.170341 0.313315 
26.982 1 230 31.8131 2.80529 4.61682 1.3987 -0.154077 -2.23014 -0.535417 0.691602 0.394689 0 0 0 0 0 0 -0.0172138 -0.0566446 -0.049218 16.7536 -4.71268 -2.24567 -0.43317 -1.06955 -4.96308 -0.545083 0.703644 0.412198 43.9841 9.24312 10.3735 3.23921 0.819275 0.549764 -0.525791 0.67946 0.377192 
26.982 1 273 33.9246 4.90514 4.79627 2.24254 0.0276078 3.74739 0.159595 -0.313696 -0.480127 0 0 0 0 0 0 0.0188118 -0.00194014 -0.0480615 42.1834 21.3729 -5.43954 3.42497 0.628536 1.48272 0.169057 -0.316067 -0.490508 22.0857 -12.6876 13.8452 1.05442 -0.537263 6.04883 0.150048 -0.311401 -0.469704 
26.982 1 36 33.8113 2.86477 2.86633 2.9966 -1.56598 -2.63395 0.667847 0.347979 0.168201 0 0 0 0 0 0 0.0704353 -0.0943306 -0.17495 35.8557 -1.19199 -9.13722 4.47303 -2.42278 -5.65468 0.701024 0.37194 0.153246 28.2021 5.75226 13.628 1.51292 -0.664694 0.430961 0.634534 0.323973 0.183165 
26.982 1 30 31.6634 2.65851 1.03645 -1.95568 -1.56672 -1.55697 -0.0388495 0.361741 -0.389465 0 0 0 0 0 0 -0.00402254 -0.124804 -0.265 41.2968 -16.7725 10.1754 -0.212283 -3.12134 0.886145 -0.0318871 0.384177 -0.4179 19.0247 20.7948 -9.61212 -3.70674 0.0219082 -3.95186 -0.0459119 0.339255 -0.361027 
26.982 1 73 34.0072 4.50709 0.708908 -4.69788 5.92775 2.31023 0.199232 0.438043 0.689463 0 0 0 0 0 0 0.0769259 -0.0161332 -0.256038 32.9413 22.9794 17.9591 -4.52354 8.65885 6.0416 0.211627 0.455853 0.704803 31.4472 -15.1388 -17.9366 -4.88818 3.21892 -1.358 0.18677 0.42028 0.674178 
26.982 1 75 36.523 4.62836 2.89334 -4.424 1.77046 0.883935 -0.244417 0.37968 -0.196175 0 0 0 0 0 0 0.000956659 -0.0384967 -0.182942 39.3601 19.5814 5.55931 -4.48121 4.73564 0.737782 -0.252905 0.377086 -0.208441 29.4813 -11.5244 -1.00503 -4.38118 -1.17113 1.09291 -0.235948 0.382321 -0.183958 
26.982 1 234 36.1253 2.7003 4.63443 -0.821836 0.0716441 0.358286 0.227079 0.00489577 0.170252 0 0 0 0 0 0 0.0412947 -0.0816868 -0.0943612 48.4664 0.310615 -0.789665 0.301444 -0.233856 -1.43329 0.237813 0.00838018 0.159315 19.6093 3.87264 8.98035 -1.95525 0.422267 2.19907 0.216299 0.00138505 0.181285 
26.982 1 40 38.7765 2.66101 2.88521 -0.476635 -4.30339 -1.8078 -0.109733 0.256639 -0.46699 0 0 0 0 0 0 0.00173423 -0.157894 -0.174122 46.6301 20.2429 -7.15288 -0.18233 -2.9384 -3.32321 -0.112719 0.256826 -0.490102 26.1641 -16.1864 11.6802 -0.777112 -5.63183 -0.235593 -0.106648 0.256456 -0.443827 
26.982 1 277 39.0154 4.55324 4.67599 -1.17152 -3.17612 -3.4868 -0.402448 0.140964 -0.402395 0 0 0 0 0 0 -0.0270491 -0.0397481 -0.070304 37.2671 27.7134 -4.97369 -1.59071 -1.02051 -2.97468 -0.431946 0.160689 -0.418164 36.0024 -19.7184 13.2722 -0.757736 -5.29531 -3.9346 -0.372912 0.121271 -0.386566 
26.982 1 35 36.3129 0.686585 2.93043 -2.89439 -0.812264 2.42147 0.258227 0.189691 -0.573872 0 0 0 0 0 0 0.0493416 -0.177396 -0.185185 27.4058 5.02169 6.09488 -3.57044 -0.452108 1.98388 0.269783 0.196664 -0.59361 41.1092 -4.92771 -1.48541 -2.22403 -1.12018 2.90193 0.246588 0.18268 -0.554141 
26.982 1 77 38.6264 4.83338 0.914742 -1.63922 -3.02351 2.9494 0.622395 -0.131639 -0.0520359 0 0 0 0 0 0 -0.024533 -0.076018 -0.272109 38.191 13.8856 15.7749 -1.60979 -2.87952 -2.19414 0.640157 -0.149343 -0.0610769 34.3552 -5.37172 65.7492 -1.66901 -3.14854 8.11754 0.604654 -0.113893 -0.0430014 
26.982 1 4 43.4855 2.75055 2.79375 -5.80989 1.51559 2.51449 -0.206549 -0.522381 -0.260661 0 0 0 0 0 0 0.0361485 -0.154595 -0.214548 24.4115 -0.824839 5.85685 -7.40086 0.674783 2.72306 -0.215691 -0.537457 -0.282906 56.7477 5.05724 -1.55084 -4.22003 2.3873 2.34982 -0.197353 -0.507359 -0.238397 
26.982 1 79 41.2009 4.47021 2.76332 -0.85531 -1.19769 3.14381 0.00248604 -0.0631669 -0.011203 0 0 0 0 0 0 0.0265567 -0.0928288 -0.200525 31.9537 27.6081 -16.8242 -2.12965 1.62802 -0.473706 -0.00600221 -0.063257 -0.0240965 45.1616 -19.8022 21.1385 0.417594 -3.99685 6.80876 0.0110503 -0.063062 0.00178467 
26.982 1 238 41.2464 2.55904 4.87498 -1.88724 2.08565 -1.44387 0.0556144 -0.0163034 -0.410318 0 0 0 0 0 0 0.0150273 -0.135163 -0.109258 47.9732 -4.54452 -5.57303 -1.50026 0.67974 -3.36505 0.0655696 -0.00873868 -0.434106 29.2013 8.44084 14.2326 -2.28138 3.53326 0.51846 0.0457622 -0.0238735 -0.386442 
26.982 1 39 41.1783 0.77451 2.648 2.51409 -1.48892 3.44405 0.275741 0.438682 -0.0566333 0 0 0 0 0 0 0.0161274 -0.177191 -0.150358 38.5341 35.7427 13.8844 2.27165 -1.94053 5.14718 0.286056 0.444498 -0.0702661 38.5679 45.6895 -9.77099 2.76401 -0.996664 1.7979 0.26558 0.432797 -0.0428787 
26.982 1 83 -0.692113 8.62634 2.77864 4.52132 -1.12175 -3.54029 0.232475 0.0747135 0.213731 0 0 0 0 0 0 -0.0304523 -0.0113333 -0.267816 -4.71268 27.7274 11.6905 4.62649 -0.885196 -3.19727 0.242217 0.0642046 0.220703 8.62688 -11.3093 -7.46879 4.41643 -1.32435 -3.82705 0.222813 0.0852141 0.206714 
26.982 1 242 -0.723525 6.63664 4.58662 0.525042 1.96225 2.84556 0.204748 -0.342308 0.353886 0 0 0 0 0 0 -0.0454486 -0.0271373 -0.090651 -9.1733 20.5862 14.419 -0.313607 3.88969 4.23335 0.207502 -0.356709 0.375475 13.0131 -8.27637 -6.31316 1.35505 0.0700438 1.52067 0.202005 -0.327932 0.332274 
26.982 1 44 -3.05928 6.61308 2.73903 -0.235391 -0.443458 -4.37217 0.204235 -0.138843 -0.0287578 0 0 0 0 0 0 -0.14473 -0.0583302 -0.227106 35.7668 35.6557 1.57714 0.716787 4.66366 -5.14993 0.202511 -0.150537 -0.025774 45.3284 -23.4004 2.56882 -1.18744 -5.51468 -3.54694 0.206053 -0.127188 -0.031703 
26.982 1 281 -2.88529 8.5126 4.64579 0.543495 2.63757 -0.371492 -0.0685687 0.254912 0.35832 0 0 0 0 0 0 -0.094085 -0.0429401 -0.114056 43.9984 36.7614 3.86639 1.00829 4.47062 -0.073957 -0.0740332 0.260738 0.375395 37.33 -20.5751 4.28215 0.0645216 0.818864 -0.6148 -0.0630057 0.249064 0.341226 
26.982 1 48 1.77654 6.61391 2.89377 0.0522952 1.56802 4.55403 -0.257674 0.18339 -0.221283 0 0 0 0 0 0 -0.051449 0.0187537 -0.183794 -21.0125 31.2451 -15.9756 -3.10688 6.88948 1.57011 -0.257917 0.177081 -0.222616 29.363 -19.025 20.3506 3.22921 -3.71981 7.55443 -0.25742 0.189714 -0.220025 
26.982 1 285 1.63343 8.57901 4.81892 -0.2874 3.82793 -0.69095 0.248954 -0.0664469 -0.166216 0 0 0 0 0 0 -0.00684236 -0.00701622 -0.074967 -19.5563 27.7885 3.96983 -2.89174 7.51617 -0.35015 0.253466 -0.0769292 -0.175527 27.6345 -11.5468 4.42446 2.32913 0.159628 -0.995734 0.244437 -0.0559703 -0.156998 
26.982 1 87 3.91814 8.63147 2.7672 2.95762 -2.83479 1.94348 0.0525716 0.0585074 0.129367 0 0 0 0 0 0 -0.00323606 0.0062525 -0.176534 -6.12377 15.0623 10.3715 1.13702 -2.72044 2.72322 0.0537542 0.0687043 0.141427 18.1651 1.42295 -6.21174 4.79778 -2.90505 1.1971 0.0513587 0.0482987 0.117238 
26.982 1 246 3.99124 6.65496 4.64174 1.62149 -0.0906069 -0.89774 -0.0451001 -0.0653841 0.165043 0 0 0 0 0 0 -0.00408819 -0.0106366 -0.0535291 10.7853 10.9287 16.1947 1.88022 -0.372524 0.684587 -0.0543147 -0.0757406 0.175768 1.38521 1.43312 -8.18875 1.37931 0.226163 -2.45155 -0.0359099 -0.0550263 0.154251 
26.982 1 88 1.70621 10.5745 2.63171 -1.76297 4.28662 3.58754 -0.0609607 -0.374091 0.382138 0 0 0 0 0 0 -0.0453524 0.0111671 -0.226581 -17.3457 20.6633 11.4182 -4.55432 5.20281 4.93482 -0.0469103 -0.377528 0.395514 25.5975 -0.196333 -7.56903 1.05011 3.41138 2.28294 -0.0749998 -0.370694 0.368723 
26.982 1 46 3.98131 6.63302 0.726064 1.15093 -0.352171 2.01153 -0.184164 -0.339391 0.184888 0 0 0 0 0 0 0.0281436 0.002266 -0.270464 -8.41557 -2.51136 15.8358 -1.33318 -0.835073 5.05111 -0.190635 -0.362762 0.187474 20.473 14.8759 -15.7683 3.64019 0.176308 -0.977048 -0.177729 -0.31597 0.182331 
26.982 1 289 6.32027 8.47774 4.61133 2.43128 -2.21445 -2.39338 -0.0103117 0.300936 0.142234 0 0 0 0 0 0 0.00530306 0.00814172 -0.0628173 18.9429 11.7807 30.9392 4.14102 -2.01644 1.85933 -0.00558196 0.320887 0.150798 -2.80878 4.3466 -22.9912 0.727051 -2.3799 -6.62378 -0.0150594 0.280963 0.13359 
26.982 1 52 6.18181 6.45993 2.70226 -3.35757 -5.39754 -5.40913 -0.106904 -0.0509889 0.0575449 0 0 0 0 0 0 0.0440647 -0.0159507 -0.225907 12.6157 4.83632 13.2998 -2.36177 -6.48937 -4.14845 -0.109549 -0.0463786 0.069829 3.17986 7.18077 -9.14223 -4.35789 -4.26057 -6.62179 -0.10428 -0.0555321 0.0452546 
26.982 1 91 8.55234 8.53283 2.76052 -2.78261 1.38116 7.83806 0.117431 0.0942022 -0.0185273 0 0 0 0 0 0 -0.0185485 -0.0541607 -0.201784 14.2228 4.44137 10.1386 -2.00957 0.535191 9.87622 0.121365 0.0950474 -0.023443 5.69357 11.8191 -5.89003 -3.56703 2.27083 5.83737 0.113508 0.0933189 -0.0136954 
26.982 1 250 8.40692 6.41162 4.49306 4.33971 -2.26441 -4.9894 0.286357 0.303321 0.622026 0 0 0 0 0 0 0.0011057 -0.00951057 -0.073659 10.8924 14.5647 34.7409 5.17882 -2.50908 -2.07907 0.290451 0.313521 0.645918 8.739 -2.50496 -27.1896 3.48847 -1.95948 -7.9031 0.282247 0.293132 0.598076 
26.982 1 92 6.54873 10.5211 2.6739 4.59547 3.89381 4.4292 -0.387817 -0.120136 0.649999 0 0 0 0 0 0 -0.0200197 -0.043438 -0.147375 5.39758 9.55672 15.4058 4.21504 3.92859 5.43292 -0.394251 -0.119499 0.667346 11.1796 10.8695 -11.3198 4.97911 3.89971 3.47406 -0.381393 -0.120859 0.632591 
26.982 1 290 8.76352 10.3151 4.83921 1.05472 -4.40392 -5.72153 -0.381659 -0.230256 -0.126288 0 0 0 0 0 0 -0.0155233 0.00280505 -0.0377126 13.9693 28.6791 49.386 1.37979 -3.31791 -0.00632024 -0.399236 -0.222037 -0.117802 6.38788 -8.78579 -40.9282 0.726281 -5.46595 -11.4164 -0.36405 -0.23845 -0.134828 
26.982 1 293 10.9324 8.48168 4.53319 2.12465 -5.35191 2.84935 0.0251071 -0.193123 0.741274 0 0 0 0 0 0 0.00263758 6.85854e-05 -0.0504254 11.8396 28.7834 41.5403 2.76599 -4.40394 8.4331 0.0278272 -0.187806 0.758891 12.3313 -12.7467 -33.7344 1.47703 -6.27572 -2.72437 0.0224387 -0.19838 0.723616 
26.982 1 56 10.7872 6.44304 2.7922 4.6995 0.988797 -0.620927 0.0328381 -0.161624 -0.00947184 0 0 0 0 0 0 -0.00781386 -0.0495182 -0.21005 17.261 13.1139 16.5845 4.91703 0.621499 1.7906 0.0345338 -0.154283 0.00284397 6.6832 -1.12079 -12.2711 4.48361 1.40742 -2.98781 0.0311671 -0.168923 -0.0217972 
26.982 1 95 13.1007 8.2723 2.78416 -2.11183 -6.18884 1.50929 0.189189 0.406304 -0.456911 0 0 0 0 0 0 -0.00146987 0.0213516 -0.212417 9.55635 18.605 -8.65019 -2.61862 -7.11368 0.699049 0.189233 0.424432 -0.470542 18.4048 -2.9694 12.9668 -1.60553 -5.24899 2.36574 0.189127 0.388194 -0.443323 
26.982 1 254 13.4243 6.59716 4.77431 2.33504 -1.81369 -3.96471 -0.0871184 -0.174897 0.346048 0 0 0 0 0 0 -0.000813804 -0.0100243 -0.055014 7.74775 1.13335 40.6012 1.64382 -3.23495 3.01343 -0.0872893 -0.176136 0.347516 20.9231 11.1814 -32.3552 3.0376 -0.347484 -10.9122 -0.0869134 -0.173631 0.344517 
26.982 1 93 10.9677 8.4755 1.00013 3.72525 0.51739 3.7669 -0.184914 0.237418 0.0678444 0 0 0 0 0 0 0.0201325 -0.0323513 -0.286971 10.1261 3.37875 41.8244 3.87778 -1.00525 3.59981 -0.188083 0.235186 0.0600955 14.1629 12.8323 40.0987 3.57465 2.08491 3.98884 -0.181755 0.239634 0.0755959 
26.982 1 60 15.4586 6.62501 2.44029 -5.88061 0.550432 3.12835 0.200146 -0.0830532 0.494763 0 0 0 0 0 0 -0.023916 -0.0430978 -0.200888 29.1563 6.68072 -4.01646 -4.07638 0.0745483 4.46234 0.211227 -0.0754467 0.504274 2.90867 5.55965 7.5855 -7.68024 1.05499 1.83936 0.189072 -0.0906687 0.485255 
26.982 1 297 15.4293 8.5777 4.3834 -2.05853 -1.09473 -2.18897 0.477347 -0.833097 0.50929 0 0 0 0 0 0 0.0131988 0.00357405 -0.0559759 25.4155 36.2247 0.694319 -0.744886 3.57168 -1.57337 0.49151 -0.836217 0.524648 6.64138 -19.9182 6.85673 -3.36678 -5.73451 -2.77742 0.463174 -0.829999 0.49397 
26.982 1 99 17.9188 8.57775 2.69872 0.406425 1.79106 -1.93606 -0.228608 -0.0919167 0.0223479 0 0 0 0 0 0 0.0283227 0.0435601 -0.197094 25.0167 18.1771 6.44518 1.587 3.13359 1.62065 -0.231524 -0.0952984 0.0296146 11.3957 -1.90513 -2.33461 -0.772701 0.47854 -5.44531 -0.225704 -0.0885991 0.0151088 
26.982 1 258 17.7786 6.59388 4.57262 -4.55196 3.19874 1.81175 0.119216 0.13593 0.113248 0 0 0 0 0 0 0.00150601 0.00541339 -0.0564811 16.2794 8.24622 4.92274 -5.05551 2.57209 1.91763 0.12192 0.146877 0.116055 19.7873 3.98186 3.00825 -4.0538 3.84597 1.73782 0.116514 0.124999 0.110435 
26.982 1 97 15.6376 8.64162 0.732404 -3.22156 2.23415 -2.91252 -0.108976 -0.0576184 0.271916 0 0 0 0 0 0 -0.0252807 0.0445436 -0.280947 21.9355 8.46367 16.2649 -2.46565 0.819313 -0.617913 -0.114198 -0.0610734 0.266315 10.5134 8.01482 -16.3309 -3.97715 3.68068 -5.1691 -0.103782 -0.0542398 0.277486 
26.982 1 58 17.9424 6.51314 0.683741 0.785654 1.02312 -1.79066 -0.259026 0.154817 0.463806 0 0 0 0 0 0 -0.00117367 0.0128697 -0.271847 3.46422 48.063 18.5562 0.570066 6.10981 0.610946 -0.254946 0.168274 0.470379 32.9369 -36.0128 -18.5298 0.993125 -4.03519 -4.10867 -0.26314 0.141363 0.457262 
26.982 1 64 20.1551 6.70603 2.71325 -8.10869 -7.32102 2.95883 0.0480773 -0.421422 -0.163739 0 0 0 0 0 0 0.028742 0.0252322 -0.190497 21.8889 2.86661 -0.409736 -8.62787 -8.07258 3.39578 0.0564037 -0.441289 -0.166193 18.3684 9.63643 4.51634 -7.59626 -6.53414 2.57238 0.0397332 -0.401639 -0.161228 
26.982 1 301 20.1515 8.62106 4.6034 2.00635 4.1191 -2.0453 -0.0800792 -0.22581 0.403924 0 0 0 0 0 0 -0.00351873 -0.000769449 -0.0585916 14.4453 -3.69123 0.820045 2.17028 3.6805 -1.74083 -0.0833696 -0.233472 0.420586 25.8053 20.0919 7.22596 1.84458 4.5778 -2.3075 -0.0767659 -0.218184 0.387283 
26.982 1 105 24.8901 8.52671 0.835316 5.39501 3.66152 -1.03251 -0.367721 0.471907 0.516688 0 0 0 0 0 0 0.0328637 -0.00545181 -0.276525 22.9753 20.4493 55.7349 5.64193 4.64468 -0.661051 -0.381465 0.486347 0.518875 25.6521 -4.29432 25.5948 5.1497 2.69359 -1.37402 -0.35399 0.457536 0.51455 
26.982 1 103 22.6908 8.77701 2.83744 -0.308405 -1.43922 2.03354 -0.143107 -0.587881 -0.539069 0 0 0 0 0 0 -0.0306079 -0.0479237 -0.197271 16.6711 21.86 -1.20937 -0.495357 0.179177 0.67873 -0.14787 -0.620215 -0.570631 28.0781 -5.03953 5.5935 -0.121365 -3.01016 3.43154 -0.138343 -0.555562 -0.507479 
26.982 1 262 22.3548 6.77272 4.70392 3.29566 0.0841007 0.198738 0.221529 -0.378556 -0.290374 0 0 0 0 0 0 0.0050996 -0.0124561 -0.0645274 19.1913 3.37592 2.67048 3.22368 -0.675351 -0.508243 0.226468 -0.395712 -0.299717 24.918 9.20775 5.56891 3.36798 0.879652 0.942733 0.216543 -0.36141 -0.281055 
26.982 1 305 24.7718 8.58996 4.59822 -1.10093 3.18991 -6.46178 0.234158 -0.220843 -0.0656081 0 0 0 0 0 0 0.00751483 -0.0200491 -0.0587796 26.2896 46.6082 -15.6682 -0.754747 8.08025 -8.3255 0.237654 -0.238739 -0.0660115 22.1122 -30.1942 23.6819 -1.44421 -1.66466 -4.56118 0.230604 -0.202898 -0.0651947 
26.982 1 68 24.7421 6.47243 2.72673 -4.26351 -2.48573 -0.786317 0.0574869 0.152868 0.210182 0 0 0 0 0 0 0.0101552 0.017367 -0.168 28.5528 17.4137 3.46182 -4.11888 -1.58545 -0.806923 0.0654265 0.162263 0.220008 19.7814 -5.46311 0.640746 -4.41029 -3.34585 -0.72426 0.0495548 0.143554 0.200384 
26.982 1 107 27.2123 8.6877 2.67671 -0.775518 -1.22504 0.860166 -0.0103417 0.288254 -0.0176651 0 0 0 0 0 0 0.0199377 0.00869123 -0.234441 23.4921 35.0839 5.36789 -1.05686 1.4541 1.27251 -0.0141257 0.291077 -0.0218968 29.1916 -18.6677 -1.29439 -0.494779 -3.88329 0.500659 -0.00659911 0.285436 -0.0134369 
26.982 1 266 27.0162 6.79246 4.70544 -2.49272 1.65654 5.09822 0.121057 -0.226702 -0.108276 0 0 0 0 0 0 -0.000967179 -0.021333 -0.0555239 32.9017 15.4972 0.375512 -2.00356 2.10468 5.72534 0.120529 -0.251575 -0.100255 19.4657 -2.87313 7.87823 -2.97582 1.25181 4.51355 0.121565 -0.201832 -0.116312 
26.982 1 72 29.4107 6.62924 2.79057 0.706182 -3.8758 -1.19713 -0.282902 0.355514 -0.060453 0 0 0 0 0 0 -0.0494561 0.0513323 -0.165466 25.0145 22.328 16.6834 -0.166331 -2.0284 0.199283 -0.295075 0.363649 -0.0700493 31.5008 -10.0791 -12.3311 1.57785 -5.6802 -2.53698 -0.27074 0.347345 -0.050912 
26.982 1 309 29.3969 8.80041 4.53756 0.618519 2.56646 -0.493073 0.16647 -0.595338 0.425971 0 0 0 0 0 0 -0.0034292 -0.0112131 -0.0522676 29.1297 14.6444 -11.5596 0.494307 2.98559 -0.251482 0.169788 -0.611866 0.446457 27.3843 2.06413 19.519 0.747143 2.16996 -0.689041 0.163114 -0.578906 0.405472 
26.982 1 111 31.7449 8.47858 2.89406 0.378788 1.66912 -2.46942 -0.097293 0.421188 -0.435356 0 0 0 0 0 0 -0.0140179 0.0267326 -0.151648 33.4081 9.04379 -14.7954 1.18595 1.84473 -3.85956 -0.100301 0.43312 -0.434076 27.1991 7.12018 19.2541 -0.429528 1.53039 -1.04023 -0.0943092 0.409262 -0.436665 
26.982 1 270 31.5256 6.66733 4.78921 1.83782 -2.28768 1.02765 0.226408 -0.194395 0.280467 0 0 0 0 0 0 0.00334899 0.013398 -0.0265105 38.9027 38.8452 12.1652 2.30706 1.36676 3.29876 0.23381 -0.189197 0.285267 21.2363 -26.3888 -3.67776 1.37195 -5.89813 -1.18474 0.218996 -0.199639 0.275618 
26.982 1 76 34.1861 6.71871 2.62181 2.5234 -2.40038 -2.96694 -0.133064 -0.616913 0.19354 0 0 0 0 0 0 0.03287 -0.00676279 -0.185005 43.161 38.0731 -32.791 4.08605 2.4617 -5.98905 -0.135538 -0.655684 0.203993 21.6411 -25.5066 36.7338 0.948659 -7.216 0.109744 -0.130638 -0.578167 0.183111 