ITEM: TIMESTEP
1750
ITEM: NUMBER OF ATOMS
4000
ITEM: BOX BOUNDS pp pp pp
-0.42987 40.9299
0.0559721 40.444
0.0487956 40.4512
ITEM: ATOMS mass type id x y z vx vy vz fx fy fz xrad yrad zrad vxrad vyrad vzrad fxrad fyrad fzrad xub yub zub vxub vyub vzub fxub fyub fzub xlb ylb zlb vxlb vylb vzlb fxlb fylb fzlb 
26.982 1 811 10.0816 0.0459832 18.2563 -0.945435 4.47935 -1.71379 -0.149403 -0.148923 -0.102429 0 0 0 0 0 0 -0.0587588 -0.246965 -0.0301861 10.4569 40.8113 18.7083 -1.05115 5.02172 -1.54038 -0.147731 -0.14584 -0.102259 10.0533 40.3193 17.787 -0.837555 3.93816 -1.88019 -0.151089 -0.15205 -0.102594 
26.982 1 3 1.41159 0.0534747 2.11367 -2.98763 2.71611 -4.22069 -0.067742 0.0337846 -0.0973364 0 0 0 0 0 0 -0.100641 -0.128809 -0.0851322 1.52184 -0.408006 1.91715 -3.05288 2.69201 -4.18787 -0.0792581 0.0342498 -0.107749 1.922 0.253727 2.09469 -2.92219 2.73964 -4.25232 -0.0562236 0.0333619 -0.08686 
26.982 1 8 3.59599 2.07845 2.10324 3.25045 -0.143815 -1.9185 0.208382 0.0344084 -0.0619602 0 0 0 0 0 0 -0.00242012 -0.151454 -0.139959 3.65013 2.50752 2.04875 3.05346 0.312175 -1.95115 0.220552 0.0295476 -0.0774575 4.09658 1.4179 1.94069 3.44735 -0.596962 -1.88387 0.196206 0.039348 -0.0464145 
26.982 1 807 5.88418 0.0514072 18.2398 0.0173148 0.676682 -2.81805 -0.191107 0.362826 -0.39708 0 0 0 0 0 0 -0.015603 -0.258411 0.0146957 6.13547 40.4521 18.1044 -0.0286223 0.575751 -3.0298 -0.195917 0.36391 -0.411862 6.11788 40.6925 18.3559 0.0639245 0.783772 -2.60104 -0.186272 0.361776 -0.382292 
26.982 1 43 1.64806 4.1973 2.1156 2.13197 4.27917 2.40026 -0.370864 -0.193253 -0.235359 0 0 0 0 0 0 -0.123174 -0.0776704 -0.21185 0.983181 4.04115 2.19061 1.37982 4.08246 2.81899 -0.380162 -0.2026 -0.23329 2.93909 4.14478 1.82409 2.88721 4.47773 1.98512 -0.361563 -0.18386 -0.237405 
26.982 1 202 1.53405 2.10936 4.12306 -5.36249 -6.26946 1.29083 -0.095337 0.0850319 -0.114121 0 0 0 0 0 0 -0.0835716 -0.141959 -0.128744 1.57917 1.95375 4.29776 -5.7693 -6.80401 1.77008 -0.104533 0.0824121 -0.124628 2.11208 2.03058 3.75916 -4.95387 -5.73108 0.815864 -0.0861106 0.087693 -0.103603 
26.982 1 241 -0.412036 4.15139 4.10388 -3.59597 0.866309 2.61236 -0.0162589 0.317916 -0.17281 0 0 0 0 0 0 -0.115717 -0.134215 -0.159677 -0.794933 4.58175 3.95213 -4.42622 1.00359 2.53184 -0.0138283 0.310186 -0.178817 0.66395 3.50952 4.0682 -2.76439 0.730812 2.70051 -0.0186664 0.325683 -0.16682 
26.982 1 245 3.67432 4.15095 3.95204 5.24598 -1.13361 -0.883327 0.090633 -0.0598052 0.563615 0 0 0 0 0 0 -0.0208225 -0.0578257 -0.0420362 3.86659 3.88768 3.9962 5.20792 -1.406 -0.636423 0.0912917 -0.0707397 0.591747 4.03809 4.20953 3.71657 5.28533 -0.854719 -1.12614 0.0899703 -0.0488612 0.535494 
26.982 1 2825 24.4604 20.1222 16.1708 1.48694 3.9812 -1.29576 -0.584014 0.716479 0.351101 0 0 0 0 0 0 -0.0517672 0.150798 -0.101298 25.2704 20.5498 15.8412 1.94854 4.36155 -1.74333 -0.587754 0.731991 0.354137 23.5108 19.7005 16.451 1.02536 3.60727 -0.846602 -0.580344 0.700973 0.348104 
26.982 1 2819 18.1956 20.1608 18.2607 1.45887 -1.07686 0.995561 0.0648934 0.35583 0.0568927 0 0 0 0 0 0 -0.108459 0.121538 -0.0746899 17.3955 19.8711 19.2916 0.835657 -1.61784 2.29752 0.0676624 0.370072 0.0642485 19.0647 20.4557 17.2041 2.08236 -0.528029 -0.304373 0.0621405 0.341573 0.0495146 
26.982 1 12 7.7364 2.0362 2.04168 0.0638698 0.898995 -2.86176 0.0916084 0.278207 0.344644 0 0 0 0 0 0 -0.0397602 -0.183999 -0.16495 7.44289 1.80957 1.89872 -0.381948 0.988904 -3.11012 0.0882569 0.286094 0.353603 8.44419 2.02947 1.96925 0.506712 0.810888 -2.60991 0.0949092 0.270369 0.335699 
26.982 1 47 5.77947 4.24569 2.08845 0.682185 -0.297451 0.660176 0.0450071 -0.783922 -0.208765 0 0 0 0 0 0 -0.000501739 -0.090653 -0.153583 5.48993 4.18104 1.60167 0.542388 -0.109362 0.255752 0.0491719 -0.816947 -0.224149 6.55332 4.10788 2.35855 0.820318 -0.477922 1.06741 0.040794 -0.750882 -0.193351 
26.982 1 49 7.78115 4.00443 -0.0473522 3.07596 1.51814 -1.65782 0.267689 0.204273 0.287708 0 0 0 0 0 0 0.0073925 -0.0188008 -0.25184 8.12812 3.90071 0.0373897 3.33676 1.55458 -1.72516 0.273473 0.211844 0.298017 7.84725 3.9054 -0.372456 2.81134 1.48844 -1.58699 0.261871 0.196717 0.277411 
26.982 1 206 5.7143 2.1056 4.18541 -0.893381 1.01256 1.30003 -0.186047 0.262626 -0.866218 0 0 0 0 0 0 -0.0326676 -0.137217 -0.126983 6.18812 2.61721 4.73031 -0.601316 1.27205 2.12911 -0.188081 0.257111 -0.899008 5.72546 1.36249 3.44779 -1.18698 0.756659 0.474077 -0.184064 0.268181 -0.83339 
26.982 1 209 7.79859 0.0883004 4.17099 -0.96239 0.635602 0.406396 0.277003 -0.336768 -0.533994 0 0 0 0 0 0 0.0093125 -0.186659 -0.211386 8.2337 0.121067 3.56843 -0.666881 1.14114 0.0865423 0.293536 -0.352843 -0.557305 7.77996 -0.204316 4.58011 -1.25805 0.130129 0.727783 0.260406 -0.320677 -0.510682 
26.982 1 249 7.80474 4.01499 4.14536 7.04175 -2.96558 2.63232 0.154516 0.0930612 -0.121651 0 0 0 0 0 0 0.00691702 -0.0365933 -0.0531244 8.36122 3.58754 3.947 7.62547 -3.63813 2.37449 0.161259 0.084654 -0.134028 7.66052 4.23682 4.15084 6.45356 -2.28606 2.89122 0.147704 0.101512 -0.109236 
26.982 1 10 10.0778 2.10243 0.117757 7.51744 -0.279464 -3.88146 -0.291851 0.10082 -0.171253 0 0 0 0 0 0 -0.0362724 -0.115878 -0.194289 10.6465 1.65922 -0.0131625 7.8674 -0.400615 -4.0664 -0.295883 0.110824 -0.174876 9.85552 2.31414 0.00929211 7.16624 -0.15563 -3.69087 -0.2878 0.090824 -0.167672 
26.982 1 16 12.1108 2.27814 2.14047 0.482657 2.00417 -2.24757 -0.247103 -0.602362 -0.313436 0 0 0 0 0 0 0.0330511 -0.190723 -0.106819 12.8185 2.65793 1.51565 0.968181 2.51589 -2.63592 -0.249073 -0.623642 -0.324902 11.6797 1.66468 2.54781 -0.0031559 1.49543 -1.85671 -0.245065 -0.58106 -0.302007 
26.982 1 51 9.81405 3.94443 2.17839 -5.20582 3.07073 -2.00566 0.104474 0.724272 -0.423074 0 0 0 0 0 0 -0.000181811 0.00275876 -0.152109 9.56315 3.88067 1.93422 -5.86954 2.89749 -2.19035 0.10236 0.746571 -0.437912 10.4087 3.80406 2.20325 -4.54587 3.25091 -1.81928 0.106566 0.702016 -0.408239 
26.982 1 53 12.0989 4.08812 0.0222683 -4.14512 -1.40353 4.12758 -0.353297 0.451171 0.367683 0 0 0 0 0 0 -0.0183493 0.0105734 -0.246822 12.5386 4.07882 -0.538346 -4.31156 -1.43485 3.94662 -0.366432 0.466955 0.377747 11.9364 3.89263 0.341212 -3.978 -1.36748 4.3115 -0.340103 0.43539 0.357593 
26.982 1 210 9.93222 2.03014 3.98392 -0.414776 -1.38885 3.36603 -0.180036 -0.413053 0.710891 0 0 0 0 0 0 0.0305538 -0.15832 -0.0802138 10.1057 2.23951 3.91984 -0.687346 -1.08894 3.81976 -0.180721 -0.42771 0.732184 10.1022 1.58509 3.85499 -0.145066 -1.68941 2.91451 -0.179371 -0.398351 0.689617 
26.982 1 1197 36.9289 16.5276 20.211 -1.86581 0.506718 0.684931 -0.190565 -0.524929 0.129397 0 0 0 0 0 0 -0.0753604 -0.0755303 0.0361772 37.0264 15.9371 20.3935 -1.73864 0.0394713 1.5691 -0.183117 -0.543716 0.133011 36.272 17.0644 20.0282 -2.00021 0.974275 -0.199259 -0.198042 -0.506101 0.125784 
26.982 1 253 11.9012 4.0641 4.15071 0.829235 3.29573 -6.02912 0.13902 0.549898 0.0696445 0 0 0 0 0 0 -0.00267133 -0.0291 -0.0357858 12.1688 4.37862 4.99966 0.897291 3.49566 -4.96057 0.129403 0.561035 0.0691184 11.9099 3.5468 3.10734 0.761084 3.10305 -7.0934 0.148685 0.538807 0.0701913 
26.982 1 20 16.1035 2.1341 2.14747 -5.33992 0.962678 7.62874 0.451424 -0.0119164 -0.206225 0 0 0 0 0 0 -0.0268974 -0.204455 -0.0897266 16.2269 1.14849 2.45727 -5.39661 -0.186883 8.55734 0.468963 -0.026393 -0.217261 16.1198 2.89156 1.61829 -5.28192 2.11821 6.70009 0.43386 0.00263604 -0.195207 
26.982 1 55 14.2006 4.17539 1.95955 -2.77013 -3.60452 2.52692 -0.362858 0.065854 0.259284 0 0 0 0 0 0 -0.0259016 -0.0676453 -0.131194 14.3715 4.01397 1.73979 -2.65895 -4.05966 3.14441 -0.371518 0.0799048 0.262847 14.2388 4.13477 1.96012 -2.87864 -3.14355 1.91104 -0.354138 0.0518291 0.255733 
26.982 1 57 16.2192 4.09472 -0.000125875 -2.98074 3.55582 6.81678 0.0767324 0.0634251 0.0195922 0 0 0 0 0 0 -0.0353635 -0.0637979 -0.25807 16.285 4.14636 -1.1114 -2.86123 3.84544 6.2872 0.0904994 0.0630109 0.0169936 16.2934 3.84054 0.868755 -3.09798 3.27272 7.35004 0.0629429 0.0638847 0.0222243 
26.982 1 214 14.0504 2.33259 4.0698 2.63347 2.76465 -2.6191 0.0507597 -0.579477 0.11396 0 0 0 0 0 0 0.00243002 -0.195591 -0.0738153 14.6568 2.33685 4.48787 3.61196 2.67217 -2.0764 0.0460749 -0.60626 0.121576 13.6516 2.09543 3.45463 1.65572 2.85985 -3.16118 0.0554911 -0.552625 0.106337 
26.982 1 257 16.2035 4.05208 4.1401 -1.0947 -3.39635 -0.819534 0.0789285 0.200235 -0.0162709 0 0 0 0 0 0 -0.00149634 -0.0633637 -0.0236897 16.4405 3.96147 4.23041 -1.39402 -3.95086 -0.568256 0.0875911 0.195791 -0.0195715 16.1102 3.94179 3.85412 -0.789797 -2.83216 -1.06963 0.0702501 0.204754 -0.0129573 
26.982 1 218 18.1921 2.08221 4.15454 -1.2316 0.0628101 -1.99682 0.0493935 0.166719 -0.383966 0 0 0 0 0 0 -0.0433966 -0.143793 -0.0808255 17.6053 1.33979 4.23402 -2.29311 -0.905546 -1.82265 0.0541235 0.156189 -0.394105 18.851 2.59852 3.88139 -0.16765 1.04253 -2.1676 0.0446426 0.177286 -0.373803 
26.982 1 18 18.2492 2.0455 0.00325339 1.67424 4.11569 -1.18604 0.0168766 0.0997528 -0.0821293 0 0 0 0 0 0 -0.000949598 -0.135088 -0.197204 18.492 1.60717 -0.0443896 1.81614 3.81126 -0.806049 0.0142923 0.106862 -0.0834886 18.0773 2.25615 -0.190804 1.53222 4.42871 -1.56399 0.0194673 0.0926693 -0.0807774 
26.982 1 819 18.0265 0.0212037 18.1601 -2.2903 1.50058 3.51561 0.575832 -0.0442706 0.046326 0 0 0 0 0 0 -0.0843318 -0.248027 -0.00378253 18.5393 40.1378 17.9931 -1.71431 1.43781 3.11884 0.592236 -0.0511192 0.0425102 17.5814 40.9437 18.3067 -2.86804 1.56646 3.91946 0.559397 -0.037403 0.0501422 
26.982 1 2813 11.79 20.2341 16.2079 -3.05153 -1.0957 -0.917338 0.530854 -0.156497 0.233593 0 0 0 0 0 0 -0.0536552 0.0856021 -0.0833648 11.709 20.2513 16.4594 -3.11741 -1.44393 -0.648033 0.540509 -0.168467 0.239644 12.1483 20.2177 15.9089 -2.98514 -0.74496 -1.18469 0.521169 -0.144489 0.227563 
26.982 1 22 22.2201 1.98795 -0.0310436 -0.0450863 -1.84818 -6.86422 0.359401 -0.0426974 0.0770345 0 0 0 0 0 0 -0.0105243 -0.0774078 -0.248466 22.7856 1.89175 -0.641711 0.702501 -1.78781 -7.178 0.363315 -0.0370986 0.0842829 21.5897 1.85686 0.340048 -0.789159 -1.89907 -6.54447 0.355473 -0.0483436 0.0697694 
26.982 1 24 20.2871 1.94168 1.96805 -1.85818 -0.509755 1.67105 -0.0575914 0.595774 0.212498 0 0 0 0 0 0 -0.051263 -0.133896 -0.110793 20.0508 1.62991 2.11213 -2.15489 -0.612788 1.73607 -0.0596636 0.623825 0.228227 20.5251 2.0274 1.60727 -1.56102 -0.39613 1.61092 -0.0555033 0.567724 0.19676 
26.982 1 59 18.2968 4.1863 2.03941 1.34451 -2.24933 -2.32764 0.0110105 -0.512147 0.0953439 0 0 0 0 0 0 0.00591843 -0.0622844 -0.0874702 18.6409 4.03606 1.70694 1.83625 -2.39338 -2.14253 0.0248124 -0.531403 0.100486 18.0249 4.13377 2.15422 0.856002 -2.09662 -2.50891 -0.0028317 -0.492841 0.0902061 
26.982 1 61 20.3308 3.99097 -0.00622327 -0.922152 -1.6424 1.88635 -0.25055 0.0251892 0.0488948 0 0 0 0 0 0 0.0308503 0.00919479 -0.259641 20.6595 3.46544 -0.228058 -0.447403 -2.22381 1.7972 -0.251787 0.019463 0.050481 20.0038 4.31382 -0.0244441 -1.39701 -1.05268 1.98042 -0.249337 0.0309296 0.0472941 
26.982 1 63 22.3226 4.04264 1.95515 0.466018 0.46567 -3.00177 0.0726491 -0.184391 0.375729 0 0 0 0 0 0 0.011182 0.0225528 -0.130165 22.205 4.4659 1.08434 0.626846 0.693963 -3.8188 0.0734619 -0.192314 0.39153 22.3746 3.41782 2.61096 0.306842 0.247278 -2.17727 0.0718309 -0.176476 0.35994 
26.982 1 222 22.2725 2.12139 4.09814 5.98551 0.410868 0.646006 0.112079 0.0271683 -0.324716 0 0 0 0 0 0 -0.0146297 -0.0606933 -0.055401 21.8237 1.53804 4.03588 5.75292 -0.109539 1.03046 0.107077 0.0261875 -0.342673 22.6533 2.48056 3.9664 6.21909 0.941103 0.264957 0.117106 0.0281012 -0.306741 
26.982 1 261 20.1669 4.05237 4.31102 2.4409 2.76041 3.50698 0.0283386 -0.255193 -0.965932 0 0 0 0 0 0 -0.00785683 -0.0235725 -0.0467414 19.7192 3.86571 4.3271 1.95565 2.31831 3.87341 0.0276461 -0.259283 -0.994319 20.6173 4.03635 4.10078 2.92706 3.21297 3.14342 0.0289958 -0.251049 -0.937526 
26.982 1 25 24.5603 -0.0108124 0.0882352 -2.12126 7.632 -7.97747 -0.462499 0.16379 0.14298 0 0 0 0 0 0 0.0416346 -0.152219 -0.188388 24.0882 0.0607006 0.349846 -2.46456 8.23704 -7.82937 -0.467587 0.169967 0.147101 24.8986 -0.336678 -0.415047 -1.77181 7.03371 -8.12086 -0.457431 0.157596 0.138848 
26.982 1 635 34.5653 -0.00215108 14.2101 1.13063 4.11202 -1.1801 0.339869 -0.0582526 -0.1669 0 0 0 0 0 0 0.102494 -0.250306 -0.0682789 34.2882 40.5845 14.515 1.0553 4.20714 -0.755937 0.338196 -0.0498425 -0.173473 34.3595 40.4508 13.8319 1.20685 4.02113 -1.60144 0.341496 -0.0666634 -0.160382 
26.982 1 27 26.5508 0.0397404 2.16877 -3.37773 2.87031 -2.53613 0.0816211 -0.471789 -0.499389 0 0 0 0 0 0 0.0738905 -0.214942 -0.124059 26.701 -0.207962 1.6364 -3.20612 2.96964 -2.76621 0.0863256 -0.492633 -0.508488 26.1938 0.035011 2.48 -3.54705 2.77941 -2.3056 0.0769147 -0.450933 -0.490293 
26.982 1 28 24.4962 2.01111 1.98113 3.71308 2.20932 1.46008 -0.549334 0.0543811 0.369555 0 0 0 0 0 0 0.0358447 -0.0595767 -0.131811 24.0394 2.30862 1.79973 3.39895 2.89006 1.74919 -0.565348 0.0597651 0.376936 24.8184 1.48743 1.94515 4.0319 1.5385 1.17424 -0.533301 0.0489786 0.362185 
26.982 1 65 24.4966 3.98101 0.0683678 0.939683 -1.83625 2.46909 -0.654645 0.0739558 -0.0348328 0 0 0 0 0 0 0.0333658 0.0390757 -0.267008 24.8335 4.25946 0.170557 1.05554 -1.19861 3.10897 -0.676269 0.0782273 -0.0358213 24.0248 3.49894 -0.271431 0.826939 -2.46856 1.83723 -0.633024 0.0696466 -0.0338114 
26.982 1 67 26.4386 4.00667 2.04921 6.74912 1.5835 -3.4505 0.19546 0.334107 0.5468 0 0 0 0 0 0 0.00660416 0.00464228 -0.163959 27.2524 3.53314 1.85548 7.15244 1.13984 -3.31978 0.194704 0.345105 0.556387 25.4171 4.27832 2.02637 6.34695 2.03468 -3.57649 0.196225 0.323063 0.537228 
26.982 1 225 24.2877 0.044811 4.06418 -0.698709 3.53567 2.68957 0.348489 -0.123975 -0.0105612 0 0 0 0 0 0 0.0309888 -0.194064 -0.105032 24.4679 -0.909642 3.73537 -0.424715 3.3574 3.11647 0.362061 -0.133585 -0.0103295 23.9709 0.747922 4.19717 -0.969675 3.72233 2.26549 0.33492 -0.114356 -0.0107599 
26.982 1 226 26.5219 1.92024 3.98779 -0.436705 3.7502 -0.55398 -0.341566 0.557517 0.607291 0 0 0 0 0 0 0.0392011 -0.0963652 -0.0497002 26.5731 1.4889 3.90204 -0.417054 3.73049 -0.568048 -0.353799 0.564629 0.614672 26.2638 2.12724 3.8782 -0.45429 3.78049 -0.539175 -0.329335 0.550406 0.59994 
26.982 1 265 24.556 4.00286 4.21143 -6.23713 5.63825 -3.13628 -0.296201 -0.124871 -0.274699 0 0 0 0 0 0 0.000589283 -0.00771609 -0.0436769 24.5308 3.51831 3.89993 -5.99572 5.40794 -3.22534 -0.306295 -0.131608 -0.289897 24.4447 4.28611 4.32809 -6.47681 5.87758 -3.04551 -0.286085 -0.118179 -0.259493 
26.982 1 30 30.5201 2.26723 0.0717825 -2.50977 -3.21832 -3.94625 0.138431 -0.747075 -0.108443 0 0 0 0 0 0 -0.0311349 -0.145931 -0.242267 30.2834 1.61012 -0.157786 -2.72166 -3.6945 -3.89948 0.141613 -0.770997 -0.103577 30.4068 2.69504 0.0610409 -2.30092 -2.73686 -3.98894 0.135248 -0.723207 -0.113306 
26.982 1 32 28.6653 2.15803 2.24305 8.38651 -2.60191 -0.994724 -0.249088 -0.116597 -0.582628 0 0 0 0 0 0 -0.0242548 -0.138338 -0.129289 28.6093 1.82254 2.17949 8.40711 -2.46775 -0.806046 -0.236902 -0.126627 -0.595632 28.441 2.26759 2.08831 8.36378 -2.72551 -1.18111 -0.261297 -0.10657 -0.569626 
26.982 1 69 28.4119 4.00699 0.062047 -1.72564 -1.8094 -0.200452 0.30367 0.62587 0.155237 0 0 0 0 0 0 -0.0714163 -0.00120063 -0.260722 28.3313 4.21229 -0.123105 -1.87312 -1.40144 -0.444535 0.303059 0.641637 0.160053 28.2112 3.59558 0.00689699 -1.58082 -2.2157 0.0493415 0.304273 0.610069 0.150456 
26.982 1 71 30.734 4.11926 2.02239 1.19331 2.17642 0.780121 -0.246995 -0.0935334 0.571372 0 0 0 0 0 0 -0.0268005 -0.0218921 -0.0882862 30.6241 4.17702 1.91723 1.19966 2.56055 0.73447 -0.244048 -0.0977774 0.591977 30.494 3.85489 1.91337 1.18385 1.79577 0.831404 -0.24996 -0.0893209 0.550768 
26.982 1 230 30.5772 2.07035 4.11139 1.25936 -0.197757 2.98325 0.214921 0.19073 0.224553 0 0 0 0 0 0 -0.035364 -0.100645 -0.0340779 30.0482 1.18696 3.94465 0.724946 -0.514833 3.05496 0.223513 0.196169 0.233036 30.7582 2.72645 4.08857 1.79246 0.127408 2.91746 0.206275 0.18528 0.216084 
26.982 1 269 28.4421 4.15046 4.22718 -1.55109 3.36219 0.684107 0.484406 -0.594397 -0.141527 0 0 0 0 0 0 0.00842501 -0.0285231 -0.0377027 28.3922 4.50591 4.49987 -1.70746 4.27306 1.50463 0.501485 -0.600446 -0.149391 28.2132 3.59235 3.76093 -1.39478 2.45742 -0.132694 0.467304 -0.588383 -0.133636 
26.982 1 35 34.7835 0.139527 1.96894 -1.10188 -3.62945 7.30259 0.0856405 -0.384434 0.441292 0 0 0 0 0 0 0.0666055 -0.228139 -0.11599 34.484 0.53135 1.74549 -1.18454 -3.16029 7.53942 0.0980249 -0.388541 0.458409 34.601 -0.509746 1.97959 -1.01795 -4.09362 7.07265 0.0732174 -0.380334 0.424142 
26.982 1 36 32.7981 2.12479 2.1232 -4.43061 3.3001 0.582583 -0.654792 -0.267966 -0.0230193 0 0 0 0 0 0 -0.00345014 -0.134176 -0.113391 32.6396 2.10174 2.01454 -4.45564 3.82285 0.946595 -0.672229 -0.275464 -0.011296 32.5404 1.9204 2.02013 -4.40605 2.78551 0.226159 -0.637369 -0.260496 -0.0347823 
26.982 1 73 32.5646 4.02986 -0.161863 2.82062 3.67597 0.440945 0.582607 0.1205 0.324243 0 0 0 0 0 0 0.0272973 -0.0241942 -0.27791 31.6916 4.24769 0.00593997 2.3087 4.5727 0.861729 0.596582 0.126954 0.332629 33.0195 3.60766 -0.569758 3.32939 2.78365 0.0258004 0.568631 0.114 0.315894 
26.982 1 75 34.6646 4.17759 2.02134 4.46415 -0.45474 -0.424976 0.342522 -0.0363135 -0.00880702 0 0 0 0 0 0 0.0733959 -0.0462315 -0.12976 35.3743 3.9025 1.82688 5.13008 -0.507848 -0.537308 0.349036 -0.0477615 -0.00513587 33.4674 4.24301 2.00171 3.79487 -0.40262 -0.306522 0.336037 -0.0248729 -0.0124857 
26.982 1 234 34.7063 1.94484 4.16457 -8.3324 4.32274 -3.13897 -0.07525 0.321247 -0.0407624 0 0 0 0 0 0 0.0589563 -0.106841 -0.0524047 35.2163 1.46561 4.24375 -7.85923 4.13005 -2.63068 -0.0769243 0.330295 -0.0386708 33.7099 2.19037 3.89667 -8.80837 4.51845 -3.64241 -0.0735635 0.312209 -0.0428737 
26.982 1 273 32.7044 4.01051 4.04144 -2.98983 -1.38962 1.03137 -0.285445 0.350849 0.350022 0 0 0 0 0 0 0.00171781 -0.016076 -0.00599078 33.0984 3.41595 4.09174 -2.20962 -1.37423 1.26642 -0.290759 0.356216 0.354739 31.8914 4.3967 3.79926 -3.77329 -1.40334 0.797938 -0.280146 0.345506 0.345299 
26.982 1 4 40.8052 2.19876 2.07423 0.925083 -6.22759 3.50896 0.436181 0.059066 0.151665 0 0 0 0 0 0 -0.051528 -0.069094 -0.201008 39.8299 2.48052 1.92121 0.15915 -6.22175 3.76698 0.442974 0.0504022 0.153116 41.0883 1.6793 2.01456 1.69184 -6.23303 3.25662 0.429418 0.0678185 0.150227 
26.982 1 40 36.7902 2.15411 2.05985 4.41105 3.02275 -3.82475 -0.17125 -0.163758 0.456208 0 0 0 0 0 0 0.0782566 -0.138151 -0.156435 37.1797 2.85585 2.2194 4.8975 3.61476 -3.67779 -0.174667 -0.177819 0.4739 35.8461 1.21513 1.6891 3.92224 2.43006 -3.96498 -0.167826 -0.149664 0.438497 
26.982 1 79 38.7418 4.12639 2.02621 0.855904 4.46821 4.92261 0.276109 0.128272 0.443768 0 0 0 0 0 0 0.0195329 -0.048899 -0.245932 38.4167 4.53228 1.95059 0.701631 4.89569 4.95431 0.277747 0.116681 0.456581 38.4434 3.51045 1.88778 1.00943 4.0438 4.89653 0.274515 0.139909 0.430947 
26.982 1 961 -0.418915 16.3935 16.1781 1.94454 2.77585 -1.35762 -0.0715886 -0.258652 0.0990378 0 0 0 0 0 0 -0.130045 -0.0665609 -0.0779477 40.5071 16.1951 16.2512 1.87311 2.56926 -1.40268 -0.0823875 -0.268384 0.111597 40.6854 16.541 16.0526 2.01747 2.98335 -1.3154 -0.0607863 -0.24888 0.086431 
26.982 1 238 38.986 2.2059 4.21602 1.26121 -4.1377 1.45189 -0.436817 -0.304989 -0.076564 0 0 0 0 0 0 -0.0387741 -0.131328 -0.113653 38.9049 2.54619 3.9509 1.69044 -3.98676 1.76078 -0.444575 -0.32325 -0.0791693 38.444 1.62956 4.29143 0.83111 -4.28549 1.14656 -0.429026 -0.28667 -0.0739539 
26.982 1 277 36.78 4.1725 4.21483 -5.2838 -4.27129 3.8328 -0.179532 -0.224962 -0.407236 0 0 0 0 0 0 0.0046196 -0.0598444 -0.0580684 36.5267 3.71971 4.11393 -5.57011 -4.47671 4.15248 -0.193504 -0.247973 -0.412383 36.4772 4.41417 4.12509 -4.99958 -4.06441 3.51734 -0.165514 -0.201915 -0.402089 
26.982 1 631 30.583 -0.00424938 14.0736 -2.35551 0.463034 1.33994 -0.169795 0.259939 0.299347 0 0 0 0 0 0 -0.0502447 -0.257883 -0.0870932 30.9965 41.3557 13.8997 -1.75313 1.22035 1.10599 -0.175128 0.265053 0.31778 29.8255 39.6745 14.1745 -2.95978 -0.293981 1.57618 -0.164459 0.254791 0.280859 
26.982 1 48 3.78992 6.10001 1.99389 3.54341 1.55996 -3.54415 -0.230652 -0.0113702 -0.200631 0 0 0 0 0 0 -0.0850131 0.0295946 -0.188659 3.01489 5.8298 1.39124 2.67228 1.07242 -4.25801 -0.233401 -0.00963851 -0.209679 5.12373 6.19242 2.37638 4.41811 2.05373 -2.82814 -0.227935 -0.0131152 -0.191574 
26.982 1 627 26.2885 0.0345278 14.0093 0.427442 -0.193306 6.72318 0.712618 -0.0182749 0.367178 0 0 0 0 0 0 -0.0183625 -0.250936 -0.126869 25.5865 40.6664 14.1247 0.00991272 -0.21513 7.1425 0.717461 -0.025668 0.384557 26.7887 40.4418 13.8216 0.849705 -0.170209 6.30774 0.707819 -0.0108278 0.349818 
26.982 1 83 1.70898 8.1268 1.98351 0.971888 1.42147 1.25198 -0.34675 -0.112377 -0.161671 0 0 0 0 0 0 -0.140285 -0.0348626 -0.227053 1.22723 8.34825 1.93417 0.549465 1.86266 1.11166 -0.357751 -0.109405 -0.167812 2.81917 7.74999 1.81426 1.3987 0.98198 1.39498 -0.335754 -0.115438 -0.155545 
26.982 1 403 1.8047 0.0652802 10.2673 1.31992 -1.47193 3.24277 -0.0797191 0.0199642 -0.158646 0 0 0 0 0 0 -0.130426 -0.176138 -0.018197 1.91468 40.7328 9.76801 1.3774 -1.04233 3.13486 -0.0733268 0.0219877 -0.162201 2.31624 40.4361 10.647 1.26122 -1.89843 3.35197 -0.0861114 0.0179577 -0.155175 
26.982 1 242 1.61034 6.1656 3.9627 2.35024 -0.0311896 -1.82361 0.0666314 -0.0350355 0.382382 0 0 0 0 0 0 -0.14389 0.0213831 -0.110763 1.02339 6.50245 4.18789 1.58726 0.121387 -1.44134 0.0632489 -0.0400461 0.396251 2.82383 5.64954 3.54754 3.11548 -0.179603 -2.19978 0.0700092 -0.0300598 0.368474 
26.982 1 285 3.77485 7.99286 3.91174 -5.62145 2.56489 -2.07713 -0.024042 0.345196 0.457064 0 0 0 0 0 0 -0.0411055 0.0245756 -0.0541249 2.66527 8.19493 3.40569 -6.83693 3.13812 -2.42814 -0.0235762 0.367879 0.480669 5.44332 7.63539 4.22576 -4.40141 1.99374 -1.72197 -0.0245369 0.322392 0.433403 
26.982 1 46 5.77742 6.0459 -0.0601173 2.09554 -1.61381 2.73199 0.13885 0.418758 0.227097 0 0 0 0 0 0 -0.00571602 0.0428895 -0.275258 5.64866 5.70149 0.700636 1.8829 -2.19917 3.4719 0.145376 0.426466 0.229438 6.39089 6.21377 -1.06198 2.30765 -1.02091 1.99714 0.132268 0.411042 0.224809 
26.982 1 52 7.79945 6.1342 2.09176 1.30096 2.21045 -1.03996 0.170343 -0.266425 -0.242047 0 0 0 0 0 0 0.0486093 0.0265553 -0.195392 8.02583 6.06296 2.99257 1.1683 2.03204 -0.468413 0.172754 -0.268786 -0.259635 7.98591 6.02907 0.972117 1.42945 2.39702 -1.60895 0.167877 -0.264069 -0.224424 
26.982 1 87 5.81883 8.09418 1.91928 -1.07124 -5.33625 -2.83881 0.133517 -0.14785 0.062227 0 0 0 0 0 0 -0.00784754 0.0101343 -0.176597 5.62397 8.12041 2.21008 -1.27029 -5.67407 -2.45876 0.140844 -0.135726 0.0659093 6.50029 7.91208 1.40927 -0.870539 -4.99615 -3.2178 0.126152 -0.160055 0.058542 
26.982 1 603 1.82334 0.133658 13.9771 0.284011 5.1692 0.435297 -0.543378 -0.208964 0.468685 0 0 0 0 0 0 -0.0807094 -0.197646 -0.02477 2.07053 40.6267 13.7142 0.155769 5.1828 0.0962348 -0.54919 -0.215768 0.492078 2.19446 40.6805 14.1703 0.41009 5.1619 0.782109 -0.537595 -0.202117 0.445303 
26.982 1 246 5.81787 6.06336 4.10362 0.115809 -0.73429 1.81416 6.45632e-05 0.0510066 -0.0427151 0 0 0 0 0 0 0.00338232 0.00728698 -0.0401585 6.37398 5.62051 3.27133 0.607575 -1.16246 1.15478 0.00275064 0.0596866 -0.0484729 5.7475 6.32837 4.74132 -0.376188 -0.300062 2.47257 -0.00263764 0.0422814 -0.0369682 
26.982 1 289 7.98024 8.05288 4.01026 -0.860844 -1.39613 -0.287158 -0.485884 0.721411 0.229385 0 0 0 0 0 0 0.000348801 0.0151251 -0.042968 8.64529 7.42037 3.87 -0.367582 -2.00054 -0.129602 -0.492669 0.743911 0.235379 7.72872 8.53154 3.9568 -1.35805 -0.78809 -0.444902 -0.479085 0.698828 0.223401 
26.982 1 92 7.83496 10.0641 1.98721 2.02453 -1.39511 -2.51002 0.0705296 0.319005 0.242705 0 0 0 0 0 0 -0.00622555 -0.0195517 -0.145152 7.86984 9.66991 1.4855 1.94468 -1.41034 -2.64437 0.0607119 0.337401 0.251301 8.21433 10.3277 2.27174 2.10074 -1.37881 -2.37271 0.080368 0.300574 0.234084 
26.982 1 286 5.74662 10.0158 3.98735 0.618022 1.50062 -3.52567 0.236982 0.439914 0.190247 0 0 0 0 0 0 -0.0037114 0.0271522 -0.0317831 5.84284 9.75494 4.11967 0.764099 1.48189 -2.94074 0.243224 0.466134 0.197095 6.13965 10.1451 3.66409 0.475632 1.51865 -4.10901 0.230749 0.413614 0.183349 
26.982 1 1021 20.4754 0.128521 20.2985 -1.68934 -1.7275 -1.38669 -0.313079 -0.426861 0.0386604 0 0 0 0 0 0 -0.00355361 -0.254658 0.011204 20.8233 40.7233 19.9488 -1.38443 -1.48939 -1.95574 -0.307865 -0.442612 0.0399615 20.1279 40.574 20.6487 -1.99281 -1.96261 -0.815408 -0.318287 -0.411088 0.0373491 
26.982 1 56 11.9949 6.1538 2.32603 3.21461 1.5016 -0.721413 0.0848468 -0.428669 -0.633943 0 0 0 0 0 0 -0.0442166 0.0129711 -0.172865 12.1727 6.30486 2.65205 3.42975 2.04209 0.0112206 0.0782203 -0.440567 -0.652933 12.0961 5.82794 1.77932 3.00024 0.969516 -1.45256 0.0915188 -0.416781 -0.614945 
26.982 1 91 10.0886 8.07675 2.19157 4.56024 -2.1665 1.84264 -0.0688063 0.0596603 -0.331367 0 0 0 0 0 0 0.00677285 -0.0401125 -0.20611 10.5578 8.64505 2.31629 4.95528 -1.91714 2.38307 -0.0564687 0.0584828 -0.346746 9.96528 7.35766 1.85014 4.16202 -2.40834 1.30573 -0.0811361 0.0608329 -0.315974 
26.982 1 250 9.75095 6.14134 4.17829 6.56092 0.769425 1.63502 1.11941 -0.590942 -0.466133 0 0 0 0 0 0 0.0181181 -0.00652964 -0.0611262 10.1 6.16891 5.49232 6.82595 1.18991 3.16719 1.13648 -0.605787 -0.484616 9.74575 5.93996 2.66773 6.29095 0.359125 0.102211 1.10231 -0.576094 -0.447601 
26.982 1 293 12.0831 8.11492 4.25439 2.67656 -6.59878 0.0132058 -0.0499064 0.0840414 -0.44336 0 0 0 0 0 0 -0.0129714 0.00368749 -0.0434677 12.0086 7.172 5.20781 2.20191 -7.78163 1.43716 -0.0532219 0.0923046 -0.453593 12.4362 8.90607 3.10657 3.15146 -5.41031 -1.40701 -0.04655 0.0757716 -0.433088 
26.982 1 54 14.1431 6.21381 0.106137 -3.00221 -4.35891 5.55308 -0.307243 -0.2764 0.0820581 0 0 0 0 0 0 -0.0780281 0.0123537 -0.271417 13.7924 6.69059 -0.337904 -3.34886 -4.22617 5.10859 -0.31796 -0.279421 0.0870907 14.7021 5.5619 0.306948 -2.65361 -4.48441 5.99907 -0.296476 -0.273389 0.0770147 
26.982 1 60 16.2287 6.00916 2.0176 3.92922 -5.03216 0.471179 0.0866196 0.353434 0.0364231 0 0 0 0 0 0 -0.00590105 0.00231406 -0.0990078 16.7902 6.55794 0.906277 4.33033 -4.83056 -0.0834093 0.0978691 0.377423 0.0326493 15.8061 5.28274 2.91131 3.53064 -5.22742 1.02929 0.0753806 0.329478 0.040228 
26.982 1 95 14.1619 8.07778 2.17625 -1.5679 2.21767 -3.19578 -0.173385 0.107538 -0.247421 0 0 0 0 0 0 -0.0500959 0.0113399 -0.127606 14.5775 8.26182 0.823576 -1.39762 2.31492 -4.09556 -0.180188 0.123461 -0.259955 13.9548 7.74174 3.31327 -1.73549 2.12599 -2.29268 -0.166511 0.0916138 -0.234858 
26.982 1 97 16.1258 8.13417 0.0397645 0.859957 4.33843 -1.73525 0.126995 0.205191 0.122485 0 0 0 0 0 0 -0.0222374 0.00381096 -0.267679 15.7942 8.89123 0.658677 0.666047 5.01706 -1.12516 0.120285 0.205712 0.129847 16.5949 7.22263 -0.819776 1.05514 3.66394 -2.34009 0.133726 0.204656 0.115139 
26.982 1 254 14.1981 5.95483 4.10331 0.511651 -3.92499 -2.09922 -0.501402 0.188033 -0.0598053 0 0 0 0 0 0 -0.0260458 -0.00476905 -0.027671 14.0768 5.70866 4.36577 0.20591 -4.19637 -1.27422 -0.519178 0.196563 -0.0617129 14.5304 6.02758 3.64483 0.821862 -3.64403 -2.92524 -0.483549 0.179522 -0.057868 
26.982 1 297 16.1445 7.89881 4.16026 -0.246186 -4.0529 -6.91625 -0.0283846 0.507919 -0.224096 0 0 0 0 0 0 -0.0050907 0.0153591 -0.0242383 16.417 7.6882 3.18159 -0.221346 -4.05933 -7.88062 -0.0286361 0.52305 -0.243451 16.0114 7.95703 4.94701 -0.266626 -4.04231 -5.95128 -0.0280949 0.492783 -0.204718 
26.982 1 58 18.275 6.09302 -0.127498 3.31548 -0.91917 0.0132529 -0.31418 0.258877 0.441402 0 0 0 0 0 0 0.0240328 0.0109433 -0.28112 17.1606 6.90457 0.129145 2.33277 0.0259357 0.215622 -0.317378 0.264727 0.449334 19.4583 5.10502 -0.625704 4.29852 -1.85657 -0.184293 -0.311003 0.253071 0.433499 
26.982 1 2639 39.0391 20.2698 14.2147 0.836896 2.31201 -2.19839 -0.250029 0.14535 -0.240773 0 0 0 0 0 0 0.0128301 0.0666344 -0.169276 38.9773 21.3847 13.8336 0.960691 3.51815 -2.69432 -0.265664 0.152111 -0.259259 38.4824 19.1549 14.524 0.716302 1.10623 -1.70063 -0.234415 0.138575 -0.222235 
26.982 1 64 20.2579 6.11414 1.90941 5.03892 1.42369 0.489079 -0.0460552 -0.380015 0.610216 0 0 0 0 0 0 0.0498526 -0.0144714 -0.127044 19.7332 6.28873 1.08579 4.96873 1.43719 0.163776 -0.0462864 -0.409215 0.629836 20.7856 5.75824 2.51863 5.11028 1.41426 0.821076 -0.0458797 -0.350763 0.590608 
26.982 1 99 18.2403 8.07502 2.11978 -1.04603 -1.94698 -1.79517 -0.306607 -0.0359746 -0.208586 0 0 0 0 0 0 0.0110565 -0.00608474 -0.103941 17.8767 8.82489 0.915338 -1.64739 -1.47631 -2.70063 -0.316516 -0.044651 -0.223428 18.6733 7.17034 3.10926 -0.443037 -2.41611 -0.885291 -0.296711 -0.0272848 -0.19372 
26.982 1 103 22.2263 8.059 2.06117 -1.66639 -5.38141 8.12999 0.500854 0.168464 0.096428 0 0 0 0 0 0 0.0329082 0.0115262 -0.179005 21.2513 8.3701 2.78684 -2.05311 -5.13386 8.98656 0.51677 0.170861 0.0975302 23.1347 7.59035 1.12183 -1.28081 -5.62723 7.28083 0.484851 0.166085 0.0953229 
26.982 1 258 18.1901 6.16441 4.10971 0.0441709 2.82405 -0.00789009 0.229911 -0.363028 0.0529617 0 0 0 0 0 0 0.0111321 -0.0109374 -0.0157428 18.2495 6.33885 4.13915 -0.20021 3.38919 0.475357 0.236089 -0.373842 0.0420859 18.2031 5.81088 3.88802 0.292077 2.26536 -0.48784 0.223681 -0.35216 0.0638578 
26.982 1 262 22.22 5.87048 4.08794 1.65675 1.04003 -2.52198 0.250208 0.350929 -0.279411 0 0 0 0 0 0 0.0108884 0.0148251 -0.0437505 21.0056 6.23014 3.94506 1.14596 1.60438 -2.73714 0.255298 0.359299 -0.291504 23.3672 5.33058 4.03887 2.16724 0.480076 -2.303 0.245075 0.342592 -0.267308 
26.982 1 301 20.3337 8.12242 4.02411 0.914556 0.956475 0.429147 -0.442027 -0.427506 0.316973 0 0 0 0 0 0 0.0104701 -0.00923897 -0.0179738 19.6466 7.55924 4.09855 0.746026 0.545238 0.913315 -0.443806 -0.439593 0.330693 21.0215 8.52938 3.75916 1.08267 1.36952 -0.0507038 -0.440323 -0.415414 0.303246 