ITEM: TIMESTEP
18175
ITEM: NUMBER OF ATOMS
4000
ITEM: BOX BOUNDS pp pp pp
-3.76812 44.2681
1.53963 38.9604
0.95641 39.5436
ITEM: ATOMS mass type id x y z vx vy vz fx fy fz xrad yrad zrad vxrad vyrad vzrad fxrad fyrad fzrad xub yub zub vxub vyub vzub fxub fyub fzub xlb ylb zlb vxlb vylb vzlb fxlb fylb fzlb 
26.982 1 43 -2.73855 5.63699 2.67548 2.20905 -12.9039 5.93703 0.0460646 -0.0971481 0.802882 0 0 0 0 0 0 -0.15096 -0.1071 -0.154462 -16.7927 17.6901 32.9763 3.36876 -6.09514 11.0976 0.0503397 -0.0816174 0.814078 17.9548 -8.68652 -29.2957 0.97097 -19.6793 0.728261 0.0415977 -0.112732 0.791588 
26.982 1 202 -2.84168 3.68346 4.83188 1.81856 1.7449 -4.25765 0.244385 0.103785 0.165631 0 0 0 0 0 0 -0.18177 -0.0576299 -0.120329 8.50922 -12.774 25.5778 2.58158 2.60591 9.52805 0.248629 0.110931 0.178842 -7.61227 17.6631 -17.273 0.937492 0.98651 -18.1505 0.24002 0.0967445 0.152246 
26.982 1 245 -0.900883 5.66843 4.79639 0.340923 -1.59702 2.63035 0.566776 0.0625503 0.0603951 0 0 0 0 0 0 -0.0211587 0.00423061 -0.0461663 -17.5497 22.5926 19.0629 -4.67163 5.38347 9.4226 0.592545 0.0872432 0.0563189 21.7266 -13.2625 -10.9318 5.28381 -8.44095 -4.26989 0.540879 0.0377975 0.0643408 
26.982 1 8 -0.540457 3.71965 2.89463 -3.12615 -1.05163 -1.43133 0.00373838 0.0561133 0.415394 0 0 0 0 0 0 -0.070765 -0.0468145 -0.14881 -4.11458 25.0298 17.5009 -0.419913 1.24232 3.14768 0.0181196 0.0684004 0.419385 8.95397 -20.1422 -13.3958 -5.92804 -3.24725 -6.12565 -0.0108284 0.0438409 0.411285 
26.982 1 45 -0.356031 5.87203 1.2649 0.367798 -1.58924 -1.59328 0.0445349 0.241086 0.0370076 0 0 0 0 0 0 -0.0091023 -8.69426e-05 -0.255323 -7.79414 10.4567 56.4893 -1.86604 0.674647 1.26297 0.0670665 0.246701 0.0479783 13.1842 -0.743041 25.5823 2.62337 -3.77885 -4.50217 0.0219018 0.235444 0.0259043 
26.982 1 205 -0.605211 1.88449 4.94517 -0.492874 0.902234 0.276962 -0.110247 0.140614 0.0390106 0 0 0 0 0 0 -0.0365872 -0.105574 -0.0862946 14.8211 24.862 30.8296 16.3391 -9.50486 20.946 -0.0880989 0.122477 0.0597866 -10.255 57.3295 -22.3363 -17.4548 11.3783 -20.482 -0.132497 0.158827 0.0180972 
26.982 1 608 2.0039 1.56625 15.3375 7.78889 -2.67622 -0.489772 0.180294 -0.686914 -0.486955 0 0 0 0 0 0 -0.00165019 -0.255186 -0.0143141 -19.7368 -7.93115 -14.494 -0.833096 -4.36293 2.38542 0.168404 -0.688463 -0.469123 30.0582 8.40098 45.0236 16.5393 -0.979198 -3.41132 0.19231 -0.685335 -0.504886 
26.982 1 998 42.2894 17.3179 16.7804 2.38471 3.46895 1.89511 -0.411303 -0.066948 -0.219131 0 0 0 0 0 0 -0.00600762 -0.00532486 -0.0149787 37.3276 41.162 34.2108 2.37063 -1.20169 5.14006 -0.449312 -0.0675945 -0.199782 40.6132 -6.6925 -0.672088 2.35285 8.20181 -1.28529 -0.373353 -0.0664023 -0.238485 
26.982 1 206 1.48557 3.64229 5.17235 -3.1631 1.33792 7.87236 -0.283828 0.00584133 -0.342479 0 0 0 0 0 0 -0.00671597 -0.0361011 -0.0434124 21.0404 -30.3349 60.2733 6.43532 -14.48 27.6087 -0.28696 -0.00347193 -0.352412 -12.9119 35.4294 -51.2744 -12.8432 17.3659 -11.9464 -0.280732 0.0152419 -0.332644 
26.982 1 12 4.06251 4.28186 3.91357 6.27902 2.50048 -1.58361 -0.163065 0.16468 -0.331182 0 0 0 0 0 0 0.00207172 -0.0328635 -0.0874532 12.6654 -15.8171 -3.83795 11.749 -12.6397 3.56032 -0.168725 0.154212 -0.34686 -0.221747 22.3521 10.0616 0.743278 17.8885 -6.80015 -0.157403 0.175287 -0.315505 
26.982 1 9 4.09378 2.4887 1.67494 5.17048 -2.26921 4.5005 -0.31457 0.0606953 0.277529 0 0 0 0 0 0 -0.00082438 -0.16987 -0.210222 11.3381 4.04895 24.5509 16.2197 -14.8993 17.1441 -0.335582 0.0538466 0.275591 1.13898 -1.75844 -22.8788 -5.98805 10.4957 -8.24908 -0.293704 0.0676181 0.27947 
26.982 1 6 1.70112 3.96171 1.47116 -1.19366 3.34111 -0.275514 0.43494 0.378373 -0.416952 0 0 0 0 0 0 0.0106988 -0.0170019 -0.245208 -4.82839 -26.4951 30.5643 0.737814 -3.84682 6.44313 0.449206 0.378075 -0.426431 13.2899 32.0858 -29.3546 -3.21544 10.6843 -7.08874 0.420585 0.378717 -0.407578 
26.982 1 7 1.73779 1.85893 3.22923 -1.51492 -4.3445 0.915064 -0.164188 -0.666822 -0.399154 0 0 0 0 0 0 0.0177157 -0.183968 -0.15304 21.2731 14.7647 28.7073 12.5071 -20.4437 16.9164 -0.149815 -0.686973 -0.396596 -12.8252 67.5164 -23.891 -15.6791 11.8426 -15.2301 -0.178671 -0.646644 -0.4018 
26.982 1 2366 3.67112 1.75297 5.1451 -0.423056 -1.74248 0.502302 0.0310972 -0.369961 0.328551 0 0 0 0 0 0 0.0191622 -0.109874 -0.0903254 25.4264 36.415 34.7858 2.31773 -12.7669 10.1573 0.0303092 -0.394284 0.337184 -13.1224 45.3963 -25.871 -3.25142 9.3215 -9.17551 0.0318928 -0.345567 0.319884 
26.982 1 209 5.99076 2.17899 3.76101 -4.63791 -2.62715 -5.63173 0.081934 0.298166 0.361978 0 0 0 0 0 0 0.0316508 -0.162243 -0.12378 -4.51669 -3.69455 6.21705 -14.1414 -8.69155 -0.71819 0.0701051 0.292374 0.374368 20.8235 5.52206 -0.0358269 4.83938 3.60923 -10.5555 0.0936764 0.304059 0.349584 
26.982 1 51 6.54629 5.37048 2.89234 -1.36222 1.82689 1.51383 -0.0195404 -0.0475709 0.0678884 0 0 0 0 0 0 0.00573604 -0.0174845 -0.141709 1.13702 -4.87306 -28.9753 6.88502 -9.82257 -3.39978 -0.0164215 -0.0547353 0.0544808 15.4265 13.8409 33.3398 -9.71808 13.6888 6.45528 -0.0227983 -0.0402259 0.0814159 
26.982 1 210 6.25159 4.43834 5.7711 -0.630283 2.6596 -6.55312 0.174965 -0.249 -0.377621 0 0 0 0 0 0 0.0117578 -0.0839198 -0.00707503 -14.943 -12.2679 18.9086 -7.97739 -10.9918 -1.58362 0.18685 -0.277601 -0.375208 31.067 18.9005 -8.71008 6.68366 16.4995 -11.5085 0.162989 -0.220251 -0.380139 
26.982 1 11 8.48837 3.04161 3.56071 2.95292 -3.76526 0.782764 -0.484212 0.090669 0.0575182 0 0 0 0 0 0 0.0202179 -0.16177 -0.104659 -10.3522 70.9578 -37.7976 -1.90176 -3.84372 -5.20071 -0.489 0.101625 0.0670789 30.9869 13.9359 43.3834 7.77755 -3.50432 6.78971 -0.479504 0.079834 0.0479902 
26.982 1 253 8.70526 5.61201 4.5284 5.53502 1.32558 1.66467 -0.573803 -0.0793064 -0.385109 0 0 0 0 0 0 -0.00782515 -0.0443597 -0.046329 -1.29272 -2.45595 55.5238 1.11729 -5.69101 6.01133 -0.589736 -0.102766 -0.395005 21.755 11.9408 -47.7458 9.93324 8.52561 -2.62787 -0.557955 -0.0557016 -0.375202 
26.982 1 1816 9.21704 5.71388 1.60466 0.691569 0.145868 5.80817 0.0219335 -0.314159 0.0320014 0 0 0 0 0 0 0.0357933 -0.0105454 -0.271777 -13.4872 1.34648 28.2728 6.57039 -2.01667 -1.89023 0.0378956 -0.328629 -0.0112401 35.1612 7.71934 54.4813 -5.10707 2.45489 13.5834 0.0059867 -0.299592 0.0754121 
26.982 1 10 6.68158 3.39627 1.14583 -1.65322 5.61218 -1.19889 0.437232 0.430428 -0.0923982 0 0 0 0 0 0 0.0216013 -0.101614 -0.239123 27.904 0.493794 1.14605 4.86804 1.03008 0.438566 0.449021 0.448507 -0.11105 -10.9455 3.81243 -0.384271 -8.28563 10.2978 -2.81859 0.425337 0.412363 -0.0736597 
26.982 1 16 10.8518 3.9613 3.39821 1.91309 1.81842 -1.94136 0.302606 0.49317 -0.496278 0 0 0 0 0 0 0.0230658 -0.0998337 -0.141601 -15.754 33.4765 -13.0273 -5.76391 4.28613 -12.4001 0.310703 0.500899 -0.505137 40.6401 -27.9548 18.3041 9.67049 -0.498897 8.56955 0.29456 0.48561 -0.487301 
26.982 1 213 10.9921 2.38607 5.40896 -4.78608 -6.18598 -1.0567 -0.546971 -0.197193 0.407505 0 0 0 0 0 0 0.0251639 -0.245345 -0.0171214 2.97648 -4.8044 13.2163 -7.44558 -16.4508 -5.38643 -0.546097 -0.213407 0.428389 22.1346 6.86834 -3.75346 -2.07286 4.20356 3.31421 -0.547853 -0.18079 0.386522 
26.982 1 15 13.0643 2.05026 3.63439 -0.923947 -3.0847 -0.0869948 -0.0773078 0.012347 -0.405249 0 0 0 0 0 0 -0.00338977 -0.22418 -0.180859 -23.5037 37.216 28.9562 -18.9119 -12.5319 8.53795 -0.0745113 -0.0126141 -0.408782 52.1884 45.3187 -23.0007 17.218 6.46664 -8.61179 -0.0801255 0.0374225 -0.401765 
26.982 1 214 13.0182 4.28139 5.30916 2.25919 -0.704554 2.0373 0.0854502 -0.514609 0.268489 0 0 0 0 0 0 0.0249006 -0.128703 0.00256091 6.54706 1.67684 26.2723 -7.33782 -9.33195 9.09818 0.10468 -0.535229 0.286535 22.0245 4.53728 -17.0399 11.9636 8.01583 -4.99682 0.0661399 -0.493781 0.250389 
26.982 1 14 13.1613 4.92577 2.66336 -3.38205 3.04794 0.726268 0.113708 0.363683 0.14815 0 0 0 0 0 0 -0.00899367 -0.041978 -0.231821 -27.5242 33.7858 37.0716 -23.1938 -3.0409 -3.98118 0.103611 0.353629 0.137832 56.4744 -26.2415 48.0253 16.5658 9.27531 5.50478 0.123739 0.373852 0.158547 
26.982 1 20 15.4591 5.36306 4.33816 -1.71812 -1.76334 -1.72018 -0.191636 -0.550413 -0.301144 0 0 0 0 0 0 0.0275271 -0.0435373 -0.0513058 24.6022 -21.4683 16.0963 1.92035 -4.72628 -1.02672 -0.152372 -0.567365 -0.286864 8.01093 29.8099 -8.82369 -5.27095 1.22134 -2.3839 -0.231097 -0.533332 -0.315517 
26.982 1 57 16.7613 5.64583 1.70419 0.886913 -0.869577 -3.05911 -0.65655 -0.731762 0.180707 0 0 0 0 0 0 -0.0258015 -0.0493628 -0.2529 24.106 44.0624 -12.6858 5.93371 2.08388 -4.42352 -0.658575 -0.750542 0.188836 11.0508 -34.8241 14.6108 -4.10595 -3.73598 -1.69283 -0.65466 -0.712875 0.172418 
26.982 1 17 15.1353 3.26461 1.87056 -2.68973 2.80965 2.86006 -0.443914 -0.175167 0.847547 0 0 0 0 0 0 -0.012163 -0.125887 -0.22695 20.6641 52.5944 22.0529 -4.71529 1.69478 -5.53552 -0.43608 -0.175145 0.856963 11.3321 32.65 61.3814 -0.497008 4.02956 11.2842 -0.451791 -0.175106 0.838067 
26.982 1 19 17.7064 2.70032 2.56415 3.419 -11.0966 0.434623 0.26774 -0.258507 -0.143689 0 0 0 0 0 0 0.044285 -0.199791 -0.154551 30.2912 7.81594 13.5069 2.14398 -2.32811 -4.09498 0.279613 -0.245046 -0.118331 5.97733 -5.22347 -9.80505 4.82299 -19.8924 5.00061 0.255962 -0.272054 -0.169133 
26.982 1 217 15.4426 2.42866 4.74725 -2.41376 -3.00889 -3.17543 0.527113 0.219151 0.362779 0 0 0 0 0 0 0.048107 -0.158407 -0.099005 11.6411 44.4871 33.1338 -12.8702 -3.65343 12.3333 0.550782 0.234188 0.376811 21.0118 38.8495 -25.029 8.22796 -2.33668 -18.6449 0.503426 0.204157 0.348677 
26.982 1 218 18.1457 4.77535 4.24873 -2.79601 0.69812 -0.848133 -0.086089 0.426641 0.383651 0 0 0 0 0 0 0.00421479 -0.0652765 -0.0250111 -8.02732 2.13522 3.53451 -6.90402 4.12561 -3.46229 -0.0885727 0.423261 0.427075 45.101 5.0064 3.63973 1.35568 -2.73199 1.80102 -0.0836493 0.430014 0.340249 
26.982 1 24 21.8646 4.91847 3.95276 1.13445 3.77206 -0.35896 -0.16212 -0.253895 -0.155753 0 0 0 0 0 0 -0.0113921 -0.0779294 -0.11243 -3.04871 32.0508 21.7975 -10.6863 11.8409 1.32781 -0.17864 -0.273974 -0.143696 46.6957 -24.5608 -15.3551 12.9853 -4.32749 -2.05407 -0.145427 -0.23398 -0.16785 
26.982 1 221 19.947 2.85787 4.88801 -1.70918 -2.16685 -5.23663 -0.121579 -0.723096 -0.68156 0 0 0 0 0 0 -0.000491835 -0.163662 -0.118652 -5.67417 53.5893 -10.234 -6.76047 13.9895 -4.10047 -0.137528 -0.712448 -0.687171 45.5531 30.59 18.6059 3.35528 -18.3765 -6.39402 -0.105419 -0.734006 -0.675981 
26.982 1 23 22.276 2.38785 2.76352 -5.3132 -5.22788 -0.657748 -0.620006 0.350833 -0.282706 0 0 0 0 0 0 -0.032582 -0.171739 -0.179207 11.1186 82.0709 29.0093 -8.61126 11.8358 12.5896 -0.653112 0.391106 -0.266057 32.7185 1.07389 -24.9453 -2.00191 -22.3772 -13.9787 -0.586774 0.31041 -0.299439 
26.982 1 18 19.5104 5.00747 1.91437 -1.59915 -1.1006 7.53593 0.161161 -0.186345 -0.294809 0 0 0 0 0 0 0.0445236 -0.11092 -0.233605 33.4918 12.2109 6.35916 0.984807 -0.167501 12.1178 0.157978 -0.202638 -0.286149 6.29945 -4.56864 -4.01533 -4.0782 -2.03337 2.9558 0.164441 -0.170111 -0.303699 
26.982 1 831 32.4968 1.64745 18.1041 -2.32088 -0.248216 9.01163 -0.457169 -0.235535 0.528029 0 0 0 0 0 0 0.0531422 -0.116992 -0.169132 30.8146 61.5223 16.0768 5.67435 10.2737 5.91582 -0.445123 -0.214696 0.533696 30.3228 -61.2215 20.2856 -10.4019 -10.8672 12.132 -0.469205 -0.256693 0.522346 
26.982 1 63 24.1183 4.67571 2.20839 0.202115 -7.38497 -0.28152 0.890228 -0.285592 0.106352 0 0 0 0 0 0 -0.00986232 -0.0659056 -0.258434 23.9352 42.7399 19.3216 -4.91636 5.34895 6.77743 0.905572 -0.274731 0.108191 23.6 -35.7109 -16.3741 5.40404 -20.1965 -7.38843 0.874921 -0.296624 0.104491 
26.982 1 222 24.1587 2.36722 4.63577 -4.11009 -5.67602 -2.36685 0.320839 0.691656 -0.458594 0 0 0 0 0 0 -0.0154477 -0.171114 -0.143677 26.9553 22.0317 18.2034 -0.156918 -2.48758 8.42611 0.307648 0.724622 -0.449659 20.5363 -19.8231 -10.3004 -8.04869 -8.89736 -13.2051 0.334127 0.658534 -0.46751 
26.982 1 28 26.1659 2.73879 2.34819 0.1444 -3.7948 -3.44472 0.841111 0.793889 0.498061 0 0 0 0 0 0 0.000938304 -0.159942 -0.207269 30.8336 10.8233 32.9447 -3.34028 -1.16243 6.22616 0.843121 0.841733 0.497436 20.0904 -7.76279 -30.0492 3.68912 -6.4062 -13.2072 0.839158 0.745864 0.498739 
26.982 1 265 26.2849 4.8464 4.36474 -2.22862 -1.81149 0.0965994 -0.317302 -0.143171 -1.18938 0 0 0 0 0 0 -0.00993935 -0.0573282 -0.126014 25.276 -28.7102 8.30253 -9.29441 -7.60489 2.76919 -0.326187 -0.142713 -1.22639 26.0076 36.2696 -0.95897 5.01754 4.03132 -2.55894 -0.308279 -0.143761 -1.15225 
26.982 1 67 28.6243 4.67054 2.22065 -0.846208 -3.60861 -4.06777 -0.215953 1.26203 0.747813 0 0 0 0 0 0 -0.015735 -0.0529509 -0.258868 24.4963 -13.6901 9.13368 -4.37648 -7.64555 -5.45643 -0.240147 1.299 0.753501 30.7085 20.8842 -6.1697 2.80851 0.473279 -2.60339 -0.191553 1.22496 0.74224 
26.982 1 226 28.3619 2.91937 4.29416 -2.96333 6.61011 3.57458 0.680211 0.183248 0.0571866 0 0 0 0 0 0 0.00803913 -0.180232 -0.150367 21.6218 -15.7928 22.9513 -10.4698 2.80855 6.61158 0.684594 0.203003 0.0518828 33.1186 19.4655 -15.8161 4.68857 10.5299 0.538562 0.675975 0.16339 0.0625844 
26.982 1 32 30.8359 2.91091 2.33338 -0.518255 -0.776575 -2.43293 -0.408695 0.102684 -0.141788 0 0 0 0 0 0 0.00125457 -0.180425 -0.210254 8.15109 14.4288 27.6779 -3.56796 0.143013 -4.15249 -0.420841 0.111951 -0.138949 50.7173 -10.8825 -24.5289 2.61286 -1.61261 -0.660175 -0.396404 0.0933528 -0.144571 
26.982 1 269 30.7094 4.95941 4.18046 -0.0357274 6.11057 0.693545 -0.506019 0.0102842 0.603692 0 0 0 0 0 0 -0.0135799 -0.0516071 -0.0948009 25.096 10.8785 28.7508 -1.67105 3.39595 -0.053693 -0.525962 0.0249927 0.618179 33.6048 -3.08325 -21.5643 1.69446 8.90153 1.5171 -0.485911 -0.00447258 0.589291 
26.982 1 71 32.8348 4.866 2.31569 -4.45108 -5.21325 -1.42091 0.210257 0.0729061 0.0403981 0 0 0 0 0 0 0.0183276 -0.0582704 -0.269617 32.1111 19.008 1.72299 -3.75352 -6.10182 -2.8158 0.218974 0.0824038 0.0435837 29.8442 -11.3767 1.66224 -5.12541 -4.24308 0.0803876 0.201636 0.0634165 0.0372215 
26.982 1 230 32.6672 3.09844 4.58728 -1.67909 0.127606 5.07286 0.158429 0.237751 -0.901513 0 0 0 0 0 0 0.00639856 -0.165371 -0.162452 12.6027 -11.8426 -15.6589 -2.6373 -1.89501 -0.321976 0.163807 0.23871 -0.928627 49.1179 15.8325 23.7313 -0.685052 2.23962 10.5451 0.153062 0.236783 -0.874401 
26.982 1 273 34.8686 5.19954 4.39797 -0.960523 3.52897 0.0946083 -0.111319 -0.381692 0.263943 0 0 0 0 0 0 0.00602139 -0.0627637 -0.0943881 50.2258 20.6004 -17.5453 2.02844 4.20498 -3.58361 -0.1128 -0.386997 0.279815 14.8673 -12.386 25.1172 -4.00635 2.91387 3.84289 -0.109875 -0.376342 0.248036 
26.982 1 36 34.9793 3.0615 2.58659 0.603442 0.52108 -3.31562 -0.18908 0.0561367 -0.205745 0 0 0 0 0 0 0.0133884 -0.183568 -0.225588 49.0667 -7.89678 -20.9389 5.05632 -0.918796 -8.17851 -0.192876 0.0636633 -0.220883 16.2885 11.6711 24.8276 -3.88914 2.03862 1.6208 -0.185307 0.0486578 -0.190645 
26.982 1 75 37.1544 5.23942 2.57568 -4.79755 -0.173004 -1.54226 -0.600191 -0.134885 -0.0620581 0 0 0 0 0 0 0.00437197 -0.0507591 -0.269882 48.4485 28.9677 7.94364 -0.638682 3.00642 -1.41783 -0.616539 -0.130482 -0.0598314 20.3857 -20.7849 -4.04421 -9.04368 -3.29521 -1.60963 -0.583883 -0.139235 -0.0643464 
26.982 1 234 37.011 3.208 4.39593 -5.2019 2.79371 4.54909 -0.0339945 0.0371219 0.707062 0 0 0 0 0 0 0.019674 -0.179209 -0.130723 68.6223 -2.71433 -6.20064 3.86689 2.70482 1.33481 -0.0332794 0.0435864 0.732944 -0.127094 6.75348 13.8537 -14.4177 2.97261 7.80465 -0.0348166 0.0307433 0.681084 
26.982 1 40 39.0557 3.28099 2.68205 3.1609 -0.0263344 -1.3066 0.766692 -0.0408423 -0.173759 0 0 0 0 0 0 0.0363944 -0.178955 -0.215896 65.2536 25.7102 0.0538262 12.878 3.44538 3.47578 0.778797 -0.0326243 -0.161812 6.70196 -21.6386 3.87954 -6.65784 -3.42456 -6.13154 0.754507 -0.0489548 -0.185832 
26.982 1 277 39.2734 5.22517 4.69606 -1.85899 -0.297323 -2.6366 -0.317616 0.0127088 -0.314225 0 0 0 0 0 0 0.0127753 -0.0687736 -0.0982326 51.7292 25.656 -9.19936 7.57658 -3.9586 -5.22298 -0.311279 0.0127831 -0.310838 20.6162 -17.24 17.519 -11.4204 3.49655 -0.0137598 -0.324001 0.012756 -0.31772 
26.982 1 241 43.0663 5.52699 4.8231 -0.304811 2.56591 4.27482 0.578697 0.0187354 -0.0712942 0 0 0 0 0 0 -0.0037106 -0.0551953 -0.0791837 13.5907 12.3187 -13.8441 6.68573 1.16505 6.65809 0.588616 0.0119588 -0.0709197 -16.4057 -3.27955 22.1256 -7.43868 4.08111 1.83417 0.568706 0.0255699 -0.0718387 
26.982 1 4 43.4431 3.40836 2.73369 -0.590895 -4.19162 1.71969 -0.435576 0.188985 0.194868 0 0 0 0 0 0 -0.0778816 -0.139461 -0.216529 27.6615 14.9885 28.4048 0.325816 3.03142 13.8992 -0.45516 0.197708 0.206839 51.7046 -10.6964 -24.4805 -1.61018 -11.355 -10.5474 -0.416016 0.180355 0.182774 
26.982 1 79 41.1599 5.40264 2.79938 -0.0675241 -8.66003 2.82423 0.0116661 -0.171403 -0.248608 0 0 0 0 0 0 -0.0126279 -0.0746878 -0.257849 38.4134 40.8854 -22.5001 3.75124 -5.41928 3.44729 0.00949818 -0.177814 -0.253583 37.0387 -32.2975 26.6942 -4.00124 -11.8377 2.18081 0.0138043 -0.164921 -0.243716 
26.982 1 238 41.4748 3.3406 4.88984 -1.62086 -2.13562 -0.777052 -0.265929 -0.58345 -0.0119336 0 0 0 0 0 0 -0.0235134 -0.194548 -0.138693 58.5734 -8.46194 -5.44118 3.5321 -6.05657 2.24509 -0.276453 -0.60434 -0.0195018 17.4624 12.7915 13.907 -6.90112 1.91625 -3.87712 -0.255454 -0.562391 -0.00459233 
26.982 1 83 -2.87792 9.72381 3.06745 2.28852 -0.257817 2.62758 0.319415 0.195514 0.350156 0 0 0 0 0 0 -0.129067 -0.0443786 -0.14871 -7.37446 36.8822 15.3554 0.188436 4.60822 6.59971 0.330897 0.183536 0.374857 8.26937 -19.0992 -10.649 4.34443 -5.15298 -1.35039 0.307716 0.207417 0.325356 
26.982 1 242 -2.90126 7.66004 4.84365 0.608532 -2.69408 1.82534 -0.0860045 -0.332078 0.0574215 0 0 0 0 0 0 -0.162443 -0.0096142 -0.0989987 -4.74653 28.106 30.5484 3.43905 1.06808 8.08494 -0.0725124 -0.320824 0.0601509 5.4219 -14.7239 -21.9882 -2.35195 -6.45504 -4.46001 -0.0997717 -0.343409 0.0545256 
26.982 1 48 -0.530608 8.07316 3.55699 1.34639 0.63214 -4.86837 0.343477 0.17315 0.0495709 0 0 0 0 0 0 -0.0167278 0.00525195 -0.09015 -40.7164 54.3139 -17.4741 -4.20904 8.0871 -2.73766 0.365364 0.179696 0.061622 45.8726 -40.0153 22.7448 6.95126 -6.77153 -7.13251 0.321546 0.166557 0.0373684 
26.982 1 88 -0.166627 11.2944 2.99313 -1.48619 -0.379629 -0.766006 0.41884 -0.921364 -0.1883 0 0 0 0 0 0 -0.0444846 -0.0325191 -0.156848 -36.9459 32.7205 36.7709 -8.28537 3.9791 11.0581 0.428569 -0.949751 -0.176057 42.9927 -11.4907 -32.406 5.43974 -4.72675 -12.6421 0.409153 -0.89295 -0.200766 
26.982 1 285 -0.911307 10.2615 5.56586 -0.115396 -2.79777 1.85471 0.370399 -0.453223 -0.00944056 0 0 0 0 0 0 -0.0703907 -0.0114704 -0.0195791 -30.3526 45.6448 35.1048 -4.34037 4.07669 18.3681 0.371734 -0.458085 -0.00572376 34.7253 -26.8265 -25.4589 4.14874 -9.66916 -14.7575 0.368977 -0.44834 -0.0133354 
26.982 1 42 -2.49991 7.71889 1.07642 3.31576 -2.66324 2.39031 -0.203318 0.339972 0.0260086 0 0 0 0 0 0 -0.140965 0.00843771 -0.215371 -2.74539 36.149 9.09038 1.38703 3.51559 2.56563 -0.187644 0.342386 0.0377801 4.54493 -22.6634 -8.73299 5.23871 -8.85395 2.21191 -0.21912 0.337491 0.0141148 
26.982 1 47 1.86777 6.12463 3.62185 1.82336 0.0735293 -5.7483 -0.519171 -0.0740993 0.0275154 0 0 0 0 0 0 -0.0102242 0.0135932 -0.116708 -18.2332 25.2359 -8.79151 -2.89822 1.22704 -5.1617 -0.5345 -0.0772248 0.0255383 27.2402 -14.6839 14.2464 6.53958 -0.883557 -6.47065 -0.503764 -0.0709727 0.029422 
26.982 1 249 3.96908 6.56749 5.65979 -2.60543 -1.04061 3.2876 -0.126308 0.265684 0.0253052 0 0 0 0 0 0 -0.0206525 0.00319654 -0.0146571 -8.94583 -26.9354 26.7226 -9.30411 -10.866 10.2224 -0.142828 0.272505 0.0245762 21.2706 38.275 -16.7615 4.06976 8.98221 -3.71086 -0.109669 0.258954 0.0259365 
26.982 1 87 2.20728 9.10197 2.90915 1.06121 3.55357 -0.119193 -0.300654 -0.0559483 0.254133 0 0 0 0 0 0 -0.0151827 -0.0198877 -0.16459 -24.4608 20.0515 35.2704 -6.82935 5.78941 11.0527 -0.32284 -0.0579705 0.279138 34.4197 -3.32943 -31.0792 9.04257 1.39968 -11.353 -0.278299 -0.053871 0.228993 
26.982 1 289 4.39884 9.46828 4.7948 -7.88195 7.48333 -4.24129 -0.688084 -0.334733 0.101735 0 0 0 0 0 0 -0.0322179 -0.00657189 -0.0324386 9.72157 16.621 63.1486 -13.1766 9.00852 7.95666 -0.713762 -0.334617 0.106692 3.65662 0.806794 -55.1943 -2.54387 6.05786 -16.5455 -0.662259 -0.334891 0.0966421 
26.982 1 52 4.30201 7.22642 2.91708 -2.09914 -5.24835 0.313514 -0.0257433 0.0842311 -0.037926 0 0 0 0 0 0 -0.0402426 0.00817796 -0.178731 10.1316 -10.3898 30.0642 -4.1105 -13.1657 7.71814 -0.0407102 0.0732934 -0.038851 2.76565 23.2756 -25.6046 -0.16882 2.86552 -7.08227 -0.0107316 0.0952952 -0.0369898 
26.982 1 89 4.8898 10.0143 1.99558 -3.78457 1.49253 -4.79872 -0.767611 -0.400017 -0.125468 0 0 0 0 0 0 -0.050467 -0.0417438 -0.244296 16.7371 13.2782 -23.1635 -3.78281 -0.525698 -4.44768 -0.784986 -0.405822 -0.120916 -2.58391 5.40512 25.5193 -3.80323 3.60387 -5.15922 -0.750207 -0.394122 -0.130097 
26.982 1 246 1.73001 8.36524 5.63782 -3.3508 5.2928 2.4484 -0.327527 -0.033304 -0.195068 0 0 0 0 0 0 -0.0268483 0.00142826 -0.020707 0.947951 17.3722 43.6021 -10.1838 9.82767 13.2419 -0.358641 -0.0299331 -0.193894 8.03287 -2.44097 -33.8865 3.56675 0.825222 -8.46462 -0.296261 -0.0367087 -0.196377 
26.982 1 91 6.78133 10.0282 3.78588 2.74348 5.13399 -3.65725 0.275472 0.391611 0.238704 0 0 0 0 0 0 0.000545773 0.00605161 -0.059486 18.0538 -2.75093 23.2217 5.49943 4.25535 2.87696 0.284298 0.406888 0.248348 -0.944248 21.487 -17.0918 -0.0699561 6.14534 -10.1977 0.266574 0.376365 0.228976 
26.982 1 250 6.34599 7.3368 4.75666 -1.37025 -5.59196 -2.4691 0.559313 0.00200955 -0.127964 0 0 0 0 0 0 0.0046522 -0.00545467 -0.0328374 12.3821 -1.71368 46.8027 0.250447 -16.7943 3.15598 0.569824 -0.00313186 -0.127559 3.82249 15.0364 -39.0192 -3.08087 5.83526 -8.13593 0.548752 0.00729587 -0.128363 
26.982 1 50 6.84933 7.99976 1.86728 5.29774 -3.4817 0.448762 0.297842 0.454236 0.502702 0 0 0 0 0 0 -0.0137174 -0.0229811 -0.255208 47.4371 -2.04453 -3.63169 23.2482 -19.8632 -3.12189 0.318817 0.445146 0.493756 -30.2454 16.5032 6.04018 -12.7662 13.1143 4.13395 0.276693 0.46359 0.511804 
26.982 1 293 8.75175 10.5037 5.49829 -0.901565 1.68917 -4.71803 0.652202 0.334457 0.717521 0 0 0 0 0 0 0.016937 0.0333184 0.020567 12.6854 27.7267 65.0114 1.90521 0.996066 1.81605 0.665907 0.366987 0.743655 7.76915 -8.19492 -55.4894 -3.73349 2.51891 -11.2847 0.638453 0.301943 0.691294 
26.982 1 56 8.95441 8.40372 3.80813 -3.9833 -1.62993 9.62602 -0.44823 -0.386471 -0.455957 0 0 0 0 0 0 0.000671996 -0.000771277 -0.0939144 15.0753 -16.4756 18.4911 -2.80985 -19.0632 7.43857 -0.455545 -0.38704 -0.474401 5.86452 31.7912 -12.1823 -5.18334 15.9894 11.8757 -0.441004 -0.385796 -0.437445 
26.982 1 90 7.40454 10.8972 1.23395 1.48676 -1.92815 -5.36667 0.504298 -0.453518 -0.127225 0 0 0 0 0 0 0.00583431 -0.0325545 -0.274409 22.1057 -13.8759 43.2393 4.35796 -5.76666 -2.16658 0.521927 -0.474577 -0.115981 -3.74109 34.8602 39.0656 -1.43914 2.12399 -8.48439 0.48653 -0.432271 -0.138448 
26.982 1 95 12.1456 9.17082 2.693 2.57333 -1.37826 -6.08412 0.109762 -0.00479505 -0.286717 0 0 0 0 0 0 0.0295733 0.00169106 -0.229721 8.11141 -4.90273 -10.8678 2.79553 -13.3542 -5.43441 0.112864 0.00350598 -0.305797 18.5245 21.7127 14.9735 2.40086 10.766 -6.68528 0.106667 -0.0129875 -0.267563 
26.982 1 254 11.0405 8.60853 5.44884 1.98438 -1.64981 -7.57025 0.185036 0.200047 -0.271632 0 0 0 0 0 0 0.00394576 0.0227507 -0.0204019 -11.1185 -15.8464 77.377 -4.24831 -9.44628 4.20933 0.183269 0.222224 -0.269099 35.6685 31.471 -67.8959 8.25845 6.27544 -19.3395 0.186764 0.177899 -0.274209 
26.982 1 53 10.9992 6.7933 3.2084 -0.914286 -1.31376 1.61227 -0.0373226 -0.367161 0.577547 0 0 0 0 0 0 0.0296471 -0.00779394 -0.173402 -27.6126 28.9525 -36.4395 -13.9995 -7.4886 -6.00871 -0.0428297 -0.376279 0.564743 52.7569 -17.2018 41.2579 12.2565 5.06233 9.28837 -0.0317631 -0.357884 0.590548 
26.982 1 55 13.2182 6.99948 4.72717 -3.01341 3.56572 9.29824 0.308993 0.0416078 0.0152595 0 0 0 0 0 0 0.0171969 0.00471041 -0.05404 -10.0703 15.2601 35.259 -11.0761 7.03392 17.9867 0.328568 0.0459138 0.0166663 39.0241 -3.0756 -27.1481 5.13103 0.254648 0.643954 0.289298 0.0374239 0.013823 
26.982 1 97 16.2766 9.68302 1.81624 -4.25494 -1.07746 2.63136 -0.471934 -0.757812 0.872082 0 0 0 0 0 0 -0.0479571 -0.00613535 -0.253447 28.8811 19.4986 19.1884 3.15574 1.77209 3.77391 -0.468614 -0.767543 0.888477 5.09297 -1.65445 -17.1943 -11.7446 -3.83204 1.50137 -0.475402 -0.747999 0.855693 
26.982 1 60 16.8649 7.56729 3.8542 -3.42246 -8.26263 -0.472089 0.389762 0.429888 -0.0894994 0 0 0 0 0 0 -0.00277592 0.00437114 -0.060881 32.6742 19.1164 -1.70104 0.657091 -7.79568 -1.34624 0.402372 0.43273 -0.0770655 2.53841 -5.9109 7.97181 -7.53279 -8.65864 0.394997 0.376963 0.42727 -0.102101 
26.982 1 297 14.5642 9.37509 4.45743 -1.97276 -3.06792 5.51736 0.542156 -0.102378 -0.428115 0 0 0 0 0 0 0.0135072 -0.00192874 -0.0713031 34.962 50.6935 2.72378 3.33607 -2.87479 8.56924 0.563838 -0.103787 -0.433148 -4.26022 -33.4557 4.80092 -7.29696 -3.14708 2.43642 0.520356 -0.100844 -0.423166 
26.982 1 54 14.4829 7.40883 2.10868 3.58867 -2.04029 -5.07441 -0.155554 -0.0382927 0.687064 0 0 0 0 0 0 -0.0372211 0.00731347 -0.258985 -7.09393 23.0283 -43.0981 -3.33599 -5.93443 -12.3939 -0.150506 -0.0402126 0.690699 38.5197 -10.0321 45.5487 10.5848 2.00761 2.2175 -0.16066 -0.0362373 0.683428 
26.982 1 59 19.8902 7.12186 3.69578 -1.90799 -6.69124 -2.58835 -0.726114 -0.428419 0.519374 0 0 0 0 0 0 -0.00225726 -0.0327585 -0.0605832 38.2188 -13.685 18.3193 2.77509 -13.8552 -4.13456 -0.739975 -0.449909 0.538885 2.2157 25.6289 -12.2759 -6.59554 0.40837 -1.01291 -0.712206 -0.406871 0.499734 
26.982 1 61 21.613 7.12929 1.80243 -3.46862 7.35181 -5.57073 0.389946 -0.177436 -0.418858 0 0 0 0 0 0 0.0486312 -0.0462965 -0.278335 38.0735 2.09005 -7.47123 -0.164523 13.3172 -3.89718 0.387355 -0.188205 -0.426278 5.12401 9.69972 9.57599 -6.74962 1.28017 -7.24088 0.392568 -0.166775 -0.411534 
26.982 1 58 18.33 7.69772 1.44614 6.19735 1.47108 -0.618869 0.525784 0.744497 -0.054229 0 0 0 0 0 0 0.00490997 0.0116987 -0.27815 7.78739 79.2923 28.9867 14.0714 6.60098 0.0206033 0.544171 0.757443 -0.0635619 29.4699 -65.8902 -27.3643 -1.7617 -3.66387 -1.20488 0.507285 0.731644 -0.0450318 
26.982 1 99 18.6341 9.74337 3.76117 0.00985067 -0.827944 -2.91241 -0.0837675 -0.182223 -0.136773 0 0 0 0 0 0 -0.00767763 -0.00763729 -0.0754757 43.1767 50.2994 20.7341 10.3257 8.90682 0.303498 -0.082379 -0.189217 -0.143035 -5.31855 -32.4993 -14.5404 -10.4291 -10.5087 -6.06509 -0.085296 -0.175031 -0.130568 
26.982 1 64 21.8377 8.73899 4.33377 -2.12263 -1.90998 0.516884 -0.428848 0.0527814 0.00777847 0 0 0 0 0 0 0.0122757 -0.00417338 -0.0436937 31.1444 21.9047 -0.0461193 7.16859 8.33846 -4.35684 -0.426593 0.0561758 0.0184377 12.4431 -6.38959 7.31269 -11.411 -12.1901 5.42469 -0.431009 0.049439 -0.00285536 
26.982 1 101 20.833 9.70873 1.88123 -2.49916 0.389764 -4.5026 -0.356604 0.0280334 -0.00535863 0 0 0 0 0 0 -0.00309549 -0.0139198 -0.258682 26.3444 4.34359 30.4158 5.64279 1.9949 -13.3837 -0.375963 0.0392351 -0.0364312 15.2518 13.4035 52.8828 -10.714 -1.22919 4.37771 -0.337368 0.0168855 0.0256594 
26.982 1 103 23.6464 9.08283 2.51112 -2.19357 -5.98332 2.08536 0.349821 0.360156 -0.452497 0 0 0 0 0 0 0.0616268 0.00573927 -0.247957 -8.36035 42.1556 -9.96019 -13.1321 12.3642 -3.25694 0.362097 0.385887 -0.472681 55.0052 -25.6521 13.6107 8.84982 -24.3858 7.47185 0.33755 0.334404 -0.432258 
26.982 1 262 24.0765 6.74788 3.7419 -5.52536 -4.23089 4.00861 -0.0693238 0.335315 0.711756 0 0 0 0 0 0 0.00881864 -0.0124432 -0.12251 -1.74098 17.6855 -6.02028 -19.9605 7.02167 -3.00797 -0.0609265 0.331224 0.708027 49.2798 -6.25596 12.1964 9.06046 -15.5677 11.0475 -0.0775531 0.339328 0.71556 
26.982 1 305 25.9623 8.95499 4.09238 -1.96283 -1.83728 -9.67861 0.188887 -0.719169 -0.179677 0 0 0 0 0 0 -0.0187016 0.00138484 -0.126243 1.23662 67.3355 -29.3001 -25.6029 10.902 -19.2776 0.165191 -0.728398 -0.193216 49.5481 -51.0759 36.3323 21.9332 -14.6245 0.0603736 0.212728 -0.71004 -0.165899 
26.982 1 68 26.3229 7.02529 1.96823 -1.4341 -4.58318 -2.09989 0.0831496 -0.313013 0.122212 0 0 0 0 0 0 -0.000646209 0.000875493 -0.279921 20.0875 25.3562 -2.98442 -11.2537 3.26558 -6.19034 0.0949471 -0.321731 0.107477 31.2726 -13.3203 5.51073 8.5859 -12.5003 2.0858 0.071491 -0.30442 0.137069 
26.982 1 107 28.3948 8.85319 2.41075 -1.42574 2.33561 4.1733 0.0900161 -0.605282 -0.517064 0 0 0 0 0 0 -0.00577508 0.0194041 -0.284912 15.4802 42.7065 -1.07058 -15.5451 6.18878 -1.31396 0.0654851 -0.623263 -0.538436 39.3346 -26.8562 4.67242 12.9329 -1.53509 9.80699 0.114837 -0.587285 -0.495531 
26.982 1 266 28.3008 6.94042 4.17565 0.792902 -0.205031 1.07324 0.148372 -0.680413 -0.101923 0 0 0 0 0 0 -0.000310784 -0.0210439 -0.112362 32.9779 9.3834 -4.07052 -3.65485 -3.57936 -2.49656 0.144393 -0.695569 -0.124392 21.6803 2.66363 11.2715 5.42982 3.1949 4.74656 0.152552 -0.665295 -0.0792733 
26.982 1 72 30.7217 6.81271 2.28121 0.397012 -3.50443 -2.87533 -0.738384 -0.0743395 0.359047 0 0 0 0 0 0 -0.0114463 0.0162527 -0.273734 21.9065 26.7831 19.4116 -1.69743 -3.30998 -3.43538 -0.771347 -0.064388 0.378369 36.6872 -15.0524 -16.0431 2.5932 -3.64483 -2.18848 -0.705129 -0.0842818 0.339832 
26.982 1 309 30.4354 8.94981 4.50421 -1.83752 0.891342 0.497865 0.000763517 -0.30996 -0.53234 0 0 0 0 0 0 -0.000740373 -0.017646 -0.100923 30.1858 9.9583 -12.3097 -2.71861 -0.170574 -0.106793 -0.000522594 -0.33485 -0.543379 27.8671 6.25291 20.2293 -0.850092 1.98883 1.20003 0.00229029 -0.285026 -0.521226 
26.982 1 306 28.118 10.6586 4.25439 0.268202 -4.00215 -3.09915 0.357231 0.31066 0.859659 0 0 0 0 0 0 -0.0214303 0.0169678 -0.105615 17.2044 24.3451 4.55977 -15.5884 0.12506 -6.03456 0.331707 0.321435 0.866033 37.1503 -4.17953 2.87575 16.3886 -8.07837 -0.043614 0.383055 0.299926 0.853448 
26.982 1 111 32.7233 8.91405 2.3848 -0.924178 3.55917 6.28334 -0.521505 0.367073 0.277247 0 0 0 0 0 0 -0.01058 0.0137091 -0.287168 38.0453 7.91778 -24.4556 1.08265 2.91188 2.99018 -0.538458 0.367776 0.293512 23.7277 8.37163 27.835 -2.90752 4.26992 9.657 -0.504403 0.366429 0.261024 