ITEM: TIMESTEP
6075
ITEM: NUMBER OF ATOMS
4000
ITEM: BOX BOUNDS pp pp pp
-1.30889 41.8089
0.341253 40.1587
0.342464 40.1575
ITEM: ATOMS mass type id x y z vx vy vz fx fy fz xrad yrad zrad vxrad vyrad vzrad fxrad fyrad fzrad xub yub zub vxub vyub vzub fxub fyub fzub xlb ylb zlb vxlb vylb vzlb fxlb fylb fzlb 
26.982 1 3 0.819377 0.198509 2.33343 1.3205 -3.61762 2.00467 0.16156 0.487192 -0.401175 0 0 0 0 0 0 -0.0706489 -0.122311 -0.198672 0.760897 3.38215 4.94603 0.901327 -3.09267 3.42643 0.173154 0.506396 -0.405813 3.10488 -3.81349 -0.994797 1.74793 -4.14002 0.598675 0.149895 0.468037 -0.396541 
26.982 1 8 3.05911 2.3347 2.39731 -2.77314 5.11929 3.44879 -0.0287341 -0.00284544 -0.26098 0 0 0 0 0 0 -0.0542209 -0.0791976 -0.215435 -0.0888441 5.86749 2.7293 -3.62299 6.05082 3.19427 -0.0263139 -0.0247935 -0.272285 8.1978 -1.91485 1.34995 -1.91177 4.20236 3.71782 -0.0311588 0.0191606 -0.2497 
26.982 1 43 0.977362 4.2393 2.30288 2.1166 -1.75488 0.110424 -0.172599 0.277048 -0.12756 0 0 0 0 0 0 -0.0728076 -0.0787413 -0.229544 -4.41991 0.671313 3.93033 0.50061 -2.79547 0.543919 -0.168646 0.271447 -0.131686 8.62039 7.17792 -0.0512093 3.74746 -0.703782 -0.311916 -0.176563 0.282739 -0.123442 
26.982 1 202 0.945042 2.37986 4.32519 -4.04688 0.663384 3.58819 -0.139334 -0.286952 0.0781103 0 0 0 0 0 0 -0.0714775 -0.0754151 -0.119023 1.56308 -0.277915 5.61649 -4.3232 -0.0143091 3.75785 -0.13492 -0.307015 0.0763651 2.57063 4.32241 2.42342 -3.75794 1.35269 3.43967 -0.143774 -0.266826 0.0798525 
26.982 1 201 -1.48497 0.385536 4.23365 -0.765035 -1.38149 4.57029 0.481923 -0.176588 0.215598 0 0 0 0 0 0 -0.107913 -0.0721034 -0.234437 42.4393 44.4879 5.46558 -0.4656 -1.22423 6.36151 0.490436 -0.181243 0.220809 38.3861 36.7632 2.37758 -1.06319 -1.53458 2.79689 0.473323 -0.171991 0.210408 
26.982 1 245 3.01789 4.45251 4.36006 1.5072 0.626083 2.94438 -0.243102 -0.386983 0.199774 0 0 0 0 0 0 -0.0188943 -0.0328904 -0.0634824 2.77049 4.07289 4.36448 1.17501 0.823445 3.15328 -0.249944 -0.416943 0.196272 5.26097 4.21762 3.72729 1.85156 0.443962 2.74825 -0.236274 -0.356944 0.203293 
26.982 1 241 -1.21863 4.25885 4.28219 -1.59644 8.31019 7.30134 -0.248084 0.0679817 0.0503403 0 0 0 0 0 0 -0.125481 -0.0941323 -0.159012 -3.47228 4.74565 3.67541 -2.34083 8.68184 7.13637 -0.250328 0.0678168 0.0531657 3.50087 3.13776 4.28844 -0.847265 7.95181 7.48673 -0.245827 0.0682303 0.0475319 
26.982 1 205 3.09117 0.250839 4.20863 3.2245 -3.86784 -5.5196 -0.100253 -0.0804198 0.37328 0 0 0 0 0 0 -0.0112193 -0.172079 -0.128434 1.57048 39.3981 3.79148 2.68268 -4.59501 -5.6929 -0.0962564 -0.0735002 0.38717 6.58963 41.6024 3.99215 3.77193 -3.12634 -5.33201 -0.104224 -0.0873335 0.359462 
26.982 1 47 5.00561 4.39591 2.44655 5.39694 1.84687 6.02041 0.395052 -0.000789584 -0.256743 0 0 0 0 0 0 -0.0348108 0.0138206 -0.20545 2.7947 5.69824 2.06767 5.00757 2.80751 6.38177 0.393869 -0.0167586 -0.282084 8.93276 2.49606 2.11279 5.78831 0.909868 5.67152 0.396213 0.0152097 -0.231419 
26.982 1 206 5.26486 2.37382 4.44827 1.44363 -2.391 1.60771 -0.254115 -0.50073 -0.325344 0 0 0 0 0 0 -0.00905139 -0.0763555 -0.0748769 7.53618 1.43038 8.65813 1.93573 -3.00878 2.82796 -0.259137 -0.527766 -0.34643 4.71091 2.61332 -0.36858 0.952388 -1.75776 0.409469 -0.249052 -0.47366 -0.304239 
26.982 1 249 7.27352 4.27248 4.45529 -0.788411 4.31944 -0.144533 0.2595 0.240024 -0.454198 0 0 0 0 0 0 0.0112204 -0.00430619 -0.0638465 9.33597 -1.65496 5.04204 -0.815398 3.22312 0.79891 0.267689 0.240194 -0.481164 6.65399 9.59773 3.23083 -0.767281 5.43393 -1.07316 0.251315 0.239868 -0.427213 
26.982 1 209 7.32418 0.143406 4.42608 -1.8186 5.12915 1.10059 -0.311478 0.579365 -0.181559 0 0 0 0 0 0 0.00253369 -0.166873 -0.147604 9.51192 -1.56652 2.88943 -1.45602 4.75081 0.593865 -0.322605 0.602286 -0.196278 6.5922 1.04798 5.3223 -2.18718 5.52141 1.61492 -0.300334 0.556467 -0.166821 
26.982 1 7 5.19006 0.350911 2.34472 2.45306 -2.14385 0.718681 0.0659043 -0.118167 0.144209 0 0 0 0 0 0 -0.000855199 -0.21543 -0.16607 6.84446 39.7506 -0.912246 2.41801 -1.957 0.0231353 0.0611672 -0.119534 0.155953 5.24803 41.4597 4.88897 2.48755 -2.31219 1.43169 0.070707 -0.116786 0.132485 
26.982 1 6 5.2734 2.33805 0.384663 1.16835 2.07596 -2.80085 -0.299704 0.244498 -0.0700262 0 0 0 0 0 0 -0.0349807 -0.0719469 -0.256478 4.43878 0.0670128 3.79545 1.08461 1.04412 -1.80789 -0.298837 0.244224 -0.0607548 7.81732 3.91057 -3.80833 1.25388 3.12727 -3.77397 -0.300534 0.244812 -0.0793523 
26.982 1 49 7.27073 4.43217 0.427357 1.01538 -1.98991 2.91458 0.0495405 -0.22605 -0.267138 0 0 0 0 0 0 -0.0133744 0.000472847 -0.273996 10.0969 0.427823 -1.80918 1.66159 -3.66513 1.87043 0.0385957 -0.235997 -0.276314 5.88901 7.81831 1.88516 0.36397 -0.306211 3.97772 0.0605285 -0.216098 -0.258029 
26.982 1 12 7.25692 2.38715 2.32591 8.46576 -3.07429 -1.19813 -0.0586401 -0.306555 0.203287 0 0 0 0 0 0 0.0254303 -0.117349 -0.182274 7.01699 2.34758 1.44939 8.67744 -3.20113 -1.62917 -0.0703382 -0.324463 0.200919 8.9445 1.71502 2.49559 8.24849 -2.92947 -0.753144 -0.046908 -0.288643 0.20563 
26.982 1 51 9.36743 4.19698 2.36292 1.23595 1.82558 -0.244647 0.248874 0.775431 0.293565 0 0 0 0 0 0 0.0426345 -0.0474383 -0.18945 4.55261 4.05212 -1.46255 -0.315832 2.25486 -1.37459 0.249881 0.795821 0.295713 15.3825 3.73899 5.47581 2.78221 1.41685 0.900715 0.24789 0.755073 0.291366 
26.982 1 210 9.3313 2.33247 4.34844 2.46474 -1.88102 1.66934 0.265572 -0.245852 0.313226 0 0 0 0 0 0 0.0173571 -0.0741206 -0.0832259 8.00816 3.76294 7.08796 1.75471 -2.36086 1.70625 0.262333 -0.248459 0.305472 11.8577 0.180477 0.955929 3.16961 -1.38578 1.63434 0.268778 -0.243207 0.320988 
26.982 1 11 9.42711 0.376352 2.43337 -0.428193 -2.08115 2.9161 0.0999305 0.0778431 -0.651191 0 0 0 0 0 0 0.0282494 -0.185812 -0.211011 7.53064 41.1811 -3.61229 -1.05129 -2.00898 1.15078 0.100533 0.0821425 -0.66589 12.5437 40.0661 7.7788 0.192423 -2.13881 4.69376 0.0993071 0.0735547 -0.636569 
26.982 1 16 11.59 2.32299 2.2469 -1.18291 -3.10751 -2.64222 0.0407056 -0.19064 0.195424 0 0 0 0 0 0 0.0290733 -0.117868 -0.236363 12.7968 2.93586 -1.68779 -1.31474 -2.65 -3.58936 0.0431007 -0.192522 0.210631 11.3767 1.00344 5.46096 -1.04683 -3.54579 -1.68562 0.0382589 -0.188705 0.180159 
26.982 1 253 11.6817 4.2542 4.25584 2.32193 -0.452329 -3.41817 -0.293462 0.0590044 -0.136476 0 0 0 0 0 0 0.00745311 -0.0318121 -0.0714933 11.7767 3.37043 12.6773 2.29682 -1.21668 -1.57651 -0.288903 0.0577351 -0.14214 12.5763 4.5435 -4.80605 2.34997 0.34025 -5.25057 -0.298058 0.0603281 -0.130831 
26.982 1 55 13.7926 4.17253 2.16475 2.06989 3.27677 1.64979 -0.0687436 0.151571 0.346609 0 0 0 0 0 0 -0.0246728 -0.0860155 -0.183893 14.507 3.56994 3.60857 2.04806 3.32436 2.08407 -0.0609916 0.149207 0.368676 13.8327 4.17756 0.013728 2.09449 3.25005 1.23214 -0.0765622 0.15401 0.324517 
26.982 1 214 13.6751 2.1986 4.31175 4.27155 -0.938975 0.585705 0.30672 0.0682832 0.141133 0 0 0 0 0 0 0.00814129 -0.107385 -0.11546 17.402 1.73373 9.06399 4.97345 -1.03234 1.7103 0.319195 0.0663204 0.146745 10.6954 1.96528 -1.09663 3.57404 -0.82604 -0.531376 0.29417 0.0703222 0.135472 
26.982 1 257 15.8048 4.31082 4.15938 -0.0139405 -2.82725 -1.30639 0.0793227 0.0233819 0.230027 0 0 0 0 0 0 -0.00219007 -0.0259548 -0.0481777 17.0542 -0.523544 6.13838 0.391445 -4.19206 -0.706633 0.0779552 0.0150497 0.242183 15.063 8.52876 1.52672 -0.417648 -1.44802 -1.89872 0.0806338 0.0317918 0.217841 
26.982 1 213 11.6159 0.31939 4.27555 0.39806 2.60296 1.33228 0.00608735 -0.169073 0.0899569 0 0 0 0 0 0 0.0377799 -0.172445 -0.167033 10.7717 -2.57103 4.8398 -0.0113421 2.11228 2.55209 0.0142789 -0.171265 0.0970084 13.4401 2.40105 3.04935 0.808129 3.1081 0.113654 -0.00219218 -0.16683 0.0828868 
26.982 1 20 15.9612 2.13946 2.23308 0.938774 -2.08097 -5.39254 -0.174857 0.30147 0.518382 0 0 0 0 0 0 -0.0359151 -0.147243 -0.194647 18.115 -3.36802 5.52217 1.60126 -3.02917 -5.24205 -0.178069 0.310542 0.537737 14.297 6.98555 -1.77758 0.276866 -1.10446 -5.53143 -0.171666 0.292412 0.498947 
26.982 1 218 18.0275 2.52318 4.31471 1.69438 -1.08579 -6.64425 -0.0621724 -0.547988 0.241183 0 0 0 0 0 0 0.018776 -0.110709 -0.0617004 15.4529 -1.57082 5.25429 1.12342 -1.33351 -6.97044 -0.0686737 -0.57065 0.243842 20.842 5.95199 2.73199 2.26291 -0.814115 -6.30889 -0.0556292 -0.525347 0.238468 
26.982 1 59 18.0502 4.45733 2.30446 -3.2652 0.805573 -3.98706 0.000940818 -0.223594 0.0995641 0 0 0 0 0 0 -0.00346938 -0.015775 -0.185034 21.8188 1.93636 3.92315 -2.49801 0.578874 -3.46543 0.00442394 -0.234044 0.104389 14.527 6.38362 -0.0231718 -4.03456 1.05196 -4.49317 -0.00254076 -0.21312 0.0946968 
26.982 1 217 15.8999 0.265637 4.47974 -7.10812 1.93595 -2.5224 -0.191319 0.143592 -0.415909 0 0 0 0 0 0 -0.0239622 -0.153913 -0.16707 20.0481 36.2394 6.74128 -6.39272 0.763632 -1.44785 -0.198204 0.152141 -0.421547 12.228 44.7925 1.5809 -7.82539 3.1278 -3.588 -0.184426 0.135038 -0.410367 
26.982 1 19 18.1375 0.279469 2.33664 1.61048 3.50537 -0.363377 0.0460621 0.124213 0.15893 0 0 0 0 0 0 -0.00206857 -0.189443 -0.119607 24.3203 -5.77013 3.61726 3.20802 2.12465 0.313707 0.0481738 0.132206 0.168615 12.183 5.55204 0.335259 0.00971202 4.9044 -1.02814 0.0440063 0.116151 0.149144 
26.982 1 57 15.8213 4.1598 0.324483 -3.77479 4.65348 -0.663942 0.291401 0.162662 -0.202756 0 0 0 0 0 0 0.0174815 -0.0466324 -0.262307 17.2893 5.66094 -3.0274 -3.20239 6.11043 -0.823172 0.293333 0.17131 -0.200638 14.855 2.0496 2.91125 -4.34576 3.2126 -0.482247 0.289427 0.154081 -0.20491 
26.982 1 21 20.2885 0.27327 0.261883 -1.66292 -0.254678 -3.59441 -0.311528 0.138564 0.180231 0 0 0 0 0 0 0.0109504 -0.13816 -0.113696 23.4058 -8.69178 2.31171 -0.918493 -1.8426 -3.29451 -0.316099 0.152269 0.181681 17.1678 8.46355 -2.57244 -2.40826 1.34474 -3.87711 -0.306991 0.124812 0.178779 
26.982 1 261 20.3108 4.21995 4.50483 3.63591 0.14869 -1.60469 -0.0743475 0.355558 -0.317925 0 0 0 0 0 0 0.000154468 -0.0341404 -0.0538888 18.1684 2.96774 7.20945 3.54331 0.466275 -0.926792 -0.080115 0.367556 -0.337994 22.4464 4.87652 1.15724 3.72308 -0.151831 -2.26818 -0.0685093 0.343611 -0.297872 
26.982 1 24 20.0701 2.37791 2.36998 4.0286 3.73601 -0.595473 0.485192 0.0607922 0.0301505 0 0 0 0 0 0 0.0129858 -0.140481 -0.0969957 18.229 1.27408 4.27159 3.8042 3.96037 0.472264 0.484508 0.0542759 0.0312454 21.8989 2.82094 -0.243191 4.2471 3.53362 -1.65166 0.485903 0.0672425 0.0290184 
26.982 1 63 22.4941 4.28094 2.52764 2.87173 2.99202 0.265063 -0.686999 0.378419 -0.854573 0 0 0 0 0 0 0.0160648 -0.0315969 -0.156075 24.8094 5.87268 1.50452 3.75219 3.74493 0.341747 -0.700995 0.390027 -0.887746 19.9342 2.10403 2.8526 1.98766 2.25669 0.204416 -0.673002 0.366825 -0.821407 
26.982 1 222 22.4804 2.35782 4.30396 -0.13669 2.86154 2.92613 -0.402616 -0.240305 0.393599 0 0 0 0 0 0 -0.000707861 -0.176849 -0.0823914 21.0552 1.97594 5.15501 -0.187187 2.96193 3.40345 -0.4104 -0.238314 0.399001 23.6601 2.07273 2.82042 -0.0897503 2.78335 2.46169 -0.394814 -0.242322 0.388239 
26.982 1 28 24.4926 2.44762 2.2914 -2.63042 2.35675 0.455865 0.40211 -0.451107 0.269705 0 0 0 0 0 0 -0.0114055 -0.142069 -0.139335 24.2575 5.63664 4.23213 -2.19402 3.18548 1.63953 0.414493 -0.466873 0.268704 24.2609 -1.40501 -0.366527 -3.06203 1.54896 -0.719991 0.389733 -0.435409 0.270705 
26.982 1 61 20.233 4.35947 0.231099 -2.07523 -0.0591736 1.79664 0.199689 -0.0385571 0.602959 0 0 0 0 0 0 -0.0488464 0.00558656 -0.245243 23.3662 -1.01995 -3.58343 -1.42418 -0.505665 0.906784 0.212593 -0.049082 0.620773 17.0889 9.13348 3.26565 -2.73105 0.401041 2.70589 0.186757 -0.0280673 0.585146 
26.982 1 22 22.2456 2.35495 0.386029 -1.67845 -1.87217 2.34075 0.234034 0.303992 -0.149064 0 0 0 0 0 0 0.05521 -0.0925469 -0.187254 26.2668 3.81785 -0.0651239 -0.655874 -0.792032 2.64114 0.233008 0.325055 -0.158619 17.9878 0.223957 0.0619893 -2.70086 -2.93429 2.05575 0.235037 0.282892 -0.139501 
26.982 1 265 24.4205 4.42814 4.51005 -1.05065 0.649401 0.39391 0.682628 -0.32929 -0.0524462 0 0 0 0 0 0 0.0203829 -0.053841 -0.0572536 26.2488 -1.46799 4.49405 -0.477372 -1.48679 0.585736 0.703588 -0.344593 -0.0611958 22.111 9.71941 3.87963 -1.62105 2.79763 0.213314 0.661651 -0.314002 -0.0436644 
26.982 1 67 26.6513 4.42249 2.41429 1.87954 0.876823 -0.532591 -0.0168249 -0.196453 0.113485 0 0 0 0 0 0 -0.00835244 0.00731744 -0.198118 28.6209 0.662851 3.75734 1.81959 0.629849 0.35397 -0.0218572 -0.201736 0.124281 23.9614 7.56233 0.37113 1.9476 1.13578 -1.4035 -0.0117585 -0.191161 0.102663 
26.982 1 226 26.8083 2.38944 4.4671 1.70751 -5.09854 -4.49717 -0.389254 0.435315 -0.209143 0 0 0 0 0 0 -0.046114 -0.0690483 -0.0693407 26.6919 2.28756 5.14467 1.48543 -5.3879 -4.19623 -0.396146 0.454624 -0.213015 26.2168 1.8346 3.13926 1.93983 -4.78143 -4.79177 -0.382363 0.416018 -0.205277 
26.982 1 32 28.7491 2.36879 2.23218 0.793535 -2.20274 -3.50406 0.332993 0.319742 0.170062 0 0 0 0 0 0 0.0498748 -0.0587719 -0.155717 25.5894 3.15633 4.31618 -0.212961 -1.65999 -2.5775 0.330002 0.335456 0.194751 30.9258 0.909517 -0.553738 1.80391 -2.7229 -4.4146 0.335999 0.304027 0.145328 
26.982 1 269 28.9768 4.37504 4.28904 3.35533 1.19649 0.196626 -0.290637 -0.300793 0.287367 0 0 0 0 0 0 -0.00944017 -0.0303235 -0.0572102 27.2184 8.95109 9.45726 3.11101 2.38461 1.07949 -0.296145 -0.310952 0.293567 29.7718 -0.818914 -1.50253 3.60827 0.0269 -0.67239 -0.285105 -0.290606 0.281157 
26.982 1 27 26.7046 0.495716 2.29889 -6.3325 -0.227201 -3.82762 -0.463828 0.198133 -0.290236 0 0 0 0 0 0 -0.074321 -0.209903 -0.115202 27.6635 2.66949 -1.34323 -5.85825 0.409452 -3.9244 -0.478301 0.205212 -0.295855 25.0308 -2.45239 5.21649 -6.80138 -0.845715 -3.72244 -0.449344 0.191024 -0.28468 
26.982 1 26 26.8591 2.42758 0.110428 0.927269 -5.54499 7.15078 -0.40913 -0.0766248 0.548036 0 0 0 0 0 0 -0.0306622 -0.00709801 -0.224267 24.0116 4.09042 3.10929 0.0558545 -5.68466 9.13239 -0.419532 -0.079538 0.574474 28.9942 0.0817877 -3.65903 1.80581 -5.38719 5.18309 -0.398663 -0.0737272 0.521571 
26.982 1 71 30.991 4.32267 2.26325 -2.22671 -1.14961 -1.87637 0.118282 0.0600816 0.121373 0 0 0 0 0 0 -0.0363882 -0.0752312 -0.174199 31.1114 4.9097 1.48324 -2.2135 -1.0734 -2.27339 0.118354 0.0669077 0.139308 29.6268 3.10615 2.36702 -2.2449 -1.21268 -1.45579 0.118224 0.0533005 0.103402 
26.982 1 230 31.1097 2.38556 4.32027 -3.99108 1.73431 0.641754 -0.186017 0.0854379 -0.210882 0 0 0 0 0 0 0.0053811 -0.110378 -0.110553 26.586 -0.630928 5.19757 -4.9123 1.04941 0.956544 -0.184509 0.0854376 -0.217665 34.3992 4.73265 2.84129 -3.07115 2.44291 0.34903 -0.187505 0.0854306 -0.204136 
26.982 1 233 33.2823 0.25012 4.44931 -3.85853 1.83786 -4.26968 -0.111175 0.536751 -0.429387 0 0 0 0 0 0 0.0106114 -0.165689 -0.208088 32.531 38.1801 0.0382005 -3.66017 1.60512 -5.24945 -0.112009 0.55747 -0.445681 32.5687 42.8638 8.27539 -4.05628 2.09582 -3.26629 -0.110306 0.51598 -0.413143 
26.982 1 273 33.1632 4.28114 4.23149 -3.35204 -2.40546 3.08869 -0.0154336 0.216894 0.216706 0 0 0 0 0 0 -0.0109541 -0.039201 -0.0319502 37.4457 4.98593 3.54398 -2.37815 -1.33911 2.91282 -0.0236443 0.222449 0.239999 27.3786 2.93965 4.29974 -4.33548 -3.45976 3.27992 -0.00721368 0.211391 0.193406 
26.982 1 229 28.7123 0.374607 4.22262 2.03151 1.89721 0.258465 0.560035 -0.0136378 0.183726 0 0 0 0 0 0 0.0287908 -0.164935 -0.143119 27.3931 34.5929 9.37063 1.6235 0.879892 1.88542 0.565822 -0.00689204 0.195532 29.0594 46.6958 -1.53922 2.4459 2.93951 -1.35619 0.554274 -0.0203996 0.171902 
26.982 1 29 29.0535 0.505891 0.226829 5.95056 0.98014 2.10389 -0.199464 0.356127 0.0707331 0 0 0 0 0 0 0.0650423 -0.127393 -0.145513 27.8579 -4.58533 42.1548 5.90753 -1.24734 3.52436 -0.198523 0.355964 0.0823061 29.2524 4.81243 38.8 5.99148 3.21623 0.689805 -0.200368 0.356283 0.0591283 
26.982 1 73 33.2706 4.40716 0.364739 0.618565 -1.65203 -0.425478 -0.108436 0.0364932 -0.0582637 0 0 0 0 0 0 -0.046913 -0.0687496 -0.267508 30.1769 9.7888 2.59048 0.733501 -1.02441 -0.265641 -0.115008 0.0425715 -0.0602151 34.8701 -1.59312 -2.6277 0.496057 -2.26616 -0.562243 -0.101871 0.0304407 -0.0563419 
26.982 1 36 33.2761 2.33416 2.22649 2.20673 -4.22218 -3.9795 -0.136732 -0.0669946 0.394586 0 0 0 0 0 0 -0.0364356 -0.190572 -0.157101 32.7984 1.73505 -0.198035 2.55273 -5.23515 -5.2138 -0.136581 -0.069626 0.421138 32.2686 2.25148 3.98221 1.85389 -3.19049 -2.7194 -0.136871 -0.0643692 0.368021 
26.982 1 75 35.3073 4.49865 2.33813 -0.29065 -1.12438 3.94558 0.238523 -0.319255 0.11722 0 0 0 0 0 0 0.030873 -0.0530167 -0.123001 38.5397 2.81102 3.5965 0.41434 -1.10802 4.96422 0.239735 -0.330854 0.127456 30.3312 5.52842 0.391115 -1.00272 -1.13402 2.94745 0.23729 -0.30762 0.106965 
26.982 1 234 35.3597 2.32946 4.336 -1.55291 -2.68963 -2.77638 -0.284362 0.0298158 0.0626114 0 0 0 0 0 0 0.0178201 -0.128904 -0.0876734 38.7351 1.39506 5.66084 -0.650264 -2.92062 -3.11219 -0.289197 0.032639 0.0627618 30.2428 2.55462 2.41481 -2.46403 -2.44323 -2.41809 -0.279503 0.0269757 0.062442 
26.982 1 40 37.3074 2.49332 2.4506 -1.19704 -1.98641 -3.22022 0.880446 -0.0160521 0.039016 0 0 0 0 0 0 -0.00455417 -0.10611 -0.102048 39.4888 7.05221 2.5713 -0.728498 -0.995338 -3.65375 0.890876 -0.0228023 0.0350207 33.1441 -2.80422 1.63828 -1.673 -2.96449 -2.76826 0.87001 -0.00932698 0.0430037 
26.982 1 37 37.6454 0.472483 0.557874 -2.93436 -1.32655 0.709183 -0.824626 -0.422017 -0.477769 0 0 0 0 0 0 -0.0663234 -0.165698 -0.146336 41.5397 4.71694 43.6741 -2.1528 0.0674801 1.32284 -0.845772 -0.42205 -0.490218 31.7981 -4.56035 37.9501 -3.71658 -2.70139 0.111942 -0.803473 -0.422044 -0.465334 
26.982 1 34 35.5347 2.48431 0.471029 -1.09631 -0.70511 1.39506 -0.262391 -0.405901 -0.508429 0 0 0 0 0 0 -0.0123105 -0.11383 -0.226709 36.7863 10.2299 44.6768 -0.970793 0.31084 2.71712 -0.253315 -0.433781 -0.521432 32.5678 -5.98724 36.7613 -1.22216 -1.71384 0.0882179 -0.271479 -0.378048 -0.495463 
26.982 1 277 37.5115 4.45647 4.43642 0.670721 -0.551132 -1.62721 -0.0744541 -0.258545 -0.0997007 0 0 0 0 0 0 0.00333663 -0.034317 -0.0502226 37.068 6.72988 1.07176 0.967909 1.5775 -3.17923 -0.0766442 -0.267637 -0.111789 35.966 1.53873 7.18932 0.363887 -2.66224 -0.0609858 -0.0722556 -0.249442 -0.0876284 
26.982 1 4 41.824 2.2847 2.31581 -0.490938 -4.92641 2.05638 -0.0107683 0.0796949 0.0879168 0 0 0 0 0 0 0.031204 -0.020342 -0.176936 35.6793 2.4135 3.05142 -1.71873 -5.49729 3.1932 -0.0122041 0.0801288 0.0931553 45.5227 1.43049 0.875892 0.737623 -4.34507 0.939113 -0.00936264 0.0792957 0.0826608 
26.982 1 79 39.6904 4.45875 2.39596 5.68334 -0.581839 2.39062 0.0349079 -0.547555 -0.189021 0 0 0 0 0 0 0.00355367 0.00836968 -0.217313 37.0392 9.4039 -0.57415 5.4697 1.53698 1.53383 0.034494 -0.571752 -0.196234 40.1239 -1.11917 4.67417 5.88974 -2.68704 3.26683 0.0353469 -0.523353 -0.181822 
26.982 1 238 39.6392 2.45256 4.40282 5.20147 -4.6701 5.42644 -0.095088 -0.254177 -0.412156 0 0 0 0 0 0 -0.0402558 -0.0797677 -0.0735874 42.1257 4.14602 4.04633 6.40118 -5.0446 5.60201 -0.0998952 -0.263362 -0.431712 34.9292 0.0472772 4.14921 3.99565 -4.2822 5.27018 -0.0902926 -0.245019 -0.392595 
26.982 1 1 41.8759 0.353144 0.298252 -2.5852 -1.9263 3.24796 0.0957165 -0.324464 0.00711199 0 0 0 0 0 0 0.0502795 -0.117582 -0.193804 40.7708 45.1155 4.59564 -2.98087 -1.02577 3.95254 0.109294 -0.342389 0.0116894 40.5382 36.0623 -4.80344 -2.19047 -2.8232 2.55138 0.0820765 -0.306546 0.00249515 
26.982 1 39 39.6485 0.192314 2.36815 2.69372 -2.06045 3.82495 0.0351938 0.784551 0.236046 0 0 0 0 0 0 -0.0487013 -0.207591 -0.0705882 38.4955 40.3788 4.13499 2.42696 -2.51054 5.2641 0.0353927 0.821123 0.239403 38.5856 40.4938 -0.0993848 2.95531 -1.59913 2.41193 0.0349727 0.747929 0.232693 
26.982 1 38 39.6532 2.18564 0.473114 -1.9451 -4.35902 2.98168 0.212331 0.753237 0.0115 0 0 0 0 0 0 0.00464125 0.0309181 -0.237981 38.7019 5.62471 45.3413 -1.87979 -3.6779 4.98058 0.206362 0.784034 0.0140154 38.3915 -1.97621 36.0919 -2.01619 -5.02283 0.99903 0.218312 0.722456 0.00894077 
26.982 1 83 0.809874 8.10938 2.31747 -1.83324 1.01114 3.71755 -0.0549969 0.644544 0.125235 0 0 0 0 0 0 -0.0821772 -0.00836506 -0.220555 -0.357713 14.0944 4.26906 -2.27437 2.67045 4.87618 -0.0621892 0.670318 0.128133 4.21653 1.6293 -0.366468 -1.38094 -0.647669 2.571 -0.0478184 0.618722 0.122377 
26.982 1 242 0.720761 6.20525 4.36051 6.4233 0.351103 2.75044 0.231533 0.143398 -0.193309 0 0 0 0 0 0 -0.0897595 -0.00740811 -0.124959 -1.88632 6.48638 7.90009 5.42262 1.3556 4.27869 0.229257 0.146759 -0.197886 5.56866 5.3817 0.204989 7.4356 -0.641683 1.24536 0.233806 0.140085 -0.188717 
26.982 1 285 2.83215 8.36826 4.30401 1.16795 2.33956 -3.92546 0.210923 0.158677 0.119293 0 0 0 0 0 0 -0.00448511 0.0128514 -0.0837157 -3.20383 9.13404 2.56623 -0.207571 3.1534 -3.87708 0.211902 0.175638 0.119887 10.8729 7.1112 5.39993 2.55653 1.52823 -3.96671 0.209904 0.14166 0.118731 
26.982 1 42 0.897823 6.25438 0.147909 1.87434 -3.67971 2.43637 -0.0692919 -0.0388063 0.721987 0 0 0 0 0 0 -0.0613119 -0.00822773 -0.205316 -0.477569 5.75544 1.99144 1.24302 -3.04105 3.18637 -0.0761567 -0.0368255 0.743419 4.52227 6.21408 -2.50429 2.52089 -4.30507 1.69375 -0.062423 -0.0408079 0.700571 
26.982 1 281 -1.32148 8.41565 4.34411 1.7103 -0.869108 3.25255 0.0644618 -0.594709 -0.0978912 0 0 0 0 0 0 -0.112872 -0.104703 -0.15895 42.586 14.1152 5.93279 1.8407 1.04079 4.14734 0.0649411 -0.607157 -0.102273 38.5631 2.25109 2.13376 1.57984 -2.76791 2.37348 0.064042 -0.582325 -0.0934955 
26.982 1 84 -1.23217 10.3211 2.24798 0.861786 5.65008 8.57205 -0.211891 -0.092728 -0.254565 0 0 0 0 0 0 -0.172026 -0.0490929 -0.215589 40.5153 12.459 -4.58564 0.805341 6.2106 7.14071 -0.215189 -0.0886782 -0.265606 40.7937 7.80062 8.33952 0.91495 5.10514 10.0072 -0.208575 -0.0968219 -0.243463 
26.982 1 48 2.94218 6.47873 2.39932 -2.24251 6.19231 4.00192 0.242153 -0.862845 0.216859 0 0 0 0 0 0 0.000297807 -0.00845381 -0.231716 -2.33038 6.89558 0.690087 -3.63511 7.668 3.62725 0.245429 -0.887285 0.213407 10.2123 5.52002 3.38795 -0.83674 4.72764 4.38777 0.238829 -0.838419 0.220326 
26.982 1 87 5.27182 8.19309 2.25182 -2.20897 0.777116 -0.706793 -0.0542364 0.576233 0.378658 0 0 0 0 0 0 -0.00427527 0.0250262 -0.258678 3.30189 10.6829 5.96649 -3.15068 1.54992 0.386823 -0.0455683 0.594386 0.384868 8.97669 5.22542 -2.18147 -1.26084 0.00960568 -1.78873 -0.0628941 0.558094 0.372474 
26.982 1 246 5.00931 6.36616 4.45122 -0.0777501 3.81759 2.32724 0.0847737 0.192633 -0.0943421 0 0 0 0 0 0 -0.00858252 0.00088394 -0.0643594 7.56513 7.14961 4.2415 0.479876 5.06171 3.87114 0.0806524 0.184339 -0.104959 4.1804 5.042 4.01294 -0.630919 2.58745 0.793627 0.0888525 0.200915 -0.083698 
26.982 1 52 7.30417 6.22729 2.53188 -2.56306 -5.26485 -2.23328 0.0877089 0.100081 -0.285356 0 0 0 0 0 0 -0.0255214 0.034353 -0.181786 8.45358 6.05919 6.39951 -2.29183 -5.48155 -1.37679 0.0945614 0.0988276 -0.299512 7.60182 5.86469 -2.04309 -2.83957 -5.03676 -3.07195 0.0808776 0.101355 -0.271226 
26.982 1 289 7.08913 8.22902 4.42263 -0.247018 -1.23907 -6.23115 0.460803 -0.04577 0.0154923 0 0 0 0 0 0 -0.0112075 0.0146063 -0.072178 10.5374 7.01496 6.39027 0.447902 -1.03717 -5.13399 0.45851 -0.0411531 0.00508209 5.10097 8.97144 1.80067 -0.942426 -1.4349 -7.32358 0.463107 -0.0503571 0.0259236 
26.982 1 92 7.3737 10.2056 2.3119 -1.42353 -1.05755 3.05015 -0.100993 0.214097 -0.211967 0 0 0 0 0 0 -0.00325092 0.0187498 -0.264315 6.93388 10.706 5.41524 -1.46302 -0.209466 4.93668 -0.0982334 0.22424 -0.223541 9.27512 9.31418 -1.49694 -1.38738 -1.89461 1.18058 -0.103699 0.203953 -0.200385 
26.982 1 91 9.358 8.24099 2.30138 0.763148 1.16617 0.907463 0.228689 -0.214197 0.0718266 0 0 0 0 0 0 -0.0459581 0.0408043 -0.195059 10.7249 6.91388 4.16838 0.970639 0.576076 1.99044 0.227095 -0.219092 0.0659032 9.19947 9.10404 -0.266561 0.550992 1.76113 -0.155402 0.230323 -0.209273 0.0777002 
26.982 1 250 9.68935 6.45393 4.37224 -3.25859 0.835177 3.62161 -0.784518 -0.403013 -0.454064 0 0 0 0 0 0 -0.00676967 -0.0207838 -0.0604135 9.60093 7.27187 13.3547 -3.74887 1.80609 5.89955 -0.786893 -0.422625 -0.480228 10.9788 5.12956 -5.28667 -2.77174 -0.11183 1.34361 -0.782107 -0.383388 -0.427907 
26.982 1 50 9.43393 6.34692 0.278329 -1.10293 -1.16075 -0.953646 0.154664 -0.13821 0.522934 0 0 0 0 0 0 -0.021086 -0.00409537 -0.259188 12.0131 9.62855 -0.900938 -0.721224 1.1107 -1.00863 0.155733 -0.150331 0.551621 8.06768 2.52824 0.695181 -1.48757 -3.42278 -0.874942 0.153648 -0.126077 0.494193 
26.982 1 290 9.30455 10.1074 4.26049 -2.55704 -1.29143 -4.49874 0.397334 0.469806 0.0714836 0 0 0 0 0 0 -0.00567079 0.0246931 -0.0689141 8.29623 13.5927 13.1348 -2.76188 0.585923 -1.73586 0.400435 0.483123 0.065811 11.5219 6.22756 -5.23765 -2.35446 -3.16691 -7.24624 0.394256 0.456516 0.0771841 
26.982 1 93 11.6296 8.33388 0.337971 1.74651 -2.06344 -2.92424 -0.0928147 -0.200923 -0.22831 0 0 0 0 0 0 -0.0488913 0.0370675 -0.279534 11.311 6.90913 38.1414 1.59553 -2.76546 -2.60121 -0.0864612 -0.199529 -0.22817 12.9364 9.31001 43.077 1.90086 -1.34886 -3.21882 -0.0991574 -0.202317 -0.228495 
26.982 1 56 11.6045 6.27761 2.28121 1.62457 1.65828 1.8757 -0.248085 0.098667 0.273813 0 0 0 0 0 0 -0.0205699 -0.0510712 -0.151297 13.7712 6.57468 5.10965 1.95846 2.37357 2.62468 -0.260529 0.099138 0.28602 10.4314 5.45027 -1.25931 1.29419 0.954343 1.14507 -0.235644 0.0982488 0.261555 
26.982 1 293 11.7464 8.45739 4.29911 -5.38316 -2.74253 0.583123 -0.661707 -0.118333 -0.218212 0 0 0 0 0 0 -0.0102025 -0.00209215 -0.0437177 10.6662 8.8669 12.6735 -5.73323 -1.22362 2.98548 -0.666248 -0.124317 -0.231273 13.8074 7.57232 -4.71906 -5.03098 -4.25731 -1.80851 -0.657157 -0.11232 -0.205154 
26.982 1 95 13.5384 8.28181 2.34496 0.51041 -2.39539 -1.65532 0.598977 0.508364 -0.207674 0 0 0 0 0 0 0.0357277 0.017382 -0.144355 15.2822 10.3868 -1.49356 0.364082 -1.8008 -2.15493 0.604398 0.522812 -0.210286 12.5344 5.69665 5.48424 0.657269 -2.9842 -1.136 0.593513 0.493947 -0.205094 
26.982 1 254 13.7064 6.33629 4.25153 -0.125167 -0.329848 -1.13681 0.181354 -0.0823101 0.217446 0 0 0 0 0 0 0.0141149 -0.0223223 -0.0294693 12.5483 6.57801 10.2559 -0.502225 -0.348176 0.814161 0.189437 -0.0971352 0.227236 15.6187 5.57671 -2.41205 0.254271 -0.293909 -3.08086 0.173213 -0.0674196 0.207622 
26.982 1 297 15.8557 8.35436 4.25971 3.07447 -2.45875 -2.25219 -0.066724 -0.133237 -0.0476996 0 0 0 0 0 0 0.0145678 -0.00257763 -0.0491453 18.6407 12.4088 -0.234348 3.67036 -0.881407 -2.54226 -0.0671094 -0.133961 -0.0444912 13.5739 3.82394 8.11354 2.47986 -4.02743 -1.94965 -0.066416 -0.132475 -0.0509465 
26.982 1 294 13.8142 10.2991 4.21054 3.14084 -1.64309 -3.74613 -0.300219 0.287024 0.167098 0 0 0 0 0 0 0.00464674 0.0055716 -0.0383788 15.6775 19.1413 1.75574 3.5707 0.650192 -4.95847 -0.296083 0.291638 0.163401 12.6922 1.05828 6.03131 2.71402 -3.93313 -2.51679 -0.304406 0.28241 0.17078 
26.982 1 94 13.7649 10.3239 0.332443 4.6023 -3.01588 3.83097 -0.29186 -0.0971218 -0.100079 0 0 0 0 0 0 -0.000864407 -0.00213417 -0.27611 15.6732 14.5923 42.6843 4.80552 -1.90249 4.86469 -0.294338 -0.101647 -0.105318 12.582 5.63836 38.474 4.39751 -4.13481 2.80823 -0.289427 -0.0926263 -0.0948624 
26.982 1 96 11.3922 10.371 2.18192 2.5107 -3.96181 1.93414 0.666057 -0.0260832 0.75531 0 0 0 0 0 0 -0.0589892 0.0520242 -0.188774 11.2338 10.7934 -4.10213 1.98737 -3.46408 0.115846 0.668546 -0.0128681 0.77696 12.5211 9.5531 7.76681 3.03174 -4.45365 3.77256 0.663578 -0.0392981 0.733662 
26.982 1 54 13.7261 6.44145 0.434488 -2.23609 -3.35829 4.63542 -0.213674 -0.595759 -0.603445 0 0 0 0 0 0 0.0283457 -0.0305215 -0.287649 11.2729 10.2123 -4.38266 -2.85108 -1.51199 3.47558 -0.212845 -0.618638 -0.62059 16.9264 2.12943 4.45552 -1.61928 -5.19439 5.81152 -0.214569 -0.572829 -0.586344 
26.982 1 60 15.7695 6.40868 2.25664 8.32046 -0.0288636 1.32195 0.286932 -0.320898 0.141722 0 0 0 0 0 0 0.0472345 0.0119895 -0.182163 19.2643 9.74609 -1.06469 9.36647 0.548671 0.96993 0.288152 -0.337673 0.155443 12.7684 2.51958 4.87121 7.27301 -0.599216 1.69016 0.285635 -0.304061 0.127986 
26.982 1 99 18.0537 8.2908 2.2489 2.03373 -2.73112 4.18131 -0.326101 -0.0222395 -0.143077 0 0 0 0 0 0 -0.00256821 0.014514 -0.250719 16.6828 11.0503 -1.37615 2.18977 -3.18478 3.94025 -0.332144 -0.012242 -0.145045 19.6801 5.02273 5.16748 1.87969 -2.27648 4.43878 -0.320103 -0.0321977 -0.141117 
26.982 1 258 17.98 6.42528 4.17631 -6.54737 3.17769 1.25769 0.0306298 -0.385448 0.365735 0 0 0 0 0 0 0.00139871 -0.00977945 -0.0602611 17.1066 10.4162 4.95951 -6.91685 3.68818 1.17006 0.0313571 -0.403462 0.382196 19.1045 1.89544 2.7503 -6.17965 2.67994 1.35759 0.0298879 -0.367394 0.349274 
26.982 1 298 18.0343 10.3244 4.17584 -2.01444 2.73622 1.98414 -0.107497 -0.202157 0.374689 0 0 0 0 0 0 0.00160652 -0.00408199 -0.0531578 17.7246 11.4643 -4.89062 -2.10092 3.07496 -0.572526 -0.11184 -0.196033 0.397908 18.5987 8.78391 12.6238 -1.92604 2.40547 4.56151 -0.103202 -0.20831 0.351439 
26.982 1 301 20.2242 8.30385 4.18903 2.30177 4.141 -1.54732 -0.166776 0.0990016 0.807078 0 0 0 0 0 0 -0.0117648 -0.00041091 -0.0476138 17.8283 6.35761 4.11069 1.93433 3.9307 -2.10081 -0.169682 0.0931842 0.834373 22.6161 9.76227 3.64281 2.66503 4.35863 -0.980442 -0.163862 0.104805 0.779787 
26.982 1 64 20.261 6.3243 2.44158 -2.87391 -0.841195 0.182669 0.0819376 -0.516363 -0.447273 0 0 0 0 0 0 -0.0265191 0.0116954 -0.193118 19.4127 6.0152 0.361224 -2.88693 -1.27491 -0.241595 0.0879522 -0.53502 -0.471273 21.1091 6.08957 3.81167 -2.86285 -0.395094 0.619548 0.0759333 -0.497676 -0.423298 
26.982 1 103 22.4168 8.45234 2.4602 -0.738303 0.863713 -3.90863 0.140816 -0.714139 -0.19388 0 0 0 0 0 0 0.0111673 -0.0338964 -0.179162 20.2074 14.0255 3.45612 -0.867115 2.57093 -4.67646 0.150399 -0.743065 -0.202726 24.3677 2.39922 0.770246 -0.616872 -0.828664 -3.12736 0.131211 -0.685242 -0.185028 
26.982 1 262 22.3837 6.31068 4.35659 0.729608 -2.55917 -0.203006 -0.0203945 0.199203 0.271795 0 0 0 0 0 0 0.00107914 0.00444655 -0.0434069 20.3089 6.99289 3.98899 0.895509 -3.32541 -0.62918 -0.0228936 0.213014 0.280754 24.2049 5.08793 4.09145 0.557199 -1.78309 0.23517 -0.0178886 0.185429 0.262898 