ITEM: TIMESTEP
18450
ITEM: NUMBER OF ATOMS
4000
ITEM: BOX BOUNDS pp pp pp
-3.82401 44.324
1.51156 38.9884
1.02182 39.4782
ITEM: ATOMS mass type id x y z vx vy vz fx fy fz xrad yrad zrad vxrad vyrad vzrad fxrad fyrad fzrad xub yub zub vxub vyub vzub fxub fyub fzub xlb ylb zlb vxlb vylb vzlb fxlb fylb fzlb 
26.982 1 43 -2.93755 5.73744 3.07432 -0.188379 -1.06908 -0.160427 0.235873 0.109146 0.156007 0 0 0 0 0 0 -0.225171 -0.00640358 -0.120347 -16.6448 19.8784 34.6461 0.797835 6.99913 4.1438 0.230981 0.118209 0.142781 17.4933 -10.621 -30.2965 -1.26165 -9.1051 -4.51076 0.24064 0.100017 0.169223 
26.982 1 202 -2.72645 3.82686 4.98508 0.961961 -1.12468 3.59084 -0.508502 -0.511181 0.259924 0 0 0 0 0 0 -0.176063 -0.111174 -0.103877 8.85358 -12.3784 29.7013 1.59169 -0.297593 19.1119 -0.521956 -0.515151 0.286871 -7.65275 17.6336 -21.2245 0.203525 -1.8426 -12.0508 -0.495135 -0.507159 0.232818 
26.982 1 245 -0.908138 5.72327 5.17551 3.88816 3.3182 5.3224 0.612221 0.611947 -0.49906 0 0 0 0 0 0 -0.0367407 0.0157718 -0.066173 -18.7659 24.711 21.1622 -0.452908 11.1564 11.6611 0.630079 0.634399 -0.520044 23.0059 -15.19 -12.4061 8.15001 -4.38231 -1.12923 0.594202 0.589483 -0.478187 
26.982 1 8 -0.711376 3.91208 3.13239 1.37649 -0.196066 -2.81233 0.39397 -0.160815 -0.17347 0 0 0 0 0 0 -0.0632284 -0.0856819 -0.130509 -3.38255 25.9593 18.9029 4.86225 2.70837 1.22981 0.405766 -0.156864 -0.194418 7.94888 -20.6102 -14.471 -2.21811 -2.99911 -6.97778 0.382011 -0.16479 -0.152601 
26.982 1 45 -0.601101 5.96479 1.26903 -3.77818 2.3958 -7.50985 -0.103781 0.378891 0.530735 0 0 0 0 0 0 0.00977143 0.0578478 -0.255732 -8.51753 11.3042 57.184 -5.23715 5.31864 -5.2676 -0.0977765 0.389214 0.527681 13.5192 -1.34169 24.7544 -2.30072 -0.453898 -9.80806 -0.109837 0.368523 0.533744 
26.982 1 205 -0.760245 1.84255 5.01279 2.61145 2.32564 -1.8773 -0.255685 0.116483 -0.212161 0 0 0 0 0 0 -0.0616963 -0.266853 -0.0149148 19.4871 21.7316 36.8338 20.7713 -9.5267 21.1811 -0.241419 0.112092 -0.182058 -15.1708 60.4512 -28.3338 -15.6913 14.2532 -25.0448 -0.270079 0.120859 -0.242505 
26.982 1 102 22.1867 11.7766 1.06209 -1.82022 -2.27955 -1.62425 -0.411596 0.00645801 -0.047099 0 0 0 0 0 0 0.069354 0.0227124 -0.272296 31.0358 29.0967 57.9864 8.80768 -4.53079 4.96801 -0.378214 0.000575845 -0.0577059 12.7278 -6.81792 23.6291 -12.3995 0.0386534 -8.21133 -0.445166 0.0125187 -0.0365812 
26.982 1 998 42.2927 17.5561 17.2203 -0.994404 -0.908162 0.435365 -0.450788 0.267734 0.0941779 0 0 0 0 0 0 0.0211807 0.00574031 -0.0267573 37.1711 40.0274 35.6072 -1.22312 -6.1494 3.9442 -0.443654 0.273178 0.0939466 40.6602 -5.05866 -1.18862 -0.822362 4.38576 -2.99893 -0.458131 0.262199 0.0944184 
26.982 1 206 1.27347 3.94548 5.07547 2.48942 -2.72743 -2.07103 0.576897 -0.236102 -0.0486759 0 0 0 0 0 0 0.0165197 -0.112142 -0.00145121 23.5514 -34.4462 65.5821 12.3401 -19.2271 18.2718 0.598331 -0.247557 -0.0376961 -15.7832 40.2544 -56.9036 -7.45501 13.9796 -22.514 0.555339 -0.22461 -0.0597797 
26.982 1 12 3.7767 4.5988 3.90202 6.45851 -2.45224 -0.0795665 -0.220903 0.161243 -0.0309202 0 0 0 0 0 0 -0.0144811 -0.0205388 -0.0822651 13.8891 -19.6922 -2.46077 12.2588 -17.8964 5.07106 -0.234751 0.161483 -0.0314242 -1.9601 26.9759 8.52741 0.582444 13.2379 -5.31482 -0.207199 0.161069 -0.0305251 
26.982 1 9 3.96218 2.57834 1.98241 -2.63423 9.13708 5.58106 -0.635215 -0.19864 -0.498081 0 0 0 0 0 0 0.000928552 -0.176319 -0.19776 14.2279 0.639607 28.2726 8.54489 -3.56103 18.2424 -0.656873 -0.195018 -0.50034 -1.97094 1.92287 -26.1423 -13.9408 21.9697 -7.19282 -0.613797 -0.202268 -0.495936 
26.982 1 6 1.70402 4.35331 1.63547 -2.25329 3.06768 -0.284661 0.0233504 -0.553687 0.561734 0 0 0 0 0 0 0.00324884 -0.0127292 -0.237035 -4.10101 -28.0298 32.54 0.799377 -3.84495 6.43641 0.0266572 -0.558226 0.570921 12.6282 34.4931 -31.1543 -5.40362 10.124 -7.10763 0.0199722 -0.549139 0.552476 
26.982 1 7 1.48261 1.70601 3.43968 5.60763 2.26441 6.21681 0.733247 0.740175 0.00551832 0 0 0 0 0 0 0.0117005 -0.190684 -0.143788 25.0504 10.1717 33.3152 20.7612 -13.8721 22.6941 0.756226 0.766947 0.00572988 -17.0671 71.8837 -28.2344 -9.70148 18.4954 -10.4183 0.710117 0.713331 0.00514021 
26.982 1 813 10.8271 1.35795 15.9721 3.27098 -0.879796 -4.1352 -0.616625 -0.27329 -0.236952 0 0 0 0 0 0 -0.0421878 -0.212461 -0.148646 11.563 7.7536 3.05061 6.24049 9.3685 -9.50953 -0.632179 -0.267942 -0.251671 13.0533 -7.89816 29.2374 0.309637 -11.1861 1.41087 -0.600972 -0.278854 -0.22207 
26.982 1 209 5.68128 2.75597 3.97894 0.325949 -4.49066 -2.30786 0.050041 -0.736416 0.318023 0 0 0 0 0 0 0.0213459 -0.143962 -0.111864 -7.31862 -4.80006 7.72588 -8.14521 -10.7695 2.244 0.0626888 -0.74341 0.326534 23.0649 7.88016 -1.22191 8.75774 1.94608 -6.87666 0.0372038 -0.72939 0.309429 
26.982 1 51 6.40895 5.46526 3.07927 -1.51027 -4.89502 -9.27755 -0.0242545 0.0339944 -0.599255 0 0 0 0 0 0 0.0334654 0.0098904 -0.151592 3.42733 -7.99528 -30.1991 8.07159 -17.1182 -14.562 0.00440959 0.0478379 -0.605052 12.8935 17.2554 34.8272 -11.216 7.5472 -3.97208 -0.0531307 0.02027 -0.593472 
26.982 1 210 6.26236 4.607 5.74082 -3.17297 -1.88233 0.2756 0.173317 0.254936 0.652267 0 0 0 0 0 0 0.036761 -0.0599776 0.00271067 -16.761 -15.9294 20.3572 -9.20417 -16.5036 6.01359 0.206048 0.253516 0.665761 32.9608 22.997 -10.3151 2.81351 12.9348 -5.46153 0.140464 0.256484 0.638749 
26.982 1 11 8.24399 2.53052 3.45349 -5.30783 -4.47515 0.103049 0.368986 0.0317787 -0.380597 0 0 0 0 0 0 0.0361089 -0.181609 -0.168872 -11.885 70.3304 -39.4812 -10.2474 -5.77517 -5.37058 0.365283 0.0199724 -0.398239 32.076 13.6452 44.7454 -0.412638 -2.98161 5.603 0.372485 0.0436125 -0.363015 
26.982 1 253 8.66686 5.28758 4.5979 -0.508776 -4.30821 -2.21982 0.434667 0.0761884 0.022201 0 0 0 0 0 0 0.0242992 -0.0242835 -0.0518901 -2.49303 -4.92541 56.8841 -4.86393 -13.0937 2.76362 0.449658 0.0774297 0.0189356 22.926 13.8588 -49.0587 3.82187 4.68419 -7.15011 0.41966 0.0750769 0.0254535 
26.982 1 1816 9.04478 5.17847 1.36145 -2.96108 -3.50273 0.638771 0.247221 0.15461 0.272285 0 0 0 0 0 0 0.0305678 -0.0245131 -0.251734 -11.7414 0.164491 25.5046 4.41375 -6.20801 -9.31335 0.249686 0.176117 0.256389 33.1436 7.91783 56.6578 -10.2608 -0.626865 10.6835 0.244686 0.133298 0.28822 
26.982 1 10 6.59938 3.48362 1.17226 0.101048 -4.75675 1.00789 0.242888 0.172298 -0.0033255 0 0 0 0 0 0 0.0426396 -0.10451 -0.234725 29.7696 -0.72506 1.50403 7.52232 -9.99076 2.67408 0.263992 0.176061 -0.00731891 -12.946 5.28401 -0.814063 -7.45443 0.581231 -0.641989 0.221432 0.16851 0.000636764 
26.982 1 16 10.6936 3.73002 3.16045 0.502312 -2.50482 -7.38021 -0.576992 0.591523 0.323891 0 0 0 0 0 0 -0.0080259 -0.122198 -0.18231 -18.0099 33.9101 -16.1185 -7.81752 -0.571431 -17.2806 -0.59902 0.597537 0.33208 42.6458 -28.7584 20.8218 8.90415 -4.26931 2.59256 -0.55489 0.585687 0.315837 
26.982 1 213 10.6181 2.34529 5.41306 -0.65964 -4.93939 1.27879 0.228994 -0.0222371 0.419327 0 0 0 0 0 0 -0.019364 -0.230993 -0.023599 1.80971 -7.71524 12.1817 -4.08482 -16.4081 -2.13715 0.227089 -0.0319848 0.427879 22.6121 9.78926 -2.79961 2.81852 6.66328 4.74046 0.230886 -0.0123923 0.410794 
26.982 1 15 12.9732 2.4124 3.67296 7.02466 -8.03757 0.491044 0.611464 -0.504277 -0.121488 0 0 0 0 0 0 -0.00304093 -0.221053 -0.160545 -28.5943 34.6467 31.3309 -11.3349 -20.5185 9.58071 0.631256 -0.542346 -0.111642 57.174 48.6935 -25.3828 25.5474 4.54109 -8.4928 0.591802 -0.466016 -0.13124 
26.982 1 214 12.7659 4.16674 5.51559 -1.47674 -6.80145 -4.9876 0.335989 0.370524 0.284487 0 0 0 0 0 0 -0.0131941 -0.0756584 -0.0184591 3.72262 -0.975153 28.5109 -10.7979 -16.7569 3.09159 0.332409 0.371656 0.305273 24.4079 7.03739 -18.9557 7.95838 3.26105 -13.0333 0.339633 0.36955 0.263698 
26.982 1 14 12.9366 5.14923 2.60591 -0.924977 -2.26372 2.76125 -0.0331698 -0.619667 0.275686 0 0 0 0 0 0 -0.0386246 -0.0575753 -0.234634 -33.441 32.2665 35.4993 -22.756 -9.11435 -2.94108 -0.0537507 -0.635747 0.276594 62.0126 -24.1914 49.3835 21.0448 4.73318 8.54063 -0.012494 -0.603332 0.274773 
26.982 1 20 14.9787 5.02964 4.3031 -3.47938 -4.11438 1.99082 0.201682 -0.248953 0.416584 0 0 0 0 0 0 0.00842257 -0.044784 -0.0567966 25.3859 -22.6328 16.2845 1.95407 -7.54172 3.09612 0.221917 -0.259956 0.43129 6.31248 30.3622 -9.18332 -8.83216 -0.648806 0.907166 0.18146 -0.2378 0.40177 
26.982 1 57 16.3589 5.31572 2.00144 1.02369 1.91794 3.66579 -0.216156 -0.442489 -0.461138 0 0 0 0 0 0 -0.0145064 -0.0415575 -0.251786 25.2476 44.4574 -12.8049 7.26583 3.7151 2.62929 -0.203882 -0.473879 -0.465206 9.13668 -35.8107 15.1975 -5.16473 0.212832 4.68793 -0.228441 -0.410913 -0.457216 
26.982 1 17 14.8464 3.02128 1.76611 2.83287 -1.29979 0.599039 -0.166202 -0.132714 0.277394 0 0 0 0 0 0 -0.025196 -0.144664 -0.215965 19.8264 51.9768 19.4594 0.843803 -3.31918 -8.37516 -0.163023 -0.154704 0.2808 11.664 32.863 63.6475 5.00024 0.833825 9.60513 -0.169279 -0.110557 0.273942 
26.982 1 19 17.616 2.6861 2.56345 -0.387102 1.37044 -3.66868 -0.303921 -0.514099 -0.0983426 0 0 0 0 0 0 -0.0166424 -0.201844 -0.134851 29.7562 10.5544 12.3252 -2.26926 11.804 -7.46472 -0.313848 -0.509977 -0.106994 6.38063 -7.94648 -8.73476 1.63523 -9.09456 0.160077 -0.293903 -0.518174 -0.0897994 
26.982 1 217 15.6143 2.41089 5.22883 5.30305 0.769792 -2.67331 -0.159632 -0.169258 -0.715214 0 0 0 0 0 0 0.0219769 -0.163675 -0.119002 9.06861 44.3243 37.9198 -4.51653 -0.24515 13.386 -0.162926 -0.178337 -0.718238 24.002 39.0382 -28.9435 15.3178 1.81175 -18.68 -0.156225 -0.160098 -0.712115 
26.982 1 218 17.6799 4.53586 4.69036 -2.83852 2.02556 -0.705017 -0.295995 0.245705 0.367293 0 0 0 0 0 0 0.00719341 -0.0580302 -0.0323767 -9.50484 2.96362 3.5444 -5.9337 6.19059 -1.42473 -0.295395 0.24899 0.385827 45.6705 3.74493 4.41541 0.300255 -2.14125 0.0405662 -0.296587 0.242495 0.348765 
26.982 1 24 22.2184 4.76826 3.79063 2.88474 3.03517 1.46737 -0.576382 0.653375 0.544281 0 0 0 0 0 0 -0.00435722 -0.029735 -0.118455 -6.11795 34.1627 22.2231 -10.1645 11.4336 4.64535 -0.597227 0.673296 0.566559 50.4745 -26.9375 -16.2206 15.9754 -5.4081 -1.72641 -0.555427 0.633355 0.52202 
26.982 1 221 19.9485 3.07391 4.52539 -4.88923 -6.08738 3.34492 0.35164 -0.305395 -0.0425039 0 0 0 0 0 0 0.0185008 -0.153182 -0.0723096 -7.12897 58.5182 -10.1344 -10.1865 11.5893 6.03521 0.367424 -0.29967 -0.0249479 47.0177 26.1272 17.6669 0.43269 -23.8314 0.630998 0.335994 -0.31115 -0.0600786 
26.982 1 23 22.3126 2.41785 2.69443 0.280918 6.63513 2.03719 -0.0476676 -0.768274 -0.442792 0 0 0 0 0 0 0.0153599 -0.178092 -0.159317 10.0902 87.2078 32.6923 -4.08565 25.9596 16.8932 -0.0650231 -0.762093 -0.430206 33.8158 -3.97543 -28.9088 4.66982 -12.7877 -12.9056 -0.0301607 -0.774557 -0.455486 
26.982 1 18 19.2662 4.77762 2.30095 0.124082 3.78147 -2.07624 0.136519 -0.014935 -0.938572 0 0 0 0 0 0 0.030122 -0.0467392 -0.207842 33.7715 12.1969 7.9923 1.36926 4.28508 3.13214 0.128892 -0.0171863 -0.942898 5.56512 -4.96873 -5.00139 -1.01383 3.2719 -7.29807 0.144141 -0.0126271 -0.934352 
26.982 1 831 32.3268 1.43775 18.3474 -0.326156 0.770457 6.0145 -0.341287 0.0267503 -0.26727 0 0 0 0 0 0 -0.107721 -0.243673 -0.00428603 33.0373 64.3937 15.3211 9.15645 12.6483 2.5961 -0.332761 0.046249 -0.270078 27.6814 -64.4869 21.521 -9.89078 -11.2352 9.45209 -0.349817 0.00699046 -0.26449 
26.982 1 63 24.4905 4.51819 2.3573 -5.03251 2.38733 -2.84612 0.120207 0.287977 -0.506242 0 0 0 0 0 0 -0.0137397 -0.0433882 -0.268799 22.8718 46.3677 21.4071 -10.1964 16.8939 4.58801 0.127051 0.319244 -0.52282 25.4126 -39.6304 -18.2976 0.222838 -12.2141 -10.3286 0.113524 0.25649 -0.489647 
26.982 1 222 24.2643 2.7229 4.43265 6.65537 -2.39032 -3.22032 0.354517 -0.434431 0.459702 0 0 0 0 0 0 -0.0135329 -0.191498 -0.105606 28.0494 23.4867 21.1252 9.76703 1.78079 8.92284 0.337166 -0.449295 0.483297 19.6404 -20.5251 -13.7492 3.57216 -6.60671 -15.4185 0.372126 -0.419669 0.436109 
26.982 1 28 26.6876 2.63683 2.55295 -0.309335 9.05034 -0.638853 -0.64475 0.341168 -0.0506861 0 0 0 0 0 0 0.0107909 -0.191463 -0.212382 30.3738 11.6089 35.6712 -3.78415 12.6438 8.58218 -0.651104 0.360878 -0.065287 21.5822 -8.69517 -32.5113 3.23312 5.46947 -9.9458 -0.638254 0.321353 -0.0360158 
26.982 1 265 26.3154 4.66098 4.39714 6.13928 3.4976 4.09326 0.155259 0.877251 -0.346773 0 0 0 0 0 0 -0.0150439 -0.0271894 -0.104865 23.2281 -30.3624 8.9778 -1.7995 -1.36866 6.65793 0.140402 0.923384 -0.361311 28.1403 37.6094 -1.67282 14.2728 8.40803 1.5485 0.170316 0.830982 -0.332122 
26.982 1 67 28.4579 4.90557 2.55284 3.33498 -1.61343 2.5005 0.0272125 0.167103 -0.213661 0 0 0 0 0 0 0.00931122 -0.061946 -0.261165 23.2259 -14.462 8.91197 -0.744785 -5.4094 0.307832 0.0155575 0.187141 -0.233285 31.6435 22.1813 -5.38298 7.54802 2.20802 4.77317 0.0390324 0.146913 -0.193871 
26.982 1 226 28.5385 2.98063 4.58316 3.66998 -3.29058 -0.129838 0.334667 -0.277909 0.0686924 0 0 0 0 0 0 0.0251929 -0.188499 -0.144704 19.6826 -16.8333 24.035 -3.88325 -7.56484 2.82341 0.345805 -0.290149 0.05213 35.4137 20.7114 -16.4287 11.3751 1.09327 -3.07634 0.323622 -0.265723 0.085313 
26.982 1 32 30.7514 3.22233 2.6031 -7.21128 0.993342 7.32171 -0.577196 -0.847916 0.293034 0 0 0 0 0 0 0.00353718 -0.191676 -0.228057 7.18158 14.9981 27.4972 -10.393 1.76232 6.19274 -0.592322 -0.871973 0.293258 51.492 -10.7549 -23.9146 -3.94509 0.303144 8.50598 -0.562026 -0.823888 0.292918 
26.982 1 269 30.719 5.03562 4.61738 -10.3097 2.274 1.06164 -0.695423 -0.0693299 -0.381015 0 0 0 0 0 0 -0.00772419 -0.071318 -0.10565 24.6202 10.1084 28.8816 -12.1983 -1.18534 0.0699665 -0.706791 -0.084924 -0.398548 34.0787 -2.09466 -20.9081 -8.32101 5.80306 2.13135 -0.683968 -0.0537799 -0.363426 
26.982 1 71 32.6678 5.1221 2.3869 -4.40527 -1.94063 3.45478 0.308423 0.129327 0.704659 0 0 0 0 0 0 0.0186993 -0.0597234 -0.270839 32.1078 19.0939 1.41626 -3.87256 -2.92652 2.64396 0.313564 0.129406 0.717359 29.4625 -10.883 2.01973 -4.90867 -0.876718 4.37539 0.30335 0.129265 0.692057 
26.982 1 230 32.7403 3.20128 4.56215 -3.09 -1.10965 -1.742 0.238309 -0.337017 0.240352 0 0 0 0 0 0 0.0117016 -0.196498 -0.142924 12.3936 -12.3549 -17.2959 -4.1154 -3.89807 -7.50094 0.247658 -0.36551 0.254845 49.4248 16.6265 25.2336 -2.02942 1.76761 4.09686 0.228938 -0.308477 0.225931 
26.982 1 273 34.8263 5.22655 4.60573 -4.16968 -4.5983 2.96616 -0.0723903 -0.0579916 0.0411143 0 0 0 0 0 0 0.0149894 -0.0654887 -0.0997782 50.9519 20.8757 -18.4381 -1.28544 -3.82265 -0.68483 -0.06555 -0.0695849 0.0423214 13.9729 -12.5446 26.3372 -7.11154 -5.30925 6.68213 -0.0792789 -0.0463492 0.0399078 
26.982 1 36 34.927 3.20087 2.69027 0.334296 0.334694 -0.170409 0.130593 -0.333551 0.0647705 0 0 0 0 0 0 0.0151379 -0.185113 -0.22583 50.2018 -8.1275 -22.1146 4.63063 -1.2689 -4.27719 0.141056 -0.344221 0.0608837 14.9693 12.2535 26.1116 -4.00306 2.01776 4.00803 0.120094 -0.32278 0.0686795 
26.982 1 75 36.8651 5.19672 2.72523 -2.36823 -2.12115 0.927315 0.274182 -0.246473 -0.135426 0 0 0 0 0 0 0.0175628 -0.0563439 -0.269228 49.32 29.8518 8.0292 2.08318 1.12715 0.975254 0.282601 -0.253966 -0.136228 18.8333 -21.6931 -3.93434 -6.90965 -5.30825 0.934709 0.265695 -0.238886 -0.134625 
26.982 1 234 37.1392 3.2664 4.71025 6.33276 2.27204 0.0168094 -0.581615 -0.215563 0.0524716 0 0 0 0 0 0 0.0154476 -0.181061 -0.146486 71.26 -2.61762 -6.83949 15.6975 2.58205 -3.2224 -0.584858 -0.21563 0.0473898 -2.62711 6.85042 15.025 -3.18389 2.05994 3.28955 -0.578461 -0.215398 0.0575482 
26.982 1 40 39.3868 3.24986 2.8054 0.508886 -0.819726 2.63156 -0.338076 0.302772 -0.563094 0 0 0 0 0 0 -0.0389135 -0.17716 -0.172808 68.1754 26.7418 1.49225 9.98647 3.06006 7.73859 -0.335201 0.31527 -0.569701 4.32623 -22.6607 2.55683 -9.07052 -4.62051 -2.5196 -0.340998 0.290356 -0.556492 
26.982 1 277 38.9762 5.23625 4.72541 -0.212187 -1.00651 -1.28351 0.158835 0.465593 0.323596 0 0 0 0 0 0 -0.0056252 -0.0487525 -0.0892321 54.0307 24.7654 -9.92527 9.39553 -4.21265 -3.87468 0.162664 0.475866 0.334266 17.5981 -16.2459 18.2089 -9.94832 2.33398 1.34272 0.154925 0.455397 0.312882 
26.982 1 241 43.1656 5.58368 5.20944 -4.089 0.314818 1.77273 -0.115851 0.207418 -0.271535 0 0 0 0 0 0 -0.0233581 -0.023128 -0.031326 15.5052 12.0249 -12.873 2.431 -0.614894 4.01287 -0.127219 0.209963 -0.273936 -18.2679 -2.79695 21.8075 -10.7546 1.35394 -0.529523 -0.104508 0.204915 -0.269283 
26.982 1 4 43.2749 3.56631 3.12002 -2.30249 0.791984 1.07678 0.291941 0.101945 0.0235914 0 0 0 0 0 0 -0.0302835 -0.178697 -0.134036 27.594 17.2646 32.0578 -2.1239 8.64133 12.8992 0.27677 0.104879 0.0100541 51.3003 -12.5891 -27.5016 -2.58297 -6.99217 -10.8309 0.307122 0.0990639 0.0371184 
26.982 1 79 41.1865 5.47193 2.99249 5.65204 -0.618642 -1.90634 -0.0147311 0.0591628 0.12759 0 0 0 0 0 0 -0.0524265 -0.0233263 -0.176245 39.41 42.0081 -22.2668 9.28693 3.27402 -1.88024 -0.0136012 0.0520839 0.126769 35.9664 -33.2191 26.724 1.90347 -4.44441 -1.95395 -0.0158747 0.0662844 0.128411 
26.982 1 238 41.1833 3.50598 5.22174 -1.91435 -1.68962 1.54773 0.21833 -0.0592891 -0.231126 0 0 0 0 0 0 -0.0326339 -0.136339 -0.111151 59.5619 -9.39193 -4.33852 2.68072 -5.85173 4.25604 0.223926 -0.0549293 -0.239164 15.7584 14.1403 13.3415 -6.6356 2.60274 -1.24579 0.212695 -0.0635359 -0.22324 
26.982 1 83 -3.07178 9.83342 3.36233 3.01942 1.29416 2.90746 0.848045 0.482785 -0.296501 0 0 0 0 0 0 -0.114469 -0.0423004 -0.15142 -8.05574 38.3365 16.8139 1.27984 6.38653 7.92856 0.880019 0.499733 -0.297905 8.65751 -20.3115 -11.6352 4.70882 -3.83365 -2.12038 0.815959 0.465753 -0.295119 
26.982 1 242 -3.11254 7.814 5.23245 2.91054 3.01742 -4.07493 0.537258 -0.247758 -0.0152098 0 0 0 0 0 0 -0.162354 -0.0128872 -0.123464 -4.12223 29.4926 32.5562 5.67072 8.18774 1.57033 0.545304 -0.244729 -0.0281603 4.44585 -15.7654 -23.3279 0.0106577 -2.15791 -9.75013 0.529066 -0.250906 -0.00234134 
26.982 1 48 -0.7931 8.04967 3.46038 0.700509 4.09951 0.966326 -0.0924202 0.108134 0.217394 0 0 0 0 0 0 -0.0205643 0.0352066 -0.150148 -42.3693 56.3657 -17.041 -4.31564 12.2004 3.17477 -0.079292 0.121177 0.217745 47.1113 -42.0642 21.9671 5.76532 -3.95657 -1.3845 -0.105619 0.0950161 0.216996 
26.982 1 88 -0.314709 11.1838 2.83961 5.19998 -1.3949 2.20216 -0.0711795 -1.39705 0.507482 0 0 0 0 0 0 -0.0644015 -0.0597407 -0.200589 -38.9656 33.773 39.9024 -1.95256 2.51446 14.8333 -0.0821407 -1.4264 0.537623 44.8474 -12.7351 -35.9801 12.4846 -5.30173 -10.4964 -0.0601621 -1.36769 0.477338 
26.982 1 285 -0.578104 10.2357 5.74363 0.655355 -1.86886 -0.397178 -0.380071 0.21907 -0.512475 0 0 0 0 0 0 -0.0691778 -0.00786417 -0.0586811 -31.1789 47.6391 39.8208 -4.36422 5.76463 16.2012 -0.395643 0.21506 -0.541009 36.3264 -28.8424 -29.9472 5.71656 -9.50681 -17.1065 -0.364491 0.223069 -0.484002 
26.982 1 42 -2.84988 7.75489 1.21388 -3.35122 4.55245 -0.325567 0.232469 0.0993081 0.128503 0 0 0 0 0 0 -0.110033 0.0482106 -0.201302 -3.47199 37.9351 9.19247 -4.5176 10.8715 -0.301961 0.25155 0.0924245 0.129235 4.67619 -24.3437 -8.69122 -2.1925 -1.78476 -0.351984 0.213315 0.106075 0.127799 
26.982 1 47 1.52629 6.34226 3.72961 -3.48487 2.48527 -4.243 -0.20248 0.203902 0.0960171 0 0 0 0 0 0 0.00374177 0.0426152 -0.122462 -19.8219 25.7618 -8.53802 -8.15303 3.52692 -3.70226 -0.208974 0.216397 0.102005 28.2309 -14.6782 14.0588 1.17563 1.64131 -4.92463 -0.196056 0.191403 0.0899737 
26.982 1 249 4.02412 6.54318 5.93764 -0.942401 1.42622 0.414868 -0.32565 0.547607 -0.438113 0 0 0 0 0 0 -0.00560745 -0.00334299 -0.0240566 -10.7021 -29.6652 28.8504 -7.42996 -8.84159 7.25695 -0.329718 0.547706 -0.445656 23.206 41.051 -18.4516 5.51603 11.9031 -6.49704 -0.321649 0.547643 -0.430583 
26.982 1 87 1.8346 9.23267 3.05553 1.5688 7.21657 -0.167885 0.143593 -0.365617 -0.0866023 0 0 0 0 0 0 -0.0240798 -0.0260066 -0.201787 -26.983 20.7427 38.5113 -6.59467 9.17921 11.4831 0.136803 -0.377651 -0.0736444 36.3073 -3.70321 -34.1631 9.82636 5.33394 -11.8845 0.150447 -0.353559 -0.0996001 
26.982 1 289 4.34812 9.38087 4.96423 -1.1375 -2.64628 0.988723 -0.390332 -0.0763783 -0.350388 0 0 0 0 0 0 -0.0200648 -0.0117826 -0.0541271 8.28294 16.9176 66.7121 -6.44032 -1.30862 13.6091 -0.402332 -0.0820897 -0.355876 5.08022 0.395184 -58.5533 4.20613 -3.88491 -11.7361 -0.378361 -0.0705536 -0.344838 
26.982 1 52 4.09177 7.30836 2.94675 1.24349 1.18972 1.35591 0.432523 0.192298 0.267723 0 0 0 0 0 0 -0.0272297 0.024202 -0.178978 9.31414 -12.4386 32.161 -1.12223 -6.85051 9.21286 0.43749 0.187839 0.285222 3.21385 25.5819 -27.7576 3.5184 9.4277 -6.49333 0.427469 0.196792 0.2502 
26.982 1 89 4.75431 10.0933 2.13208 4.67372 3.62021 -3.80142 -0.504381 -0.0472379 -0.00852642 0 0 0 0 0 0 -0.0518649 -0.0417097 -0.246682 16.6778 12.8333 -22.9331 5.0128 1.76632 -3.35547 -0.513209 -0.06263 0.0106621 -2.7283 6.06394 25.4358 4.3089 5.56107 -4.2563 -0.495611 -0.0317789 -0.0277461 
26.982 1 246 1.79652 8.46343 5.86113 0.145091 -1.33229 1.59434 -0.0766907 0.152052 -0.272194 0 0 0 0 0 0 -0.00635902 -0.0079893 -0.0507785 -0.859365 18.8087 46.6943 -7.37424 3.77799 11.8641 -0.0817233 0.145176 -0.298442 10.0838 -3.62656 -36.6651 7.75449 -6.37367 -8.80335 -0.0716137 0.158964 -0.245969 
26.982 1 91 6.79873 10.5771 3.74978 -3.39246 2.14999 1.70855 -0.15768 -0.623402 0.83138 0 0 0 0 0 0 -0.00456429 -0.0194633 -0.0719612 18.8409 -2.37026 24.9911 -0.872907 1.83914 8.38995 -0.163135 -0.644674 0.84641 -1.65067 22.2687 -19.0459 -5.97602 2.58788 -4.97686 -0.152309 -0.602046 0.816355 
26.982 1 250 6.37785 7.46248 4.85743 1.89101 0.581956 2.18925 0.28784 0.00522595 -0.1254 0 0 0 0 0 0 0.0103351 -0.000651387 -0.0461709 12.9135 -4.63394 48.5311 3.79883 -10.9084 8.35337 0.306727 0.00412574 -0.132468 3.39323 18.3079 -40.6624 -0.117409 12.3039 -4.01689 0.26882 0.00651291 -0.11829 
26.982 1 50 6.93055 8.41941 2.04816 1.58641 -1.28557 -3.78896 -0.480153 -0.29969 -0.0160442 0 0 0 0 0 0 -0.0174461 -0.045504 -0.238808 52.6022 -6.07024 -4.55176 20.5453 -17.8317 -7.94863 -0.461829 -0.333611 -0.0121514 -35.2189 21.4614 7.22918 -17.5001 15.4675 0.489002 -0.498604 -0.265602 -0.0199024 
26.982 1 293 8.90332 10.6079 5.7025 -1.72193 3.47333 0.411189 0.234518 -0.269865 -0.145091 0 0 0 0 0 0 0.0111367 -0.00719666 -0.0161831 13.6004 27.7548 67.0601 0.861796 3.20164 7.24229 0.240623 -0.282042 -0.14651 7.20261 -7.94723 -57.2371 -4.33254 3.88487 -6.44951 0.228326 -0.257604 -0.143649 
26.982 1 56 8.79279 8.48752 3.8346 2.44512 4.51699 4.20021 0.505854 -0.150082 0.588905 0 0 0 0 0 0 0.00688894 -0.0311793 -0.0834569 15.3104 -21.1987 17.7679 3.78239 -13.9556 1.24213 0.506119 -0.187785 0.587688 5.35149 36.7701 -11.5003 1.07796 23.1784 7.22835 0.505561 -0.112258 0.590138 
26.982 1 90 7.84781 10.9974 1.31073 -7.32837 5.68137 1.4666 -0.200602 0.0315547 0.130279 0 0 0 0 0 0 0.0299252 0.0315017 -0.281701 23.4494 -14.8958 44.2291 -4.56853 1.37362 5.21426 -0.208734 0.0286927 0.138322 -4.15639 36.1691 38.1246 -10.1465 10.2095 -2.19265 -0.192525 0.0346585 0.122231 
26.982 1 95 12.1051 8.89885 2.77551 -0.842382 -5.31434 -2.99911 -0.272973 0.639487 -0.0917732 0 0 0 0 0 0 -0.00729244 0.020893 -0.210702 8.05819 -8.46182 -10.778 -1.31445 -17.4186 -3.14026 -0.295082 0.641916 -0.0910471 18.5488 24.8104 14.9437 -0.311926 6.97983 -2.80759 -0.250701 0.637253 -0.0925658 
26.982 1 254 11.1289 8.70083 5.56753 -0.178258 1.29008 -0.705715 -0.392993 0.0293543 -0.7035 0 0 0 0 0 0 -0.00104389 0.00105882 -0.0247519 -12.7439 -17.7593 80.7483 -6.3806 -5.9815 11.4446 -0.398208 0.0292875 -0.705976 37.5243 33.6386 -71.1284 6.06575 8.69913 -12.8486 -0.387735 0.0295908 -0.701118 
26.982 1 53 10.9009 6.67903 3.45269 -6.62901 2.97251 -6.09235 -0.95217 -0.462112 -0.12073 0 0 0 0 0 0 -0.0260204 -0.0275421 -0.138121 -31.3295 27.112 -38.3692 -20.3095 -3.77237 -13.9453 -1.00157 -0.478627 -0.122795 56.3444 -15.4918 43.5771 7.1431 9.93555 1.81816 -0.902665 -0.445415 -0.118679 
26.982 1 55 13.184 7.08372 4.7917 -0.745969 -4.01208 -6.74243 0.376972 -0.199647 0.292392 0 0 0 0 0 0 0.0149223 0.0065559 -0.0149727 -12.0933 16.2887 37.7957 -7.15961 -0.717657 3.17872 0.395492 -0.192327 0.328756 41.0329 -3.85113 -29.6502 5.74912 -7.13539 -16.6324 0.358525 -0.206763 0.255894 
26.982 1 97 16.0989 9.33193 2.00987 -2.04209 0.786821 1.21563 0.162445 0.200712 -0.253395 0 0 0 0 0 0 -0.0226309 0.00852702 -0.266487 30.8878 19.9427 19.6901 6.27976 3.52156 2.83728 0.171266 0.200846 -0.246966 2.72738 -2.7413 -17.4295 -10.447 -1.84541 -0.399525 0.153586 0.200738 -0.259957 
26.982 1 60 16.5674 7.17586 4.03727 4.9486 -1.36976 0.00498826 0.00828634 0.208061 0.338212 0 0 0 0 0 0 -0.00688647 -0.00648819 -0.0333061 33.6367 18.7456 -1.62344 10.2232 -1.93093 0.774115 0.0133745 0.19667 0.376631 0.987487 -6.26263 8.14601 -0.364164 -0.719999 -0.787469 0.00314919 0.219621 0.299649 
26.982 1 297 14.7717 9.45647 4.30888 1.5621 2.00457 0.974104 -0.212698 -0.959541 0.354814 0 0 0 0 0 0 -0.00674352 -0.0294048 -0.0411034 36.6874 50.7313 3.45659 7.24449 1.14304 4.97777 -0.209602 -0.990366 0.384235 -5.54949 -33.2646 3.65289 -4.1393 2.99392 -3.07445 -0.215768 -0.928575 0.325187 
26.982 1 54 14.1655 7.36929 2.15961 0.641911 3.66259 0.75565 0.558727 0.0362822 -0.0330028 0 0 0 0 0 0 -0.0156172 0.00187738 -0.262333 -9.32492 21.9385 -45.1469 -6.39756 -0.305465 -6.70779 0.568761 0.02848 -0.0349418 40.1625 -8.93771 47.5679 7.75528 7.79837 8.18596 0.548773 0.0443099 -0.0311589 
26.982 1 59 19.7372 6.49343 4.13376 0.743696 0.265469 1.74805 -0.132229 0.225901 0.726969 0 0 0 0 0 0 0.0114849 -0.017527 -0.0546944 39.3064 -16.4166 18.4441 4.92459 -8.02607 1.44559 -0.132075 0.219889 0.741726 0.823977 27.1333 -11.6284 -3.4407 8.51622 2.06414 -0.132433 0.231975 0.712194 
26.982 1 61 21.0437 7.09083 1.86351 -1.72702 -1.7828 -1.07312 -0.142851 -0.285775 0.00361853 0 0 0 0 0 0 0.0706909 -0.0373201 -0.240691 38.3445 3.66662 -6.8407 1.17206 4.21964 1.82352 -0.140076 -0.289355 0.0218025 3.71576 8.0549 8.94295 -4.60939 -7.89817 -3.97454 -0.145794 -0.282229 -0.0145941 
26.982 1 58 18.0496 7.36223 1.68858 0.922171 -0.0525436 1.37987 0.852982 0.239471 -0.203185 0 0 0 0 0 0 0.00791081 -0.0055872 -0.263241 9.73066 80.3153 29.3774 9.44606 4.34822 2.80142 0.885615 0.222427 -0.194981 26.9502 -67.5468 -27.3832 -7.69677 -4.45271 -0.00250263 0.820204 0.256698 -0.211527 
26.982 1 99 18.3503 9.28245 3.70959 4.96938 -2.90153 -3.33922 0.445248 0.0644676 0.0836673 0 0 0 0 0 0 0.00736564 -0.0150502 -0.0726272 45.8092 52.436 21.4969 15.9213 5.79081 0.0203433 0.456858 0.0501974 0.0965192 -8.54631 -35.5098 -15.5029 -6.11772 -11.5334 -6.64962 0.433443 0.0788926 0.0706922 
26.982 1 64 21.3296 8.72904 4.12823 -0.219284 -1.82213 0.88486 0.241443 0.425242 -0.17716 0 0 0 0 0 0 0.0210177 -0.0156637 -0.0736013 33.2299 24.7059 -1.68524 9.58647 7.87366 -4.74857 0.255737 0.422882 -0.187489 9.33644 -9.18461 8.44149 -10.0282 -11.5466 6.55879 0.226997 0.427626 -0.166805 
26.982 1 101 20.2006 9.55924 1.36573 -4.72495 8.13261 1.1083 -0.469522 0.513363 0.694866 0 0 0 0 0 0 0.0141864 -0.0199908 -0.265835 28.1091 4.73553 27.2518 5.11249 10.1494 -8.52676 -0.449026 0.519009 0.714249 12.1997 12.7407 54.8904 -14.6537 6.1051 10.7575 -0.490363 0.507818 0.675429 
26.982 1 103 23.4862 9.5214 2.24171 2.43117 2.39855 -1.81681 0.383695 -0.389025 0.15519 0 0 0 0 0 0 0.0331035 -0.0340275 -0.228675 -11.3422 47.9665 -11.8467 -6.93404 22.801 -8.40343 0.417852 -0.370192 0.129724 57.6803 -30.5681 14.8503 11.8972 -18.0536 4.82522 0.34959 -0.40779 0.180603 
26.982 1 262 23.9805 6.95139 3.9613 1.22699 2.53671 3.09318 0.27057 0.0952473 -0.137554 0 0 0 0 0 0 -0.0114731 0.00247338 -0.131374 -5.84744 21.0584 -7.829 -13.4799 14.3363 -4.26315 0.266684 0.112833 -0.150146 53.2202 -9.20611 14.3377 16.0963 -9.35522 10.4703 0.274589 0.0774913 -0.124855 
26.982 1 305 26.3126 8.87834 4.21243 -0.103795 0.648537 0.930079 -0.449634 -0.229062 -0.259198 0 0 0 0 0 0 -0.0334346 -0.0113459 -0.0954813 -5.17392 71.017 -31.9939 -25.644 14.6368 -9.24717 -0.48614 -0.237817 -0.283154 56.7044 -54.8925 39.1986 25.7067 -13.4052 11.2599 -0.412858 -0.220424 -0.235051 
26.982 1 68 26.3854 6.70723 2.15321 -3.06894 -0.55825 3.16104 -0.10783 -0.00524784 0.435008 0 0 0 0 0 0 -0.0241753 -0.0261288 -0.247783 17.4461 27.3682 -4.13256 -12.9269 8.25342 -1.82087 -0.120858 -0.00322632 0.439537 34.0676 -15.951 6.93278 7.00128 -9.46726 8.24407 -0.0945862 -0.00751947 0.430667 
26.982 1 107 28.5634 8.81366 2.58847 -0.154775 -2.10315 1.01294 0.109957 -0.123681 -0.220222 0 0 0 0 0 0 0.012519 0.0123704 -0.257747 11.4051 43.8975 -2.68222 -16.5517 2.6687 -5.84842 0.084565 -0.126606 -0.242814 43.7775 -28.0977 6.56155 16.5005 -6.89707 8.0282 0.135668 -0.12077 -0.197437 
26.982 1 266 28.5297 6.87117 4.52061 0.287787 -0.358541 0.0616271 -0.481652 -0.242861 -0.0155118 0 0 0 0 0 0 -0.0141382 -0.0119799 -0.0825523 31.8169 8.5468 -4.82872 -5.07265 -2.95544 -3.8899 -0.502021 -0.247368 -0.0236761 23.3157 3.40821 12.6416 5.85258 2.25347 4.12124 -0.461053 -0.238477 -0.00718031 
26.982 1 72 30.5945 6.93842 2.51411 1.24754 1.17363 3.54885 -0.022434 -0.0367303 0.0401291 0 0 0 0 0 0 0.0114747 -0.0154884 -0.279485 21.0724 27.1097 19.3981 -1.49173 1.73325 2.62222 -0.0298603 -0.0382716 0.0288424 37.249 -15.0737 -15.6484 4.10308 0.661099 4.6133 -0.0147866 -0.0352476 0.0516004 
26.982 1 309 30.3547 8.96821 4.49038 4.16824 2.64433 3.96538 0.242453 -0.219178 0.984366 0 0 0 0 0 0 -0.00190753 0.00429087 -0.0622453 29.7617 9.77083 -12.5996 2.83356 2.02201 3.09766 0.232426 -0.218902 1.00329 28.1143 6.52124 20.4137 5.6245 3.29986 4.94323 0.252679 -0.21945 0.965528 
26.982 1 306 28.1557 11.0366 4.61032 4.01756 7.00695 -0.669537 0.0610183 -0.915481 0.382271 0 0 0 0 0 0 -0.0238759 -0.010831 -0.0808014 12.4595 26.0417 3.8689 -14.6885 12.1769 -4.79931 0.0314795 -0.933062 0.376014 42.0097 -5.07764 4.20481 23.0132 1.89162 3.58449 0.0909189 -0.897894 0.388665 
26.982 1 111 32.5267 9.10316 2.72637 1.81483 -0.256007 5.35302 0.299701 -0.252143 -0.896385 0 0 0 0 0 0 0.017769 0.00821197 -0.29349 38.318 7.91365 -25.1935 3.40409 -0.97728 1.63547 0.303409 -0.258519 -0.936504 23.0123 8.80506 29.1567 0.259117 0.528866 9.15241 0.296111 -0.245754 -0.856173 
26.982 1 270 32.766 7.12591 4.5181 -0.797548 2.53256 2.68376 -0.468062 -0.320082 -0.195645 0 0 0 0 0 0 -0.000945694 -0.0180291 -0.09247 42.9269 55.9833 16.6504 0.615009 6.43702 3.04581 -0.473614 -0.333093 -0.196012 18.864 -43.4328 -8.78296 -2.1931 -1.30994 2.40047 -0.462455 -0.30707 -0.195266 