ITEM: TIMESTEP
18700
ITEM: NUMBER OF ATOMS
4000
ITEM: BOX BOUNDS pp pp pp
-3.87482 44.3748
1.51963 38.9804
1.05077 39.4492
ITEM: ATOMS mass type id x y z vx vy vz fx fy fz xrad yrad zrad vxrad vyrad vzrad fxrad fyrad fzrad xub yub zub vxub vyub vzub fxub fyub fzub xlb ylb zlb vxlb vylb vzlb fxlb fylb fzlb 
26.982 1 43 -2.68854 5.94725 2.93984 -3.441 -1.29302 -3.59492 -0.0517611 -0.079838 0.309589 0 0 0 0 0 0 -0.20108 0.00146184 -0.111885 -16.1369 22.1495 35.44 -2.77358 7.48649 -0.0932307 -0.0405782 -0.0756721 0.321948 17.558 -12.4768 -31.4228 -4.20106 -10.0445 -7.14256 -0.0629847 -0.0840318 0.297198 
26.982 1 202 -2.89833 4.03346 5.12855 1.36153 1.04732 3.75461 -0.5106 0.890485 -0.294715 0 0 0 0 0 0 -0.106734 -0.0906323 -0.0736584 8.86476 -11.9668 33.8604 1.94684 1.80939 20.7808 -0.513752 0.90889 -0.29035 -7.94374 17.6491 -25.1742 0.638376 0.398291 -13.4031 -0.507552 0.872084 -0.299209 
26.982 1 245 -0.624779 5.77762 5.28382 -0.0295327 -3.29715 3.35104 -0.736684 0.0179219 -0.427516 0 0 0 0 0 0 -0.0532659 0.011534 -0.0568496 -19.5069 26.8039 22.668 -4.38292 5.27121 8.97717 -0.747878 0.0346075 -0.448884 24.3813 -17.1513 -13.7707 4.23756 -11.7255 -2.39803 -0.72547 0.00126376 -0.406283 
26.982 1 8 -0.532142 3.9799 3.13614 -0.725452 -1.66535 0.948174 0.213568 0.632502 -0.334032 0 0 0 0 0 0 -0.0129206 -0.0543309 -0.114186 -2.24071 26.8457 19.7968 3.07478 2.1326 4.54875 0.222728 0.649529 -0.339646 7.22505 -21.3493 -15.4416 -4.64205 -5.36124 -2.78741 0.204337 0.615505 -0.328521 
26.982 1 45 -0.339305 6.16112 1.29934 -4.62595 0.107662 -2.67198 -0.051553 -0.203732 0.414653 0 0 0 0 0 0 0.0193241 0.0575578 -0.247786 -8.55071 12.2965 57.7128 -6.01998 3.56024 -0.565515 -0.0448212 -0.205305 0.427726 14.1681 -1.93518 24.2149 -3.2136 -3.27476 -4.83699 -0.0583063 -0.202171 0.401565 
26.982 1 205 -1.14156 2.34826 5.03414 1.82351 5.4689 2.82059 0.865126 -0.477776 0.548822 0 0 0 0 0 0 -0.0531366 -0.185026 -0.0668525 23.7995 19.0874 43 20.8571 -7.97898 29.1124 0.890642 -0.494719 0.577868 -20.1941 64.1084 -34.532 -17.3618 18.9799 -23.5978 0.839535 -0.460795 0.519657 
26.982 1 102 22.0358 11.8733 1.05767 -0.788038 -5.53714 -6.47709 0.338673 -0.187951 0.256303 0 0 0 0 0 0 0.0622682 -0.0450561 -0.255497 33.8685 28.4573 59.5227 12.0997 -9.34056 -0.546415 0.382893 -0.217622 0.280497 9.59626 -5.9744 22.0286 -13.6343 -1.65809 -12.4026 0.294399 -0.158197 0.232113 
26.982 1 998 42.3975 17.6201 17.096 -2.38389 -2.85708 1.04381 -0.0241403 0.0551184 0.117041 0 0 0 0 0 0 0.0319335 -0.0156837 -0.0309691 37.3551 38.7007 36.3911 -1.36654 -8.69063 4.82183 -0.014329 0.0493746 0.113961 40.5767 -3.59458 -2.212 -3.47758 3.02146 -2.66322 -0.0341226 0.0608027 0.120076 
26.982 1 206 1.41343 3.90523 5.35855 1.03504 3.41178 4.04266 -0.438499 -0.740695 -0.456228 0 0 0 0 0 0 -0.0125772 -0.0638896 -0.0361341 26.2788 -38.663 71.0331 11.2959 -13.3559 25.5613 -0.45062 -0.767959 -0.456219 -18.1752 44.4296 -61.8603 -9.32365 20.395 -17.5834 -0.426381 -0.713325 -0.456272 
26.982 1 12 3.58041 4.48178 3.88522 3.60225 3.12825 4.80527 0.37889 -0.71756 -0.692908 0 0 0 0 0 0 0.0175367 -0.0239882 -0.143261 15.1224 -23.6342 -1.22445 9.66342 -11.8075 10.1587 0.38399 -0.727685 -0.715994 -3.53633 30.7326 7.18461 -2.53998 18.3175 -0.642312 0.373699 -0.707307 -0.669774 
26.982 1 9 4.08249 2.31093 1.57118 0.825761 -1.15304 -2.70565 -0.0868155 -0.204919 -0.136355 0 0 0 0 0 0 0.0241643 -0.120175 -0.212144 17.0521 -2.7823 30.9687 11.8704 -13.5625 9.70872 -0.0569662 -0.218915 -0.146271 -4.51903 4.82848 -29.7478 -10.359 11.3996 -15.2497 -0.116807 -0.190974 -0.126463 
26.982 1 6 1.92329 4.2838 1.3054 4.02194 0.234613 2.49756 -0.354898 -0.386726 0.677867 0 0 0 0 0 0 0.0616643 0.0195537 -0.251441 -3.05146 -29.7496 33.8476 7.43436 -5.88345 9.18267 -0.347173 -0.392806 0.689819 12.0705 36.0964 -33.2057 0.506885 6.49786 -4.30408 -0.362755 -0.380631 0.665895 
26.982 1 7 1.83461 2.07513 3.27401 0.239656 -2.08509 -1.15793 -0.363153 0.0694747 0.0949703 0 0 0 0 0 0 0.0071246 -0.188939 -0.143564 29.3115 6.52877 37.2729 15.9174 -18.1886 15.7525 -0.354261 0.0583652 0.0898317 -20.5854 76.271 -32.617 -15.5994 14.1017 -18.2494 -0.372127 0.0806159 0.0999962 
26.982 1 170 7.16631 18.7364 1.53995 -4.65435 1.41338 -0.13903 -0.236585 0.339813 -0.00568774 0 0 0 0 0 0 0.0321097 0.043199 -0.27148 4.44094 39.7383 2.79153 -7.16453 3.10887 2.05328 -0.233045 0.337153 -0.0092908 13.7999 -2.29864 -1.65549 -2.10231 -0.32674 -2.33185 -0.240101 0.342444 -0.00202415 
26.982 1 209 5.55319 2.58188 3.77365 -3.86997 -2.16743 0.299642 0.52304 -0.168619 0.112056 0 0 0 0 0 0 0.0153381 -0.142481 -0.131219 -9.424 -6.47379 8.65602 -11.4754 -8.10408 5.26815 0.539008 -0.183573 0.103936 24.9644 9.23185 -2.6173 3.68591 3.93364 -4.69718 0.506911 -0.153671 0.120271 
26.982 1 51 6.59543 5.28098 2.89479 -2.03161 -0.971205 -3.4067 0.300179 0.181842 -0.0243299 0 0 0 0 0 0 0.00212826 0.000622853 -0.201877 6.38877 -11.1114 -31.7049 10.3024 -12.5957 -8.87861 0.345242 0.178466 -0.0509485 10.3296 20.0462 35.9181 -14.5037 10.8826 2.09262 0.255035 0.1854 0.00234661 
26.982 1 210 6.04915 4.6434 5.57975 -0.489165 -0.0979094 3.63175 0.0330403 0.16791 0.0686005 0 0 0 0 0 0 0.0108423 -0.0555869 -0.0288984 -18.2901 -19.4915 21.5883 -5.67208 -14.5167 9.1396 0.0523704 0.169168 0.0585351 34.1105 26.6676 -11.9136 4.63696 14.5224 -1.88638 0.0135464 0.166832 0.0786894 
26.982 1 11 8.38023 2.65597 3.51822 -5.57334 1.48573 -3.0244 -0.549014 -0.318958 -0.299425 0 0 0 0 0 0 0.00303184 -0.163194 -0.118513 -12.9151 70.1084 -40.8511 -10.393 -0.149319 -8.94739 -0.549963 -0.33035 -0.322589 33.4152 14.1514 46.2006 -0.815815 3.31124 2.92199 -0.548195 -0.307506 -0.276173 
26.982 1 253 8.88451 5.05171 4.71921 -0.945664 -2.01738 -2.03917 -0.235642 0.107746 -0.320879 0 0 0 0 0 0 -0.0108338 -0.0093359 -0.0782307 -3.20798 -7.22659 58.1656 -4.74519 -9.7179 1.97767 -0.2451 0.119237 -0.355308 24.1173 15.7294 -50.1307 2.82095 5.90686 -5.99967 -0.226256 0.0964285 -0.286383 
26.982 1 1816 9.82094 5.05896 0.748912 2.73706 -5.44536 -1.21316 -0.0523635 -0.830967 0.941623 0 0 0 0 0 0 0.0113272 0.00840127 -0.240902 -8.84592 -0.310066 22.1206 11.7176 -6.05919 -12.4409 -0.060473 -0.844916 0.975312 31.8644 8.18421 58.783 -6.17776 -4.64809 10.1295 -0.0442481 -0.816923 0.907987 
26.982 1 10 7.10848 3.31475 1.12436 4.25345 0.0523611 -3.23476 -0.454517 -0.0996188 -0.168244 0 0 0 0 0 0 -0.0332545 -0.0427939 -0.221059 32.2881 -2.13787 1.77735 12.7933 -4.641 -2.17101 -0.449896 -0.0960162 -0.185466 -14.4258 6.3709 -1.2361 -4.44508 4.85002 -4.27758 -0.459302 -0.103205 -0.151023 
26.982 1 16 10.9151 3.54456 3.09027 -2.29269 6.70019 -2.14076 -0.391031 0.0757996 -0.541867 0 0 0 0 0 0 0.0187657 -0.111218 -0.167135 -19.8851 34.2651 -18.7348 -11.1231 9.277 -12.8454 -0.407316 0.0734395 -0.567978 45.0242 -29.456 23.2654 6.61595 4.29735 8.64922 -0.374769 0.078283 -0.515591 
26.982 1 213 10.2698 2.5748 5.44256 -2.24499 -3.36166 -2.98645 0.324884 -0.18544 0.146808 0 0 0 0 0 0 0.0334743 -0.233994 -0.0425191 0.606031 -10.4457 11.5129 -5.88381 -16.0181 -5.26093 0.329835 -0.223582 0.133516 23.1726 12.9975 -2.10608 1.4405 9.42882 -0.670354 0.319963 -0.147196 0.160157 
26.982 1 15 12.963 2.04183 3.84618 0.417777 0.355353 1.45725 0.139594 -0.086394 0.0317358 0 0 0 0 0 0 -0.00478616 -0.221414 -0.160259 -33.1546 30.9069 33.8083 -17.4313 -13.839 10.9097 0.135983 -0.107525 0.0203177 61.786 51.7047 -27.5355 18.4382 14.6693 -7.87974 0.143293 -0.0651797 0.043332 
26.982 1 214 13.1354 4.11181 5.58292 2.15695 0.591851 4.16754 0.452039 -0.119324 -0.750551 0 0 0 0 0 0 0.00683682 -0.047647 -0.0576444 1.74086 -3.53515 30.7045 -7.14128 -9.67715 12.9787 0.456727 -0.131149 -0.768334 27.1889 9.50207 -21.0521 11.5698 10.9792 -4.60709 0.447377 -0.10745 -0.732608 
26.982 1 14 13.3185 4.74291 2.66914 -1.41902 -1.08856 2.42153 0.15411 -0.0833889 0.0841261 0 0 0 0 0 0 -0.00273561 -0.0529036 -0.223612 -38.7847 30.1664 34.0465 -25.1022 -8.02451 -4.33397 0.154336 -0.0953238 0.0640957 68.1861 -22.877 50.9284 22.4065 6.01886 9.25356 0.153867 -0.0713489 0.104243 
26.982 1 20 15.3852 5.27458 4.58864 8.16148 -2.29844 8.60465 -0.367358 -0.275844 -0.19373 0 0 0 0 0 0 0.0126015 -0.0118054 -0.0679484 27.3553 -23.1268 17.0307 15.2431 -4.9306 11.1333 -0.348926 -0.259019 -0.206937 5.19866 31.3439 -9.40164 1.16144 0.377053 6.09275 -0.385814 -0.292631 -0.180438 
26.982 1 57 16.5372 5.5056 1.91819 6.20946 1.30745 -6.69042 -0.70296 -0.325003 0.549842 0 0 0 0 0 0 -0.0290425 -0.0272367 -0.256171 27.0804 45.0127 -13.1251 13.2672 2.50574 -7.5697 -0.708129 -0.330778 0.550557 7.69045 -35.9752 15.2913 -0.794605 0.210316 -5.83426 -0.697773 -0.319097 0.549038 
26.982 1 17 15.1718 2.81554 2.27089 -1.85375 0.113806 2.10653 -0.00233318 0.193481 -0.0242136 0 0 0 0 0 0 0.00230706 -0.154342 -0.211746 19.6339 51.1756 17.6672 -3.80729 -2.71076 -7.01622 0.0131477 0.192018 -0.0297696 12.5759 33.2676 66.4001 0.288125 3.0635 11.2425 -0.0176949 0.194971 -0.0185343 
26.982 1 19 17.88 2.78744 2.91434 2.50384 -8.0208 2.54599 -0.343798 -1.04395 -0.624605 0 0 0 0 0 0 -0.0146699 -0.190751 -0.14076 29.5464 13.3969 11.7578 0.577875 3.34151 -0.527803 -0.357626 -1.04152 -0.641465 7.16558 -10.6094 -7.51102 4.57909 -19.4149 5.64042 -0.329839 -1.04652 -0.607735 
26.982 1 217 15.4655 2.30665 5.07548 1.88776 -3.80292 -2.68991 0.180865 0.234537 -0.474731 0 0 0 0 0 0 0.0193122 -0.165264 -0.126851 6.50192 43.9345 41.7832 -7.4477 -5.29084 13.5556 0.181248 0.226718 -0.493986 26.3404 39.211 -33.1477 11.4278 -2.28767 -18.8817 0.180583 0.242313 -0.455222 
26.982 1 218 17.8767 4.58069 4.65441 1.9089 0.0262445 2.15883 -0.0545736 0.738104 0.362631 0 0 0 0 0 0 0.0130461 -0.0397363 -0.0436761 -9.92456 4.09815 3.43467 0.216626 4.40495 2.56895 -0.0397759 0.747946 0.37019 46.5061 2.6866 4.41256 3.64837 -4.35541 1.77548 -0.0693174 0.72822 0.355248 
26.982 1 24 21.907 4.98903 4.20971 -5.87175 -0.960086 3.32527 0.0745726 -0.554904 -0.308428 0 0 0 0 0 0 0.0126114 -0.0444265 -0.0628314 -9.81126 36.5247 23.4965 -20.0638 7.84379 7.27781 0.0696562 -0.55878 -0.298645 53.5493 -28.8826 -16.7085 8.37234 -9.81387 -0.641475 0.079605 -0.551129 -0.318241 
26.982 1 221 19.9741 2.68397 4.76543 2.94252 -8.18408 1.63068 0.252341 0.255588 0.066315 0 0 0 0 0 0 0.0207417 -0.156366 -0.0856681 -8.39975 62.69 -9.16684 -2.26104 10.6724 5.0465 0.266442 0.277069 0.0767512 48.3478 21.1424 17.1266 8.17682 -27.128 -1.80429 0.238318 0.233869 0.0559682 
26.982 1 23 22.0635 2.58438 2.91489 -1.01343 0.559994 -0.718273 0.171661 0.159872 -0.361764 0 0 0 0 0 0 0.0284394 -0.196318 -0.119589 8.58658 92.3968 36.7986 -6.81173 21.4143 15.8991 0.153892 0.192105 -0.345405 34.8196 -8.8716 -32.6485 4.81706 -20.4 -17.4252 0.189545 0.127441 -0.378232 
26.982 1 18 19.4265 5.01233 2.11154 1.26991 1.29166 0.526152 0.221956 -0.0777699 -0.0233234 0 0 0 0 0 0 -0.00713302 -0.0369778 -0.197803 34.212 12.5405 9.21369 2.19433 1.67843 6.82997 0.228875 -0.0783243 -0.0154562 5.47615 -4.85782 -6.66252 0.45331 0.895789 -5.80618 0.215171 -0.0772177 -0.031299 
26.982 1 130 7.10513 14.635 1.43263 4.93324 1.97082 3.12663 0.214284 0.453317 0.613618 0 0 0 0 0 0 0.0369789 -0.0156292 -0.267309 1.38919 39.7578 44.4598 -0.143469 5.13461 18.1156 0.203819 0.454931 0.631302 16.6477 -10.7262 -43.4933 10.0758 -1.09341 -11.8803 0.224779 0.451618 0.595899 
26.982 1 63 24.1949 4.66403 2.65069 -1.10747 -2.01541 3.69697 0.212468 0.145234 0.12027 0 0 0 0 0 0 0.0366968 -0.0414436 -0.207794 21.2752 50.2888 23.584 -6.57049 13.7415 11.6049 0.192663 0.160024 0.13522 26.4248 -43.2972 -19.9521 4.45753 -17.8778 -4.25492 0.232406 0.130271 0.105237 
26.982 1 222 24.2147 2.6369 4.57078 -0.165282 -3.6691 -0.65168 0.282202 0.339788 0.636593 0 0 0 0 0 0 0.0120731 -0.174322 -0.105913 28.5546 24.5269 24.455 1.413 1.12928 12.9294 0.273977 0.368986 0.66634 19.028 -21.7647 -16.8624 -1.69886 -8.52886 -14.2862 0.290593 0.310427 0.606766 
26.982 1 28 26.3137 2.77425 2.70669 1.91098 -7.92944 -2.1185 0.395279 0.0181503 0.252908 0 0 0 0 0 0 0.0156463 -0.177472 -0.198827 29.1205 12.635 38.0105 -1.43113 -4.43517 6.65859 0.393304 0.02808 0.267101 22.0796 -9.45932 -34.6163 5.32728 -11.4217 -10.974 0.397335 0.00802534 0.238644 
26.982 1 265 26.5229 5.09056 4.39807 3.40823 -5.48618 -3.18884 -0.620054 -0.760476 -0.249295 0 0 0 0 0 0 -0.00765887 -0.0721426 -0.102555 21.3172 -31.0461 9.5805 -5.12376 -9.66963 -0.582494 -0.627585 -0.780993 -0.242228 30.491 39.147 -2.31505 12.1482 -1.28187 -5.7711 -0.612309 -0.740063 -0.256325 
26.982 1 67 28.6465 4.96154 2.32051 7.33339 2.03363 -1.47714 -0.120592 0.502738 0.416926 0 0 0 0 0 0 -0.0123544 -0.0698737 -0.266027 22.3378 -15.277 7.905 3.09513 -1.33435 -4.7725 -0.125035 0.514183 0.4183 32.9084 23.0995 -4.8716 11.712 5.41428 1.91871 -0.116044 0.491151 0.415672 
26.982 1 226 28.6694 2.82902 4.45863 1.65389 0.815264 3.56369 -0.215548 0.559672 0.188212 0 0 0 0 0 0 -0.00675011 -0.1786 -0.139658 17.8453 -18.0414 24.5723 -6.09825 -3.21493 6.5485 -0.224451 0.579893 0.213011 37.5167 21.6295 -17.2611 9.56252 4.95617 0.587123 -0.20654 0.539372 0.163437 
26.982 1 32 30.845 3.04738 2.697 -4.55399 -0.75787 2.84168 -0.144697 0.322457 -0.363057 0 0 0 0 0 0 0.0167364 -0.184161 -0.208094 6.42742 15.0141 27.1388 -8.06982 0.148188 1.10124 -0.150091 0.329898 -0.361177 52.4108 -11.1164 -23.4066 -0.949347 -1.58887 4.64483 -0.139174 0.31492 -0.364878 
26.982 1 269 30.7012 5.04071 4.52032 -8.47248 -0.744728 -0.702066 -0.00305983 -0.259527 0.244313 0 0 0 0 0 0 0.0014566 -0.0875666 -0.0929829 24.1136 9.21242 28.4291 -10.4531 -4.53719 -2.35065 -0.00627285 -0.287451 0.256774 34.5318 -1.18448 -20.6761 -6.38466 3.114 1.03345 0.000308574 -0.231621 0.231963 
26.982 1 71 32.9898 5.12289 2.66599 -1.02221 0.730072 -1.15978 -0.181639 -0.369553 0.313188 0 0 0 0 0 0 0.0161015 -0.0713023 -0.264 32.5227 18.8812 1.36428 -0.517084 -0.0437514 -2.71214 -0.181465 -0.366671 0.311383 29.6466 -10.662 2.6046 -1.49075 1.5818 0.506645 -0.18168 -0.372492 0.315095 
26.982 1 230 32.9753 3.09942 4.7529 6.64183 1.93959 0.799457 -0.255636 0.125026 0.0179448 0 0 0 0 0 0 0.00729741 -0.176818 -0.156471 12.3682 -13.1528 -18.5796 5.65229 -0.601634 -5.38009 -0.258115 0.130272 0.00975334 49.8761 17.2295 26.8714 7.66645 4.57547 7.05382 -0.253081 0.1198 0.0261186 
26.982 1 273 34.9419 5.15586 4.734 -3.17222 1.88431 -3.00912 -0.160024 0.254618 0.043898 0 0 0 0 0 0 0.00635776 -0.0555186 -0.0966374 51.8116 21.0249 -19.3089 -0.0985858 2.74644 -7.1389 -0.159849 0.257163 0.0462039 13.2681 -12.8314 27.4333 -6.30438 1.09078 1.18165 -0.160233 0.252075 0.0416061 
26.982 1 36 35.0573 3.09309 2.88599 -5.71021 -5.04744 4.09376 -0.0616109 0.0908037 -0.312787 0 0 0 0 0 0 0.0105271 -0.189479 -0.220666 51.4023 -8.60101 -22.993 -1.33713 -6.33756 0.127669 -0.0606638 0.102052 -0.320553 13.9565 12.5174 27.3465 -10.1249 -3.67181 8.1274 -0.0626214 0.079596 -0.30499 
26.982 1 75 36.9902 5.10157 2.86567 -2.14211 2.80345 -7.76905 -0.0370057 0.72959 -0.242715 0 0 0 0 0 0 0.00307067 -0.0476213 -0.271416 50.5698 30.5746 8.08463 2.52904 6.05385 -8.47612 -0.0352909 0.756102 -0.26173 17.7401 -22.6022 -3.74716 -6.90465 -0.381336 -7.00753 -0.0388666 0.703077 -0.223651 
26.982 1 234 37.2243 3.34694 4.93186 -5.3027 2.23253 4.66889 -0.482578 -0.506191 -0.0767398 0 0 0 0 0 0 0.0151038 -0.174855 -0.143044 73.6689 -2.40037 -7.43858 4.12934 3.02216 1.49363 -0.472375 -0.521363 -0.0893162 -4.97547 6.80471 16.0282 -14.8886 1.54835 7.86689 -0.492924 -0.490955 -0.0641965 
26.982 1 40 39.1128 3.43802 2.77999 -0.254247 -5.63466 -0.160166 0.672117 -0.211366 0.0939489 0 0 0 0 0 0 -0.0297796 -0.13883 -0.204945 70.2522 28.0011 2.73033 9.24731 -1.48111 4.94138 0.69166 -0.216033 0.103762 1.59581 -23.5363 1.20478 -9.8573 -9.70088 -5.30584 0.652469 -0.206647 0.0841953 
26.982 1 277 38.9577 5.40056 4.95007 3.14612 -4.43833 0.411207 0.447861 0.193681 0.214574 0 0 0 0 0 0 0.00319159 -0.0335419 -0.0861603 56.3849 24.0903 -10.3481 12.6418 -8.12045 -2.32622 0.46 0.198521 0.211197 15.0952 -15.222 19.0431 -6.47961 -0.621266 3.17869 0.435581 0.188845 0.217924 
26.982 1 241 43.0577 5.77366 4.92381 -1.89467 2.53176 -2.42761 0.745903 -0.0239314 -0.00320987 0 0 0 0 0 0 0.0589341 -0.061349 -0.0564509 16.9739 11.9608 -12.6189 4.57965 1.42617 -0.0480245 0.753185 -0.0241468 -0.00094737 -20.0863 -2.33904 20.9193 -8.52098 3.73794 -4.87983 0.738533 -0.0237519 -0.00555493 
26.982 1 4 43.4858 3.90257 2.84132 0.0814257 1.93058 2.56331 -0.0801572 -0.363017 0.337331 0 0 0 0 0 0 -0.0626172 -0.0717298 -0.143927 27.7769 19.5581 34.6558 0.00474864 9.77315 14.3534 -0.0851513 -0.372419 0.342177 51.4157 -14.2069 -30.7312 0.0543931 -5.83981 -9.32036 -0.0751785 -0.353663 0.332464 
26.982 1 79 41.1764 5.47343 2.93589 3.18728 -3.48013 -1.86395 -0.0335694 0.424958 0.0976078 0 0 0 0 0 0 -0.0400491 -0.0274679 -0.218934 40.2562 42.9914 -22.4113 6.84987 0.4982 -2.64915 -0.034658 0.43611 0.0903641 34.9828 -34.1943 26.6982 -0.591256 -7.39268 -1.09679 -0.0325209 0.413807 0.104846 
26.982 1 238 41.2892 3.62552 5.11288 1.3965 -3.04669 5.85925 -0.296296 -0.447307 -0.639293 0 0 0 0 0 0 -0.0644386 -0.108558 -0.0945773 60.756 -10.3214 -3.81558 5.8516 -7.63142 8.64416 -0.313009 -0.459304 -0.665745 14.6556 15.3274 12.531 -3.18681 1.6691 2.97621 -0.279667 -0.435314 -0.61293 
26.982 1 83 -3.02316 10.0406 3.37602 -8.98666 0.209477 -3.08378 0.148072 0.176555 -0.0207398 0 0 0 0 0 0 -0.197144 0.000517449 -0.151177 -8.34866 39.8402 17.9415 -10.6405 5.61787 1.07918 0.15274 0.188777 -0.0112293 9.13183 -21.4183 -12.7877 -7.38344 -5.23516 -7.25523 0.143406 0.164323 -0.0303356 
26.982 1 242 -2.88808 7.79953 5.22398 1.41777 -0.516636 -2.80228 -0.2305 -0.235189 -0.312876 0 0 0 0 0 0 -0.164665 -0.00605761 -0.0938649 -3.18887 30.8158 33.9004 3.81339 5.47697 2.78414 -0.236042 -0.226901 -0.309042 4.02338 -17.1312 -24.7435 -1.12484 -6.5241 -8.42579 -0.225031 -0.243494 -0.316832 
26.982 1 48 -0.782169 8.29078 3.50493 -2.71476 1.18752 -1.71265 0.233512 -0.661247 -0.15505 0 0 0 0 0 0 -0.0280307 0.00778741 -0.142996 -43.5171 58.6447 -16.5393 -7.5077 9.74695 0.0707577 0.237637 -0.668217 -0.154185 48.3811 -43.8604 21.4679 2.12911 -7.32708 -3.64127 0.229424 -0.654252 -0.156021 
26.982 1 88 -0.279819 10.9618 2.72309 -4.03183 -4.38906 -3.24435 -0.195746 -0.205664 0.494848 0 0 0 0 0 0 -0.0560787 -0.0397107 -0.205809 -40.6946 34.5308 42.9754 -11.4705 -0.363146 9.89241 -0.211843 -0.215979 0.525042 46.7655 -13.9453 -39.3562 3.548 -8.41557 -16.4559 -0.179535 -0.195306 0.464575 
26.982 1 285 -0.947766 10.1267 5.48534 -0.637236 5.57258 3.79024 0.196223 0.673076 0.0339227 0 0 0 0 0 0 -0.0696368 0.0144631 -0.0350838 -32.7478 49.4873 43.6195 -5.59191 13.9997 20.0471 0.196415 0.692608 0.0308503 37.2552 -30.9184 -34.3366 4.36292 -2.86345 -12.5939 0.196106 0.653579 0.0368122 
26.982 1 42 -2.69402 8.09745 1.23144 -3.2742 6.53608 4.92355 0.126415 -0.106157 -0.0931635 0 0 0 0 0 0 -0.108731 0.0317917 -0.203847 -3.55727 39.8947 9.13674 -4.64776 13.5674 4.77081 0.142904 -0.112789 -0.0938885 5.16809 -25.6333 -8.65804 -1.90738 -0.516824 5.07733 0.109946 -0.0995561 -0.0924281 
26.982 1 47 1.52197 6.30409 3.6842 -4.32191 -0.705987 1.07298 0.0086689 0.131193 -0.23137 0 0 0 0 0 0 0.0165981 0.033321 -0.144118 -20.8954 26.022 -8.46242 -8.56065 0.708217 1.73445 0.000306831 0.142543 -0.246357 29.3722 -14.9773 13.8065 -0.0921734 -1.91866 0.264685 0.0170589 0.119934 -0.216422 
26.982 1 249 3.90492 6.29658 5.7309 -2.4439 -3.10592 0.919803 -0.478208 1.01024 0.248995 0 0 0 0 0 0 -0.0118484 0.00276954 -0.0232014 -12.4617 -32.5176 30.3191 -9.38674 -13.7189 7.69409 -0.485373 1.02325 0.250181 24.7885 43.4513 -20.397 4.46655 7.73245 -5.93675 -0.471084 0.99736 0.247819 
26.982 1 87 1.92332 9.06828 2.95286 -2.37555 -3.56478 2.91463 0.23542 -0.475128 -0.0781209 0 0 0 0 0 0 -0.0184106 -0.0452057 -0.212982 -28.8992 20.9711 41.3683 -10.6767 -2.13513 15.2265 0.219921 -0.498339 -0.0734229 38.5016 -4.24989 -37.2959 6.02486 -4.91135 -9.46976 0.250995 -0.451825 -0.0828534 
26.982 1 289 4.25768 9.26718 4.70491 -6.24737 -6.85654 -0.255342 -0.0569535 -0.200459 0.429714 0 0 0 0 0 0 -0.0144431 -0.021239 -0.0529294 6.86657 17.1099 69.5824 -12.1252 -5.91726 12.4147 -0.0595364 -0.211624 0.434327 6.39338 -0.00830959 -62.0153 -0.328926 -7.69347 -13.0389 -0.054389 -0.189244 0.425055 
26.982 1 52 4.33106 7.05568 2.99723 -3.1482 3.37377 -0.0721629 -0.395799 0.146091 -0.553503 0 0 0 0 0 0 -0.0323476 -0.0174355 -0.233677 9.00447 -14.776 34.2373 -5.48097 -5.23713 8.37241 -0.403338 0.140228 -0.568841 4.04556 27.4533 -29.7832 -0.915565 12.1968 -8.51019 -0.388391 0.152162 -0.538098 
26.982 1 89 4.73554 9.92596 2.09531 7.05689 -2.58142 4.25955 0.142199 -0.298773 0.102944 0 0 0 0 0 0 -0.0443763 -0.0635358 -0.257535 16.7602 12.1195 -22.7559 7.33713 -4.97194 5.41123 0.14094 -0.314151 0.097042 -2.79024 6.45647 25.1278 6.74375 -0.0969144 3.09688 0.14336 -0.283348 0.108889 
26.982 1 246 1.78335 8.51052 5.70153 2.88728 3.35715 7.2517 -0.274254 -0.359363 -0.0336886 0 0 0 0 0 0 -0.0208144 -0.0176431 -0.0379059 -2.74528 20.1422 49.0473 -4.76193 8.74983 17.5519 -0.29446 -0.376032 -0.0444348 12.0451 -4.85852 -39.4166 10.6315 -1.9649 -3.1909 -0.253918 -0.342717 -0.0230581 
26.982 1 91 6.83006 10.2455 3.89891 1.691 1.53129 2.94996 -0.100744 -0.283512 0.0777179 0 0 0 0 0 0 0.00974678 -0.0066345 -0.0683116 19.5439 -2.80868 26.7989 4.53316 1.17077 9.58913 -0.0899545 -0.287604 0.0880409 -2.25145 22.0681 -20.6054 -1.2264 2.02727 -3.69044 -0.111719 -0.279362 0.0673807 
26.982 1 250 6.29297 7.32688 4.6716 3.87937 -2.83505 2.60068 0.676739 0.171295 0.429802 0 0 0 0 0 0 0.00230764 -0.0152951 -0.0611276 13.4905 -7.78555 49.834 6.76033 -15.6202 8.62389 0.692805 0.161456 0.423417 2.67796 21.237 -42.3936 0.886148 10.1955 -3.46572 0.66045 0.181293 0.43624 
26.982 1 50 7.04528 8.37193 2.02924 2.73364 5.02145 7.11114 -0.199319 -0.644257 -0.0933438 0 0 0 0 0 0 -0.0203749 -0.0596213 -0.24838 57.7759 -10.4868 -5.64481 24.0223 -13.0939 2.76102 -0.183384 -0.669491 -0.0967088 -40.1408 25.8271 8.25948 -18.6988 23.3566 11.584 -0.21545 -0.618778 -0.089958 
26.982 1 293 9.04282 10.2617 5.50842 3.18274 1.84003 4.36429 -0.251141 -0.370541 0.47631 0 0 0 0 0 0 0.0121481 -0.0084159 -0.00398973 14.4548 27.3491 68.527 6.30091 1.90051 10.7373 -0.244655 -0.385388 0.489129 6.66735 -8.20655 -59.1438 0.0302451 1.93108 -2.03835 -0.257748 -0.355619 0.46348 
26.982 1 56 8.86912 7.89265 3.85984 0.194544 4.00377 -2.53316 0.423308 0.195156 -0.0417406 0 0 0 0 0 0 0.00456294 -0.0187144 -0.102033 15.7795 -26.7298 16.916 1.69618 -16.4562 -6.79479 0.425453 0.171619 -0.0614998 5.07446 41.1508 -10.6294 -1.34753 24.6827 1.80434 0.420991 0.218802 -0.0219691 
26.982 1 90 7.46187 11.0378 1.17445 2.21926 1.4978 0.123202 -0.271616 -0.243796 0.225732 0 0 0 0 0 0 0.0363583 0.02017 -0.286065 23.848 -16.0026 45.023 5.6198 -3.25278 4.15285 -0.277827 -0.250567 0.23096 -5.28894 37.4058 37.0229 -1.25089 6.47902 -3.82076 -0.265515 -0.236975 0.220509 
26.982 1 95 12.025 8.9358 2.84438 -3.929 0.0708885 -1.61379 -0.265134 0.0975585 -0.0710873 0 0 0 0 0 0 -0.005667 0.0300298 -0.194764 7.85358 -11.4653 -10.8132 -4.67952 -12.0125 -2.20895 -0.271517 0.101775 -0.0606906 18.6435 27.9274 15.0763 -3.112 12.3582 -0.969196 -0.258764 0.0935232 -0.0814702 
26.982 1 254 11.0827 8.44538 5.53674 4.85152 2.79778 0.737219 0.123278 0.155069 -0.96621 0 0 0 0 0 0 0.000402277 0.0157433 -0.0378715 -14.2631 -19.9094 83.7852 -0.756193 -4.4547 13.0554 0.119775 0.168586 -0.982533 39 35.3048 -74.2709 10.4984 10.2089 -11.5716 0.12672 0.141635 -0.94986 
26.982 1 53 11.063 6.2628 3.13356 3.01063 0.942548 -0.212716 -0.539746 0.446466 -0.162339 0 0 0 0 0 0 -0.0208588 0.00178381 -0.16873 -34.8275 24.884 -40.7607 -12.8029 -6.65018 -9.01162 -0.580071 0.444815 -0.181473 60.23 -14.051 45.2967 18.9156 8.77656 8.66333 -0.499474 0.448261 -0.14309 
26.982 1 55 13.2211 6.85953 4.66854 6.77286 -1.84653 2.49704 0.466114 0.396758 0.198045 0 0 0 0 0 0 0.0287568 0.0207918 -0.0478169 -13.5779 16.934 40.3079 1.04484 1.90583 13.4224 0.498069 0.41622 0.200487 42.6426 -4.91341 -32.4493 12.581 -5.42537 -8.40369 0.43415 0.377338 0.195674 
26.982 1 97 16.0833 9.63933 1.96342 6.06427 2.13205 1.45293 0.251367 -0.625001 0.333562 0 0 0 0 0 0 -0.0255016 -0.0218836 -0.258237 33.0363 20.8939 20.0321 14.8724 4.8196 2.87778 0.247358 -0.658361 0.333475 0.543648 -3.05942 -17.9191 -2.8308 -0.439564 0.0278107 0.25538 -0.591479 0.333548 
26.982 1 60 16.7038 7.45213 4.01997 0.907512 4.80784 1.71791 0.306754 0.465259 -0.0908478 0 0 0 0 0 0 -0.0183626 0.00665244 -0.0664957 35.0563 18.7973 -1.18493 6.12688 3.59635 4.34293 0.299112 0.471395 -0.0875649 -0.154733 -5.75009 7.61628 -4.35437 6.112 -0.937873 0.314386 0.459273 -0.0941685 
26.982 1 297 14.6084 9.28917 4.34491 -1.72526 0.544489 -5.29812 0.151204 -0.122291 -0.0225888 0 0 0 0 0 0 0.00846559 -0.0139352 -0.0551945 38.0345 50.131 4.6343 4.71112 -1.8968 -0.166686 0.169277 -0.138923 -0.0131691 -7.20404 -32.9747 2.4861 -8.18141 3.12238 -10.4867 0.133148 -0.105506 -0.0320598 
26.982 1 54 14.0896 7.3431 2.04468 -2.92254 -0.800939 -0.396209 0.414923 -0.0933541 0.12806 0 0 0 0 0 0 -0.0111546 0.00844343 -0.270382 -11.1707 20.8744 -47.0865 -10.235 -4.75529 -7.7975 0.426805 -0.0873196 0.118182 41.9007 -7.89383 49.2136 4.46738 3.33162 6.97094 0.403031 -0.0992089 0.137866 
26.982 1 59 19.6994 6.70106 4.28052 3.53774 -2.6673 4.79513 -0.158381 -0.476459 -0.822889 0 0 0 0 0 0 -0.00900755 -0.0254164 -0.0554249 40.2944 -18.3972 18.5657 7.65848 -12.1584 5.03324 -0.170073 -0.506671 -0.826014 -0.238213 29.5066 -11.5027 -0.588555 6.77697 4.56596 -0.146714 -0.446193 -0.819751 
26.982 1 61 21.3181 7.37167 2.01932 -2.29336 -3.49347 1.9322 -0.0549213 -0.299547 -0.40662 0 0 0 0 0 0 0.0543149 0.00112726 -0.228519 39.4122 5.5 -5.77798 0.858862 2.86578 6.48572 -0.0571944 -0.308224 -0.399216 3.19669 6.74436 8.13441 -5.43398 -9.96623 -2.62678 -0.0526962 -0.290899 -0.41406 
26.982 1 58 18.414 7.68293 1.7866 -0.508108 -4.15047 1.72829 -0.149656 -0.0654349 -0.320846 0 0 0 0 0 0 -0.0201284 -0.00853978 -0.255114 12.3643 81.6646 29.8562 9.00139 -0.311055 3.50219 -0.144426 -0.0688504 -0.318535 25.0291 -68.2631 -27.714 -10.1202 -7.97707 -0.0166757 -0.154865 -0.0618629 -0.323254 
26.982 1 99 18.6969 9.56956 3.60927 2.65814 0.867284 -3.30493 -0.315221 0.0779692 0.300872 0 0 0 0 0 0 -0.0142967 0.00130368 -0.0858897 48.874 54.7725 22.3138 13.6637 8.59094 0.426224 -0.319844 0.0780459 0.294467 -10.9458 -37.2647 -16.5588 -8.4907 -6.7797 -6.99582 -0.310617 0.0780807 0.30723 
26.982 1 64 21.573 8.87494 4.29859 -0.136215 -0.878059 4.85077 0.203965 -0.0138921 -0.28498 0 0 0 0 0 0 0.0240005 -0.0113068 -0.0748793 36.0266 27.2198 -3.12373 10.3632 8.24048 -1.98928 0.218463 -0.0206872 -0.305586 7.02004 -11.4227 10.1833 -10.6438 -10.0207 11.7291 0.189385 -0.00706664 -0.264336 
26.982 1 101 20.1164 9.95216 1.28281 -5.09952 2.31887 -0.432965 -0.179999 -0.230575 -0.0419598 0 0 0 0 0 0 0.00922408 -0.0312385 -0.271934 30.8058 5.60371 24.7198 7.00659 4.28164 -10.5916 -0.159465 -0.237779 -0.0459071 9.31057 12.6475 57.2025 -17.3094 0.348623 9.74213 -0.200672 -0.22328 -0.0380463 
26.982 1 103 23.5895 9.13443 2.45421 4.57301 -4.01327 -0.898327 -0.0334227 0.129446 0.620902 0 0 0 0 0 0 0.0607875 -0.0144546 -0.237439 -13.5427 52.9153 -13.573 -4.22161 18.0781 -9.05867 -0.0255144 0.154959 0.626387 60.098 -36.3135 16.9601 13.4688 -26.1647 7.31154 -0.041318 0.103885 0.61545 
26.982 1 262 24.1595 7.01283 4.25682 0.647231 -1.00906 1.34726 -0.309689 -0.253836 0.0244339 0 0 0 0 0 0 -0.00795774 -0.00379103 -0.100319 -9.54887 24.1468 -9.48279 -15.5317 11.5524 -6.49769 -0.327453 -0.254729 0.0209886 57.3055 -12.2069 16.5389 16.9976 -13.6725 9.2065 -0.291784 -0.253025 0.0279085 
26.982 1 305 26.3769 8.75876 4.41585 -0.0621115 3.87181 3.19356 -0.147641 0.247254 -0.617111 0 0 0 0 0 0 -0.0293544 0.0152349 -0.125554 -11.7127 74.4839 -34.4401 -27.1306 18.7425 -7.73546 -0.174585 0.264301 -0.652661 63.4166 -58.626 42.0435 27.2929 -11.079 14.2818 -0.12047 0.230051 -0.58145 
26.982 1 68 26.1739 7.02461 2.27025 -2.56601 4.81184 -4.62654 0.182114 0.02082 0.135385 0 0 0 0 0 0 -0.0186398 0.00844767 -0.275792 14.7452 29.9902 -5.4359 -12.509 14.7151 -10.5643 0.178003 0.0359929 0.137494 36.3745 -17.9755 8.44169 7.59915 -5.1989 1.42141 0.186336 0.00548408 0.133387 
26.982 1 107 28.565 8.58688 2.3887 1.7349 4.09967 -2.67177 -0.245818 -0.196109 0.481251 0 0 0 0 0 0 -0.0217524 0.0226816 -0.285719 7.04927 44.965 -4.84402 -16.7326 9.85622 -11.231 -0.281178 -0.187956 0.459526 48.1689 -29.635 8.31099 20.4784 -1.68506 6.06171 -0.210287 -0.204281 0.503156 
26.982 1 266 28.394 6.87139 4.51505 -3.14575 7.43267 3.99177 0.400783 0.149247 -0.281898 0 0 0 0 0 0 -0.0111143 -0.0141555 -0.106888 30.2185 7.92306 -5.91654 -9.0614 5.12517 -0.571684 0.39279 0.13783 -0.306258 24.6614 4.02294 13.6999 2.98973 9.7459 8.67498 0.409004 0.160617 -0.257374 
26.982 1 72 30.8261 6.89749 2.60044 2.30709 2.27968 -4.23872 -0.15339 0.112552 -0.130666 0 0 0 0 0 0 0.0170287 -0.0141265 -0.281113 20.5131 27.1798 18.9774 -1.12668 2.7136 -7.07269 -0.159346 0.113794 -0.149585 38.2588 -15.2259 -15.0723 5.87276 1.89118 -1.25428 -0.14723 0.111255 -0.111536 
26.982 1 309 30.5302 8.67385 4.6313 9.9061 -0.284902 1.234 -0.163688 0.870186 -0.727185 0 0 0 0 0 0 0.00164953 0.0298387 -0.103141 29.5046 9.27555 -12.7618 7.97543 -1.03382 -0.202004 -0.168848 0.898499 -0.759315 28.7118 6.42628 20.839 11.9746 0.501703 2.78815 -0.158348 0.841861 -0.694885 
26.982 1 306 28.3968 10.6758 4.37717 -3.49042 -4.13873 0.505972 -0.17581 0.136831 0.093633 0 0 0 0 0 0 -0.0227334 0.0238508 -0.0952099 7.66881 27.0215 2.42473 -24.8269 1.33183 -4.58075 -0.200157 0.158625 0.089752 47.3245 -6.77412 5.1685 18.1617 -9.56256 5.73463 -0.151115 0.114994 0.0976546 
26.982 1 111 32.9421 9.1501 2.58205 3.35483 1.51511 -7.19357 -0.554791 -0.451218 -0.268674 0 0 0 0 0 0 0.00226525 -0.0140583 -0.279122 39.1234 7.75785 -26.4765 4.89634 0.868352 -12.2172 -0.558228 -0.456322 -0.287169 22.9946 9.06155 30.1195 1.8564 2.22907 -2.07676 -0.55122 -0.446094 -0.25004 