ITEM: TIMESTEP
1800
ITEM: NUMBER OF ATOMS
4000
ITEM: BOX BOUNDS pp pp pp
-0.440032 40.94
0.0603115 40.4397
0.0547628 40.4452
ITEM: ATOMS mass type id x y z vx vy vz fx fy fz xrad yrad zrad vxrad vyrad vzrad fxrad fyrad fzrad xub yub zub vxub vyub vzub fxub fyub fzub xlb ylb zlb vxlb vylb vzlb fxlb fylb fzlb 
26.982 1 811 9.93323 0.0980262 18.1551 -4.74241 -2.32776 -0.865259 -0.121374 -0.0710735 0.346071 0 0 0 0 0 0 -0.0669115 -0.258506 -0.0196917 10.3081 40.8821 18.6137 -4.86994 -1.96613 -0.70534 -0.127316 -0.0747248 0.353999 9.91558 40.344 17.6784 -4.61277 -2.68845 -1.01829 -0.115421 -0.0674136 0.338142 
26.982 1 3 1.37019 0.147357 1.97158 3.78697 0.195232 0.444275 0.518207 -0.131404 0.607562 0 0 0 0 0 0 -0.0970988 -0.120923 -0.0956407 1.48772 -0.318901 1.77205 3.85042 0.215854 0.595145 0.531054 -0.125447 0.626631 1.89189 0.343698 1.94491 3.72361 0.173824 0.294644 0.505347 -0.137405 0.588453 
26.982 1 8 3.67177 2.10195 2.08064 -2.89719 0.84845 2.22111 -0.582406 0.0122061 0.269417 0 0 0 0 0 0 -0.0233893 -0.149228 -0.118776 3.72234 2.54984 2.01969 -3.28004 1.31495 2.29895 -0.604126 0.0166093 0.283148 4.19222 1.41493 1.91391 -2.51405 0.385717 2.14528 -0.560655 0.00779699 0.255633 
26.982 1 807 5.81593 0.0844434 18.1286 -2.13289 -3.06833 1.59182 -0.136142 -0.596606 0.482138 0 0 0 0 0 0 -0.0062373 -0.275337 0.0246531 6.07107 40.4749 17.9801 -2.20253 -3.26001 1.40886 -0.136938 -0.61251 0.49682 6.05995 40.7274 18.2568 -2.0623 -2.87039 1.78089 -0.135364 -0.580726 0.46749 
26.982 1 43 1.62947 4.21698 2.10876 -0.832258 -4.00394 -2.17875 0.126432 -0.342759 -0.0315956 0 0 0 0 0 0 -0.111924 -0.0709725 -0.197858 0.93314 4.04137 2.20143 -1.65154 -4.45023 -1.67095 0.132678 -0.348453 -0.0249119 2.97037 4.17714 1.78906 -0.00984839 -3.55492 -2.68337 0.120193 -0.337024 -0.0383233 
26.982 1 202 1.33419 1.98032 4.13271 0.299767 2.50146 -0.632339 0.673973 0.603184 0.0209327 0 0 0 0 0 0 -0.0800173 -0.114811 -0.138509 1.36828 1.79955 4.32179 0.010766 2.25927 -0.304787 0.691058 0.621638 0.0237797 1.94186 1.91907 3.74513 0.591008 2.74822 -0.95526 0.65689 0.584736 0.018101 
26.982 1 241 -0.511433 4.24914 4.12479 1.18912 -0.0608302 -1.32195 0.357749 -0.505237 -0.0173298 0 0 0 0 0 0 -0.108628 -0.134455 -0.167314 -0.922637 4.67757 3.96103 0.489643 -0.170122 -1.51709 0.364443 -0.519372 -0.0204625 0.613297 3.60242 4.09198 1.88976 0.0511503 -1.11896 0.351044 -0.491077 -0.0141746 
26.982 1 245 3.78119 4.09729 4.11164 -2.74495 -0.352989 4.53387 -0.512573 0.100653 -0.183747 0 0 0 0 0 0 -0.0309282 -0.0489807 -0.0537209 3.97403 3.81267 4.1715 -3.06815 -0.726349 4.98682 -0.525497 0.105054 -0.189599 4.16066 4.17064 3.85109 -2.4202 0.0275126 4.08577 -0.499634 0.0962776 -0.177889 
26.982 1 2825 24.3653 20.3381 16.3274 -1.96002 -0.492232 5.18733 0.437437 -0.738742 -0.449841 0 0 0 0 0 0 -0.036713 0.109305 -0.139068 25.196 20.7841 15.9782 -1.45972 -0.289329 4.86432 0.450185 -0.760071 -0.463506 23.391 19.8984 16.6248 -2.46106 -0.688103 5.51164 0.424698 -0.717423 -0.436242 
26.982 1 2819 18.2623 20.2209 18.2522 -0.0307416 0.927144 -1.58946 -0.303895 -0.431482 0.0399786 0 0 0 0 0 0 -0.113489 0.0977966 -0.0964368 17.4344 19.9074 19.3469 -0.558393 0.424847 -0.29399 -0.30107 -0.446366 0.047214 19.1611 20.5399 17.1308 0.497303 1.43697 -2.88401 -0.306742 -0.416582 0.0327092 
26.982 1 12 7.81256 2.14689 2.05827 3.70431 0.841534 2.33807 0.237758 -0.457318 0.130003 0 0 0 0 0 0 -0.0250218 -0.194651 -0.14631 7.50346 1.9192 1.90086 3.31792 0.817166 2.23279 0.244739 -0.470095 0.141613 8.54805 2.13352 1.98969 4.08743 0.868579 2.44672 0.230809 -0.444514 0.11836 
26.982 1 47 5.84937 4.02352 2.05849 1.58607 -4.57242 -1.28879 -0.194298 0.471811 0.0469285 0 0 0 0 0 0 -0.0160622 -0.0629106 -0.129704 5.56257 3.95382 1.54569 1.50988 -4.66444 -1.60153 -0.204534 0.487155 0.0695683 6.63459 3.88425 2.34401 1.66068 -4.47243 -0.973352 -0.18402 0.456479 0.0242307 
26.982 1 49 7.89692 4.05549 0.109886 0.019134 -0.510041 6.98876 -0.323372 -0.0465455 -0.0769626 0 0 0 0 0 0 -0.00267575 -0.0193024 -0.269734 8.26363 3.94465 0.193275 0.264001 -0.750826 7.25174 -0.329182 -0.0604619 -0.0628169 7.95526 3.95695 -0.225659 -0.229799 -0.262106 6.72946 -0.317537 -0.0326226 -0.0911113 
26.982 1 206 5.70229 2.16896 4.01529 2.90574 -0.922069 -4.05398 0.390103 -0.382197 0.394375 0 0 0 0 0 0 -0.0265639 -0.154493 -0.0826803 6.19799 2.68705 4.58557 3.22455 -0.78605 -3.46375 0.392402 -0.391312 0.415879 5.70578 1.41179 3.24291 2.58534 -1.05412 -4.64115 0.387837 -0.373092 0.372868 
26.982 1 209 7.82289 0.0895895 4.06168 0.167904 1.78952 -2.18166 -0.308557 0.372203 0.272717 0 0 0 0 0 0 -0.00787157 -0.180262 -0.181514 8.28482 0.140905 3.43303 0.616172 2.30338 -2.59566 -0.316458 0.382786 0.286455 7.78965 -0.230229 4.48745 -0.281408 1.27638 -1.76535 -0.300665 0.361671 0.258968 
26.982 1 249 8.05818 4.02394 4.21028 1.07846 4.00983 -0.755209 -0.585155 0.329826 -0.29586 0 0 0 0 0 0 -0.0183828 -0.0248398 -0.0492948 8.65026 3.56155 3.98778 1.59401 3.48567 -1.27405 -0.604458 0.343893 -0.306601 7.8902 4.2741 4.23047 0.558409 4.54187 -0.235599 -0.565806 0.315779 -0.285161 
26.982 1 10 10.073 2.10386 0.0394786 -9.64098 -0.499486 2.88505 -0.765 -0.106377 0.437039 0 0 0 0 0 0 -0.0358445 -0.123996 -0.201821 10.6583 1.65213 -0.106617 -9.52845 -0.630923 2.72999 -0.77127 -0.11618 0.443867 9.84395 2.31646 -0.0654681 -9.75439 -0.364374 3.04575 -0.758726 -0.0965085 0.430244 
26.982 1 16 12.0016 2.07706 2.05083 -4.19456 -8.05109 0.798498 -0.0880739 0.0850827 0.383873 0 0 0 0 0 0 0.0230349 -0.190246 -0.0780922 12.7344 2.46604 1.40311 -3.83925 -7.98735 0.523761 -0.0939964 0.0847661 0.388296 11.5535 1.44684 2.47045 -4.549 -8.11088 1.07609 -0.0821147 0.0854681 0.379468 
26.982 1 51 9.73732 4.19639 2.0225 4.50044 2.79967 -1.42791 0.751329 -0.545288 0.529557 0 0 0 0 0 0 0.00297709 -0.0144599 -0.131771 9.45893 4.12235 1.76252 3.86796 2.5547 -1.53245 0.749194 -0.562909 0.554304 10.3696 4.0597 2.05252 5.12981 3.05211 -1.32156 0.75353 -0.527654 0.50479 
26.982 1 53 11.8534 4.18424 0.284102 -3.03124 0.299026 4.3843 0.429643 -1.08137 -0.310816 0 0 0 0 0 0 -0.00432119 -0.0103737 -0.289369 12.2846 4.17667 -0.292819 -3.30299 0.380132 4.03767 0.44356 -1.11255 -0.339004 11.7077 3.98034 0.607623 -2.75813 0.223463 4.73423 0.415727 -1.05016 -0.282548 
26.982 1 210 9.89443 1.92325 4.2149 -0.0254134 -0.46034 1.47331 0.116408 0.40997 -0.586238 0 0 0 0 0 0 0.0345883 -0.140494 -0.104097 10.0604 2.14115 4.17099 -0.26002 -0.153749 1.88627 0.114956 0.425366 -0.596995 10.082 1.4618 4.05637 0.206602 -0.766612 1.06309 0.117912 0.394633 -0.575511 
26.982 1 1197 36.8015 16.3217 20.2816 -2.70146 -7.83525 1.44807 0.133767 -0.232195 -0.091555 0 0 0 0 0 0 -0.0976283 -0.0692797 0.036351 36.8995 15.6994 20.5091 -2.49403 -8.58006 2.33264 0.134665 -0.238568 -0.0977979 36.1273 16.8888 20.0539 -2.9164 -7.08914 0.565523 0.13288 -0.225822 -0.0852434 
26.982 1 253 11.9805 4.2137 3.97085 2.77776 -2.78036 -0.972384 0.161032 -0.972999 0.243849 0 0 0 0 0 0 -0.00526449 -0.066196 -0.0301716 12.2496 4.53288 4.87284 2.60274 -2.80032 0.361312 0.153454 -1.00176 0.262957 11.9959 3.68523 2.86503 2.95374 -2.75186 -2.30361 0.16867 -0.9442 0.224713 
26.982 1 20 16.0896 2.11428 2.15331 3.45933 -1.61032 -8.22769 0.0654906 -0.0116487 -0.391519 0 0 0 0 0 0 -0.0365247 -0.212098 -0.0951038 16.2196 1.06022 2.49294 3.6102 -3.00065 -7.76992 0.0573125 -0.0157512 -0.407414 16.1035 2.93274 1.58367 3.30938 -0.212295 -8.68536 0.0736771 -0.00751813 -0.37561 
26.982 1 55 13.9952 4.03878 2.11064 -2.62804 -3.63418 2.42228 0.463419 -0.314297 -0.0419306 0 0 0 0 0 0 0.00311659 -0.0908762 -0.127169 14.173 3.85349 1.91423 -2.50585 -4.05994 2.92799 0.478512 -0.323127 -0.0497369 14.0327 4.01541 2.07721 -2.74723 -3.20123 1.91942 0.448322 -0.305423 -0.03409 
26.982 1 57 16.1255 4.16237 0.221815 -0.711128 -2.91044 0.454602 0.10771 -0.46441 -0.379074 0 0 0 0 0 0 -0.0338298 -0.0787508 -0.271771 16.2036 4.22187 -0.927046 -0.468947 -2.79027 -0.30895 0.104447 -0.475622 -0.392996 16.1915 3.89376 1.11659 -0.951212 -3.02326 1.22228 0.111006 -0.453194 -0.365066 
26.982 1 214 13.9985 2.12753 4.072 -4.40359 -10.135 2.33166 0.0633396 -0.265129 0.0690412 0 0 0 0 0 0 0.00372435 -0.200519 -0.0812242 14.6493 2.109 4.51952 -3.7015 -10.7841 3.14395 0.0656386 -0.278474 0.0749714 13.5613 1.90563 3.41782 -5.10437 -9.48145 1.51962 0.0610671 -0.251734 0.0630801 
26.982 1 257 16.2462 4.07582 4.16024 1.42701 2.99284 0.801015 -0.276117 -0.163782 -0.172257 0 0 0 0 0 0 -0.00700687 -0.0661107 -0.0193936 16.4791 3.95623 4.26113 1.44743 2.5183 1.17982 -0.273224 -0.178535 -0.172215 16.1613 3.98805 3.8542 1.41145 3.47797 0.423195 -0.279037 -0.149018 -0.172339 
26.982 1 218 18.2281 2.10931 4.06252 2.11885 -0.483118 0.933221 -0.13088 -0.234465 0.461061 0 0 0 0 0 0 -0.0460716 -0.168593 -0.058822 17.5967 1.31028 4.14791 1.35543 -1.65947 1.31434 -0.126174 -0.255338 0.492862 18.9339 2.67501 3.77409 2.88411 0.704581 0.554863 -0.135621 -0.21355 0.429185 
26.982 1 18 18.2801 2.1719 0.0243532 -1.60129 -1.13496 3.50054 -0.341467 -0.450897 0.422958 0 0 0 0 0 0 -0.00857603 -0.141618 -0.21342 18.5262 1.71339 -0.00768461 -1.70565 -1.53951 3.97794 -0.354959 -0.459775 0.424386 18.1067 2.39535 -0.197174 -1.49628 -0.721875 3.02571 -0.327929 -0.441993 0.421578 
26.982 1 819 18.139 0.0779474 18.3427 4.66174 1.63878 3.78557 -0.0623696 0.180742 -0.00706214 0 0 0 0 0 0 -0.101689 -0.242684 0.0052517 18.6858 40.1845 18.1572 5.34204 1.51332 3.53679 -0.0685748 0.185006 0.00769534 17.6618 41.0019 18.5068 3.97916 1.76747 4.04017 -0.0561716 0.176496 -0.0218852 
26.982 1 2813 11.8358 20.1608 16.258 3.26605 -0.589074 2.0894 0.0312682 0.223778 0.00360129 0 0 0 0 0 0 -0.065568 0.13 -0.0875217 11.7589 20.1623 16.5238 3.26452 -0.733282 2.43845 0.0231774 0.252645 0.00990697 12.1983 20.1602 15.9422 3.26776 -0.4421 1.74233 0.0393664 0.194851 -0.00272816 
26.982 1 22 22.3422 1.98988 -0.000765293 3.46031 3.8541 8.86129 -0.273159 0.576332 0.297168 0 0 0 0 0 0 -0.0335641 -0.0651954 -0.251337 22.9483 1.89851 -0.618746 4.38957 4.16813 9.15408 -0.273601 0.585256 0.307711 21.6692 1.84655 0.365916 2.53395 3.54923 8.57438 -0.272764 0.567442 0.286615 
26.982 1 24 20.2656 2.11699 2.16393 2.00847 4.17133 4.89507 0.287965 -0.38189 -0.1855 0 0 0 0 0 0 -0.0394992 -0.161365 -0.114766 20.0155 1.80436 2.3158 1.76917 4.22252 5.33179 0.291527 -0.404146 -0.175494 20.5173 2.19625 1.78484 2.24823 4.13095 4.46259 0.284382 -0.359587 -0.195584 
26.982 1 59 18.3529 3.97318 2.05709 -1.03985 -3.04944 2.93752 -0.540464 0.531346 0.125454 0 0 0 0 0 0 -0.0169386 -0.0484422 -0.0977285 18.7284 3.80779 1.73436 -0.385335 -3.24414 3.38965 -0.550575 0.552345 0.138404 18.0516 3.92934 2.15157 -1.69162 -2.84518 2.48911 -0.530356 0.510333 0.112485 
26.982 1 61 20.3001 4.01261 0.0886601 1.22304 4.21335 1.03323 0.153714 0.516438 -0.111567 0 0 0 0 0 0 0.0315015 0.014839 -0.276025 20.655 3.45739 -0.143266 1.80766 3.83645 0.910473 0.15582 0.539179 -0.122709 19.9469 4.35857 0.0688349 0.638224 4.59834 1.16096 0.15161 0.493647 -0.100395 
26.982 1 63 22.374 3.98184 1.97822 1.00045 -1.4985 2.91103 -0.0472621 0.315515 0.153135 0 0 0 0 0 0 0.015199 0.0318842 -0.142402 22.2635 4.40976 1.06733 1.17944 -1.33022 2.3082 -0.04111 0.33036 0.161789 22.4169 3.34587 2.66367 0.822618 -1.65702 3.52068 -0.0534654 0.300654 0.144422 
26.982 1 222 22.4784 2.15747 4.01958 0.505523 0.263598 -1.69176 -0.442476 -0.170421 0.390445 0 0 0 0 0 0 -0.0109403 -0.0766989 -0.0285841 22.014 1.54207 3.96513 0.173935 -0.397675 -1.43282 -0.442256 -0.188066 0.414206 22.8727 2.54136 3.87063 0.838129 0.933594 -1.94805 -0.442725 -0.152748 0.36661 
26.982 1 261 20.2481 4.08835 4.09679 1.49121 -0.605678 -7.63489 0.170367 -0.0748238 0.435311 0 0 0 0 0 0 -0.00130161 -0.0194977 0.000183555 19.7744 3.87291 4.11535 0.949826 -1.14617 -7.57394 0.175732 -0.0722986 0.459999 20.7247 4.09471 3.87477 2.03289 -0.054183 -7.6937 0.164966 -0.0773542 0.410541 
26.982 1 25 24.2934 0.285627 -0.0952698 -5.05049 1.37968 0.669184 0.633324 -0.70917 0.316193 0 0 0 0 0 0 0.0599536 -0.152929 -0.190389 23.8036 0.379507 0.176967 -5.25041 1.78374 1.23657 0.652275 -0.730886 0.339784 24.6457 -0.0709013 -0.62095 -4.84518 0.983355 0.105696 0.614329 -0.6874 0.292581 
26.982 1 635 34.7714 0.10566 14.1467 6.09362 0.0853758 -0.204197 0.0806104 -0.0467128 0.167708 0 0 0 0 0 0 0.0945434 -0.268161 -0.0528271 34.4841 40.6901 14.4691 6.06613 0.0472889 0.173136 0.0874678 -0.0578718 0.17098 34.5618 40.5523 13.7475 6.12118 0.128231 -0.579777 0.0737299 -0.0354953 0.164445 
26.982 1 27 26.4257 0.0375739 1.99557 -2.39384 -0.54918 -1.0397 -0.0737322 0.319959 0.57452 0 0 0 0 0 0 0.0736853 -0.193168 -0.119513 26.5833 -0.21464 1.44673 -2.18417 -0.547948 -1.15417 -0.0782002 0.332968 0.591933 26.0553 0.0291069 2.31257 -2.6009 -0.541753 -0.924516 -0.0692555 0.306942 0.557114 
26.982 1 28 24.4569 2.10339 2.15274 -2.59409 0.661639 2.87082 0.2515 -0.165488 -0.326422 0 0 0 0 0 0 0.0639768 -0.0745159 -0.133841 23.9778 2.43203 1.98311 -2.95442 1.34165 3.24648 0.273813 -0.170351 -0.327631 24.7974 1.54127 2.0944 -2.22935 -0.00754792 2.49839 0.229135 -0.16061 -0.325271 
26.982 1 65 24.3887 3.95212 0.122553 -1.62872 0.424546 -1.08506 0.422848 0.069934 -0.207267 0 0 0 0 0 0 0.054696 0.044618 -0.26952 24.7257 4.26262 0.250403 -1.51907 1.22658 -0.433354 0.441683 0.0836734 -0.201949 23.9129 3.43124 -0.254384 -1.73559 -0.372767 -1.72849 0.40397 0.0562108 -0.212624 
26.982 1 67 26.6993 4.13735 2.13285 0.247995 1.32139 4.75293 -0.765666 -0.275742 -0.0378025 0 0 0 0 0 0 -0.0229299 -0.020356 -0.164301 27.5299 3.63902 1.94587 0.579307 0.813197 5.08199 -0.780624 -0.295823 -0.0374948 25.655 4.42718 2.09276 -0.0821285 1.8364 4.42881 -0.750724 -0.255637 -0.0381342 
26.982 1 225 24.3812 0.125942 4.13632 3.01779 -0.4097 -0.421219 -0.0794767 -0.0955671 -0.204051 0 0 0 0 0 0 0.0212107 -0.183607 -0.10232 24.5778 -0.844907 3.82422 3.42606 -0.681316 0.0135604 -0.0819383 -0.0968384 -0.204387 24.0442 0.837202 4.24322 2.61257 -0.129701 -0.8525 -0.0770062 -0.094295 -0.203743 
26.982 1 226 26.4871 2.22171 4.10049 0.588628 5.02487 2.00298 0.174159 -0.412293 -0.242235 0 0 0 0 0 0 0.041054 -0.103735 -0.0657415 26.5346 1.7872 4.00933 0.597682 5.00012 1.92272 0.179703 -0.426994 -0.256715 26.2268 2.42456 3.98677 0.582099 5.06029 2.08444 0.168639 -0.397596 -0.227759 
26.982 1 265 24.3016 4.21148 4.05025 -0.979733 2.34336 -1.6613 0.68822 -0.22026 0.314625 0 0 0 0 0 0 0.026641 -0.00631255 -0.0261608 24.2873 3.7088 3.72705 -0.616871 1.9769 -1.75758 0.707818 -0.228155 0.324123 24.1756 4.50635 4.16917 -1.34068 2.71839 -1.56321 0.668606 -0.212345 0.305099 
26.982 1 30 30.546 1.99441 -0.05722 3.03224 -4.54396 -0.322191 0.0485832 0.271172 0.267861 0 0 0 0 0 0 -0.0260787 -0.126224 -0.247045 30.2974 1.30335 -0.287225 2.98131 -5.13653 -0.113887 0.0564786 0.283259 0.279235 30.4344 2.44868 -0.0792952 3.0797 -3.94545 -0.526624 0.0406214 0.259126 0.256487 
26.982 1 32 28.8318 2.06037 2.05888 -2.84458 -0.797532 -3.59808 -0.607263 0.0849101 0.307723 0 0 0 0 0 0 -0.0631395 -0.147654 -0.12497 28.7704 1.72564 1.99493 -3.02195 -0.702007 -3.50626 -0.62727 0.0870232 0.314264 28.6044 2.16192 1.89396 -2.66952 -0.882551 -3.68752 -0.587263 0.0828027 0.301201 
26.982 1 69 28.4947 4.08922 0.112577 4.28468 1.57482 1.30075 0.0776087 -0.334595 -0.0406929 0 0 0 0 0 0 -0.0661767 -0.0187275 -0.265954 28.4031 4.31517 -0.0870579 4.15566 2.0225 1.19612 0.0741392 -0.348941 -0.0359394 28.2968 3.65026 0.0602782 4.41076 1.1292 1.41081 0.081056 -0.320217 -0.0454886 
26.982 1 71 30.6271 4.15706 2.14039 -5.57106 -0.457363 1.0219 -0.133397 -0.00834096 -0.275258 0 0 0 0 0 0 -0.0263139 -0.0132157 -0.112327 30.5122 4.22996 2.03079 -5.57313 -0.06349 0.989486 -0.130996 -0.00232581 -0.290247 30.3816 3.87079 2.02535 -5.57254 -0.84779 1.06022 -0.135833 -0.0143351 -0.260251 
26.982 1 230 30.5944 2.12217 4.26084 -1.65039 0.405477 -0.0477788 0.0421396 -0.300525 -0.63476 0 0 0 0 0 0 -0.0392362 -0.10598 -0.0667742 30.0337 1.21994 4.092 -2.20838 0.0758877 -0.136251 0.0428344 -0.311096 -0.660571 30.7968 2.7897 4.23095 -1.09452 0.743161 0.0472569 0.0414263 -0.289918 -0.608913 
26.982 1 269 28.5501 4.09814 4.14018 4.00487 -2.84026 -4.11621 0.00570062 0.189426 -0.0772622 0 0 0 0 0 0 -0.0213402 -0.0130644 -0.035447 28.4901 4.4918 4.44214 3.84194 -2.0332 -3.55738 -0.00592366 0.196107 -0.0788641 28.3233 3.49521 3.63537 4.1678 -3.642 -4.67124 0.0173471 0.18276 -0.0756336 
26.982 1 35 34.7245 0.0184554 2.2788 -2.4264 0.685887 1.3998 -0.115157 0.34305 -0.67491 0 0 0 0 0 0 0.0839156 -0.219929 -0.149963 34.4163 0.431195 2.06066 -2.46292 1.24068 1.45616 -0.124454 0.349252 -0.697575 34.5365 -0.660169 2.27377 -2.38842 0.135565 1.34998 -0.105799 0.336848 -0.652252 
26.982 1 36 32.4563 2.15425 1.98458 -6.27757 -1.60376 -6.06709 0.408563 -0.125522 0.0265415 0 0 0 0 0 0 0.0170081 -0.123847 -0.137557 32.2891 2.14998 1.88557 -6.29036 -1.22371 -5.88876 0.420413 -0.128527 0.0175274 32.1951 1.92373 1.8615 -6.26573 -1.97525 -6.23822 0.39668 -0.122482 0.0355955 
26.982 1 73 32.7745 4.18791 0.0311164 1.30745 1.72325 6.4919 -0.656003 -0.232066 0.110554 0 0 0 0 0 0 0.000246215 -0.0317031 -0.266333 31.8725 4.44665 0.217524 0.82496 2.55402 7.05261 -0.663686 -0.240285 0.118826 33.2461 3.71811 -0.407097 1.78637 0.897652 5.93778 -0.648376 -0.223828 0.102282 
26.982 1 75 34.8608 4.04553 2.04896 0.203709 -5.06315 1.7622 -0.516828 0.0651248 0.00656105 0 0 0 0 0 0 0.0629243 -0.040082 -0.13797 35.5969 3.75948 1.84581 0.819825 -5.26812 1.73368 -0.528841 0.0694385 0.00533798 33.6228 4.11493 2.02756 -0.415851 -4.85941 1.79665 -0.504838 0.0607773 0.00780458 
26.982 1 234 34.5244 2.24577 4.01493 2.79799 6.34396 -2.99221 0.493178 -0.258351 0.10093 0 0 0 0 0 0 0.0695015 -0.102494 -0.061973 35.0558 1.75395 4.11469 3.50519 6.14864 -2.51799 0.509795 -0.26942 0.0975713 33.4924 2.4962 3.71713 2.08792 6.54234 -3.46198 0.476563 -0.247274 0.104349 
26.982 1 273 32.5479 4.15514 4.22996 -1.09246 5.5905 4.37613 0.490226 -0.0905067 -0.257048 0 0 0 0 0 0 0.0186724 -0.00316762 -0.0188568 32.9747 3.56446 4.29027 -0.247207 5.8803 4.68542 0.504318 -0.0793731 -0.266599 31.6898 4.53056 3.96832 -1.9418 5.30214 4.06909 0.476092 -0.101684 -0.247456 
26.982 1 4 40.9261 2.07669 2.20542 -0.713938 1.89513 -0.399744 -0.683028 0.291048 -0.434731 0 0 0 0 0 0 -0.0560731 -0.0531661 -0.211988 39.9041 2.35866 2.06052 -1.45107 2.1193 -0.162704 -0.687641 0.303781 -0.445665 41.2357 1.54926 2.12722 0.0237553 1.67177 -0.631242 -0.67846 0.27828 -0.423844 
26.982 1 40 36.9011 2.15078 2.07323 -0.105199 -3.04204 2.30187 -0.196803 -0.0997799 -0.0834094 0 0 0 0 0 0 0.0722612 -0.138602 -0.174588 37.305 2.87392 2.24263 0.317313 -2.55146 2.69088 -0.198492 -0.0913758 -0.0847791 35.9261 1.18262 1.68219 -0.529926 -3.53321 1.91938 -0.195093 -0.108228 -0.0820395 
26.982 1 79 38.9021 4.23021 2.29304 3.32623 -1.76392 2.43712 -0.300963 -0.325915 -0.545867 0 0 0 0 0 0 0.0131418 -0.0364748 -0.242632 38.5608 4.64672 2.21531 3.1926 -1.60329 2.43911 -0.304444 -0.331187 -0.560548 38.6014 3.59693 2.14632 3.45954 -1.92085 2.44049 -0.297473 -0.320665 -0.531201 
26.982 1 961 -0.378064 16.377 16.1399 0.119435 -3.54787 -0.417514 -0.0705353 -0.305692 0.0375815 0 0 0 0 0 0 -0.12391 -0.0676659 -0.0912713 40.5508 16.1625 16.2169 -0.0630583 -3.96416 -0.183266 -0.069239 -0.31788 0.0440285 40.7439 16.5391 16.008 0.304141 -3.13015 -0.655672 -0.0717657 -0.293484 0.0311019 
26.982 1 238 38.874 1.99416 4.24888 -4.82648 -1.29924 -0.930627 -0.0488057 0.692003 -0.244142 0 0 0 0 0 0 -0.0372721 -0.10733 -0.129792 38.8028 2.33431 3.98894 -4.4464 -1.17135 -0.851898 -0.043556 0.712014 -0.254082 38.3038 1.41035 4.30983 -5.2075 -1.42369 -1.00548 -0.0540886 0.67196 -0.234189 
26.982 1 277 36.6601 4.02453 4.15367 2.34829 0.0121409 -5.60349 0.579702 0.368179 -0.0934784 0 0 0 0 0 0 0.0382687 -0.0327251 -0.0588667 36.3834 3.55715 4.05654 2.11369 -0.126998 -5.54264 0.596716 0.37887 -0.0964279 36.3645 4.27396 4.05089 2.58131 0.15307 -5.65981 0.562687 0.357429 -0.0904827 
26.982 1 631 30.5443 0.153641 14.252 2.44106 5.3972 4.11973 0.396253 0.111313 -0.191675 0 0 0 0 0 0 -0.0315295 -0.256153 -0.111712 30.9833 41.548 14.0691 3.10483 6.16566 3.9693 0.40318 0.106943 -0.204402 29.751 39.7893 14.3584 1.77548 4.63048 4.27178 0.38931 0.115746 -0.178928 
26.982 1 48 3.78044 6.11159 1.85987 -4.04775 -1.74906 0.481205 -0.304674 -0.108461 0.549775 0 0 0 0 0 0 -0.0996668 0.0244138 -0.175996 2.96507 5.8104 1.21871 -5.14059 -2.39475 -0.0192917 -0.315394 -0.115064 0.576825 5.1709 6.22921 2.27017 -2.95147 -1.09717 0.984211 -0.293961 -0.101859 0.522688 
26.982 1 627 26.5041 0.0687587 14.2846 4.30689 1.4931 1.0068 -0.405039 -0.0067631 -0.612331 0 0 0 0 0 0 -0.0228622 -0.265396 -0.160792 25.7774 40.6912 14.4176 3.80661 1.30159 1.2372 -0.416674 -0.0188261 -0.635111 27.0232 40.4768 14.0759 4.81243 1.68696 0.780705 -0.393368 0.00534073 -0.589574 
26.982 1 83 1.63199 8.1666 1.95868 -1.73021 0.760296 -0.965462 0.23903 0.0510461 0.23594 0 0 0 0 0 0 -0.137361 -0.0340206 -0.213239 1.13509 8.40971 1.89298 -2.20401 1.29136 -1.21188 0.249661 0.0536167 0.243949 2.77576 7.76301 1.79512 -1.25234 0.230724 -0.716267 0.228368 0.0484717 0.227925 
26.982 1 403 1.76277 0.0725879 10.2698 -3.49573 2.26975 -4.43041 -0.313364 0.215968 -0.437679 0 0 0 0 0 0 -0.135599 -0.188402 -0.0273002 1.88481 40.7575 9.75677 -3.46165 2.68122 -4.83641 -0.318382 0.212059 -0.464579 2.2803 40.4176 10.6573 -3.5307 1.86177 -4.02337 -0.308304 0.219907 -0.410737 
26.982 1 242 1.7359 6.10559 4.03769 3.02962 -2.46314 2.98418 0.0150877 0.0232215 -0.106596 0 0 0 0 0 0 -0.119077 0.019005 -0.123002 1.12038 6.44277 4.28055 2.3448 -2.48443 3.42954 0.0280534 0.0204605 -0.115089 2.99633 5.58335 3.59553 3.71637 -2.43722 2.54502 0.00211126 0.026037 -0.098097 
26.982 1 285 3.67128 8.19624 3.9294 2.96787 3.26447 0.456047 0.336692 -0.342789 -0.111123 0 0 0 0 0 0 -0.0360831 -0.0070747 -0.0768901 2.51491 8.4306 3.40736 1.98634 3.99751 0.247698 0.341462 -0.348133 -0.117992 5.40303 7.80132 4.24994 3.9531 2.53313 0.668037 0.331877 -0.337467 -0.104235 
26.982 1 46 5.85063 6.02636 0.114241 -0.256848 -1.99516 2.3588 -0.266629 -0.241193 -0.219409 0 0 0 0 0 0 -0.00850237 0.0371634 -0.275453 5.71842 5.65035 0.909139 -0.517675 -2.5788 3.23592 -0.279072 -0.241049 -0.21227 6.48167 6.22012 -0.933428 0.00306207 -1.40427 1.48794 -0.254173 -0.241388 -0.226582 
26.982 1 52 7.93086 6.1338 2.07043 3.51486 -0.84969 1.72756 -0.0772502 0.163587 0.277385 0 0 0 0 0 0 0.0326962 0.038862 -0.152924 8.15854 6.04957 2.99631 3.45087 -1.05172 2.51635 -0.0763546 0.16864 0.301827 8.12799 6.03601 0.915083 3.57474 -0.640037 0.940925 -0.0780869 0.158487 0.252901 
26.982 1 87 5.81217 7.96259 1.94511 0.290299 2.69697 5.33692 -0.120873 0.588705 0.469143 0 0 0 0 0 0 -0.0105905 0.0297919 -0.163429 5.61724 7.97966 2.25912 0.160246 2.82327 6.15899 -0.124874 0.611043 0.490476 6.50797 7.78448 1.40108 0.421597 2.57173 4.51551 -0.11687 0.566329 0.447776 
26.982 1 603 1.6446 0.189156 14.1636 -3.62766 -3.57936 5.04177 0.458316 -0.322641 -0.138245 0 0 0 0 0 0 -0.0803097 -0.202157 -0.0317052 1.89294 40.6709 13.8936 -3.7627 -3.89181 5.14708 0.467211 -0.337472 -0.120903 2.03264 40.739 14.3606 -3.49485 -3.25945 4.94324 0.449459 -0.30776 -0.155638 
26.982 1 246 5.84438 6.07063 4.14896 1.19577 0.623327 -1.01834 -0.0322653 -0.0503202 -0.28674 0 0 0 0 0 0 -0.000347638 -0.00498878 -0.0379663 6.4332 5.60686 3.27796 1.72712 0.297235 -1.70246 -0.0327945 -0.0537824 -0.288623 5.75546 6.35076 4.81577 0.664378 0.955069 -0.335815 -0.0317215 -0.0468597 -0.284849 
26.982 1 289 7.83782 8.13819 4.03395 -1.9972 1.01222 -0.508589 0.314355 -0.349847 -0.166272 0 0 0 0 0 0 0.00769094 -0.0139021 -0.0537485 8.53061 7.48043 3.89634 -1.59257 0.622896 -0.421875 0.316046 -0.357044 -0.173468 7.57052 8.63699 3.96827 -2.40497 1.40308 -0.595102 0.312713 -0.342696 -0.159066 
26.982 1 92 7.97905 10.0815 2.00097 3.97062 0.673199 2.90469 0.0179005 -0.0858275 0.258526 0 0 0 0 0 0 -0.00327724 -0.0344378 -0.142065 8.01488 9.69083 1.49324 3.88831 0.862693 3.02355 0.0200492 -0.0850344 0.265162 8.36944 10.3373 2.28084 4.05016 0.483902 2.78835 0.0158052 -0.0866609 0.251874 
26.982 1 286 5.81976 10.0998 3.99496 1.77415 -0.416786 3.92845 -0.0332848 -0.16086 0.172798 0 0 0 0 0 0 -0.0102645 0.00410404 -0.0447741 5.93255 9.84335 4.15817 1.98196 -0.217273 4.73305 -0.0341196 -0.159959 0.171739 6.21061 10.2201 3.63124 1.57002 -0.618603 3.12569 -0.0324438 -0.16182 0.173895 
26.982 1 1021 20.3169 -0.0514696 20.2596 -3.83708 -3.15964 -0.225267 -0.0233447 0.314899 0.0451476 0 0 0 0 0 0 0.00511893 -0.239847 0.0062228 20.683 40.546 19.8829 -3.41886 -3.05052 -0.714046 -0.0195988 0.321755 0.048517 19.9512 40.3828 20.6371 -4.25417 -3.26542 0.265687 -0.0271089 0.308076 0.0417212 
26.982 1 56 12.1146 6.09365 2.01218 -0.460742 -1.13858 -8.24003 -0.541877 0.424895 0.625676 0 0 0 0 0 0 -0.0515744 0.0524951 -0.166581 12.3027 6.26623 2.36098 -0.432038 -0.621791 -7.72622 -0.548438 0.439936 0.646135 12.2136 5.74061 1.4321 -0.487681 -1.64794 -8.75281 -0.535273 0.409829 0.605236 
26.982 1 91 10.1529 8.11145 2.15318 -4.02926 3.62726 -2.30374 -0.764662 0.141985 0.0373764 0 0 0 0 0 0 -0.0225379 -0.021405 -0.187367 10.6464 8.69476 2.29107 -3.78574 4.14762 -2.04838 -0.793385 0.157565 0.0392809 10.015 7.37247 1.78809 -4.27495 3.11339 -2.55565 -0.735858 0.126332 0.0354647 
26.982 1 250 10.192 6.05136 4.10169 4.17369 -0.139477 -3.90294 -1.00959 0.659923 -0.138458 0 0 0 0 0 0 -0.0330081 0.0211491 -0.0445447 10.5574 6.0931 5.47979 4.20036 0.216488 -2.61839 -1.04303 0.675786 -0.135394 10.1803 5.83023 2.51753 4.14292 -0.48585 -5.18879 -0.976051 0.644047 -0.141545 
26.982 1 293 12.1673 7.97892 4.06165 0.873439 1.99923 -6.16702 -0.0924298 0.428601 0.100102 0 0 0 0 0 0 -0.0143947 0.0165414 -0.0368056 12.0718 6.9836 5.07483 0.340055 1.24555 -4.92842 -0.0971252 0.450393 0.111983 12.5494 8.81751 2.84473 1.40787 2.7584 -7.40322 -0.0876829 0.406741 0.0882129 
26.982 1 54 14.0224 5.99939 0.307816 1.76107 -2.40691 -1.11719 0.785293 0.302425 -0.923129 0 0 0 0 0 0 -0.0380008 0.0203005 -0.298846 13.6573 6.48197 -0.16667 1.52071 -2.13867 -1.79413 0.807371 0.314283 -0.957596 14.6018 5.33596 0.527318 2.00366 -2.66849 -0.438289 0.763207 0.290568 -0.888565 
26.982 1 60 16.3362 5.98641 2.09356 -1.7419 3.04396 2.80264 -0.66325 0.0606385 0.103622 0 0 0 0 0 0 -0.017678 -0.0100547 -0.0928 16.9213 6.55291 0.949718 -1.34067 3.61258 2.27492 -0.668907 0.0663945 0.10713 15.894 5.23644 3.0092 -2.141 2.48173 3.33351 -0.657615 0.0548479 0.100127 
26.982 1 95 14.0702 8.18765 1.96828 -0.972874 1.07302 -3.72832 0.168448 -0.250018 0.243461 0 0 0 0 0 0 -0.04709 -0.00587179 -0.133438 14.4967 8.38008 0.561986 -0.780366 1.36101 -4.65297 0.175703 -0.246814 0.259721 13.8584 7.83827 3.14839 -1.16214 0.789904 -2.79847 0.161187 -0.253287 0.227225 
26.982 1 97 16.1632 8.21721 0.0301572 0.244374 -3.67467 0.856596 -0.0714803 -0.549749 0.0581406 0 0 0 0 0 0 -0.020524 -0.0189321 -0.28303 15.8214 9.0018 0.675282 -0.0484364 -3.19815 1.47943 -0.0756759 -0.563089 0.0534776 16.6467 7.27317 -0.867285 0.538606 -4.14727 0.239421 -0.0672949 -0.53643 0.062844 
26.982 1 254 14.1221 5.94183 4.05402 -1.11974 3.94566 0.771294 0.166641 0.388051 0.136756 0 0 0 0 0 0 0.00353599 0.00433823 -0.0204312 13.9868 5.68654 4.35746 -1.37989 4.00917 1.86685 0.180511 0.406905 0.157448 14.4746 6.01802 3.54491 -0.854773 3.89165 -0.326184 0.152754 0.369177 0.116047 
26.982 1 297 16.0982 7.93244 3.88547 -1.15569 4.29224 -1.07216 0.0527699 0.265836 0.790742 0 0 0 0 0 0 0.00264613 0.0155871 0.00441465 16.3743 7.72563 2.85444 -1.07974 4.54994 -1.86952 0.0614333 0.280809 0.821167 15.9656 7.98174 4.71504 -1.22741 4.03803 -0.272832 0.0440549 0.2508 0.760306 
26.982 1 58 18.2166 6.17657 0.164998 -3.52096 1.73081 8.17341 0.249056 -0.423193 -0.488168 0 0 0 0 0 0 0.0234196 -0.0120971 -0.285055 17.0514 7.0351 0.430183 -4.58174 2.74572 8.48586 0.254073 -0.430967 -0.499671 19.4526 5.13593 -0.353459 -2.46019 0.724564 7.8671 0.244033 -0.415472 -0.47662 
26.982 1 2639 38.9943 20.313 14.1284 -2.21483 -2.12938 0.517624 -0.0242025 -0.289259 0.296623 0 0 0 0 0 0 0.0347538 0.0487476 -0.140721 38.9251 21.4842 13.7191 -2.24174 -1.15412 0.0905883 -0.0238295 -0.309912 0.317384 38.4265 19.1418 14.4623 -2.1843 -3.10322 0.947092 -0.0245222 -0.268571 0.275799 
26.982 1 64 20.3726 5.99329 2.11911 -0.883789 -3.88751 4.79331 -0.219677 0.345488 -0.288913 0 0 0 0 0 0 0.0440698 0.0337322 -0.132672 19.8418 6.15757 1.28117 -1.0387 -4.02191 4.66534 -0.220627 0.372746 -0.296867 20.9063 5.64184 2.73218 -0.728441 -3.74889 4.92754 -0.218756 0.318151 -0.280996 
26.982 1 99 18.1303 8.03329 2.00909 -0.803274 2.06323 -0.701905 0.449496 0.584616 0.482399 0 0 0 0 0 0 0.0347333 0.0303785 -0.0908143 17.7366 8.80675 0.753221 -1.3541 2.78115 -1.55593 0.467605 0.615947 0.494888 18.5954 7.09983 3.03952 -0.251446 1.34596 0.157892 0.431332 0.553224 0.469888 
26.982 1 103 22.3525 8.01322 2.31094 4.04515 4.51773 -0.529731 -0.19446 0.441775 -0.582325 0 0 0 0 0 0 0.00326699 0.0286356 -0.167098 21.3621 8.34106 3.06822 3.75567 5.12016 0.0592278 -0.209468 0.465637 -0.594556 23.2743 7.52264 1.32973 4.33309 3.91657 -1.11067 -0.17941 0.417872 -0.570137 
26.982 1 258 18.2727 6.06152 4.0998 1.80593 -6.46711 -0.909761 -0.15299 -0.192836 0.00615508 0 0 0 0 0 0 0.00850503 -0.000362951 -0.00731785 18.3235 6.25404 4.14549 1.65945 -6.14046 -0.498388 -0.150953 -0.191784 0.0132577 18.2963 5.6842 3.85249 1.95498 -6.78735 -1.31829 -0.155081 -0.193947 -0.000989772 
26.982 1 262 22.3277 5.99335 4.02943 1.21033 2.84254 3.12385 -0.179724 0.135646 0.617613 0 0 0 0 0 0 0.000232359 0.0209304 -0.0265466 21.0863 6.37899 3.8747 0.67482 3.45672 3.15885 -0.184749 0.15018 0.640567 23.5 5.42155 3.98285 1.74516 2.23386 3.09272 -0.174696 0.121092 0.594632 
26.982 1 301 20.1917 8.0481 4.20469 -4.10675 -2.16413 4.44684 0.274552 0.0898622 -0.307161 0 0 0 0 0 0 0.018841 0.0268734 -0.035395 19.4947 7.46127 4.3062 -4.30237 -2.46769 5.14251 0.28371 0.117707 -0.320928 20.8893 8.47358 3.90336 -3.91239 -1.859 3.75628 0.265369 0.0619559 -0.293418 