ITEM: TIMESTEP
9300
ITEM: NUMBER OF ATOMS
4000
ITEM: BOX BOUNDS pp pp pp
-1.96435 42.4643
0.545296 39.9547
0.538283 39.9617
ITEM: ATOMS mass type id x y z vx vy vz fx fy fz xrad yrad zrad vxrad vyrad vzrad fxrad fyrad fzrad xub yub zub vxub vyub vzub fxub fyub fzub xlb ylb zlb vxlb vylb vzlb fxlb fylb fzlb 
26.982 1 43 0.212863 4.50734 2.69926 -2.57885 1.17567 -4.09353 0.0998188 -0.578605 -0.634156 0 0 0 0 0 0 -0.0388984 -0.0837469 -0.15135 -10.0261 -1.09918 8.38869 -4.25421 1.46971 -2.09243 0.107378 -0.577016 -0.65447 13.9103 9.19838 -4.0242 -0.896125 0.900246 -6.07672 0.0922337 -0.580164 -0.613852 
26.982 1 202 0.265679 2.4519 4.60794 -0.138701 -0.696248 1.9516 -0.0389834 -0.134645 -0.188377 0 0 0 0 0 0 -0.0379394 -0.0846391 -0.0895622 0.905257 -4.49578 6.62956 -0.147163 -2.48615 2.56781 -0.04055 -0.137796 -0.199004 3.08544 8.3626 1.73604 -0.121084 1.11582 1.36352 -0.0374278 -0.131471 -0.177736 
26.982 1 4 -1.86121 2.53311 2.57805 1.34305 0.365937 -3.33907 -0.293788 -0.0687536 0.638151 0 0 0 0 0 0 -0.155777 -0.124972 -0.171074 31.8548 1.32943 4.87596 -0.0189615 0.12908 -3.15474 -0.297528 -0.0706416 0.637265 49.5294 2.6957 -0.694113 2.7089 0.625956 -3.49059 -0.290002 -0.0668468 0.638997 
26.982 1 8 2.49779 2.48723 2.4651 -0.222744 6.52838 0.805382 0.114154 0.227498 0.192932 0 0 0 0 0 0 -0.0377775 -0.131093 -0.165099 -1.79006 10.3144 1.25803 -0.49856 8.59597 1.12244 0.12125 0.234381 0.19752 9.85112 -6.37096 2.66353 0.0580579 4.48368 0.51264 0.107017 0.220595 0.188374 
26.982 1 205 2.51201 0.486715 4.4964 5.33544 5.32704 7.26547 -0.0685118 0.367628 0.230491 0 0 0 0 0 0 -0.00128877 -0.182731 -0.136618 -0.171126 38.116 3.31683 5.00724 4.8129 7.63622 -0.0600444 0.38282 0.238954 8.236 43.0036 4.79227 5.66533 5.86425 6.91782 -0.0770024 0.352485 0.222018 
26.982 1 241 -1.95661 4.55241 4.61749 -1.83866 2.03059 4.95457 -0.0259693 -0.484917 -0.585833 0 0 0 0 0 0 -0.114974 -0.0732202 -0.097437 -5.62177 7.01684 -0.328888 -2.44249 3.24073 3.46021 -0.0285688 -0.491694 -0.601974 5.49341 1.18728 8.71849 -1.23175 0.848724 6.47237 -0.0233184 -0.478149 -0.569702 
26.982 1 201 -2.00363 0.375781 4.54854 0.169003 1.63593 -1.10297 -0.168744 0.537658 -0.139857 0 0 0 0 0 0 -0.111532 -0.11889 -0.203778 43.3426 45.0404 11.314 0.260733 1.20214 1.11242 -0.182541 0.550457 -0.146922 37.7623 35.812 -3.08108 0.0809257 2.08606 -3.29164 -0.154934 0.524919 -0.132773 
26.982 1 3 0.255907 0.627925 2.67361 -1.03275 1.80374 1.72161 -0.0174641 0.128944 -0.757531 0 0 0 0 0 0 -0.0371715 -0.203674 -0.208494 -1.15612 5.94297 9.59605 -1.84819 2.53323 3.31169 -0.0188611 0.128287 -0.77874 5.10078 -5.90154 -5.25795 -0.210217 1.08743 0.151788 -0.0160646 0.129604 -0.736373 
26.982 1 41 -1.99917 4.25993 0.597287 -2.27378 0.990427 -2.44386 -0.0732836 0.328781 -0.510567 0 0 0 0 0 0 -0.119457 -0.0889985 -0.219356 -8.13712 7.07872 9.70979 -3.35266 0.981933 -2.13711 -0.0823933 0.342989 -0.522902 7.93519 0.552011 -9.63515 -1.1872 1.02353 -2.72816 -0.0641744 0.31461 -0.498285 
26.982 1 45 2.39303 4.36945 0.371016 -1.76724 0.0562811 2.75698 0.289811 0.105314 0.40701 0 0 0 0 0 0 -0.0345079 -0.0777532 -0.259326 3.43629 2.49075 41.4476 -1.67009 -0.26142 3.22804 0.303785 0.107264 0.428853 4.41532 5.37104 39.4634 -1.8607 0.401815 2.31253 0.275771 0.1034 0.385235 
26.982 1 245 2.40059 4.36564 4.50889 -3.57115 2.8791 -0.809091 0.319109 0.492197 -0.204383 0 0 0 0 0 0 0.00525051 -0.0123143 -0.0347283 1.84555 5.13631 4.5547 -3.88763 3.80293 -0.815347 0.33018 0.505663 -0.220065 6.03577 2.71139 3.57695 -3.24685 1.97536 -0.781531 0.308003 0.478767 -0.188681 
26.982 1 47 4.83294 4.43558 2.51612 1.72648 -2.84161 2.14304 -0.833312 0.407907 -0.470196 0 0 0 0 0 0 -0.0130196 -0.0286614 -0.119514 1.56483 10.0203 1.08366 1.04168 -1.18679 1.56238 -0.849445 0.417316 -0.497799 10.7427 -1.98676 2.94545 2.41249 -4.4625 2.74895 -0.817198 0.398549 -0.442592 
26.982 1 206 4.73461 2.6776 4.53594 -6.39955 -1.94273 -3.3758 -0.151271 -0.607575 -0.356283 0 0 0 0 0 0 -0.00281068 -0.0873251 -0.059197 8.65898 -2.15221 11.8577 -6.19677 -3.73556 -1.84793 -0.155234 -0.630966 -0.375227 3.45161 6.48945 -3.61761 -6.60014 -0.131493 -4.8686 -0.147338 -0.584191 -0.337332 
26.982 1 12 7.00446 2.46313 2.47271 -0.935987 -5.6413 1.31158 0.175075 0.142928 -0.0468114 0 0 0 0 0 0 0.0634442 -0.149193 -0.148383 7.92739 3.25477 -1.19321 -0.691132 -5.19156 0.549959 0.188484 0.151323 -0.0540909 8.30284 0.666701 5.15562 -1.18363 -6.06002 2.10664 0.161673 0.13454 -0.039521 
26.982 1 6 4.82299 2.49882 0.615675 1.3303 1.61861 -3.96318 -0.350303 0.0970967 -0.56412 0 0 0 0 0 0 -0.00525461 -0.130875 -0.259213 3.70069 -3.59588 7.80448 1.06415 0.361519 -2.69952 -0.354291 0.104204 -0.588505 8.57296 7.60545 -7.66535 1.59415 2.90564 -5.19313 -0.34633 0.089935 -0.539738 
26.982 1 7 4.7288 0.578616 2.50118 -2.39488 2.76237 0.989165 -0.336303 0.0796095 -0.0324589 0 0 0 0 0 0 0.00232624 -0.237324 -0.156298 5.30304 39.4082 -3.79666 -2.98104 2.42052 0.761962 -0.338727 0.0885825 -0.0279726 6.77326 41.918 7.81395 -1.81356 3.12845 1.25006 -0.333909 0.0706037 -0.0369639 
26.982 1 49 6.84846 4.55553 0.533825 1.1894 -3.70589 -1.00184 0.13188 -0.262601 -0.324496 0 0 0 0 0 0 0.063384 -0.0208935 -0.274557 12.4566 -2.45685 -7.17283 2.20034 -4.70446 -3.14182 0.130182 -0.280091 -0.345197 3.45655 10.6811 7.15143 0.17443 -2.68244 1.17069 0.133578 -0.245104 -0.303777 
26.982 1 249 6.79674 4.56334 4.28909 0.173604 -0.596056 -1.74528 0.659013 -0.231177 0.658643 0 0 0 0 0 0 0.0277571 -0.0275316 -0.0247207 8.84029 -3.43286 6.55565 -0.0486596 -1.04112 -0.786823 0.669953 -0.248485 0.67756 6.96777 11.704 1.13587 0.391496 -0.123925 -2.67895 0.648091 -0.213863 0.639816 
26.982 1 209 6.82212 0.480785 4.39563 -2.90289 -0.791369 0.109368 0.192535 -0.102226 0.481593 0 0 0 0 0 0 0.0300185 -0.190647 -0.146921 9.97537 -2.79805 -0.553154 -3.06373 -1.43408 -0.883552 0.198126 -0.103607 0.497859 5.8927 2.61361 8.43752 -2.74448 -0.120456 1.12472 0.18694 -0.100811 0.465328 
26.982 1 51 9.15306 4.49402 2.40659 0.436583 0.706747 -0.903931 -0.207766 -0.297633 0.262213 0 0 0 0 0 0 0.0497202 -0.0162358 -0.190376 0.00601561 7.41964 -7.68998 -1.1928 2.6397 -3.18698 -0.213962 -0.313517 0.261598 20.1407 0.723972 11.5141 2.06157 -1.19284 1.40368 -0.201543 -0.281729 0.262875 
26.982 1 210 9.22718 2.46804 4.45383 3.36481 1.94906 -0.304867 -0.788033 0.0644733 -0.459902 0 0 0 0 0 0 -0.00810382 -0.104985 -0.116378 6.01293 2.69222 5.96865 2.58289 1.99667 -0.857848 -0.804871 0.0603566 -0.473599 14.2824 1.21563 2.00141 4.14293 1.92289 0.262139 -0.771171 0.0686177 -0.446183 
26.982 1 10 9.24514 2.40814 0.350977 -2.3775 7.16781 0.82947 -0.203622 0.324151 0.502698 0 0 0 0 0 0 0.0400157 -0.0978745 -0.198851 13.3745 1.36392 -5.78644 -2.00487 7.61779 -0.100101 -0.205842 0.345843 0.52136 6.98564 2.43635 5.40005 -2.74685 6.73964 1.7979 -0.201375 0.302479 0.484076 
26.982 1 16 11.4886 2.46844 2.41228 -0.799929 -0.933265 -6.17219 -0.488249 -0.191992 0.0273243 0 0 0 0 0 0 -0.00546926 -0.129894 -0.205012 12.9023 7.15291 -6.0775 -0.84184 1.56589 -7.58099 -0.501583 -0.201769 0.014915 11.611 -3.21211 9.8614 -0.748109 -3.4049 -4.74627 -0.47487 -0.182205 0.0397547 
26.982 1 253 11.3228 4.41841 4.35868 -2.88799 -0.59391 2.75997 -0.0103133 0.509894 -0.509997 0 0 0 0 0 0 -0.000938016 -0.0112211 -0.0944099 11.1484 1.03045 18.8762 -3.285 -1.01271 5.06157 -0.0158396 0.516515 -0.519231 13.024 6.99149 -11.0549 -2.48405 -0.138795 0.481254 -0.00476408 0.503297 -0.500756 
26.982 1 55 13.608 4.48687 2.40596 1.68828 -1.35226 2.01935 -0.297206 0.411334 0.276923 0 0 0 0 0 0 0.00326279 0.0221082 -0.224349 14.4721 3.45918 4.67743 1.91589 -1.34468 2.57562 -0.304772 0.415871 0.287329 13.9019 4.67493 -0.84345 1.46656 -1.32787 1.49581 -0.289625 0.406826 0.266555 
26.982 1 214 13.6192 2.51487 4.37877 5.27761 -0.46366 2.64632 0.0418213 -0.0767632 0.035431 0 0 0 0 0 0 0.010619 -0.110695 -0.100859 20.5517 2.49065 9.35377 6.55732 -0.119497 1.98507 0.0529068 -0.0845981 0.0564021 7.8416 1.55553 -1.52794 4.00327 -0.779584 3.32176 0.0307453 -0.0689099 0.0144856 
26.982 1 14 13.6124 2.48613 0.612807 -1.10489 -1.27551 -3.11136 0.0639147 -0.562266 -0.0609342 0 0 0 0 0 0 0.00383367 -0.0856708 -0.235631 11.7101 8.9869 32.6444 -1.1918 0.798104 -3.80689 0.0631416 -0.566607 -0.0753599 16.6745 -5.04006 48.7563 -1.01279 -3.32988 -2.38574 0.0647237 -0.557917 -0.0465203 
26.982 1 217 15.882 0.440251 4.44641 -1.12011 3.24983 -1.2061 -0.428672 0.20476 -0.268164 0 0 0 0 0 0 0.0179171 -0.176871 -0.21181 23.1632 35.5986 10.1924 0.100496 3.8601 -0.278408 -0.430766 0.212749 -0.280761 9.3254 45.4438 -2.20368 -2.35036 2.66472 -2.11984 -0.426624 0.19676 -0.255604 
26.982 1 213 11.322 0.548718 4.41404 3.70266 2.61011 3.1074 -0.133722 -0.14495 -0.30528 0 0 0 0 0 0 -0.0046059 -0.190055 -0.20099 10.1885 -2.63723 8.14075 3.50372 3.44506 4.05042 -0.145397 -0.149094 -0.312921 13.9613 2.57418 -0.263582 3.90516 1.79549 2.17915 -0.122006 -0.140809 -0.297634 
26.982 1 257 15.7977 4.72271 4.50722 -0.881146 1.80906 -2.92627 -0.361658 -1.49403 0.362642 0 0 0 0 0 0 0.0030327 -0.039931 -0.0743393 19.7673 -5.5821 6.93207 0.0439922 -0.498771 -3.21283 -0.362088 -1.52552 0.370992 12.5934 14.1547 1.16464 -1.81144 4.13957 -2.62049 -0.361274 -1.46253 0.354287 
26.982 1 20 15.66 2.60947 2.48577 -3.54199 1.83689 -2.72438 0.457062 -0.246248 0.189828 0 0 0 0 0 0 0.0273287 -0.131427 -0.19449 20.802 -7.57403 7.12188 -2.26068 -0.211503 -2.90326 0.463036 -0.272994 0.189838 11.2603 11.8452 -3.15547 -4.83199 3.9096 -2.51638 0.451051 -0.219516 0.189806 
26.982 1 218 17.8785 2.55304 4.49422 0.0742475 -1.03996 0.657208 0.22124 -0.208098 -0.0201281 0 0 0 0 0 0 0.0452765 -0.132859 -0.122044 13.4813 -1.8833 4.60145 -0.293683 -1.2012 0.0970119 0.228604 -0.218584 -0.0215504 22.6293 6.04986 3.4845 0.4317 -0.845509 1.24123 0.213828 -0.197593 -0.0187081 
26.982 1 59 18.0494 4.39554 2.45978 3.57907 -1.53486 -5.37746 0.0627392 0.377192 0.279157 0 0 0 0 0 0 0.0258599 0.00683701 -0.222868 24.6388 -1.64694 5.64898 4.55141 -3.43218 -5.27724 0.0779696 0.394772 0.287496 11.8155 9.58994 -1.70808 2.592 0.39178 -5.4435 0.0474363 0.359621 0.270836 
26.982 1 18 18.0234 2.53612 0.487552 -0.999199 -2.50073 1.37912 -0.0755966 0.238063 -0.331614 0 0 0 0 0 0 0.0222514 -0.0815529 -0.19976 23.0357 -0.232575 4.6186 0.472435 -2.73529 1.57499 -0.0740706 0.242237 -0.334435 13.3558 4.34386 -4.74536 -2.4842 -2.23602 1.21537 -0.0771854 0.233879 -0.328788 
26.982 1 24 20.1924 2.49587 2.55476 1.59807 -1.36847 1.66354 0.0810995 -0.332073 -0.106179 0 0 0 0 0 0 0.0352921 -0.170309 -0.189056 16.7297 2.09994 7.49447 0.902452 -0.910726 2.33143 0.0827946 -0.344956 -0.108132 23.626 1.94532 -3.39392 2.28486 -1.79497 1.02073 0.0793667 -0.319199 -0.104233 
26.982 1 261 20.1128 4.5247 4.56216 -1.61883 -3.17672 -2.70663 0.0166361 0.0139676 -0.37088 0 0 0 0 0 0 0.00308302 -0.0270731 -0.0981791 17.7805 3.56835 8.23765 -1.28007 -3.57119 -3.64445 0.0171309 0.026776 -0.387329 22.4149 4.62562 -0.0111658 -1.9676 -2.7597 -1.74574 0.0160984 0.00113937 -0.354439 
26.982 1 63 22.5622 4.41995 2.43055 -2.38026 -2.41867 -1.57581 0.0142903 0.0975447 0.12706 0 0 0 0 0 0 -0.0208321 -0.0542212 -0.2582 27.7807 9.54286 2.67695 -1.63192 -0.921654 -0.551874 0.0159935 0.101394 0.132608 16.9609 -1.55512 1.20916 -3.12768 -3.89573 -2.57015 0.0126159 0.0936844 0.121533 
26.982 1 222 22.3286 2.66888 4.4731 2.07049 -2.91922 -3.09024 0.232257 -0.380091 0.0200628 0 0 0 0 0 0 -0.0370002 -0.145789 -0.141115 20.5791 4.53571 7.06974 2.05208 -1.57855 -3.14949 0.229627 -0.39409 0.0118066 23.6899 -0.161484 0.990522 2.08488 -4.2371 -3.00342 0.23487 -0.366113 0.0282846 
26.982 1 28 24.6957 2.56315 2.51473 -2.52462 5.60969 -1.52726 0.0899985 0.105878 -0.255076 0 0 0 0 0 0 -0.0326933 -0.139048 -0.224057 26.0603 7.09637 8.12043 -2.10669 6.6205 -0.163435 0.0926379 0.10339 -0.266619 22.6229 -2.93522 -4.12565 -2.93225 4.6274 -2.87789 0.0873788 0.108359 -0.243547 
26.982 1 225 24.6172 0.60828 4.31924 6.84943 1.44897 -0.177098 0.220517 -0.221837 0.542341 0 0 0 0 0 0 -0.0109416 -0.189559 -0.191461 27.7315 8.93304 6.10221 7.70745 3.26761 -0.00900174 0.226439 -0.224553 0.569248 20.7557 -8.8503 1.63729 5.98728 -0.353208 -0.322881 0.214605 -0.219172 0.515442 
26.982 1 265 24.6624 4.41769 4.5415 1.44902 -0.945047 3.3657 0.025781 0.222582 0.0603007 0 0 0 0 0 0 -0.00396263 -0.0410255 -0.0702365 27.5059 -8.81085 5.03868 1.30648 -3.09555 3.3823 0.0277512 0.213583 0.0669379 21.0883 16.7603 3.12634 1.59911 1.23131 3.37002 0.0238318 0.231579 0.0536177 
26.982 1 67 26.8797 4.62931 2.57381 3.76186 0.284872 1.30273 0.0630307 -0.308476 -0.35931 0 0 0 0 0 0 0.0112774 -0.0239092 -0.244656 27.6924 -1.13855 6.26467 3.41727 -0.21881 1.92008 0.0601092 -0.325737 -0.383284 24.9888 9.49323 -2.12001 4.12038 0.808804 0.706288 0.065973 -0.29123 -0.335374 
26.982 1 226 27.038 2.55267 4.35915 -5.62987 1.9103 0.289881 -0.386283 -0.276633 0.0163787 0 0 0 0 0 0 0.0224967 -0.151431 -0.117647 26.0703 -0.189036 7.89672 -5.9855 0.495818 1.25789 -0.39542 -0.295509 0.021818 26.9432 4.37358 -0.117467 -5.26122 3.36714 -0.66566 -0.377106 -0.257779 0.0109265 
26.982 1 26 26.8351 2.35462 0.65869 -1.32584 1.57328 3.08733 0.229013 0.555391 0.0682135 0 0 0 0 0 0 0.00284311 -0.0827682 -0.20654 20.5448 6.59352 10.1339 -2.33028 3.09859 5.46985 0.226881 0.565941 0.0608911 32.0534 -2.86251 -9.92623 -0.308136 0.0760048 0.728224 0.231167 0.544868 0.0754791 
26.982 1 32 29.4179 2.41183 2.48096 -0.620882 -4.69654 2.8988 -0.752933 0.0252625 0.101023 0 0 0 0 0 0 -0.0317346 -0.12463 -0.1987 21.0252 5.35119 8.67495 -2.31947 -4.60973 4.77223 -0.766188 0.0268173 0.0985909 36.3305 -1.47555 -4.71932 1.08791 -4.75087 1.04018 -0.739661 0.0237402 0.103459 
26.982 1 269 29.0756 4.45568 4.33982 -2.21086 2.1721 -2.0477 0.41204 -0.213397 0.161755 0 0 0 0 0 0 0.00233152 -0.0435503 -0.090848 26.399 11.5255 14.8198 -2.52991 2.75206 -0.490866 0.419007 -0.22166 0.167403 30.3061 -3.49937 -7.00622 -1.87814 1.6174 -3.57956 0.405111 -0.205138 0.156125 
26.982 1 71 31.4911 4.39351 2.54993 -0.879438 -7.85709 -4.44319 -0.199235 0.136579 0.0146667 0 0 0 0 0 0 -0.0432692 -0.0169077 -0.223931 30.6522 8.4089 1.34504 -1.00686 -7.29669 -4.80049 -0.193824 0.143501 0.00848447 30.4257 -0.530901 2.81 -0.754191 -8.39729 -4.05539 -0.20464 0.129684 0.0208335 
26.982 1 230 31.4231 2.47168 4.56583 -4.11765 -3.3214 -2.40311 -0.0428053 0.244723 -0.110345 0 0 0 0 0 0 -0.0381232 -0.100847 -0.09335 22.8435 -4.0714 5.21849 -5.23387 -4.40715 -2.75119 -0.0338237 0.248274 -0.12325 38.1223 8.07485 3.07029 -2.99825 -2.1961 -2.02732 -0.0518211 0.241223 -0.0974541 
26.982 1 273 33.4338 4.70675 4.52016 3.45208 -5.68755 -0.649915 0.607621 -0.942453 0.00153231 0 0 0 0 0 0 0.00112941 -0.0381372 -0.0669589 39.7166 11.4628 3.63678 4.15243 -3.5169 -1.33824 0.618174 -0.97312 -0.0125554 24.8314 -2.96648 4.52888 2.74129 -7.83866 0.0608895 0.597043 -0.911779 0.0156168 
26.982 1 31 31.4391 0.6338 2.48475 2.77765 -5.00157 2.07112 -0.0163288 -0.618935 0.0131067 0 0 0 0 0 0 -0.0342891 -0.210077 -0.16549 30.6438 27.453 2.62226 2.68104 -7.45075 2.64804 -0.0111767 -0.646377 0.00876927 30.3215 54.0791 1.37515 2.87289 -2.51255 1.51708 -0.0215217 -0.591496 0.0174287 
26.982 1 36 33.6365 2.33218 2.46043 -0.162069 1.16329 -1.59377 0.0277221 0.732788 0.108375 0 0 0 0 0 0 0.000590894 -0.137168 -0.172326 34.1755 -0.65106 -2.2447 0.240776 0.518411 -2.01557 0.0366159 0.748906 0.117088 30.7999 4.34773 6.23429 -0.572432 1.83985 -1.13883 0.018802 0.716761 0.0996389 
26.982 1 233 33.613 0.673653 4.62438 0.60198 1.68837 4.4907 -0.0305116 -0.680323 0.0108547 0 0 0 0 0 0 0.0241474 -0.193974 -0.15522 33.0965 35.4027 -2.18512 0.651698 0.54446 4.38379 -0.0225225 -0.707783 0.00557634 31.8799 46.182 10.6286 0.552014 2.8671 4.63311 -0.038555 -0.652836 0.0161082 
26.982 1 73 33.477 4.4841 0.514149 -0.171852 -4.21094 4.13291 0.321912 -0.529457 -0.00807847 0 0 0 0 0 0 -0.0592285 0.00633934 -0.266379 30.9371 15.1529 5.33784 0.239089 -2.34035 5.83099 0.324352 -0.543722 -0.0109863 33.6994 -7.09101 -5.37161 -0.595623 -6.07025 2.46712 0.319458 -0.515179 -0.00518583 
26.982 1 75 35.672 4.48764 2.33512 -2.76936 3.47425 -1.56866 0.141774 -0.243066 0.525644 0 0 0 0 0 0 -0.0139317 -0.0155057 -0.145846 39.8824 7.14153 5.04233 -2.42948 5.59668 -1.37056 0.135067 -0.260832 0.539545 28.7595 0.88295 -1.32942 -3.12233 1.36385 -1.73653 0.148457 -0.225285 0.511712 
26.982 1 234 35.7947 2.50638 4.54471 -1.87248 2.83915 -2.09608 -0.166725 0.325456 -0.00700242 0 0 0 0 0 0 -0.00286971 -0.0982082 -0.0962046 42.5029 0.819003 4.49332 -0.588737 2.42549 -2.42029 -0.17363 0.338567 -0.0097704 26.3936 3.18635 3.77046 -3.16606 3.27735 -1.74267 -0.159812 0.312447 -0.00422038 
26.982 1 77 37.9899 4.43813 0.466907 -7.5532 -2.33083 4.95325 0.209159 0.158133 0.221232 0 0 0 0 0 0 0.0023327 0.0118721 -0.253359 38.3951 9.55952 33.5415 -7.62718 -1.07862 2.77937 0.213306 0.156737 0.241939 34.5409 -1.59849 47.5311 -7.48288 -3.56639 7.14514 0.205046 0.159521 0.200499 
26.982 1 277 37.919 4.38332 4.43461 -1.60895 1.37147 -0.846795 0.0499817 0.365303 0.45773 0 0 0 0 0 0 -0.00529346 -0.0231894 -0.0371123 37.537 14.9531 -3.65752 -1.49112 4.19767 -1.97405 0.0443526 0.374785 0.470745 35.2274 -7.11702 11.6818 -1.73496 -1.43794 0.310783 0.0556153 0.355853 0.444766 
26.982 1 34 35.8948 2.52562 0.449159 4.41689 4.21645 -0.597437 -0.412993 -0.288035 0.641666 0 0 0 0 0 0 -0.0142537 -0.146491 -0.206098 38.6371 14.0984 48.2507 5.02729 6.12019 1.25515 -0.425768 -0.298501 0.661856 30.498 -10.1189 32.8291 3.79839 2.31937 -2.41666 -0.400202 -0.277548 0.621447 
26.982 1 40 37.9411 2.52354 2.52753 -5.14156 2.3286 4.62536 0.152578 -0.236411 -0.265067 0 0 0 0 0 0 0.00465697 -0.192495 -0.14353 41.9947 11.076 -1.9841 -4.52411 4.20847 3.8542 0.149989 -0.249356 -0.260704 30.8247 -7.07507 6.07443 -5.76948 0.473919 5.43049 0.155198 -0.223444 -0.269478 
26.982 1 237 38.0011 0.65138 4.65493 -4.91001 3.23596 -4.71934 0.125352 -0.489458 -0.597014 0 0 0 0 0 0 -0.0010536 -0.189578 -0.198987 38.1854 5.00014 11.0781 -4.57399 4.28421 -3.28802 0.124979 -0.510272 -0.619446 34.7568 -4.84444 -2.60823 -5.2538 2.21275 -6.11853 0.125806 -0.468654 -0.574574 
26.982 1 79 40.1849 4.48348 2.57927 3.11928 2.95873 -0.0415884 0.0801459 -0.0869259 -0.225412 0 0 0 0 0 0 -0.00285538 -0.0312931 -0.142249 36.3089 17.5631 -5.36844 2.54336 6.03126 -1.8897 0.0737611 -0.0906537 -0.228603 40.6481 -9.51471 9.57096 3.6937 -0.0981604 1.83798 0.0865738 -0.0831953 -0.222276 
26.982 1 238 40.2921 2.53918 4.49629 1.39014 -0.25066 -2.26715 0.0484183 -0.0979455 0.228732 0 0 0 0 0 0 -0.00165344 -0.120683 -0.106227 45.2975 2.1629 1.85826 2.15566 -1.02458 -3.24115 0.0511022 -0.105225 0.226152 31.8618 1.89549 6.29544 0.620329 0.546639 -1.26056 0.0457976 -0.0906585 0.231341 
26.982 1 38 40.2069 2.61812 0.431715 -1.66624 -4.67707 -0.427631 0.0290799 0.16759 0.293129 0 0 0 0 0 0 0.00462833 -0.150086 -0.198956 38.0911 7.70559 51.1083 -2.07947 -4.4731 1.47599 0.0241024 0.167403 0.315453 38.9196 -3.47916 29.9191 -1.25347 -4.85008 -2.30811 0.0340909 0.167798 0.270761 
26.982 1 83 0.164423 8.49063 2.41625 -3.55136 0.807345 -4.72399 -0.0416258 -0.342915 -0.116869 0 0 0 0 0 0 -0.0841839 -0.00913598 -0.14248 -2.1287 18.6327 6.41525 -4.08644 1.96665 -4.67992 -0.0524324 -0.35633 -0.116396 5.89661 -2.36371 -2.61753 -3.0132 -0.336612 -4.74672 -0.0307932 -0.329483 -0.11734 
26.982 1 242 0.361497 6.45675 4.31578 -3.58902 -3.26176 -0.0297775 -0.370732 0.323809 0.715549 0 0 0 0 0 0 -0.0481759 -0.00129496 -0.020302 -5.03535 9.87556 11.2599 -4.48811 -1.77203 1.13654 -0.370147 0.329733 0.740594 9.20265 2.2482 -3.46919 -2.68501 -4.74085 -1.16545 -0.371302 0.317922 0.690524 
26.982 1 84 -2.02362 10.338 2.50756 -2.52233 3.80108 -2.34286 0.196158 0.293705 0.312908 0 0 0 0 0 0 -0.208714 0.0499207 -0.148042 40.3154 14.3307 -9.10402 -2.54153 4.73856 -3.93717 0.19812 0.303067 0.315333 40.704 5.82679 13.0491 -2.50895 2.89132 -0.733807 0.19427 0.284353 0.310477 
26.982 1 281 -1.92161 8.31683 4.36943 -4.26663 -10.2508 0.64329 -0.127297 0.031187 0.353917 0 0 0 0 0 0 -0.128327 -0.0448861 -0.0770478 42.9313 22.0573 5.88781 -4.19037 -7.29688 -0.0869272 -0.132131 0.0435927 0.37206 38.3198 -6.0853 1.9719 -4.34593 -13.1889 1.39506 -0.122402 0.0188307 0.335792 
26.982 1 44 -1.93528 6.39023 2.40179 -1.27285 1.8863 0.113187 -0.0708414 -0.0883834 0.315196 0 0 0 0 0 0 -0.217306 0.00692332 -0.133208 35.5362 15.2862 3.37469 -2.0811 5.19199 -0.544071 -0.0745008 -0.0820193 0.333982 45.7364 -3.30831 0.411893 -0.45842 -1.40229 0.793218 -0.0671381 -0.0947258 0.296399 
26.982 1 42 0.118361 6.29107 0.49047 -4.82433 6.08464 -0.313582 0.269312 0.112189 0.0771388 0 0 0 0 0 0 -0.0800062 0.00273413 -0.262681 -2.28872 7.98101 4.76585 -5.15495 7.37416 0.231357 0.271311 0.130704 0.0758917 5.99167 3.83105 -4.95061 -4.48527 4.81286 -0.843073 0.26727 0.0937394 0.0783729 
26.982 1 285 2.33828 8.33032 4.28205 -2.19141 1.89666 -3.83496 0.286398 0.0756846 0.502631 0 0 0 0 0 0 -0.001213 0.00365176 -0.00435527 -8.16973 12.6054 2.34313 -3.74671 3.85738 -3.86024 0.289847 0.0732127 0.529248 15.941 3.34482 5.30408 -0.624921 -0.0532027 -3.79268 0.282932 0.0782209 0.476022 
26.982 1 85 2.35065 8.26393 0.505817 1.12015 -2.27171 5.05653 -0.255742 0.261919 -0.368863 0 0 0 0 0 0 -0.0359935 0.0258898 -0.295571 -6.24555 14.4047 13.0379 -0.174962 -0.876757 7.52778 -0.273411 0.261565 -0.384537 14.0009 1.46559 -13.1861 2.42009 -3.64328 2.59979 -0.238119 0.262331 -0.353176 
26.982 1 48 2.48453 6.37796 2.38763 -0.0480847 -4.60183 0.405199 0.104748 -0.521938 0.134787 0 0 0 0 0 0 -0.00819388 -0.0234205 -0.102451 -7.22087 12.4435 -4.09667 -1.77973 -2.08316 -1.36854 0.111643 -0.538333 0.14777 15.2711 -0.481256 7.85353 1.69215 -7.11054 2.20397 0.0978197 -0.505462 0.121857 
26.982 1 87 4.48395 8.44372 2.38602 2.5426 2.82289 -1.35203 0.558227 -0.343542 0.340889 0 0 0 0 0 0 0.0172858 -0.00149192 -0.0930703 0.175981 12.7561 8.93182 1.91747 3.4407 -1.1759 0.572698 -0.352631 0.361794 11.4758 3.45599 -5.17319 3.17721 2.2257 -1.50725 0.543702 -0.3344 0.320037 
26.982 1 246 4.66258 6.47577 4.4341 1.48748 10.2411 -6.9457 -0.194712 -0.203101 -0.0650037 0 0 0 0 0 0 -0.00331089 -0.00402743 -0.012665 9.74451 9.47874 8.90145 2.01059 11.1311 -5.84583 -0.202602 -0.208737 -0.0686292 2.25417 2.69132 -0.957287 0.973013 9.36819 -8.0311 -0.186844 -0.197423 -0.0613695 
26.982 1 88 2.39804 10.2842 2.44094 -3.60389 -0.498176 6.17494 -0.0746111 0.521587 0.000875657 0 0 0 0 0 0 -0.0367943 0.0735408 -0.144178 -5.06651 15.2911 6.55755 -5.1725 0.0548187 7.62204 -0.0841341 0.539815 0.00264128 12.9666 4.68344 -2.72612 -2.02402 -1.03765 4.74553 -0.0651071 0.503363 -0.000863145 
26.982 1 46 4.68124 6.53327 0.434417 0.681835 6.50309 -0.48325 0.0295184 -0.660008 0.179739 0 0 0 0 0 0 0.00998226 -0.0271132 -0.272867 0.681281 -0.804744 7.89794 -0.335126 6.31957 0.641327 0.0336864 -0.701263 0.183152 11.3106 13.1091 -8.08812 1.69986 6.70914 -1.57254 0.0253096 -0.618703 0.176368 
26.982 1 289 6.79519 8.45021 4.30036 2.3257 4.10204 1.60981 0.0369822 -0.102122 0.259046 0 0 0 0 0 0 0.00661696 -0.00691489 -0.0176139 12.6589 7.95724 12.5798 3.14114 4.74206 4.62604 0.0374301 -0.104012 0.27167 3.18287 8.2593 -4.90938 1.5084 3.47355 -1.39364 0.0365001 -0.100227 0.246452 
26.982 1 89 6.82487 8.48853 0.56722 1.06063 -3.29434 5.4266 0.0320474 0.0228303 -0.0281175 0 0 0 0 0 0 0.0384964 -0.0325522 -0.279814 10.7373 11.2861 -2.15583 1.71561 -2.36808 4.40835 0.0373561 0.0123207 -0.0378377 5.12527 5.02636 2.23358 0.399914 -4.20296 6.47638 0.0267062 0.0333304 -0.0183725 
26.982 1 52 6.91965 6.51316 2.40691 -2.39762 -0.461718 1.70947 -0.0409882 0.0241256 0.0933014 0 0 0 0 0 0 0.0512834 -0.0104825 -0.137603 9.34851 6.45039 9.03753 -2.25302 -0.654083 2.44168 -0.0385131 0.022924 0.0963749 6.71185 5.81426 -5.19285 -2.54614 -0.25101 1.01336 -0.0434615 0.0253765 0.0902826 
26.982 1 91 9.16147 8.41408 2.48783 -2.06475 2.23508 -3.23513 -0.162852 -0.192753 0.558211 0 0 0 0 0 0 0.0237619 -0.0547477 -0.14054 11.9642 6.01834 5.44421 -1.84804 2.40259 -2.46924 -0.165035 -0.19608 0.564515 8.20315 10.1337 -1.43019 -2.28717 2.08003 -3.96933 -0.160655 -0.189449 0.551917 
26.982 1 250 8.99319 6.46759 4.56818 -3.79681 0.159519 5.06922 0.211369 0.0349543 -0.666788 0 0 0 0 0 0 0.010343 -0.0103553 -0.0664903 8.21895 10.5821 19.702 -3.88468 2.20063 7.90028 0.211463 0.0304516 -0.693529 11.6118 1.6543 -11.5566 -3.71196 -1.84945 2.23935 0.211273 0.0394477 -0.640075 
26.982 1 290 9.04404 10.4887 4.679 -1.99373 -2.58094 -3.12804 0.213049 -0.178315 -1.12583 0 0 0 0 0 0 0.0100755 -0.0106367 -0.0370738 9.37832 20.4149 23.8819 -1.30887 -0.813358 0.45073 0.218412 -0.183964 -1.15377 10.5596 -0.0245649 -15.4049 -2.68456 -4.34258 -6.68441 0.207642 -0.172728 -1.09796 
26.982 1 90 8.96904 10.3045 0.703532 2.66492 1.77457 -1.75142 0.262044 0.642654 -0.716965 0 0 0 0 0 0 0.0306216 -0.0140639 -0.284806 12.3742 4.40929 42.1151 3.39816 0.841187 -0.569818 0.257383 0.660214 -0.741942 7.41646 15.6994 39.4891 1.92624 2.74048 -2.90461 0.266703 0.625071 -0.691991 
26.982 1 293 11.2723 8.43319 4.56781 -2.21422 1.90718 1.02636 -0.236171 0.372909 -0.35208 0 0 0 0 0 0 0.00670343 -0.00136496 -0.0598531 9.71581 15.6495 20.6048 -2.59344 4.6485 4.38588 -0.240799 0.379152 -0.368382 14.3374 0.497799 -12.3606 -1.83161 -0.838415 -2.30934 -0.231549 0.366598 -0.335864 
26.982 1 56 11.3066 6.50172 2.46371 -1.02249 -1.14316 -1.63327 0.0646266 -0.337639 0.437736 0 0 0 0 0 0 0.0196589 -0.0461512 -0.212156 15.1065 8.7554 7.43355 -0.526283 0.0315576 -0.253903 0.0609901 -0.355332 0.446149 9.04008 3.48345 -3.47805 -1.5111 -2.29584 -2.97975 0.0682988 -0.319958 0.429347 
26.982 1 95 13.4468 8.31079 2.62661 -0.618747 2.0151 0.519573 0.182712 0.346882 -0.000671261 0 0 0 0 0 0 0.0583533 0.00788544 -0.22474 14.0523 13.1856 -3.97884 -1.31039 3.71028 0.0215405 0.183099 0.371229 0.00826541 13.9762 2.73427 8.28049 0.0743878 0.328816 1.05474 0.182293 0.3225 -0.00959504 
26.982 1 254 13.5041 6.46778 4.59177 -0.409902 -4.09295 -4.36063 0.0173083 -0.0031118 -0.20329 0 0 0 0 0 0 0.00148235 0.00198962 -0.0745461 11.4053 4.83925 17.1944 -0.973102 -5.05766 -1.69925 0.00996437 -0.0045509 -0.198727 16.7627 7.35543 -8.95256 0.159155 -3.10596 -7.01026 0.0246524 -0.00171096 -0.207888 
26.982 1 294 13.4863 10.3116 4.4913 5.23983 2.49681 4.57149 0.0540518 0.419392 -0.0864692 0 0 0 0 0 0 0.015256 0.0136178 -0.0599354 16.0473 26.3993 0.151231 5.22644 5.18086 4.34116 0.0574068 0.43884 -0.0735595 12.0685 -6.39173 7.96098 5.25729 -0.199771 4.8302 0.050695 0.399912 -0.0993988 
26.982 1 100 15.6617 10.6733 2.44683 1.19849 -5.76044 2.05924 0.00166297 -0.192091 0.444222 0 0 0 0 0 0 0.0205083 -0.0735998 -0.223237 17.9737 29.4085 -7.17035 1.14213 -2.49785 1.28961 0.00349655 -0.205868 0.457752 14.1171 -8.62497 11.0844 1.25831 -9.01016 2.85759 -0.000216957 -0.178385 0.430757 
26.982 1 93 11.4357 8.40608 0.570628 1.27334 7.53814 1.3188 -0.572328 -0.114092 -0.122754 0 0 0 0 0 0 0.0668514 -0.0514419 -0.280534 10.765 6.33908 40.717 1.20303 7.95319 2.56096 -0.583363 -0.121955 -0.127133 13.6252 9.8336 40.6818 1.34625 7.14309 0.111562 -0.56128 -0.106269 -0.118331 
26.982 1 60 15.8102 6.34292 2.66262 0.431199 6.13896 -0.0988055 -0.17269 0.849829 -0.96068 0 0 0 0 0 0 0.0085297 0.036225 -0.281869 22.8358 10.1781 -3.94414 1.52866 6.44975 -1.03609 -0.173181 0.868243 -0.97435 9.52854 1.69984 8.28502 -0.673721 5.84154 0.866451 -0.172281 0.831391 -0.946986 
26.982 1 297 15.6786 8.31879 4.51666 3.0491 4.45693 5.61384 -0.132662 0.339459 -0.123439 0 0 0 0 0 0 0.00050135 0.0281046 -0.0966501 20.8366 17.3489 0.0884866 3.78116 6.96297 6.18518 -0.137713 0.370453 -0.119488 11.2887 -1.40268 8.0535 2.31554 1.96338 5.06514 -0.127681 0.308407 -0.127401 
26.982 1 99 17.979 8.32116 2.62048 -2.66068 1.49692 0.787715 0.111214 0.54555 -0.391555 0 0 0 0 0 0 0.00667769 0.0215728 -0.276782 18.6077 10.9735 -2.18359 -1.95341 2.67011 1.28375 0.121467 0.568319 -0.388764 17.7399 4.92776 6.44387 -3.3734 0.330909 0.322258 0.100856 0.522769 -0.394327 
26.982 1 258 17.8576 6.49633 4.49655 5.58316 -1.08954 0.891943 0.810405 -0.331016 0.278747 0 0 0 0 0 0 0.0295029 0.00385654 -0.0870038 16.5011 9.80191 4.70863 5.71966 -1.63303 0.767503 0.846672 -0.329948 0.282943 19.5725 2.41825 3.3828 5.43248 -0.529276 1.03656 0.774048 -0.332155 0.274574 
26.982 1 64 20.492 6.46635 2.45188 2.54061 0.0973352 1.77182 -0.650583 -0.244371 -0.0708859 0 0 0 0 0 0 -0.0278559 0.00778256 -0.252534 20.2461 4.44834 -1.65016 3.13642 -0.320868 1.6794 -0.662743 -0.235303 -0.05714 20.7237 7.71905 5.55113 1.9349 0.540967 1.88973 -0.638459 -0.253485 -0.0846044 
26.982 1 104 20.1086 10.5058 2.82437 -3.36936 5.42302 0.191759 0.0462355 -0.179409 -0.5543 0 0 0 0 0 0 -0.000290883 -0.0220562 -0.25908 19.7704 21.2891 4.83426 -3.1355 7.60722 1.42339 0.0543696 -0.196656 -0.577085 20.4507 -0.881698 -0.168419 -3.60617 3.24951 -1.00727 0.038089 -0.162112 -0.531573 
26.982 1 301 20.1887 8.42573 4.41028 -2.76506 2.92861 2.81159 0.106662 -0.336331 0.539123 0 0 0 0 0 0 -0.0048275 -0.00034112 -0.0795755 16.5987 2.89817 2.7158 -3.15676 2.33743 2.16224 0.108274 -0.339525 0.56092 23.7524 13.2617 5.21985 -2.38382 3.5423 3.48215 0.105009 -0.333168 0.517399 
26.982 1 103 22.5466 8.26771 2.47995 2.32955 -2.8443 -3.00475 -0.149475 0.747746 -0.0292788 0 0 0 0 0 0 -0.0543081 0.0414697 -0.239765 19.5149 17.0282 2.05648 2.06066 -2.55806 -3.59345 -0.167011 0.784915 -0.0280592 25.1646 -1.14345 1.92101 2.59334 -3.10201 -2.39001 -0.131896 0.710611 -0.0305148 
26.982 1 262 22.4467 6.40342 4.49087 3.06401 2.12261 2.91606 -0.00750201 -0.0846587 0.230936 0 0 0 0 0 0 -0.0146698 0.0028799 -0.0741959 21.1061 6.4579 3.79184 3.31341 2.08168 2.79825 -0.0137481 -0.068898 0.23543 23.3835 5.56983 4.3006 2.81189 2.18072 3.06044 -0.00121216 -0.100454 0.22643 
26.982 1 105 24.6871 8.32531 0.59216 -0.137708 -0.628045 3.64999 0.347705 0.0358409 0.252583 0 0 0 0 0 0 -0.00390175 0.00674021 -0.278936 23.9391 14.915 50.9401 -0.323708 -0.365989 5.02195 0.346077 0.0492909 0.254915 24.6744 1.03574 30.3901 0.0517404 -0.878693 2.2869 0.349383 0.022374 0.250168 