ITEM: TIMESTEP
13675
ITEM: NUMBER OF ATOMS
4000
ITEM: BOX BOUNDS pp pp pp
-2.85353 43.3535
0.749606 39.7504
0.780961 39.719
ITEM: ATOMS mass type id x y z vx vy vz fx fy fz xrad yrad zrad vxrad vyrad vzrad fxrad fyrad fzrad xub yub zub vxub vyub vzub fxub fyub fzub xlb ylb zlb vxlb vylb vzlb fxlb fylb fzlb 
26.982 1 43 -0.530301 4.6754 2.53695 -3.21991 1.508 -5.70444 -0.180927 0.00454383 0.973484 0 0 0 0 0 0 -0.0613878 -0.0792216 -0.252132 -16.2032 1.0637 15.4713 -4.33137 1.73152 -3.88244 -0.178454 0.00920737 0.995664 20.2206 7.15084 -11.7696 -2.11183 1.3148 -7.49602 -0.18343 -0.000120686 0.951324 
26.982 1 202 -0.588948 2.52758 4.61669 2.05931 0.106298 -5.72284 -0.119945 0.547187 -0.0515726 0 0 0 0 0 0 -0.0749971 -0.154013 -0.190929 1.82938 -13.7209 5.39595 3.4222 -1.89957 -6.16081 -0.127356 0.561073 -0.0511932 2.07558 17.5224 2.75181 0.691719 2.14989 -5.24136 -0.112623 0.533297 -0.0519817 
26.982 1 961 -2.8121 16.424 16.3783 3.33882 0.953924 -0.522581 -0.0214524 -0.0448512 -0.285978 0 0 0 0 0 0 -0.118488 -0.0763708 -0.0866818 27.9844 20.4955 36.7437 2.39565 2.47039 2.09822 -0.0215196 -0.0569502 -0.289436 53.3236 12.1584 -4.16774 4.289 -0.538092 -3.11534 -0.0214439 -0.032801 -0.28248 
26.982 1 41 43.3954 4.49245 0.674901 5.50713 1.21615 -0.994625 -0.151382 0.133089 0.0831522 0 0 0 0 0 0 0.0557405 -0.0200415 -0.255951 -11.7853 11.0343 8.53338 4.97405 3.41391 -2.24087 -0.149796 0.147474 0.087713 11.7662 -3.12764 -8.66278 6.04577 -0.946015 0.286567 -0.153026 0.118719 0.0785675 
26.982 1 2839 40.7246 20.286 18.2879 4.70662 -1.378 5.42981 0.881946 0.0491959 0.605553 0 0 0 0 0 0 0.0439271 0.112054 -0.0588621 38.3965 11.8955 32.5033 4.85643 -1.50565 7.06683 0.906723 0.03772 0.623138 38.0628 28.863 4.15845 4.54829 -1.21612 3.835 0.857053 0.0606212 0.587919 
26.982 1 245 1.59843 4.39587 4.86747 -1.19429 -2.27611 3.05358 0.291976 -0.0799276 -0.483524 0 0 0 0 0 0 -0.00638531 -0.0515213 -0.0873091 -1.64702 7.14206 4.42406 -2.28983 -2.27801 2.2504 0.304268 -0.0773695 -0.481844 9.37565 0.567754 4.16518 -0.0979097 -2.23276 3.88905 0.2796 -0.0824974 -0.485207 
26.982 1 8 1.5337 2.60737 2.76487 2.89377 -0.697142 -1.79905 0.628914 0.686559 -0.0698174 0 0 0 0 0 0 -0.0613068 -0.137015 -0.193583 -3.69358 16.1471 3.04635 2.4724 0.195999 -2.1342 0.653932 0.697505 -0.0703467 11.2763 -12.2385 1.17446 3.31831 -1.56956 -1.42979 0.603843 0.675615 -0.0693273 
26.982 1 47 4.03408 4.59103 2.64234 0.701505 -1.1263 -7.27993 0.0905724 -0.919431 0.0996395 0 0 0 0 0 0 -0.00894473 0.0101371 -0.221552 -2.53157 16.9775 -3.9387 -0.121755 0.106157 -9.61246 0.0907159 -0.930846 0.108883 14.5088 -8.76003 7.9139 1.52841 -2.30188 -4.92407 0.0903855 -0.90801 0.0902915 
26.982 1 206 4.06639 2.53368 4.54094 1.42651 -4.26525 -0.829499 0.0793226 0.424201 0.261632 0 0 0 0 0 0 0.00979985 -0.10908 -0.0850345 9.17211 -11.4451 20.5215 1.60136 -5.12481 1.26675 0.0889028 0.445573 0.267124 2.8628 15.2731 -12.5036 1.25036 -3.35881 -2.89513 0.0697334 0.402885 0.256153 
26.982 1 2837 38.6674 20.1749 16.4019 -3.13544 -1.95819 -3.51603 -0.160019 0.49076 0.445627 0 0 0 0 0 0 -0.0845405 0.101905 -0.116053 32.827 38.8384 42.2757 -3.56569 -0.609673 -0.948319 -0.173873 0.501447 0.455874 40.1321 1.78122 -9.56043 -2.70292 -3.26596 -6.0482 -0.146202 0.480081 0.435394 
26.982 1 2801 -2.9256 20.1658 16.4884 0.810808 2.21923 2.00342 -0.256287 -0.136247 -0.399814 0 0 0 0 0 0 -0.0883046 0.0145062 -0.208955 40.3795 15.3294 30.6958 0.260183 1.52639 4.65777 -0.257874 -0.152459 -0.4119 40.7008 25.059 2.14167 1.36626 2.93593 -0.604454 -0.254793 -0.120008 -0.387778 
26.982 1 7 4.12188 0.534046 2.81846 3.40604 4.34358 -0.557583 -0.0434249 -0.148159 -0.355555 0 0 0 0 0 0 0.00285844 -0.204802 -0.11502 2.85258 36.7196 -3.21249 2.89925 3.91047 0.468837 -0.0425394 -0.149372 -0.36471 9.24636 44.2394 7.58973 3.90671 4.80788 -1.53902 -0.0443079 -0.146977 -0.346494 
26.982 1 249 6.43366 4.63303 4.61983 -8.21676 -2.25089 5.10766 -0.139731 -0.223424 0.0570889 0 0 0 0 0 0 -0.0118329 -0.038012 -0.0748645 8.07815 -8.58059 11.2977 -8.40569 -3.59437 6.25988 -0.148847 -0.214426 0.0669584 8.04966 16.8414 -3.18833 -8.03377 -0.855706 3.99029 -0.130579 -0.232404 0.0472383 
26.982 1 12 6.42663 2.72349 2.6916 3.1007 -0.926603 3.40419 0.124936 -0.337892 0.101216 0 0 0 0 0 0 0.0573915 -0.143131 -0.174449 8.10069 6.50118 -5.3832 2.82455 0.38649 3.1298 0.126352 -0.34442 0.100295 8.01833 -2.25286 9.50513 3.36666 -2.19083 3.71258 0.123572 -0.331402 0.102044 
26.982 1 51 8.72913 4.70242 2.68403 -2.22488 5.64812 2.81064 0.145001 -0.49319 -0.164732 0 0 0 0 0 0 -0.0490438 -0.101467 -0.170901 -5.08 13.4942 -18.241 -2.89326 6.87904 0.75706 0.147791 -0.504446 -0.156115 25.2177 -5.07887 22.3304 -1.57152 4.46998 4.9012 0.142256 -0.481978 -0.173351 
26.982 1 210 8.98442 2.65968 4.76977 -3.96992 1.92723 -3.42647 -0.294648 0.0635062 -0.554505 0 0 0 0 0 0 -0.0380889 -0.136866 -0.136273 3.69553 4.80313 10.3309 -4.62955 3.84456 -1.62954 -0.293611 0.0716482 -0.569572 16.963 -0.75502 -2.00791 -3.31908 0.0460169 -5.18794 -0.295578 0.0553354 -0.539426 
26.982 1 2835 36.449 20.2845 18.5201 -2.19967 -0.934315 0.993669 -0.150299 0.0893911 -0.202257 0 0 0 0 0 0 -0.128372 0.0769584 -0.0461306 33.7041 19.5022 28.8993 -3.08697 -0.602942 3.52013 -0.161038 0.0919227 -0.209874 35.3684 21.3211 8.29321 -1.30008 -1.22336 -1.48476 -0.139538 0.0868039 -0.194691 
26.982 1 2821 20.3756 20.4007 16.37 0.742164 2.55873 -2.71586 -0.0913704 -0.742119 0.809072 0 0 0 0 0 0 -0.0610494 0.0842455 -0.11144 10.2938 52.5852 15.6063 0.45693 6.69344 -2.17776 -0.102924 -0.753302 0.813092 30.5324 -11.6185 17.009 1.03649 -1.55244 -3.21282 -0.0798278 -0.730984 0.805172 
26.982 1 253 10.9378 4.64356 4.65075 1.35308 -0.0830947 5.3647 0.425985 0.136551 -0.000875688 0 0 0 0 0 0 0.00061488 -0.0391487 -0.0417613 9.11105 -0.0711003 35.5723 0.617546 0.389145 11.6622 0.440352 0.137258 0.00406703 15.0067 8.41872 -27.4296 2.08875 -0.500434 -0.891593 0.411728 0.135818 -0.00574296 
26.982 1 16 11.252 2.78291 2.76262 0.996168 4.79189 2.97744 -0.0725906 0.0639322 -0.00251323 0 0 0 0 0 0 -0.0326202 -0.190079 -0.163185 11.4888 20.6299 -6.32529 -0.184741 9.74223 2.97225 -0.0649734 0.0580265 -0.00869659 13.2929 -16.3186 10.4747 2.18726 -0.130101 3.00874 -0.0801581 0.0697781 0.00369082 
26.982 1 55 13.3711 4.67872 2.697 5.84707 3.51893 -3.74655 -0.02176 -0.268739 0.279502 0 0 0 0 0 0 0.0468313 -0.0679645 -0.148455 13.6003 5.64992 11.5169 5.06892 5.38176 -1.2369 -0.0296615 -0.283437 0.281535 14.8771 2.69931 -7.36268 6.64105 1.7034 -6.21338 -0.0137812 -0.254055 0.277512 
26.982 1 214 13.5325 2.54456 4.87928 -0.497071 -2.5787 2.95117 -0.546252 0.405388 -0.565989 0 0 0 0 0 0 -0.0156676 -0.107559 -0.13325 25.3589 4.78474 10.9854 0.252958 -1.78959 4.19242 -0.559168 0.420623 -0.592366 3.43265 -0.908391 -2.45576 -1.23044 -3.33594 1.73695 -0.533285 0.390168 -0.539564 
26.982 1 14 13.2485 2.7393 0.614347 2.52753 -1.12769 -3.42555 -0.186749 -0.343914 0.605655 0 0 0 0 0 0 0.0329999 -0.133451 -0.189526 9.45615 25.8558 33.1296 1.59581 4.62499 -3.09117 -0.198439 -0.348998 0.621482 18.7817 -21.6625 47.9622 3.47733 -6.84412 -3.71572 -0.175042 -0.338815 0.589889 
26.982 1 998 40.8597 18.3784 16.4802 1.18338 4.13587 -0.756205 0.37661 -0.476712 -0.0864901 0 0 0 0 0 0 0.0625305 0.000843245 -0.0553874 30.0042 42.0302 26.9978 1.62183 7.27033 0.435688 0.399209 -0.500969 -0.0959287 46.8216 -5.39086 5.78361 0.750586 1.01453 -1.9162 0.353873 -0.452411 -0.0770298 
26.982 1 20 15.6396 2.48579 2.9751 -1.84147 0.0867452 -2.97297 -0.0754539 -0.1387 -0.0808083 0 0 0 0 0 0 0.0133229 -0.162958 -0.205424 27.6793 -13.6066 7.11925 -0.0953348 -0.32181 -3.48537 -0.0849596 -0.153008 -0.100218 4.68969 17.3931 -2.45511 -3.58447 0.528933 -2.41703 -0.0659493 -0.124349 -0.0613979 
26.982 1 257 15.5688 4.59611 4.54753 1.13491 -3.6905 3.44162 0.021074 0.0965889 0.311775 0 0 0 0 0 0 0.0156663 -0.029159 -0.074173 22.6924 -14.6328 10.3675 1.28503 -5.36345 5.47928 0.0206265 0.103209 0.330127 9.57002 22.7668 -2.45828 0.991024 -1.9801 1.43898 0.0215187 0.0899607 0.293489 
26.982 1 218 17.9255 2.76817 4.74476 -0.556225 -0.796729 1.90366 0.216412 -0.538129 0.231173 0 0 0 0 0 0 0.0399424 -0.136127 -0.11555 9.47386 -4.395 2.63984 -2.07369 -0.580416 0.598707 0.225963 -0.543969 0.235535 26.874 8.76655 5.69267 0.95518 -0.978173 3.24213 0.206799 -0.532245 0.226831 
26.982 1 59 18.0177 4.43212 2.72354 -0.452 2.99003 1.85123 -0.0883023 0.752046 0.482767 0 0 0 0 0 0 0.00700111 -0.0161685 -0.200143 28.9161 -8.10478 10.829 0.591854 1.30454 2.89152 -0.0796252 0.770212 0.504412 7.59548 15.9144 -6.62652 -1.50519 4.70502 0.858454 -0.0970275 0.733912 0.461155 
26.982 1 24 20.2276 2.67879 2.78693 -0.949755 0.828957 0.665318 0.137186 -0.0263447 -0.414502 0 0 0 0 0 0 0.000634514 -0.157866 -0.183576 12.6562 10.4733 11.629 -2.1699 3.52273 2.30047 0.139464 -0.0276808 -0.423512 27.7435 -6.2534 -7.36169 0.266963 -1.81933 -0.921171 0.134864 -0.0249649 -0.405497 
26.982 1 261 20.4079 4.61405 4.72737 2.85102 4.49186 1.3207 -0.162536 -0.12172 0.313003 0 0 0 0 0 0 0.000775628 -0.0547847 -0.0750472 19.7395 5.7756 3.25214 3.37501 5.83699 0.662349 -0.15574 -0.123864 0.313106 21.0215 2.39657 5.05271 2.32469 3.18299 2.01571 -0.169373 -0.119609 0.312861 
26.982 1 63 22.6956 4.75109 2.74615 6.2066 -3.85091 0.566782 -0.149149 -0.193653 0.378166 0 0 0 0 0 0 0.0163265 -0.0974784 -0.200339 28.6484 19.4875 7.5168 6.35659 -1.16162 1.75778 -0.14845 -0.20348 0.38508 16.2079 -11.0554 -3.27316 6.06378 -6.50477 -0.58508 -0.149838 -0.183867 0.371219 
26.982 1 222 22.604 2.73654 4.57841 -1.89872 6.08598 3.45895 -0.00703715 0.533342 0.17328 0 0 0 0 0 0 -0.00249053 -0.109389 -0.0917978 19.3237 13.4213 6.41563 -2.58517 9.30665 3.46865 -0.00295435 0.556265 0.192408 25.3205 -9.15252 1.59507 -1.2132 2.90153 3.48077 -0.0111431 0.510496 0.154168 
26.982 1 28 25.0608 2.57455 2.89929 7.58504 4.29186 -5.34748 -0.209142 0.459538 -0.262613 0 0 0 0 0 0 0.035755 -0.160915 -0.203726 27.3387 9.43777 14.222 8.29056 4.75244 -3.94376 -0.212989 0.470538 -0.270577 21.7608 -5.4523 -9.82745 6.88733 3.87927 -6.73672 -0.205239 0.448572 -0.254717 
26.982 1 265 24.968 4.67806 4.66502 -1.58006 2.01036 4.85517 0.0637574 -0.00824546 0.00477239 0 0 0 0 0 0 0.00299031 -0.0592658 -0.0762788 27.3818 -15.8157 3.0233 -1.51492 1.37057 4.11129 0.059568 -0.0166255 0.0151972 21.5005 24.0827 5.10505 -1.63712 2.68925 5.62421 0.0680044 0.000114097 -0.005674 
26.982 1 999 41.014 16.3213 18.3749 -1.02053 4.84958 2.92206 0.0969684 0.0376333 -0.359018 0 0 0 0 0 0 0.0241262 -0.040753 -0.0093908 28.0096 21.0615 29.1897 -1.0525 4.4838 3.99237 0.110267 0.0223638 -0.37505 49.0545 11.4407 7.53892 -0.990768 5.25115 1.8738 0.0835528 0.0528695 -0.343006 
26.982 1 23 22.6054 0.841228 2.84104 0.281456 -2.30892 -2.16901 0.223277 -0.180298 -0.183713 0 0 0 0 0 0 0.00853514 -0.189687 -0.157885 13.2755 57.0593 11.9291 -0.81212 0.0635785 -0.870345 0.236012 -0.182524 -0.181463 31.4196 24.5068 -7.47904 1.37695 -4.64841 -3.41477 0.210573 -0.178056 -0.185975 
26.982 1 2813 10.8702 20.0986 16.2277 4.44458 -0.34749 5.11564 0.309922 0.111722 -0.118521 0 0 0 0 0 0 0.00709746 0.113689 -0.122491 15.4084 21.9821 34.2653 5.59698 -0.533954 8.46272 0.314268 0.121285 -0.114377 8.48379 18.4418 -2.01417 3.27699 -0.124989 1.7955 0.305618 0.102175 -0.122584 
26.982 1 67 27.2619 4.65742 2.71411 -4.32996 -1.25337 -1.94144 -0.219233 -0.461139 0.337122 0 0 0 0 0 0 -0.0610374 -0.0825202 -0.216671 27.1857 -3.77817 8.88965 -4.54747 -2.02852 -1.82498 -0.231337 -0.475732 0.334858 25.7542 11.97 -4.78632 -4.10721 -0.442822 -2.02742 -0.207075 -0.446575 0.339409 
26.982 1 226 27.3638 2.59717 4.83279 -1.38861 -1.50074 2.21897 -0.206061 0.37158 -0.174817 0 0 0 0 0 0 -0.0296214 -0.168728 -0.129981 27.405 -6.61327 13.2301 -1.08839 -3.03074 3.11947 -0.222006 0.386215 -0.1769 25.7583 10.7291 -4.81453 -1.68094 0.0838901 1.34311 -0.190011 0.357 -0.172791 
26.982 1 32 29.6387 2.60035 2.9472 -5.68717 -0.665987 -2.24241 -0.223671 -0.171147 -0.680415 0 0 0 0 0 0 -0.0926794 -0.198827 -0.149926 15.0964 7.07877 19.7588 -6.90559 0.70504 0.249628 -0.231757 -0.171694 -0.714901 42.0125 -3.02448 -15.209 -4.46094 -1.98977 -4.704 -0.21554 -0.170565 -0.645925 
26.982 1 269 29.6438 4.6256 4.64812 -1.17525 -1.92276 -4.48051 -0.261242 0.279835 -0.107696 0 0 0 0 0 0 -0.0239277 -0.0448055 -0.0483805 27.0004 13.5356 21.0853 -1.04199 -1.14199 -2.77054 -0.268757 0.294265 -0.107277 30.1697 -5.38833 -12.8982 -1.29898 -2.67137 -6.15293 -0.25367 0.26539 -0.108098 
26.982 1 2811 8.82445 20.3492 18.2097 1.01875 1.16931 0.0486404 -0.429359 0.116746 0.0676748 0 0 0 0 0 0 -0.0710482 0.121672 -0.0792607 9.42542 22.8311 33.498 1.73966 1.61549 2.98627 -0.442456 0.124059 0.0739912 10.9861 18.0567 2.93357 0.2932 0.754217 -2.86385 -0.416213 0.109409 0.0614278 
26.982 1 71 31.8149 4.40086 2.77661 3.4752 3.07523 -0.403981 -0.0888665 0.533258 -0.478187 0 0 0 0 0 0 0.0312238 -0.0156996 -0.15647 30.197 14.2187 0.249739 3.42751 5.33988 -0.677755 -0.0867299 0.561807 -0.503678 30.6321 -6.52273 4.07978 3.52157 0.849707 -0.0853717 -0.0910344 0.50466 -0.452629 
26.982 1 230 31.8215 2.63773 4.76443 0.578004 6.02934 0.0434861 0.144155 -0.178017 0.273739 0 0 0 0 0 0 -0.0274492 -0.109046 -0.0604781 18.061 -4.2091 -0.353526 -0.97486 5.47151 -2.27921 0.152858 -0.173356 0.280571 42.8301 8.39018 8.81261 2.13486 6.64273 2.40598 0.135457 -0.182616 0.266892 
26.982 1 273 34.0983 4.54619 4.64708 4.60201 6.09479 5.25751 0.0713383 0.47402 0.33618 0 0 0 0 0 0 0.0233541 -0.0056697 -0.063428 41.7759 20.3697 -4.08006 5.52285 7.45533 3.35794 0.0803674 0.496401 0.348237 23.0142 -12.4037 12.2312 3.67516 4.76524 7.18687 0.0622443 0.451546 0.324183 
26.982 1 36 33.9534 2.66058 2.80318 9.24856 4.111 -3.84422 0.367572 -0.309775 -0.546782 0 0 0 0 0 0 0.0763346 -0.109777 -0.224671 35.415 -0.913765 -7.70528 9.88356 3.76757 -5.9152 0.370005 -0.308052 -0.575347 29.1011 5.0605 12.1132 8.60552 4.49757 -1.72901 0.365107 -0.311513 -0.51821 
26.982 1 31 31.9507 0.599202 2.9356 3.04804 0.138905 -3.20501 -0.239617 0.10366 -0.923575 0 0 0 0 0 0 -0.0412856 -0.234158 -0.153022 29.789 19.6426 4.6321 2.86126 -1.45817 -4.29717 -0.241705 0.0931811 -0.954432 31.2973 61.5994 -0.0530056 3.23209 1.77799 -2.08409 -0.237507 0.114195 -0.892722 
26.982 1 233 34.1008 0.643564 4.65416 1.40944 -1.45814 0.979872 0.283009 0.0379742 0.229374 0 0 0 0 0 0 0.0377812 -0.183632 -0.161935 33.7871 36.9628 -9.26391 2.07147 -0.347705 -1.45781 0.287979 0.0361085 0.230835 31.1002 44.3342 17.5721 0.743816 -2.5257 3.46457 0.278029 0.0398956 0.227887 
26.982 1 75 36.3661 4.66169 2.54448 3.84987 -1.10787 -1.19813 0.0830075 -0.022333 -0.141122 0 0 0 0 0 0 -0.0337773 -0.0328176 -0.235082 39.3766 17.4146 5.18065 4.04198 1.61795 -1.40415 0.0797627 -0.0175422 -0.136568 29.3596 -9.28512 -1.29047 3.64496 -3.80969 -0.936037 0.0862833 -0.0272489 -0.145665 
26.982 1 234 36.3066 2.77091 4.49818 -2.68943 4.18792 8.38254 0.148128 -0.0351033 -0.184382 0 0 0 0 0 0 0.0076584 -0.107132 -0.131996 48.0275 0.356908 0.128275 -1.57732 4.30408 7.5079 0.154321 -0.0319258 -0.177113 20.6151 3.96263 7.82612 -3.80929 4.11432 9.30132 0.141902 -0.0383005 -0.191628 
26.982 1 40 38.7482 2.62264 2.32396 0.117262 -3.32726 -2.77693 -0.434525 -0.027577 0.201753 0 0 0 0 0 0 -0.0482528 -0.179904 -0.182495 46.3082 19.2431 -6.80557 0.971724 -2.09975 -4.38776 -0.44545 -0.028097 0.215834 26.6617 -15.262 10.2461 -0.741313 -4.52249 -1.1086 -0.42359 -0.0270491 0.187618 
26.982 1 277 38.6751 4.37967 4.29374 -2.22539 -3.32454 -2.76861 -0.160426 0.385688 0.812699 0 0 0 0 0 0 -0.0197039 -0.0259818 -0.0524075 37.3382 25.8163 -5.70719 -2.64142 -1.04808 -2.75972 -0.172591 0.397291 0.84185 35.4816 -18.1727 13.2665 -1.81042 -5.56521 -2.72014 -0.148267 0.374051 0.783555 
26.982 1 2803 -0.60741 20.123 18.2568 -2.98176 0.374628 2.31303 -0.328972 -0.599522 0.559139 0 0 0 0 0 0 -0.175073 0.0498778 -0.0400588 14.5576 13.8595 22.5942 -1.15869 -1.5236 1.97215 -0.346001 -0.616813 0.586093 -10.7499 26.4342 13.9518 -4.80126 2.2952 2.68877 -0.311974 -0.582191 0.532191 
26.982 1 237 38.6913 0.895507 4.57542 1.7852 0.157848 -4.80167 0.0346717 -0.231719 -0.10202 0 0 0 0 0 0 0.0115221 -0.196702 -0.198855 40.7025 9.23577 14.9631 2.44295 0.757332 -4.9958 0.033846 -0.256873 -0.111718 32.1567 -8.84838 -6.87492 1.12513 -0.399638 -4.56964 0.0354772 -0.206582 -0.0923856 
26.982 1 4 43.3639 2.75057 2.77064 5.01483 -1.0687 -4.52575 -0.123356 -0.242527 0.141573 0 0 0 0 0 0 0.0438246 -0.21001 -0.150839 25.3268 -0.230465 5.76007 3.84364 -1.80313 -4.28575 -0.125243 -0.244672 0.14523 55.8774 4.46508 -1.45709 6.18085 -0.30082 -4.71697 -0.121516 -0.240408 0.13792 
26.982 1 241 -2.93693 4.73206 4.53907 3.50899 7.46678 3.79933 -0.11959 0.101655 -0.22852 0 0 0 0 0 0 -0.0900478 -0.152656 -0.186675 -6.71205 11.4613 -9.26111 3.99 8.60888 1.07575 -0.124116 0.0898202 -0.237216 6.3894 -3.06203 17.2379 3.01788 6.36694 6.56131 -0.1151 0.113434 -0.219833 
26.982 1 79 40.8168 4.5218 2.5629 -2.97159 -4.61413 -7.36456 0.599609 0.0568528 -0.0450551 0 0 0 0 0 0 0.02161 -0.0187465 -0.155416 32.4276 25.952 -15.0156 -4.23853 -2.54252 -10.4255 0.612939 0.0666816 -0.0316299 44.1776 -18.0391 18.9675 -1.70514 -6.66214 -4.24673 0.58625 0.0469949 -0.0584982 
26.982 1 238 41.0601 2.69488 4.67254 -3.33101 0.0625018 6.07434 -0.0163329 0.251419 -0.110805 0 0 0 0 0 0 0.0359394 -0.150631 -0.111934 47.681 -3.13423 -4.62984 -3.25965 -1.5375 4.74316 -0.0120982 0.244714 -0.114109 29.3826 7.29941 12.9189 -3.40749 1.70139 7.45216 -0.020564 0.25809 -0.107556 
26.982 1 637 38.74 0.708852 12.4721 -3.50444 -3.85396 2.13365 -0.0251479 0.00561306 -0.23889 0 0 0 0 0 0 0.0178235 -0.174394 -0.140533 45.2143 17.6392 17.4242 -2.829 -1.08397 3.65579 -0.0232983 0.00932967 -0.249013 27.7612 -17.5773 7.03916 -4.19079 -6.58891 0.647483 -0.0270317 0.00186508 -0.22882 
26.982 1 1000 38.7043 18.4664 18.4813 2.02728 -1.94892 3.54561 -0.313946 -0.617898 -0.0365214 0 0 0 0 0 0 -0.00314549 0.00326745 -0.0372048 26.8142 27.1167 24.8394 1.38011 0.16949 4.23639 -0.31957 -0.646014 -0.0393411 46.1696 9.78857 12.2145 2.67227 -4.02917 2.89082 -0.30837 -0.589787 -0.0337865 
26.982 1 38 40.9304 2.77544 0.554058 -1.82051 -0.533513 -0.779583 0.248714 0.150546 0.308259 0 0 0 0 0 0 0.0170052 -0.138565 -0.194986 34.7253 10.1851 61.2462 -3.37235 0.0433777 1.61803 0.263538 0.148275 0.338852 42.1353 -5.84595 19.7207 -0.265024 -1.07153 -3.12873 0.233831 0.152783 0.277643 
26.982 1 83 -0.251216 8.77125 2.52675 2.49933 0.392276 2.82345 -0.346137 -0.206194 0.193582 0 0 0 0 0 0 -0.069972 -0.057746 -0.250694 -4.14261 27.1011 10.7937 2.08161 2.08347 3.64774 -0.346823 -0.215817 0.202076 8.68451 -10.4005 -7.04052 2.91404 -1.25986 2.05258 -0.345473 -0.196604 0.185085 
26.982 1 242 -0.704489 6.74757 4.41824 2.23085 -1.21254 -0.545116 0.218719 -0.475595 -0.180731 0 0 0 0 0 0 -0.120347 -0.00405501 -0.156588 -8.83765 19.511 13.7115 1.6269 0.357289 -0.0169815 0.219834 -0.495686 -0.185013 12.4678 -6.98343 -5.91789 2.8222 -2.74292 -1.01657 0.217558 -0.455565 -0.176446 
26.982 1 44 43.2009 6.53269 2.4017 0.58097 0.418546 4.25333 0.0636473 -0.327225 0.243024 0 0 0 0 0 0 0.0857246 -0.0393429 -0.16691 35.0631 32.0878 1.50934 1.0203 4.57969 3.79407 0.0700153 -0.333486 0.25433 45.8554 -19.9955 2.00216 0.141403 -3.71049 4.76254 0.0572674 -0.321002 0.231731 
26.982 1 629 29.4552 0.690515 12.4588 -5.21429 1.8255 -0.188504 0.332742 0.308119 0.0567165 0 0 0 0 0 0 0.0655483 -0.169009 -0.159619 25.3967 58.9761 -7.12195 -5.75013 2.70197 -1.85299 0.349041 0.314013 0.0526956 31.3508 22.2479 31.5687 -4.67214 0.969489 1.51003 0.316443 0.302229 0.0607622 
26.982 1 48 1.76585 6.35026 2.88362 -1.4316 -4.73091 1.75287 -0.106034 0.371621 -0.169683 0 0 0 0 0 0 -0.0187529 0.00756767 -0.257012 -18.9567 27.5873 -13.8019 -4.50174 -0.934816 -1.25001 -0.100976 0.382281 -0.173587 27.0487 -15.895 18.2167 1.64943 -8.50153 4.77335 -0.111156 0.360979 -0.165851 
26.982 1 285 1.60516 8.47313 4.6003 2.40058 -0.164162 2.62323 0.686841 -0.230442 -0.715533 0 0 0 0 0 0 0.00377635 -0.018519 -0.106538 -17.9126 25.1381 3.4063 0.107321 3.76306 2.73592 0.708122 -0.244704 -0.712447 25.6996 -9.1027 4.59469 4.70087 -4.07478 2.53886 0.665523 -0.216192 -0.718597 
26.982 1 87 4.2942 8.71299 2.85737 0.336604 -3.50112 -0.309114 -0.219239 -0.169353 -0.698544 0 0 0 0 0 0 -0.0163956 -0.0254019 -0.265594 -4.66783 15.1948 10.2814 -0.911243 -3.3496 -0.0555121 -0.225885 -0.195507 -0.709494 17.2499 1.44008 -5.88755 1.59839 -3.60848 -0.531425 -0.212621 -0.14322 -0.687679 
26.982 1 246 4.12352 6.47707 4.34276 0.736419 1.69952 -3.59261 0.213169 0.390993 1.13883 0 0 0 0 0 0 -0.00328291 0.0137888 -0.0843213 10.6537 10.686 15.15 1.18177 1.39785 -2.56205 0.215758 0.403986 1.17038 1.57204 1.31483 -7.69349 0.303491 2.03831 -4.60457 0.210525 0.37807 1.10732 
26.982 1 88 1.91764 10.6052 2.79136 -0.556361 -0.288166 -2.49708 0.116198 -0.555993 -0.167508 0 0 0 0 0 0 -0.00626895 -0.0361102 -0.268206 -15.1991 19.9644 10.7482 -3.31632 1.61935 -1.49014 0.106214 -0.573534 -0.18323 23.6319 0.549154 -6.53336 2.22149 -2.15475 -3.464 0.126143 -0.538454 -0.151816 
26.982 1 286 4.28049 10.5873 4.63824 2.07407 0.198819 0.179189 0.0948329 -0.533778 0.846412 0 0 0 0 0 0 0.000378017 -0.0309257 -0.0785013 2.00476 28.1208 37.2178 0.852037 2.24628 5.45672 0.0925373 -0.563975 0.859616 10.6153 -7.73293 -29.2592 3.31471 -1.83174 -5.08625 0.0971182 -0.50357 0.833215 
26.982 1 625 24.9855 0.620236 12.3268 -4.15328 -0.352781 5.56979 0.0666118 0.275082 0.324616 0 0 0 0 0 0 -0.000989538 -0.173572 -0.119063 15.0718 13.5998 24.7356 -4.89978 1.23724 7.09807 0.065985 0.294926 0.341034 33.8434 -13.8912 -0.418166 -3.39426 -1.93253 4.08981 0.0672226 0.255212 0.308158 
26.982 1 289 6.51151 8.61202 4.58908 -2.97376 -0.492262 0.365759 0.229519 -0.291793 -0.0915128 0 0 0 0 0 0 -0.00912082 -0.0114335 -0.0877476 17.9167 11.8723 28.4201 -1.22506 -0.374005 4.13885 0.235778 -0.30803 -0.0925809 -1.57425 4.518 -20.4663 -4.71955 -0.577923 -3.38744 0.223273 -0.2755 -0.0904566 
26.982 1 52 6.66696 6.52025 2.6426 1.50421 1.96796 3.56462 -0.362069 0.703184 0.26603 0 0 0 0 0 0 -0.0638005 0.0152587 -0.212457 12.2449 5.33566 12.7656 2.67635 1.60252 4.36703 -0.362216 0.72728 0.27554 4.35409 6.79118 -8.68513 0.324472 2.37712 2.80915 -0.361906 0.679142 0.256447 
26.982 1 91 8.87495 8.74072 2.48904 -0.537354 0.283282 9.10568 -0.142762 -0.798092 0.65784 0 0 0 0 0 0 -0.0757294 0.0174995 -0.176638 14.1283 5.42341 8.79439 -0.141033 -0.919538 10.9809 -0.14711 -0.832045 0.675232 6.30034 11.2424 -5.04068 -0.948802 1.52098 7.269 -0.138366 -0.764159 0.640423 
26.982 1 250 8.94139 6.54026 4.61829 -5.67997 -0.673712 6.12211 -0.3645 0.70937 0.069977 0 0 0 0 0 0 -0.0306873 0.0138372 -0.0438593 10.864 14.6398 32.9222 -4.95495 -0.825955 9.61467 -0.37616 0.732744 0.0777705 9.70333 -2.34527 -25.0551 -6.41868 -0.462926 2.63173 -0.35278 0.68603 0.0622257 
26.982 1 92 6.50967 10.6918 2.73481 6.08664 -2.07949 1.27068 0.266261 0.127793 0.068101 0 0 0 0 0 0 -0.0150916 -0.0129199 -0.258228 5.58327 10.1118 14.7714 5.90331 -2.93249 2.27742 0.278902 0.105124 0.0649504 10.7438 10.6426 -10.5241 6.26808 -1.18961 0.314419 0.253664 0.150508 0.0711842 
26.982 1 290 9.00521 10.3963 4.70829 2.32669 -6.29386 -3.3908 -0.231044 0.41841 -0.385972 0 0 0 0 0 0 -0.0218794 0.00343873 -0.0635743 13.8614 28.2831 45.324 2.87056 -5.38252 1.77812 -0.236239 0.416981 -0.398557 6.84147 -8.22945 -37.0763 1.77249 -7.1815 -8.53597 -0.225796 0.419949 -0.37345 
26.982 1 813 11.1683 0.834874 16.2166 2.62792 -0.444267 1.03977 -0.493396 -0.113536 -0.100056 0 0 0 0 0 0 -0.0140934 -0.203484 -0.0753434 7.70321 -1.76867 12.0869 3.01564 0.345706 0.680517 -0.50561 -0.11781 -0.0925051 16.8311 2.00022 20.3659 2.23748 -1.19676 1.44519 -0.481154 -0.109235 -0.107601 
26.982 1 293 11.2517 8.54631 4.60387 -0.143664 0.346219 -6.38117 -0.3996 0.111291 0.168618 0 0 0 0 0 0 -0.0197357 -0.00115462 -0.0216393 11.6745 28.1442 37.9533 0.555966 1.92664 -1.5392 -0.416935 0.10788 0.173515 13.0273 -11.9778 -29.9499 -0.85157 -1.21178 -11.2102 -0.382164 0.114747 0.163717 
26.982 1 56 11.2631 6.52655 2.63625 1.18315 -4.72906 5.00515 -0.399079 0.225535 0.0327533 0 0 0 0 0 0 -0.0202789 -0.000200507 -0.120431 17.7026 13.4782 14.9576 1.20567 -5.42651 7.56915 -0.41616 0.235622 0.0313665 7.07884 -1.33116 -10.912 1.16267 -3.98867 2.48374 -0.381938 0.215513 0.034139 
26.982 1 95 13.3658 8.53398 2.73197 2.28506 -3.94071 1.14977 0.135464 0.0675331 -0.277413 0 0 0 0 0 0 0.0568937 -0.0109415 -0.153374 10.1864 19.0949 -8.06537 1.45921 -4.03221 0.377471 0.136568 0.0676236 -0.27936 18.2201 -2.92968 12.3203 3.11243 -3.83493 1.96385 0.134408 0.0674878 -0.275408 
26.982 1 254 13.4139 6.65577 4.70731 1.5895 4.64144 -4.78275 -0.0326365 -0.277042 -0.173368 0 0 0 0 0 0 0.00958274 -0.0217945 -0.0431717 8.1049 1.9517 35.7426 0.882918 3.96901 1.75291 -0.0406312 -0.294067 -0.180068 20.4529 10.4703 -27.5843 2.30721 5.35366 -11.2903 -0.0245898 -0.260024 -0.166664 
26.982 1 294 13.6313 10.44 4.74497 0.140046 1.37295 -5.17717 -0.631784 -0.117545 -0.042843 0 0 0 0 0 0 -0.0112784 -0.00553139 -0.036356 16.7008 38.4501 -0.490574 0.565889 4.29108 -4.97364 -0.654329 -0.115812 -0.0541918 12.2354 -18.4098 8.83359 -0.291356 -1.54194 -5.35691 -0.609196 -0.11921 -0.0315239 
26.982 1 60 15.8729 6.52152 2.78443 -0.472586 -1.97919 0.429225 -0.302654 0.231071 -0.144689 0 0 0 0 0 0 0.0383798 -0.000172461 -0.230184 28.2785 7.24586 -4.44063 1.11937 -2.95045 1.33058 -0.30531 0.24253 -0.149965 4.5572 4.78737 8.74169 -2.06275 -0.982693 -0.432045 -0.299997 0.219621 -0.139413 
26.982 1 297 15.539 8.51323 4.70658 4.78796 -0.262138 -0.435685 0.445421 -0.793159 0.358705 0 0 0 0 0 0 0.0205349 -0.0298017 -0.0522142 24.5339 32.8058 0.559953 6.0817 4.2642 0.456242 0.455187 -0.81601 0.374281 7.6828 -16.63 7.68574 3.50108 -4.76368 -1.30175 0.435643 -0.77027 0.343171 
26.982 1 99 17.9807 8.40347 2.687 0.153621 -0.444575 -1.15602 0.0349227 -0.308295 0.0413079 0 0 0 0 0 0 -0.0322868 -0.022949 -0.217946 24.1225 16.6979 4.10964 1.63886 1.5049 1.6768 0.041795 -0.322278 0.0441589 12.387 -0.7807 0.0176171 -1.33256 -2.36054 -3.94191 0.0280247 -0.294293 0.0384898 
26.982 1 258 17.8616 6.48094 4.83123 4.81216 3.44948 -0.418242 0.261385 0.0682023 -0.315492 0 0 0 0 0 0 -0.00210378 0.0020478 -0.0700619 16.5073 8.74339 5.19152 4.59023 2.80029 -0.622897 0.262296 0.0793885 -0.324753 19.7028 3.26255 3.30297 5.02741 4.12417 -0.185115 0.260388 0.0570457 -0.306283 
26.982 1 298 17.9239 10.3362 4.66982 -4.95679 1.97989 -2.86145 0.073569 0.757783 -0.329913 0 0 0 0 0 0 -0.00866435 0.00733634 -0.0638097 15.4792 12.6002 -15.055 -5.77889 3.18605 -3.07204 0.0717209 0.774023 -0.33485 20.9554 7.34081 23.2449 -4.1277 0.794642 -2.62403 0.0753587 0.741623 -0.324959 
26.982 1 621 20.3461 0.704677 12.4192 3.09436 -5.05127 -2.08597 -0.384725 0.651261 0.0453482 0 0 0 0 0 0 -0.0131171 -0.173997 -0.113544 20.0029 8.93 8.9353 3.93074 -3.21373 -0.378009 -0.3989 0.659315 0.0561243 20.7092 -8.97024 15.4864 2.25033 -6.85567 -3.75239 -0.370517 0.643252 0.0345761 
26.982 1 64 20.2627 6.47517 2.8781 -3.33436 -2.00767 -2.75443 -0.0544108 0.515512 -0.231221 0 0 0 0 0 0 -0.0372241 -0.0374218 -0.181053 22.1108 2.69861 -0.52185 -3.52503 -2.29945 -2.55662 -0.0585749 0.536227 -0.240018 18.3665 9.33576 4.99915 -3.14808 -1.67795 -2.90474 -0.0503169 0.494838 -0.222478 
26.982 1 301 20.1902 8.71045 4.65083 0.939507 -2.05885 -2.22959 0.0871807 -0.95028 0.0104994 0 0 0 0 0 0 -0.000421452 -0.0422255 -0.0488876 14.4771 -3.24583 0.632861 0.722163 -3.07059 -2.74811 0.0982904 -0.986697 0.01274 25.8513 19.8265 7.54562 1.15829 -1.02359 -1.67256 0.0760116 -0.913843 0.00828367 
26.982 1 104 20.2049 10.4145 2.73102 0.505143 1.46547 -4.99095 0.299187 0.108111 -0.65059 0 0 0 0 0 0 -0.0349771 -0.00234045 -0.163148 22.7819 32.2644 12.8097 1.12229 5.28394 -2.34019 0.310126 0.108526 -0.66171 17.6179 -12.2094 -8.58352 -0.111909 -2.33861 -7.59081 0.288195 0.107777 -0.639471 
26.982 1 103 22.4842 8.32459 2.34796 -2.43092 0.0585218 -2.97242 -0.038158 0.902547 1.08642 0 0 0 0 0 0 0.0475655 -0.000522857 -0.151255 16.7315 20.3863 -0.834671 -3.1189 1.30153 -4.30361 -0.0336375 0.918825 1.10865 27.6331 -4.485 4.28476 -1.74259 -1.14244 -1.5956 -0.0427138 0.8863 1.06421 
26.982 1 262 22.5928 6.73757 4.82526 1.64428 1.51089 -1.38405 0.0137597 -0.0367686 -0.262471 0 0 0 0 0 0 0.00656096 -0.0130046 -0.0491035 19.7028 3.7789 3.14423 1.20621 0.660987 -2.00598 0.011515 -0.0412118 -0.271862 24.9089 8.72944 5.3787 2.08727 2.39273 -0.726966 0.0159801 -0.0323489 -0.25313 
26.982 1 305 24.9117 8.59547 4.54869 1.04741 0.703919 0.462363 -0.130949 0.0573625 0.681668 0 0 0 0 0 0 0.00315311 0.000585511 -0.0566216 26.2916 43.4349 -14.7588 1.34549 4.91608 -0.670082 -0.139574 0.0643268 0.698149 22.4441 -27.017 22.7144 0.752422 -3.47648 1.63368 -0.122302 0.0503822 0.665246 
26.982 1 68 24.8939 6.55503 2.85828 1.44215 4.33263 -8.22717 0.0190137 -0.0174761 -0.582344 0 0 0 0 0 0 0.0291454 -0.0166016 -0.218072 28.7348 16.5242 4.05179 1.43535 6.00723 -9.469 0.01474 -0.0100923 -0.590162 19.9604 -4.41787 0.363134 1.4511 2.69598 -6.95276 0.0233314 -0.0248927 -0.574559 
26.982 1 102 22.3322 10.5899 0.743526 -4.70105 0.31069 -1.34595 0.427702 -0.141829 0.583644 0 0 0 0 0 0 0.0437171 0.000402101 -0.267945 31.5403 14.7631 48.4367 -3.15455 1.83089 -1.52142 0.443941 -0.161855 0.602071 12.5291 5.78443 32.8691 -6.2499 -1.17663 -1.13289 0.411378 -0.121789 0.565224 
26.982 1 108 24.7207 10.4201 2.60005 0.970319 3.98478 -0.53424 0.0897943 0.041619 0.156085 0 0 0 0 0 0 0.0598951 -0.0214928 -0.18261 5.85653 25.7281 -14.862 -0.0806172 5.78597 -2.92318 0.0915717 0.0460031 0.168218 42.4864 -5.5433 18.8724 2.02494 2.20588 1.90888 0.0880121 0.0372824 0.143996 
26.982 1 107 27.2561 8.35206 2.82727 -6.58873 -4.8117 -0.6523 -0.159083 0.684895 -1.03704 0 0 0 0 0 0 -0.0405758 0.0300266 -0.227893 23.6563 32.5023 5.49915 -6.75644 -1.53418 -0.838196 -0.166995 0.709826 -1.05577 29.2003 -16.7554 -1.08289 -6.422 -8.078 -0.421421 -0.151092 0.659965 -1.0183 