ITEM: TIMESTEP
1400
ITEM: NUMBER OF ATOMS
4000
ITEM: BOX BOUNDS pp pp pp
-0.358735 40.8587
0.0254955 40.4745
0.0271141 40.4729
ITEM: ATOMS mass type id x y z vx vy vz fx fy fz xrad yrad zrad vxrad vyrad vzrad fxrad fyrad fzrad xub yub zub vxub vyub vzub fxub fyub fzub xlb ylb zlb vxlb vylb vzlb fxlb fylb fzlb 
26.982 1 811 10.0063 -0.0633287 18.2055 -1.19559 -1.60808 -6.23003 -0.278699 0.591634 0.258355 0 0 0 0 0 0 -0.0540722 -0.244048 -0.0188535 10.361 40.609 18.5973 -1.20786 -1.68203 -6.17429 -0.285794 0.611772 0.265166 9.92731 40.3631 17.7985 -1.18218 -1.53127 -6.28004 -0.271563 0.571555 0.251518 
26.982 1 3 1.88424 -0.034151 2.11422 1.87545 -0.191023 -0.505778 -0.0724059 0.0724888 -0.25136 0 0 0 0 0 0 -0.0995016 -0.13682 -0.0903371 1.90333 -0.445899 1.94592 1.83041 -0.368767 -0.559889 -0.0679115 0.0800768 -0.261373 2.3586 0.177857 2.10549 1.91902 -0.0131587 -0.450049 -0.0769462 0.0648998 -0.241312 
26.982 1 8 3.90441 1.97987 2.08594 1.37689 0.00075083 1.68921 -0.0594985 0.30464 0.0582577 0 0 0 0 0 0 -0.00453825 -0.13603 -0.13052 3.9841 2.23971 2.052 1.20799 0.544572 1.67941 -0.0585773 0.312592 0.0517209 4.26582 1.54278 1.94155 1.54573 -0.541193 1.69975 -0.0604396 0.296715 0.0648246 
26.982 1 807 5.6833 0.0533212 18.1409 -1.3914 2.82424 3.54847 0.223538 -0.429973 -0.0630854 0 0 0 0 0 0 -0.00233377 -0.272624 0.0191734 5.91927 40.4954 18.0664 -1.509 2.78113 3.48458 0.228759 -0.452025 -0.0614212 5.83237 40.7121 18.1982 -1.27255 2.87186 3.61691 0.218287 -0.407885 -0.0648086 
26.982 1 43 1.79322 4.06947 1.98314 0.467528 1.96271 0.436909 -0.10639 -0.210621 0.004407 0 0 0 0 0 0 -0.123215 -0.0764916 -0.212569 1.35212 3.9719 1.98744 -0.313283 2.03363 0.56711 -0.108749 -0.224612 -0.00367639 2.73166 4.00711 1.80054 1.25038 1.89217 0.308292 -0.104026 -0.19663 0.0125572 
26.982 1 202 1.83221 2.07601 4.08897 -5.78885 -4.57658 -2.44206 -0.213767 -0.118266 -0.0424567 0 0 0 0 0 0 -0.0770057 -0.141153 -0.131098 1.90689 2.00171 4.1441 -6.13382 -4.99586 -1.85836 -0.215295 -0.123838 -0.0568678 2.25271 1.9704 3.87789 -5.44386 -4.157 -3.02155 -0.212241 -0.11267 -0.0279896 
26.982 1 241 -0.272728 3.99628 4.20153 -3.55671 -1.08295 3.15285 -0.234082 0.132605 -0.438584 0 0 0 0 0 0 -0.119199 -0.120525 -0.181112 -0.482387 4.35818 4.10061 -4.25133 -0.859136 3.28223 -0.241417 0.130121 -0.464497 0.487697 3.47184 4.14703 -2.86206 -1.308 3.03074 -0.226691 0.135099 -0.41264 
26.982 1 245 3.74559 4.1022 4.08352 2.77097 1.11317 -0.105398 0.364886 -0.331022 -0.181408 0 0 0 0 0 0 -0.00938991 -0.0521172 -0.0590904 3.93343 3.90842 4.09124 2.65611 1.13234 0.164659 0.373993 -0.342817 -0.195569 3.99951 4.13823 3.91778 2.88703 1.09796 -0.372053 0.35575 -0.319196 -0.167181 
26.982 1 2825 24.3593 20.2154 16.018 3.46187 5.23555 -0.399662 0.532365 0.413535 0.0623849 0 0 0 0 0 0 -0.0386445 0.146771 -0.118252 25.0043 20.5377 15.8343 4.02959 5.88061 -0.80666 0.549629 0.428491 0.0622683 23.6031 19.8971 16.1607 2.89428 4.59534 0.00792199 0.515063 0.39854 0.0625234 
26.982 1 2819 18.079 20.2124 18.0722 1.74077 -2.49702 -3.29826 0.329505 0.115085 0.237997 0 0 0 0 0 0 -0.111344 0.123789 -0.0845915 17.4706 20.0723 18.6319 1.07519 -2.77264 -2.33944 0.339041 0.118925 0.256117 18.742 20.3556 17.4914 2.40632 -2.21728 -4.25922 0.319988 0.111205 0.219805 
26.982 1 12 7.95428 2.12591 1.98508 4.28328 4.36305 -3.35739 -0.444569 -0.574571 0.298619 0 0 0 0 0 0 -0.0475484 -0.185956 -0.138143 7.77983 1.93734 1.87917 4.03121 4.35598 -3.44171 -0.464201 -0.587598 0.303565 8.45839 2.1354 1.91356 4.5333 4.37145 -3.27024 -0.424905 -0.561532 0.293633 
26.982 1 47 5.8446 4.16021 2.15473 -4.28214 4.10485 -6.12655 -0.0646841 -0.882896 -0.152192 0 0 0 0 0 0 -0.00984529 -0.0766481 -0.136272 5.52989 4.06131 1.78645 -4.34819 4.41433 -6.60929 -0.072862 -0.909755 -0.157296 6.54427 4.10319 2.34506 -4.21681 3.80096 -5.64406 -0.056499 -0.856015 -0.147058 
26.982 1 49 8.04332 3.86207 -0.0165966 3.04354 -1.85779 0.107723 -0.538398 0.793354 -0.154239 0 0 0 0 0 0 -0.0153342 -0.000238864 -0.262156 8.2893 3.83954 0.0813721 3.38959 -2.05974 0.0175346 -0.547729 0.805496 -0.164494 8.12622 3.7283 -0.312346 2.69432 -1.64989 0.20037 -0.529031 0.781231 -0.143957 
26.982 1 206 5.89895 1.89904 4.21615 -4.4741 0.0733186 0.448393 -0.340653 0.836487 -0.641294 0 0 0 0 0 0 -0.0356902 -0.119917 -0.109383 6.22272 2.27217 4.52355 -4.19538 0.694014 1.30264 -0.350416 0.857263 -0.657515 5.96082 1.34817 3.75 -4.75323 -0.545969 -0.402714 -0.33094 0.815783 -0.625055 
26.982 1 209 7.88096 0.075901 3.99402 2.99753 5.72818 2.17784 0.762748 -0.424261 0.26065 0 0 0 0 0 0 0.0113394 -0.189124 -0.17717 8.19188 0.00837449 3.43967 3.43975 6.14156 2.19435 0.78332 -0.431198 0.274325 7.90112 -0.0552913 4.38895 2.5555 5.31505 2.16298 0.742198 -0.417312 0.246942 
26.982 1 249 7.94581 4.0292 3.93144 2.69111 5.39015 -0.00259598 -0.0933815 0.10813 0.585954 0 0 0 0 0 0 -0.00426363 -0.0338716 -0.0305364 8.35045 3.79652 3.80828 3.10432 5.22775 -0.0507741 -0.0992676 0.104145 0.603916 7.86906 4.10329 3.89594 2.27491 5.55532 0.046381 -0.0874836 0.112176 0.567989 
26.982 1 10 9.88574 1.96706 0.087079 2.90656 -0.00558835 -1.15314 0.717868 -0.0216111 -0.788533 0 0 0 0 0 0 -0.0108604 -0.139051 -0.202691 10.3651 1.63049 -0.0604841 3.14169 -0.277019 -1.08135 0.734783 -0.0183756 -0.812036 9.68177 2.12577 0.0368768 2.67139 0.269574 -1.22056 0.700967 -0.024892 -0.765037 
26.982 1 16 12.1107 2.05726 1.92813 -7.25803 0.19773 -5.48274 0.0362761 0.0436137 0.0808615 0 0 0 0 0 0 0.0372311 -0.180883 -0.0833676 12.6894 2.27433 1.44947 -7.06944 0.685198 -6.17977 0.0479843 0.043875 0.0776177 11.7514 1.66018 2.2274 -7.44584 -0.287161 -4.78345 0.024558 0.0433663 0.0840719 
26.982 1 51 10.0748 4.02667 1.92811 -1.64001 -0.132737 5.12582 -0.00208379 0.613621 0.137077 0 0 0 0 0 0 -5.12767e-05 0.0114785 -0.139233 10.0475 4.09085 1.76111 -2.2773 -0.375743 5.06527 -0.000733618 0.626709 0.132325 10.3754 3.80499 1.91431 -1.00447 0.115418 5.18693 -0.00341975 0.60059 0.141826 
26.982 1 53 12.1226 4.11142 0.0226414 3.30562 0.64695 5.75463 -0.240992 0.156703 -0.306513 0 0 0 0 0 0 -0.0140588 -0.00158181 -0.259094 12.5565 4.05719 -0.412751 3.4078 0.879156 5.64789 -0.244168 0.157597 -0.31839 11.9091 4.00782 0.258667 3.20486 0.419522 5.86397 -0.237825 0.155839 -0.294603 
26.982 1 210 10.0232 2.19773 3.89527 -3.53913 1.2958 2.11642 -0.185042 -0.341286 0.67075 0 0 0 0 0 0 0.0335676 -0.162619 -0.0621988 10.2629 2.31326 3.72701 -3.64132 1.70581 2.36741 -0.189368 -0.360306 0.693186 10.0565 1.90144 3.90444 -3.43848 0.885435 1.86732 -0.180694 -0.322216 0.648273 
26.982 1 1197 36.7696 16.1312 20.1575 1.71827 5.32546 0.0664675 -0.39484 0.172507 -0.0893252 0 0 0 0 0 0 -0.101895 -0.0658696 0.0465541 36.8232 15.7144 20.0974 2.15509 4.81407 0.554534 -0.406375 0.176943 -0.0830811 36.2729 16.5066 20.2173 1.27436 5.83677 -0.422419 -0.38329 0.168083 -0.095596 
26.982 1 253 12.003 4.21294 4.19049 -3.92618 -0.00148611 -1.93269 0.233963 -0.378476 -0.27047 0 0 0 0 0 0 0.00558565 -0.0626135 -0.0401422 12.27 4.52321 4.73892 -4.00415 0.1489 -1.38329 0.236977 -0.401653 -0.277619 11.955 3.74618 3.48146 -3.84626 -0.145687 -2.47981 0.230964 -0.355221 -0.263327 
26.982 1 20 16.0318 2.06306 1.81779 -0.780923 -3.94565 0.910042 0.18288 0.328454 0.390703 0 0 0 0 0 0 -0.0196127 -0.186202 -0.0731796 16.1008 1.43414 1.9219 -0.591581 -4.87516 1.5282 0.183212 0.341218 0.40709 16.0737 2.51641 1.53312 -0.968084 -3.00998 0.292398 0.182567 0.315724 0.374324 
26.982 1 55 14.0907 4.11616 2.09347 3.24211 1.29436 2.48845 0.0658262 0.152364 -0.307895 0 0 0 0 0 0 -0.0115614 -0.0763773 -0.112446 14.2049 4.05262 1.79383 3.35127 1.19573 2.39626 0.070394 0.143397 -0.311285 14.1422 4.02417 2.21251 3.13586 1.39924 2.58266 0.0612523 0.161396 -0.304488 
26.982 1 57 16.0841 4.15271 -0.0127546 7.36529 -3.13644 2.48828 -0.0415053 0.0496916 -0.122929 0 0 0 0 0 0 -0.0355955 -0.0602542 -0.248461 16.0772 4.2137 -0.74638 7.63746 -3.37328 1.60811 -0.0477617 0.0492172 -0.119654 16.2024 3.93599 0.520637 7.09518 -2.89395 3.37263 -0.0352267 0.0502058 -0.126219 
26.982 1 214 14.0911 2.17839 3.96849 1.68891 0.629197 -2.60624 -0.0177302 -0.160737 0.165785 0 0 0 0 0 0 -0.00579698 -0.167498 -0.0783489 14.4402 2.26083 4.18191 2.24406 0.410974 -2.1468 -0.0165084 -0.159615 0.163149 13.9065 1.91684 3.5928 1.13558 0.849624 -3.06585 -0.0189391 -0.161812 0.168437 
26.982 1 257 16.111 4.21025 4.07298 -1.58028 -5.1658 -4.86775 0.0430555 -0.161388 -0.347262 0 0 0 0 0 0 -0.00623672 -0.0691338 -0.0368318 16.3339 4.24133 4.08494 -1.52977 -5.56882 -4.80144 0.0431948 -0.182543 -0.365363 16.0016 4.02395 3.89998 -1.62508 -4.75485 -4.93328 0.0429361 -0.14016 -0.329123 
26.982 1 218 18.3383 2.22362 4.11113 -4.51797 -1.64507 -0.303291 -0.708713 0.102323 -0.76752 0 0 0 0 0 0 -0.0716441 -0.145559 -0.103219 18.032 1.77374 4.15823 -5.40259 -2.32598 -0.392359 -0.737168 0.0961833 -0.791864 18.7014 2.49864 3.90416 -3.62991 -0.955325 -0.211448 -0.680228 0.108478 -0.743151 
26.982 1 18 18.1539 2.09602 -0.16688 0.312411 1.07304 1.42848 -0.327892 0.0642029 0.192845 0 0 0 0 0 0 0.00564186 -0.13381 -0.195077 18.3756 1.83513 -0.265887 0.324145 0.613561 1.47847 -0.340262 0.0665237 0.207295 17.9883 2.18165 -0.267283 0.302498 1.53905 1.38184 -0.315496 0.0619214 0.178382 
26.982 1 819 18.1431 0.00830125 18.1105 3.29707 -0.906673 2.53631 -0.00337031 0.465282 0.489768 0 0 0 0 0 0 -0.0930634 -0.246107 0.00861978 18.5107 40.2171 18.0739 3.61514 -1.05981 2.36453 -0.00773911 0.482274 0.506032 17.8294 40.8986 18.1295 2.97815 -0.751647 2.71288 0.000945313 0.448277 0.473429 
26.982 1 2813 12.1491 20.3573 16.1855 -1.37444 -3.55885 3.53731 -0.0902611 -0.371473 -0.337359 0 0 0 0 0 0 -0.0693803 0.0846226 -0.118993 12.0966 20.4151 16.3256 -1.49135 -3.52379 3.93836 -0.0936202 -0.380123 -0.358477 12.4218 20.3001 16.0062 -1.25724 -3.59519 3.13679 -0.0868568 -0.362856 -0.316203 
26.982 1 22 22.2035 2.16014 0.146002 5.02424 -1.4003 -1.68316 0.445069 0.0954475 -0.588572 0 0 0 0 0 0 -0.0148359 -0.0705161 -0.267163 22.5415 2.10625 -0.381058 5.57578 -1.639 -2.00593 0.45189 0.0981754 -0.608948 21.8134 2.03861 0.474976 4.47708 -1.15357 -1.35518 0.438261 0.0927364 -0.568207 
26.982 1 24 20.3176 2.14335 1.97482 -0.390647 -1.80598 1.96922 -0.362548 0.366532 0.480837 0 0 0 0 0 0 -0.0659333 -0.144246 -0.11602 20.1707 1.93465 2.11379 -0.699897 -2.17608 1.8935 -0.373298 0.369843 0.493658 20.4658 2.17765 1.65683 -0.0796616 -1.42738 2.04973 -0.351765 0.363241 0.468041 
26.982 1 59 18.0644 4.23418 1.90304 3.54476 0.883806 0.122724 -0.00928239 -0.422399 0.405581 0 0 0 0 0 0 -0.00830279 -0.0723468 -0.0850288 18.2571 4.12457 1.53952 3.73459 0.809964 -0.0284867 -0.0177092 -0.441783 0.425822 17.9286 4.18719 2.08668 3.3582 0.964052 0.277907 -0.000810099 -0.40297 0.385372 
26.982 1 61 20.0727 4.07408 -0.0951307 -1.34094 -0.238527 0.866815 0.316333 0.544844 0.34753 0 0 0 0 0 0 0.0343577 -0.000760844 -0.26804 20.2388 3.78354 -0.251089 -0.993199 -0.899976 0.771927 0.315767 0.549305 0.360312 19.9079 4.2085 -0.137609 -1.6863 0.428731 0.967724 0.316914 0.540405 0.334766 
26.982 1 63 22.1928 4.34497 1.96578 -3.34818 -2.1991 -0.897185 0.381694 -0.808223 -0.010769 0 0 0 0 0 0 0.0168262 0.00217722 -0.150345 22.0645 4.75478 1.37876 -3.48981 -2.04806 -1.61148 0.390168 -0.837357 -0.00905053 22.2685 3.77923 2.37464 -3.20325 -2.34132 -0.177031 0.373201 -0.779071 -0.0124798 
26.982 1 222 22.2129 2.10015 4.0462 8.18985 -2.56229 -1.00636 0.204414 0.186923 -0.174126 0 0 0 0 0 0 -0.00444303 -0.0597812 -0.0523831 21.8942 1.72325 3.88955 7.97898 -3.1502 -1.00159 0.213127 0.193656 -0.185956 22.4774 2.30382 4.04273 8.40193 -1.96401 -1.00869 0.19567 0.180186 -0.162304 
26.982 1 261 20.2388 4.27856 4.04956 -3.60468 -0.12386 0.668001 -0.0114932 -0.480686 -0.3622 0 0 0 0 0 0 -0.00986922 -0.0419834 -0.0310571 19.9627 4.30561 3.99684 -4.15671 -0.595642 0.667622 -0.016024 -0.506573 -0.372528 20.5167 4.09477 3.94217 -3.04998 0.353999 0.67068 -0.00695277 -0.454764 -0.351862 
26.982 1 25 24.3099 0.213497 0.0449521 -9.23586 1.47907 3.33886 -0.0971868 -0.373632 -0.105606 0 0 0 0 0 0 0.0450285 -0.147507 -0.195868 23.966 0.255515 0.187448 -9.82197 1.47293 3.84522 -0.106774 -0.382029 -0.102553 24.5466 -0.0241389 -0.297365 -8.64431 1.49243 2.83627 -0.0875902 -0.365206 -0.108665 
26.982 1 635 34.6273 0.206302 14.3556 3.12046 0.455957 8.97885 0.67057 -0.389952 -0.383169 0 0 0 0 0 0 0.0962773 -0.2602 -0.0687149 34.4009 40.9067 14.5035 3.12052 0.158324 9.46848 0.675226 -0.408019 -0.388163 34.4704 40.6056 14.1466 3.12131 0.756119 8.48946 0.665983 -0.371855 -0.378164 
26.982 1 27 26.272 0.133364 2.03094 -1.8502 0.0961003 -0.990578 0.166294 -0.0980791 -0.283471 0 0 0 0 0 0 0.0938365 -0.200173 -0.124357 26.3427 -0.00865731 1.56684 -1.56399 -0.215905 -1.1436 0.171665 -0.0969294 -0.282343 26.0365 0.0813267 2.31291 -2.13467 0.414499 -0.83773 0.160871 -0.0992303 -0.284642 
26.982 1 28 24.2295 2.05656 2.02576 0.0210213 -1.03996 -0.698162 0.117158 0.673872 0.0530747 0 0 0 0 0 0 0.047378 -0.0460427 -0.126304 23.8693 2.20999 1.78892 -0.270426 -0.763649 -0.533951 0.124045 0.697637 0.0599757 24.4817 1.72847 2.08337 0.316418 -1.30773 -0.85923 0.110241 0.650092 0.0461469 
26.982 1 65 24.3994 4.229 -0.15523 -3.42956 -1.11612 -3.39468 -0.476425 -0.460487 0.685416 0 0 0 0 0 0 0.0317199 0.0143009 -0.264446 24.6689 4.39468 -0.242541 -3.29277 -0.956328 -3.02474 -0.488104 -0.476803 0.709277 24.0222 3.90636 -0.264589 -3.56283 -1.26969 -3.75791 -0.464742 -0.444149 0.661514 
26.982 1 67 26.4278 4.23569 1.80394 1.96192 -0.431548 3.66394 -0.177142 -0.532187 0.645816 0 0 0 0 0 0 -0.00245178 -0.0240651 -0.170146 27.0681 4.01121 1.57258 2.64443 -0.957 3.99674 -0.180097 -0.553916 0.672642 25.622 4.30467 1.85621 1.27877 0.0999402 3.33425 -0.174222 -0.510424 0.61894 
26.982 1 225 24.3673 0.0232375 4.05021 -5.37971 -0.370481 -1.54976 -0.143247 0.012131 0.0420227 0 0 0 0 0 0 0.0287553 -0.183356 -0.0998004 24.4876 -0.676295 3.68953 -5.27296 -1.2881 -1.65241 -0.143479 0.0114313 0.0549541 24.1377 0.529237 4.24969 -5.48419 0.557053 -1.4466 -0.14306 0.0128093 0.0290892 
26.982 1 226 26.2558 2.06698 3.97063 -0.292466 -4.15735 3.86623 0.00771638 0.479054 0.103921 0 0 0 0 0 0 0.0459269 -0.0767822 -0.0516302 26.2989 1.77727 3.86885 -0.194201 -4.61324 4.04433 0.00692094 0.502214 0.108165 26.0479 2.18387 3.91165 -0.390304 -3.69298 3.68919 0.00844633 0.455868 0.0996538 
26.982 1 265 24.2321 4.23578 3.9977 -2.67857 -0.452228 1.37598 0.569874 -0.731422 -0.037492 0 0 0 0 0 0 0.0265464 -0.0263873 -0.0320969 24.1067 3.93177 3.71217 -2.40773 -0.950365 1.24657 0.587133 -0.759177 -0.0364884 24.2488 4.3844 4.12278 -2.94842 0.0533717 1.50613 0.552546 -0.703653 -0.038523 
26.982 1 30 30.7194 1.99672 0.02626 0.468216 -2.82528 -2.05625 -0.533076 0.162424 0.246865 0 0 0 0 0 0 -0.0346349 -0.143915 -0.236865 30.5858 1.56493 -0.159916 0.203041 -3.54972 -2.25293 -0.539128 0.162337 0.261089 30.5753 2.25196 0.0139553 0.72893 -2.09545 -1.8553 -0.527046 0.162531 0.232603 
26.982 1 32 28.4051 2.25431 2.05277 -1.02176 0.709372 -3.00639 0.0344885 -0.535506 -0.480103 0 0 0 0 0 0 -0.0346286 -0.153988 -0.136956 28.3815 1.92199 1.96457 -0.923684 0.872355 -3.03064 0.0348453 -0.550987 -0.476671 28.2059 2.41213 1.96107 -1.12323 0.554999 -2.98063 0.0341096 -0.520027 -0.483594 
26.982 1 69 28.5544 4.01076 -0.168556 0.442569 -2.86147 -0.793393 -0.0399456 0.182432 0.25675 0 0 0 0 0 0 -0.0652174 -0.0236678 -0.262023 28.5071 4.13644 -0.288041 0.533175 -2.73076 -0.901631 -0.0311909 0.182839 0.282943 28.3786 3.72696 -0.24795 0.347409 -2.98982 -0.680322 -0.0487209 0.182054 0.230506 
26.982 1 71 30.6014 4.13761 1.96501 -3.86664 1.72908 1.90149 -0.340542 -0.322704 0.213146 0 0 0 0 0 0 -0.038518 -0.0340518 -0.0965236 30.5399 4.15373 1.92584 -4.00321 1.97114 1.79899 -0.352055 -0.334324 0.219586 30.3853 3.96298 1.82721 -3.73389 1.48912 2.00904 -0.329018 -0.311033 0.206678 
26.982 1 230 30.4594 2.02088 3.94226 1.7592 3.97529 -1.36446 0.383046 -0.241458 0.237166 0 0 0 0 0 0 -0.038437 -0.108986 -0.0411224 30.1462 1.3072 3.79905 1.40184 3.68046 -1.56193 0.383931 -0.249418 0.244627 30.4963 2.55934 3.92887 2.11411 4.27754 -1.16205 0.382175 -0.233458 0.229677 
26.982 1 269 28.4729 3.92115 4.08948 -6.53562 2.46591 -1.23408 -0.148129 0.854533 -0.242811 0 0 0 0 0 0 -0.0210218 -0.0138601 -0.0275957 28.4959 4.08936 4.12889 -6.61232 3.05418 -0.76102 -0.159795 0.876224 -0.239875 28.2282 3.59716 3.89052 -6.46052 1.88252 -1.70524 -0.136458 0.832918 -0.245778 
26.982 1 35 34.8048 -0.171003 2.28623 -0.364075 -0.0469403 -3.77731 -0.354318 0.178276 -0.218206 0 0 0 0 0 0 0.0715813 -0.224171 -0.133511 34.5904 0.105623 2.08033 -0.352397 0.270171 -3.70193 -0.360467 0.192102 -0.223781 34.6364 -0.645813 2.31619 -0.374852 -0.35989 -3.84612 -0.348168 0.164417 -0.212651 
26.982 1 36 32.6811 2.05485 2.09876 1.42987 1.95504 1.47899 -0.178201 -0.443007 -0.00164641 0 0 0 0 0 0 0.010999 -0.139022 -0.12338 32.5433 1.97632 1.98207 1.41422 2.07584 1.4433 -0.176351 -0.465362 -0.00348395 32.4886 1.9583 2.04009 1.44355 1.84131 1.52143 -0.180059 -0.420631 0.000164506 
26.982 1 73 32.5514 4.08279 0.0750839 -2.30839 1.86463 -1.43889 0.535034 -0.0147018 -0.260413 0 0 0 0 0 0 0.0376301 -0.035581 -0.276828 31.9037 4.1186 0.164902 -2.92642 2.37044 -1.09476 0.548855 -0.0211654 -0.271214 32.8673 3.89016 -0.213244 -1.69392 1.36377 -1.77762 0.521155 -0.00821824 -0.249611 
26.982 1 75 34.6532 3.94984 2.1586 3.63213 -0.105741 -0.939913 0.210749 0.344434 -0.271023 0 0 0 0 0 0 0.0767153 -0.0289287 -0.144434 35.1273 3.68346 1.99732 4.54506 -0.257824 -0.784696 0.221185 0.346073 -0.282893 33.7923 4.05584 2.14282 2.71507 0.04573 -1.08954 0.200241 0.342805 -0.259148 
26.982 1 234 34.7349 1.98683 4.09183 -0.181695 -0.280249 -5.78347 0.118883 -0.350473 0.281364 0 0 0 0 0 0 0.058544 -0.107268 -0.0440222 35.0851 1.68523 4.02825 0.391565 -0.716302 -5.80128 0.126823 -0.356075 0.29851 33.999 2.10901 3.99956 -0.75791 0.157607 -5.76114 0.110935 -0.344864 0.264225 
26.982 1 273 32.6573 3.92008 4.09759 -1.78799 -1.51784 -0.900985 -0.21534 0.24766 -0.0189694 0 0 0 0 0 0 0.0048729 -0.0133634 -0.0149089 32.8402 3.40398 4.09031 -1.18807 -1.93193 -0.752434 -0.213948 0.254644 -0.0186914 32.142 4.27622 3.94711 -2.39178 -1.10213 -1.04695 -0.216752 0.240721 -0.0192931 
26.982 1 4 41.0341 1.88637 2.11527 -3.38965 -4.60045 3.67228 0.156008 0.281746 -0.172665 0 0 0 0 0 0 -0.057886 -0.0578517 -0.201964 40.359 2.03197 1.91531 -4.10657 -4.43771 4.0726 0.163736 0.290556 -0.176493 41.1593 1.55872 2.13969 -2.67298 -4.76634 3.27685 0.148312 0.272925 -0.168775 
26.982 1 40 36.8084 2.03614 2.22192 4.01943 -2.1913 -1.61356 0.020644 -0.297162 -0.395277 0 0 0 0 0 0 0.0779473 -0.132392 -0.186006 37.0636 2.54336 2.34026 4.65415 -1.62964 -1.22972 0.0234874 -0.302072 -0.410706 36.113 1.34737 1.92874 3.38301 -2.75431 -1.99057 0.0177857 -0.292286 -0.379828 
26.982 1 79 38.8358 4.14598 2.09743 -1.74492 6.21971 3.94413 -0.114227 -0.260845 -0.00172095 0 0 0 0 0 0 0.0095959 -0.0333772 -0.248399 38.5816 4.3536 2.06467 -1.84781 6.7616 4.32493 -0.118262 -0.258108 -0.00628385 38.5946 3.7769 1.95317 -1.64307 5.6786 3.56858 -0.110158 -0.263554 0.00288331 
26.982 1 961 -0.481466 16.1111 16.0778 -2.12399 0.180454 5.07849 0.38875 0.239971 0.625677 0 0 0 0 0 0 -0.124705 -0.0539153 -0.0764579 40.3827 15.9963 16.0859 -2.10025 -0.0116643 5.46404 0.398978 0.235712 0.652185 40.5412 16.187 16.027 -2.14471 0.37448 4.68903 0.378492 0.244252 0.599155 
26.982 1 238 38.9627 2.00766 3.93196 -2.81061 1.3116 -2.37378 -0.26833 -0.0684788 0.465319 0 0 0 0 0 0 -0.0356456 -0.11763 -0.118217 38.8086 2.23612 3.6358 -2.56501 1.61409 -2.40024 -0.271646 -0.0684726 0.478049 38.6221 1.5978 4.07172 -3.05701 1.00932 -2.344 -0.264968 -0.0685075 0.452635 
26.982 1 277 36.7644 4.07668 4.0754 -4.50233 3.87983 0.386707 -0.115485 -0.177303 0.0774498 0 0 0 0 0 0 0.0157346 -0.0294661 -0.0571968 36.5948 3.6527 3.92835 -4.54134 3.66817 0.515774 -0.119674 -0.173986 0.0762128 36.4923 4.33835 4.06496 -4.46601 4.09138 0.262099 -0.111296 -0.180623 0.0786916 
26.982 1 631 30.5053 0.0427291 14.1675 -0.932775 1.80787 -1.72855 0.0589722 0.289878 0.0348374 0 0 0 0 0 0 -0.033203 -0.254749 -0.0929614 30.7351 41.2327 14.1468 -0.400358 2.33898 -2.10794 0.0658414 0.290799 0.0387685 30.0027 39.9518 14.1276 -1.46444 1.27983 -1.34806 0.0520253 0.288966 0.0308798 
26.982 1 48 3.69907 6.10031 2.06647 -2.77718 -0.499551 0.269854 0.238626 -0.00205155 -0.0527629 0 0 0 0 0 0 -0.0904682 0.0302622 -0.187779 3.19324 5.9675 1.60233 -3.61845 -0.710475 0.04676 0.233205 -0.00550897 -0.0556368 4.64833 6.0963 2.34942 -1.93235 -0.28451 0.492409 0.244053 0.00141249 -0.0498175 
26.982 1 627 26.429 0.0298807 14.1462 2.08642 -6.67154 4.30386 0.228594 0.210927 -0.0823202 0 0 0 0 0 0 -0.0215385 -0.259708 -0.129518 25.9039 40.7126 14.2474 1.68049 -6.88022 4.43776 0.231111 0.210361 -0.0782194 26.7933 40.4465 13.9848 2.49614 -6.46083 4.17199 0.226108 0.211518 -0.086457 
26.982 1 83 1.82924 8.07824 2.18841 -5.2307 0.576056 -2.85339 -0.504002 -0.0808613 -0.222761 0 0 0 0 0 0 -0.148432 -0.018225 -0.222645 1.43679 8.21311 2.14784 -5.62219 0.806333 -2.76412 -0.515682 -0.0742585 -0.2311 2.72032 7.82409 2.04867 -4.83536 0.34674 -2.94108 -0.492307 -0.0874942 -0.214384 
26.982 1 403 1.87922 -0.17122 10.2497 -0.766154 -2.10577 0.315559 -0.27545 0.133859 -0.0747508 0 0 0 0 0 0 -0.130841 -0.193463 -0.0136364 1.89072 40.3825 9.86362 -0.632187 -1.92165 -0.118281 -0.276475 0.130303 -0.0711131 2.362 40.3735 10.5367 -0.902154 -2.28769 0.752286 -0.274423 0.13745 -0.0783889 
26.982 1 242 1.59674 6.04464 4.1228 -2.3244 -1.96881 1.34499 0.346878 -0.0719819 -0.28774 0 0 0 0 0 0 -0.139753 0.0298461 -0.136989 1.20219 6.34525 4.2557 -2.98215 -1.78448 1.50317 0.345743 -0.070948 -0.304039 2.48897 5.60606 3.83242 -1.6652 -2.14952 1.19177 0.348045 -0.073042 -0.271385 
26.982 1 285 3.8313 8.14407 4.1905 -2.795 0.313131 4.64751 -0.29376 -0.247943 -0.100414 0 0 0 0 0 0 -0.0434187 0.00453278 -0.0594737 3.03662 8.27863 3.82604 -3.68841 0.548409 4.39457 -0.299567 -0.243238 -0.102169 5.06962 7.89029 4.39651 -1.89819 0.0797295 4.90246 -0.287934 -0.252699 -0.0986308 
26.982 1 46 5.95403 5.82933 0.127547 -0.962121 -0.0993068 -1.32058 -0.176398 0.846389 -0.376223 0 0 0 0 0 0 -0.00437513 0.0577321 -0.276727 5.87038 5.64919 0.663231 -1.16779 -0.3284 -0.61557 -0.17767 0.853096 -0.388388 6.42262 5.87334 -0.606739 -0.756569 0.134725 -2.02269 -0.17507 0.839723 -0.364026 
26.982 1 52 7.95324 6.13474 2.0309 -2.94848 0.932072 2.30642 -7.58617e-06 -0.367328 -0.0653385 0 0 0 0 0 0 0.0317843 0.024919 -0.178289 8.18092 6.15704 2.65042 -3.07969 0.979269 3.2402 -1.00721e-05 -0.385182 -0.0679185 8.05392 5.97629 1.23137 -2.82041 0.890447 1.37203 4.78873e-05 -0.349427 -0.0627495 
26.982 1 87 5.75136 8.15027 2.14697 1.37933 -4.04409 1.63162 0.251808 -0.284732 -0.217299 0 0 0 0 0 0 -0.0153385 -0.00278374 -0.176563 5.61204 8.20476 2.25014 1.23722 -3.92047 2.20512 0.247596 -0.288793 -0.222894 6.27708 7.97595 1.86337 1.52234 -4.167 1.05871 0.256055 -0.280691 -0.211688 
26.982 1 603 1.73988 -0.0823811 14.2268 1.48604 2.3288 3.09363 -0.292086 0.169941 -0.218102 0 0 0 0 0 0 -0.0753579 -0.194481 -0.0483224 1.96324 40.4476 14.0587 1.48399 2.27509 3.03945 -0.301546 0.181865 -0.226698 2.00828 40.4868 14.3364 1.48494 2.38683 3.15177 -0.282637 0.158061 -0.209489 
26.982 1 246 5.82293 6.07213 4.00278 1.27506 -3.23629 -4.3297 0.243979 0.131969 0.365169 0 0 0 0 0 0 0.00896351 -0.00164718 -0.0305642 6.18481 5.8764 3.37706 1.70415 -3.93798 -4.85321 0.252156 0.126709 0.374575 5.84718 6.13093 4.46868 0.845818 -2.53054 -3.80662 0.235787 0.137247 0.355788 
26.982 1 289 8.05531 8.0706 3.95238 -1.02082 3.4459 0.806056 -0.601721 0.215077 0.388944 0 0 0 0 0 0 -0.0123359 0.00229177 -0.036913 8.55753 7.65937 3.78717 -0.69442 3.09087 0.97662 -0.620244 0.221199 0.408113 7.88226 8.36359 3.95833 -1.34955 3.80333 0.635883 -0.583163 0.20893 0.369744 
26.982 1 92 7.83967 10.1065 2.00295 -5.59732 -0.720243 1.35767 0.0612135 0.235749 0.36437 0 0 0 0 0 0 -0.0100528 -0.016537 -0.134275 7.87257 9.7102 1.54427 -5.79172 -0.793167 1.33802 0.0555701 0.254587 0.379473 8.13636 10.4025 2.28277 -5.40502 -0.646937 1.37836 0.0669077 0.216855 0.349229 
26.982 1 286 5.80507 10.0817 4.28567 1.28459 -4.04306 -1.08465 0.188764 0.324845 -0.538463 0 0 0 0 0 0 0.00264576 0.0140324 -0.049359 5.81817 9.82842 4.27745 1.44271 -4.2643 -0.661676 0.200188 0.338815 -0.552901 6.18033 10.2344 4.13675 1.12911 -3.82286 -1.50406 0.177337 0.310829 -0.524029 
26.982 1 1021 20.1743 0.140191 20.269 -2.56985 -0.124942 -0.547191 0.208762 -0.0869496 -0.101025 0 0 0 0 0 0 -0.0134236 -0.24147 0.0152096 20.4235 40.7346 20.0516 -2.41247 0.172947 -1.02758 0.215357 -0.0866659 -0.0961502 19.9249 40.6459 20.4865 -2.72559 -0.420336 -0.0657745 0.202143 -0.0872953 -0.10594 
26.982 1 56 12.1813 6.09325 2.06298 1.93369 -2.34855 2.80656 -0.421477 0.141243 -0.244583 0 0 0 0 0 0 -0.0557679 0.0241804 -0.163876 12.3173 6.11221 2.24267 1.93975 -2.01931 3.04161 -0.428941 0.134326 -0.250579 12.2665 5.93947 1.70167 1.9312 -2.67098 2.57068 -0.414017 0.148238 -0.23856 
26.982 1 91 9.93594 8.14713 1.96895 -0.501356 0.919767 -0.653503 0.122795 -0.0961062 0.29356 0 0 0 0 0 0 0.00341495 -0.0508284 -0.200981 10.2917 8.58616 1.99806 -0.216126 1.64731 -0.515718 0.119479 -0.10676 0.301244 9.8552 7.59156 1.76138 -0.786867 0.197666 -0.789886 0.126151 -0.0854592 0.285869 
26.982 1 250 9.98569 6.08467 4.04186 0.533175 2.11759 4.03334 0.195123 -0.00711638 -0.258388 0 0 0 0 0 0 -0.00358072 0.000628167 -0.0468161 10.2858 6.0286 4.89046 0.573207 2.44309 5.38511 0.189939 -0.0117557 -0.262311 9.95901 6.00635 3.0321 0.491598 1.7997 2.67987 0.200354 -0.00242529 -0.254496 
26.982 1 293 11.9713 8.15745 4.08691 -3.00802 6.11396 -0.503778 -0.00567783 0.119155 -0.477965 0 0 0 0 0 0 -0.0179568 -0.00178917 -0.0463115 12.0342 7.55212 4.62649 -3.46134 5.67405 0.501545 -0.0134657 0.12265 -0.486706 12.1292 8.64603 3.38739 -2.55148 6.55688 -1.50838 0.00214076 0.115633 -0.469248 
26.982 1 54 14.2407 6.2572 -0.105248 1.28916 -7.88432 -2.73129 -0.541403 -0.404369 0.249628 0 0 0 0 0 0 -0.0778546 0.0077335 -0.277834 14.0101 6.60845 -0.299208 0.802533 -7.74437 -3.27906 -0.554207 -0.417824 0.246266 14.6366 5.77103 -0.111971 1.77704 -8.01824 -2.18098 -0.528589 -0.390855 0.253028 
26.982 1 60 15.9047 6.34006 2.09501 -0.653425 3.07385 -0.049696 0.65828 -0.622124 -0.133117 0 0 0 0 0 0 0.00340278 -0.0293114 -0.0894461 16.2891 6.80278 1.24761 -0.28041 3.59658 -0.963377 0.679168 -0.648768 -0.130471 15.6301 5.74045 2.76272 -1.02502 2.55681 0.867488 0.637399 -0.595428 -0.135731 
26.982 1 95 14.0561 8.27682 1.90949 -3.88508 2.65368 -1.87321 -0.0454366 -0.36606 0.0845487 0 0 0 0 0 0 -0.0523666 -0.0190504 -0.135507 14.396 8.42883 0.91746 -3.76444 3.02816 -3.00433 -0.0437289 -0.377791 0.0900877 13.8809 8.00781 2.72318 -4.00252 2.28347 -0.736425 -0.047151 -0.354341 0.0790324 
26.982 1 97 16.2048 8.17689 0.0119543 -1.55054 4.7441 1.2263 -0.350676 0.437823 -0.120663 0 0 0 0 0 0 -0.0179196 0.0105825 -0.273252 15.9364 8.70529 0.460928 -1.87848 5.64827 1.67008 -0.352409 0.439414 -0.129367 16.5822 7.52937 -0.636127 -1.22264 3.84229 0.788327 -0.348939 0.436235 -0.111931 
26.982 1 254 14.0156 6.32766 4.0495 -0.195884 1.66224 -3.34724 0.318844 -0.177807 0.322735 0 0 0 0 0 0 0.0022902 -0.0207038 -0.0138275 13.9637 6.13263 4.13558 -0.667316 1.83305 -3.268 0.33212 -0.198772 0.328935 14.2341 6.38901 3.80234 0.280638 1.49985 -3.42645 0.305574 -0.156783 0.316561 
26.982 1 297 16.1801 8.13598 4.13604 0.907206 4.57955 -2.82308 0.0366288 0.0981461 -0.366306 0 0 0 0 0 0 0.00281894 0.00228055 -0.0289035 16.4082 7.93498 3.42742 0.928517 4.89312 -3.5893 0.0441777 0.100442 -0.390705 16.0616 8.21981 4.68649 0.888735 4.26925 -2.05322 0.0290765 0.0958309 -0.34189 
26.982 1 58 18.1384 6.31931 0.0714878 5.13352 -2.56648 1.18482 0.0835162 -0.955922 -0.3459 0 0 0 0 0 0 0.0243532 -0.0182319 -0.275868 17.374 6.80216 0.330361 4.20402 -1.74273 1.09984 0.0838499 -0.977867 -0.354808 18.9575 5.70025 -0.38721 6.06363 -3.38373 1.27564 0.0831929 -0.933952 -0.336979 
26.982 1 2639 38.6333 20.1994 14.2107 1.45167 2.24938 -0.0674487 0.467924 -0.0917219 -0.0354026 0 0 0 0 0 0 0.0243016 0.0606979 -0.155076 38.5522 21.0253 13.9588 1.65733 2.95288 -0.480715 0.470993 -0.090169 -0.0513816 38.2226 19.373 14.4034 1.24912 1.54542 0.346041 0.464837 -0.0932877 -0.0193899 
26.982 1 64 20.1535 6.04697 1.97956 4.21082 -0.441389 0.337295 0.0893351 0.484833 -0.0554658 0 0 0 0 0 0 0.0459503 0.0123123 -0.126115 19.706 6.23282 1.3046 3.9416 -0.446426 -0.152671 0.0931228 0.49628 -0.0517165 20.603 5.72144 2.47712 4.48322 -0.435199 0.834002 0.0855593 0.473411 -0.0591935 
26.982 1 99 18.2532 8.0808 2.00415 1.66492 0.846463 -1.20626 -0.188439 0.615403 0.494476 0 0 0 0 0 0 0.0201816 0.0215621 -0.0818992 18.0499 8.63203 1.1219 1.21476 1.68512 -2.25091 -0.187152 0.635868 0.509325 18.5111 7.41037 2.70857 2.11554 0.00914795 -0.155059 -0.189733 0.594933 0.479646 
26.982 1 103 22.3504 8.16168 1.98348 2.26453 4.16407 0.320131 -0.0896539 -0.165969 0.301597 0 0 0 0 0 0 0.00484982 0.0119474 -0.164631 21.5691 8.30055 2.52726 1.58546 5.14527 0.979249 -0.0953539 -0.160095 0.309949 23.079 7.90124 1.26315 2.94622 3.18227 -0.332859 -0.0839462 -0.171877 0.293241 
26.982 1 258 18.1648 6.15963 4.06457 1.97786 -3.7489 -1.65496 -0.0234426 -0.0720275 -0.225526 0 0 0 0 0 0 0.00215637 -0.00153546 -0.0231861 18.2719 6.20692 3.9446 1.83998 -3.51945 -1.31292 -0.0263884 -0.0683714 -0.241825 18.1147 5.97416 4.02588 2.11899 -3.97482 -1.99313 -0.0204917 -0.0756487 -0.209204 
26.982 1 262 22.3977 6.13399 4.06503 1.66725 -3.71837 -2.61563 -0.19278 0.403951 -0.0489634 0 0 0 0 0 0 0.00816244 0.00904316 -0.0261581 21.444 6.39734 3.96938 0.831586 -3.42559 -2.91142 -0.188605 0.407254 -0.0428348 23.2978 5.73181 4.00231 2.50476 -4.00856 -2.31592 -0.196995 0.400655 -0.0551206 
26.982 1 301 20.3602 8.02181 4.04878 1.62266 0.812495 1.97116 -0.276481 0.401904 -0.0702263 0 0 0 0 0 0 0.00898967 0.0291348 -0.0195293 19.7707 7.59198 3.9945 1.2463 0.654711 2.345 -0.277306 0.429061 -0.0641997 20.9503 8.33167 3.94577 1.99978 0.969898 1.60256 -0.275679 0.374716 -0.0762612 