ITEM: TIMESTEP
7675
ITEM: NUMBER OF ATOMS
4000
ITEM: BOX BOUNDS pp pp pp
-1.63408 42.1341
0.441678 40.0583
0.447678 40.0523
ITEM: ATOMS mass type id x y z vx vy vz fx fy fz xrad yrad zrad vxrad vyrad vzrad fxrad fyrad fzrad xub yub zub vxub vyub vzub fxub fyub fzub xlb ylb zlb vxlb vylb vzlb fxlb fylb fzlb 
26.982 1 43 0.5067 4.58785 2.35252 4.04663 -1.40341 -4.01945 0.433167 -0.751509 -0.0709818 0 0 0 0 0 0 -0.0398331 -0.0611348 -0.103264 -7.23291 -0.629258 5.04007 2.39135 -1.86606 -2.60809 0.443974 -0.78126 -0.0704374 11.0976 9.03158 -1.22974 5.71174 -0.928994 -5.41731 0.422312 -0.721737 -0.0715082 
26.982 1 202 0.401561 2.40661 4.24513 -3.38764 1.18932 -2.48815 0.161876 0.230657 0.0613108 0 0 0 0 0 0 -0.105563 -0.120474 -0.0859348 1.13937 -1.89036 5.89017 -3.60358 0.0390833 -2.50378 0.156383 0.218369 0.0647867 2.51134 5.82553 1.85475 -3.16037 2.35248 -2.45011 0.167393 0.242986 0.0578043 
26.982 1 4 -1.69726 2.64627 2.41948 -3.60637 -0.764058 -0.829004 -0.0705781 -0.554782 0.295138 0 0 0 0 0 0 -0.171342 -0.110924 -0.028161 33.7885 1.99938 4.20086 -4.76759 -1.2174 -0.3697 -0.0725868 -0.587646 0.307309 47.2585 2.40744 -0.218554 -2.44367 -0.295864 -1.26359 -0.0685423 -0.521859 0.28293 
26.982 1 2 0.466547 2.47791 0.479586 3.49705 -2.76561 -0.691942 0.228697 0.122266 0.184123 0 0 0 0 0 0 -0.00349449 -0.0732606 -0.202631 2.0746 7.81665 10.8482 3.60501 -1.33169 1.53845 0.238928 0.114077 0.181827 1.67926 -3.72518 -10.9174 3.3943 -4.17773 -2.91531 0.218418 0.13049 0.186396 
26.982 1 8 2.73229 2.49627 2.17309 4.1334 -4.6399 -0.946655 0.149345 0.30788 0.280179 0 0 0 0 0 0 -0.000119939 -0.0753998 -0.165724 -1.15921 7.92746 1.67294 3.7007 -3.40301 -1.86753 0.152666 0.299872 0.282542 9.15125 -3.80701 1.79379 4.57469 -5.86187 -0.00784083 0.145999 0.315888 0.277868 
26.982 1 205 2.63155 0.601025 4.34472 -3.62302 0.508381 -6.26105 0.175571 -0.354503 -0.132588 0 0 0 0 0 0 -0.0573852 -0.186467 -0.133352 0.485016 39.0818 3.58111 -4.06303 0.136682 -6.94803 0.177251 -0.371111 -0.124731 7.28483 42.4427 4.33502 -3.17748 0.895105 -5.55245 0.173891 -0.337915 -0.140424 
26.982 1 1 -1.61522 0.458162 0.51871 2.49741 0.502371 -0.71068 -0.107691 -0.105459 0.109259 0 0 0 0 0 0 -0.0797879 -0.125076 -0.0741963 39.9125 46.2926 5.31332 1.78082 1.26992 -0.141996 -0.114827 -0.109504 0.112 41.3021 34.9039 -5.26913 3.21878 -0.256092 -1.26566 -0.100552 -0.101379 0.106452 
26.982 1 41 -1.70018 4.44931 0.423891 7.16305 0.917201 2.0843 0.204132 -0.283836 -0.0546994 0 0 0 0 0 0 -0.145682 -0.0209621 -0.195788 -6.41773 6.69572 8.97319 6.31391 1.43127 2.80693 0.203801 -0.303887 -0.055411 6.143 1.44289 -9.09718 8.0182 0.424817 1.379 0.204492 -0.263777 -0.0539665 
26.982 1 245 2.70024 4.31897 4.20848 3.22305 2.21858 -2.29685 -0.172311 -0.36658 0.41876 0 0 0 0 0 0 -0.0190351 -0.0246087 -0.0506433 2.35023 4.20019 4.29746 3.04602 2.69354 -2.25141 -0.174243 -0.368356 0.423984 5.58631 3.68885 3.34614 3.4124 1.76161 -2.32455 -0.170406 -0.364773 0.413558 
26.982 1 47 5.06131 4.37314 2.37639 -0.561531 2.97125 0.682261 -0.258128 0.0227449 -0.230867 0 0 0 0 0 0 0.0148896 -0.0656149 -0.20298 2.42459 7.3564 1.90882 -1.11156 4.4422 0.558716 -0.257608 0.0170319 -0.228339 9.87377 0.668941 1.96592 -0.00741155 1.5265 0.824382 -0.258644 0.0284476 -0.233333 
26.982 1 206 4.82828 2.45037 4.34429 -1.60343 0.417604 -4.37446 0.214241 0.00580991 0.017205 0 0 0 0 0 0 0.0114202 -0.0710819 -0.0683317 7.93155 0.347272 9.90018 -1.35164 -0.666742 -4.04526 0.219471 -0.011471 0.0216665 3.90058 3.69405 -1.94844 -1.85129 1.51812 -4.67483 0.208972 0.0231039 0.0127652 
26.982 1 12 7.1474 2.40735 2.35268 1.59107 -2.82848 4.42563 0.0705569 -0.030224 0.0433704 0 0 0 0 0 0 0.048194 -0.075866 -0.195369 7.49713 2.52063 0.657437 1.79853 -2.78706 3.70056 0.0746274 -0.0419963 0.0542574 8.62797 1.43371 3.18077 1.38095 -2.84758 5.17726 0.0664918 -0.01842 0.0324887 
26.982 1 249 7.03903 4.383 4.38264 -3.81094 -2.15538 -2.70495 0.473562 -0.124445 -0.416033 0 0 0 0 0 0 0.0188682 -0.0328352 -0.0680848 9.20561 -3.03694 5.89295 -4.05671 -2.72294 -2.67025 0.485757 -0.133719 -0.424516 6.69822 11.0718 2.09394 -3.5678 -1.56604 -2.71841 0.46136 -0.115157 -0.407564 
26.982 1 209 7.01147 0.570601 4.37476 0.361765 0.327479 0.293617 0.276735 -0.193447 0.263634 0 0 0 0 0 0 0.0474019 -0.176216 -0.133606 9.89205 -1.81563 1.35265 0.37673 -0.198778 -0.820265 0.278702 -0.212652 0.270553 5.96607 1.97837 6.60565 0.34139 0.873546 1.42352 0.274727 -0.174268 0.25674 
26.982 1 7 4.97 0.445672 2.43124 -2.39938 2.0917 3.70148 -0.0125961 0.159628 -0.201848 0 0 0 0 0 0 0.00899752 -0.191 -0.14423 6.27111 39.8466 -2.37984 -2.99263 2.04559 2.72221 -0.0063118 0.152053 -0.213524 5.8334 41.3841 6.37328 -1.8094 2.15787 4.70425 -0.0189059 0.167179 -0.190181 
26.982 1 5 2.81871 0.481643 0.484927 -1.66644 -0.741162 -0.597707 0.056363 -0.219889 -0.269188 0 0 0 0 0 0 -0.00610353 -0.136402 -0.171126 2.77232 38.5382 -5.40585 -1.65265 -1.26812 -1.55811 0.0627146 -0.22488 -0.281776 5.35826 42.7587 5.43092 -1.67956 -0.194107 0.390595 0.0500038 -0.214924 -0.256618 
26.982 1 9 7.10559 0.438446 0.357654 -4.62767 0.237036 2.10784 0.0917572 -0.133294 0.717167 0 0 0 0 0 0 0.0394315 -0.0946881 -0.152682 3.26206 10.0887 1.5984 -5.74564 1.60464 2.41745 0.0900304 -0.145922 0.749514 12.7965 -10.1665 -1.83375 -3.50898 -1.11596 1.82663 0.0934935 -0.120693 0.684801 
26.982 1 51 9.36322 4.27486 2.27288 0.419786 2.87061 7.06805 -0.102399 0.283171 0.357619 0 0 0 0 0 0 0.00859268 -0.0871322 -0.204089 2.4969 4.96694 -3.95292 -0.894283 4.28331 5.30735 -0.110215 0.289225 0.377065 17.7471 2.85731 7.63046 1.72898 1.48364 8.85753 -0.0945735 0.277154 0.338187 
26.982 1 210 9.41134 2.46726 4.41 -1.05323 3.33372 -5.06081 -0.423107 0.343668 0.391977 0 0 0 0 0 0 0.00283139 -0.115235 -0.113179 7.08193 3.05649 6.88944 -1.83455 2.85486 -5.69503 -0.435384 0.341231 0.409321 13.2595 1.00312 1.11838 -0.277802 3.83059 -4.41586 -0.410827 0.346161 0.374658 
26.982 1 16 11.6372 2.537 2.40049 3.59204 2.62243 -0.00333338 0.0745457 -0.7641 0.151963 0 0 0 0 0 0 0.0249068 -0.127081 -0.202777 12.7754 4.36082 -3.62181 3.61877 3.68968 -1.71564 0.0871459 -0.799919 0.164015 11.7593 -0.137811 7.52508 3.57019 1.57951 1.72031 0.0619586 -0.728257 0.139887 
26.982 1 213 11.5039 0.545188 4.61499 2.87324 -0.778225 5.17793 0.212843 -0.173867 -0.162644 0 0 0 0 0 0 0.0198038 -0.181628 -0.193004 10.33 -3.11369 6.93802 2.7281 -1.12524 6.11726 0.221597 -0.186072 -0.175287 13.9165 3.22111 1.47002 3.01732 -0.414436 4.25072 0.204084 -0.161629 -0.149987 
26.982 1 13 11.6224 0.362434 0.453859 3.44382 -2.10546 2.02645 -0.0948015 -0.0736158 0.561464 0 0 0 0 0 0 0.0215085 -0.0867896 -0.0999801 8.395 33.0505 38.8339 3.08116 -4.23066 1.51262 -0.0877298 -0.0812556 0.592923 16.1055 48.0151 42.4069 3.81075 0.0396119 2.55766 -0.101885 -0.0659407 0.529946 
26.982 1 253 11.4987 4.42516 4.33307 -2.51735 7.64236 0.596974 0.080805 -0.173817 0.9145 0 0 0 0 0 0 0.0100709 -0.0443164 -0.059491 11.5112 2.26763 15.7439 -2.59783 7.02021 2.13408 0.0822279 -0.181872 0.943044 12.7406 5.87638 -7.86467 -2.43407 8.29803 -0.920437 0.0793871 -0.165748 0.885982 
26.982 1 55 13.7763 4.27208 2.47609 -0.0114333 1.4097 2.12167 0.120106 0.270626 -0.229786 0 0 0 0 0 0 0.00173249 -0.0632558 -0.244376 14.534 3.45256 4.17527 -0.0442184 1.39783 2.31917 0.130243 0.271494 -0.249126 13.9723 4.37051 -0.0855358 0.0241292 1.44789 1.94926 0.109935 0.26977 -0.210484 
26.982 1 214 13.6827 2.44396 4.55824 -1.58763 2.01 -1.75627 -0.221759 -0.179281 -0.325595 0 0 0 0 0 0 0.0236085 -0.137243 -0.134281 18.8452 1.97431 10.3344 -0.614405 2.59078 -1.65116 -0.230812 -0.193343 -0.350929 9.46976 2.07204 -2.02737 -2.55675 1.45581 -1.84679 -0.212736 -0.165172 -0.300282 
26.982 1 20 16.008 2.3685 2.54131 2.34103 5.32688 0.93091 -0.301698 0.0920293 -0.681787 0 0 0 0 0 0 -0.080983 -0.14999 -0.162551 19.3591 -5.15451 6.43663 3.19618 4.54337 1.14205 -0.30838 0.0969919 -0.70127 13.2756 9.08861 -2.23803 1.48331 6.13525 0.741001 -0.295015 0.0870832 -0.662338 
26.982 1 257 15.7658 4.31882 4.3655 3.09175 2.2456 -0.424638 0.399079 -0.0765473 0.337118 0 0 0 0 0 0 -0.0162778 -0.0567071 -0.0589969 18.1216 -2.80974 6.99593 3.85498 0.807347 -0.229376 0.400136 -0.0717733 0.341137 14.0478 10.7015 0.932215 2.32774 3.70624 -0.603276 0.397999 -0.0812765 0.333122 
26.982 1 218 18.2152 2.30926 4.45342 -1.16364 -2.30386 0.987613 -0.171834 0.404985 0.15573 0 0 0 0 0 0 -0.0629149 -0.105325 -0.0522498 14.7746 -2.12296 5.1474 -1.81063 -2.27521 0.895761 -0.171353 0.425325 0.154617 21.9543 5.93766 2.96772 -0.520258 -2.3045 1.09884 -0.172246 0.384662 0.15682 
26.982 1 59 18.0789 4.4965 2.50745 1.24814 -0.129142 -1.49143 -0.0142293 -0.68251 -0.530008 0 0 0 0 0 0 -0.0501272 -0.0482275 -0.156554 23.3059 0.982734 4.93093 1.96856 -1.21509 -1.08714 -0.017012 -0.699865 -0.562911 13.1559 7.28886 -0.781667 0.522512 0.978205 -1.86873 -0.011407 -0.665178 -0.497086 
26.982 1 24 20.2919 2.43441 2.36505 2.67532 -2.72195 3.95715 -0.217395 0.0353998 0.159605 0 0 0 0 0 0 -0.0177871 -0.125841 -0.13662 18.0362 1.29079 5.88605 2.13684 -2.48531 4.9409 -0.230062 0.0454754 0.161948 22.5259 2.77286 -2.03432 3.21133 -2.93455 2.99107 -0.204678 0.0253169 0.157313 
26.982 1 19 18.1086 0.539555 2.38111 -2.08688 -1.96499 -8.34535 0.0322965 -0.137705 -0.0452319 0 0 0 0 0 0 -0.0640195 -0.244016 -0.128216 26.8722 -8.04001 4.95236 -0.601143 -3.0801 -7.862 0.0270568 -0.139978 -0.0459821 9.63206 8.17018 -1.08024 -3.57603 -0.831772 -8.81117 0.0375978 -0.135469 -0.0444751 
26.982 1 18 17.924 2.48187 0.38255 4.2585 0.52173 -2.3187 0.455512 0.0324858 -0.0895055 0 0 0 0 0 0 -0.0738433 -0.087355 -0.23899 21.069 -0.0105569 3.76406 5.17438 0.420622 -2.09659 0.459125 0.0480802 -0.0912923 15.07 4.15563 -3.96501 3.33794 0.64676 -2.51699 0.451893 0.0168519 -0.0877218 
26.982 1 221 20.3364 0.512108 4.45627 3.04776 -4.05069 1.8645 -0.134954 -0.0387188 0.138414 0 0 0 0 0 0 -0.00847109 -0.200907 -0.111081 17.8364 39.0274 0.123476 2.27685 -4.94007 1.5205 -0.134052 -0.0403001 0.147705 22.8312 42.3498 8.00924 3.81707 -3.1417 2.22469 -0.135841 -0.0371406 0.129093 
26.982 1 261 20.3351 4.5622 4.24446 0.195178 -0.787059 -0.32012 -0.0241046 -0.506703 0.400749 0 0 0 0 0 0 -0.00113205 -0.0247677 -0.0317345 18.0669 3.73272 8.01312 0.0104203 -0.86798 0.300112 -0.0250474 -0.518804 0.411154 22.5858 4.66724 -0.309755 0.373909 -0.686033 -0.922904 -0.0230885 -0.49458 0.390369 
26.982 1 63 22.5026 4.4918 2.27842 0.672796 -1.2431 0.712205 0.0712875 -0.116695 0.331285 0 0 0 0 0 0 0.00921551 0.0151024 -0.142843 26.2911 7.60909 1.62252 1.65539 0.140192 1.27089 0.0755766 -0.128102 0.349935 18.3984 0.658014 2.07881 -0.310136 -2.60536 0.177192 0.067052 -0.105263 0.312672 
26.982 1 222 22.323 2.57208 4.43556 -5.3695 -4.12718 -0.0515869 0.41075 0.103669 -0.32136 0 0 0 0 0 0 0.0467647 -0.106706 -0.0445337 20.7548 2.67991 6.24015 -5.61242 -3.24618 0.600974 0.414026 0.0932352 -0.318722 23.5736 1.65227 1.85536 -5.12913 -4.9848 -0.685877 0.407465 0.114144 -0.324013 
26.982 1 28 24.7382 2.49632 2.36211 -0.734137 0.539645 0.50536 -0.627323 -0.248323 -0.184915 0 0 0 0 0 0 0.0232652 -0.211831 -0.0967522 25.2845 6.35563 6.06789 -0.0518419 1.21419 1.44818 -0.628785 -0.272439 -0.178567 23.6031 -2.17648 -2.23651 -1.40926 -0.114578 -0.429085 -0.625901 -0.224184 -0.191255 
26.982 1 265 24.8032 4.38419 4.30811 -4.27083 6.45361 4.03852 -0.565338 0.366514 0.255017 0 0 0 0 0 0 -0.00110217 -0.0383242 -0.0296408 27.4431 -5.21794 4.86548 -3.72189 4.41934 4.66805 -0.568063 0.370179 0.259658 21.5555 13.2364 2.95259 -4.81637 8.49792 3.41982 -0.562651 0.362895 0.250373 
26.982 1 23 22.3698 0.528299 2.49079 -1.88762 -0.861357 -3.12884 0.246779 -0.373694 0.116727 0 0 0 0 0 0 0.0633968 -0.250701 -0.123897 17.892 44.894 6.02761 -2.63962 0.384844 -2.49871 0.252722 -0.389034 0.110034 26.55 36.5091 -1.89171 -1.13171 -2.08728 -3.73509 0.240811 -0.35835 0.123404 
26.982 1 61 20.4132 4.15811 0.324028 -0.247747 2.48128 1.06444 -0.641858 0.64589 0.0661359 0 0 0 0 0 0 -0.000730414 0.0254795 -0.277373 24.7194 -1.94454 -4.55485 0.345208 1.91238 0.625177 -0.668029 0.659559 0.0743245 16.0882 9.5186 4.24768 -0.843089 3.06546 1.53186 -0.615602 0.632265 0.0579846 
26.982 1 22 22.5408 2.36327 0.588118 -0.256146 0.0340756 2.52045 -0.237293 0.0192326 -0.516965 0 0 0 0 0 0 0.0217187 -0.137712 -0.251943 28.4709 6.15542 0.327712 0.962989 1.82816 2.52804 -0.237535 0.0207039 -0.529004 16.3123 -2.24725 -0.105718 -1.46778 -1.73842 2.53761 -0.237 0.0177903 -0.504922 
26.982 1 67 26.5878 4.3501 2.26203 1.74721 -2.14528 -2.68898 0.864605 0.457828 0.248214 0 0 0 0 0 0 0.00278908 -0.0434267 -0.0990706 27.9857 -0.466454 4.86336 1.51576 -2.78544 -1.76863 0.88136 0.462096 0.257599 24.2902 8.40405 -1.20557 1.9886 -1.4928 -3.59648 0.84777 0.453583 0.238848 
26.982 1 226 26.7405 2.43698 4.50423 -3.37585 1.93054 -0.690251 0.566173 -0.0777152 -0.116413 0 0 0 0 0 0 -0.0126247 -0.159216 -0.0774237 26.2718 1.5536 6.78394 -3.57979 1.47355 0.230922 0.589898 -0.0878308 -0.113204 26.325 2.52946 1.41559 -3.15947 2.41756 -1.60499 0.542406 -0.067541 -0.119644 
26.982 1 269 28.8546 4.42874 4.56106 -2.32199 -0.324931 -0.718277 0.106931 0.0449601 -0.519161 0 0 0 0 0 0 -0.00205807 -0.0395757 -0.0375374 26.5006 10.4681 12.2736 -2.63908 0.795625 1.0037 0.10837 0.0414278 -0.541162 30.0055 -2.36097 -3.91547 -1.99165 -1.42872 -2.41654 0.105423 0.0485088 -0.497175 
26.982 1 229 28.9845 0.476557 4.39174 -2.11485 -1.51838 0.0302119 -0.323414 -0.0738993 0.479537 0 0 0 0 0 0 -0.00966148 -0.192537 -0.17284 26.23 33.3072 12.0179 -3.11065 -1.98627 1.69933 -0.33716 -0.0727933 0.503909 30.5208 48.0334 -3.99421 -1.10957 -1.01671 -1.6268 -0.309648 -0.0750054 0.455182 
26.982 1 65 24.4194 4.54698 0.240773 0.309951 2.88352 -4.85053 0.345884 -0.397754 0.0984735 0 0 0 0 0 0 -0.0392139 0.0124327 -0.270748 23.9083 11.127 10.9628 0.091609 5.02233 -1.91325 0.351821 -0.413069 0.109072 24.3218 -2.78603 -11.4079 0.533237 0.760036 -7.76526 0.339902 -0.382416 0.0878794 
26.982 1 69 29.0053 4.33827 0.325059 2.64858 -0.317882 -2.06256 -0.310109 -0.142104 0.154213 0 0 0 0 0 0 -0.0121293 -0.0534303 -0.252285 28.2681 12.6925 0.810152 2.32577 2.15889 -1.28348 -0.316421 -0.147219 0.173644 28.4977 -4.80388 -1.12124 2.97567 -2.78417 -2.82086 -0.303833 -0.136986 0.134755 
26.982 1 26 26.7991 2.44254 0.406194 -0.606515 -1.64625 3.10529 0.120616 0.0172778 -0.272705 0 0 0 0 0 0 -0.00227833 -0.184242 -0.200981 22.375 4.88358 6.32648 -1.61695 -0.863748 5.05429 0.126585 0.00467929 -0.275171 30.3309 -0.829573 -6.47188 0.413742 -2.40723 1.17153 0.114592 0.0298952 -0.270245 
26.982 1 32 28.9177 2.47895 2.46829 1.93534 1.76535 2.34311 -0.361486 -0.0637959 -0.214155 0 0 0 0 0 0 -0.0127094 -0.20914 -0.130663 23.3095 4.50018 6.45295 0.418032 2.80428 3.54364 -0.371785 -0.0776926 -0.228017 33.2951 -0.352556 -2.38401 3.46121 0.754967 1.15811 -0.351229 -0.0499141 -0.200331 
26.982 1 71 31.024 4.22251 2.28469 2.07078 -2.03078 4.79964 0.273087 0.662426 0.185998 0 0 0 0 0 0 0.0200789 -0.0637964 -0.0964488 30.7874 6.05608 1.10742 1.79305 -0.574462 4.67839 0.269306 0.68031 0.192831 29.6876 1.62018 2.63577 2.34748 -3.47726 4.94757 0.276841 0.644554 0.179143 
26.982 1 230 30.9714 2.50799 4.29693 0.586791 1.86912 0.930357 0.503622 -0.576555 0.249912 0 0 0 0 0 0 0.0391387 -0.158015 -0.0873596 24.5334 -2.24308 5.3659 -0.69001 1.14227 0.888694 0.507929 -0.586739 0.25269 35.8524 6.45153 2.49154 1.86639 2.62427 0.993175 0.499309 -0.566398 0.247144 
26.982 1 36 33.4399 2.5494 2.44794 0.611848 5.01262 -0.416339 -0.577547 -0.503873 -0.447982 0 0 0 0 0 0 0.0508759 -0.231826 -0.153165 33.5732 0.678505 -1.39169 1.23363 4.68163 -1.1711 -0.583155 -0.526664 -0.44895 31.417 3.59401 5.47068 -0.019457 5.36913 0.367104 -0.571928 -0.481128 -0.447044 
26.982 1 73 33.372 4.41001 0.346855 -1.53415 5.14098 3.04669 -0.253651 -0.232824 0.140026 0 0 0 0 0 0 0.104281 -0.0605244 -0.248776 30.5809 11.7518 2.96902 -1.20743 7.1987 3.74554 -0.258688 -0.235657 0.156438 34.2616 -3.69059 -3.2096 -1.87395 3.09457 2.37924 -0.248621 -0.230033 0.123599 
26.982 1 30 31.1889 2.40122 0.265589 -6.43697 -3.79579 3.36979 -0.241978 0.0896731 0.380814 0 0 0 0 0 0 0.0336524 -0.181007 -0.188411 33.8256 -4.49462 0.658189 -5.60014 -4.82926 3.56899 -0.245121 0.0878135 0.406821 26.9613 8.43254 -1.08602 -7.281 -2.74666 3.1919 -0.238834 0.0915436 0.354816 
26.982 1 273 33.1547 4.35269 4.41618 4.52264 0.55273 -2.53046 0.322435 0.211747 0.113543 0 0 0 0 0 0 0.0218475 -0.0477964 -0.0469786 38.7584 7.30931 3.75989 5.31178 2.47272 -2.55577 0.325317 0.217774 0.109321 25.6427 0.619379 4.31034 3.72299 -1.35373 -2.4872 0.319564 0.205719 0.117765 
26.982 1 75 35.4027 4.47749 2.49025 1.0889 -0.0364759 -2.09378 0.140363 -0.378325 0.0554852 0 0 0 0 0 0 0.0599958 -0.0553431 -0.211808 39.2037 4.08265 4.70845 1.66972 1.61132 -1.75341 0.143438 -0.391675 0.0577998 29.385 4.07009 -0.568184 0.493006 -1.6722 -2.40532 0.137306 -0.365022 0.0531583 
26.982 1 234 35.3316 2.30152 4.33994 0.918614 1.04635 -5.45703 0.480001 0.119799 0.333307 0 0 0 0 0 0 0.0175929 -0.174384 -0.117395 40.2268 1.20145 4.54263 2.15043 0.986313 -6.37491 0.48979 0.120576 0.356823 28.2236 2.5429 3.41035 -0.325248 1.1293 -4.51408 0.470195 0.119049 0.309827 
26.982 1 40 37.553 2.5656 2.44042 3.94365 0.292411 -5.35724 0.247255 -0.213877 0.178513 0 0 0 0 0 0 -0.027427 -0.150288 -0.206476 40.3666 8.92305 0.252754 4.67935 1.166 -7.56356 0.254683 -0.232405 0.189466 32.2245 -4.68514 3.78287 3.19741 -0.561047 -3.12711 0.239849 -0.195346 0.167511 
26.982 1 277 37.503 4.52139 4.41536 -0.496757 -1.16895 -3.08233 0.385543 -0.44994 0.147318 0 0 0 0 0 0 -0.0071563 -0.0664082 -0.0882547 37.0422 10.481 -1.31877 -0.507842 1.41358 -5.26814 0.381547 -0.479005 0.146817 35.4378 -2.22493 9.40325 -0.498212 -3.73944 -0.872555 0.38957 -0.42085 0.14783 
26.982 1 241 41.9476 4.52354 4.47847 0.920031 -1.58375 -3.82608 0.287378 0.188108 -0.285648 0 0 0 0 0 0 -0.010193 -0.049007 -0.041337 -4.70755 5.67802 2.04027 0.455222 -1.12693 -5.6548 0.288763 0.165512 -0.279042 4.18752 2.59773 6.17948 1.38635 -2.02284 -1.97767 0.286015 0.210786 -0.292293 
26.982 1 79 39.8877 4.46804 2.41671 -0.290282 -6.1603 -2.72404 -0.100182 -0.185317 0.0155605 0 0 0 0 0 0 -0.0691174 -0.0478157 -0.221712 36.7659 13.0614 -3.08858 -0.415161 -3.96772 -4.65201 -0.110865 -0.207455 0.0195173 40.1978 -4.9002 7.07936 -0.169981 -8.3408 -0.767136 -0.0894334 -0.163152 0.0116007 
26.982 1 238 39.7873 2.49314 4.46531 1.52131 -2.21949 3.18117 -0.217155 -0.0807842 -0.268233 0 0 0 0 0 0 -0.0318088 -0.150635 -0.0964275 43.7515 3.60781 3.40973 2.70806 -3.06047 2.35105 -0.232669 -0.110972 -0.282743 33.0048 0.509501 4.77886 0.327167 -1.3621 4.03624 -0.201631 -0.0505557 -0.253772 
26.982 1 39 39.9558 0.45929 2.47622 -3.88934 -2.8944 -1.00667 -0.00512825 -0.0558588 -1.53697e-05 0 0 0 0 0 0 -0.052382 -0.182288 -0.106337 38.221 39.6366 6.01203 -3.89304 -3.57213 0.458829 -0.00553102 -0.0708627 -0.000297379 38.8831 41.5904 -1.89703 -3.88898 -2.19653 -2.43611 -0.00470134 -0.0408542 0.000192289 
26.982 1 83 0.597635 8.25962 2.28328 1.6689 1.1874 2.64625 -0.211933 0.0171996 0.388553 0 0 0 0 0 0 -0.112949 0.0162786 -0.107121 -1.26266 16.4068 5.53889 1.2203 2.37324 3.71939 -0.210235 0.037517 0.391424 5.2968 -0.494354 -1.87287 2.12445 0.00954763 1.58575 -0.213704 -0.00315008 0.38574 
26.982 1 242 0.491732 6.29064 4.46456 -2.40953 -2.97926 0.660463 0.154472 -0.17357 -0.134181 0 0 0 0 0 0 -0.123861 0.00633363 -0.0446684 -3.60011 7.9209 9.84275 -3.42911 -2.36048 1.85395 0.159379 -0.16512 -0.14183 7.4247 3.99674 -1.65829 -1.38309 -3.58524 -0.503746 0.149524 -0.181978 -0.126548 
26.982 1 285 2.62911 8.18154 4.2667 1.34882 -0.377763 1.08962 0.0868074 0.325806 0.419743 0 0 0 0 0 0 -0.027639 0.00761065 -0.0180901 -5.56353 10.3885 2.20398 -0.221224 0.632626 1.18147 0.0898116 0.338182 0.421668 13.3685 5.37062 5.53393 2.93198 -1.37908 1.00977 0.0837209 0.313417 0.417856 
26.982 1 48 2.77559 6.20487 2.45968 -6.46734 1.54479 0.607455 0.0310595 0.481481 -0.824807 0 0 0 0 0 0 -0.00383711 -0.0227384 -0.157903 -4.53164 8.76794 -0.9803 -8.16467 3.51534 -0.580738 0.0409086 0.505007 -0.852827 12.6204 2.97563 5.01147 -4.75862 -0.415101 1.81026 0.0211493 0.457967 -0.796743 
26.982 1 84 -1.70626 10.1444 2.50272 1.58873 -4.36303 5.77431 0.197765 0.31 -0.13371 0 0 0 0 0 0 -0.209144 0.00498836 -0.117898 40.3133 13.0964 -6.56191 1.56604 -3.84434 4.69425 0.204701 0.324695 -0.150313 40.6904 6.73852 10.6437 1.60611 -4.86148 6.86225 0.190817 0.295275 -0.117066 
26.982 1 44 -1.53697 6.22408 2.3948 3.10154 2.47903 -1.60213 -0.532305 0.848511 0.0348553 0 0 0 0 0 0 -0.218958 0.0350406 -0.0392816 36.8996 10.5199 3.38479 2.38425 5.24142 -1.29397 -0.540995 0.879451 0.04146 44.5 1.24375 0.520338 3.82496 -0.27124 -1.8947 -0.523594 0.817598 0.0282769 
26.982 1 42 0.483965 6.40682 0.291794 -1.7187 -1.67517 2.87467 0.381784 -0.0327898 0.324199 0 0 0 0 0 0 -0.0434377 -0.00777078 -0.251533 -1.67324 6.88642 3.22942 -2.18645 -0.970943 3.80242 0.399477 -0.0383243 0.340317 5.49774 5.27138 -3.65213 -1.23819 -2.35928 1.95526 0.364009 -0.027294 0.308128 
26.982 1 87 4.83911 8.23171 2.4533 5.51285 2.58739 0.0261185 0.150144 0.225873 -0.0841698 0 0 0 0 0 0 -0.00451569 0.00214133 -0.105717 1.68236 11.5783 7.68844 4.83441 3.84523 1.21523 0.146697 0.240225 -0.0920138 10.1998 4.30276 -3.66432 6.20154 1.3454 -1.14414 0.153593 0.211529 -0.0762818 
26.982 1 246 4.88454 6.13071 4.4443 -2.43892 -0.423191 -1.44781 -0.01207 0.839369 -0.445898 0 0 0 0 0 0 0.00645229 0.0192943 -0.0383858 8.87548 8.30602 6.65563 -1.84126 0.162639 0.0756209 -0.00642314 0.871465 -0.459197 3.08859 3.29544 1.43352 -3.02441 -0.99804 -2.95857 -0.0177418 0.807273 -0.432606 
26.982 1 289 7.05762 8.39128 4.28706 -3.77396 1.42264 -0.601031 -0.209462 -0.436584 0.501247 0 0 0 0 0 0 -0.0148926 -0.0242586 -0.0130818 11.7968 7.48864 8.72912 -3.20301 1.96336 1.1153 -0.223306 -0.455404 0.508709 4.17149 8.71464 -0.961857 -4.34146 0.891469 -2.30514 -0.195587 -0.417781 0.493802 
26.982 1 85 2.68299 8.42128 0.435265 -3.00815 -2.69943 2.15979 0.513234 -0.547809 -0.217741 0 0 0 0 0 0 -0.00698462 -0.00389395 -0.272202 -4.45689 12.7087 9.23465 -4.02684 -2.11568 4.40744 0.533914 -0.554386 -0.22584 12.3394 3.56748 -9.36135 -1.98277 -3.26365 -0.0812881 0.492496 -0.541276 -0.209607 
26.982 1 89 7.22186 8.38254 0.432103 -2.07305 0.0469618 -1.82037 -0.131346 -0.336059 0.0711265 0 0 0 0 0 0 -0.013297 -0.0305704 -0.272976 9.82624 10.3286 -0.35729 -1.42176 0.717701 -2.75335 -0.140404 -0.345319 0.0673798 6.4451 5.86342 0.297055 -2.73249 -0.606329 -0.859215 -0.122218 -0.326809 0.0748989 
26.982 1 46 4.98946 6.35795 0.389605 1.83248 -1.65308 -2.27918 -0.191521 0.127382 -0.131306 0 0 0 0 0 0 -0.00322157 -0.0822259 -0.278465 2.19488 -0.0154545 5.96925 1.10255 -2.31878 -1.53567 -0.201572 0.13697 -0.142489 9.95132 12.0802 -6.12159 2.56178 -0.969041 -2.99329 -0.181448 0.11777 -0.120095 
26.982 1 52 7.14716 6.38974 2.31575 4.47954 -1.72945 -1.23347 -0.00412843 -0.155351 0.263773 0 0 0 0 0 0 -8.54017e-05 -0.0765443 -0.144986 9.03845 6.46611 7.6768 4.93162 -1.4253 0.0338629 -0.0104918 -0.160253 0.272661 7.0869 5.66476 -3.90596 4.02462 -2.01601 -2.47246 0.00226809 -0.150467 0.254913 
26.982 1 91 9.3344 8.23948 2.47081 3.90568 -0.0558776 -3.58955 0.0887843 0.118428 -0.677454 0 0 0 0 0 0 0.0274626 -0.0133115 -0.122549 11.2931 6.09399 4.92471 4.11772 -0.195434 -3.33446 0.0989734 0.124272 -0.697967 8.90141 9.81046 -0.833528 3.68703 0.0941671 -3.81458 0.0786094 0.112586 -0.656958 
26.982 1 250 9.26553 6.30818 4.33966 -0.443261 -2.39043 -3.78896 0.0677904 -0.16472 0.154112 0 0 0 0 0 0 0.00350161 -0.0220907 -0.0311444 8.58845 8.21629 16.1613 -0.755476 -1.46363 -2.3152 0.0652899 -0.165907 0.172451 11.4634 3.79336 -8.3287 -0.135456 -3.28916 -5.26429 0.0703035 -0.163514 0.135798 
26.982 1 56 11.6431 6.20797 2.50703 -3.32278 -2.77191 5.7 -0.224387 0.695251 -0.583558 0 0 0 0 0 0 0.0409024 -0.036108 -0.196688 14.5316 7.13453 6.08759 -3.04688 -2.04516 6.71096 -0.223626 0.724892 -0.596263 10.0141 4.63013 -1.93569 -3.59418 -3.48267 4.71961 -0.225162 0.665627 -0.570871 
26.982 1 50 9.36277 6.28348 0.39823 -1.75683 7.25159 -4.04303 0.0575191 0.248014 0.133037 0 0 0 0 0 0 0.0286031 -0.0863488 -0.271016 12.7329 13.5119 -0.675875 -1.18955 10.379 -4.10741 0.0638137 0.265314 0.137133 7.52689 -1.6047 0.546806 -2.32652 4.13668 -3.94468 0.0512556 0.230733 0.128963 
26.982 1 93 11.5304 8.22261 0.46492 -1.26379 2.14655 -4.53637 0.00670265 0.0265067 0.111719 0 0 0 0 0 0 0.0842463 -0.0253051 -0.26674 10.8789 6.2278 39.0288 -1.73383 2.05435 -3.95183 0.0109081 0.0322446 0.112586 13.4337 9.67073 42.2839 -0.791507 2.25664 -5.08621 0.00246707 0.0207305 0.110846 
26.982 1 293 11.3247 8.37447 4.29773 3.29899 3.31902 2.26499 0.568942 -0.0213205 0.0734402 0 0 0 0 0 0 0.021689 0.0024842 -0.03187 9.92547 11.7697 16.2096 3.09482 5.52084 4.74187 0.580317 -0.0127641 0.080503 13.967 4.38253 -8.3993 3.50318 1.11936 -0.188031 0.557509 -0.0298944 0.0664197 
26.982 1 95 13.7832 8.30048 2.39543 0.156113 -1.86808 3.25031 -0.262773 0.0932932 -0.257025 0 0 0 0 0 0 -0.000757154 0.00860434 -0.189006 15.2751 11.1958 -2.97362 -0.310499 -1.52889 2.7933 -0.265144 0.116807 -0.260114 13.2268 4.81306 6.91703 0.623341 -2.20137 3.73921 -0.260469 0.0697307 -0.25395 
26.982 1 254 13.6163 6.55991 4.46631 -2.62569 0.0554551 3.6407 -0.112961 -0.743095 -0.00907833 0 0 0 0 0 0 -0.0055885 -0.0239341 -0.0616945 12.1951 6.39329 13.4282 -2.86224 -0.666236 5.85265 -0.119386 -0.757111 -0.0204684 15.991 6.097 -5.31148 -2.38564 0.794356 1.43977 -0.106585 -0.729143 0.00232318 
26.982 1 297 15.7755 8.13312 4.45815 -0.282264 -1.2716 1.08673 0.303673 0.986258 0.0227217 0 0 0 0 0 0 -0.0080804 0.0300167 -0.0449132 19.6346 14.3413 -0.104379 0.438532 -0.471563 1.34183 0.300754 1.01621 0.0114712 12.5517 1.34067 8.23924 -1.00096 -2.06487 0.850738 0.306592 0.956237 0.0339987 
26.982 1 60 15.8867 6.29945 2.4713 -3.31653 -2.26901 3.81107 -0.162124 0.145891 -0.285517 0 0 0 0 0 0 -0.0531956 -0.0397072 -0.193355 21.1008 10.4436 -2.26992 -2.33268 -2.65247 2.74761 -0.166532 0.143565 -0.312675 11.2925 1.47519 6.3489 -4.30386 -1.87673 4.89822 -0.157759 0.148158 -0.258358 
26.982 1 99 18.1444 8.30125 2.5461 -0.437058 -0.818452 -2.74629 -0.146353 0.362347 -0.268356 0 0 0 0 0 0 0.0274249 0.0303014 -0.158352 17.533 10.644 -2.06139 0.187912 -0.979311 -3.56956 -0.152956 0.377545 -0.291289 19.0805 5.33356 6.28965 -1.0593 -0.65339 -1.89881 -0.139676 0.347103 -0.245397 
26.982 1 258 18.1858 6.36217 4.35024 3.96867 0.851743 5.67872 -0.458367 -0.140644 -0.0923193 0 0 0 0 0 0 -0.00954088 0.000528083 -0.0402259 16.9429 10.2151 4.80366 3.5792 0.704304 5.82295 -0.468096 -0.135816 -0.0999938 19.7374 1.85295 3.10802 4.35242 1.01663 5.55249 -0.448569 -0.145486 -0.0845955 
26.982 1 298 17.977 10.477 4.27352 2.14335 -5.10427 0.893008 0.345557 -0.641031 0.57559 0 0 0 0 0 0 0.00777094 -0.00485772 -0.0500533 17.4504 11.6094 -8.26552 1.83163 -5.51558 -0.517154 0.345256 -0.65771 0.592768 18.8273 8.85677 16.0502 2.45946 -4.68499 2.32052 0.345934 -0.624427 0.558498 
26.982 1 100 16.0229 10.0486 2.23361 -2.75556 3.84523 -3.73983 -0.426513 0.325407 0.578823 0 0 0 0 0 0 -0.0348894 0.0681363 -0.175746 18.3582 22.9159 -5.17315 -2.52625 7.21507 -5.27816 -0.433051 0.339441 0.591239 14.3157 -3.29703 8.78009 -2.98012 0.483932 -2.17513 -0.419981 0.311363 0.566412 
26.982 1 98 18.0964 10.5412 0.514517 -4.58811 3.08677 -4.40568 -0.137057 -0.549745 -0.214757 0 0 0 0 0 0 0.0352677 0.0593459 -0.274944 14.0159 13.7316 45.9681 -5.46539 3.52086 -3.67579 -0.150816 -0.570268 -0.23187 22.5082 6.88143 35.3479 -3.70205 2.66503 -5.11433 -0.123262 -0.529298 -0.197693 
26.982 1 97 15.8324 8.26845 0.21576 1.17189 3.7414 0.512831 0.0946246 0.0713376 0.192905 0 0 0 0 0 0 -0.0569812 0.00409401 -0.265019 17.4338 10.8986 6.80445 2.24492 3.61702 1.09995 0.100207 0.0813724 0.209881 14.8597 5.06477 -7.35179 0.099305 3.87954 -0.0537027 0.0889955 0.0612638 0.175888 
26.982 1 58 17.9457 6.54277 0.540257 1.67878 1.43892 -2.12057 0.371673 -0.586518 -0.61146 0 0 0 0 0 0 0.00629334 -0.000827894 -0.286257 9.06715 20.7443 6.40775 0.319074 4.99761 -1.05856 0.374316 -0.59984 -0.630923 27.1308 -8.3391 -6.27934 3.03615 -2.1033 -3.15129 0.369049 -0.573232 -0.592045 
26.982 1 301 20.3102 8.32685 4.3479 -3.50673 5.36833 0.903782 0.126395 0.11611 -0.442391 0 0 0 0 0 0 0.0200982 0.0338602 -0.0876804 17.3781 4.61965 3.68816 -3.97786 4.10882 0.795361 0.128691 0.140605 -0.457369 23.2293 11.44 4.23665 -3.04259 6.64107 1.02911 0.124181 0.0915668 -0.427376 
26.982 1 64 20.2834 6.28136 2.26014 0.932683 -0.530735 1.24738 0.0218203 0.376678 -0.21144 0 0 0 0 0 0 0.0423898 0.0707726 -0.198769 19.6002 5.52101 -1.07469 1.02141 -1.05581 0.501546 0.0177172 0.385356 -0.214845 20.9614 6.38565 4.72011 0.841066 0.0164003 2.01416 0.0260402 0.368001 -0.207975 
26.982 1 103 22.5279 8.19294 2.42822 -3.30784 -5.35859 0.578773 -0.144591 0.230112 -0.0119033 0 0 0 0 0 0 -0.0113332 0.0516273 -0.254726 20.0484 16.0542 2.8491 -3.53896 -4.56617 0.402046 -0.145728 0.246551 -0.0126909 24.6698 -0.236727 1.15064 -3.08436 -6.12664 0.774795 -0.143404 0.213622 -0.0111035 
26.982 1 262 22.6945 6.23132 4.36403 2.15295 2.25525 -1.92843 -0.459565 0.363113 -0.278981 0 0 0 0 0 0 -0.00306086 0.026717 -0.0564097 20.9508 6.65762 3.54177 2.59628 2.26007 -1.71484 -0.461234 0.376972 -0.28635 24.1073 5.14465 4.40749 1.70292 2.26512 -2.12453 -0.457869 0.349274 -0.271613 
26.982 1 305 24.6904 8.21353 4.35843 3.37418 -0.849482 -0.265996 0.204969 0.460216 -0.13065 0 0 0 0 0 0 0.00151209 0.0369841 -0.0637571 25.9149 20.9325 -2.82868 3.44657 1.78942 -1.90866 0.220309 0.488557 -0.135663 22.8417 -5.06694 10.7687 3.30125 -3.46642 1.39228 0.189615 0.431857 -0.125631 
26.982 1 68 24.6715 6.48579 2.23551 1.176 -2.35595 -1.95762 -0.0784246 -0.376178 0.182351 0 0 0 0 0 0 -0.0416518 0.0610639 -0.177124 28.1974 9.38374 5.30007 1.49568 -1.50151 -1.17622 -0.0701891 -0.375834 0.191648 20.5176 2.8996 -1.70199 0.855228 -3.2016 -2.72252 -0.086711 -0.376534 0.173078 