ITEM: TIMESTEP
12025
ITEM: NUMBER OF ATOMS
4000
ITEM: BOX BOUNDS pp pp pp
-2.51818 43.0182
0.681483 39.8185
0.686777 39.8132
ITEM: ATOMS mass type id x y z vx vy vz fx fy fz xrad yrad zrad vxrad vyrad vzrad fxrad fyrad fzrad xub yub zub vxub vyub vzub fxub fyub fzub xlb ylb zlb vxlb vylb vzlb fxlb fylb fzlb 
26.982 1 43 -0.294482 4.45453 2.81347 -4.86403 1.57602 -0.745019 0.107674 0.176735 -0.353187 0 0 0 0 0 0 -0.109161 -0.0226294 -0.139376 -13.9476 0.275559 12.6109 -6.45445 2.25801 0.65563 0.102003 0.188172 -0.35675 17.8272 7.55879 -8.22768 -3.2674 0.919197 -2.12029 0.113322 0.165318 -0.349633 
26.982 1 202 -0.259562 2.65285 4.69995 0.994839 3.26438 -1.1286 -0.202778 -0.274894 -0.0708244 0 0 0 0 0 0 -0.0716471 -0.135799 -0.126966 1.14991 -9.67 6.15053 0.758818 1.61102 -1.81538 -0.214298 -0.273188 -0.0832742 2.8038 13.7819 2.24929 1.2382 4.95542 -0.407011 -0.1913 -0.276538 -0.0583383 
26.982 1 245 1.99211 4.42297 4.69877 -0.0805684 4.30857 -2.33359 0.162099 0.398224 -0.199819 0 0 0 0 0 0 -0.0148767 -0.0406608 -0.0651503 0.230284 6.93236 4.36248 -1.15647 4.5884 -2.39681 0.173893 0.416105 -0.21412 7.74363 0.880684 3.98456 1.00341 4.06027 -2.23884 0.150243 0.380385 -0.18551 
26.982 1 2 -0.177775 2.67412 0.685826 -0.784012 0.472139 -0.323305 -0.217532 -0.217858 0.190964 0 0 0 0 0 0 -0.071631 -0.110205 -0.172094 1.90129 15.4857 22.1474 -0.801082 1.75894 2.30893 -0.216622 -0.228509 0.193045 2.17037 -11.2888 -22.193 -0.76293 -0.769293 -2.92554 -0.218465 -0.207135 0.18886 
26.982 1 1161 43.1129 16.441 20.1831 1.80431 2.75788 1.68374 -0.475785 -0.0584252 0.370693 0 0 0 0 0 0 0.0118183 -0.0746456 -0.0109255 22.8926 17.7533 23.5365 0.333118 3.13787 2.75581 -0.490772 -0.0573915 0.387915 58.5068 14.9229 16.9847 3.27596 2.39949 0.642868 -0.460747 -0.059484 0.353554 
26.982 1 201 42.9332 0.627252 4.7597 5.28305 2.18552 1.72838 0.143522 0.0701454 -0.373124 0 0 0 0 0 0 0.00762093 -0.169881 -0.208081 43.0286 45.3501 16.9362 5.11899 2.454 3.36307 0.147637 0.0679003 -0.393735 37.9911 35.7915 -8.4473 5.4501 1.94339 0.126848 0.139378 0.0724399 -0.352501 
26.982 1 1197 38.463 16.26 20.2872 1.20266 1.13295 -4.93818 -0.107974 0.401796 0.146566 0 0 0 0 0 0 -0.0184863 -0.0391926 0.034479 42.5972 14.0883 19.6082 1.78852 1.58413 -6.10621 -0.107857 0.399853 0.166938 30.375 18.2059 21.2101 0.614861 0.700642 -3.73391 -0.108169 0.403804 0.126165 
26.982 1 1000 38.2531 18.1989 18.3458 2.30296 6.11343 -0.761555 0.337869 0.255927 0.0036629 0 0 0 0 0 0 -0.0419939 0.0503418 -0.000435137 28.1015 23.2749 23.2302 1.11292 8.82114 0.799964 0.344998 0.254808 0.00181816 44.5129 13.0639 13.5101 3.49486 3.42798 -2.28557 0.330642 0.25712 0.00549893 
26.982 1 8 2.0575 2.57713 2.60342 -0.490168 -2.6128 -3.36052 0.169562 0.0252332 -0.0105769 0 0 0 0 0 0 -0.0164192 -0.212533 -0.105153 -2.99905 14.5504 2.06189 -0.875088 -1.12412 -3.35377 0.181909 0.0265859 -0.0047529 11.084 -10.6183 1.94734 -0.0967513 -4.08168 -3.3347 0.15716 0.0239792 -0.0164013 
26.982 1 997 38.232 16.3685 16.4174 2.8649 -0.784395 4.97692 0.37705 -0.0124166 -0.0824056 0 0 0 0 0 0 0.0108208 -0.00952988 -0.00718997 33.9615 16.1723 15.8848 2.26891 0.392144 5.28993 0.383812 -0.0186908 -0.0895806 38.6991 16.3317 16.7999 3.47639 -1.94232 4.69058 0.37018 -0.00609632 -0.0752373 
26.982 1 47 4.38513 4.59452 2.53763 5.86257 3.00404 -2.37496 -0.191896 0.266907 0.914989 0 0 0 0 0 0 0.0363478 -0.0428686 -0.13785 -1.2058 14.6115 -1.74439 4.71232 4.76444 -3.48239 -0.194395 0.264218 0.947256 13.4096 -6.36463 5.62894 7.0188 1.29096 -1.23482 -0.189407 0.26963 0.882739 
26.982 1 206 4.38138 2.56852 4.5156 -0.907757 -2.88019 -3.37187 -0.000926432 0.022252 -0.127704 0 0 0 0 0 0 -0.0274993 -0.13253 -0.113812 9.21327 -8.13753 16.8796 -0.805947 -5.08994 -0.784994 0.00488283 0.0299291 -0.135245 2.98023 12.0901 -8.81855 -1.00654 -0.635553 -5.92386 -0.00672285 0.0146481 -0.120149 
26.982 1 249 6.63819 4.73 4.70904 -3.00872 -3.16909 2.1482 -0.17784 -0.623508 -0.421725 0 0 0 0 0 0 -0.0087962 -0.0317146 -0.0719869 8.25213 -5.91008 10.6781 -3.03838 -4.9131 2.90888 -0.190627 -0.637852 -0.427666 7.89191 14.3946 -2.29827 -2.98482 -1.38253 1.42236 -0.16503 -0.609218 -0.415828 
26.982 1 801 -2.57545 0.444066 16.2415 -0.673185 -2.10099 1.27361 0.151037 0.778434 0.152536 0 0 0 0 0 0 -0.152938 -0.0721766 -0.184068 43.9234 48.6045 9.57068 -0.623084 -0.348511 1.02924 0.144142 0.797094 0.169016 37.1119 32.2939 22.8173 -0.722703 -3.82323 1.5609 0.157987 0.759834 0.136014 
26.982 1 12 6.79567 2.74089 2.81283 -1.57598 -7.73682 2.36884 -0.463136 -0.217919 0.0149617 0 0 0 0 0 0 0.0018009 -0.099578 -0.230773 8.41598 5.18334 -3.8487 -1.50285 -7.24205 1.40575 -0.477618 -0.225643 0.00944759 8.05136 -0.85077 8.32281 -1.65502 -8.19024 3.36798 -0.448599 -0.210191 0.0204851 
26.982 1 51 8.98895 4.79895 2.70717 -6.46042 -1.44041 1.32555 -0.109446 -0.249396 0.0212223 0 0 0 0 0 0 0.00253801 -0.034992 -0.252181 -3.34013 11.7194 -13.572 -7.64139 -0.131686 -1.06504 -0.107569 -0.263443 0.0146708 23.6851 -3.08015 17.8171 -5.29216 -2.70418 3.75141 -0.111295 -0.235373 0.0277675 
26.982 1 210 8.79114 2.69981 4.69992 2.98145 -0.556358 0.756834 0.460057 -0.033462 -0.100762 0 0 0 0 0 0 -0.00845421 -0.0503352 -0.10207 4.23118 2.7765 7.41082 2.37032 -0.196808 2.30419 0.458986 -0.0230581 -0.103936 15.721 1.42049 0.871669 3.58137 -0.886826 -0.762743 0.461165 -0.0439057 -0.0975711 
26.982 1 253 11.1366 4.41876 4.43749 -4.84155 4.57362 3.43452 0.0981281 0.685008 0.982878 0 0 0 0 0 0 -0.0173534 -0.00354214 -0.0648557 10.4311 -0.161704 27.6212 -5.30361 4.79762 8.02185 0.0914173 0.701153 1.00543 13.8158 8.08429 -19.8098 -4.37874 4.39932 -1.12931 0.104888 0.668876 0.960359 
26.982 1 803 -0.113194 0.691847 18.1746 3.96877 -1.94769 1.20682 -0.333824 -0.0908264 0.0702698 0 0 0 0 0 0 -0.131689 -0.22765 0.0518717 -3.72777 1.55622 20.2928 3.2802 -1.72414 1.98238 -0.33379 -0.102228 0.0861034 7.89153 -1.42157 16.1059 4.66083 -2.12865 0.465117 -0.333883 -0.079421 0.0544146 
26.982 1 16 11.1479 2.44995 2.82624 -4.90934 -2.68008 5.56025 -0.145243 -0.215147 -0.95047 0 0 0 0 0 0 -0.0441546 -0.0880512 -0.232793 12.8289 13.7908 -5.92808 -5.59878 0.573038 6.37254 -0.156834 -0.223844 -0.97918 11.4615 -10.0561 10.3326 -4.21347 -5.91285 4.77473 -0.133628 -0.2065 -0.921747 
26.982 1 2839 40.4507 20.0522 18.3702 2.39673 -0.490327 -0.459553 0.401215 0.225519 0.0584875 0 0 0 0 0 0 -0.0573085 0.119973 -0.0711476 38.4547 11.6528 30.3887 2.35253 -0.545857 0.83703 0.414763 0.233068 0.0556847 38.0711 28.5908 6.39115 2.43541 -0.40968 -1.71983 0.387528 0.218037 0.0613015 
26.982 1 55 13.4182 4.41957 2.68902 2.01326 2.81684 0.945695 0.380214 0.2487 -0.192181 0 0 0 0 0 0 -0.020735 -0.0190399 -0.172387 14.3703 3.24807 8.61361 1.60039 4.05395 2.79455 0.390023 0.263306 -0.208179 13.9751 4.6266 -4.37486 2.43679 1.61503 -0.861848 0.370415 0.234114 -0.176121 
26.982 1 214 13.4386 2.61537 4.63939 -3.22616 -0.0289655 -0.174745 -0.0362744 -0.109044 0.290903 0 0 0 0 0 0 0.0328587 -0.113561 -0.0594523 23.6798 3.36401 9.48645 -2.23551 1.15091 0.364417 -0.0421373 -0.114734 0.291931 4.70266 0.718185 -1.32282 -4.207 -1.17485 -0.691769 -0.0303957 -0.103347 0.289866 
26.982 1 14 13.4914 2.46615 0.708235 0.440497 -3.35143 4.87569 0.274277 0.319341 -0.261597 0 0 0 0 0 0 -0.0247048 -0.0944357 -0.248127 10.7931 17.6141 32.9587 0.0305215 0.499728 5.38941 0.283905 0.325515 -0.270634 17.7042 -13.8934 48.436 0.860156 -7.18086 4.40552 0.26466 0.313131 -0.252506 
26.982 1 57 15.784 4.52576 0.614124 2.61876 2.08098 -2.90903 0.0233147 0.0362626 0.335519 0 0 0 0 0 0 0.0818117 -0.0246043 -0.252377 22.0648 15.0781 -7.88364 3.82718 5.07932 -4.5632 0.0217426 0.0473184 0.342775 10.4711 -7.04438 7.88174 1.40726 -0.882684 -1.20692 0.024846 0.0252111 0.328312 
26.982 1 20 15.714 2.46468 2.7264 -5.16552 -2.96171 -0.979077 0.0714945 0.311564 -0.282233 0 0 0 0 0 0 0.0847651 -0.174386 -0.155798 24.7772 -12.3709 7.52841 -3.52803 -4.25571 -1.13168 0.0754417 0.334363 -0.299739 7.60516 16.1819 -3.25735 -6.80441 -1.63521 -0.789851 0.067499 0.288774 -0.264691 
26.982 1 257 15.6673 4.56407 4.57973 1.80507 3.94049 -4.23581 0.143328 0.197051 -0.435935 0 0 0 0 0 0 0.0183738 -0.0361772 -0.0823653 22.061 -12.0605 7.81024 2.29291 1.96771 -3.28887 0.147248 0.202006 -0.459707 10.2575 20.1814 0.264263 1.31864 5.94939 -5.1564 0.139336 0.192108 -0.412097 
26.982 1 218 18.0041 2.49583 4.53542 0.506938 -1.62674 7.03811 0.0995475 -0.185144 0.0260293 0 0 0 0 0 0 -0.016409 -0.14471 -0.140292 11.5172 -3.43864 3.40693 -0.531927 -2.73142 7.42715 0.106594 -0.18482 0.0309624 24.9333 7.33485 4.60311 1.53993 -0.489498 6.68299 0.0924681 -0.18547 0.0211453 
26.982 1 59 18.06 4.49101 2.82553 -4.23606 -3.17489 0.564634 -0.0387264 0.428609 -0.00386816 0 0 0 0 0 0 0.0409109 -0.0488095 -0.236422 27.2165 -5.90151 9.01182 -3.34858 -4.64817 1.88182 -0.0392068 0.440645 -0.025112 9.33306 13.8912 -4.507 -5.1369 -1.67452 -0.707539 -0.038289 0.416552 0.0173734 
26.982 1 24 20.4902 2.58541 2.90466 -2.00534 -1.10923 -6.41763 -0.34981 0.122785 -0.633257 0 0 0 0 0 0 -0.0508554 -0.0810594 -0.259394 14.8451 6.32774 10.1376 -3.00132 1.0977 -5.91672 -0.353523 0.13426 -0.655474 26.0899 -2.24902 -5.52819 -1.01368 -3.27439 -6.88456 -0.346054 0.111285 -0.611049 
26.982 1 261 20.3539 4.58859 4.65357 1.86933 -2.94644 -1.41152 0.0181672 0.289733 0.179188 0 0 0 0 0 0 -0.00281306 -0.0198476 -0.0949675 19.0258 3.96032 4.64267 2.24993 -2.038 -2.33088 0.0194458 0.296011 0.17474 21.6354 4.21701 3.60983 1.48446 -3.82411 -0.461696 0.0169323 0.283412 0.183676 
26.982 1 63 22.6108 4.63916 2.63077 -0.698923 -2.53619 5.21232 -0.00170736 -0.368671 0.118324 0 0 0 0 0 0 -0.0312649 -0.0258508 -0.26088 28.3708 14.7594 5.12346 -0.772119 -0.15181 6.32977 -0.0106206 -0.39168 0.108096 16.3733 -6.49363 -1.00797 -0.618335 -4.895 4.13481 0.0072799 -0.345718 0.128572 
26.982 1 222 22.7236 2.51928 4.67721 1.76567 -3.59892 2.30626 -0.320722 0.218466 -0.254343 0 0 0 0 0 0 -0.00904374 -0.0496404 -0.113218 19.8907 9.23118 7.04204 1.5501 -1.40031 2.06245 -0.319688 0.233027 -0.276327 25.0607 -5.33044 1.26721 1.9827 -5.7655 2.57885 -0.321652 0.203913 -0.232339 
26.982 1 28 24.8576 2.53725 2.55914 1.15772 -1.71856 3.15251 -0.378888 0.0896196 -0.101037 0 0 0 0 0 0 -0.00260758 -0.0689465 -0.189214 26.4888 8.81299 11.4361 1.0422 -1.22839 4.50427 -0.396208 0.0959024 -0.120061 22.3265 -4.85398 -7.57827 1.28198 -2.16711 1.81725 -0.361541 0.0833678 -0.081909 
26.982 1 265 24.9565 4.52161 4.48717 -3.71985 4.73714 0.660811 -0.144556 0.0880132 0.405327 0 0 0 0 0 0 -0.00060008 -0.0137677 -0.0839795 27.3334 -14.065 3.85987 -3.90594 3.28335 0.292957 -0.145357 0.0912958 0.407647 21.6498 22.0734 4.02285 -3.52576 6.21998 1.05495 -0.143702 0.0847038 0.403072 
26.982 1 67 27.0341 4.56523 2.64745 -3.86483 -1.62382 2.43702 0.18362 0.0880793 -0.0310802 0 0 0 0 0 0 0.00101033 -0.0503561 -0.17714 27.3333 -2.98717 7.67046 -4.17916 -2.58212 3.43724 0.19189 0.0942618 -0.0379276 25.346 11.0514 -3.57859 -3.54518 -0.639359 1.46334 0.175336 0.081912 -0.0241717 
26.982 1 226 27.1223 2.57645 4.70979 3.57777 2.79629 2.13132 -0.310288 0.631552 -0.323788 0 0 0 0 0 0 0.0510743 -0.128141 -0.11401 26.5578 -4.16512 11.8363 4.04131 1.24267 3.64714 -0.308175 0.660323 -0.332106 26.3152 8.27725 -3.55409 3.12011 4.40061 0.637992 -0.312431 0.602788 -0.315446 
26.982 1 32 29.295 2.78186 2.83749 -1.10273 -2.99487 -1.16947 0.102184 -0.385026 -0.667456 0 0 0 0 0 0 0.0142615 -0.18909 -0.156392 16.9628 6.46787 14.912 -2.34444 -3.30088 1.49576 0.111064 -0.388791 -0.693541 39.7187 -2.00123 -10.4555 0.144301 -2.65052 -3.80759 0.0932739 -0.3813 -0.641385 
26.982 1 26 27.0013 2.57331 0.651883 1.07385 -2.33426 -2.35144 0.271128 0.296799 -0.084881 0 0 0 0 0 0 0.0406842 -0.0728297 -0.198699 18.4869 10.7905 15.9138 0.20111 -0.345888 -0.148771 0.268985 0.309296 -0.0844022 34.1373 -6.79023 -15.9298 1.9559 -4.28791 -4.51641 0.273339 0.284338 -0.0852549 
26.982 1 269 29.2498 4.60238 4.73405 -3.30313 0.237067 -3.12582 -0.0701972 0.570714 0.273591 0 0 0 0 0 0 0.00594678 -0.0543126 -0.0537658 26.577 12.6634 19.3489 -3.14213 0.461473 -2.42779 -0.0680327 0.583494 0.267048 30.06 -4.5015 -10.8938 -3.45617 0.0377539 -3.79222 -0.0724435 0.557914 0.280133 
26.982 1 71 31.6027 4.67318 2.43185 -0.681935 0.183543 1.08504 -0.119323 -0.0248795 0.248259 0 0 0 0 0 0 0.00639838 -0.0641833 -0.167001 30.3094 11.9212 0.214766 -0.993726 1.59182 1.02188 -0.123412 -0.0264608 0.257418 30.4328 -3.63315 3.53155 -0.371705 -1.19088 1.18222 -0.115295 -0.0233025 0.239076 
26.982 1 230 31.41 2.77306 4.71408 0.0952433 -6.2344 6.05105 0.373399 -0.213064 -0.0984619 0 0 0 0 0 0 -0.00249357 -0.165868 -0.106848 19.7854 -3.94653 2.58267 -1.02023 -6.10772 4.69698 0.375857 -0.231146 -0.106081 40.6113 8.43227 5.85923 1.21521 -6.31011 7.43992 0.370872 -0.195054 -0.0908459 
26.982 1 30 31.6161 2.59399 0.628543 -1.41089 2.45276 -2.34257 -0.238209 0.564223 0.291757 0 0 0 0 0 0 -0.0360858 -0.0827467 -0.181471 38.0063 -12.1531 4.07518 -0.173184 0.742428 -0.843072 -0.239111 0.583697 0.311715 22.7177 16.1292 -4.14286 -2.65722 4.18703 -3.8116 -0.237347 0.54471 0.27178 
26.982 1 273 33.7662 4.62626 4.45502 1.00485 -6.74122 1.14212 -0.271764 -0.198663 0.198071 0 0 0 0 0 0 -0.00246592 -0.0483891 -0.0687048 41.1211 18.0087 -0.777137 1.3012 -4.84044 -0.763897 -0.274262 -0.199563 0.210032 23.4133 -9.82297 8.64662 0.704266 -8.61447 3.07468 -0.269376 -0.197828 0.18617 
26.982 1 36 33.6509 2.56076 2.56992 -3.32244 0.544437 0.448173 0.362627 0.611381 -0.366519 0 0 0 0 0 0 0.000389901 -0.117132 -0.114981 34.6778 -0.38946 -5.10053 -3.05401 0.762891 -1.14803 0.371743 0.627349 -0.369907 29.6467 4.39312 9.14269 -3.59818 0.365204 2.08211 0.353417 0.595361 -0.363163 
26.982 1 75 35.7843 4.6101 2.55959 -1.17101 6.55195 -5.53083 0.567104 0.0941262 0.0363183 0 0 0 0 0 0 0.0248666 -0.0228762 -0.232995 38.9746 13.2917 5.09589 -1.19416 9.38175 -5.44001 0.591073 0.105404 0.028489 29.0893 -5.1948 -1.09186 -1.16222 3.74153 -5.57342 0.543072 0.0828438 0.0441293 
26.982 1 234 36.2929 2.62884 4.56182 2.19582 0.708249 1.56667 -0.402399 0.565703 -0.302235 0 0 0 0 0 0 -0.0331946 -0.0697564 -0.113423 46.0411 0.5753 2.20424 3.50218 0.674565 0.10342 -0.400339 0.589385 -0.318953 23.0551 3.51729 5.95666 0.880298 0.778702 3.0709 -0.404464 0.541928 -0.285458 
26.982 1 2837 38.5078 20.3294 16.3162 1.35835 0.289849 2.09138 -0.17826 -0.593705 -0.364255 0 0 0 0 0 0 -0.0917406 0.0801856 -0.138382 33.4648 35.7182 36.9158 1.26295 2.86154 5.3557 -0.180977 -0.599682 -0.384646 39.7052 5.14576 -4.39379 1.45607 -2.24061 -1.14192 -0.175585 -0.587743 -0.343803 
26.982 1 40 38.4395 2.74073 2.71966 1.47015 2.29785 -3.41093 -0.0220408 0.418846 -0.161414 0 0 0 0 0 0 0.00071603 -0.0808535 -0.221243 44.836 16.8391 -4.18076 2.8224 4.55889 -4.58314 -0.0285542 0.437927 -0.167903 28.0656 -12.5587 8.49597 0.10539 0.0749533 -2.19017 -0.0155023 0.399647 -0.154871 
26.982 1 237 38.4297 0.685468 4.45696 4.93795 0.836503 2.54972 0.105017 -0.134019 0.340752 0 0 0 0 0 0 0.0382516 -0.18058 -0.164211 39.6776 7.76745 14.195 5.73477 2.03834 3.51392 0.113668 -0.139127 0.360558 33.2072 -7.72979 -6.26104 4.12749 -0.32672 1.62594 0.0963673 -0.129 0.321009 
26.982 1 4 -2.48739 2.54741 2.6938 0.555215 2.91544 1.97223 0.0603508 0.301947 0.231731 0 0 0 0 0 0 -0.139577 -0.105583 -0.103467 27.9893 0.598789 5.34396 -0.92984 2.60225 1.70641 0.0548521 0.300255 0.22999 53.2519 3.29216 -1.09624 2.04286 3.26605 2.27733 0.0658655 0.303688 0.233469 
26.982 1 241 42.981 4.59155 4.57684 3.78861 -5.41829 -1.46428 0.117725 0.179733 0.176283 0 0 0 0 0 0 0.0107203 -0.0203158 -0.0741231 -6.37515 9.50845 -5.30169 3.54983 -4.264 -3.74268 0.123478 0.1934 0.184969 6.14964 -1.3501 13.451 4.02456 -6.53177 0.846548 0.112049 0.166058 0.167632 
26.982 1 2833 33.8662 20.2338 16.3554 0.00992937 -3.03507 -1.61271 0.0663265 0.187677 -0.171802 0 0 0 0 0 0 -0.0555637 0.0827953 -0.143436 35.2312 30.5307 1.33842 0.241378 -1.80697 -3.31192 0.0664149 0.207759 -0.182387 29.5541 10.1154 31.236 -0.224474 -4.23018 0.10015 0.0662781 0.167556 -0.16119 
26.982 1 277 38.2905 4.65985 4.91133 2.00435 -3.06497 -0.368937 0.199951 0.121897 -0.567604 0 0 0 0 0 0 -0.0121534 -0.0101523 -0.0818461 37.5181 22.2498 -4.5603 2.12909 -0.496409 -0.798874 0.195844 0.134608 -0.601827 35.0796 -13.9991 13.4134 1.86939 -5.59531 0.111636 0.204077 0.10908 -0.533403 
26.982 1 79 40.796 4.60776 2.66932 0.366289 0.853141 4.17589 -0.119349 -0.158597 -0.240209 0 0 0 0 0 0 -0.00480347 -0.0538795 -0.185138 34.6785 23.0248 -10.7928 -0.538584 2.52742 1.95571 -0.128782 -0.156506 -0.239142 42.4888 -14.879 15.0367 1.26691 -0.790562 6.4491 -0.109805 -0.16074 -0.241282 
26.982 1 238 40.6546 2.80177 4.65716 -4.24848 0.524927 -3.3663 0.067102 -0.173057 0.21732 0 0 0 0 0 0 0.00242618 -0.105769 -0.120699 46.9504 -0.622411 -1.83282 -3.64186 -0.396598 -4.79004 0.0674038 -0.177683 0.211143 29.9158 5.05652 10.1658 -4.86553 1.48581 -1.90068 0.0668462 -0.168512 0.223508 
26.982 1 998 40.7982 18.4718 16.2983 1.22931 -2.50585 -1.03545 0.0543009 -0.253342 -0.353524 0 0 0 0 0 0 0.0189018 0.0585851 -0.0895267 30.8155 36.9216 23.8715 0.577776 0.205157 0.917994 0.0663952 -0.266274 -0.357187 46.4774 -0.0971874 8.53426 1.88935 -5.20463 -2.96374 0.0421037 -0.240388 -0.349845 
26.982 1 83 -0.25042 8.71472 2.81406 5.62333 -1.38217 -2.83327 0.215858 -0.324152 -0.718761 0 0 0 0 0 0 -0.105601 -0.102024 -0.178467 -3.60081 23.3031 9.18867 5.35573 0.56741 -1.24156 0.223372 -0.342777 -0.738951 7.53871 -6.68788 -4.77324 5.89224 -3.29386 -4.37825 0.208354 -0.305519 -0.698493 
26.982 1 242 -0.0289278 6.60954 4.49022 1.00776 1.9979 2.21144 -0.501663 -0.336522 0.607691 0 0 0 0 0 0 -0.153008 -0.0132266 -0.0962674 -7.23894 15.8448 12.4799 0.0201123 4.05705 2.66564 -0.506113 -0.342454 0.625135 11.6227 -3.55086 -4.47404 1.99463 -0.0315356 1.80183 -0.497207 -0.330582 0.590329 
26.982 1 84 -2.57608 10.5173 2.64265 2.71773 -0.51257 -2.78993 0.0557434 -0.363108 -0.0557382 0 0 0 0 0 0 -0.188306 -0.106825 -0.150825 41.5737 17.0359 -13.1683 3.05835 0.00445871 -4.29931 0.0440033 -0.388496 -0.0666468 39.4165 3.43547 17.1688 2.36738 -0.986621 -1.26051 0.0675191 -0.337668 -0.044734 
26.982 1 281 43.1698 8.60017 4.64137 2.28298 -3.89395 -0.57792 -0.331538 -0.4199 -0.0576863 0 0 0 0 0 0 0.00206958 -0.0473479 -0.0685129 43.9021 30.3198 4.17582 2.29578 -1.32483 -0.727368 -0.34761 -0.44885 -0.0661836 37.5377 -13.8967 4.06994 2.26092 -6.44115 -0.389644 -0.315408 -0.390895 -0.0491217 
26.982 1 88 2.12099 10.4856 2.55909 -1.15204 5.29168 -2.16906 -0.193972 -0.109422 0.100321 0 0 0 0 0 0 0.00795374 -0.0208537 -0.225711 -11.1914 17.2341 8.84987 -3.5515 6.42014 -1.4225 -0.187728 -0.136876 0.108341 19.4666 3.05999 -4.98439 1.26364 4.1895 -2.88829 -0.200265 -0.0819612 0.092421 
26.982 1 48 2.05266 6.43184 2.71972 6.52619 -4.39105 -2.1157 0.296017 0.477703 0.210885 0 0 0 0 0 0 -0.0725318 0.0463939 -0.157738 -14.0333 21.1762 -9.33774 3.65263 -0.913352 -4.80144 0.301857 0.499673 0.215322 22.1415 -9.26516 13.5592 9.41465 -7.84932 0.590733 0.290157 0.455755 0.20645 
26.982 1 282 -0.179906 10.5238 4.75579 6.67081 -0.783379 7.94318 0.104997 -0.115424 -0.220884 0 0 0 0 0 0 -0.0688297 -0.0719375 -0.0921832 -2.00485 32.1215 -0.633434 6.82965 1.69231 7.39214 0.11155 -0.140873 -0.248457 6.02281 -11.7639 9.01449 6.5028 -3.23486 8.52194 0.0984288 -0.0899104 -0.193268 
26.982 1 2823 22.6888 20.23 18.2877 3.66884 0.0577099 2.99177 -0.232998 0.0390849 -0.0899951 0 0 0 0 0 0 -0.0260635 0.0989764 -0.122938 31.8387 23.3268 25.7607 4.11884 -0.60108 5.38671 -0.240451 0.0517723 -0.0906749 13.0267 17.346 10.7436 3.21823 0.751645 0.614781 -0.22553 0.0263856 -0.0894191 
26.982 1 285 2.10761 8.48547 4.62142 -0.2499 -2.71033 1.7874 -0.0410455 0.2447 -0.0543531 0 0 0 0 0 0 -0.0237338 -0.0136635 -0.0734974 -13.8724 19.1135 3.38332 -2.71606 -0.442939 1.78547 -0.0306283 0.233565 -0.0596977 22.109 -2.98746 4.76835 2.23017 -4.97221 1.81496 -0.0515381 0.255849 -0.0489643 
26.982 1 87 4.29179 8.5385 2.53033 0.287606 -5.48057 0.861176 -0.151098 0.339201 0.414393 0 0 0 0 0 0 -0.039907 0.0426421 -0.174629 -2.70233 14.3651 9.75908 -1.14142 -5.59372 1.07718 -0.161433 0.341098 0.430764 14.7876 1.9428 -5.90384 1.73223 -5.33561 0.679064 -0.140802 0.337273 0.398024 
26.982 1 246 4.31529 6.65558 4.63357 -1.82743 -1.29093 -1.31622 -0.0681081 -0.313655 -0.129122 0 0 0 0 0 0 -0.00309352 -0.0131387 -0.0512765 10.2158 10.8101 13.1991 -1.85452 -1.17689 0.406617 -0.0722486 -0.32983 -0.133506 1.90291 1.59169 -5.04732 -1.78552 -1.3761 -3.01413 -0.06403 -0.297524 -0.124769 
26.982 1 289 6.54924 8.57788 4.36231 0.137556 -6.91357 3.06858 -0.134985 0.397815 0.690158 0 0 0 0 0 0 -0.00346127 0.0150375 -0.0226349 15.313 10.0618 22.2267 1.77945 -5.65047 7.26708 -0.13882 0.414889 0.727322 0.700312 6.29739 -14.6146 -1.5041 -8.15102 -1.10801 -0.131152 0.380699 0.653007 
26.982 1 52 6.75702 6.58639 2.67422 1.14043 -1.64704 -3.9113 -0.280735 -0.810893 0.159192 0 0 0 0 0 0 0.0345399 -0.0552576 -0.182215 10.3969 5.54305 11.6377 2.09315 -1.3406 -2.80186 -0.285566 -0.815825 0.170216 5.99273 6.74914 -7.40739 0.181196 -1.91986 -4.97022 -0.275879 -0.805958 0.148128 
26.982 1 92 6.50782 10.5768 2.46043 -1.90198 0.585215 0.468453 -0.0602038 0.323134 0.398352 0 0 0 0 0 0 -0.0289698 0.0524223 -0.189312 5.89276 11.3598 13.8124 -2.04383 -0.117833 0.851172 -0.0564783 0.331701 0.417469 10.0315 9.18289 -10.0232 -1.76334 1.31446 0.132327 -0.0639574 0.314504 0.37922 
26.982 1 46 4.26285 6.62072 0.777986 -0.330123 -1.36105 2.93664 -0.195311 0.198367 0.123238 0 0 0 0 0 0 -0.00964531 0.00695043 -0.278546 -3.80745 -1.58128 10.664 -2.35685 -1.8293 4.5107 -0.209238 0.197048 0.125714 15.7535 13.9445 -10.3412 1.70111 -0.861208 1.41303 -0.181393 0.199666 0.12075 
26.982 1 91 8.98736 8.28918 2.66144 -0.956501 -3.47446 -1.65853 0.0519444 0.0562784 -0.478578 0 0 0 0 0 0 0.0392572 -0.0151363 -0.198403 13.3462 6.43375 7.18945 -0.252902 -3.71498 -0.769928 0.0514308 0.0794518 -0.47591 6.99644 9.3582 -2.99246 -1.67534 -3.2062 -2.50118 0.0525084 0.033081 -0.481247 
26.982 1 250 8.82693 6.77444 4.78782 1.10519 -0.654029 -0.395724 0.189134 -0.314205 0.0839621 0 0 0 0 0 0 0.00972568 -0.0227901 -0.0481941 9.27053 14.4209 28.9378 1.9317 -0.0846662 2.59038 0.19502 -0.326882 0.0939396 10.7555 -1.65125 -20.5851 0.26451 -1.17402 -3.37439 0.183331 -0.301588 0.0739365 
26.982 1 290 8.88844 10.3738 4.39298 1.62842 -2.42527 1.38233 -0.204931 0.125675 0.199923 0 0 0 0 0 0 -0.00242747 0.0213893 -0.0548865 12.2833 25.419 36.3883 2.94176 -0.519042 6.42047 -0.216788 0.141883 0.215536 7.86849 -5.36757 -28.6635 0.302083 -4.31941 -3.63459 -0.192987 0.109427 0.184315 
26.982 1 293 11.1917 8.4254 4.60669 -0.0159114 -0.697765 -2.30952 -0.125988 0.101415 -0.2286 0 0 0 0 0 0 -0.00259087 0.0205621 -0.0732186 10.4315 24.1272 30.8839 0.615203 1.81804 1.2847 -0.133378 0.121235 -0.2222 13.8938 -8.14716 -22.7541 -0.654259 -3.20592 -5.88625 -0.118488 0.0815862 -0.234989 
26.982 1 89 6.50629 8.31652 0.806622 -3.31165 1.22058 1.14473 0.175306 1.2324 -0.17499 0 0 0 0 0 0 0.018856 0.0104035 -0.28558 13.0415 14.5565 -8.1602 -1.98243 2.04092 -2.008 0.177817 1.26651 -0.184516 2.8323 1.3087 8.5417 -4.65163 0.433415 4.34179 0.172785 1.1983 -0.165503 
26.982 1 2813 11.1797 20.2092 16.3718 3.08108 0.859684 1.19802 -0.356313 0.534706 0.30137 0 0 0 0 0 0 -0.0464375 0.113357 -0.0713395 14.2558 21.8616 29.6791 3.77805 1.13406 4.51972 -0.360473 0.555439 0.306557 10.0105 18.729 2.86804 2.37043 0.618484 -2.10955 -0.352186 0.513957 0.296129 
26.982 1 56 11.3659 6.46947 2.69659 0.977174 6.24087 -2.50295 -0.254482 -0.263104 0.049358 0 0 0 0 0 0 -0.0422158 0.00448397 -0.228741 17.4265 12.7182 11.8564 1.54696 7.5801 -0.846056 -0.262023 -0.267942 0.0454256 7.28844 -0.658081 -7.59662 0.409345 4.93756 -4.11429 -0.246901 -0.258249 0.0533216 
26.982 1 95 13.4173 8.39008 2.73281 4.42759 1.27895 -0.0393463 0.126206 0.270441 -0.244448 0 0 0 0 0 0 -0.0133396 0.0533377 -0.221217 11.7168 17.7876 -6.51776 3.4257 1.98563 -1.38845 0.12772 0.287653 -0.255835 16.5861 -1.84681 10.8696 5.43269 0.577325 1.35071 0.124696 0.253239 -0.232985 
26.982 1 254 13.4603 6.50896 4.75109 4.19951 -3.37045 -3.10116 0.166188 -0.243358 -0.46002 0 0 0 0 0 0 -0.00438139 0.00446552 -0.0690932 9.65552 3.06973 26.8825 3.18751 -3.7839 1.12206 0.168615 -0.248182 -0.475556 18.7751 9.09382 -18.5276 5.22204 -2.92294 -7.30063 0.163805 -0.238519 -0.444444 
26.982 1 54 13.5071 6.41792 0.743569 2.69094 5.65802 4.71524 0.0641125 0.0991579 0.132138 0 0 0 0 0 0 -0.0312505 0.0425197 -0.28023 8.56766 18.2273 -17.1504 2.06531 7.55381 2.48788 0.0797566 0.0984304 0.125301 19.9424 -6.34814 17.312 3.32788 3.77811 6.97012 0.0484599 0.0998951 0.13902 
26.982 1 100 15.7051 10.2379 2.74458 2.07537 -4.52749 2.54038 -0.205172 0.21565 -0.481041 0 0 0 0 0 0 0.00104876 -0.0313043 -0.231897 18.2213 37.9402 -10.6069 2.10382 -1.56175 0.803907 -0.209788 0.22359 -0.502728 14.188 -18.1351 14.9319 2.05338 -7.48979 4.3082 -0.200588 0.207755 -0.459326 
26.982 1 60 15.701 6.61782 2.58192 -0.569078 3.12986 2.66448 0.097796 -0.499484 0.0763821 0 0 0 0 0 0 0.0479058 0.0124338 -0.205544 25.9247 9.17595 -5.10321 0.595527 2.60602 2.57691 0.107156 -0.531379 0.0629399 6.43109 3.10975 9.10545 -1.73382 3.67352 2.7905 0.0883732 -0.467642 0.0899089 
26.982 1 297 15.6471 8.43433 4.57808 1.26415 -0.0262791 1.56968 0.05407 -0.205408 0.707778 0 0 0 0 0 0 0.00716709 0.00511081 -0.070894 23.056 26.2038 0.405522 1.90391 3.95237 1.56606 0.0606369 -0.204911 0.704398 9.23273 -10.143 7.69261 0.630004 -3.98552 1.60041 0.0474512 -0.205915 0.711189 
26.982 1 99 18.0016 8.36199 2.74752 -3.13581 -6.5134 -1.15226 0.0498344 0.019476 -0.0591626 0 0 0 0 0 0 -0.00888154 -0.0187391 -0.229415 21.63 14.2331 0.98169 -2.01471 -5.19818 0.0519533 0.06762 0.00730995 -0.0878257 14.8598 1.63524 3.36115 -4.26053 -7.8044 -2.31123 0.0320098 0.0316623 -0.03049 
26.982 1 258 17.9945 6.49966 4.87168 -0.379509 -0.562793 2.23537 0.140187 0.429495 -0.917265 0 0 0 0 0 0 0.0115872 -0.00141395 -0.088566 16.8586 9.43918 4.87436 -0.426706 -0.701211 2.4702 0.146432 0.428584 -0.952306 19.5678 2.65802 3.80439 -0.343793 -0.398674 2.02802 0.133849 0.43039 -0.882206 
26.982 1 64 20.3597 6.62442 2.74766 1.03618 -4.83854 0.0524097 -0.171932 -0.137921 -0.0938674 0 0 0 0 0 0 -0.00778332 -0.0560511 -0.224721 21.5281 3.68379 -1.30588 1.72151 -5.4232 0.321366 -0.180986 -0.14383 -0.103056 19.1557 8.68864 5.62076 0.343533 -4.22098 -0.175365 -0.162846 -0.132061 -0.0846763 
26.982 1 301 20.1582 8.38275 4.86742 1.46124 4.65927 2.64186 0.110183 0.30204 -0.520363 0 0 0 0 0 0 -2.18479e-05 -0.000358358 -0.0619465 15.1128 -1.3835 1.42284 0.979249 3.23569 2.39854 0.114018 0.305744 -0.53741 25.1579 17.3545 7.27789 1.93885 6.10611 2.91999 0.106324 0.298335 -0.503321 
26.982 1 298 17.8635 10.3524 4.6745 2.41813 3.51505 2.97602 0.0054548 0.119052 0.0521089 0 0 0 0 0 0 -0.00161037 0.00969071 -0.0599083 15.9288 11.8078 -13.838 1.91956 4.22475 1.92484 0.00753644 0.134812 0.051018 20.3109 8.20607 22.1447 2.92136 2.81768 4.05026 0.00329072 0.103328 0.0531765 
26.982 1 3009 6.47544 20.3538 20.3476 -1.93225 0.733269 -1.46841 0.401843 -0.0932712 0.126768 0 0 0 0 0 0 -0.0548623 0.0675459 -0.0665085 8.65675 16.8657 15.6556 -1.75043 -0.380576 -1.30082 0.4199 -0.0900786 0.129997 7.18135 23.9082 25.2314 -2.12547 1.85984 -1.60923 0.383723 -0.0964779 0.123466 
26.982 1 104 19.8839 10.4187 2.64299 4.92725 0.729999 -2.50897 0.537409 -0.375542 0.250441 0 0 0 0 0 0 -0.0272049 0.00957708 -0.196156 20.8449 27.8037 8.91655 5.73918 3.19895 -0.80473 0.549154 -0.387799 0.247522 18.9175 -7.68529 -4.77574 4.11374 -1.73196 -4.16792 0.52563 -0.363269 0.253394 
26.982 1 103 22.3786 8.52048 2.77791 -0.273969 1.04574 -1.95 0.0816239 0.205974 -0.136916 0 0 0 0 0 0 0.00697879 -0.0481368 -0.178456 17.4155 18.6788 0.921867 -0.907354 1.77415 -2.65902 0.0723711 0.212271 -0.139403 26.8094 -2.36752 3.4857 0.358016 0.353304 -1.19878 0.0909376 0.199641 -0.13444 
26.982 1 262 22.8336 6.54112 4.54432 -0.568882 -3.07825 3.76095 -0.479814 -0.0948175 0.497617 0 0 0 0 0 0 -0.0135034 -0.0187569 -0.0768295 20.63 4.72281 3.11358 -0.996693 -4.25416 3.9628 -0.492245 -0.10477 0.509035 24.526 7.44284 4.93951 -0.137236 -1.88061 3.59483 -0.467285 -0.0849742 0.486257 
26.982 1 302 22.3602 10.3724 4.69878 1.12731 -0.753166 5.29411 0.236569 0.0532809 -0.241993 0 0 0 0 0 0 0.00123965 0.000317131 -0.0425156 17.5081 26.4362 3.88322 0.859341 2.05193 5.7225 0.241173 0.0570779 -0.25 26.6959 -6.25768 4.48135 1.39628 -3.53532 4.89947 0.23198 0.0494697 -0.234008 
26.982 1 101 20.4269 8.55986 0.467353 3.72672 -0.955091 -1.15999 -0.21526 -0.0871181 0.522173 0 0 0 0 0 0 -0.039475 -0.0542116 -0.250241 17.5576 5.90188 38.8154 4.27298 -3.15116 -2.42533 -0.225 -0.0884842 0.537788 23.2754 10.4489 42.0138 3.17706 1.27741 0.135182 -0.205485 -0.0857594 0.506613 
26.982 1 305 24.8163 8.48487 4.60537 0.792513 3.04153 -3.80953 0.131198 0.165112 0.119849 0 0 0 0 0 0 -0.00256168 -0.00549316 -0.0576225 25.8072 36.6195 -12.6175 0.940061 7.58453 -5.8623 0.13584 0.17185 0.117965 22.8674 -20.3876 20.7808 0.650523 -1.47271 -1.72932 0.126623 0.158262 0.121733 
26.982 1 68 24.8912 6.45948 2.68315 2.19487 0.698496 1.73859 0.0707647 0.475056 0.100765 0 0 0 0 0 0 -0.0467184 -0.00557932 -0.220999 28.3611 13.5657 4.97375 2.54568 1.94953 1.3996 0.0665693 0.483992 0.104224 20.4595 -1.60419 -0.795494 1.8501 -0.533274 2.11158 0.0750124 0.466094 0.0973265 
26.982 1 2807 4.27121 20.1325 18.422 -2.31301 2.7741 2.9597 0.454059 0.0387717 -0.566647 0 0 0 0 0 0 -0.116813 0.105305 -0.0287698 4.16638 41.6378 17.3993 -3.05366 5.75843 3.61048 0.468853 0.0416868 -0.585541 7.74622 -1.23364 19.4489 -1.58025 -0.196321 2.33279 0.439239 0.0358619 -0.547755 
26.982 1 102 22.4954 10.3839 0.771205 2.16869 0.834027 -7.72637 -0.0264955 -0.388155 -0.406365 0 0 0 0 0 0 -0.0204393 -0.0253023 -0.266826 28.9304 12.3964 47.6292 3.85445 2.00327 -7.4305 -0.02265 -0.386411 -0.41665 15.5406 7.75848 33.8616 0.48001 -0.305635 -7.98672 -0.0302712 -0.389917 -0.396099 