ITEM: TIMESTEP
3475
ITEM: NUMBER OF ATOMS
4000
ITEM: BOX BOUNDS pp pp pp
-0.780462 41.2805
0.172259 40.3277
0.170071 40.3299
ITEM: ATOMS mass type id x y z vx vy vz fx fy fz xrad yrad zrad vxrad vyrad vzrad fxrad fyrad fzrad xub yub zub vxub vyub vzub fxub fyub fzub xlb ylb zlb vxlb vylb vzlb fxlb fylb fzlb 
26.982 1 3 1.26527 0.165025 2.2663 -2.55421 -0.352521 -4.56119 0.105092 0.35589 -0.396557 0 0 0 0 0 0 -0.0709529 -0.196629 -0.127803 1.38207 0.768167 2.7079 -2.76237 0.683472 -3.64937 0.106086 0.36416 -0.40616 2.40473 -0.932202 1.39772 -2.33962 -1.38993 -5.46512 0.104119 0.347628 -0.386937 
26.982 1 8 3.34116 2.32991 2.23048 1.22859 -5.7242 0.371982 0.522098 -0.348431 -0.791309 0 0 0 0 0 0 0.0528638 -0.158445 -0.173507 2.2977 3.8374 2.73648 0.22215 -5.2476 0.993601 0.52708 -0.364606 -0.81772 5.50452 0.387581 1.297 2.24064 -6.19672 -0.241672 0.517117 -0.332249 -0.764914 
26.982 1 43 1.43064 4.27859 2.01809 1.31654 3.16775 -3.39028 -0.189605 0.00638158 0.133483 0 0 0 0 0 0 -0.114026 -0.0497765 -0.10673 -0.775908 3.48715 2.74193 0.0779975 2.21147 -3.04639 -0.191275 0.00879954 0.140311 4.90317 4.68435 0.864815 2.56179 4.13144 -3.73197 -0.18789 0.00394524 0.126638 
26.982 1 202 1.43307 2.22409 4.11162 3.65446 4.13073 -1.57466 -0.642133 0.264591 0.313364 0 0 0 0 0 0 -0.119087 -0.060027 -0.0647937 1.55507 1.19327 4.82342 3.78215 3.58743 -1.31873 -0.649992 0.275151 0.320249 2.57528 2.82045 3.02823 3.53602 4.68101 -1.82181 -0.634254 0.254024 0.306494 
26.982 1 241 41.303 4.18358 3.97537 -0.767848 5.21541 -0.377516 0.158139 0.339596 0.65692 0 0 0 0 0 0 -0.00490924 0.0118595 -0.0435645 -1.8395 4.24581 3.75995 -1.28732 5.28887 -0.0164479 0.160911 0.368007 0.677962 1.72251 3.72992 3.82591 -0.244834 5.14782 -0.728131 0.1554 0.311142 0.635881 
26.982 1 201 41.267 0.472698 4.17512 -3.19657 2.6166 -2.86355 0.024398 -0.416984 -0.102447 0 0 0 0 0 0 -0.00634425 -0.185204 -0.125015 41.294 42.4109 3.86041 -2.81668 4.00327 -2.73345 0.0192468 -0.434719 -0.11298 39.852 39.3427 4.10843 -3.57332 1.23769 -2.98564 0.0295833 -0.399263 -0.0919079 
26.982 1 245 3.38049 4.24103 4.16581 1.02426 -0.366061 -4.39394 -0.0206005 0.223222 0.261164 0 0 0 0 0 0 -0.0224481 -0.0273725 -0.0182134 3.37363 3.96737 4.69033 0.643441 -0.0581105 -4.31564 -0.0267078 0.224612 0.267895 4.51024 4.13681 3.26541 1.41081 -0.664562 -4.4659 -0.0144726 0.22181 0.254398 
26.982 1 47 5.60119 4.37373 2.1507 -2.10967 0.315446 -2.05964 -0.226021 -0.55894 0.0327126 0 0 0 0 0 0 0.0122458 -0.121603 -0.127759 4.69674 4.7297 1.27509 -2.69469 0.315925 -1.86617 -0.230578 -0.58812 0.0353378 7.4769 3.644 2.59954 -1.52721 0.326863 -2.24739 -0.221436 -0.529735 0.0300838 
26.982 1 206 5.44882 2.2591 4.19935 -0.64746 -6.09977 3.19949 0.0158185 -0.293598 -0.044272 0 0 0 0 0 0 0.0556741 -0.162888 -0.102097 6.63575 3.10053 6.15485 -0.166375 -6.61028 3.93534 0.016229 -0.308119 -0.0427456 5.23574 0.984783 1.87113 -1.13003 -5.58335 2.47596 0.0153853 -0.279045 -0.0458326 
26.982 1 815 13.8271 0.160685 18.5065 1.60827 -1.03181 1.53488 -0.0318147 0.136708 -0.200464 0 0 0 0 0 0 -0.00455933 -0.268951 -0.0147975 15.3893 0.186058 16.7677 2.00367 -0.757742 0.794719 -0.0389899 0.130516 -0.220664 12.6738 -0.350868 20.2176 1.20977 -1.30024 2.28557 -0.024623 0.142937 -0.180214 
26.982 1 12 7.47949 2.3472 2.19253 1.78599 -1.83363 3.2143 0.0661364 -0.748753 0.206211 0 0 0 0 0 0 0.00576042 -0.248951 -0.166223 7.0776 2.03666 2.05814 1.68674 -1.7729 3.32391 0.0581196 -0.777488 0.204893 8.7089 2.21955 1.90392 1.87779 -1.89004 3.11268 0.074153 -0.719922 0.207534 
26.982 1 249 7.48379 4.19225 4.28132 1.28035 1.30836 3.03848 0.318714 0.165389 -0.232234 0 0 0 0 0 0 0.00441129 -0.0547059 -0.038176 8.75717 2.1096 3.59472 1.64594 -0.0361649 3.28702 0.316949 0.168028 -0.231145 7.03307 5.89703 4.58554 0.907303 2.6648 2.79392 0.320486 0.162772 -0.233415 
26.982 1 2835 34.9204 20.2425 18.1877 1.02309 1.2753 2.65391 -0.0970902 0.0414076 0.0863886 0 0 0 0 0 0 -0.0529814 0.105959 -0.0699869 34.0974 20.7065 17.0713 0.545508 1.00524 2.10032 -0.108965 0.0390901 0.0959987 34.766 19.7814 19.2713 1.50166 1.54936 3.21933 -0.0851919 0.043744 0.0767859 
26.982 1 16 11.7087 2.20451 2.19765 1.00062 -1.34163 -3.73034 0.235046 -0.272775 -0.103689 0 0 0 0 0 0 0.0210854 -0.167899 -0.253723 13.1406 2.5205 0.238953 1.11854 -1.27093 -4.60064 0.238943 -0.294535 -0.115718 10.8366 1.45295 3.72853 0.885636 -1.40564 -2.85532 0.231122 -0.250947 -0.0916879 
26.982 1 51 9.57347 4.16084 2.25825 -4.63076 -2.33475 1.22252 0.291434 0.380079 0.149213 0 0 0 0 0 0 0.0354023 -0.100822 -0.172442 8.03531 4.08867 1.05805 -5.69363 -2.33658 0.6263 0.285193 0.39183 0.151285 11.7983 3.85627 3.02962 -3.57356 -2.32073 1.82473 0.297666 0.368353 0.147115 
26.982 1 2833 33.0094 20.3433 16.0607 2.61704 1.71571 -0.0567063 -0.22808 -0.169974 0.40708 0 0 0 0 0 0 -0.0401252 0.0873205 -0.157196 33.6344 22.1578 13.406 2.76381 2.48734 -0.869376 -0.233491 -0.185337 0.429021 31.5452 18.5383 18.6442 2.46978 0.951854 0.770777 -0.222599 -0.154562 0.385105 
26.982 1 210 9.76722 2.23393 4.22209 2.705 2.32097 5.4818 -0.512569 -0.395033 -0.244185 0 0 0 0 0 0 -0.0453895 -0.158503 -0.124305 9.42591 2.91459 5.22337 2.29484 3.15559 6.62809 -0.522962 -0.407015 -0.24397 10.7963 1.10894 2.83911 3.10945 1.48871 4.33888 -0.50216 -0.382971 -0.244458 
26.982 1 1161 -0.639217 16.0694 20.238 -0.214824 5.14911 -0.317239 -0.542023 0.521185 -0.49141 0 0 0 0 0 0 -0.185077 -0.0547895 -0.0508918 37.8232 15.7534 20.7275 -1.50786 5.8303 0.637739 -0.558309 0.538357 -0.523462 43.6365 16.29 19.7578 1.08029 4.4686 -1.26724 -0.525753 0.504051 -0.459284 
26.982 1 253 11.7816 4.03869 4.0788 -5.91213 1.75138 -0.782386 0.208315 0.869954 0.273564 0 0 0 0 0 0 0.0222786 -0.025412 -0.0771735 12.0902 4.76099 7.67082 -6.02963 1.46616 1.12476 0.220719 0.901753 0.285844 12.0326 2.9439 0.106639 -5.79226 2.04943 -2.68746 0.195831 0.838142 0.261211 
26.982 1 20 16.0522 2.04165 2.23133 -5.60058 -0.926426 1.16036 0.235801 0.605674 -0.273447 0 0 0 0 0 0 -0.0464773 -0.175008 -0.153841 16.5559 -0.765729 3.67403 -5.11923 -1.52738 1.92349 0.250594 0.625412 -0.264912 15.828 4.43482 0.355173 -6.08393 -0.309499 0.401458 0.220986 0.585915 -0.282042 
26.982 1 55 14.1042 4.07448 1.99724 -0.21495 -2.69658 1.642 -0.432753 0.220848 0.701649 0 0 0 0 0 0 -0.00315476 -0.0748832 -0.242469 14.7494 3.4911 2.43813 -0.0150812 -2.89485 2.0334 -0.420066 0.230595 0.724876 13.8858 4.28569 1.12885 -0.410799 -2.48519 1.25744 -0.445533 0.211072 0.67836 
26.982 1 2827 26.5659 20.2922 18.3142 -0.352478 1.23512 -2.58887 0.337868 -0.342834 -0.862034 0 0 0 0 0 0 -0.10274 0.0921313 -0.129098 26.889 17.319 19.4908 0.00512415 -0.405267 -2.40111 0.352526 -0.350333 -0.911551 25.8348 23.2753 17.0896 -0.707173 2.88274 -2.77425 0.323133 -0.335362 -0.812469 
26.982 1 214 13.7981 2.23368 4.25263 2.79608 -0.317839 -0.458571 0.425391 -0.266573 -0.217281 0 0 0 0 0 0 0.049089 -0.135987 -0.140613 15.7774 1.66495 6.31193 3.42684 -0.218088 1.12211 0.443465 -0.263613 -0.221513 12.2392 2.37071 1.80334 2.16738 -0.409997 -2.03637 0.407239 -0.269546 -0.2131 
26.982 1 257 15.9377 4.31779 4.00887 3.19885 1.9912 -5.28408 0.382127 -0.176868 0.432802 0 0 0 0 0 0 -0.00476478 -0.0441841 -0.0640338 16.3012 2.77941 4.66653 3.3792 1.08759 -4.75519 0.389414 -0.174847 0.451093 15.8648 5.48574 2.96322 3.02015 2.90328 -5.81375 0.374831 -0.17891 0.414494 
26.982 1 213 11.6833 0.235326 4.3388 0.381892 3.91211 0.949359 0.316044 -0.363869 -0.496322 0 0 0 0 0 0 0.000747603 -0.192051 -0.218752 11.2891 -0.389308 3.0793 -0.159581 3.72553 1.21095 0.319373 -0.387899 -0.511495 12.6311 0.366091 5.20862 0.922658 4.10043 0.689384 0.312725 -0.339765 -0.481165 
26.982 1 1000 37.0527 18.1263 18.2225 -0.519457 1.47447 4.58762 -0.0770239 0.588992 0.137814 0 0 0 0 0 0 -0.00748717 0.0219473 0.0148416 35.3013 17.5301 18.5776 -1.03001 1.25297 4.87672 -0.0814322 0.608522 0.142178 37.6804 18.6717 17.8241 -0.0123925 1.69565 4.30351 -0.0726446 0.569435 0.133481 
26.982 1 999 39.0723 16.1999 18.268 2.66597 0.4174 -0.45476 0.995936 -0.0225881 0.0119711 0 0 0 0 0 0 0.0859812 -0.0197451 -0.0538204 36.1406 16.0178 19.6552 1.76328 0.827744 0.113028 1.03417 -0.0202322 0.000336046 40.7463 16.2897 16.8224 3.56812 0.0109276 -1.02181 0.957644 -0.0249832 0.0236267 
26.982 1 2829 28.7044 19.9611 16.1404 0.292169 -1.56023 -5.02834 -0.408307 0.931498 0.448694 0 0 0 0 0 0 -0.0356571 0.08861 -0.0507485 29.0892 21.065 16.4629 0.649453 -1.57163 -5.35895 -0.415959 0.961437 0.469348 27.7602 18.8635 15.7395 -0.0681949 -1.54311 -4.68824 -0.40067 0.901611 0.428029 
26.982 1 218 18.2164 2.03248 4.2459 0.850909 3.02727 -0.370691 -0.405132 0.311644 -0.408345 0 0 0 0 0 0 -0.0572034 -0.12709 -0.109547 16.6852 -0.770084 4.88662 0.601598 2.49312 -0.0154066 -0.416486 0.33073 -0.409737 19.8882 4.42325 3.22382 1.09768 3.57482 -0.721801 -0.393698 0.292549 -0.40696 
26.982 1 18 18.1971 2.067 0.165944 0.404954 -1.7282 -3.09503 -0.234152 0.0124814 0.159772 0 0 0 0 0 0 -0.0422988 -0.0717829 -0.191255 18.6007 0.970415 0.992842 1.06317 -2.08378 -2.22513 -0.233186 0.0229476 0.167066 17.9313 2.7469 -1.13987 -0.25815 -1.35858 -3.9589 -0.235109 0.00198174 0.152477 
26.982 1 59 18.1463 4.18253 2.07443 2.76252 4.29685 -2.83695 -0.302334 -0.289203 0.276462 0 0 0 0 0 0 -0.0343715 -0.0623234 -0.163648 19.7351 3.24823 2.4533 3.69659 3.84907 -2.39149 -0.314366 -0.295012 0.298982 16.7015 4.74915 1.26698 1.82674 4.75896 -3.27614 -0.290257 -0.283405 0.253942 
26.982 1 998 39.2474 18.1667 16.3684 -3.64441 1.79159 2.70185 0.115233 -0.11042 -0.407822 0 0 0 0 0 0 0.0198142 0.0657505 -0.100166 37.6232 20.0063 15.5277 -4.19681 2.89858 2.74207 0.124358 -0.112658 -0.417145 39.6248 16.2727 17.1053 -3.08753 0.681811 2.66039 0.106076 -0.108156 -0.398558 
26.982 1 2821 20.3198 20.2594 16.4143 -2.88866 1.89127 1.58831 -0.314722 -0.0701678 -0.412944 0 0 0 0 0 0 -0.0779654 0.0931201 -0.122958 18.9937 20.7855 15.9931 -3.77714 2.80867 1.08398 -0.321291 -0.0631975 -0.432358 21.6477 19.7511 16.7327 -1.99678 0.984515 2.09205 -0.308121 -0.0771575 -0.393512 
26.982 1 24 20.2452 2.2271 2.27042 -0.855421 -0.0849184 3.20076 0.0200077 -0.196318 -0.528273 0 0 0 0 0 0 0.023619 -0.109261 -0.183104 19.3465 1.5633 2.58836 -1.36729 -0.172159 3.17406 0.0160448 -0.196983 -0.536184 21.1418 2.481 1.52407 -0.34635 0.0192266 3.23441 0.0240245 -0.195682 -0.520358 
26.982 1 63 22.3734 4.18987 2.07897 -1.62879 3.74624 2.39557 -0.491833 -0.463724 0.38413 0 0 0 0 0 0 -0.00717255 -0.0890122 -0.200781 22.7385 4.94691 0.7863 -1.47879 4.06651 2.64089 -0.503228 -0.480842 0.404204 21.8728 3.07213 2.94988 -1.7761 3.44485 2.16072 -0.480428 -0.446639 0.364091 
26.982 1 222 22.2746 2.12328 4.26795 -2.39453 2.48393 -2.16962 0.227615 0.0352689 -0.191938 0 0 0 0 0 0 -0.000407149 -0.0864591 -0.112962 21.2715 1.08544 4.60235 -2.88975 2.69872 -2.2324 0.22845 0.0441828 -0.203439 23.1409 2.7496 3.55332 -1.89707 2.28485 -2.09898 0.226788 0.0263583 -0.180424 
26.982 1 261 20.148 4.14056 4.22811 -4.54329 0.387018 -1.10353 0.332906 -0.0881106 -0.136235 0 0 0 0 0 0 -0.0037273 -0.0346703 -0.0620285 18.8099 2.88192 4.99149 -5.13875 -0.162493 -0.443833 0.330746 -0.0891087 -0.146659 21.4867 5.03369 3.08069 -3.94776 0.95196 -1.75851 0.335142 -0.0871041 -0.125787 
26.982 1 28 24.2831 2.11195 2.22549 -2.39327 2.0787 -7.43198 0.359977 -0.180109 -0.0966754 0 0 0 0 0 0 -0.0588322 -0.109353 -0.211919 23.617 3.21628 2.43232 -2.40053 2.71686 -7.26859 0.35793 -0.178861 -0.0932842 24.6823 0.598214 1.58942 -2.37969 1.46009 -7.58773 0.362024 -0.181349 -0.100061 
26.982 1 27 26.6431 0.240222 2.05891 5.31807 -0.69989 -2.41894 -0.340145 -0.137911 0.405451 0 0 0 0 0 0 -0.0310327 -0.228036 -0.164165 26.9476 0.608021 0.272467 5.45323 -0.354737 -3.68419 -0.349399 -0.14543 0.419437 25.9272 -0.598076 3.41137 5.18761 -1.03477 -1.14586 -0.330853 -0.13037 0.391471 
26.982 1 67 26.5524 4.12512 2.11403 0.270699 -2.24681 0.917668 -0.100393 -0.154985 0.251364 0 0 0 0 0 0 -0.00303328 -0.0201792 -0.178907 27.9345 2.00841 2.05218 0.77357 -2.96828 1.10133 -0.108949 -0.145655 0.258783 24.7549 5.86991 1.75227 -0.229466 -1.51515 0.743992 -0.0918172 -0.164344 0.243922 
26.982 1 226 26.4838 2.06656 4.234 -3.43018 1.28737 -1.54482 -0.0752478 0.0358623 -0.178601 0 0 0 0 0 0 -0.0185533 -0.0698836 -0.0717181 26.4129 1.85888 3.67504 -3.36239 2.00988 -1.82718 -0.0824129 0.0311716 -0.180201 26.1436 1.86276 4.40497 -3.49217 0.581954 -1.25999 -0.0680846 0.0405462 -0.177019 
26.982 1 265 24.4659 4.0284 4.12066 -2.67049 -2.83369 -3.63534 -0.129014 0.182474 0.236015 0 0 0 0 0 0 -0.00926647 -0.0174974 -0.0564597 25.0436 2.44394 3.4405 -2.23063 -3.833 -3.87385 -0.126988 0.193906 0.247856 23.6144 5.24586 4.4143 -3.10789 -1.82025 -3.394 -0.131049 0.171026 0.224203 
26.982 1 26 26.5314 2.08937 0.156321 -0.140561 -0.454497 1.30993 0.0720022 0.476676 0.194441 0 0 0 0 0 0 -0.0276739 -0.0559027 -0.253584 25.6535 3.45793 0.530626 -0.697542 -0.43451 1.7387 0.0671356 0.481746 0.19518 26.9971 0.301881 -0.682771 0.421332 -0.461017 0.895431 0.0769151 0.471634 0.193708 
26.982 1 30 30.7523 2.2111 0.119188 -0.571573 7.22705 2.37348 0.0855975 -0.28545 -0.136053 0 0 0 0 0 0 -0.0378777 0.006343 -0.252244 30.6628 0.188761 -0.306423 -0.0883176 6.49791 2.36494 0.0875243 -0.304268 -0.128275 30.1329 3.81153 0.0762676 -1.05916 7.96699 2.39331 0.0836128 -0.266655 -0.143814 
26.982 1 32 28.6228 2.13473 2.2618 1.28371 -5.52582 1.13487 0.198904 -0.0848821 -0.256558 0 0 0 0 0 0 0.00127847 -0.0596115 -0.183344 27.5069 2.31889 2.12562 0.531405 -5.35371 1.28564 0.203709 -0.0910415 -0.259903 29.1742 1.53765 1.97173 2.03563 -5.68241 0.994749 0.194096 -0.078746 -0.253252 
26.982 1 71 30.7786 4.10597 2.10834 1.18266 0.0410966 1.5425 0.218363 0.0989746 0.237251 0 0 0 0 0 0 0.00846869 0.0502067 -0.205819 30.909 4.54746 2.01786 1.42938 0.0475696 1.49222 0.23048 0.101708 0.254674 29.942 3.28386 1.78385 0.933241 0.0422289 1.6069 0.206205 0.0962074 0.219794 
26.982 1 230 30.7312 2.08821 4.16698 -0.768312 -1.94309 -3.28698 0.0491968 -0.0954307 0.0343595 0 0 0 0 0 0 -0.00203549 -0.041877 -0.0517028 29.0406 0.505213 3.90021 -1.57951 -2.48664 -3.27005 0.0515483 -0.0842233 0.0332016 31.7203 3.25719 4.06529 0.0412031 -1.38175 -3.29283 0.0467989 -0.106674 0.0354475 
26.982 1 269 28.6354 3.94373 4.27856 -4.54053 -1.38195 -1.52082 -0.254045 0.504571 -0.214805 0 0 0 0 0 0 0.00181534 0.0123985 -0.0514227 27.9654 5.7986 6.31433 -5.00573 -0.358308 -0.0890328 -0.256555 0.527596 -0.21407 28.7492 1.71298 1.86538 -4.07141 -2.40014 -2.94314 -0.251564 0.481528 -0.215584 
26.982 1 36 32.9889 2.08463 1.99993 -4.46908 -4.42517 -3.77808 -0.395713 0.179782 0.632172 0 0 0 0 0 0 -0.00191301 -0.0042561 -0.146802 32.595 2.32544 1.77352 -4.51168 -4.40794 -4.31109 -0.396662 0.187118 0.649791 32.5434 1.42657 1.81697 -4.42928 -4.42823 -3.2285 -0.394801 0.172427 0.614548 
26.982 1 2805 3.21132 20.2515 16.0759 2.49056 -0.306531 2.50286 0.491892 -0.255782 0.555715 0 0 0 0 0 0 -0.00126716 0.0937402 -0.0973908 5.20336 23.0159 15.0191 3.21392 0.887253 2.04169 0.501925 -0.272261 0.570548 2.32808 17.4938 17.0366 1.76029 -1.49375 2.96753 0.481854 -0.239305 0.540889 
26.982 1 273 32.7711 4.02807 4.1444 1.31997 -0.162763 -2.63223 0.116231 0.392586 -0.0575958 0 0 0 0 0 0 -0.00289628 0.0182014 -0.0585907 34.7201 3.15673 4.11727 2.4779 -0.460554 -3.04841 0.113722 0.409878 -0.0543776 29.9741 4.51239 3.79474 0.155906 0.141931 -2.20703 0.118717 0.37528 -0.0608666 
26.982 1 229 28.7096 0.0763062 4.16772 2.92679 -0.617212 3.22514 -0.0628541 0.139979 0.214993 0 0 0 0 0 0 -0.00724238 -0.185944 -0.114344 27.8466 37.117 5.58171 3.02211 -1.85585 4.20081 -0.059225 0.144447 0.234212 29.0144 43.8658 2.38158 2.83213 0.637001 2.26053 -0.0664605 0.135517 0.195739 
26.982 1 31 30.8386 0.131783 2.13926 1.37297 -4.02187 -0.932492 -0.243395 0.0979044 -0.0195365 0 0 0 0 0 0 -0.0414722 -0.217455 -0.129549 30.2891 38.2399 1.2569 1.44095 -5.2181 -1.32633 -0.236646 0.104975 -0.017189 30.6808 42.8583 2.60458 1.29986 -2.8094 -0.524358 -0.250178 0.0908433 -0.0218813 
26.982 1 997 37.137 16.1344 16.2592 -2.00456 5.82364 1.83998 -0.0345796 0.24014 -0.46584 0 0 0 0 0 0 0.00321997 0.00911675 -0.0273646 36.0854 14.7172 16.3788 -1.90439 6.11608 1.85462 -0.036716 0.249091 -0.488196 37.0756 17.4468 16.0503 -2.102 5.53095 1.82936 -0.0324273 0.231171 -0.443473 
26.982 1 33 32.7979 0.176525 0.155799 -4.19432 -0.430572 -5.6483 0.197093 -0.352241 -0.38787 0 0 0 0 0 0 0.000523984 -0.158318 -0.197772 32.8031 40.8265 0.29733 -4.03062 -0.180025 -5.66414 0.195406 -0.365964 -0.394253 31.9596 40.3535 -0.463394 -4.35757 -0.666472 -5.62503 0.198707 -0.338498 -0.381446 
26.982 1 35 35.0633 0.0076638 2.20947 0.257989 -4.52397 3.35502 -0.472355 0.279771 -0.153006 0 0 0 0 0 0 0.0445585 -0.223065 -0.136141 34.2767 0.912326 1.85381 -0.00738254 -4.23953 3.3562 -0.479225 0.288019 -0.153378 34.883 -1.37047 2.15241 0.526241 -4.79387 3.36748 -0.465518 0.271537 -0.152607 
26.982 1 75 35.0302 4.19043 2.17598 -1.20441 1.64806 2.92433 -0.16114 0.124117 -0.00579443 0 0 0 0 0 0 -0.00546548 0.0462055 -0.205596 36.4629 3.04215 1.53865 -0.516555 1.05319 3.22191 -0.164036 0.130051 0.00267112 32.6122 4.94429 2.39432 -1.8964 2.24617 2.63716 -0.158265 0.118128 -0.0142607 
26.982 1 234 34.9186 2.20296 4.03757 2.11508 4.93866 -0.761458 0.230569 -0.110149 0.19239 0 0 0 0 0 0 0.0128525 -0.0424539 -0.0512231 36.413 1.16954 4.52448 2.83483 4.89421 -0.606722 0.230663 -0.102818 0.211095 32.4422 2.8031 3.18284 1.39113 4.99121 -0.903977 0.230473 -0.117485 0.173667 
26.982 1 34 34.9908 2.08345 0.205984 -1.3555 -1.28788 -1.73748 0.0650889 0.164526 -0.375612 0 0 0 0 0 0 0.0579335 0.000482132 -0.272923 35.8685 5.2376 42.2869 -0.9619 0.330757 -1.08574 0.0651748 0.174621 -0.40037 33.1408 -1.50562 38.9439 -1.74719 -2.90101 -2.38225 0.0649567 0.154447 -0.350816 
26.982 1 233 32.7622 0.158066 4.12057 1.69891 2.6901 -1.78208 0.377632 -0.264534 -0.0515577 0 0 0 0 0 0 0.00776416 -0.18701 -0.0974691 32.345 39.354 2.49163 1.67341 2.4801 -2.85585 0.386924 -0.264717 -0.0552752 32.3474 41.7915 5.39027 1.72524 2.91608 -0.691658 0.368307 -0.264408 -0.0478676 
26.982 1 237 37.0236 0.306339 4.06929 4.93646 2.96995 1.14427 0.263951 -0.399545 0.319832 0 0 0 0 0 0 0.0174373 -0.189888 -0.105313 36.6128 0.0999583 5.01157 5.13525 3.76644 1.82826 0.27049 -0.418881 0.336404 36.3134 0.0292419 2.75283 4.73376 2.18287 0.470395 0.257413 -0.38024 0.303273 
26.982 1 4 -0.7284 2.36876 2.053 0.800928 -4.30634 0.425 0.342717 -0.740506 -0.33319 0 0 0 0 0 0 -0.192755 -0.0774763 -0.0877982 38.4112 2.70067 2.16112 -0.144567 -4.57882 0.300481 0.350815 -0.757321 -0.340751 42.8624 1.59399 1.52408 1.74762 -4.02853 0.554854 0.334654 -0.723698 -0.325634 
26.982 1 40 37.1255 2.29416 2.1058 -5.75568 1.85314 -2.24757 -0.0234369 -0.0723007 0.15754 0 0 0 0 0 0 0.0358499 -0.0642087 -0.219284 37.925 4.23362 2.23027 -5.25985 3.14674 -2.34653 -0.0218983 -0.0789419 0.160626 35.2067 -0.0928365 1.56584 -6.25361 0.562746 -2.13932 -0.0249735 -0.0656634 0.154467 
26.982 1 79 39.3445 4.2093 2.00474 2.30827 -5.62196 0.537891 -0.22353 0.426038 -0.195799 0 0 0 0 0 0 -0.00647441 -0.0293835 -0.219002 38.3215 5.34535 1.28509 2.04103 -5.45286 -0.148997 -0.220569 0.443912 -0.20089 39.1119 2.68507 2.30398 2.57458 -5.78259 1.23334 -0.226461 0.408106 -0.190704 
26.982 1 238 39.1749 2.2714 3.93102 -4.62643 -3.96479 -6.54768 0.0300645 -0.0322547 0.671473 0 0 0 0 0 0 -0.00126566 -0.0578765 -0.0747652 39.8796 3.38827 3.85965 -3.85445 -3.60676 -6.50373 0.0302217 -0.0328387 0.689016 37.2125 0.718722 3.6303 -5.40118 -4.31329 -6.58159 0.0299288 -0.031673 0.653941 
26.982 1 277 37.163 4.31332 4.10882 1.84047 2.60613 5.68803 -0.0804043 -0.355979 0.100969 0 0 0 0 0 0 0.00105001 -0.0125789 -0.0515119 36.5184 4.17197 3.38485 1.94239 3.32183 4.91998 -0.0776887 -0.361328 0.106109 36.6855 4.06192 4.46079 1.73442 1.89604 6.4657 -0.0831125 -0.350688 0.0958259 
26.982 1 2801 41.406 20.244 16.1341 -1.93069 -1.31771 -2.52428 -0.0952567 -0.220448 -0.0559797 0 0 0 0 0 0 -0.0754947 -0.00776538 -0.122138 41.0193 18.8325 17.1873 -1.79663 -1.63434 -1.78088 -0.0913655 -0.239758 -0.0617539 40.4106 21.6519 14.9807 -2.06048 -1.00365 -3.27063 -0.0991482 -0.201092 -0.0502448 
26.982 1 2803 1.20628 20.3035 18.1838 4.39603 1.41077 4.57197 0.671376 -0.130918 0.12939 0 0 0 0 0 0 -0.135857 0.105336 -0.128147 3.08797 19.3399 19.9846 5.07494 0.254677 5.74835 0.681354 -0.140343 0.137365 0.585929 21.2648 16.3425 3.71875 2.56538 3.4005 0.661412 -0.121463 0.121447 
26.982 1 637 37.136 0.172329 12.1195 2.80722 1.84024 0.714084 -0.0787985 -0.060695 -0.0694092 0 0 0 0 0 0 -0.0142923 -0.185842 -0.191317 37.7644 3.18168 10.8835 3.28951 2.84892 0.653558 -0.0770831 -0.0511376 -0.0785378 35.3993 -3.31288 13.1764 2.32741 0.84164 0.780626 -0.0804793 -0.0702446 -0.0602516 
26.982 1 83 1.31619 8.23513 2.05711 -2.50493 -4.9591 2.99222 -0.0118616 0.302694 0.362791 0 0 0 0 0 0 -0.159743 -0.0558374 -0.124099 0.581023 10.1884 2.31077 -2.74211 -3.29598 3.87009 -0.0257046 0.305354 0.380668 3.31803 5.98609 1.36807 -2.26383 -6.62615 2.11293 0.00204277 0.300014 0.344875 
26.982 1 242 1.32346 6.21599 4.15689 0.691427 -3.8158 -1.21288 -0.123168 -0.0319428 0.106641 0 0 0 0 0 0 -0.141576 -0.033108 -0.0624094 0.0383883 6.09405 5.04317 -0.0436508 -4.46141 -0.464404 -0.13223 -0.0215504 0.120297 3.87316 6.00504 2.8976 1.43241 -3.16425 -1.95617 -0.114045 -0.0423707 0.092935 
26.982 1 44 41.4653 6.37822 2.04353 -1.55449 0.368899 2.49092 -0.790797 -0.366445 0.174053 0 0 0 0 0 0 0.0302594 -0.0903689 -0.161812 39.7486 4.68722 2.25663 -1.82885 -0.281871 2.43301 -0.807135 -0.36563 0.182948 41.8009 7.72693 1.40214 -1.27464 1.02086 2.55051 -0.774405 -0.367297 0.165132 
26.982 1 281 -0.853575 8.21068 4.29461 0.677293 4.83789 0.731767 0.035851 -0.0101839 -0.517921 0 0 0 0 0 0 -0.11995 -0.110565 -0.152001 41.4883 9.72814 4.37265 1.21929 6.37872 1.30851 0.0331578 -0.00836584 -0.525454 39.5394 6.40914 3.84458 0.136796 3.30269 0.160832 0.038539 -0.0119982 -0.510439 
26.982 1 48 3.5134 6.31417 2.14703 -5.17286 2.30853 -3.35959 -0.279968 -0.199352 -0.275898 0 0 0 0 0 0 -0.0496018 -0.0193231 -0.102005 1.09835 5.51893 0.809528 -6.3855 2.3655 -3.4812 -0.289303 -0.204965 -0.286183 7.05412 6.77908 3.05293 -3.95611 2.25796 -3.23281 -0.270577 -0.19375 -0.26564 
26.982 1 285 3.47322 8.19583 3.98374 3.41707 3.47291 3.53478 -0.0556458 0.225559 0.477249 0 0 0 0 0 0 -0.0291936 -0.00925177 0.00025675 0.691707 8.5076 2.48646 2.25226 3.72758 3.33038 -0.0667913 0.225247 0.50316 7.38295 7.59197 5.10113 4.58806 3.21926 3.74212 -0.0444184 0.22585 0.451267 
26.982 1 46 5.57818 6.26014 0.205174 -0.0920947 1.88877 0.168439 0.145442 0.106705 -0.0199957 0 0 0 0 0 0 0.00829304 -0.0195276 -0.28506 4.95196 4.94151 2.30394 -0.54352 0.928997 1.06177 0.149336 0.109207 -0.0326872 7.17573 7.25168 -2.36232 0.356523 2.8575 -0.711838 0.141575 0.10419 -0.00724445 
26.982 1 52 7.67626 6.35286 2.18064 0.229984 -3.44896 0.908086 0.0644556 -0.308508 -0.094138 0 0 0 0 0 0 0.0184144 -0.0222702 -0.0996612 8.11391 6.5516 4.02024 0.297491 -3.3911 1.75595 0.0733175 -0.312441 -0.0971996 8.06345 5.82995 -0.0882377 0.157032 -3.49706 0.0667488 0.0555942 -0.304595 -0.0911084 
26.982 1 87 5.71295 8.39131 2.13491 -5.36295 -4.14206 -0.938307 -0.399025 -0.360878 -0.310889 0 0 0 0 0 0 0.00513659 0.00176166 -0.104553 5.31195 8.89571 3.53432 -5.77397 -3.4736 -0.127307 -0.398469 -0.36874 -0.323666 7.09387 7.5968 0.304635 -4.94925 -4.80683 -1.74399 -0.399548 -0.353026 -0.298137 
26.982 1 86 5.69559 10.2031 0.109291 3.9314 0.166995 -2.59033 -0.276176 0.36128 0.116558 0 0 0 0 0 0 0.0313011 0.0462511 -0.280269 5.62134 10.6419 41.3665 3.66022 0.767881 -1.92909 -0.277097 0.381956 0.115526 6.75057 9.52547 39.6761 4.20446 -0.428432 -3.24028 -0.275197 0.340615 0.117636 
26.982 1 246 5.50159 6.22808 4.03436 8.98657 1.62449 1.92049 0.110788 0.204311 0.673577 0 0 0 0 0 0 0.000139007 -0.000813658 0.00956492 6.84549 5.52325 2.18261 9.44666 2.00978 1.89899 0.109262 0.213511 0.699384 5.13388 6.60257 5.5 8.52643 1.24502 1.94378 0.112334 0.195109 0.647699 
26.982 1 289 7.55907 8.27417 4.14917 -1.30494 -1.73288 -1.26231 0.914555 -0.100325 0.0443534 0 0 0 0 0 0 0.0226777 0.00357738 0.000625758 9.05537 6.91667 4.04985 -0.940887 -1.90446 -0.768009 0.937229 -0.101878 0.0602081 6.892 9.34684 3.86408 -1.67055 -1.55656 -1.75548 0.891865 -0.098766 0.0284343 
26.982 1 286 5.59165 10.1861 4.1625 2.45107 -2.87095 -0.770218 -0.0881587 0.541143 -0.118921 0 0 0 0 0 0 0.00382826 0.027945 -0.0158239 6.43932 10.2801 6.08733 2.93428 -2.42766 0.751477 -0.0889846 0.565884 -0.119791 5.73427 9.84069 1.85814 1.97586 -3.31874 -2.29224 -0.0872789 0.516408 -0.118124 
26.982 1 56 11.8574 6.06434 2.09038 -0.137744 1.97787 -4.51606 -0.175107 0.122039 0.15044 0 0 0 0 0 0 0.0531174 -0.0593615 -0.185938 12.8447 6.57223 3.63671 0.415737 1.76364 -3.76115 -0.173733 0.132506 0.164798 11.4341 5.23351 0.114252 -0.689166 2.20292 -5.26522 -0.176562 0.111529 0.136037 
26.982 1 91 9.91668 8.16274 2.17281 3.24679 1.27469 0.28153 -0.360368 0.260631 -0.286992 0 0 0 0 0 0 0.0231712 0.0164031 -0.11499 10.7451 8.55833 2.6776 3.35968 0.808344 0.77969 -0.360584 0.275476 -0.283761 9.7799 7.4908 1.24417 3.13091 1.74958 -0.208581 -0.360194 0.245781 -0.290248 
26.982 1 250 9.70447 6.24264 4.12057 -3.16838 -0.265137 5.13112 0.0310725 0.0708437 0.262883 0 0 0 0 0 0 0.00741851 -0.00424074 -0.0108634 10.2374 6.03817 8.24728 -3.20106 -0.411461 7.31605 0.0278964 0.0763079 0.287418 9.8577 6.12884 -0.399202 -3.14033 -0.10488 2.94123 0.0342115 0.0653432 0.23828 
26.982 1 293 11.8504 8.18227 4.11156 -0.0762752 -3.98279 -2.13422 -0.100182 0.271826 0.234271 0 0 0 0 0 0 0.0028323 0.00874663 -0.0211403 11.0433 6.67577 7.57285 -0.389192 -4.04819 -0.282437 -0.104739 0.282515 0.252199 13.2165 9.40673 0.268638 0.235822 -3.91253 -3.98392 -0.095667 0.261184 0.216303 
26.982 1 50 9.74279 6.03768 0.169359 -3.43455 -2.90372 4.2028 -0.0873538 0.123151 0.0900015 0 0 0 0 0 0 0.064663 -0.0636122 -0.274002 10.9648 6.48987 -0.645745 -2.96283 -2.68403 3.92359 -0.094461 0.139469 0.0848424 9.21286 5.25664 0.519299 -3.90852 -3.1139 4.49532 -0.0802569 0.106809 0.0951987 
26.982 1 95 13.9103 8.19332 2.23569 2.66813 0.378738 1.28087 -0.0131839 0.100874 -0.495417 0 0 0 0 0 0 0.00561963 -0.0051316 -0.176407 14.8896 8.64066 -0.131327 3.12968 0.319197 1.02992 -0.0152539 0.091442 -0.506876 13.3541 7.46029 4.18206 2.20639 0.439748 1.54045 -0.0111611 0.110339 -0.483983 
26.982 1 254 13.7417 6.20054 4.05367 -0.373697 -2.02133 -1.13572 0.686308 -0.276204 0.306006 0 0 0 0 0 0 0.0133094 -0.0223581 -0.0482168 13.1077 5.68308 6.38875 -0.440251 -2.07293 0.370202 0.698486 -0.283243 0.327556 14.8054 6.39946 1.32956 -0.304082 -1.95694 -2.64619 0.674041 -0.269161 0.284414 
26.982 1 427 26.5063 0.155153 10.171 -3.14746 4.62166 2.0116 -0.126059 0.0878057 0.203575 0 0 0 0 0 0 0.0182578 -0.27454 0.0252397 27.6801 -1.2837 8.4461 -2.3694 4.25859 1.51724 -0.121305 0.0711591 0.212509 24.9268 1.11483 11.659 -3.92312 4.9911 2.51117 -0.130876 0.104533 0.194635 
26.982 1 96 12.0722 10.3373 2.1186 -3.60073 0.472937 -0.709106 -0.597835 -0.329171 -0.128538 0 0 0 0 0 0 0.0314456 0.0314054 -0.195553 12.101 9.95656 0.0759963 -3.50463 0.627001 -1.91701 -0.605161 -0.341146 -0.135441 12.601 10.4796 3.7415 -3.70052 0.321479 0.507386 -0.590532 -0.317163 -0.121624 
26.982 1 100 15.8312 10.2721 2.19226 1.31204 -0.0473418 -5.06128 0.795704 -0.01697 -0.214922 0 0 0 0 0 0 0.0222119 0.0424904 -0.220309 16.0742 12.8321 -1.10333 1.37576 1.21237 -6.31989 0.820433 -0.0201069 -0.224962 15.8671 7.47498 5.06204 1.24749 -1.30215 -3.79859 0.770951 -0.0138048 -0.204875 
26.982 1 294 13.9348 10.3306 4.14025 4.15788 0.660311 0.133514 0.0657436 -0.697925 0.114526 0 0 0 0 0 0 0.00500166 -0.0164876 -0.0462426 14.246 13.5889 2.91945 4.48646 2.62964 0.261439 0.0664244 -0.720469 0.120131 14.0478 6.83338 4.97893 3.82863 -1.30498 0.0107335 0.0650431 -0.675317 0.10892 
26.982 1 625 24.2662 0.393676 12.3265 3.75225 2.80739 -4.80305 0.174856 -0.568767 -0.534144 0 0 0 0 0 0 -0.0164201 -0.207613 -0.140565 23.6694 0.576006 13.5466 3.59023 3.06649 -4.37353 0.180839 -0.600033 -0.557831 24.5856 -0.271319 10.9324 3.91124 2.55392 -5.21925 0.168838 -0.537408 -0.51044 
26.982 1 60 15.9927 6.32557 1.94935 -1.96246 -2.01793 -1.29624 0.0245152 -0.42072 0.355579 0 0 0 0 0 0 -0.0430905 -0.05138 -0.176116 17.3925 7.74907 0.0797291 -1.40507 -1.64435 -1.67067 0.0248955 -0.433665 0.381501 14.8758 4.57175 3.39362 -2.52001 -2.3849 -0.912579 0.0241171 -0.407763 0.329638 
26.982 1 297 16.2022 8.29367 4.03446 1.89555 -3.57915 3.38975 -0.574082 -0.454671 0.516449 0 0 0 0 0 0 -0.00714315 -0.0209195 -0.033701 17.1495 8.86051 1.5005 2.59104 -3.04465 2.73856 -0.577766 -0.481707 0.536795 15.541 7.44151 6.18733 1.20228 -4.11035 4.04531 -0.570387 -0.427577 0.496102 
26.982 1 99 18.0878 8.23539 2.13291 0.496435 0.952455 1.098 0.255249 -0.149178 -0.144062 0 0 0 0 0 0 -0.00560494 0.0406999 -0.166844 16.9626 10.019 -0.283794 0.269293 1.48999 0.857869 0.256223 -0.155317 -0.14558 19.3565 6.15561 4.12587 0.725566 0.411691 1.34595 0.25429 -0.143018 -0.142556 
26.982 1 258 18.1932 6.07932 4.31805 1.78545 1.96081 0.113468 -0.536583 0.17622 -0.460236 0 0 0 0 0 0 -0.0269058 -0.00840121 -0.0445115 17.9858 7.89175 5.03167 1.62252 2.70002 0.446643 -0.559198 0.171133 -0.478707 18.5455 3.93844 3.22258 1.94919 1.22995 -0.217209 -0.513882 0.181331 -0.441784 
26.982 1 301 20.1233 8.16065 3.98051 -4.36636 0.0142247 5.89898 0.283906 0.126189 0.4514 0 0 0 0 0 0 0.00063981 0.0131974 -0.0318695 18.967 6.96337 4.4023 -4.80299 -0.323707 6.37824 0.283153 0.127826 0.471174 21.279 9.06526 3.18224 -3.92853 0.354052 5.42644 0.284663 0.124523 0.431673 
26.982 1 298 18.1663 10.2145 4.2147 -5.79842 3.45252 -0.73667 -0.00100504 0.32497 -0.091277 0 0 0 0 0 0 0.00155004 0.020961 -0.062604 17.9808 10.8556 1.31229 -5.73306 3.53185 -2.32728 0.000587779 0.332996 -0.100022 18.4923 9.33092 6.74315 -5.86 3.37637 0.86139 -0.0026236 0.316942 -0.0825138 