ITEM: TIMESTEP
14850
ITEM: NUMBER OF ATOMS
4000
ITEM: BOX BOUNDS pp pp pp
-3.09234 43.5923
0.798477 39.7015
0.82518 39.6748
ITEM: ATOMS mass type id x y z vx vy vz fx fy fz xrad yrad zrad vxrad vyrad vzrad fxrad fyrad fzrad xub yub zub vxub vyub vzub fxub fyub fzub xlb ylb zlb vxlb vylb vzlb fxlb fylb fzlb 
26.982 1 43 -1.00267 4.5259 2.79109 2.04734 2.77558 -2.70753 -0.078861 -0.579004 -0.435021 0 0 0 0 0 0 -0.143322 -0.110892 -0.187428 -18.0411 2.36711 18.086 0.267412 4.86172 -0.800499 -0.0954508 -0.585664 -0.450668 21.5433 5.50641 -13.921 3.82777 0.722004 -4.5835 -0.0623435 -0.572362 -0.419456 
26.982 1 202 -0.722681 2.60546 4.90024 4.34719 1.0064 0.381005 -0.118722 -0.114843 -0.317706 0 0 0 0 0 0 -0.13259 -0.0792632 -0.128672 3.08444 -15.6644 5.35596 5.15972 -0.323227 -0.273796 -0.119282 -0.106443 -0.338428 0.9839 19.5706 3.3376 3.53577 2.36388 1.07758 -0.118213 -0.123263 -0.297071 
26.982 1 241 43.2478 4.96137 4.76575 0.661685 -2.33913 -0.548013 0.361662 -0.42675 -0.227813 0 0 0 0 0 0 0.0185207 -0.0461804 -0.066045 -5.95972 12.7037 -12.794 2.03341 -1.6567 -3.99993 0.377972 -0.455294 -0.24221 5.10458 -3.87292 21.1903 -0.715422 -2.9761 2.93317 0.345231 -0.398239 -0.213406 
26.982 1 245 1.32795 4.56608 4.62189 0.154519 -1.45364 -0.428014 0.229897 -0.0940946 0.229326 0 0 0 0 0 0 -0.0222732 -0.0347553 -0.0582287 -3.32354 8.2063 3.00591 -1.15124 0.0772734 -1.68911 0.237166 -0.095417 0.237137 10.9015 -0.185581 5.06528 1.46748 -2.93567 0.87552 0.22256 -0.0927696 0.221431 
26.982 1 8 1.3633 2.75721 2.61277 -2.1937 -2.24926 1.89568 0.0618931 -0.0635015 0.491813 0 0 0 0 0 0 -0.0694628 -0.0903044 -0.197046 -4.43597 17.3936 3.14869 -2.82192 -1.57426 2.8584 0.0686821 -0.068232 0.513286 12.067 -13.2519 0.730387 -1.56308 -2.90652 0.974746 0.0550426 -0.0588374 0.470332 
26.982 1 47 3.81798 4.81821 2.85748 0.0249185 -0.702211 -2.54971 0.248547 -0.529703 0.00911535 0 0 0 0 0 0 -0.01554 -0.00526727 -0.168885 -3.83241 19.0282 -6.48718 -1.16671 0.754821 -6.10123 0.262909 -0.546586 0.00085684 15.7174 -10.3681 10.8458 1.21767 -2.0972 1.03098 0.234187 -0.512796 0.0172992 
26.982 1 206 3.81789 2.66496 4.76328 -3.43711 2.89226 -3.59575 -0.0505186 -0.315609 -0.365534 0 0 0 0 0 0 0.0236334 -0.0963557 -0.0641816 9.40842 -11.4754 23.6784 -3.11279 3.37404 -0.661663 -0.0473367 -0.31063 -0.370817 2.46541 15.5387 -15.2389 -3.76545 2.47239 -6.48423 -0.0537588 -0.320575 -0.360305 
26.982 1 807 4.23293 1.00249 18.3685 -2.89276 0.946714 -1.49191 -0.275154 -0.139813 0.231099 0 0 0 0 0 0 -0.0291051 -0.27352 -0.0629041 6.49017 57.6359 15.3369 -3.09628 2.73957 -2.62115 -0.299733 -0.154827 0.225111 6.18 24.4933 21.4312 -2.68622 -0.76291 -0.341675 -0.250467 -0.124862 0.237073 
26.982 1 801 43.2555 0.854533 16.4492 4.17677 0.397639 0.84791 0.252471 0.291039 -0.147493 0 0 0 0 0 0 0.047108 -0.177453 -0.147781 43.3407 55.2302 7.2281 4.68203 2.15844 0.281448 0.26692 0.297518 -0.145108 37.1402 26.3613 25.6651 3.66847 -1.32152 1.47151 0.237926 0.284543 -0.149976 
26.982 1 249 6.22205 4.94269 4.8079 1.1052 1.21702 0.778489 -0.272964 -0.16947 -0.16685 0 0 0 0 0 0 -0.0183419 -0.0333609 -0.038489 7.63691 -10.1719 12.4343 0.567698 -1.80061 1.75641 -0.297098 -0.190414 -0.171886 8.3466 19.0329 -3.97298 1.63297 4.27996 -0.153352 -0.24879 -0.148459 -0.161809 
26.982 1 12 6.25329 2.73635 2.97547 4.26871 -0.319137 -0.0688993 -0.122646 -0.046737 0.143741 0 0 0 0 0 0 0.0165988 -0.137125 -0.0734621 7.60235 7.738 -5.80126 3.92821 0.768615 -1.504 -0.119621 -0.0548866 0.13481 8.44465 -3.4936 10.4539 4.59806 -1.34606 1.40623 -0.125703 -0.0385163 0.152646 
26.982 1 51 8.46759 4.8291 2.80431 -4.11718 -0.346178 -2.91663 0.335087 -0.519334 -0.505641 0 0 0 0 0 0 0.0114148 -0.00878173 -0.16439 -6.06099 14.1369 -20.0388 -4.75266 -0.286015 -4.52059 0.34815 -0.552339 -0.515903 25.8976 -5.48263 24.3366 -3.49692 -0.349686 -1.26482 0.322053 -0.486235 -0.495324 
26.982 1 210 8.55348 2.80085 4.58135 -4.5487 2.41525 1.78614 0.371187 -0.340619 0.183454 0 0 0 0 0 0 -0.0191173 -0.142967 -0.0821763 2.54589 6.5141 12.5478 -6.12479 2.92428 3.49924 0.372078 -0.372514 0.170819 17.4768 -2.22899 -4.62578 -2.98133 1.94478 0.114072 0.370318 -0.308671 0.196137 
26.982 1 253 10.8494 4.85096 4.65383 3.12621 3.4612 1.11757 -0.00582812 -0.376858 0.0912155 0 0 0 0 0 0 0.00472635 -0.028418 -0.0546423 8.37034 1.37137 42.6779 2.58006 4.4074 7.55392 0.00305006 -0.400067 0.0848558 15.7611 7.38281 -34.55 3.66995 2.57253 -5.272 -0.0147358 -0.353592 0.0976516 
26.982 1 16 11.1074 2.68065 2.92438 -0.548534 -4.97485 1.25764 -0.260598 -0.0508739 -0.00176541 0 0 0 0 0 0 -0.00449048 -0.0984226 -0.123398 9.6314 25.215 -5.95799 -2.41077 -1.42015 1.3848 -0.268355 -0.0627761 -0.00381903 15.063 -21.1625 10.3844 1.32884 -8.5039 1.16444 -0.252779 -0.0389316 0.000322663 
26.982 1 55 13.3566 4.67963 2.6894 -3.07842 0.543561 -1.74654 -0.402729 -0.259351 0.0958464 0 0 0 0 0 0 0.0220638 -0.0390856 -0.18359 12.9202 8.09076 14.8488 -4.00719 3.37484 1.87724 -0.420165 -0.256372 0.0975573 15.6915 0.243093 -10.7413 -2.12948 -2.23685 -5.32852 -0.385313 -0.262341 0.0941527 
26.982 1 214 13.4314 2.67137 4.59094 -0.160847 -3.16077 -3.93557 -0.171703 0.377472 0.306612 0 0 0 0 0 0 0.00329621 -0.0608834 -0.0733439 26.6802 6.37596 11.6338 0.619549 -1.40926 -3.06876 -0.18485 0.388311 0.307855 2.07385 -2.29238 -3.71911 -0.921887 -4.8771 -4.77168 -0.158505 0.366639 0.305441 
26.982 1 999 41.0229 16.276 18.2271 -4.39967 -2.56404 2.98165 0.0123896 -0.254104 0.191977 0 0 0 0 0 0 -0.0397532 -0.0242231 0.0493934 27.5573 20.5928 30.0984 -4.49752 -2.95271 4.42182 0.0179885 -0.270094 0.194407 49.0924 11.8458 6.35649 -4.30887 -2.12993 1.57103 0.00668031 -0.238093 0.189549 
26.982 1 213 10.8731 0.765246 4.81797 -0.027957 1.56324 0.860353 -0.150422 0.529726 -0.335116 0 0 0 0 0 0 -0.0426919 -0.161373 -0.155317 10.448 2.79293 15.3479 -0.496511 3.37757 2.23806 -0.159342 0.536773 -0.361795 13.7338 -2.78695 -6.99389 0.456736 -0.218674 -0.482131 -0.141405 0.522699 -0.308379 
26.982 1 20 15.6157 2.8641 2.70171 0.874157 1.93303 3.88826 -0.0857865 -0.246727 -0.2919 0 0 0 0 0 0 0.0132321 -0.0998518 -0.212645 29.6715 -13.7898 6.75784 2.26677 1.4174 4.75641 -0.0863198 -0.25334 -0.298901 2.74945 18.2861 -2.66292 -0.514613 2.48282 3.07318 -0.0852332 -0.24016 -0.284886 
26.982 1 257 15.6918 4.6846 4.71604 -0.806758 2.35205 4.43921 -0.386517 0.194705 -0.114474 0 0 0 0 0 0 0.00199045 -0.0228727 -0.0550082 23.2374 -16.4273 13.9433 -0.862533 2.16435 8.03665 -0.397201 0.204669 -0.107638 9.37693 24.7091 -5.7199 -0.740243 2.58275 0.882792 -0.375842 0.184698 -0.121244 
26.982 1 218 17.9959 2.93273 4.31983 2.3653 2.2231 0.610472 0.0531601 -0.597978 0.207485 0 0 0 0 0 0 0.0126082 -0.137409 -0.0891895 7.70471 -3.7885 1.2721 0.803519 3.01733 0.943755 0.0462923 -0.614437 0.221762 28.8254 8.4459 6.18238 3.92164 1.46897 0.31726 0.0599962 -0.581575 0.193269 
26.982 1 59 17.8296 4.98461 2.64398 1.775 4.06569 -2.78701 0.0667156 0.0235956 -0.676426 0 0 0 0 0 0 0.00866306 -0.0087187 -0.222001 30.0199 -9.66632 12.4713 2.90462 2.29286 -0.568452 0.0742548 0.027949 -0.686297 6.15443 18.5343 -8.4471 0.638563 5.8596 -4.95099 0.0591816 0.0191649 -0.666536 
26.982 1 145 24.8193 12.4069 0.876087 0.146594 2.95526 0.41382 0.0869522 0.448279 0.028211 0 0 0 0 0 0 0.000453574 -0.000718609 -0.284373 28.7201 24.2879 46.7469 0.169601 5.35342 0.793912 0.0797125 0.451758 0.0183962 19.7559 0.0785942 34.8774 0.129889 0.595385 0.0998707 0.0941761 0.444851 0.0379677 
26.982 1 24 20.3736 2.7033 2.68899 5.41208 0.598605 0.135852 0.144065 -0.138576 0.148569 0 0 0 0 0 0 -0.00218922 -0.0980201 -0.151616 11.1022 13.4028 13.6471 3.88978 2.59167 2.21446 0.137298 -0.138858 0.146621 29.5816 -9.15842 -9.59621 6.92543 -1.33946 -1.89187 0.150848 -0.138339 0.150524 
26.982 1 261 20.394 4.61724 4.64497 -0.120072 0.740549 -2.38813 -0.233934 0.284849 -0.248431 0 0 0 0 0 0 -0.00819748 -0.0180666 -0.0812521 20.4138 7.40275 2.72527 0.0818178 2.88934 -2.51656 -0.24356 0.301313 -0.257822 20.3132 0.742763 5.38634 -0.331268 -1.37194 -2.22399 -0.224362 0.268371 -0.239015 
26.982 1 7 3.63449 0.916081 2.78094 -3.07672 -1.11866 2.46007 0.0823309 -0.452526 0.171347 0 0 0 0 0 0 -0.00828627 -0.227655 -0.0994855 2.58348 36.5932 -1.62501 -2.37413 -2.06939 4.3175 0.088873 -0.453904 0.180906 8.86904 45.0725 5.90384 -3.79259 -0.131972 0.65686 0.0756391 -0.451201 0.161764 
26.982 1 63 22.4613 4.54875 2.45853 2.48343 2.3138 -3.51391 0.600957 0.800049 1.20457 0 0 0 0 0 0 0.0299068 -0.0435577 -0.213793 28.6337 22.726 9.07926 2.69546 5.71315 -1.75106 0.617341 0.822688 1.23247 15.7089 -14.7328 -5.44201 2.26998 -1.04925 -5.23709 0.584613 0.777358 1.17674 
26.982 1 222 22.7622 2.67027 4.75625 -0.527671 -3.4548 3.47437 -0.22442 0.391423 -0.408636 0 0 0 0 0 0 -0.026135 -0.065423 -0.0952966 19.1376 16.1644 7.15649 -0.508568 -1.32342 4.71051 -0.234292 0.415265 -0.415861 25.7685 -12.0688 1.17414 -0.558752 -5.54722 2.27093 -0.21455 0.36755 -0.401466 
26.982 1 28 24.9347 2.60529 2.6636 -2.81957 0.95217 -0.436988 -0.145228 0.281898 0.185758 0 0 0 0 0 0 0.00517146 -0.0888993 -0.204016 28.1255 9.70486 15.7362 -1.94314 1.33674 1.89057 -0.146285 0.295625 0.198263 20.63 -5.68699 -11.8803 -3.69636 0.618706 -2.7569 -0.144184 0.268112 0.173292 
26.982 1 265 24.8687 4.51323 4.74518 0.44069 1.55794 5.03157 -0.171619 0.343279 0.11161 0 0 0 0 0 0 -0.0175098 0.00346803 -0.0698369 27.6606 -17.3838 3.05799 0.893057 0.653826 6.50205 -0.190316 0.376378 0.122516 20.9328 25.2933 5.18982 -0.0110618 2.51064 3.58735 -0.152944 0.310168 0.100694 
26.982 1 225 24.9233 0.883101 4.70628 0.864432 1.57572 7.30672 0.134581 0.141049 -0.298373 0 0 0 0 0 0 0.04299 -0.158414 -0.175466 32.5421 17.8219 14.2305 2.48555 2.92697 10.2615 0.151175 0.133347 -0.307956 16.0717 -17.5647 -5.99528 -0.77029 0.251031 4.39012 0.117992 0.148659 -0.288832 
26.982 1 2801 43.515 20.2463 16.397 -2.39021 3.05692 -2.7171 -0.0336385 -0.0195236 -0.487467 0 0 0 0 0 0 -0.000294625 0.0181358 -0.134779 39.5383 14.8354 33.5089 -3.48441 2.14477 -0.685224 -0.0359444 -0.0341333 -0.503046 41.537 25.743 -0.821046 -1.29252 3.99412 -4.70519 -0.0313734 -0.0048706 -0.47189 
26.982 1 403 -0.92667 0.908155 10.7339 -1.54349 -2.17397 1.97849 -0.0780564 0.367032 -0.146752 0 0 0 0 0 0 -0.0644603 -0.18864 -0.0430527 7.69974 60.2367 14.4466 -0.407051 -0.688719 3.20027 -0.0692268 0.37325 -0.139903 -4.12221 21.3073 6.35683 -2.674 -3.63111 0.788665 -0.0870551 0.360775 -0.153665 
26.982 1 67 27.0417 4.44938 2.76112 2.56877 -1.22166 0.696275 0.29276 0.468682 -0.550655 0 0 0 0 0 0 -0.031481 -0.00160315 -0.188658 26.5675 -4.96512 8.64794 2.31372 -1.74425 0.255728 0.288021 0.497036 -0.548125 25.7929 12.7081 -4.4944 2.82709 -0.656283 1.16422 0.297484 0.440375 -0.553205 
26.982 1 226 27.2486 2.9797 4.87375 1.46604 -0.400821 0.544984 0.0816009 -0.789056 0.201202 0 0 0 0 0 0 0.038098 -0.126306 -0.0927427 27.6685 -7.84971 15.2167 1.85473 -1.28726 3.09208 0.0866397 -0.805559 0.20088 25.1303 12.7099 -6.76217 1.08567 0.545551 -1.9783 0.0765465 -0.772632 0.2015 
26.982 1 32 29.4272 2.76569 2.65565 2.37954 1.54503 -2.61521 0.306029 -0.451006 0.617384 0 0 0 0 0 0 0.0563172 -0.21386 -0.117326 13.3822 9.68348 22.3367 1.04722 4.4236 -0.0144335 0.317842 -0.462921 0.648229 43.1242 -5.32569 -18.4118 3.72389 -1.27393 -5.18651 0.294227 -0.43912 0.58659 
26.982 1 269 29.6185 4.62537 4.70755 -0.147228 1.84148 7.28697 0.093362 -0.127143 0.114322 0 0 0 0 0 0 0.0120637 -0.0629031 -0.0593533 26.8792 14.4034 24.0761 -0.476129 2.89055 10.328 0.0992408 -0.126399 0.115879 30.0648 -6.29217 -15.7918 0.199207 0.834686 4.28985 0.0874916 -0.127887 0.112804 
26.982 1 421 20.0293 0.907488 8.62171 -1.22606 -0.376843 -1.2599 0.25497 0.0496259 -0.0457721 0 0 0 0 0 0 0.0105776 -0.176602 -0.113142 19.2301 59.4248 16.9324 -0.478616 0.173979 1.12964 0.254899 0.0508098 -0.0526111 20.8197 22.1878 -0.540736 -1.98588 -0.903436 -3.61406 0.254983 0.0484193 -0.0389537 
26.982 1 2611 8.59885 20.3261 14.4386 3.53648 -0.527079 -2.12783 0.0509298 -0.249467 -0.108844 0 0 0 0 0 0 -0.0666196 0.114665 -0.147184 7.95286 39.7725 35.3236 2.03672 2.49761 -2.0076 0.028572 -0.228047 -0.102232 12.2047 0.948002 -6.76613 5.04132 -3.54221 -2.21963 0.0733559 -0.270853 -0.115452 
26.982 1 122 -0.989006 14.2941 0.772428 3.59016 1.4222 -1.86864 0.555689 0.0080301 0.293404 0 0 0 0 0 0 -0.0302543 -0.0103501 -0.25091 -4.97988 1.42845 22.5453 2.41078 -0.594848 0.0636875 0.568266 0.00442776 0.298281 8.47347 27.0305 -22.8045 4.78272 3.48968 -3.79257 0.543134 0.0116308 0.288551 
26.982 1 62 22.6058 6.86169 0.878493 1.96956 -3.52996 -3.45373 0.216847 0.025031 0.637146 0 0 0 0 0 0 0.0508564 -0.0409991 -0.272059 24.5184 19.4155 19.0664 1.90535 -1.54579 -0.707579 0.230948 0.0117965 0.645527 20.1094 -6.75123 -18.7482 2.03718 -5.49202 -6.1496 0.202775 0.0382042 0.628776 
26.982 1 998 40.748 18.3054 16.5314 4.59814 0.629811 3.88867 0.621958 0.397891 -0.232522 0 0 0 0 0 0 -0.0052219 0.0924752 -0.0606784 29.7477 45.7223 28.4275 4.73496 4.16767 5.02268 0.648386 0.397033 -0.257108 46.4339 -9.2249 4.47912 4.4659 -2.89266 2.79721 0.595406 0.39881 -0.207965 
26.982 1 71 32.0616 4.60932 2.63132 -1.83212 -0.00630951 4.34905 -0.209212 -0.0836684 0.467162 0 0 0 0 0 0 0.0274308 -0.108376 -0.17193 30.2545 16.8832 0.646599 -1.78007 2.41454 5.36733 -0.216388 -0.0789139 0.482652 30.8305 -8.79611 3.37322 -1.88357 -2.38097 3.38574 -0.202007 -0.0884143 0.451712 
26.982 1 230 31.8467 2.6289 4.79294 -1.55297 3.64842 -1.14746 0.12683 0.204529 -0.280552 0 0 0 0 0 0 -0.00429375 -0.166271 -0.14517 15.8896 -5.54598 -3.28441 -3.54719 2.64095 -4.09568 0.118002 0.222446 -0.305196 44.8239 9.68758 11.7813 0.452379 4.71555 1.84318 0.135698 0.186615 -0.255884 
26.982 1 273 34.261 4.56895 4.5735 1.23131 2.78092 4.1043 -0.133267 0.117469 0.211094 0 0 0 0 0 0 -0.0208689 -0.0637485 -0.0862057 43.0937 21.09 -6.89976 2.48044 2.73797 1.17861 -0.148715 0.121036 0.205206 21.7276 -13.1174 14.8748 -0.0289376 2.85681 7.07397 -0.117704 0.113938 0.217043 
26.982 1 36 34.3909 2.59028 2.69748 5.7009 1.54811 -5.56336 -0.511238 0.2712 0.192938 0 0 0 0 0 0 -0.0858635 -0.14964 -0.167535 37.2349 -2.02187 -10.6746 8.01403 0.759727 -8.30311 -0.521771 0.287471 0.191608 27.8612 5.99131 14.8459 3.37305 2.38616 -2.77389 -0.500644 0.254951 0.194295 
26.982 1 39 41.3686 0.954337 2.98395 2.09259 1.00955 1.00384 -0.163569 -0.496003 -0.34659 0 0 0 0 0 0 -0.019202 -0.231753 -0.0851292 38.5846 35.8235 14.9104 1.78379 1.43864 2.2643 -0.161377 -0.504472 -0.37202 38.7289 45.9172 -10.1011 2.4174 0.620792 -0.196178 -0.165759 -0.487497 -0.321167 
26.982 1 2225 24.692 20.2712 4.7035 -0.303503 0.344992 -4.33892 0.437769 0.257844 0.109105 0 0 0 0 0 0 -0.0448075 0.0735604 -0.139184 23.8416 34.5986 -18.7074 -1.48979 1.60481 -8.5465 0.45625 0.25935 0.106589 24.2377 6.16828 26.9107 0.891685 -0.881528 -0.107625 0.419258 0.256328 0.111616 
26.982 1 75 36.7474 4.80986 2.90749 -5.78887 -2.73882 3.88316 0.0191651 -0.154751 -0.023796 0 0 0 0 0 0 -0.026638 -0.0131031 -0.170938 39.6679 21.0314 5.52342 -5.46684 -0.291146 4.07534 0.0257772 -0.168491 -0.0332813 29.479 -12.6545 -0.914132 -6.12919 -5.15416 3.75794 0.0126135 -0.140945 -0.0142723 
26.982 1 234 36.6882 2.73171 4.60474 -3.83214 0.813317 -5.78989 -0.0702477 0.00153385 0.241303 0 0 0 0 0 0 -0.0149152 -0.129624 -0.0635589 49.7388 0.1368 -1.52736 -2.27526 0.361004 -7.84926 -0.066645 0.00486509 0.248942 19.3212 4.06854 9.67896 -5.40452 1.31351 -3.6735 -0.0738031 -0.0017619 0.233771 
26.982 1 40 39.0548 2.44989 2.93352 -8.35309 2.45896 -5.42537 -0.157128 0.84202 -0.160838 0 0 0 0 0 0 -0.0131477 -0.166921 -0.106804 46.9454 20.6513 -7.74413 -8.17905 3.60883 -7.2248 -0.155433 0.852758 -0.178326 26.2489 -17.0619 12.3907 -8.52788 1.34361 -3.57187 -0.158816 0.831371 -0.14329 
26.982 1 277 39.0559 4.83203 4.66733 1.35606 -6.3665 -2.52041 -0.529803 -0.334591 -0.0103779 0 0 0 0 0 0 -0.00775633 -0.045057 -0.0569517 36.9665 29.1119 -4.86674 0.781896 -4.66956 -2.97161 -0.535477 -0.356718 -0.0211521 36.2269 -20.5955 13.1751 1.92735 -8.0176 -2.00121 -0.524123 -0.312418 0.000445323 
26.982 1 35 36.4587 0.687907 2.80167 -4.17184 -3.7756 -10.4857 0.448932 0.0944597 -0.435514 0 0 0 0 0 0 -0.023076 -0.221193 -0.115926 27.2541 5.166 5.86271 -4.74818 -3.53893 -11.4563 0.4594 0.100944 -0.460572 41.413 -5.11405 -1.49502 -3.60565 -3.96109 -9.47118 0.438451 0.0880306 -0.410404 
26.982 1 101 20.3951 8.65339 0.971319 -3.16342 1.4159 -6.56954 -0.515537 0.637419 -0.488296 0 0 0 0 0 0 -0.000358745 0.00119527 -0.272846 18.6758 0.804387 38.4691 -2.87355 -0.460762 -7.59394 -0.536089 0.629585 -0.488808 22.0862 15.7131 43.1804 -3.45348 3.33406 -5.51452 -0.495019 0.64528 -0.48781 
26.982 1 4 43.4538 2.69684 2.93617 -0.752928 -0.972443 -0.657538 0.340369 0.638847 0.185416 0 0 0 0 0 0 0.0395945 -0.077325 -0.12419 23.6571 -1.11872 6.28631 -1.87955 -0.812183 -0.305176 0.35866 0.652416 0.167999 57.2467 5.19583 -1.67825 0.375581 -1.10247 -0.962418 0.32209 0.625312 0.202781 
26.982 1 79 41.115 4.68903 2.90264 -0.266309 -0.894123 2.01856 0.200129 0.0541417 -0.106396 0 0 0 0 0 0 0.0292677 0.0103068 -0.176016 31.1708 29.2199 -18.3553 -1.47914 1.92904 -1.64327 0.20851 0.0605623 -0.122146 45.6 -21.0172 22.9678 0.950832 -3.68689 5.7311 0.191692 0.0478036 -0.0905797 
26.982 1 238 41.399 2.8032 4.96009 -4.70846 -1.76535 -4.13073 -0.328867 0.0175507 -0.0713812 0 0 0 0 0 0 0.00303852 -0.116406 -0.0532674 48.1949 -5.01815 -6.29457 -4.83488 -3.14037 -5.94141 -0.331144 0.0183847 -0.0758561 29.1085 9.35845 15.142 -4.58388 -0.35077 -2.27506 -0.326654 0.0168034 -0.0668647 
26.982 1 995 36.3929 16.4189 18.3462 -0.244293 -3.30228 -0.169287 -0.178167 -0.250771 0.0735238 0 0 0 0 0 0 -0.0305038 -0.0144848 0.00606021 34.6129 20.6935 27.7263 -1.01837 -3.6693 -1.52653 -0.189241 -0.266035 0.0683264 34.0006 11.9469 8.99472 0.542695 -2.90796 1.22966 -0.167095 -0.235475 0.0786869 
26.982 1 83 -0.747193 8.6075 2.69995 4.20512 1.01607 -0.363452 -0.331805 0.159251 -0.0890991 0 0 0 0 0 0 -0.110446 -0.00841806 -0.196178 -4.76082 27.9501 11.5686 4.00004 1.58716 -0.748558 -0.3432 0.146928 -0.0988944 8.73999 -11.5942 -7.4801 4.41076 0.481359 0.0839741 -0.3204 0.171587 -0.0793093 
26.982 1 242 -0.927484 6.51274 4.34683 -3.53236 1.75084 3.31532 0.0609784 0.509405 0.552456 0 0 0 0 0 0 -0.133882 -0.0498825 -0.0791408 -9.86471 21.3885 14.691 -4.90086 3.84764 4.56775 0.0612111 0.506591 0.571554 13.4675 -9.35787 -7.03635 -2.17008 -0.312731 2.12994 0.0606769 0.512244 0.533348 
26.982 1 44 43.2624 6.749 2.65518 0.807629 -1.55164 -5.05415 0.367183 -0.822478 -0.462676 0 0 0 0 0 0 0.0273038 -0.0399399 -0.237035 35.9729 38.0765 1.21226 1.99759 2.97345 -5.70881 0.373489 -0.838744 -0.478812 44.5909 -25.5805 2.78493 -0.382961 -6.04182 -4.3478 0.360818 -0.806245 -0.446453 
26.982 1 281 -3.19928 8.37093 4.63516 -3.29507 3.47843 -5.09112 0.11221 0.882748 -0.355705 0 0 0 0 0 0 -0.131591 -0.109834 -0.164333 43.9033 37.421 3.95204 -3.01702 5.29102 -5.19167 0.11156 0.900719 -0.356767 36.9843 -21.5526 4.1984 -3.58699 1.67955 -4.93299 0.112754 0.864772 -0.354645 
26.982 1 48 1.57272 6.42537 2.8085 3.05178 1.66127 2.94065 -0.23615 0.241036 -0.22469 0 0 0 0 0 0 -0.00913204 -0.0331584 -0.182632 -22.7363 33.5336 -17.6883 -0.262814 7.4903 -0.811247 -0.233797 0.238031 -0.228461 30.8433 -21.7241 21.8991 6.38525 -4.13763 6.71755 -0.238536 0.244117 -0.220983 
26.982 1 285 1.36965 8.55231 4.54971 0.474101 -0.239987 0.938012 0.235998 -0.342863 0.278549 0 0 0 0 0 0 -0.00371522 -0.00666784 -0.0360461 -21.0057 29.3486 3.69645 -2.28294 3.16604 1.04929 0.244352 -0.350434 0.301048 28.7179 -13.1939 4.17389 3.246 -3.62704 0.867962 0.227612 -0.335228 0.255963 
26.982 1 87 3.8262 8.42762 2.68751 -0.853906 -1.6188 1.47152 0.0642913 0.03738 0.29616 0 0 0 0 0 0 0.00393892 0.0154654 -0.178754 -6.99827 15.0725 10.6337 -2.75448 -1.30548 2.39135 0.0794308 0.0459168 0.314137 19.0005 0.984882 -6.6197 1.06532 -1.88534 0.592998 0.049158 0.0289648 0.278146 
26.982 1 246 3.79543 6.73916 4.82052 5.4704 1.52086 7.95397 0.334785 -0.0972807 -0.0902714 0 0 0 0 0 0 0.00671404 -0.00277216 -0.0377693 10.8453 10.8731 16.9901 6.15017 1.29239 9.61704 0.340031 -0.0995025 -0.0810958 1.0768 1.62566 -8.6143 4.80568 1.78893 6.32745 0.32957 -0.0950035 -0.0995158 
26.982 1 88 1.68263 10.382 2.69407 0.988699 1.10436 -4.05047 -0.342338 0.311614 -0.215367 0 0 0 0 0 0 -0.0176716 0.0470788 -0.214891 -18.7113 20.9978 12.0905 -2.11752 1.92907 -2.70971 -0.342078 0.320758 -0.211111 27.0821 -0.93082 -8.09837 4.11923 0.31937 -5.34173 -0.342589 0.302511 -0.219657 
26.982 1 49 6.24039 4.37429 0.808742 -0.501692 5.40138 1.107 -0.186874 0.185032 0.0554784 0 0 0 0 0 0 -0.00845944 0.0329901 -0.261455 18.1849 -10.8621 -15.896 0.963654 5.20764 0.41427 -0.186748 0.186813 0.0507244 -2.19271 18.4881 16.1235 -1.98547 5.6427 1.86403 -0.187009 0.183399 0.0601943 
26.982 1 289 6.18274 8.36335 4.80252 1.80754 4.24228 0.647646 -0.398326 0.210152 -0.128963 0 0 0 0 0 0 -0.0212157 0.0129579 -0.0411983 19.8071 12.1706 33.1543 3.86118 6.07087 4.93448 -0.420391 0.228433 -0.133235 -3.83044 3.701 -24.8157 -0.247707 2.4476 -3.61008 -0.376195 0.191919 -0.124747 
26.982 1 52 6.20622 6.51821 2.52954 1.59463 -0.374596 -1.65205 -0.380337 0.254236 0.349271 0 0 0 0 0 0 -0.00207506 0.0175266 -0.176685 13.2799 4.63048 13.8622 2.99446 -1.04388 -0.230765 -0.393187 0.253374 0.363626 2.67763 7.4771 -10.03 0.185311 0.346471 -3.01983 -0.367458 0.255191 0.334975 
26.982 1 91 8.34573 8.73936 2.9278 0.646753 -2.24361 -6.37734 0.0496819 -0.471855 0.0719464 0 0 0 0 0 0 0.0212673 -0.0476149 -0.175722 14.5597 4.33846 11.0535 1.94025 -2.89431 -5.47046 0.0497488 -0.480929 0.059113 5.03394 12.3139 -6.45769 -0.66624 -1.55084 -7.24762 0.0496095 -0.462816 0.0848014 
26.982 1 250 8.47782 6.61601 4.71875 3.67569 0.813224 -3.88014 -0.017668 0.116942 -0.131966 0 0 0 0 0 0 -0.000900776 -0.00625596 -0.0702953 11.4633 14.9391 36.3218 4.72081 0.909301 -1.50321 -0.023795 0.104714 -0.144801 8.40065 -2.48945 -28.3227 2.6128 0.779985 -6.25363 -0.0115339 0.129211 -0.1191 
26.982 1 92 6.11612 10.6538 2.84158 1.53089 3.16286 2.30419 -0.102813 -0.680527 -0.328477 0 0 0 0 0 0 -0.0355037 -0.00663795 -0.135932 4.96736 9.59539 15.8489 1.57417 3.11247 2.37428 -0.106742 -0.689773 -0.321148 10.8609 11.0804 -11.4086 1.48366 3.25385 2.28391 -0.0989044 -0.671285 -0.335839 
26.982 1 290 8.33976 10.6294 4.76933 2.0301 -1.18765 -4.6206 0.147544 -0.138029 -0.0874718 0 0 0 0 0 0 0.00321658 -0.00536192 -0.0282451 13.951 29.5941 51.89 2.95161 0.235628 -0.0874825 0.149124 -0.138305 -0.0813257 5.65297 -9.09604 -43.5673 1.09503 -2.58862 -9.13978 0.146023 -0.137772 -0.0936151 
26.982 1 293 10.7135 8.6432 4.68167 0.545801 1.98481 1.62117 0.00222027 0.316973 -0.358291 0 0 0 0 0 0 0.0171916 0.00862008 -0.069299 11.9929 29.7959 44.1907 1.70028 3.8586 6.45773 0.0196261 0.327613 -0.36823 11.8148 -13.4674 -36.0853 -0.620689 0.132282 -3.2069 -0.0152259 0.306359 -0.348291 
26.982 1 56 10.6589 6.82462 2.75728 6.82515 -3.71157 -3.72245 0.20052 -0.378873 -0.402143 0 0 0 0 0 0 -0.0117152 0.0204775 -0.201534 17.165 13.358 17.7464 7.2152 -4.9313 -1.33837 0.217442 -0.395248 -0.418159 6.60132 -0.626535 -13.4853 6.43397 -2.44913 -6.05466 0.183548 -0.362484 -0.386074 
26.982 1 95 13.0665 8.87777 2.69162 2.70731 -2.61446 -3.21698 -0.0138309 -0.412565 -0.0764474 0 0 0 0 0 0 -0.0286135 0.00249734 -0.186385 9.40166 18.9745 -9.24352 2.67535 -3.74938 -4.45347 -0.00350238 -0.430463 -0.079826 18.5506 -2.16198 13.3916 2.74257 -1.47102 -1.93693 -0.0242073 -0.394708 -0.0729975 
26.982 1 254 12.9218 6.68262 4.57915 1.30014 -3.81805 1.62547 0.342212 0.254118 0.115379 0 0 0 0 0 0 0.00882738 -0.0124792 -0.0476146 6.98138 1.03078 43.7484 0.862298 -4.16798 8.80216 0.353641 0.238802 0.121228 20.748 11.4286 -35.8831 1.74849 -3.42746 -5.52278 0.330721 0.269408 0.109619 
26.982 1 2031 31.7075 20.2691 2.73293 0.140219 1.35367 -1.39728 0.289377 -0.320179 -0.342319 0 0 0 0 0 0 -0.143634 0.0647042 -0.152231 13.6872 39.4346 22.969 -1.04535 4.56923 1.14233 0.297132 -0.327897 -0.350652 46.6975 1.4848 -18.8563 1.30766 -1.81233 -3.90787 0.28158 -0.31252 -0.334002 
26.982 1 60 15.2435 6.6111 2.59303 -4.29637 0.240876 -3.3631 0.301396 0.105908 0.276703 0 0 0 0 0 0 0.0290941 -0.035957 -0.174744 29.8316 6.65621 -3.20379 -3.14881 0.368898 -1.98949 0.302569 0.110529 0.294102 1.84516 5.5213 7.09597 -5.43579 0.137582 -4.69307 0.300209 0.101242 0.25939 
26.982 1 297 15.2986 8.37355 4.68528 -2.69985 -1.9508 -0.156165 0.0983839 0.249998 -0.40491 0 0 0 0 0 0 0.0133696 0.00163955 -0.0431678 25.8866 38.353 1.26989 -1.94892 3.0706 0.026411 0.117171 0.253098 -0.410402 5.95117 -22.485 6.89356 -3.44127 -6.95079 -0.313488 0.0796105 0.246908 -0.399381 
26.982 1 99 17.713 8.45781 2.71848 -1.65462 -0.0901935 -0.78515 0.167694 -0.273998 -0.230664 0 0 0 0 0 0 0.0115719 -0.0359966 -0.161353 25.383 18.8556 8.26853 -0.502022 2.23191 2.55055 0.174077 -0.275476 -0.23597 10.6383 -2.852 -4.10018 -2.80217 -2.3806 -4.07463 0.161348 -0.272504 -0.225351 
26.982 1 258 17.6762 6.55244 4.72955 -4.24784 2.41546 3.53322 0.201063 0.570563 0.158382 0 0 0 0 0 0 0.00232809 -0.00105754 -0.0496463 16.0823 8.1214 5.18532 -4.29208 2.55428 3.77361 0.202306 0.578031 0.150547 19.798 3.98431 3.06984 -4.20678 2.29767 3.3217 0.199842 0.563045 0.166261 
26.982 1 10 8.63233 2.65979 0.912976 -3.35841 0.504137 -4.91319 -0.11017 -0.176457 0.663176 0 0 0 0 0 0 -0.0018004 -0.0899126 -0.198948 18.4087 6.14392 -8.31247 -2.49044 1.8592 -5.22793 -0.120577 -0.187583 0.668479 1.83645 -2.1785 8.7506 -4.23085 -0.823944 -4.53586 -0.0997821 -0.165207 0.657833 
26.982 1 2005 1.36636 20.1878 1.0263 0.0190207 -0.131217 -0.897699 0.286001 0.264716 -0.363729 0 0 0 0 0 0 -0.114362 0.0363108 -0.226039 -1.50938 25.8472 72.8499 0.206839 -0.187542 3.95438 0.286231 0.273733 -0.374154 9.05774 14.5716 8.88199 -0.159756 -0.0638242 -5.72587 0.285822 0.255612 -0.35337 
26.982 1 64 20.2066 6.67702 2.61412 -2.92914 1.15331 2.94492 -0.241062 -0.225998 0.489928 0 0 0 0 0 0 -0.0176663 -0.0421259 -0.18068 21.7812 2.81753 -0.170012 -3.16094 1.63658 3.85639 -0.251633 -0.224571 0.506044 18.5767 9.59577 4.09708 -2.70527 0.710584 2.08012 -0.230518 -0.227462 0.473878 
26.982 1 301 19.9192 8.58705 4.66192 -1.94247 -3.84878 3.96979 0.639984 0.0189643 -0.555526 0 0 0 0 0 0 0.0179606 -0.00863143 -0.0629641 14.1207 -3.93583 1.25023 -2.29618 -4.25762 5.09539 0.656178 0.0112643 -0.58007 25.6664 20.2372 6.92909 -1.58612 -3.41477 2.88715 0.623834 0.0266796 -0.530963 
26.982 1 433 34.1863 0.782071 8.48544 -0.281093 0.127824 3.81925 0.16825 0.304355 -0.0702164 0 0 0 0 0 0 -0.0526052 -0.196668 -0.136605 21.7853 27.0413 13.7943 -0.957805 4.03752 6.17449 0.170102 0.305502 -0.05022 42.9926 -26.8883 2.36444 0.398411 -3.73383 1.50504 0.166478 0.303218 -0.0902273 
26.982 1 103 22.5522 8.8983 2.69809 -1.5776 -3.54391 -2.27247 0.173948 -0.534521 0.191013 0 0 0 0 0 0 0.0381988 -0.000866114 -0.18697 16.3174 22.7759 -2.14756 -2.26825 -2.11227 -4.21078 0.181567 -0.551795 0.193956 28.1353 -5.73127 6.26876 -0.886187 -4.92449 -0.289681 0.166333 -0.517229 0.188064 
26.982 1 262 22.3517 6.47704 4.50827 3.56735 -2.54556 -0.302064 0.431048 0.640623 0.0635837 0 0 0 0 0 0 0.0198728 0.0124289 -0.0606702 19.0668 2.92472 2.21288 3.33481 -2.49068 -0.616856 0.445306 0.659907 0.0684598 25.0179 9.03783 5.64937 3.8009 -2.5564 0.0502278 0.416773 0.621366 0.0587605 
26.982 1 305 24.656 8.67114 4.71773 -6.1039 -2.26663 5.61626 0.095719 -0.0573035 -0.0225424 0 0 0 0 0 0 0.00267505 -0.0233532 -0.064018 26.2084 48.7423 -16.241 -5.99519 1.84299 4.29621 0.09514 -0.0739538 -0.0271001 21.9254 -32.1916 24.5073 -6.20691 -6.33952 6.97356 0.096278 -0.0406554 -0.0179887 
26.982 1 68 24.8522 6.71556 2.88613 0.654298 -5.49506 -2.9879 -0.0930225 -0.252931 -0.196206 0 0 0 0 0 0 0.0167281 -0.0165773 -0.207104 28.9013 18.1019 3.50251 1.29897 -4.85842 -3.44179 -0.101379 -0.26001 -0.195426 19.6142 -5.69318 0.933846 0.00873088 -6.0867 -2.4959 -0.0846235 -0.245916 -0.197044 
26.982 1 107 27.3231 8.55082 2.77277 4.02759 -1.66881 3.53189 -0.327137 -0.168465 0.313093 0 0 0 0 0 0 -0.0496252 -0.0464273 -0.183909 23.5295 35.9695 5.55329 4.38852 0.312293 3.87851 -0.342007 -0.178423 0.320966 29.319 -19.861 -1.26603 3.66872 -3.63543 3.24064 -0.312237 -0.15854 0.305143 
26.982 1 266 27.2036 6.3395 4.60523 -4.11346 -6.41823 4.45299 -0.0461848 0.26903 0.209039 0 0 0 0 0 0 -0.0187322 0.0101438 -0.0588551 33.2627 14.899 0.574938 -3.63634 -7.10242 5.44449 -0.0573054 0.287633 0.222306 19.4256 -3.20843 7.4951 -4.58213 -5.68547 3.5066 -0.0350298 0.250456 0.195763 
26.982 1 72 29.4695 6.49319 2.84143 5.81527 5.28776 -2.50951 0.344324 0.0146898 -0.371017 0 0 0 0 0 0 -0.0213805 -0.00990426 -0.148759 24.4799 23.0638 17.1666 4.77138 7.4879 -1.47667 0.362827 0.0221409 -0.369237 32.0772 -11.1163 -12.69 6.86196 3.12958 -3.48592 0.325834 0.00729917 -0.372849 
26.982 1 309 29.4324 8.53468 4.58599 -2.62555 0.837792 -3.40933 0.268219 -0.053897 0.0921045 0 0 0 0 0 0 -0.00188928 0.0127667 -0.0333775 28.9575 14.2663 -11.4719 -3.01295 0.424712 -2.87287 0.271036 -0.0450569 0.109826 27.5535 1.87936 19.5471 -2.23249 1.27496 -3.89625 0.265438 -0.0627229 0.0744098 
26.982 1 111 31.8793 8.82548 2.70622 -3.80264 -1.97944 -5.14161 0.0776678 -0.808716 0.577804 0 0 0 0 0 0 0.00189309 0.0189238 -0.159306 33.8312 9.57488 -15.8779 -3.42624 -2.07353 -7.46344 0.0686197 -0.844578 0.586476 26.9475 7.25895 19.9741 -4.18242 -1.84916 -2.78312 0.0867964 -0.772905 0.569133 
26.982 1 270 31.8596 6.67667 4.61255 -0.860665 1.97585 0.237025 0.130442 -0.088926 -0.368139 0 0 0 0 0 0 0.00440006 -0.0197583 -0.0537958 39.4185 40.6904 12.9095 -0.413329 6.2209 2.59721 0.126616 -0.0946634 -0.371701 21.2937 -28.2452 -4.7516 -1.30481 -2.22251 -2.06362 0.134343 -0.0831602 -0.364508 
26.982 1 76 34.538 6.63702 2.74946 -5.94239 -2.86275 -2.07125 -0.761623 0.175396 0.0630174 0 0 0 0 0 0 0.00743556 -0.0521259 -0.194153 44.2731 40.2615 -34.0573 -4.41479 1.92837 -4.85448 -0.788405 0.168722 0.0672465 21.1092 -27.8874 38.2769 -7.48742 -7.60931 0.766189 -0.734721 0.182141 0.0588411 