ITEM: TIMESTEP
1175
ITEM: NUMBER OF ATOMS
4000
ITEM: BOX BOUNDS pp pp pp
-0.313005 40.813
0.0158161 40.4842
0.0100637 40.4899
ITEM: ATOMS mass type id x y z vx vy vz fx fy fz xrad yrad zrad vxrad vyrad vzrad fxrad fyrad fzrad xub yub zub vxub vyub vzub fxub fyub fzub xlb ylb zlb vxlb vylb vzlb fxlb fylb fzlb 
26.982 1 811 9.91065 -0.0668193 18.1502 -2.48154 0.706786 -3.88629 0.0897313 0.25945 0.237399 0 0 0 0 0 0 -0.0548641 -0.246392 -0.0157486 10.2372 40.6136 18.4686 -2.40878 0.711456 -3.56685 0.0941326 0.272829 0.258499 9.81388 40.3704 17.8185 -2.55395 0.70374 -4.20176 0.0853133 0.246104 0.216254 
26.982 1 3 1.63371 -0.117995 1.96717 -0.519976 6.2336 -3.13367 -0.132371 0.433471 0.0849974 0 0 0 0 0 0 -0.0918632 -0.128636 -0.0845357 1.64079 -0.471284 1.81854 -0.654361 6.18368 -3.25577 -0.142091 0.452451 0.088064 2.038 0.0550562 1.9689 -0.386763 6.28186 -3.00944 -0.122643 0.414481 0.0819071 
26.982 1 8 3.78292 2.0593 1.98381 1.14348 -3.62001 -0.776148 -0.201301 -0.0625371 0.0160449 0 0 0 0 0 0 -0.0212108 -0.150346 -0.126436 3.8722 2.21724 1.96485 0.994861 -3.15275 -0.673548 -0.216792 -0.0663469 0.0183577 4.06149 1.74115 1.85483 1.29382 -4.08622 -0.877233 -0.185741 -0.0587301 0.0137089 
26.982 1 807 5.79663 0.10142 18.2695 -1.51177 0.352997 -0.0274207 0.186735 -0.382571 -0.648271 0 0 0 0 0 0 -0.00723132 -0.277936 0.00636776 6.0069 40.5883 18.2369 -1.46813 0.101546 -0.134482 0.187596 -0.397931 -0.675705 5.90715 40.7339 18.2875 -1.55531 0.607743 0.0824476 0.185863 -0.367189 -0.620875 
26.982 1 43 1.65275 3.91788 2.17513 0.0763778 3.44466 2.5227 -0.104049 0.178477 -0.426795 0 0 0 0 0 0 -0.135859 -0.0780084 -0.216984 1.3361 3.8143 2.16274 -0.638816 3.63845 2.98277 -0.11002 0.17375 -0.446422 2.3841 3.87671 2.03961 0.794014 3.25144 2.06433 -0.098075 0.183229 -0.407167 
26.982 1 202 1.55634 1.92921 4.148 2.78056 -6.15488 -0.793324 0.200781 0.27948 -0.249886 0 0 0 0 0 0 -0.0656282 -0.130804 -0.132842 1.64397 1.92668 4.11872 2.41948 -6.41692 -0.60043 0.214503 0.276745 -0.253752 1.88174 1.76924 4.04755 3.14202 -5.8935 -0.980925 0.187071 0.282235 -0.246039 
26.982 1 241 -0.358014 4.15832 4.2458 1.88981 -2.40974 2.53381 -0.00547665 -0.107824 -0.500722 0 0 0 0 0 0 -0.104842 -0.115403 -0.178036 -0.468671 4.47875 4.1835 1.2138 -2.118 2.3163 0.00213928 -0.116528 -0.519585 0.212263 3.69102 4.17854 2.56588 -2.70268 2.75834 -0.0131239 -0.0990511 -0.481856 
26.982 1 245 3.74374 4.11058 3.89543 7.9889 -0.180549 -1.17762 0.0522119 -0.388767 0.834691 0 0 0 0 0 0 -0.0224662 -0.0523464 -0.0384322 3.92982 3.92243 3.87748 8.12665 -0.122515 -1.18382 0.0512322 -0.40171 0.858972 3.92605 4.15558 3.78188 7.8539 -0.234978 -1.16754 0.0532422 -0.375795 0.810425 
26.982 1 2825 24.3919 20.1947 16.3063 -3.12954 1.86519 2.54529 -0.106828 0.439249 -0.330878 0 0 0 0 0 0 -0.0548817 0.146104 -0.128272 24.9396 20.4236 16.1956 -2.72514 2.24197 2.55624 -0.110707 0.457892 -0.348022 23.7512 19.9684 16.3831 -3.53471 1.49418 2.53381 -0.1029 0.420584 -0.31376 
26.982 1 2819 18.1072 20.1282 18.1405 -2.37092 -1.14048 2.80363 0.68513 0.635794 0.000119256 0 0 0 0 0 0 -0.0990299 0.123362 -0.0897246 17.6387 20.0463 18.4716 -3.02677 -1.34075 3.80967 0.702438 0.643268 -0.00189878 18.621 20.2123 17.7922 -1.71599 -0.937028 1.79583 0.667764 0.628388 0.00207439 
26.982 1 12 7.71164 2.03893 2.03689 0.617619 1.53717 -5.4774 0.154337 -0.2155 -0.271754 0 0 0 0 0 0 -0.0320532 -0.197482 -0.162695 7.60049 1.88156 1.93354 0.155029 1.41297 -5.38003 0.151116 -0.221246 -0.284509 8.09794 2.0345 1.99266 1.07984 1.66119 -5.57222 0.157519 -0.209728 -0.258984 
26.982 1 47 5.83253 3.99591 2.0064 0.824934 2.42743 -3.62084 -0.469635 0.153543 -0.117921 0 0 0 0 0 0 -0.0159062 -0.0562579 -0.146296 5.52074 3.87234 1.70178 0.501763 2.5738 -3.74729 -0.484474 0.16458 -0.120614 6.46538 3.97797 2.16352 1.14929 2.28515 -3.49347 -0.454753 0.142486 -0.115231 
26.982 1 49 7.7991 4.0482 -0.00590362 1.40059 -2.22548 -0.704188 0.271085 0.117945 -0.209366 0 0 0 0 0 0 0.00576817 -0.00844788 -0.275984 7.96405 4.06642 0.127417 1.43142 -2.32956 -0.740262 0.275413 0.116151 -0.221377 7.90869 3.88808 -0.303577 1.36816 -2.11782 -0.665769 0.266749 0.119739 -0.197347 
26.982 1 206 5.70287 2.01264 4.16239 -2.92574 -0.0777686 1.15081 0.0629163 0.50441 -0.825819 0 0 0 0 0 0 -0.0372913 -0.130008 -0.0986283 5.92791 2.2687 4.32083 -2.70375 0.533389 1.70288 0.0515217 0.514444 -0.827893 5.79939 1.59603 3.87209 -3.14594 -0.688584 0.601002 0.074366 0.494392 -0.823799 
26.982 1 209 7.89978 0.113778 4.12674 0.67644 -0.801322 -0.657455 -0.0502019 -0.225615 -0.0675127 0 0 0 0 0 0 0.00869502 -0.198962 -0.18069 8.12609 0.0077047 3.61292 0.85214 -0.626392 -0.932281 -0.0436571 -0.239738 -0.0589255 7.94954 0.0405925 4.50802 0.501987 -0.976284 -0.381128 -0.0567612 -0.211468 -0.0761357 
26.982 1 249 7.66173 4.02854 3.95843 -3.0488 1.78263 2.3197 0.338527 0.187708 0.69374 0 0 0 0 0 0 0.00125095 -0.0189861 -0.0200836 7.98117 3.84931 3.84645 -2.88862 1.56339 2.40051 0.335826 0.204647 0.720097 7.61594 4.06431 3.93878 -3.21127 2.00224 2.23993 0.341176 0.170749 0.667321 
26.982 1 10 9.86719 2.05558 0.0687846 -0.464747 -5.95674 0.792701 -0.189078 -0.159087 -0.199181 0 0 0 0 0 0 -0.029122 -0.131667 -0.198332 10.2703 1.80247 -0.0528059 -0.0440099 -6.54835 0.832921 -0.197311 -0.158672 -0.212735 9.69369 2.14753 0.0257843 -0.884881 -5.36322 0.756398 -0.180877 -0.159441 -0.185618 
26.982 1 16 12.0598 2.1325 2.08769 -0.743845 -1.08882 -3.87106 -0.0793344 -0.15841 -0.195357 0 0 0 0 0 0 0.0310475 -0.180554 -0.0863155 12.5322 2.26629 1.72132 -0.316627 -0.707472 -4.17687 -0.0723745 -0.163263 -0.198634 11.7703 1.83588 2.30485 -1.17108 -1.46911 -3.564 -0.0863073 -0.153541 -0.192094 
26.982 1 51 9.83571 4.07102 2.13138 1.88154 4.87781 5.90192 0.399162 0.254235 -0.608795 0 0 0 0 0 0 0.0142996 0.00194791 -0.148379 9.8684 4.15704 2.01102 1.65583 4.97194 6.10803 0.410741 0.270377 -0.62238 10.0311 3.84222 2.10174 2.10607 4.78587 5.69538 0.387532 0.238092 -0.595245 
26.982 1 53 11.8962 3.99137 -0.0114727 1.74479 -1.05784 3.56231 0.0709805 0.133095 0.493822 0 0 0 0 0 0 -0.0122792 0.00399421 -0.253589 12.2748 3.87821 -0.348615 1.99744 -0.896104 3.22233 0.0729623 0.134709 0.503757 11.7009 3.9615 0.160192 1.49373 -1.21743 3.90362 0.0689616 0.131513 0.483873 
26.982 1 210 9.7308 2.16035 3.85439 -2.29088 -0.966581 0.863664 0.507357 -0.590948 0.891744 0 0 0 0 0 0 0.0492121 -0.155346 -0.0734801 9.9483 2.16414 3.64322 -2.30224 -0.431945 1.17308 0.519663 -0.594849 0.918703 9.74101 1.99372 3.93322 -2.28145 -1.50269 0.555611 0.494977 -0.587056 0.864728 
26.982 1 1197 36.6167 16.3585 20.2485 -0.0345544 6.17664 -4.46229 0.277163 -0.704715 -0.188457 0 0 0 0 0 0 -0.0857743 -0.0931245 0.0302824 36.6335 16.0953 20.1337 0.19927 5.81963 -4.56093 0.287253 -0.731895 -0.197508 36.231 16.5844 20.3631 -0.273915 6.53211 -4.36343 0.267049 -0.677553 -0.179445 
26.982 1 253 12.0049 3.91689 4.15366 -2.83716 0.277622 0.68849 -0.292478 0.206105 0.0301728 0 0 0 0 0 0 -0.00206646 -0.0457248 -0.0246806 12.2458 4.15143 4.56671 -2.77263 0.510495 1.41577 -0.298573 0.212603 0.0415899 11.9461 3.54051 3.60705 -2.90071 0.0469815 -0.036829 -0.286378 0.199623 0.0186749 
26.982 1 20 16.2933 1.97041 1.97172 0.29399 3.5732 2.68283 -0.00217 0.153993 0.447967 0 0 0 0 0 0 -0.0353253 -0.189262 -0.0806594 16.3286 1.48089 1.98121 0.320607 3.31657 3.20024 0.0105173 0.156949 0.451046 16.3503 2.30053 1.81205 0.268456 3.83541 2.1662 -0.0148576 0.15105 0.44492 
26.982 1 55 14.1406 4.05859 2.10553 2.03127 -0.710222 -2.85004 -0.208292 -0.331748 0.179168 0 0 0 0 0 0 -0.0186037 -0.0867649 -0.116989 14.228 3.99323 1.855 2.08787 -0.734884 -2.9177 -0.210397 -0.344471 0.177781 14.191 3.98279 2.20594 1.97644 -0.681262 -2.78199 -0.206176 -0.319007 0.180573 
26.982 1 57 16.0551 4.1149 0.208239 7.25137 0.840614 7.15296 0.385695 -0.160948 -0.73213 0 0 0 0 0 0 -0.0299772 -0.0772315 -0.276472 16.0123 4.20746 -0.295081 7.51478 0.77992 6.66013 0.39153 -0.172712 -0.766419 16.1904 3.88111 0.544667 6.98836 0.905306 7.64749 0.379829 -0.149176 -0.697802 
26.982 1 214 14.184 1.96909 4.03143 -1.16762 7.37929 2.91413 -0.07661 -0.154427 0.124135 0 0 0 0 0 0 -0.00286477 -0.198482 -0.0848321 14.434 2.03242 4.14109 -0.81057 7.87611 3.44677 -0.0767621 -0.16778 0.138383 14.0709 1.74351 3.78666 -1.52405 6.88393 2.3805 -0.0764212 -0.141052 0.109837 
26.982 1 257 16.1852 4.00563 4.14071 3.61648 -0.174877 -0.245243 -0.0942997 0.234502 -0.55994 0 0 0 0 0 0 -0.0108476 -0.049549 -0.0339734 16.3634 4.02557 4.11296 3.74288 0.0882899 -0.0439498 -0.0950456 0.234708 -0.574558 16.1015 3.84449 4.0346 3.49407 -0.432606 -0.446378 -0.0935227 0.234356 -0.545322 
26.982 1 218 18.2014 2.14827 4.15409 -2.9404 2.01432 -0.411689 0.500295 -0.592574 -0.255972 0 0 0 0 0 0 -0.02243 -0.157294 -0.0721927 18.0114 1.79039 4.19029 -3.51082 1.77671 -0.302284 0.517517 -0.616261 -0.262994 18.4387 2.34709 3.98496 -2.36691 2.25776 -0.518831 0.483063 -0.568858 -0.24894 
26.982 1 18 18.4578 1.98301 -0.031516 1.54656 3.41166 0.806133 -0.658773 0.0317839 -0.100558 0 0 0 0 0 0 -0.00730651 -0.125659 -0.212669 18.6599 1.79487 -0.0971626 1.77938 3.44217 0.78804 -0.673818 0.0393359 -0.0985174 18.3024 2.01199 -0.131865 1.31478 3.38635 0.826974 -0.643707 0.024217 -0.10257 
26.982 1 819 18.3723 -0.00456616 18.296 -0.470655 3.7103 5.67111 -0.677503 0.295977 -0.629124 0 0 0 0 0 0 -0.108949 -0.25256 -0.0290004 18.7054 40.2768 18.3055 -0.355534 3.47884 5.65236 -0.695304 0.296476 -0.647147 18.0841 40.832 18.2712 -0.587062 3.94307 5.69382 -0.65968 0.295528 -0.611066 
26.982 1 2813 12.0555 20.1208 16.0599 -2.88491 -0.956798 -0.3742 0.0147484 -0.233118 0.197147 0 0 0 0 0 0 -0.0687278 0.0937329 -0.105054 12.011 20.164 16.1354 -3.02108 -0.902568 -0.323328 0.0108832 -0.251266 0.193771 12.2834 20.0782 15.952 -2.74813 -1.0105 -0.424029 0.0186784 -0.214957 0.200535 
26.982 1 22 22.3052 2.12272 -0.0827648 6.05708 2.5998 -2.40379 0.264711 -0.378927 0.633901 0 0 0 0 0 0 -0.0146616 -0.0690166 -0.248422 22.529 2.07512 -0.534868 6.72837 2.67561 -2.86621 0.269367 -0.385136 0.650493 22.0377 2.01085 0.204248 5.38896 2.52926 -1.93642 0.260084 -0.372733 0.617284 
26.982 1 24 20.2359 1.88953 2.00323 -1.34602 2.49391 3.00993 0.333288 0.660195 0.506363 0 0 0 0 0 0 -0.0405231 -0.141619 -0.108168 20.1372 1.69199 2.14124 -1.54979 2.64117 3.2435 0.333898 0.676837 0.52559 20.3357 1.92853 1.71609 -1.14079 2.35207 2.7801 0.33269 0.643556 0.487147 
26.982 1 59 18.1824 4.00116 2.11385 4.38861 5.31248 -0.45919 0.203008 0.0890155 -0.17956 0 0 0 0 0 0 0.00396041 -0.0466379 -0.0943315 18.3275 3.91426 1.80151 4.60397 5.55539 -0.685777 0.212014 0.088006 -0.182448 18.0844 3.94585 2.27642 4.17502 5.07283 -0.230385 0.19398 0.0900507 -0.176617 
26.982 1 61 20.3046 4.01383 0.0699311 -3.70328 1.71908 3.55534 -0.0548724 0.347052 0.12541 0 0 0 0 0 0 0.0317198 0.0161539 -0.253342 20.3697 3.83716 -0.0489715 -3.337 1.55861 3.64579 -0.0576806 0.350009 0.136987 20.2402 4.04896 0.0233686 -4.06838 1.88248 3.46921 -0.0520313 0.344063 0.113837 
26.982 1 63 22.4391 4.02101 2.12823 3.209 0.733546 -0.126376 -0.43213 0.112867 -0.298888 0 0 0 0 0 0 -0.00124833 0.0309433 -0.142261 22.3479 4.32891 1.68046 3.04392 1.21013 -0.570072 -0.441629 0.122158 -0.312445 22.4864 3.57136 2.42758 3.3767 0.260975 0.321388 -0.422596 0.103561 -0.28534 
26.982 1 222 22.2375 1.978 4.11117 2.0998 -1.83405 -1.51879 0.0908092 0.19726 -0.162128 0 0 0 0 0 0 -0.0238379 -0.0578792 -0.0498861 22.0192 1.66288 3.9319 1.82451 -2.14885 -1.38007 0.07597 0.204093 -0.172123 22.4105 2.13525 4.15738 2.37549 -1.51089 -1.65622 0.105673 0.19044 -0.152125 
26.982 1 261 20.3119 4.0742 4.2091 -0.285431 3.04812 -2.25364 -0.318362 -0.427992 -0.357327 0 0 0 0 0 0 -0.00662531 -0.0225236 -0.0312591 20.1293 4.13345 4.16477 -0.716463 3.12388 -2.41556 -0.320358 -0.435771 -0.370301 20.496 3.87254 4.12043 0.14799 2.97594 -2.09002 -0.316398 -0.420196 -0.344315 
26.982 1 25 24.4916 0.0830803 0.0100973 -3.33274 4.41103 4.67532 -0.312406 -0.0592795 -0.151801 0 0 0 0 0 0 0.043955 -0.146245 -0.194524 24.2348 0.128956 0.0901685 -3.75128 4.593 5.08145 -0.316151 -0.0568524 -0.158982 24.6589 -0.140511 -0.236363 -2.91141 4.23498 4.27156 -0.308659 -0.061698 -0.144641 
26.982 1 635 34.5455 0.158237 14.2823 -2.85015 1.6661 -0.103815 1.05458 -0.479705 -0.314419 0 0 0 0 0 0 0.113388 -0.274192 -0.0578298 34.3429 40.9009 14.3905 -2.81578 1.65096 -0.0886254 1.08517 -0.504097 -0.312323 34.4284 40.5343 14.1235 -2.88337 1.6832 -0.118479 1.02395 -0.455273 -0.316584 
26.982 1 27 26.3606 0.0491548 2.04222 3.37713 -2.65263 -0.326904 0.555681 0.0683816 -0.0335221 0 0 0 0 0 0 0.0858566 -0.204023 -0.122383 26.3744 -0.00668648 1.64015 3.71723 -3.0492 -0.562298 0.559895 0.0717556 -0.028153 26.2097 -0.0713565 2.29288 3.03719 -2.24907 -0.0917465 0.55148 0.0650147 -0.0388894 
26.982 1 28 24.2696 1.95457 2.09986 5.30622 -6.03312 -4.29216 0.336472 0.370565 -0.362824 0 0 0 0 0 0 0.0387507 -0.0611204 -0.138444 23.9682 2.04067 1.85625 5.21743 -5.95702 -4.35681 0.341309 0.387496 -0.376377 24.481 1.70959 2.19422 5.39694 -6.10317 -4.22455 0.33167 0.353652 -0.349284 
26.982 1 65 24.4642 3.93164 0.00510915 3.58427 -1.4527 -2.62687 -0.297188 0.376411 0.267582 0 0 0 0 0 0 0.0421338 0.0394633 -0.265722 24.693 4.01205 -0.131518 3.93122 -1.07604 -2.46675 -0.311444 0.391119 0.279257 24.1455 3.70883 -0.0224184 3.23963 -1.82711 -2.78079 -0.2829 0.361705 0.255892 
26.982 1 67 26.5037 3.98896 2.14219 5.19108 -1.24126 -1.88241 -0.144823 0.317871 -0.346435 0 0 0 0 0 0 0.00468574 0.00197279 -0.18191 27.027 3.85491 1.93606 5.81242 -1.77198 -2.04426 -0.14332 0.321139 -0.361445 25.8428 3.98178 2.19918 4.56849 -0.705796 -1.71725 -0.146314 0.314614 -0.331441 
26.982 1 225 24.5781 0.105109 4.01766 0.933021 -2.93374 1.24441 -0.3482 -0.567288 0.334834 0 0 0 0 0 0 0.026051 -0.196968 -0.0937527 24.641 -0.405003 3.71877 1.29371 -3.81288 1.07548 -0.352371 -0.581456 0.336314 24.4242 0.43908 4.18268 0.573354 -2.04723 1.41294 -0.344013 -0.553113 0.33335 
26.982 1 226 26.5152 2.13059 4.05243 2.04156 -3.82941 -0.0834357 -0.0810242 -0.465915 0.108087 0 0 0 0 0 0 0.0462436 -0.0986873 -0.0490534 26.5453 1.96189 3.9625 2.16499 -4.44966 -0.156892 -0.0756873 -0.476373 0.109753 26.3479 2.14221 4.00869 1.918 -3.20253 -0.00903042 -0.0863735 -0.455439 0.106403 
26.982 1 265 24.4405 4.00883 4.04108 0.505183 -3.55789 0.935611 -0.265006 0.0565778 0.024531 0 0 0 0 0 0 0.00245676 0.0104019 -0.0430314 24.3129 3.77248 3.84329 0.481486 -3.98547 0.596781 -0.273124 0.0642349 0.0158226 24.4777 4.10384 4.10573 0.529458 -3.12515 1.27476 -0.256849 0.0488994 0.033236 
26.982 1 30 30.5118 2.25365 -0.0664584 -3.79494 -2.83566 1.96362 -0.0737046 -0.385496 0.0492303 0 0 0 0 0 0 -0.0359299 -0.136856 -0.243579 30.4508 1.93929 -0.225777 -4.20371 -3.29782 1.8937 -0.0690544 -0.394868 0.0619837 30.3417 2.40794 -0.0724494 -3.38939 -2.3698 2.03682 -0.0784086 -0.376105 0.036467 
26.982 1 32 28.4514 2.06468 2.07766 2.94538 -0.0912419 4.00725 0.275309 -0.0117221 -0.265218 0 0 0 0 0 0 -0.0203782 -0.145799 -0.133616 28.4264 1.75741 2.00768 3.08166 -0.38426 4.05985 0.279 -0.0121207 -0.264883 28.2912 2.21317 1.99793 2.80586 0.208617 3.95697 0.271584 -0.0113193 -0.265558 
26.982 1 69 28.5231 4.15962 0.0098075 3.82824 -1.86043 -0.506477 0.0873061 -0.014123 0.0596071 0 0 0 0 0 0 -0.0772124 -0.00421883 -0.258425 28.5005 4.24278 -0.0611599 3.72954 -1.60857 -0.461882 0.098875 -0.0168081 0.070242 28.3602 3.93348 -0.0850696 3.92333 -2.11045 -0.547764 0.0757201 -0.0113998 0.048949 
26.982 1 71 30.618 4.13249 1.9438 -3.03409 -1.0672 1.24881 -0.0640734 0.133044 0.0520032 0 0 0 0 0 0 -0.0222961 -0.0187895 -0.103804 30.5997 4.11839 1.93861 -3.27619 -0.924707 1.21825 -0.055829 0.137273 0.0601579 30.4053 4.00326 1.80147 -2.79482 -1.20821 1.28376 -0.0723642 0.128869 0.0438336 
26.982 1 230 30.5744 2.13202 3.94797 -0.185623 -2.75742 1.89566 0.210179 -0.209918 0.292333 0 0 0 0 0 0 -0.0315609 -0.107886 -0.0366288 30.3685 1.54703 3.86632 -0.572988 -3.43064 1.81691 0.216947 -0.211466 0.297254 30.5506 2.5577 3.8991 0.199755 -2.07879 1.97918 0.203381 -0.208394 0.287402 
26.982 1 269 28.6406 4.06359 4.07496 -4.98062 -1.87755 -1.18798 -0.224026 0.188966 0.214641 0 0 0 0 0 0 0.000554062 -0.0200579 -0.0182262 28.6747 4.13602 4.04483 -4.98296 -1.47117 -1.01289 -0.213937 0.194804 0.225886 28.4219 3.84993 3.97241 -4.98 -2.27984 -1.36105 -0.234148 0.183158 0.203376 
26.982 1 35 34.6837 -0.0391669 1.91969 1.68267 -5.19225 -2.07192 -0.579826 0.537915 -0.133395 0 0 0 0 0 0 0.0657297 -0.22212 -0.11606 34.5231 0.170915 1.6749 1.52703 -4.84811 -2.18589 -0.590495 0.553579 -0.120622 34.5255 -0.428998 2.01771 1.8393 -5.53298 -1.95224 -0.569162 0.522179 -0.146134 
26.982 1 36 32.5956 2.13646 1.77289 -0.340598 -0.900528 -5.69455 -0.0394474 -0.227646 0.713202 0 0 0 0 0 0 0.00961422 -0.126635 -0.118725 32.5026 2.05045 1.65947 -0.471386 -0.799471 -5.85275 -0.0361661 -0.228198 0.734746 32.4136 2.06341 1.73992 -0.210949 -0.995696 -5.52999 -0.0427484 -0.227111 0.691677 
26.982 1 73 32.6424 4.16357 -0.141719 1.53487 0.839542 3.46978 -0.204193 0.317638 0.352338 0 0 0 0 0 0 0.021119 -0.012218 -0.270664 32.1502 4.13042 -0.140682 1.08221 1.12992 4.03474 -0.1995 0.317218 0.376281 32.8586 4.05457 -0.308425 1.98475 0.552503 2.90845 -0.20892 0.318126 0.328378 
26.982 1 75 34.6833 4.19799 1.96444 3.14237 -4.01058 -5.83421 -0.26742 -0.125061 0.0130001 0 0 0 0 0 0 0.0548028 -0.0478029 -0.134589 35.0062 3.99581 1.80105 4.0254 -4.26296 -6.12913 -0.278511 -0.142087 0.012292 34.0388 4.25547 1.98014 2.2555 -3.75939 -5.53462 -0.256309 -0.108003 0.0137267 
26.982 1 234 34.6685 2.22005 4.01726 2.79164 -1.58472 0.488846 -0.0885591 -0.289349 -0.185341 0 0 0 0 0 0 0.0337434 -0.118149 -0.0597296 34.9455 2.01505 3.93034 3.38472 -1.90992 0.818805 -0.104283 -0.304762 -0.194294 34.0707 2.26278 3.97438 2.19629 -1.25964 0.163778 -0.0728229 -0.273954 -0.176379 
26.982 1 273 32.6348 4.15922 4.12179 0.220218 -1.73584 1.3468 -0.0839339 -0.0713515 -0.44607 0 0 0 0 0 0 0.00200268 -0.0293223 -0.0166209 32.7339 3.75778 4.10686 0.670721 -2.17101 1.47597 -0.0862725 -0.0769332 -0.453414 32.2593 4.416 4.00547 -0.233213 -1.30084 1.2204 -0.081591 -0.0657163 -0.438711 
26.982 1 4 40.6581 2.04076 2.11809 0.73534 -0.976261 8.53699 0.539469 -0.213177 -0.333871 0 0 0 0 0 0 -0.0360017 -0.0674825 -0.205711 40.2006 2.13931 1.89896 0.00517337 -0.692049 8.82305 0.560125 -0.222093 -0.341949 40.6576 1.77818 2.19139 1.46475 -1.26395 8.25553 0.518791 -0.204259 -0.325791 
26.982 1 40 36.6199 2.06711 1.89825 5.20679 -0.410501 4.57539 -0.0852999 0.280384 0.0658014 0 0 0 0 0 0 0.0712356 -0.132657 -0.176684 36.7645 2.45378 1.94447 6.03031 0.281859 4.96784 -0.0987788 0.285117 0.0705303 36.1087 1.51676 1.70636 4.38169 -1.10519 4.18888 -0.0717913 0.275643 0.0611043 
26.982 1 79 38.7111 4.09328 2.15634 -2.62114 3.13219 1.85962 0.301469 0.569225 -0.99082 0 0 0 0 0 0 0.0278646 -0.0293415 -0.262557 38.5177 4.23952 2.10819 -2.78072 3.60128 1.93592 0.310893 0.570043 -1.01689 38.4916 3.80103 2.05702 -2.46297 2.66241 1.78782 0.29204 0.568428 -0.964699 
26.982 1 961 -0.353118 16.1645 16.172 3.30006 -2.37945 -4.14809 0.281736 -0.198511 0.146267 0 0 0 0 0 0 -0.125365 -0.0570525 -0.0922419 40.4558 16.0644 16.1678 3.27976 -2.38673 -4.30232 0.302289 -0.198972 0.157605 40.633 16.2293 16.1414 3.32304 -2.371 -3.99797 0.261127 -0.198098 0.13489 
26.982 1 238 38.6113 2.08494 3.78846 1.67374 -2.55089 4.14435 0.107937 -0.60506 0.887799 0 0 0 0 0 0 -0.0277629 -0.143776 -0.113998 38.4433 2.23565 3.52025 1.81707 -2.18831 4.05965 0.11288 -0.626081 0.909679 38.3673 1.77031 3.92654 1.52949 -2.91455 4.23383 0.102976 -0.584024 0.865925 
26.982 1 277 36.8818 4.24221 4.01998 5.48736 -4.20375 0.0013721 -1.13466 -0.302888 0.241525 0 0 0 0 0 0 -0.0183901 -0.0457802 -0.0564023 36.7538 3.92232 3.86783 5.6763 -4.7128 0.14402 -1.17022 -0.316182 0.242738 36.6422 4.41546 4.04086 5.29555 -3.69711 -0.136529 -1.09908 -0.28955 0.240332 
26.982 1 631 30.6023 0.00576779 14.2403 -5.84833 5.4453 -1.38746 -0.207277 0.260904 -0.266393 0 0 0 0 0 0 -0.0449535 -0.259965 -0.104707 30.7399 41.0474 14.2631 -5.44562 6.35959 -1.45123 -0.216667 0.26044 -0.273845 30.2371 40.0822 14.1669 -6.24978 4.53242 -1.32226 -0.197817 0.261386 -0.258925 
26.982 1 48 3.65817 5.9985 2.08856 -2.01813 -7.13067 4.40513 0.159118 0.462013 -0.345565 0 0 0 0 0 0 -0.0876678 0.0436717 -0.184475 3.30031 5.91571 1.70023 -2.90025 -7.53817 4.23537 0.160375 0.474835 -0.350334 4.38557 5.95696 2.32654 -1.13194 -6.7182 4.57376 0.157898 0.449184 -0.340742 
26.982 1 627 26.2697 -0.177691 14.2212 -3.09747 -0.128692 1.32526 0.663549 0.163442 0.0169677 0 0 0 0 0 0 -0.00457852 -0.253189 -0.137291 25.8564 40.4926 14.3327 -3.60887 -0.114104 1.53064 0.678273 0.171 0.0109303 26.5485 40.2704 14.0594 -2.58069 -0.142521 1.12161 0.64879 0.155874 0.0230317 
26.982 1 83 1.69744 8.0839 2.10531 -2.43364 0.832519 0.335715 -0.13436 0.0747657 -0.215068 0 0 0 0 0 0 -0.142974 -0.0402849 -0.221019 1.36934 8.19954 2.03979 -3.08806 0.984762 0.533227 -0.13447 0.0749623 -0.227478 2.44106 7.86024 2.02094 -1.77454 0.682512 0.139159 -0.134262 0.0745751 -0.202564 
26.982 1 403 1.73414 -0.0857636 10.2801 -4.38205 -1.42155 -0.317995 0.189516 0.533797 0.0677867 0 0 0 0 0 0 -0.132687 -0.170901 -0.01817 1.68305 40.4182 10.0136 -4.48471 -1.33117 -0.888814 0.202035 0.562927 0.063531 2.19767 40.5275 10.4639 -4.28075 -1.51042 0.255343 0.176975 0.504652 0.0720652 
26.982 1 242 1.6647 6.12468 4.07347 -4.4641 5.8401 -1.67055 0.209853 -0.148901 0.0642408 0 0 0 0 0 0 -0.13497 0.0228639 -0.130171 1.35841 6.36906 4.20594 -5.16193 6.46783 -1.86175 0.219957 -0.149822 0.0544808 2.386 5.75482 3.80974 -3.76349 5.2167 -1.47409 0.199745 -0.147932 0.0740486 
26.982 1 285 3.82429 8.17274 4.01962 4.23761 2.27238 -1.06263 -0.148418 -0.380414 -0.00248821 0 0 0 0 0 0 -0.0419264 -0.0133876 -0.0723254 3.20735 8.2877 3.74396 3.30717 2.44853 -1.38766 -0.152498 -0.393576 -0.0143218 4.81107 7.94956 4.16346 5.17191 2.09993 -0.73463 -0.144322 -0.367219 0.00942111 
26.982 1 46 5.72279 6.04382 0.0738543 -0.0583884 -5.61979 3.99622 0.671492 -0.0891281 -0.0380326 0 0 0 0 0 0 -0.0119556 0.0646436 -0.271572 5.64935 5.92626 0.467558 -0.335402 -5.96895 4.83089 0.676663 -0.0857221 -0.0434021 6.11732 6.03779 -0.484925 0.21897 -5.26603 3.16315 0.666382 -0.0925941 -0.0326401 
26.982 1 52 7.87547 5.93158 1.99996 0.649245 2.53854 -2.82696 -0.105077 0.711289 0.00872332 0 0 0 0 0 0 0.0415007 0.0639461 -0.177806 8.07591 5.94589 2.44927 0.589346 2.59772 -2.08582 -0.0994214 0.739553 0.00579447 7.94925 5.79368 1.40132 0.706565 2.4832 -3.56873 -0.110748 0.682996 0.0116466 
26.982 1 87 5.82931 8.15699 2.12185 -0.757387 -4.67717 0.63764 -0.302634 -0.254129 -0.38303 0 0 0 0 0 0 -0.00962367 -0.0158562 -0.198018 5.71192 8.21486 2.16313 -0.989935 -4.82386 0.929171 -0.309264 -0.271109 -0.407611 6.26887 7.9907 1.93082 -0.523948 -4.52875 0.346328 -0.295975 -0.237124 -0.358392 
26.982 1 603 1.68196 0.0828596 14.0617 6.33279 4.34615 3.90593 0.234529 0.20288 0.267552 0 0 0 0 0 0 -0.0798865 -0.186859 -0.036504 1.87389 40.6499 13.894 6.39771 4.33492 4.04746 0.236016 0.207572 0.276884 1.90012 40.6335 14.1802 6.26566 4.36096 3.76692 0.233098 0.198186 0.258205 
26.982 1 246 5.8883 6.16072 3.98495 1.29226 -2.58655 -1.64198 -0.326266 -0.398031 0.342513 0 0 0 0 0 0 0.00133422 -0.00789453 -0.0355441 6.13337 6.11595 3.48011 1.59377 -3.30347 -2.13324 -0.324644 -0.411625 0.348409 5.96528 6.08112 4.35722 0.991232 -1.86522 -1.15022 -0.327888 -0.38442 0.336629 
26.982 1 289 7.89691 8.07555 4.03682 -2.17657 -2.73575 0.701067 0.211153 0.016113 0.0607505 0 0 0 0 0 0 0.0188763 -0.0172405 -0.0533107 8.2698 7.77348 3.87347 -1.81855 -3.25612 0.793877 0.223797 0.00388333 0.0578201 7.79881 8.2703 4.06795 -2.53721 -2.21204 0.609786 0.198455 0.028393 0.0636902 
26.982 1 92 7.74126 10.1165 2.07926 0.793561 3.34479 1.78163 0.586808 0.210089 0.0878486 0 0 0 0 0 0 0.00731335 -0.0394349 -0.159771 7.73758 9.75494 1.70073 0.874735 3.32668 1.48807 0.597088 0.206301 0.0771123 8.02016 10.3871 2.30938 0.710278 3.36489 2.07675 0.57649 0.213942 0.0986158 
26.982 1 286 5.94947 10.1342 4.1423 0.617842 0.899734 -0.00607402 -0.437873 -0.113235 -0.311969 0 0 0 0 0 0 -0.0108386 -0.000340485 -0.051648 5.91908 9.93699 4.10114 0.634003 0.746814 0.0610866 -0.440118 -0.113361 -0.325581 6.30349 10.2406 4.05293 0.604166 1.05305 -0.0705853 -0.435642 -0.113071 -0.298315 
26.982 1 1021 20.1934 0.0541592 20.1682 3.7322 0.722026 -4.74357 0.832544 -0.118878 0.424043 0 0 0 0 0 0 0.000696182 -0.253606 0.0170536 20.3733 40.6316 20.0366 4.26422 0.670069 -5.17538 0.849806 -0.123542 0.435335 20.013 40.5957 20.2997 3.20044 0.776668 -4.31038 0.815292 -0.11421 0.41274 
26.982 1 56 12.0261 5.94541 2.29576 2.52662 -0.935046 0.94568 -0.303435 0.362802 -0.766025 0 0 0 0 0 0 -0.0423744 0.0383459 -0.167005 12.1307 5.85285 2.44109 2.57922 -0.559313 1.39585 -0.308322 0.386176 -0.783391 12.1051 5.91552 1.99995 2.47769 -1.30666 0.494579 -0.298541 0.339452 -0.748703 
26.982 1 91 9.92234 8.19971 2.10927 0.933158 0.578307 -5.03065 0.0619985 -0.262446 0.108636 0 0 0 0 0 0 0.00155843 -0.0592008 -0.185392 10.1778 8.48842 2.12524 1.26767 1.34222 -4.97691 0.0658038 -0.28137 0.113217 9.89606 7.80506 1.94512 0.598463 -0.179463 -5.08281 0.0581723 -0.243522 0.104054 
26.982 1 250 9.93286 6.06209 4.07271 -5.38648 -0.0543332 4.37424 -0.106246 -0.012309 0.203765 0 0 0 0 0 0 0.0031626 0.0139305 -0.0343968 10.1937 5.95382 4.64354 -5.45396 0.0613916 5.86188 -0.104392 0.00129737 0.213494 9.90007 6.04808 3.36835 -5.32066 -0.164373 2.88693 -0.108145 -0.0258888 0.193988 
26.982 1 293 11.9444 8.16519 4.12173 -5.5352 -4.55555 0.976515 0.280427 -0.287319 -0.546652 0 0 0 0 0 0 -0.00972263 -0.0255895 -0.0497669 12.0791 7.72961 4.46272 -5.97674 -5.35229 1.85574 0.280308 -0.307156 -0.560606 11.9931 8.49487 3.64796 -5.09079 -3.75502 0.0992247 0.280581 -0.267448 -0.53271 
26.982 1 54 13.9017 5.9456 0.142581 -2.45574 -1.14832 0.524527 0.329947 0.299168 -0.216646 0 0 0 0 0 0 -0.0658137 0.0269581 -0.267274 13.7357 6.21384 0.0793236 -2.80177 -0.909353 0.350717 0.333175 0.312822 -0.219491 14.2051 5.55493 0.0389268 -2.1087 -1.38344 0.698597 0.326673 0.285543 -0.213789 
26.982 1 60 16.0984 6.13443 2.02148 -2.17485 3.06498 1.87923 -0.167212 -0.220233 -0.0104485 0 0 0 0 0 0 -0.0167675 -0.00850865 -0.103548 16.3853 6.5134 1.37704 -1.57279 3.49843 1.20937 -0.169425 -0.221393 -0.02391 15.9027 5.63132 2.51616 -2.77734 2.63494 2.55174 -0.165017 -0.219068 0.00307294 
26.982 1 95 14.0273 8.20916 1.99662 -6.72039 1.6823 -1.47991 -0.13236 -0.54699 -0.126908 0 0 0 0 0 0 -0.0588357 -0.0312103 -0.137648 14.3091 8.31316 1.25896 -6.57279 1.8529 -2.38312 -0.13873 -0.566312 -0.139199 13.8819 7.99909 2.58561 -6.86575 1.51506 -0.573453 -0.125991 -0.527669 -0.114593 
26.982 1 97 16.1102 7.98975 -0.245109 0.525228 2.16366 2.2357 -0.360342 0.322826 0.646133 0 0 0 0 0 0 -0.0314383 -0.00808502 -0.280219 15.9191 8.34513 0.0952913 0.338141 2.77802 2.95573 -0.368486 0.329485 0.662452 16.3918 7.52649 -0.751665 0.710716 1.54993 1.51786 -0.352247 0.316168 0.629861 
26.982 1 254 14.0401 6.01024 4.04847 -0.719173 0.821022 -4.43823 -0.00912019 0.426056 0.212453 0 0 0 0 0 0 -0.0205865 0.00746321 -0.0172834 14.0599 5.78103 4.09314 -1.02251 0.767788 -4.2949 -0.0179176 0.443404 0.216813 14.1585 6.11782 3.87005 -0.41227 0.88108 -4.58191 -0.000254065 0.408749 0.208078 
26.982 1 297 16.0027 7.95604 3.99909 1.26753 2.48634 -4.37312 0.100876 0.437777 0.207654 0 0 0 0 0 0 -0.00340533 0.0155599 -0.00743477 16.1965 7.77116 3.42155 1.45788 2.22822 -4.97719 0.102898 0.453245 0.205695 15.8997 8.03465 4.44485 1.07773 2.74835 -3.765 0.0988309 0.422275 0.209641 
26.982 1 58 18.1996 6.08488 0.109498 -2.26933 0.443583 2.43958 0.137498 -0.0904685 -0.103834 0 0 0 0 0 0 0.0256357 -0.0179609 -0.268501 17.6245 6.40387 0.365263 -2.97844 1.16365 2.79025 0.144653 -0.0977105 -0.106517 18.8197 5.64218 -0.31305 -1.56169 -0.271874 2.09268 0.130332 -0.083235 -0.101107 
26.982 1 2639 38.737 20.3682 14.2405 1.77541 2.6147 -3.23279 -0.115004 -0.32878 -0.0431493 0 0 0 0 0 0 0.017746 0.0450273 -0.145927 38.6416 21.0517 14.0784 1.96552 3.4336 -3.64979 -0.11565 -0.347606 -0.040238 38.4224 19.6843 14.3537 1.58882 1.79613 -2.81542 -0.114407 -0.309963 -0.0461265 
26.982 1 64 20.2165 5.98232 2.1217 2.42799 -2.16487 -6.62681 0.186003 0.148384 -0.0215567 0 0 0 0 0 0 0.0471674 0.0028788 -0.112971 19.8258 6.17002 1.57202 2.13212 -2.02372 -7.33725 0.19415 0.141071 -0.0188805 20.6086 5.66843 2.52336 2.726 -2.30666 -5.91079 0.177833 0.155668 -0.0241945 
26.982 1 99 18.0582 8.00965 2.07992 1.52668 -0.0816033 -2.24849 0.429632 0.325062 -0.227829 0 0 0 0 0 0 0.0269442 0.0153804 -0.0987207 17.9294 8.40209 1.41899 1.27332 0.515125 -3.32815 0.438269 0.341612 -0.24249 18.2324 7.50934 2.59251 1.77903 -0.677272 -1.16436 0.420934 0.308464 -0.213122 
26.982 1 103 22.2188 8.04848 2.10736 1.26611 3.11212 -3.65975 0.208315 -0.287474 0.0761018 0 0 0 0 0 0 0.0171108 -0.0107123 -0.153607 21.5804 8.07408 2.51263 0.731941 3.45242 -3.20336 0.203845 -0.302109 0.0837142 22.8131 7.9132 1.55497 1.80215 2.77096 -4.1095 0.212819 -0.272879 0.0684973 
26.982 1 258 18.121 6.05497 4.08627 3.28724 2.09277 -1.35212 0.197431 -0.138105 -0.0298317 0 0 0 0 0 0 0.0122558 -0.00521893 -0.00932053 18.2326 6.06707 3.88726 3.30573 2.26979 -1.23951 0.204946 -0.141924 -0.0298043 18.0567 5.91764 4.15327 3.27078 1.91778 -1.46093 0.189862 -0.134297 -0.0298007 
26.982 1 262 22.2592 5.96315 4.19816 -0.784237 -1.16163 -1.66451 0.207974 0.509991 -0.282286 0 0 0 0 0 0 0.00691665 0.0256182 -0.043172 21.5002 6.13622 4.12937 -1.58104 -0.795056 -1.85052 0.20936 0.530425 -0.296548 22.9737 5.66442 4.1352 0.0142166 -1.528 -1.47459 0.206588 0.48954 -0.268022 
26.982 1 301 20.2098 8.1292 4.16347 -0.0306606 0.58789 -1.62579 0.109269 -0.300053 -0.348768 0 0 0 0 0 0 0.0166129 -0.0079935 -0.0310541 19.7232 7.80633 4.09586 -0.517111 0.122414 -1.72802 0.116765 -0.308062 -0.362277 20.6969 8.34388 4.10021 0.455879 1.05276 -1.51826 0.101731 -0.29212 -0.335228 