ITEM: TIMESTEP
10275
ITEM: NUMBER OF ATOMS
4000
ITEM: BOX BOUNDS pp pp pp
-2.16251 42.6625
0.58198 39.918
0.604528 39.8955
ITEM: ATOMS mass type id x y z vx vy vz fx fy fz xrad yrad zrad vxrad vyrad vzrad fxrad fyrad fzrad xub yub zub vxub vyub vzub fxub fyub fzub xlb ylb zlb vxlb vylb vzlb fxlb fylb fzlb 
26.982 1 43 0.0590944 4.58246 2.54961 2.25059 -4.03792 0.190213 -0.219015 -0.250024 0.802473 0 0 0 0 0 0 -0.0682539 -0.0539729 -0.21602 -11.4564 -0.527675 9.93787 0.984534 -3.33987 1.43128 -0.226797 -0.254334 0.813914 15.3941 8.73923 -5.97384 3.51973 -4.71522 -1.03124 -0.211251 -0.245749 0.791067 
26.982 1 202 -0.00493451 2.52114 4.60375 5.51203 -1.92936 2.9661 0.0830467 0.177752 -0.0746681 0 0 0 0 0 0 -0.0667115 -0.0826569 -0.12293 1.0471 -6.54523 6.8683 5.96821 -3.45755 2.85022 0.0827842 0.180335 -0.0921042 2.76469 10.5115 1.41234 5.05812 -0.368585 3.11281 0.0832618 0.175221 -0.0571815 
26.982 1 4 -2.17004 2.54623 2.5692 0.428439 4.83153 -0.937888 -0.0178392 -0.0834624 -0.245636 0 0 0 0 0 0 -0.145255 -0.0574234 -0.136726 30.3976 0.889175 5.17265 -0.984317 5.03602 -0.725286 -0.0176575 -0.0831198 -0.250014 50.7673 3.12123 -1.09253 1.84193 4.65437 -1.11211 -0.0180722 -0.083805 -0.241243 
26.982 1 8 2.24752 2.6689 2.79225 -0.965786 5.06518 -2.55428 0.445508 0.0333218 -0.230381 0 0 0 0 0 0 0.0259313 -0.1003 -0.166522 -2.18556 12.1212 1.65236 -1.54086 7.13367 -2.40024 0.450444 0.03497 -0.239107 10.0668 -7.86017 2.82985 -0.386707 3.01886 -2.68128 0.440605 0.0316979 -0.221678 
26.982 1 961 -2.17532 16.4618 16.4301 1.3128 1.40123 1.9986 0.0578272 -0.410578 0.0523954 0 0 0 0 0 0 -0.119785 -0.0668396 -0.0796833 31.2841 16.8292 27.2137 -0.35957 1.72448 4.87 0.0649384 -0.420312 0.0431312 49.8948 15.9141 5.46484 2.99445 1.09 -0.847991 0.0507284 -0.40085 0.0616389 
26.982 1 241 42.6033 4.4138 4.505 -2.89188 -2.77283 1.31418 0.371387 0.420326 -0.0288414 0 0 0 0 0 0 0.0102965 -0.0428864 -0.0971668 -6.12399 7.81391 -2.07496 -3.07259 -1.98904 -0.331709 0.37632 0.438139 -0.0380525 5.86227 0.0847929 10.1593 -2.71369 -3.52639 2.98884 0.366483 0.402474 -0.0195776 
26.982 1 805 2.16845 0.38644 16.3563 0.365377 3.28617 2.95878 0.066497 0.673894 -0.398656 0 0 0 0 0 0 0.0130087 -0.158974 -0.139431 5.56437 -5.76807 12.2847 0.313491 2.21819 2.07306 0.0678326 0.700016 -0.389587 2.13438 5.3952 20.3238 0.427434 4.38698 3.87867 0.0651578 0.647763 -0.40778 
26.982 1 3 0.162945 0.793523 2.527 -0.098162 1.72099 1.33243 -0.178814 -1.07735 0.384162 0 0 0 0 0 0 -0.0515469 -0.158562 -0.115667 -1.62905 6.68101 10.8252 -0.730099 2.7399 3.14572 -0.177306 -1.10321 0.394614 5.74859 -6.36789 -6.88029 0.536195 0.717639 -0.460487 -0.180336 -1.05151 0.373739 
26.982 1 3025 24.6966 20.1422 20.2093 1.34465 -0.14313 6.66091 0.213967 0.104378 -0.105342 0 0 0 0 0 0 -0.0679348 -0.00593109 -0.101964 30.3984 15.5053 41.4492 1.24582 -1.72198 11.6118 0.207151 0.111177 -0.0987964 18.1573 25.012 -0.978768 1.44222 1.47546 1.71985 0.220867 0.0976331 -0.111897 
26.982 1 2821 20.3337 20.385 16.1601 1.9242 -5.23726 -1.84032 -0.159612 -0.441039 0.449212 0 0 0 0 0 0 -0.0627828 0.055903 -0.116849 12.495 39.3662 13.1035 0.626862 -1.68189 -2.1011 -0.160589 -0.447348 0.47322 28.2076 1.50077 19.0438 3.23592 -8.77352 -1.55023 -0.158639 -0.434683 0.425173 
26.982 1 245 2.3076 4.52715 4.82298 0.719206 4.77987 -4.33093 0.199192 0.0362894 -0.609007 0 0 0 0 0 0 -0.00679378 -0.0533692 -0.0928928 1.60721 6.01278 4.88013 0.216486 5.8539 -4.39567 0.20827 0.0299749 -0.634319 6.41176 2.1222 3.79719 1.22868 3.72996 -4.24022 0.190123 0.042598 -0.583675 
26.982 1 47 4.61033 4.44673 2.68511 -0.785816 3.22421 0.251932 -0.398671 -0.0123804 -0.0573788 0 0 0 0 0 0 -0.0471053 -0.0591011 -0.208879 0.69438 11.5037 0.396174 -1.84291 5.17439 -0.59399 -0.412524 0.00261198 -0.0651402 11.4485 -3.46985 3.87886 0.277055 1.3141 1.12665 -0.384786 -0.0273578 -0.0496476 
26.982 1 206 4.57946 2.49525 4.79561 2.22312 4.53272 -3.39766 -0.114132 0.119364 -0.0148024 0 0 0 0 0 0 0.00113196 -0.159185 -0.131386 8.85513 -4.33964 13.5072 2.32218 2.74837 -1.85999 -0.121164 0.126778 -0.0205849 3.22656 8.27171 -4.81686 2.12982 6.3462 -4.89502 -0.107073 0.112006 -0.00902805 
26.982 1 12 6.80305 2.48911 2.51419 -1.51709 1.11479 -1.5911 -0.0424906 0.342324 0.567066 0 0 0 0 0 0 -0.00638463 -0.222004 -0.15623 8.037 3.94557 -2.17507 -1.40871 1.80889 -2.64624 -0.0416566 0.350812 0.577442 8.0268 -0.00436653 6.13515 -1.62868 0.456343 -0.498295 -0.0433677 0.333906 0.55671 
26.982 1 2809 6.84762 20.121 16.2949 2.37859 4.35215 1.67377 -0.0780498 0.305793 -0.0413468 0 0 0 0 0 0 -0.00548104 0.134313 -0.0854497 0.559902 39.2007 29.7546 1.08544 8.14365 4.43856 -0.0778145 0.317033 -0.0492344 15.6364 1.06691 2.59476 3.66687 0.568156 -1.07957 -0.078249 0.294532 -0.0334367 
26.982 1 1000 38.2779 18.2589 18.4037 -2.3635 0.705537 0.289306 -0.137633 -0.11339 -0.101417 0 0 0 0 0 0 -0.00600995 0.108753 0.00751682 30.5087 19.818 20.9483 -3.51229 1.95667 1.18963 -0.141694 -0.100754 -0.106167 42.7177 16.6258 15.8616 -1.21066 -0.528985 -0.575026 -0.133562 -0.125981 -0.0966874 
26.982 1 49 6.50307 4.40186 0.632034 1.62992 -2.48891 -2.78938 0.472281 0.354041 -0.137525 0 0 0 0 0 0 -0.0483677 -0.0571305 -0.263474 12.9597 -3.65012 -9.42395 2.38743 -3.65386 -5.20651 0.478675 0.362278 -0.145812 2.49697 11.5353 9.50435 0.866071 -1.29465 -0.329578 0.465861 0.345827 -0.129223 
26.982 1 249 6.71747 4.55116 4.47858 -1.95604 3.40162 0.614391 0.411861 0.0428066 0.03996 0 0 0 0 0 0 -0.0043326 -0.0705241 -0.0722954 8.62482 -4.22399 8.16558 -2.31549 2.73688 2.25621 0.418382 0.0356908 0.0436084 7.25903 12.4417 -0.17343 -1.60004 4.09775 -0.996202 0.405323 0.0499131 0.0363175 
26.982 1 998 40.5172 18.3035 16.3737 -1.93676 0.57699 -0.440378 -0.161603 0.32803 0.380065 0 0 0 0 0 0 0.0553844 0.0271226 -0.0929479 32.2505 31.6505 20.6014 -3.07401 2.91484 1.67048 -0.161621 0.349572 0.380583 45.1035 4.84303 11.9499 -0.787786 -1.75572 -2.53107 -0.161526 0.306455 0.379527 
26.982 1 51 8.90059 4.55967 2.48331 1.78586 2.23546 4.1996 0.115264 0.314411 0.304827 0 0 0 0 0 0 -0.0151146 -0.115995 -0.14688 -1.54758 9.07283 -9.74343 0.720425 3.74544 2.16084 0.115487 0.307089 0.319922 21.3814 -0.822797 13.6285 2.84207 0.760828 6.27052 0.114994 0.321762 0.289758 
26.982 1 210 9.05037 2.69592 4.44149 0.636926 -2.72588 4.07817 -0.081161 -0.206639 0.301576 0 0 0 0 0 0 -0.00693278 -0.189403 -0.106188 5.26933 2.7917 5.92162 0.0432237 -2.94165 4.90213 -0.0782331 -0.215271 0.309017 14.8653 1.52785 1.93444 1.22205 -2.48686 3.27672 -0.084159 -0.197987 0.294144 
26.982 1 2807 4.43131 20.2447 18.3114 -2.6391 -1.20421 -1.61539 0.102626 -0.212936 -0.177194 0 0 0 0 0 0 -0.061321 0.048945 -0.0342599 5.31658 37.3102 16.6095 -3.23617 0.895666 -1.21273 0.105462 -0.217025 -0.180749 6.42409 3.28959 19.9934 -2.04718 -3.28754 -1.99712 0.0997249 -0.208899 -0.17365 
26.982 1 16 11.1665 2.53387 2.50261 5.96165 1.40169 -1.99401 0.104066 0.0599148 -0.150909 0 0 0 0 0 0 -0.0424462 -0.224678 -0.13814 12.7155 9.54385 -6.60455 6.20863 3.40926 -2.1541 0.102743 0.0418221 -0.148689 11.3202 -5.51256 10.4673 5.72071 -0.577174 -1.81236 0.105382 0.0780351 -0.15311 
26.982 1 253 11.307 4.38538 4.60565 -2.7347 3.39889 1.58807 -0.0568416 0.357774 -0.343958 0 0 0 0 0 0 -0.00911689 -0.0583587 -0.0471416 10.9074 0.695571 21.6748 -2.94303 3.34922 4.42398 -0.0655976 0.367394 -0.340675 13.3966 7.23929 -13.4403 -2.52303 3.48978 -1.21701 -0.0481163 0.348214 -0.347282 
26.982 1 55 13.4105 4.49204 2.41458 -3.78347 2.07574 1.98706 0.0405209 -0.045009 0.220694 0 0 0 0 0 0 0.0145133 -0.0209192 -0.174028 14.4752 3.5522 5.52391 -3.68584 1.78837 3.3539 0.0388423 -0.0457231 0.225784 13.6281 4.56635 -1.75674 -3.87287 2.39686 0.660592 0.0421987 -0.0442646 0.215608 
26.982 1 214 13.4935 2.52892 4.31688 2.39154 -6.60633 3.67051 0.105558 0.0335007 0.389092 0 0 0 0 0 0 -0.0475896 -0.152997 -0.0944925 21.6159 2.92787 8.6769 3.53419 -6.46559 3.58798 0.10448 0.0241244 0.402238 6.65062 1.10719 -1.06443 1.25579 -6.71711 3.77424 0.106665 0.042875 0.375943 
26.982 1 14 13.4639 2.60537 0.583598 3.77754 -1.38433 0.752932 -0.00910442 -0.539264 -0.312333 0 0 0 0 0 0 -0.0334258 -0.0988792 -0.211864 11.444 11.5455 32.4654 3.59338 1.17661 1.02312 -0.0176283 -0.55929 -0.310749 16.7682 -7.40922 48.7766 3.96984 -3.92438 0.516393 -0.000537725 -0.519254 -0.313876 
26.982 1 217 15.7155 0.589693 4.63417 2.90332 0.391044 -2.96592 0.0102923 -0.118945 -0.532211 0 0 0 0 0 0 -0.0621995 -0.180777 -0.148161 24.225 36.1856 11.1099 4.12831 0.659248 -2.62478 0.00665577 -0.131172 -0.548962 8.00215 45.1064 -2.83477 1.67264 0.147933 -3.28701 0.0139288 -0.106741 -0.515499 
26.982 1 999 40.4112 16.297 18.3817 0.157327 2.29591 0.638014 -0.0200435 -0.0157666 -0.237427 0 0 0 0 0 0 0.048609 -0.00190937 -0.0599753 29.7925 20.3628 25.1019 -0.891859 2.98735 1.69605 -0.026346 -0.00813632 -0.242137 47.3046 12.0695 11.5967 1.21172 1.62409 -0.393946 -0.0136779 -0.023384 -0.232772 
26.982 1 257 16.0277 4.28274 4.43149 3.84615 -0.535848 0.140084 -0.947852 0.600772 -0.394161 0 0 0 0 0 0 -0.0223909 -0.00165949 -0.0614122 21.0495 -8.05659 6.76865 4.91618 -2.48916 0.304295 -0.951352 0.621906 -0.39841 11.8468 15.7181 1.09422 2.77456 1.45272 0.00367791 -0.944339 0.579671 -0.389953 
26.982 1 20 15.6691 2.48663 2.40926 -0.685663 -0.653276 -0.496989 0.255954 -0.100345 0.297316 0 0 0 0 0 0 -0.0514377 -0.0776533 -0.135596 22.0694 -9.436 7.08059 0.678161 -2.36063 -0.439424 0.259861 -0.104394 0.315912 10.0838 13.4216 -3.35531 -2.05282 1.08216 -0.520832 0.252068 -0.0962762 0.278734 
26.982 1 218 17.9062 2.44354 4.34471 1.2738 2.93177 -0.00762357 0.535279 0.168245 0.306984 0 0 0 0 0 0 0.0114957 -0.0715901 -0.052174 13.002 -2.20382 3.82772 0.613577 2.45416 -0.900867 0.548288 0.169209 0.321888 23.1956 6.11731 3.87905 1.92703 3.4435 0.915614 0.522244 0.167286 0.292061 
26.982 1 59 18.0751 4.45477 2.16245 1.28166 -4.16034 -1.52015 -0.186283 -0.091273 0.971301 0 0 0 0 0 0 -0.0270111 -0.0164905 -0.145414 25.5496 -2.97311 6.13518 2.25919 -5.66855 -0.592303 -0.180716 -0.0905794 0.993906 10.9834 11.001 -2.87376 0.29164 -2.6255 -2.4132 -0.19187 -0.0919696 0.948676 
26.982 1 18 18.0766 2.33728 0.623031 -2.05534 -3.69548 -1.87542 -0.042367 -0.106329 -0.220151 0 0 0 0 0 0 0.0254013 -0.0802886 -0.251073 24.4156 -0.297921 5.05804 -0.917422 -3.19079 -1.78653 -0.0392001 -0.10167 -0.226546 12.1107 3.97564 -5.01151 -3.2041 -4.1677 -1.92684 -0.0455514 -0.110935 -0.213803 
26.982 1 24 20.2751 2.41648 2.64166 -1.18009 0.888713 2.08453 0.0810667 0.33042 -0.357095 0 0 0 0 0 0 0.0927366 -0.135348 -0.172431 16.0175 2.79794 8.39414 -2.09138 2.08442 3.06421 0.0929784 0.350218 -0.365517 24.4984 1.05455 -4.2136 -0.272553 -0.273544 1.13385 0.0691113 0.310666 -0.34872 
26.982 1 261 20.095 4.45835 4.37692 -0.796054 -1.07929 -0.0237246 0.225702 -0.203701 -0.0120983 0 0 0 0 0 0 0.0147108 -0.0152261 -0.0387579 18.0017 3.6108 6.79852 -0.611261 -1.3797 -1.46701 0.230477 -0.196289 -0.00170348 22.1521 4.41502 0.977959 -0.985445 -0.754978 1.45155 0.22087 -0.211098 -0.0225028 
26.982 1 63 22.5535 4.29352 2.51888 -6.98469 -4.51798 1.70523 -0.184698 0.13027 0.120339 0 0 0 0 0 0 0.0172253 -0.0875198 -0.15322 28.2624 11.1849 3.86739 -7.02849 -2.82339 2.95219 -0.192675 0.146276 0.129507 16.4262 -3.48863 0.108053 -6.93374 -6.19265 0.490883 -0.176738 0.114282 0.111167 
26.982 1 222 22.5912 2.4771 4.65776 6.01852 -1.82309 -0.545727 -0.0516432 -0.287418 -0.533334 0 0 0 0 0 0 0.0494767 -0.141256 -0.128251 20.553 5.61173 7.34361 5.53321 -0.423902 -0.314957 -0.0495723 -0.28671 -0.558731 24.201 -1.66599 1.00791 6.50463 -3.20092 -0.74463 -0.0536816 -0.288129 -0.507978 
26.982 1 28 24.8033 2.54564 2.34887 3.77885 -0.349679 -1.65381 -0.181155 -0.787545 0.417484 0 0 0 0 0 0 0.0015904 -0.226176 -0.159139 26.4212 7.81692 9.04395 4.08432 -0.031269 -0.641737 -0.189758 -0.818716 0.434057 22.4084 -3.72816 -5.48705 3.48226 -0.632629 -2.65427 -0.172531 -0.756394 0.400966 
26.982 1 997 38.303 16.2578 16.4179 -2.47279 -0.201966 1.57733 -0.340803 0.12649 0.057362 0 0 0 0 0 0 -0.00196389 0.0139571 -0.00493241 35.5187 14.6539 15.3061 -2.90292 0.668883 1.90881 -0.352133 0.13973 0.0624914 37.8241 17.6391 17.3697 -2.02831 -1.05848 1.26834 -0.329408 0.113291 0.0521998 
26.982 1 265 24.7765 4.344 4.4382 2.70404 -1.19067 2.25112 -0.421314 0.184565 0.116257 0 0 0 0 0 0 -0.00524556 -0.0462561 -0.0525331 27.4145 -10.9823 4.71029 2.49669 -3.61337 1.98592 -0.436702 0.203619 0.126858 21.3362 18.7478 3.16283 2.91806 1.25896 2.53905 -0.405877 0.165484 0.105689 
26.982 1 67 26.7579 4.52792 2.42692 1.07965 3.98599 -0.814076 0.74975 -0.445457 0.024453 0 0 0 0 0 0 0.0430258 -0.0407686 -0.215447 27.3439 -1.61813 6.31355 1.21997 3.65631 -0.569241 0.768965 -0.450955 0.0304511 24.9859 9.72971 -2.56076 0.945653 4.3382 -1.03493 0.730524 -0.439978 0.018508 
26.982 1 226 26.9138 2.64916 4.5509 0.846727 -0.302591 -0.487057 0.0581107 -0.868121 -0.470943 0 0 0 0 0 0 -0.0392014 -0.164688 -0.131985 25.8069 -1.57512 9.08507 1.07428 -2.13522 0.34595 0.0577423 -0.900724 -0.493499 26.8495 5.92943 -1.0167 0.62512 1.57744 -1.30866 0.0584922 -0.835605 -0.448327 
26.982 1 2803 0.10008 20.3254 18.0779 -5.02518 4.24773 3.35928 -0.120741 0.209828 0.754965 0 0 0 0 0 0 -0.103482 0.0636624 -0.0954424 9.48211 16.272 21.9327 -4.08051 4.05244 3.23467 -0.120279 0.211427 0.781377 -5.5124 24.403 14.2048 -5.96524 4.44967 3.50645 -0.121209 0.208219 0.728573 
26.982 1 32 29.1738 2.64102 2.53172 1.92062 -5.64004 -1.03113 0.0733243 0.0724498 -0.0245714 0 0 0 0 0 0 -0.0445194 -0.0813427 -0.201478 19.2678 5.93932 10.6387 0.559357 -5.48798 0.907769 0.0784874 0.0702132 -0.026327 37.4487 -1.63746 -6.68505 3.28826 -5.75426 -2.9512 0.0681106 0.0746445 -0.0227318 
26.982 1 269 28.9906 4.44302 4.67726 -4.34342 0.973583 -2.63517 0.856398 0.251716 -0.523142 0 0 0 0 0 0 0.00795381 -0.011886 -0.0783813 26.2641 12.0739 16.7021 -4.22376 1.47649 -1.06563 0.878065 0.263401 -0.546907 30.1246 -4.10929 -8.28956 -4.45168 0.494139 -4.16822 0.834698 0.240005 -0.499349 
26.982 1 71 31.411 4.61218 2.70295 6.26246 4.96067 3.56475 0.277368 -0.741455 -0.0302329 0 0 0 0 0 0 -0.0266435 -0.0630673 -0.17451 30.3918 9.51474 1.06903 6.18872 6.10017 3.30694 0.278903 -0.761977 -0.0325933 30.3256 -1.23657 3.30521 6.33635 3.84469 3.86026 0.275854 -0.720881 -0.0278934 
26.982 1 230 31.3304 2.46725 4.70691 -1.20317 -3.03274 1.76211 0.313299 0.0357356 -0.549267 0 0 0 0 0 0 0.000606561 -0.0613686 -0.0983422 21.6408 -4.54033 4.65426 -2.32674 -3.43707 1.03936 0.321874 0.0483578 -0.578227 38.9455 8.51192 3.84072 -0.0722724 -2.58117 2.51892 0.304655 0.0230593 -0.520253 
26.982 1 273 33.7439 4.41642 4.73392 -1.4477 1.82897 3.15317 -0.175057 0.126936 -0.315085 0 0 0 0 0 0 -0.00517114 -0.0158585 -0.0571701 40.4451 13.7011 2.78081 -0.972213 4.59074 2.07298 -0.180993 0.130492 -0.343899 24.4774 -5.82178 5.73118 -1.9283 -0.908882 4.25998 -0.169134 0.123446 -0.286322 
26.982 1 31 31.5201 0.713565 2.59146 0.276719 -3.11982 2.56238 0.211751 0.0667322 0.210616 0 0 0 0 0 0 0.0219636 -0.177862 -0.165414 30.4741 25.3198 3.30953 -0.220084 -5.67818 3.49998 0.218631 0.07491 0.211009 30.453 56.3398 0.805594 0.773951 -0.518172 1.65037 0.204825 0.0584595 0.210282 
26.982 1 36 33.79 2.60469 2.66525 -3.2404 2.43688 4.74853 0.118153 -0.102995 0.444964 0 0 0 0 0 0 -0.0279344 -0.11083 -0.16729 34.4907 -0.666704 -2.90538 -3.20225 2.4956 3.94453 0.119684 -0.112687 0.448798 30.547 4.87472 7.21983 -3.28256 2.41312 5.58952 0.116642 -0.0933268 0.441109 
26.982 1 233 33.9383 0.513807 4.55421 -8.01255 -1.78272 -1.01145 -0.472521 0.223554 -0.089077 0 0 0 0 0 0 -0.0128163 -0.164997 -0.151729 33.2547 34.2731 -3.04135 -8.35699 -2.8022 -2.00969 -0.486877 0.253887 -0.103056 32.135 46.9563 11.2769 -7.66489 -0.722493 0.027649 -0.458188 0.193204 -0.0749956 
26.982 1 73 33.7338 4.54081 0.820656 -2.73715 -4.77407 -5.79296 0.215617 0.0475039 -0.475578 0 0 0 0 0 0 -0.00421024 -0.037509 -0.269486 31.5017 17.0989 7.12018 -2.25195 -3.0236 -4.45773 0.222618 0.025737 -0.486818 33.3982 -8.96967 -6.63769 -3.2319 -6.51039 -7.08446 0.208669 0.0694062 -0.464409 
26.982 1 75 36.1402 4.48298 2.70956 0.348827 0.712486 -5.04893 -0.364399 -0.562406 -0.0360615 0 0 0 0 0 0 0.00583168 0.00419931 -0.150192 40.2804 9.12001 5.2964 0.324033 2.99455 -5.25401 -0.36498 -0.577396 -0.0334382 29.0088 -1.14936 -0.918865 0.363066 -1.5532 -4.80356 -0.363765 -0.547362 -0.0387281 
26.982 1 234 36.1014 2.22608 4.87847 0.54207 1.84529 -3.81515 -0.288928 0.626778 -0.840422 0 0 0 0 0 0 -0.00369556 -0.0598386 -0.0847218 43.9732 0.0109684 4.23819 1.98473 1.24387 -4.68155 -0.297836 0.653396 -0.869207 25.2499 3.39561 4.61963 -0.910065 2.4789 -2.91615 -0.279962 0.600139 -0.811632 
26.982 1 77 38.177 4.46699 0.521778 0.0230339 -1.98605 -3.76968 -0.00057761 0.345267 0.0979548 0 0 0 0 0 0 0.057399 0.0189974 -0.260145 38.4777 11.0419 30.7938 -0.0344715 -0.321753 -6.7167 -0.00520342 0.358648 0.111666 34.5128 -3.06185 50.276 0.0770052 -3.62888 -0.796951 0.0040958 0.33193 0.0842405 
26.982 1 277 38.1913 4.53275 4.69305 3.90888 2.23895 -0.0315964 0.414154 0.0823276 -0.523554 0 0 0 0 0 0 0.0248795 -0.00532794 -0.0557553 37.7113 17.5086 -4.30755 3.92571 4.78616 -0.670813 0.423258 0.0903658 -0.534486 35.2724 -9.40918 12.7768 3.88241 -0.283198 0.645001 0.40511 0.0742276 -0.512683 
26.982 1 34 36.1292 2.53831 0.69984 1.9165 -3.07286 -1.16479 -0.0993963 0.144523 -0.196697 0 0 0 0 0 0 -0.0063883 -0.101882 -0.247351 39.2915 15.9185 50.0923 2.45862 -1.18646 0.432029 -0.102271 0.132927 -0.203926 30.0275 -11.9717 31.3922 1.368 -4.95171 -2.72246 -0.0964348 0.156134 -0.189483 
26.982 1 40 38.3591 2.58105 2.57987 5.70468 -0.97148 0.0245616 -0.0598934 0.0586157 -0.00734288 0 0 0 0 0 0 0.0876688 -0.126094 -0.175721 43.0982 12.9712 -2.94693 6.68051 1.13387 -0.98736 -0.0646348 0.0564662 -0.00195974 30.2304 -8.89349 7.05809 4.71806 -3.04505 1.07311 -0.0550536 0.0607161 -0.0127097 
26.982 1 237 38.3706 0.597593 4.525 -1.5862 1.38623 -2.63141 -0.164737 -0.403713 0.194677 0 0 0 0 0 0 0.0603182 -0.19699 -0.161617 38.7936 5.6744 12.155 -1.14679 2.29986 -1.52613 -0.165499 -0.416739 0.203162 34.5616 -5.67291 -4.01717 -2.03525 0.502614 -3.70347 -0.163917 -0.390711 0.186247 
26.982 1 79 40.4407 4.60044 2.54987 -1.8818 -2.53423 4.6676 -0.0331166 -0.0133474 0.0288165 0 0 0 0 0 0 0.0401658 -0.0455533 -0.217549 35.6601 20.0341 -7.35945 -2.60502 -0.377025 3.31536 -0.0351538 -0.0165799 0.0444355 41.4495 -11.7899 11.4237 -1.16319 -4.66875 6.06918 -0.0310563 -0.0102078 0.0132056 
26.982 1 238 40.4354 2.54673 4.59944 -2.93898 1.86979 1.40984 -0.000830889 0.626912 -0.500939 0 0 0 0 0 0 0.0473379 -0.122624 -0.131276 45.9153 1.12806 0.755562 -2.41768 0.843722 -0.0270206 -0.00167052 0.641577 -0.511154 31.1691 2.90766 7.53085 -3.46555 2.92932 2.88035 5.18191e-05 0.612209 -0.490719 
26.982 1 637 38.2635 0.468416 12.3259 -1.30709 -2.93083 -2.84631 -0.0575875 0.806746 0.0436726 0 0 0 0 0 0 -0.0425787 -0.178608 -0.151619 42.2836 10.4845 13.2886 -0.348651 -2.13181 -2.15074 -0.0522476 0.829685 0.0423303 30.8813 -10.6957 10.9337 -2.27714 -3.69725 -3.52318 -0.0629097 0.783784 0.0450917 
26.982 1 83 -0.219936 8.58763 2.6034 3.9971 3.52029 -0.334981 0.601235 -0.178287 -0.399837 0 0 0 0 0 0 -0.0584471 -0.105522 -0.103604 -2.90173 20.065 7.04424 3.4256 4.90007 0.557904 0.605647 -0.194339 -0.405475 6.25864 -3.63083 -2.966 4.56814 2.1589 -1.19469 0.596833 -0.162267 -0.394172 
26.982 1 242 0.223717 6.63735 4.52134 1.86918 -8.73273 0.704754 -0.322101 -0.617035 -0.294097 0 0 0 0 0 0 -0.1017 -0.0429741 -0.0837502 -5.73316 12.0345 12.3383 1.20026 -6.86141 1.5156 -0.325259 -0.642672 -0.302906 9.98311 0.414607 -4.20929 2.53674 -10.5842 -0.0687109 -0.318943 -0.591445 -0.285209 
26.982 1 84 42.5275 10.3481 2.54714 -5.53808 -3.34712 -2.15886 -0.187845 -0.345329 0.00580546 0 0 0 0 0 0 0.0504154 -0.135121 -0.151834 40.541 15.1753 -10.6209 -5.12756 -2.90221 -3.50404 -0.197385 -0.337642 -0.000319025 40.3176 4.99355 14.5414 -5.96185 -3.76152 -0.794289 -0.178323 -0.352989 0.0119069 
26.982 1 281 42.7318 8.48813 4.61572 -0.922379 -1.90147 -2.32236 -0.465068 0.211075 0.420706 0 0 0 0 0 0 -0.0106703 -0.0329352 -0.0349137 43.2088 25.2109 5.52394 -0.664804 0.948903 -2.92094 -0.483792 0.210823 0.423718 38.0885 -8.9216 2.74604 -1.19118 -4.73594 -1.69678 -0.44629 0.211317 0.417733 
26.982 1 44 -2.21402 6.63442 2.67462 -4.88352 2.60463 4.49684 -0.00940711 -0.449299 -0.565323 0 0 0 0 0 0 -0.162987 -0.107454 -0.0871092 34.9963 18.7149 3.0182 -5.03909 5.8938 3.97695 -0.0189839 -0.473768 -0.581918 46.1183 -6.28051 1.22154 -4.72846 -0.66208 5.04754 0.00018376 -0.424912 -0.54874 
26.982 1 439 40.421 0.502283 10.5604 -3.17962 6.02523 -0.116786 0.0091154 0.227404 0.0317624 0 0 0 0 0 0 0.0170125 -0.241584 -0.066157 39.169 0.229649 19.0517 -3.38627 6.74221 1.34189 -0.00166368 0.232308 0.020036 37.863 -0.419216 1.51566 -2.98621 5.33422 -1.56021 0.0199015 0.222488 0.0434962 
26.982 1 285 2.22591 8.52329 4.5855 -0.765681 4.83994 4.04655 0.521489 -0.237087 -0.0762865 0 0 0 0 0 0 -0.00119469 -0.0334505 -0.0490088 -9.9104 15.0043 2.93256 -2.87821 7.16478 4.45381 0.535125 -0.253993 -0.0782612 17.7857 1.29982 5.23613 1.36129 2.52685 3.66408 0.50786 -0.220227 -0.0742485 
26.982 1 85 2.12945 8.43434 0.821468 1.53298 -6.70346 3.93133 0.321104 0.260562 -0.293947 0 0 0 0 0 0 0.0452775 -0.075393 -0.270256 -7.65459 15.8282 15.0942 -0.0718431 -5.34634 5.97707 0.329214 0.261352 -0.30119 15.2902 0.365057 -14.7273 3.14665 -8.03525 1.90628 0.313007 0.259776 -0.286776 
26.982 1 48 2.34897 6.40571 2.57986 -0.119174 0.890732 -0.892689 0.198481 0.196377 0.5881 0 0 0 0 0 0 -0.00451049 -0.0489716 -0.210458 -9.18574 15.043 -5.46013 -2.49787 3.75062 -2.49795 0.2048 0.210421 0.599186 17.2905 -3.06759 9.50549 2.27124 -1.96387 0.738107 0.192187 0.182341 0.57704 
26.982 1 87 4.66483 8.52323 2.71201 -1.05598 -0.118202 2.07832 -0.515233 -0.378352 -0.534968 0 0 0 0 0 0 0.00301932 -0.0311448 -0.218499 -0.361974 13.3253 9.6533 -2.24752 0.321523 2.79005 -0.522367 -0.400925 -0.556314 12.6647 3.02425 -5.33783 0.151164 -0.534383 1.39508 -0.508069 -0.35584 -0.513653 
26.982 1 246 4.71442 6.49023 4.48237 3.39952 -1.32092 3.00107 -0.498013 0.288917 0.0238359 0 0 0 0 0 0 -0.016072 -0.0121905 -0.0788655 10.2786 9.95237 10.375 3.72691 -1.01399 4.62925 -0.507263 0.287445 0.0255423 2.11201 2.21522 -2.42486 3.08611 -1.60548 1.38748 -0.488734 0.290343 0.0221891 
26.982 1 88 2.24041 10.3778 2.68707 4.09494 0.911407 2.53452 -0.0183384 0.213872 -0.4492 0 0 0 0 0 0 0.0128966 -0.0260995 -0.145416 -6.95365 15.8235 7.9808 1.93113 1.20035 3.62668 -0.0170105 0.217749 -0.465082 14.8682 4.31699 -3.75493 6.2742 0.639892 1.46869 -0.0196444 0.209994 -0.433332 
26.982 1 627 26.8873 0.53409 14.4253 -3.30946 2.9199 -6.28864 0.335362 0.457962 -0.34498 0 0 0 0 0 0 0.00985247 -0.251439 -0.0620543 23.1436 45.5339 12.8342 -3.80558 3.12932 -6.38515 0.349537 0.482372 -0.366013 29.3945 35.59 15.7331 -2.80984 2.72403 -6.16614 0.321147 0.433484 -0.324005 
26.982 1 289 6.76117 8.48997 4.54809 1.74636 -0.663198 0.0609429 0.314602 0.205736 0.118759 0 0 0 0 0 0 -0.00401065 0.00859874 -0.0478426 13.5427 8.27731 16.2211 2.46983 -0.364621 3.84954 0.32172 0.214391 0.120773 2.46665 7.98873 -8.14345 1.02084 -0.94469 -3.70595 0.307485 0.197059 0.116744 
26.982 1 423 22.4166 0.510871 10.295 1.87138 6.606 6.91857 0.309769 -0.426836 0.308613 0 0 0 0 0 0 -0.0447419 -0.259792 -0.0451336 16.8128 45.1634 -0.376905 1.08778 6.68605 6.73663 0.312545 -0.421689 0.325658 27.6336 35.9227 20.3445 2.66381 6.54186 7.11733 0.307073 -0.432028 0.291637 
26.982 1 52 6.83739 6.61174 2.37531 -3.61478 0.408443 -3.111 -0.181036 -0.294561 0.250959 0 0 0 0 0 0 -0.0636422 0.00831954 -0.194296 9.62312 5.8645 9.70886 -3.49372 -0.182205 -2.11004 -0.185221 -0.306256 0.262876 6.5072 6.56792 -6.00646 -3.73996 1.02321 -4.06953 -0.176822 -0.282909 0.239044 
26.982 1 91 9.0563 8.40279 2.61705 5.119 7.24014 2.00906 -0.199494 0.474755 -0.110629 0 0 0 0 0 0 -0.0484624 0.0197332 -0.129484 12.4324 6.11165 6.22913 5.72418 7.8714 2.81485 -0.211799 0.486314 -0.105462 7.71543 9.98793 -2.04178 4.50249 6.62606 1.24289 -0.187168 0.463203 -0.115855 
26.982 1 250 8.93542 6.51623 4.4199 0.967854 -0.0588084 -0.667616 0.0556287 -0.150565 0.596494 0 0 0 0 0 0 -0.00729667 -0.0142058 -0.0190201 8.4505 12.2438 22.567 1.33493 1.45254 2.78357 0.0553255 -0.153832 0.623396 11.4575 0.0720559 -14.8234 0.591315 -1.53343 -4.11796 0.0558931 -0.147302 0.569567 
26.982 1 290 9.23325 10.4106 4.53966 4.9523 1.06566 -1.67417 -0.488412 -0.277375 0.0656758 0 0 0 0 0 0 -0.0135159 -0.00554508 -0.0274812 10.6929 22.2218 27.6526 6.21464 2.98622 3.01064 -0.498736 -0.289945 0.0812939 9.81371 -2.01955 -19.5413 3.67911 -0.846862 -6.33662 -0.478085 -0.264818 0.0500057 
26.982 1 90 9.11551 10.4656 0.781236 1.11583 -1.21808 -1.81562 -0.497483 -0.517857 -0.369527 0 0 0 0 0 0 -0.0224825 0.0221591 -0.288914 13.2918 3.49549 42.5785 1.70819 -2.65604 -2.03638 -0.512059 -0.526458 -0.387487 6.98413 16.9317 39.0795 0.515562 0.252476 -1.55996 -0.482862 -0.509281 -0.351593 
26.982 1 293 11.4096 8.41919 4.50727 0.605566 1.27713 5.10879 -0.67778 0.500945 0.656678 0 0 0 0 0 0 -0.00940427 0.0082356 -0.00400683 9.88489 18.6353 24.1095 0.748457 4.74493 9.45942 -0.69044 0.509115 0.687918 14.6024 -2.56063 -16.0758 0.461386 -2.18838 0.777802 -0.665136 0.49279 0.62537 
26.982 1 56 11.2678 6.47661 2.71688 -1.60102 0.983957 0.397128 -0.142769 -0.365877 -0.28003 0 0 0 0 0 0 0.0261114 -0.0406252 -0.133843 15.842 9.98634 9.29683 -0.878002 2.58236 2.16345 -0.148323 -0.399727 -0.293429 8.39086 2.17333 -4.92083 -2.32027 -0.589565 -1.32648 -0.13725 -0.332016 -0.266694 
26.982 1 95 13.3379 8.44715 2.81219 -2.80679 -0.169734 1.5219 0.775852 0.0230503 -1.09892 0 0 0 0 0 0 0.0311237 -0.0251979 -0.153519 13.2013 14.951 -4.43415 -3.72063 1.56101 0.69905 0.796701 0.0245032 -1.12359 14.729 1.20879 9.02407 -1.89052 -1.88821 2.38282 0.754942 0.0215882 -1.07431 
26.982 1 254 13.6155 6.30721 4.40625 -2.61557 0.872716 2.70866 -0.0129292 -0.110361 0.137997 0 0 0 0 0 0 0.0117752 -0.0117778 -0.0430551 11.05 3.90733 20.0699 -3.45444 0.219315 6.29085 -0.00496788 -0.109954 0.152763 17.4655 7.9389 -12.2949 -1.76876 1.55197 -0.862986 -0.0208892 -0.110742 0.123203 
26.982 1 294 13.6791 10.3622 4.60052 -5.87784 -0.875715 1.4861 -0.0562105 0.541397 0.0904076 0 0 0 0 0 0 0.0167269 0.0108205 -0.0330332 16.275 29.0394 -0.304655 -6.02735 1.71642 0.838915 -0.0448845 0.54775 0.0955551 12.3484 -8.97718 8.55391 -5.72437 -3.47949 2.15778 -0.0675384 0.535042 0.0852431 
26.982 1 100 15.7169 10.4291 2.45743 -1.97166 -3.11231 -1.53763 0.0311893 -0.242546 0.641595 0 0 0 0 0 0 0.0367017 0.0340077 -0.17715 18.023 32.2846 -8.36476 -1.92022 -0.186015 -2.8891 0.0349468 -0.258065 0.654173 14.2611 -12.0137 12.2088 -2.01605 -6.02678 -0.153004 0.027365 -0.227058 0.629043 
26.982 1 93 11.1766 8.34067 0.589624 1.31908 -1.96678 0.0979553 0.343527 0.187174 -0.0609798 0 0 0 0 0 0 0.03819 0.00215862 -0.284337 10.5752 5.92717 41.1518 1.50312 -2.16513 -0.147404 0.354132 0.200121 -0.0711585 13.4577 10.0911 40.1883 1.13583 -1.7457 0.380921 0.332867 0.174283 -0.0507656 
26.982 1 60 15.7803 6.27274 2.27339 2.89754 -2.21893 -1.32629 0.159292 0.305074 0.571165 0 0 0 0 0 0 -0.035557 -0.0110089 -0.177891 23.9674 9.80266 -4.92168 4.07149 -2.70674 -1.89845 0.164608 0.324052 0.58947 8.40951 1.89828 8.39419 1.71956 -1.71401 -0.720061 0.153974 0.28609 0.552892 
26.982 1 297 15.697 8.20156 4.33658 -5.51345 0.709325 0.766276 0.241231 0.59364 0.0735348 0 0 0 0 0 0 0.0113875 0.021639 -0.0536906 21.6795 19.7055 0.0105357 -4.71911 3.32295 0.477284 0.251002 0.615317 0.0765202 10.5611 -4.02386 7.68925 -6.30547 -1.89395 1.08305 0.231415 0.571974 0.070566 
26.982 1 99 17.9256 8.41269 2.38283 3.87204 -2.05804 -2.76798 -0.171509 0.200181 0.105423 0 0 0 0 0 0 0.0185578 0.0539116 -0.177634 19.4321 12.1234 -1.72582 4.83712 -1.4529 -1.80499 -0.174061 0.214109 0.115285 16.8437 3.93113 5.4214 2.90339 -2.6456 -3.70054 -0.169011 0.186207 0.0955609 
26.982 1 258 17.9582 6.47717 4.35622 2.13977 0.65663 3.54658 -0.101817 -0.170552 0.154022 0 0 0 0 0 0 -0.00785167 0.00611771 -0.0398154 16.7885 9.5674 4.43966 2.34372 0.262362 3.51048 -0.10462 -0.169967 0.163062 19.514 2.58263 3.28906 1.92405 1.07225 3.61215 -0.0990738 -0.171186 0.144967 
26.982 1 64 20.0477 6.48488 2.57092 6.93885 -0.770846 5.74952 0.351861 0.0384051 -0.339289 0 0 0 0 0 0 0.00983426 0.0316226 -0.139825 20.0919 4.33689 -1.57123 7.3631 -1.28104 6.0938 0.356971 0.0319768 -0.326988 19.9826 7.84255 5.61804 6.50859 -0.232198 5.43634 0.346665 0.0447332 -0.351615 
26.982 1 104 20.1086 10.5022 2.47697 6.11273 2.91918 -12.1026 0.0630804 -0.356206 0.333329 0 0 0 0 0 0 -0.0396617 -0.0410605 -0.170041 20.1576 23.1638 5.90589 6.62521 5.13776 -10.8943 0.0621849 -0.370359 0.354187 20.0612 -2.79162 -2.02333 5.59782 0.709804 -13.2775 0.0639227 -0.342071 0.312475 
26.982 1 301 20.2649 8.42749 4.49582 -2.39231 -5.69691 -3.23925 -0.108984 0.334701 0.0956703 0 0 0 0 0 0 -0.00168138 0.0119151 -0.0452934 16.0865 1.87172 2.32128 -3.18156 -7.31883 -4.18781 -0.11166 0.340116 0.0954406 24.409 14.2709 5.70495 -1.60983 -4.05001 -2.25955 -0.106359 0.329233 0.0959157 
26.982 1 103 22.3705 8.47467 2.5617 0.0777368 1.88158 -0.732186 0.245284 -0.102585 -0.205287 0 0 0 0 0 0 0.0013056 -0.00453419 -0.174493 18.6888 17.6902 1.7544 -0.709422 2.57121 -1.10108 0.250768 -0.104654 -0.213168 25.5948 -1.40595 2.29728 0.862899 1.22423 -0.329006 0.239791 -0.100562 -0.197451 
26.982 1 262 22.3864 6.38303 4.31177 -1.52131 1.45961 -7.33535 0.196368 -0.190494 0.287099 0 0 0 0 0 0 0.00689129 -0.00682263 -0.0350571 20.8653 6.09737 3.48608 -2.02392 0.782235 -7.76159 0.197668 -0.196408 0.303294 23.4641 5.85507 4.17074 -1.01629 2.15448 -6.87654 0.19505 -0.184651 0.270955 
26.982 1 621 20.1522 0.69029 12.4396 1.30587 -0.282275 -1.53352 0.132596 -0.641048 -0.0680173 0 0 0 0 0 0 -0.061125 -0.198378 -0.148089 19.2985 4.58127 7.48045 1.45134 0.321394 -1.73842 0.128772 -0.644315 -0.0845262 21.023 -4.39297 16.9979 1.15646 -0.86606 -1.29676 0.136466 -0.637821 -0.0514638 