ITEM: TIMESTEP
12300
ITEM: NUMBER OF ATOMS
4000
ITEM: BOX BOUNDS pp pp pp
-2.57407 43.0741
0.695086 39.8049
0.701414 39.7986
ITEM: ATOMS mass type id x y z vx vy vz fx fy fz xrad yrad zrad vxrad vyrad vzrad fxrad fyrad fzrad xub yub zub vxub vyub vzub fxub fyub fzub xlb ylb zlb vxlb vylb vzlb fxlb fylb fzlb 
26.982 1 43 -0.305974 4.72631 2.5386 2.3705 -0.548462 -0.15097 0.190335 -0.389594 0.0897052 0 0 0 0 0 0 -0.0951075 -0.0349577 -0.140012 -14.3221 0.68459 12.7401 0.894194 -0.338118 1.4982 0.188584 -0.406923 0.0950601 18.2808 7.67885 -8.92649 3.85097 -0.732024 -1.77784 0.192116 -0.372222 0.0843745 
26.982 1 202 -0.252954 2.69787 4.53427 2.37447 -0.625142 2.18666 -0.163305 0.177152 0.354233 0 0 0 0 0 0 -0.0767015 -0.14816 -0.1219 1.19301 -10.1568 5.85023 2.47269 -2.74664 2.20394 -0.172964 0.17267 0.341779 2.8764 14.3445 2.20532 2.28196 1.5333 2.20947 -0.15361 0.181666 0.366766 
26.982 1 245 1.92406 4.73235 4.80997 -1.56766 -0.234493 -3.46067 0.139678 -0.802611 -0.185227 0 0 0 0 0 0 -0.0273897 -0.0708437 -0.0560369 -0.05901 7.26657 4.46243 -2.65602 -0.299977 -3.65346 0.138294 -0.828516 -0.201393 7.98813 1.15246 4.09279 -0.473813 -0.135225 -3.23338 0.141048 -0.776709 -0.169022 
26.982 1 2 -0.15847 2.62686 0.627281 -5.48006 0.481323 2.5253 -0.468861 0.288568 0.180345 0 0 0 0 0 0 -0.0700979 -0.131919 -0.158535 1.98074 15.769 22.7826 -5.5445 1.68758 5.10985 -0.480177 0.288534 0.192967 2.23113 -11.6788 -22.9657 -5.41343 -0.681197 -0.0286597 -0.457547 0.288671 0.167675 
26.982 1 1161 43.4585 16.3583 20.2685 -1.91021 0.733758 2.18896 -0.2459 0.119382 -0.310495 0 0 0 0 0 0 0.0141736 -0.0574353 -0.0426472 22.7963 17.7469 23.8724 -3.57655 1.26053 2.8678 -0.255549 0.124248 -0.318751 59.1821 14.7646 16.8285 -0.242329 0.232454 1.54109 -0.23614 0.114557 -0.302231 
26.982 1 201 43.134 0.83177 4.50515 2.174 6.82599 -0.547175 -0.0645133 -0.0948042 -0.0810237 0 0 0 0 0 0 0.0141562 -0.182823 -0.204608 43.1077 45.6414 17.0716 1.99363 7.5367 1.18013 -0.0659953 -0.101955 -0.0932118 38.2027 35.8893 -9.10669 2.35967 6.1434 -2.24491 -0.0630218 -0.0876817 -0.0687372 
26.982 1 1197 38.6139 16.3488 20.4768 0.347604 1.48217 2.76201 0.0284415 -0.321638 -0.33099 0 0 0 0 0 0 -0.0178823 -0.0342772 0.00970062 42.8661 14.2361 19.5573 1.00911 1.81146 1.81326 0.0289214 -0.319405 -0.332831 30.3176 18.2362 21.6508 -0.316143 1.17448 3.74872 0.02785 -0.323891 -0.329207 
26.982 1 1000 38.4524 18.2791 18.518 -0.908355 -6.22143 1.4921 0.168548 -0.234606 -0.420345 0 0 0 0 0 0 -0.0383961 0.0331009 -0.0233696 27.9291 23.9734 23.7893 -1.97392 -4.08669 2.56672 0.173158 -0.239956 -0.444289 44.9949 12.5299 13.3023 0.159436 -8.33388 0.455655 0.163892 -0.229275 -0.39647 
26.982 1 8 1.99295 2.66985 2.81235 4.0177 2.16642 -3.20005 0.0513659 0.468074 -0.690107 0 0 0 0 0 0 -0.018375 -0.212478 -0.111091 -3.07554 15.0522 2.39962 3.89183 3.495 -2.66568 0.052121 0.470967 -0.719211 11.1228 -10.953 2.01052 4.14862 0.860407 -3.69828 0.0506212 0.465205 -0.660994 
26.982 1 997 38.7632 16.5063 16.3466 -1.04135 -1.13289 1.46467 -0.162601 -0.276533 0.650028 0 0 0 0 0 0 0.0107278 -0.00972705 0.0282866 34.2807 16.637 15.8026 -1.53065 0.0153111 1.40652 -0.156499 -0.282024 0.678512 39.3564 16.1427 16.7423 -0.535487 -2.26014 1.55022 -0.168733 -0.271119 0.621566 
26.982 1 47 4.31353 4.48723 2.82429 0.0786712 2.94783 4.59561 -0.0184381 -0.121652 -0.943845 0 0 0 0 0 0 0.0192662 -0.0657119 -0.154641 -1.54595 14.8798 -1.75652 -0.990103 4.23355 3.77768 -0.0253072 -0.128278 -0.973536 13.6861 -6.85606 6.19736 1.15261 1.71166 5.44849 -0.0115905 -0.114993 -0.914183 
26.982 1 206 4.18638 2.59145 4.70263 1.26851 -2.34216 -3.76446 0.269325 0.255678 0.529909 0 0 0 0 0 0 -0.0325271 -0.149392 -0.102652 9.04932 -8.72697 17.8037 1.2599 -4.78594 -1.48409 0.277575 0.264265 0.530963 2.83309 12.7108 -9.38207 1.2789 0.13905 -6.00812 0.261079 0.247113 0.528918 
26.982 1 249 6.61565 4.57266 4.5827 -2.65579 -3.31627 -1.54362 -0.273425 0.0103057 -0.1809 0 0 0 0 0 0 -0.00628538 -0.0337255 -0.0712679 8.23132 -6.58775 10.6507 -2.94002 -5.28723 -1.41395 -0.28666 0.00318959 -0.18467 7.93293 14.7482 -2.53731 -2.37777 -1.29889 -1.63745 -0.260161 0.0174178 -0.177091 
26.982 1 801 -2.68555 0.483906 16.3764 1.21462 -0.401287 -0.363939 0.526925 0.334758 0.138507 0 0 0 0 0 0 -0.138428 -0.0625337 -0.200044 43.8897 49.1685 9.63092 1.30884 1.67391 -0.440271 0.538763 0.353286 0.140259 37.037 31.7916 23.0329 1.12 -2.44458 -0.244159 0.515008 0.316183 0.136738 
26.982 1 12 6.59595 2.67075 2.41819 0.462465 -0.299715 1.81884 -0.103519 0.0013909 0.357515 0 0 0 0 0 0 0.000685789 -0.117162 -0.206063 8.27955 5.2349 -4.62774 0.503264 0.0712825 0.626962 -0.109813 0.00440262 0.371232 7.8538 -1.05518 8.29655 0.415694 -0.626043 3.05077 -0.0971564 -0.00160657 0.343853 
26.982 1 51 8.72906 4.56111 2.39093 -5.03414 2.54198 -7.87795 0.175667 -0.528361 0.156785 0 0 0 0 0 0 0.00795239 -0.0348122 -0.260928 -3.85441 11.7647 -14.6772 -6.07405 3.43157 -11.0818 0.170116 -0.542907 0.166375 23.7316 -3.61126 18.273 -4.00861 1.69599 -4.63179 0.181296 -0.513831 0.147207 
26.982 1 210 8.84608 2.85734 4.56793 0.319954 3.88969 -2.01244 0.0808433 -0.365006 0.0670588 0 0 0 0 0 0 -0.00276051 -0.0729909 -0.0954923 4.15919 3.1014 7.71586 -0.264029 4.63265 -0.495725 0.0842266 -0.387107 0.0646866 15.9559 1.39432 0.287032 0.89372 3.18014 -3.50025 0.0774988 -0.342907 0.0694201 
26.982 1 253 11.1016 4.5694 4.55718 -3.94119 3.16132 -4.0906 0.00237314 -0.503267 0.550191 0 0 0 0 0 0 -0.0129858 -0.0159655 -0.0550491 10.2869 -0.0875404 28.9289 -4.54019 2.55842 0.00391891 -1.36626e-05 -0.515026 0.576395 13.9345 8.30293 -20.8936 -3.34269 3.81301 -8.15815 0.00476996 -0.491513 0.523959 
26.982 1 803 -0.291041 0.671622 18.3903 -3.50935 -0.191494 2.70271 -0.0802664 0.273313 0.0389746 0 0 0 0 0 0 -0.13824 -0.209836 0.0416799 -4.01751 1.67501 20.7386 -4.07524 0.53171 3.62887 -0.0812609 0.294326 0.0313564 7.92663 -1.5963 16.0981 -2.94255 -0.87163 1.81332 -0.0792906 0.252208 0.0466331 
26.982 1 16 11.1094 2.50444 2.66496 3.33869 -1.33709 1.00607 -0.206727 0.0993121 0.320119 0 0 0 0 0 0 -0.045062 -0.0846716 -0.213254 12.652 14.7338 -6.03505 2.71555 1.76738 0.89702 -0.21463 0.0984062 0.336387 11.608 -10.9093 10.0984 3.96893 -4.4249 1.14241 -0.198776 0.100273 0.303784 
26.982 1 2839 40.7766 20.1412 18.4438 1.76384 2.48967 4.97464 0.124955 0.303956 -0.511477 0 0 0 0 0 0 -0.0515212 0.112577 -0.107936 38.7558 11.7173 30.8539 1.86417 2.35075 6.58242 0.123556 0.315929 -0.540521 38.3194 28.711 6.07997 1.65778 2.65477 3.4035 0.126372 0.292069 -0.482463 
26.982 1 55 13.2211 4.57252 2.72179 -3.65945 -1.79707 -2.5551 0.530131 -0.331855 0.0891276 0 0 0 0 0 0 -0.011012 -0.0282791 -0.154311 14.0439 3.67786 9.11896 -4.19986 -1.10299 -0.990258 0.543408 -0.327923 0.0903769 13.9442 4.49127 -4.82932 -3.10635 -2.45467 -4.0769 0.516827 -0.335791 0.0878119 
26.982 1 214 13.2239 2.48617 4.63275 1.19642 -5.35426 -1.23184 0.385711 0.266562 -0.10871 0 0 0 0 0 0 0.0467066 -0.0955576 -0.0683206 23.7459 3.47625 9.61829 2.23345 -4.83982 -0.710937 0.385938 0.278946 -0.101705 4.24355 0.332587 -1.48503 0.17041 -5.83447 -1.72997 0.385461 0.254223 -0.115789 
26.982 1 14 13.2022 2.45206 0.733655 0.730589 -4.07081 -1.47277 0.543805 0.725464 0.182275 0 0 0 0 0 0 -0.0229898 -0.0879949 -0.245193 10.3774 18.7383 33.0765 0.103159 -0.00917831 -1.4258 0.551773 0.750112 0.193456 17.5782 -15.0633 48.3522 1.37093 -8.10926 -1.47536 0.535815 0.700826 0.171061 
26.982 1 57 15.5416 4.56587 0.650387 -1.47202 -2.39582 1.30969 -0.146657 0.0223188 -0.0701741 0 0 0 0 0 0 0.0726765 -0.0262349 -0.259077 22.1384 15.9292 -8.33247 -0.45918 0.385737 -0.286282 -0.150619 0.0319804 -0.0647455 9.93466 -7.82692 8.38711 -2.48678 -5.14125 2.95621 -0.142758 0.0126072 -0.0755715 
26.982 1 20 15.4374 2.73306 2.6396 -2.66089 5.22666 4.38681 0.11394 -0.0446849 0.144117 0 0 0 0 0 0 0.0900278 -0.174398 -0.129024 24.9685 -12.3886 7.37305 -1.02698 4.24788 4.35296 0.110804 -0.0376296 0.169604 6.88298 16.7204 -3.29141 -4.29457 6.23611 4.45985 0.117005 -0.0517517 0.118583 
26.982 1 257 15.6489 4.61687 4.66452 -1.26151 1.2226 3.37581 -0.0428438 -0.542279 0.439905 0 0 0 0 0 0 0.0209664 -0.0562794 -0.0408231 22.1973 -12.5848 8.17028 -0.644062 -0.691655 4.57992 -0.0395018 -0.556248 0.455995 10.1073 20.7993 0.0578026 -1.87491 3.17254 2.20002 -0.046229 -0.528312 0.423791 
26.982 1 218 18.0047 2.7717 4.64399 -2.31653 2.25259 3.01995 -0.428165 -0.210576 0.12279 0 0 0 0 0 0 -0.0396867 -0.138355 -0.131382 11.2288 -3.39836 3.51441 -3.53159 1.31112 2.98644 -0.438529 -0.228436 0.13074 25.2325 7.83078 4.69911 -1.10712 3.22356 3.08889 -0.417825 -0.192772 0.114806 
26.982 1 59 17.7623 4.65256 2.5691 -2.54663 -2.5851 -0.37359 0.227531 0.197303 0.835396 0 0 0 0 0 0 0.0543404 -0.0567939 -0.215811 27.1798 -6.14871 9.02979 -1.65177 -4.05366 0.953218 0.232355 0.209529 0.866313 8.78205 14.4467 -5.05149 -3.45444 -1.09037 -1.65417 0.22266 0.185066 0.804475 
26.982 1 24 20.1308 2.66808 2.77917 -2.60277 1.60661 1.21013 0.0568671 -0.271935 -0.22469 0 0 0 0 0 0 -0.0484458 -0.0970492 -0.261665 14.2262 7.0985 10.1661 -3.68071 4.39638 2.03693 0.0534341 -0.26807 -0.231045 25.989 -2.86767 -5.82417 -1.53115 -1.13649 0.421967 0.0602679 -0.275842 -0.218402 
26.982 1 261 20.2597 4.49677 4.64046 2.73445 4.05506 2.30317 -0.0805988 0.725717 0.184856 0 0 0 0 0 0 -0.00674551 -0.00941151 -0.0935249 19.0172 4.17828 4.40254 3.02878 5.63935 1.74438 -0.0797522 0.751992 0.188237 21.4546 3.80202 3.80966 2.43397 2.5018 2.89672 -0.081502 0.69942 0.181454 
26.982 1 63 22.5332 4.60846 2.7328 3.5335 0.0657275 -4.70654 -0.271825 -0.0331372 -0.420851 0 0 0 0 0 0 -0.0238038 -0.0174866 -0.248849 28.2797 15.4302 5.39904 3.73564 3.02191 -3.9623 -0.271334 -0.0166841 -0.428518 16.3006 -7.2405 -1.09436 3.33721 -2.8608 -5.40985 -0.272393 -0.0496514 -0.413249 
26.982 1 222 22.6058 2.72544 4.70517 5.09579 -3.36785 -6.0462 -0.0896238 -0.36894 -0.195843 0 0 0 0 0 0 -0.00318638 -0.0595641 -0.0982483 19.714 10.0855 6.92092 5.03413 -0.829779 -6.51102 -0.0827353 -0.370746 -0.203159 24.9916 -5.78763 1.42934 5.15605 -5.86866 -5.55092 -0.0965366 -0.367263 -0.188583 
26.982 1 28 24.8349 2.6353 2.47841 3.18792 -1.08926 2.00466 -0.646722 -0.0369182 0.478268 0 0 0 0 0 0 -0.00734398 -0.057724 -0.171961 26.4344 9.08588 11.6219 3.41551 -0.412379 3.18245 -0.653985 -0.0263009 0.493991 22.3162 -4.94326 -7.94643 2.96849 -1.72208 0.845158 -0.639544 -0.0476241 0.462577 
26.982 1 265 24.8527 4.59531 4.62376 -0.766466 2.1035 -0.31383 -0.0521726 -0.41247 0.264667 0 0 0 0 0 0 0.00234638 -0.00322331 -0.0679675 27.1758 -14.4613 3.88275 -0.893628 0.787805 -0.578693 -0.0488936 -0.395144 0.27021 21.5803 22.6036 4.25692 -0.63247 3.45255 -0.0223694 -0.0554971 -0.429867 0.25912 
26.982 1 67 26.933 4.43928 2.68727 2.91328 -1.51609 -4.18921 0.458799 0.429274 0.125798 0 0 0 0 0 0 0.025553 -0.0215583 -0.168611 27.1179 -3.39598 7.91339 2.68268 -2.29604 -3.54954 0.482986 0.462947 0.132634 25.3275 11.1941 -3.76049 3.14853 -0.706126 -4.80154 0.43459 0.395609 0.11895 
26.982 1 226 26.9643 2.52631 4.73044 4.39082 3.01115 -2.76986 0.477515 0.0880686 -0.248636 0 0 0 0 0 0 0.0526467 -0.116458 -0.120307 26.4735 -4.65678 12.1983 4.80261 1.79255 -1.64481 0.4919 0.111995 -0.253857 26.0521 8.6582 -3.89168 3.98478 4.28386 -3.87141 0.463083 0.0640783 -0.243368 
26.982 1 32 29.4769 2.23419 2.70613 1.29309 -0.92498 -0.210743 0.0144139 0.857605 -0.0440202 0 0 0 0 0 0 0.00196885 -0.162939 -0.130095 16.7856 5.79419 15.4856 0.138143 -1.14937 2.54078 0.0261949 0.886967 -0.0399261 40.2164 -2.43682 -11.3112 2.45172 -0.660278 -2.9345 0.00262743 0.828261 -0.0480493 
26.982 1 26 27.0366 2.5638 0.765314 -3.42718 2.35773 3.26312 0.170824 -0.39001 -0.0940902 0 0 0 0 0 0 0.0446315 -0.0770595 -0.201679 18.2446 11.2716 16.6674 -4.46423 4.33217 5.85028 0.183155 -0.386441 -0.0936687 34.4192 -7.30503 -16.475 -2.38095 0.421102 0.713557 0.158416 -0.393615 -0.0945684 
26.982 1 269 29.5121 4.52058 4.57695 0.864502 1.06761 -2.03237 0.0481899 -0.346714 -0.527751 0 0 0 0 0 0 0.00263567 -0.0643549 -0.101328 26.8568 12.6405 19.4017 1.11658 1.56259 -0.974546 0.0516965 -0.352461 -0.554183 30.2622 -4.65725 -11.2756 0.617616 0.599634 -3.0586 0.0447409 -0.34098 -0.501229 
26.982 1 71 31.9532 4.51781 2.60306 -1.82554 -0.471275 3.18977 -0.444093 -0.0180757 0.389627 0 0 0 0 0 0 0.000262869 -0.0522838 -0.167945 30.575 12.1503 0.338574 -1.83101 0.948442 3.32291 -0.452757 -0.0325546 0.399829 30.8114 -4.186 3.73284 -1.82449 -1.85771 3.09053 -0.435393 -0.00362576 0.37953 
26.982 1 230 31.7556 2.47412 4.67883 6.71209 0.362146 -2.97234 -0.180897 0.301299 -0.679584 0 0 0 0 0 0 -0.0101779 -0.152203 -0.124758 19.7975 -4.19623 2.0865 5.91826 0.929882 -4.25982 -0.185843 0.318666 -0.705732 41.2353 8.07293 6.27207 7.5074 -0.15647 -1.64475 -0.175941 0.283952 -0.653366 
26.982 1 30 31.7998 2.4957 0.73807 -3.91631 -3.36367 4.18265 -0.318366 -0.0270855 0.120761 0 0 0 0 0 0 -0.0444667 -0.0665345 -0.192483 38.5429 -12.826 4.7402 -2.58778 -5.66486 6.45146 -0.328349 -0.0248448 0.124736 22.4895 16.5866 -4.60973 -5.255 -1.03895 1.94662 -0.308406 -0.0293392 0.116727 
26.982 1 273 34.2021 4.4847 4.44711 -1.5942 -2.64944 -1.9489 -0.180718 0.739745 0.0983769 0 0 0 0 0 0 8.43717e-05 -0.0252424 -0.0787564 41.6272 18.4455 -1.35544 -1.38798 -0.847503 -3.92794 -0.178424 0.755742 0.0960002 23.7102 -10.557 9.19226 -1.80502 -4.42433 0.0580461 -0.182958 0.723796 0.100805 
26.982 1 36 34.0611 2.52558 2.62636 4.67827 -1.31465 -3.27532 0.16546 0.0786711 -0.101251 0 0 0 0 0 0 0.00336173 -0.101388 -0.125142 35.1451 -0.431728 -5.44373 5.02016 -1.36503 -4.55931 0.174005 0.0956202 -0.101167 29.9305 4.35073 9.58271 4.32894 -1.22731 -1.9519 0.156963 0.0617747 -0.101241 
26.982 1 75 36.3609 4.77413 2.6658 0.777819 -3.44583 0.33616 -0.149438 -0.636154 -0.16561 0 0 0 0 0 0 -0.0155878 -0.0429181 -0.236249 39.5314 14.2176 5.31728 0.622255 -1.13235 0.622348 -0.170699 -0.663636 -0.170186 29.6039 -5.80862 -1.11437 0.92231 -5.73848 0.0962865 -0.12813 -0.608653 -0.160982 
26.982 1 234 36.384 2.6136 4.66925 -2.82182 0.345038 -2.49209 -0.058854 0.207903 -0.516395 0 0 0 0 0 0 -0.0260475 -0.0886622 -0.095092 46.4789 0.566565 1.9311 -1.41222 0.295381 -3.7085 -0.0539449 0.21371 -0.530234 22.7189 3.48064 6.43234 -4.23712 0.430087 -1.23669 -0.0637081 0.20217 -0.502549 
26.982 1 2837 38.5721 20.1109 16.4202 0.540129 4.94157 -1.16324 0.379838 0.215382 -0.234822 0 0 0 0 0 0 -0.0650394 0.0996286 -0.129416 33.4436 36.136 37.8976 0.415264 7.26408 2.02249 0.397355 0.230519 -0.255865 39.7661 4.30188 -5.16411 0.668692 2.65775 -4.31365 0.362338 0.200287 -0.213796 
26.982 1 40 38.424 2.83474 2.54145 -2.5288 0.134214 1.77728 0.146798 -1.21237 0.531178 0 0 0 0 0 0 -0.0108829 -0.11748 -0.215708 45.0638 17.4641 -4.63857 -1.62754 1.83983 0.900559 0.13687 -1.24878 0.540323 27.7145 -13.0098 8.58452 -3.4386 -1.53327 2.7038 0.156747 -1.17597 0.522096 
26.982 1 237 38.6741 0.811944 4.85207 4.1608 -0.139507 1.35543 -0.0334099 -0.022437 -0.59129 0 0 0 0 0 0 0.0210776 -0.167592 -0.173055 40.0592 8.17835 14.8827 4.75188 0.551018 2.35153 -0.0313637 -0.0357487 -0.61209 33.2214 -7.90413 -6.17071 3.55953 -0.791576 0.400368 -0.0353976 -0.00914652 -0.570511 
26.982 1 4 -2.6424 2.95587 2.51563 1.97786 2.26797 -1.24841 0.250342 -0.325281 0.0168914 0 0 0 0 0 0 -0.137598 -0.115741 -0.0914511 27.4501 0.931555 5.06517 0.435872 2.0085 -1.54635 0.253834 -0.347929 0.0220297 53.5941 3.76211 -1.1893 3.52368 2.56414 -0.910104 0.24685 -0.302623 0.0117742 
26.982 1 241 43.2253 4.76523 4.71898 1.71054 1.13236 -0.0635836 -0.459151 -0.51035 -0.00926349 0 0 0 0 0 0 -0.0125794 -0.0309468 -0.065188 -6.26858 9.96215 -5.73001 1.40757 1.82756 -1.96696 -0.476001 -0.524692 -0.0243043 6.4193 -1.46672 14.1493 2.012 0.478386 1.8713 -0.442279 -0.496017 0.00577052 
26.982 1 2833 34.0424 20.2859 16.533 1.08446 -4.08285 0.167778 0.0700406 0.289169 -0.122147 0 0 0 0 0 0 -0.0528409 0.0512143 -0.138406 35.4098 30.96 1.07376 1.28233 -3.12307 -1.45404 0.0709131 0.288959 -0.132635 29.6604 9.79993 31.8545 0.886718 -5.00888 1.80272 0.0691937 0.289364 -0.111653 
26.982 1 277 38.6891 4.65746 4.5136 3.70108 1.0714 -0.00446151 -0.330229 0.381276 -0.195601 0 0 0 0 0 0 -0.016611 -0.02389 -0.0680665 37.8287 22.9917 -5.14544 3.4754 3.49073 -0.598626 -0.342898 0.382501 -0.185896 35.4747 -14.7569 13.1938 3.92173 -1.3086 0.640629 -0.317566 0.380111 -0.205281 
26.982 1 79 40.7993 4.71266 2.41699 -3.08302 -3.72228 -2.57381 0.33037 -0.137918 0.448932 0 0 0 0 0 0 -0.000918276 -0.0551211 -0.176501 34.3257 23.5618 -11.6999 -4.31235 -2.39383 -5.07363 0.345912 -0.150439 0.468134 42.7469 -15.2189 15.4275 -1.85407 -5.01991 -0.0157266 0.314825 -0.125357 0.429788 
26.982 1 238 40.8215 2.81291 4.44269 -1.97413 -5.56084 -1.37322 0.210711 0.0285033 0.319806 0 0 0 0 0 0 0.0102124 -0.122459 -0.114151 47.2169 -0.93579 -2.48515 -1.4704 -7.08705 -2.95534 0.221659 0.0094235 0.326734 29.8803 5.37877 10.3773 -2.48325 -3.99464 0.254205 0.199769 0.0475781 0.312961 
26.982 1 998 41.0686 18.1801 16.354 -2.04097 2.70627 0.078137 -0.278326 0.482188 0.060277 0 0 0 0 0 0 0.00888826 0.0905337 -0.0771077 30.8722 37.3497 24.4834 -2.62323 5.65797 1.87936 -0.282372 0.514164 0.0521729 46.8623 -1.10926 8.035 -1.44884 -0.23818 -1.6975 -0.274251 0.45026 0.0683586 
26.982 1 83 -0.0932784 8.52352 2.52241 3.89142 -3.69549 -1.5738 -0.503938 -0.304173 0.700171 0 0 0 0 0 0 -0.116373 -0.0676629 -0.173756 -3.47989 23.6277 9.28567 3.75719 -1.67863 -0.197252 -0.509918 -0.300525 0.720541 7.83266 -7.40166 -5.46683 4.02753 -5.68081 -2.90365 -0.497935 -0.307795 0.679795 
26.982 1 242 -0.21454 6.50521 4.7081 2.61566 -4.5347 1.18778 0.186001 0.370324 -0.436246 0 0 0 0 0 0 -0.158074 -0.00499658 -0.121821 -7.6227 16.264 12.875 1.82523 -2.83542 1.95137 0.183427 0.383363 -0.458182 11.7355 -4.18979 -4.44391 3.40458 -6.2065 0.473086 0.188634 0.357314 -0.414326 
26.982 1 84 -2.72893 10.7044 2.60017 -2.24363 2.13384 -2.51958 -0.075516 -0.594458 0.178067 0 0 0 0 0 0 -0.176856 -0.127274 -0.16272 41.5719 17.4405 -13.5774 -1.88365 3.00183 -4.03559 -0.0818875 -0.617839 0.17239 39.2213 3.40362 17.4727 -2.61258 1.30814 -0.9807 -0.0691852 -0.571122 0.183708 
26.982 1 281 43.0946 8.50807 4.32684 -1.1513 -1.13321 5.14713 -0.0568599 0.34354 0.281609 0 0 0 0 0 0 0.0268106 -0.0256745 -0.0776002 43.749 30.9878 3.77633 -1.28405 1.6458 5.2102 -0.0553933 0.346484 0.293972 37.4258 -14.7598 3.82799 -1.0274 -3.89447 5.12668 -0.0583288 0.34065 0.269262 
26.982 1 88 1.86476 10.3568 2.5165 -2.56063 -2.08763 1.08716 0.498354 0.0418576 0.416812 0 0 0 0 0 0 0.0337191 0.0190351 -0.217678 -12.0599 17.3514 9.00113 -5.00336 -1.03825 2.02521 0.516707 0.0524081 0.438482 19.9163 2.6783 -5.23912 -0.100992 -3.11305 0.17867 0.479986 0.0312903 0.395148 
26.982 1 48 2.11692 6.35596 2.6372 -2.69455 0.489837 0.346284 -0.20563 0.0837617 -0.333814 0 0 0 0 0 0 -0.0708959 0.0394493 -0.17598 -14.7317 22.0525 -10.2001 -5.75686 4.12873 -2.48035 -0.209026 0.0893483 -0.34395 23.0615 -10.3065 14.2365 0.381964 -3.13054 3.1967 -0.202253 0.0782361 -0.32368 
26.982 1 282 -0.354926 10.5084 4.53712 -0.33925 -1.29427 0.140973 0.0291196 -0.150824 -0.646557 0 0 0 0 0 0 -0.0760414 -0.0574387 -0.0903952 -2.10665 32.7927 -1.1308 -0.0878036 1.25453 -0.801437 0.0288475 -0.154319 -0.648899 5.87254 -12.4733 9.05954 -0.59823 -3.82107 1.11539 0.0293848 -0.147332 -0.644189 
26.982 1 2823 22.7294 20.3946 18.3103 -4.92876 -0.243824 -2.21167 -0.229686 -0.184439 0.0608196 0 0 0 0 0 0 -0.0248894 0.0852027 -0.120402 31.9674 23.3545 26.4474 -4.65102 -1.17742 0.312772 -0.230258 -0.201336 0.0721004 12.9674 17.6571 10.1036 -5.20623 0.721985 -4.71946 -0.228979 -0.167552 0.0496415 
26.982 1 285 2.05495 8.33553 4.53865 1.18792 2.06955 -4.26471 -0.00103129 0.296023 0.0965828 0 0 0 0 0 0 -0.0306795 0.0217412 -0.0700474 -14.5483 19.5886 3.27474 -1.21636 4.63394 -4.54831 0.00146657 0.316864 0.0994881 22.7727 -3.77749 4.69518 3.60558 -0.492708 -3.95462 -0.00353342 0.2752 0.0937173 
26.982 1 87 4.2803 8.2873 2.60339 0.410057 5.39511 -2.27506 0.0278977 -0.0257823 0.0746796 0 0 0 0 0 0 -0.027167 0.059452 -0.179731 -3.07398 14.1477 9.85394 -1.09436 5.86371 -2.15029 0.0284303 -0.0135786 0.0755406 15.2184 1.65003 -5.86904 1.92846 4.95944 -2.36403 0.0273386 -0.0379548 0.0738012 
26.982 1 246 4.23264 6.36152 4.65664 2.48262 -3.31831 -1.2501 0.326238 0.584027 0.273887 0 0 0 0 0 0 0.00574983 0.000735034 -0.0497176 10.1849 10.4902 13.716 2.46587 -3.50809 0.213363 0.333416 0.591286 0.263053 1.85051 1.31239 -5.53447 2.51301 -3.09864 -2.68842 0.319043 0.576787 0.284765 
26.982 1 289 6.70767 8.41562 4.71075 0.120545 1.9632 -1.30243 -0.0577496 -0.226978 -0.375298 0 0 0 0 0 0 -0.00354662 -0.00314258 -0.0649003 15.9595 10.2827 23.7326 1.74946 3.69336 2.57374 -0.0643023 -0.228318 -0.401304 0.437087 5.74218 -15.4393 -1.51018 0.257395 -5.15082 -0.051185 -0.225626 -0.349276 
26.982 1 52 6.65795 6.49316 2.58239 0.667458 2.23024 0.282123 -0.132438 0.531782 0.602821 0 0 0 0 0 0 0.0319189 -0.0327303 -0.187316 10.5998 5.50334 11.7898 1.60116 2.21123 1.09594 -0.140058 0.542774 0.620786 5.65631 6.59267 -7.75538 -0.274492 2.28349 -0.480359 -0.124776 0.520802 0.584895 
26.982 1 92 6.63071 10.2813 2.74936 -2.10957 1.09123 1.45131 0.106019 0.164918 -0.0730432 0 0 0 0 0 0 -0.0287172 0.0618602 -0.194413 6.06215 10.8473 14.2186 -2.19316 0.781239 1.80093 0.105852 0.180671 -0.0855848 10.1732 9.09765 -9.86453 -2.0321 1.42842 1.15086 0.106225 0.149193 -0.0605245 
26.982 1 46 4.163 6.49487 0.595036 -0.751515 -3.63133 0.43424 -0.0444212 0.0283674 0.448062 0 0 0 0 0 0 0.0053535 0.0109506 -0.25978 -4.39902 -1.79988 10.8356 -2.69941 -4.12675 2.2056 -0.0549219 0.0134979 0.470374 16.2247 13.9016 -10.8939 1.19994 -3.10193 -1.28719 -0.0339712 0.0432643 0.425771 
26.982 1 91 9.12451 8.43464 2.65055 -2.63885 -3.84028 4.50978 -0.534882 -0.198441 0.217698 0 0 0 0 0 0 0.0257337 -0.0332354 -0.202177 13.6905 6.57538 7.41148 -2.07661 -3.91999 5.43339 -0.541622 -0.200982 0.220719 6.9774 9.49876 -3.24986 -3.21774 -3.73339 3.63269 -0.528085 -0.195929 0.214681 
26.982 1 250 8.9303 6.32767 4.40475 0.365762 0.960113 -2.61686 -0.194263 0.367004 0.636666 0 0 0 0 0 0 0.00377158 0.00859679 -0.0613171 9.6297 14.044 29.2423 1.19073 1.34065 -0.385242 -0.19587 0.38482 0.662558 10.6548 -2.17401 -21.6775 -0.474053 0.626711 -4.8479 -0.192607 0.349212 0.610818 
26.982 1 290 8.91613 10.2539 4.78074 -0.472317 0.011447 -0.456118 -0.0366627 0.393765 -0.722662 0 0 0 0 0 0 0.000997754 0.0187792 -0.0700427 12.6645 25.9408 38.1995 0.629604 2.76702 4.66206 -0.0401653 0.407259 -0.748267 7.59448 -6.14002 -29.7152 -1.58721 -2.73789 -5.54291 -0.0331345 0.380296 -0.697027 
26.982 1 293 11.1992 8.51014 4.72416 -0.423278 2.57947 0.746479 0.097587 -0.205526 -0.0842578 0 0 0 0 0 0 0.00750043 -0.00451954 -0.0699159 10.5941 25.0683 31.9711 -0.00109803 6.25113 3.9245 0.100379 -0.209247 -0.0967116 13.7888 -8.93322 -23.6245 -0.852526 -1.07997 -2.413 0.094823 -0.201804 -0.0718121 
26.982 1 89 6.47218 8.52496 0.780172 -2.23894 5.4403 4.00056 0.255416 -0.1949 -0.221614 0 0 0 0 0 0 -0.000572813 0.0135423 -0.275127 13.4464 15.0228 -9.15254 -0.650473 6.62192 0.66999 0.264693 -0.197589 -0.230702 2.42278 1.2518 9.46491 -3.84021 4.29449 7.3741 0.246174 -0.192219 -0.21259 
26.982 1 2813 11.1704 20.1528 16.4045 -0.022601 1.05988 3.35263 -0.274479 0.077798 0.321588 0 0 0 0 0 0 -0.0368704 0.0899025 -0.0652666 14.4142 21.8355 30.5285 0.534613 1.19234 6.55385 -0.276468 0.0724833 0.341688 9.87478 18.6516 2.08228 -0.591565 0.960952 0.16736 -0.272589 0.0831518 0.301458 
26.982 1 56 11.2879 6.4308 2.80353 -0.292577 -4.53136 3.79032 -0.289599 0.79267 -0.632096 0 0 0 0 0 0 -0.0336489 0.0153486 -0.223131 17.4642 12.9981 12.4186 -0.108039 -3.61362 5.53857 -0.287321 0.809129 -0.653671 7.13958 -1.02404 -7.95876 -0.475624 -5.41197 2.09073 -0.291837 0.776192 -0.610583 
26.982 1 95 13.4518 8.44348 2.65677 0.163205 4.08277 -4.33006 -0.178112 0.254107 -0.0934473 0 0 0 0 0 0 -0.000190843 0.0442747 -0.218803 11.4637 18.1127 -6.98297 -0.853451 5.58054 -5.85825 -0.177706 0.267497 -0.100227 16.9426 -2.07988 11.1687 1.18479 2.59313 -2.75627 -0.178534 0.240683 -0.0866235 
26.982 1 254 13.4158 6.61743 4.797 3.91707 0.528271 -6.6736 0.00792441 -0.144574 -0.242067 0 0 0 0 0 0 -0.0023104 -0.00125915 -0.053761 9.29893 3.06102 28.1471 2.69963 0.074763 -2.24674 0.0106268 -0.15353 -0.257149 19.0791 9.31008 -19.7173 5.14564 1.01679 -11.0731 0.00520942 -0.135597 -0.227047 
26.982 1 54 13.3927 6.43852 0.760624 1.94871 -4.33787 -0.841901 -0.129318 0.267952 -0.155097 0 0 0 0 0 0 -0.0306878 0.0613787 -0.280922 8.26627 18.6403 -17.7715 1.19138 -2.83422 -2.90603 -0.124616 0.292821 -0.16163 20.0522 -6.73404 17.9462 2.71934 -5.8238 1.25039 -0.134071 0.243052 -0.148552 
26.982 1 100 15.7407 10.4288 2.66605 -1.36742 -4.67781 0.601556 -0.404777 0.0825386 -0.283037 0 0 0 0 0 0 -0.0137931 -0.0406305 -0.226754 18.2766 39 -11.22 -1.22741 -1.81657 -1.10798 -0.416084 0.0812561 -0.292562 14.2277 -18.8248 15.3707 -1.49985 -7.53438 2.34494 -0.393496 0.0837823 -0.273432 
26.982 1 60 15.5922 6.44078 2.80708 7.81332 -0.811581 1.58901 0.0113279 0.487535 -0.475744 0 0 0 0 0 0 0.0353641 0.0419363 -0.189439 26.1359 8.74987 -4.89197 9.00499 -1.57843 1.67644 0.0139338 0.50923 -0.487716 6.02446 3.16857 9.32916 6.62212 -0.0205124 1.5424 0.00866535 0.465867 -0.463801 
26.982 1 297 15.6483 8.57857 4.66772 -2.76657 -2.59806 2.9832 -0.0542739 -0.234892 0.0620703 0 0 0 0 0 0 0.00599521 -0.00254799 -0.0703549 23.2786 27.4907 0.476892 -1.94608 1.43179 3.18785 -0.0503606 -0.240554 0.0591656 9.03638 -11.1514 7.78478 -3.57957 -6.60315 2.8071 -0.0582366 -0.229213 0.064995 
26.982 1 99 17.7705 8.53399 2.71288 -6.12136 -0.87248 -3.28182 0.192026 -0.29411 -0.334301 0 0 0 0 0 0 -0.0194049 -0.0107745 -0.229032 21.8053 14.78 1.24982 -4.61049 0.481322 -2.06617 0.192484 -0.29955 -0.338817 14.2323 1.42278 3.00976 -7.63561 -2.1995 -4.45071 0.191518 -0.288683 -0.329768 
26.982 1 258 17.8965 6.42423 4.74958 -2.76366 1.84991 5.1735 0.083943 0.0296879 -0.0968988 0 0 0 0 0 0 0.00539527 -0.00270649 -0.0684352 16.7679 9.26609 4.76126 -2.88126 1.68449 5.45421 0.0868819 0.0380199 -0.10422 19.4703 2.66795 3.658 -2.65653 2.04174 4.92255 0.080935 0.0214039 -0.0896174 
26.982 1 64 20.0483 6.62463 2.69129 0.153609 -1.48607 3.98479 -0.00987798 -0.836746 -0.208928 0 0 0 0 0 0 -0.000390452 -0.0692307 -0.213535 21.3953 3.47715 -1.43006 0.792085 -2.10408 3.88158 -0.00676417 -0.84458 -0.195623 18.6639 8.88568 5.61742 -0.493037 -0.835285 4.13102 -0.0130716 -0.82892 -0.222241 
26.982 1 301 20.0415 8.40298 4.56143 0.773985 -0.755193 -2.88805 0.0448278 0.310277 0.457255 0 0 0 0 0 0 -0.00236633 0.00705021 -0.0514954 14.8728 -1.84572 0.931923 0.540686 -2.26731 -3.59386 0.0467629 0.322248 0.472691 25.1635 17.8461 7.14361 1.00229 0.778896 -2.14422 0.0428145 0.298389 0.441841 
26.982 1 298 17.83 10.4941 4.72936 -2.67773 4.62053 -0.45263 0.315732 -0.0406623 -0.0443232 0 0 0 0 0 0 0.0116543 -0.00986186 -0.059908 15.7971 12.13 -14.1441 -2.8517 5.36653 -1.84206 0.33111 -0.0457424 -0.0477195 20.3879 8.15748 22.544 -2.4989 3.88758 0.961783 0.300298 -0.0356083 -0.0409235 
26.982 1 3009 6.61641 20.3357 20.197 4.50867 -4.23982 -0.959271 -0.327517 -0.156433 0.278053 0 0 0 0 0 0 -0.0787258 0.0648679 -0.0496763 8.92558 16.522 15.5577 4.86012 -5.63645 -0.845127 -0.337563 -0.166762 0.29782 7.25856 24.2198 25.0356 4.14582 -2.82901 -1.04568 -0.31747 -0.146156 0.258247 
26.982 1 104 20.2648 10.5155 2.65637 3.74246 -2.08649 5.9737 -0.558449 0.21685 0.0264626 0 0 0 0 0 0 -0.046562 0.0211327 -0.184687 21.4935 28.5641 9.43798 4.84533 0.322516 8.1998 -0.571048 0.221331 0.0238065 19.0304 -8.26347 -5.28403 2.63663 -4.48995 3.79715 -0.545913 0.212356 0.0291322 
26.982 1 103 22.206 8.38678 2.65338 4.23187 1.79227 -2.6827 0.660666 -0.101521 0.223012 0 0 0 0 0 0 0.045152 -0.0455642 -0.18179 17.0417 18.6851 0.610106 3.76115 2.72697 -3.19857 0.687482 -0.0980182 0.231052 26.827 -2.64788 3.53451 4.70005 0.893973 -2.11996 0.633789 -0.104962 0.214954 
26.982 1 262 22.4032 6.3903 4.78437 -0.404276 -1.98228 2.00043 0.134105 -0.151788 -0.623543 0 0 0 0 0 0 0.00535142 0.00369953 -0.071466 20.0528 4.21195 3.33082 -0.900643 -3.12139 1.9869 0.139591 -0.139901 -0.640017 24.2324 7.63885 5.18903 0.0937357 -0.816869 2.05078 0.128525 -0.163651 -0.607138 
26.982 1 302 22.4367 10.4461 4.47144 -0.0623381 2.7679 -1.43695 0.218885 -0.178008 0.000199697 0 0 0 0 0 0 0.00568566 -0.0171302 -0.0516341 17.5085 27.2379 3.67913 -0.298277 5.28045 -1.39246 0.227352 -0.189353 0.000114972 26.8377 -6.91918 4.21695 0.174041 0.277479 -1.44549 0.210387 -0.166608 0.000328671 
26.982 1 101 20.1031 8.52851 0.741762 -1.2663 3.65511 -0.131978 -0.0467209 0.00183334 -0.226721 0 0 0 0 0 0 -0.0351828 -0.0342457 -0.276005 17.3615 5.28383 38.9082 -0.70062 1.86711 -0.399689 -0.047733 0.013185 -0.218608 22.8231 10.9987 42.4487 -1.83594 5.48193 0.16762 -0.0457522 -0.00950919 -0.234841 
26.982 1 305 24.8734 8.57744 4.51194 -0.751668 3.99658 -0.0157904 -0.329999 -0.382536 -0.181738 0 0 0 0 0 0 -0.0108091 -0.0281786 -0.0666527 25.8899 37.8969 -13.2727 -0.686393 8.19604 -1.89545 -0.333423 -0.401143 -0.185145 22.8784 -21.4883 21.2334 -0.812423 -0.171361 1.89619 -0.326571 -0.363847 -0.178264 
26.982 1 68 24.6242 6.45794 2.65824 -0.561064 -3.55476 2.07187 0.178195 0.337133 -0.0531845 0 0 0 0 0 0 -0.0284501 0.0143545 -0.20924 28.138 13.8544 4.80672 -0.273734 -2.30458 1.69415 0.184873 0.363006 -0.0405657 20.1283 -1.90959 -0.695101 -0.843623 -4.78268 2.48562 0.171462 0.311299 -0.0658226 
26.982 1 2807 4.27168 20.1597 18.4841 1.80075 -2.32427 0.543811 0.0711731 -0.23749 -0.495103 0 0 0 0 0 0 -0.129842 0.101044 -0.0347468 4.05005 42.487 17.5801 1.22697 0.511972 0.63966 0.0639164 -0.237436 -0.509675 7.93949 -2.02328 19.3957 2.366 -5.14294 0.47071 0.0784906 -0.237555 -0.48053 
26.982 1 102 22.3233 10.4623 0.75137 -3.00709 -2.2386 4.94049 0.312071 0.272165 0.230134 0 0 0 0 0 0 0.00179698 -0.0109764 -0.281189 29.1627 12.8071 47.8343 -1.61282 -1.30155 6.15335 0.32368 0.28472 0.228594 14.9523 7.49911 33.5973 -4.40475 -3.14796 3.76492 0.300412 0.259607 0.23164 