ITEM: TIMESTEP
16850
ITEM: NUMBER OF ATOMS
4000
ITEM: BOX BOUNDS pp pp pp
-3.49882 43.9988
1.3305 39.1695
0.846937 39.6531
ITEM: ATOMS mass type id x y z vx vy vz fx fy fz xrad yrad zrad vxrad vyrad vzrad fxrad fyrad fzrad xub yub zub vxub vyub vzub fxub fyub fzub xlb ylb zlb vxlb vylb vzlb fxlb fylb fzlb 
26.982 1 43 -2.34742 5.28479 2.99588 -0.55484 -0.0307482 -3.01757 0.0840964 0.300383 0.247236 0 0 0 0 0 0 -0.127206 -0.0963848 -0.130989 -17.8515 9.95945 25.8743 0.165151 4.90525 2.72319 0.076722 0.315661 0.26963 19.3646 -1.36612 -21.3109 -1.3185 -4.94776 -8.7782 0.0913788 0.285032 0.22469 
26.982 1 202 -1.96799 3.25546 5.03107 1.38943 -6.31943 0.366723 -0.643571 0.544658 0.5226 0 0 0 0 0 0 -0.128049 -0.1312 -0.0995695 7.0577 -15.0008 11.0258 3.12397 -4.2196 7.97367 -0.660091 0.553128 0.562544 -4.79777 19.3116 -2.05899 -0.411519 -8.38163 -7.26921 -0.627132 0.536302 0.48233 
26.982 1 245 -0.278473 5.52181 4.99223 1.3325 -0.489866 2.26825 -0.0739849 -0.120104 0.302331 0 0 0 0 0 0 -0.0231799 -0.00205733 -0.025606 -10.0105 14.9219 9.31839 -3.99286 4.58561 9.68998 -0.080001 -0.105975 0.318931 15.0314 -5.71783 -0.520606 6.63083 -5.46904 -5.19442 -0.0680223 -0.134188 0.285441 
26.982 1 8 -0.229683 3.49211 2.93842 4.9501 0.966416 -2.27979 0.764049 -0.0763734 -0.0237551 0 0 0 0 0 0 -0.0644083 -0.107158 -0.1126 -5.57241 22.0676 10.2618 4.88378 3.69914 3.22347 0.784394 -0.0786861 -0.0154443 10.6615 -17.3678 -5.76025 4.97719 -1.71427 -7.82993 0.743619 -0.0739846 -0.0322982 
26.982 1 45 0.00139863 5.85415 1.43737 1.39554 -0.424537 -7.3829 0.0668499 -0.0724735 -0.080802 0 0 0 0 0 0 0.00831353 0.0428302 -0.260969 -3.83158 8.30793 52.3254 -1.46608 0.969035 -4.1669 0.0687941 -0.0628436 -0.0805859 9.43677 1.59883 30.3558 4.29066 -1.76292 -10.6134 0.0649668 -0.0821686 -0.081172 
26.982 1 205 0.346016 1.52915 5.04286 6.13614 -4.40431 1.90876 -0.540678 -0.0687689 -1.01358 0 0 0 0 0 0 -0.0849946 -0.161006 -0.101413 -1.48484 33.8355 11.3621 14.6345 -7.13029 10.5362 -0.524608 -0.0835881 -0.985182 7.62706 47.9954 -2.42774 -2.43053 -1.64961 -6.7314 -0.556912 -0.0538706 -1.04221 
26.982 1 2801 -2.99669 19.4475 16.1228 -0.578284 -2.20288 3.87573 -0.185543 -0.0621193 -0.0704254 0 0 0 0 0 0 -0.14939 0.0879818 -0.144388 41.7315 8.00723 31.7077 1.20626 -4.59394 0.444872 -0.174375 -0.0430218 -0.0777414 40.4528 31.008 0.542724 -2.42621 0.219361 7.39347 -0.196797 -0.0813941 -0.0630421 
26.982 1 209 6.02632 1.81866 4.47677 4.24197 2.90211 -0.655275 -0.302495 0.904634 -0.638291 0 0 0 0 0 0 0.0107327 -0.139598 -0.131076 5.53987 1.74379 -1.90844 -2.01681 0.0172344 6.51445 -0.320282 0.901088 -0.640077 10.5326 -0.431042 9.70249 10.4871 5.92528 -7.79594 -0.284701 0.908377 -0.63659 
26.982 1 47 2.08522 6.07473 3.82306 3.81714 2.39779 2.24973 0.22883 0.0461121 -0.512905 0 0 0 0 0 0 -0.011184 0.0335435 -0.112661 -11.5506 23.1221 -9.81799 -0.778569 4.48999 2.94724 0.215366 0.06266 -0.513265 20.5766 -12.5819 16.0202 8.42224 0.444602 1.46547 0.242367 0.0296984 -0.512804 
26.982 1 206 2.00169 3.55204 4.84152 2.41507 -1.0691 4.80665 -0.27788 0.694509 0.0276956 0 0 0 0 0 0 -0.00598544 -0.0526899 -0.0292184 11.5217 -14.111 37.1814 7.91207 -8.25421 18.3857 -0.271595 0.682563 0.0465397 -2.70051 19.1641 -28.5926 -3.11517 6.24757 -8.79874 -0.284233 0.706685 0.00860404 
26.982 1 12 4.25749 4.20531 3.65598 3.42699 -0.0922452 -0.144164 0.280255 -0.972566 -0.0823956 0 0 0 0 0 0 -0.0105825 -0.0705373 -0.0846612 7.60454 1.84239 -8.64945 5.87611 -10.0289 1.32587 0.273434 -1.02372 -0.0772473 4.93449 4.62363 14.6343 0.938147 10.0024 -1.65563 0.287023 -0.921168 -0.0877459 
26.982 1 9 4.66526 2.13829 1.78005 0.824394 -3.62298 -6.27723 0.517884 -0.0557247 0.384629 0 0 0 0 0 0 0.0272082 -0.177305 -0.193728 1.36533 16.1653 9.95122 6.25531 -9.43831 1.58198 0.53599 -0.0770831 0.40954 12.0042 -14.3344 -7.74932 -4.66556 2.28871 -14.1831 0.499696 -0.0341921 0.359481 
26.982 1 6 2.30929 4.16512 1.58836 5.39058 3.30605 2.65875 0.156272 -0.193956 0.66217 0 0 0 0 0 0 -0.0130895 -0.00994032 -0.249305 -5.13904 -17.6617 22.4002 5.34629 -1.04195 7.76744 0.148868 -0.206036 0.680134 14.4999 23.8548 -20.6492 5.38545 7.74271 -2.48428 0.163608 -0.181718 0.643992 
26.982 1 249 4.38522 5.9966 5.49975 2.71822 -0.944597 -0.844943 -0.220698 0.416891 1.16452 0 0 0 0 0 0 -0.0250826 -0.00510591 0.0171886 -0.643613 -17.1753 18.2616 -2.51199 -6.33431 4.28627 -0.24667 0.420495 1.19695 13.4553 27.4676 -8.39526 7.94041 4.57066 -5.98835 -0.194638 0.413542 1.1319 
26.982 1 51 6.85976 4.94208 3.07449 -0.260358 4.23165 -4.93476 0.409244 0.171888 -0.280633 0 0 0 0 0 0 0.040761 -0.0289006 -0.143189 -7.58105 7.91836 -23.0552 4.69191 -3.02349 -9.31757 0.440439 0.154457 -0.287748 24.5738 0.296109 27.941 -5.26787 11.6289 -0.525457 0.37794 0.189568 -0.273536 
26.982 1 210 6.79358 4.26804 5.67858 2.02923 -1.98534 -0.363626 0.461327 -0.239419 -0.273368 0 0 0 0 0 0 -0.0010429 -0.104947 0.000974063 -4.9491 2.63921 14.2038 -3.87428 -10.1125 1.55296 0.465532 -0.274436 -0.274433 21.8711 3.80714 -4.04875 7.92028 6.25907 -2.2479 0.457177 -0.204154 -0.27234 
26.982 1 11 8.49502 2.43564 3.40108 -3.44469 2.67968 -0.863173 0.443697 0.254011 -0.046259 0 0 0 0 0 0 0.0293098 -0.190032 -0.151194 -3.14235 69.1612 -29.5972 -7.16365 5.5863 -6.34051 0.443449 0.245667 -0.0589348 23.5439 14.6935 35.0247 0.281527 -0.096047 4.63101 0.443813 0.262524 -0.0335803 
26.982 1 49 4.981 4.97758 1.06889 -0.945721 -2.18389 -0.0422863 -0.0273271 -0.283659 -0.530154 0 0 0 0 0 0 -0.00745172 0.0235508 -0.291558 22.8612 -13.8912 -17.4003 4.75837 -5.89214 -2.37782 -0.0164846 -0.301815 -0.540865 -8.95644 22.0195 18.2054 -6.74359 1.64341 2.32011 -0.0383575 -0.265331 -0.519544 
26.982 1 98 18.4534 11.5834 1.85732 -0.875966 -5.52254 2.52398 0.077049 0.456398 -0.657339 0 0 0 0 0 0 0.00206403 0.00739304 -0.247472 5.11245 15.3859 58.0012 2.17306 1.86505 5.30522 0.0937893 0.460583 -0.658718 32.503 6.61457 25.4332 -3.99224 -12.9023 -0.210222 0.0599515 0.452297 -0.655927 
26.982 1 10 7.37897 3.26863 1.12495 -3.76346 3.34976 -3.3966 -0.0971066 -0.503215 -0.393687 0 0 0 0 0 0 0.0413807 -0.11013 -0.240616 19.7977 4.87847 -3.96533 1.64685 2.03102 0.314867 -0.0841325 -0.520797 -0.384827 -1.64711 -0.5655 4.88155 -9.2106 4.73601 -7.07786 -0.110301 -0.485531 -0.402647 
26.982 1 253 9.41689 5.12628 4.13583 -2.08045 2.28038 3.09791 0.0897839 -0.159423 -0.0700216 0 0 0 0 0 0 0.00072223 -0.0292912 -0.0867279 4.65881 2.27691 52.358 -4.80892 1.03601 4.32914 0.0823806 -0.168354 -0.0879426 16.975 6.35479 -45.2414 0.664115 3.66174 1.90198 0.0970754 -0.150271 -0.0519674 
26.982 1 16 11.5112 3.30973 2.69058 -5.54632 -1.58158 0.812032 -0.519457 -0.0843865 -0.283831 0 0 0 0 0 0 -0.00649963 -0.145895 -0.21907 -2.92896 30.8216 -3.79231 -15.8707 -0.00318659 -2.96844 -0.520558 -0.102775 -0.318664 28.8277 -26.3871 7.77382 4.84864 -3.09092 4.63514 -0.518391 -0.065817 -0.248941 
26.982 1 213 10.7325 2.36101 5.05057 1.29304 7.29562 -0.62017 0.407446 -0.351581 0.138446 0 0 0 0 0 0 0.00219377 -0.138644 -0.119596 6.76035 4.77225 16.4179 -1.8968 3.32631 -1.77255 0.416805 -0.37494 0.120031 17.5451 -2.49983 -7.56184 4.54586 11.3426 0.57041 0.398 -0.328077 0.156975 
26.982 1 255 11.9108 5.24529 5.46741 -2.06328 6.52194 -5.63971 -0.407603 -0.604071 -0.666046 0 0 0 0 0 0 -0.0153853 -0.0439483 -0.0310993 -3.88447 0.867553 55.3936 -10.6179 1.87784 2.63834 -0.42467 -0.624224 -0.669224 29.9181 7.86758 -45.5219 6.55734 11.275 -13.9091 -0.390593 -0.583744 -0.662771 
26.982 1 55 14.1778 6.26506 4.57347 -8.68664 -1.072 1.56134 0.61428 0.370404 -0.714167 0 0 0 0 0 0 0.0105081 0.00832263 -0.0646565 2.93467 12.8281 25.9195 -18.4296 -0.788891 6.26471 0.629563 0.381417 -0.733583 27.6679 -1.98318 -17.9943 1.16865 -1.25059 -3.08656 0.598969 0.359529 -0.694725 
26.982 1 214 14.1549 3.55268 5.55128 0.485949 -2.04377 -2.81376 0.808309 -0.577208 -0.604929 0 0 0 0 0 0 0.00769009 -0.168846 -0.00455993 20.0955 9.32902 17.1435 -7.47284 -5.19488 2.7355 0.822905 -0.627446 -0.604146 10.4612 -4.33096 -7.28993 8.55748 1.18763 -8.33734 0.793739 -0.526831 -0.605613 
26.982 1 20 16.4434 4.28941 3.71632 2.21348 -0.227686 0.364705 0.0741272 0.438323 0.167131 0 0 0 0 0 0 -0.0030092 -0.0549998 -0.0833337 27.6675 -17.1298 13.1423 -1.77947 -4.33348 3.47627 0.0784487 0.435949 0.162473 6.68154 23.6253 -6.97145 6.33817 3.91617 -2.71223 0.0698463 0.440807 0.171815 
26.982 1 257 16.7279 6.07637 5.89976 -3.18565 -2.1589 -6.13663 -0.321439 0.0840048 -0.397022 0 0 0 0 0 0 -0.0113755 -0.00752226 0.00551542 19.8305 -15.6699 27.5283 -7.2879 -2.57546 2.71813 -0.329944 0.0858387 -0.393089 15.1039 26.0148 -16.8933 1.00895 -1.69029 -14.9587 -0.312976 0.0822565 -0.400966 
26.982 1 14 13.972 4.34147 2.77462 1.11359 -0.101667 -2.10306 0.0939994 -0.270881 -0.331104 0 0 0 0 0 0 -0.0298035 -0.0763175 -0.197864 -4.17519 38.914 41.9069 -12.6428 -1.45341 -3.6039 0.0824125 -0.296925 -0.343686 34.4092 -32.3487 43.5249 15.0123 1.34072 -0.542442 0.105653 -0.244631 -0.318401 
26.982 1 57 16.3466 5.73934 1.29394 -0.439366 1.44758 -0.646927 0.452195 -0.896419 0.0602822 0 0 0 0 0 0 -0.0194214 -0.0106736 -0.272596 23.3676 37.4625 -10.3023 -3.78381 7.6681 -2.45674 0.462626 -0.908274 0.0655178 10.7657 -27.8045 11.5775 3.01377 -4.71931 1.21381 0.44181 -0.884504 0.0550202 
26.982 1 1090 9.08286 10.473 20.0347 3.47065 5.56341 0.477884 -0.206465 -0.380311 -0.156462 0 0 0 0 0 0 -0.0668482 -0.11967 0.0884985 14.1391 33.3425 45.6534 5.57373 15.713 6.28669 -0.20939 -0.37289 -0.151827 7.33402 -13.5208 -5.091 1.32926 -4.63858 -5.30088 -0.20348 -0.387762 -0.16114 
26.982 1 17 15.857 2.6907 1.77812 2.40873 5.19974 5.92036 -0.23499 -0.879678 -0.0930498 0 0 0 0 0 0 -0.0620217 -0.182933 -0.221784 27.1384 53.0393 30.5639 -1.9025 6.4997 2.13971 -0.248202 -0.908084 -0.0923347 5.98217 31.3018 52.8519 6.86346 4.0038 9.73776 -0.221569 -0.851218 -0.0938388 
26.982 1 218 18.4233 3.84436 5.33861 -0.901092 -1.89042 0.00347204 0.190158 -0.217472 -0.332709 0 0 0 0 0 0 0.00633989 -0.0833946 -0.0113593 -0.481742 -2.15242 6.28429 -8.38061 -1.28222 2.43805 0.191172 -0.210179 -0.34433 38.0054 7.77353 3.22765 6.65271 -2.47689 -2.41798 0.189113 -0.224782 -0.321042 
26.982 1 59 18.7391 5.95156 3.69198 -3.94747 4.98376 -0.696141 -0.314881 0.282262 -0.235819 0 0 0 0 0 0 0.0153984 -0.0104431 -0.0859745 30.894 -11.6239 19.3534 -3.50383 5.59335 0.202886 -0.301394 0.272641 -0.260301 7.21245 21.6039 -13.1785 -4.35812 4.33776 -1.55067 -0.328575 0.291833 -0.2113 
26.982 1 24 20.6701 4.12773 3.44464 4.45799 0.158874 2.3302 0.335332 -0.386348 -0.192681 0 0 0 0 0 0 0.0284748 -0.0331299 -0.0930989 5.52496 19.6082 19.9961 1.42813 7.23766 5.91673 0.348992 -0.360964 -0.204787 35.7531 -13.3477 -14.3975 7.49945 -6.88851 -1.23253 0.321621 -0.411877 -0.180677 
26.982 1 261 21.6405 6.09194 5.46663 -0.335453 7.68797 3.57682 -0.233334 -0.167763 0.0275431 0 0 0 0 0 0 0.0220862 -0.0270144 -0.0404295 19.0746 16.0219 5.16759 0.144891 16.8984 3.22644 -0.216879 -0.188602 -0.00753981 24.1442 -5.71026 4.59499 -0.803057 -1.51711 3.9384 -0.249843 -0.147056 0.0627293 
26.982 1 19 18.3611 1.84551 2.97777 -1.8796 3.27641 -1.26585 -0.445232 0.457029 -0.116403 0 0 0 0 0 0 -0.0116481 -0.226833 -0.106947 35.1609 0.654084 16.3548 -7.23285 4.00282 0.0675196 -0.452515 0.466598 -0.118192 2.21094 0.611934 -11.6737 3.57664 2.59316 -2.56442 -0.437764 0.447358 -0.114631 
26.982 1 221 20.4098 1.68745 4.78507 -4.4729 0.847381 -2.38364 0.117909 0.527237 0.0442774 0 0 0 0 0 0 0.0179308 -0.171709 -0.116381 1.23603 40.2825 -10.1798 -9.25296 3.80919 -3.26651 0.129197 0.559902 0.0478652 39.5624 41.9782 18.5405 0.321562 -2.08858 -1.50585 0.106537 0.494392 0.0406741 
26.982 1 63 24.1687 4.35003 2.94388 4.50855 -4.20607 0.837023 0.743931 -0.454495 0.0280357 0 0 0 0 0 0 0.0345837 -0.0485957 -0.17171 29.4217 28.9672 13.8957 2.05159 2.36315 4.22481 0.727056 -0.438426 0.0469921 18.2453 -22.1671 -9.26049 6.975 -10.7885 -2.53512 0.76098 -0.470709 0.00892226 
26.982 1 222 23.0062 2.86076 5.24539 3.95771 -3.04685 0.435562 -0.579105 0.474766 0.0127485 0 0 0 0 0 0 0.0291758 -0.202166 0.0074478 18.9356 19.8185 11.0307 7.02792 -0.746085 2.68924 -0.574692 0.475726 0.0229353 26.3414 -16.216 -1.71274 0.867005 -5.32792 -1.81322 -0.58359 0.473723 0.00251416 
26.982 1 28 26.3499 2.4283 2.82389 -0.0618138 -0.261412 1.05561 0.119699 -0.30058 0.00867606 0 0 0 0 0 0 0.00377306 -0.193578 -0.194693 32.958 9.30592 22.8752 1.65545 -0.421498 7.04547 0.113792 -0.317509 0.027085 18.4372 -6.51539 -18.7383 -1.78665 -0.0596728 -4.96236 0.125746 -0.283643 -0.00996471 
26.982 1 265 26.7052 4.81019 4.18085 2.45408 -1.28951 -3.21329 -0.316387 -0.187108 -0.0346894 0 0 0 0 0 0 -0.0148746 -0.0693074 -0.120989 31.5742 -21.2977 5.38563 1.56828 -5.23148 -2.06718 -0.335182 -0.20999 -0.0363135 20.5285 29.0515 1.74462 3.39208 2.71259 -4.33651 -0.297211 -0.164159 -0.0331289 
26.982 1 998 42.3342 17.2566 16.094 -0.980177 0.412072 -1.06764 0.333883 -0.442386 -0.0101466 0 0 0 0 0 0 0.0359738 -0.000141167 -0.0377559 35.3263 44.9703 30.4966 1.65715 -2.15085 0.866755 0.342234 -0.4343 -0.0205293 43.2562 -10.6476 1.6235 -3.65453 3.04509 -2.9339 0.325487 -0.450499 0.000247161 
26.982 1 23 22.7534 2.08152 2.77585 -1.06569 1.97258 -4.28294 -1.01402 -0.0973972 0.160662 0 0 0 0 0 0 0.0721865 -0.208478 -0.139776 12.1047 66.8782 17.4269 0.288085 7.44001 2.14572 -1.01242 -0.0954252 0.188916 32.7447 16.1191 -13.0913 -2.43513 -3.49268 -10.7076 -1.0156 -0.0995914 0.132186 
26.982 1 67 28.6841 4.616 2.45716 0.931593 -1.60565 4.73683 0.190093 -0.358617 0.0526591 0 0 0 0 0 0 -0.00139908 -0.0760675 -0.286955 27.6105 -8.20154 9.71097 0.327362 -5.02289 5.36987 0.182509 -0.385169 0.0509294 27.7894 15.5381 -6.14435 1.5708 1.89451 4.14957 0.197922 -0.331956 0.0543587 
26.982 1 226 28.9085 2.67187 4.26443 3.26769 6.36008 -4.23439 -0.425183 -0.141026 0.153631 0 0 0 0 0 0 -0.0107241 -0.181126 -0.152049 29.0639 -11.3032 18.9233 1.97443 4.403 -2.33263 -0.450727 -0.158534 0.153423 26.8234 14.722 -11.6839 4.60739 8.41273 -6.11006 -0.399389 -0.123331 0.153776 
26.982 1 32 31.1023 2.60324 2.5281 -9.00963 -0.638575 -4.86313 -0.776317 0.167791 -0.207477 0 0 0 0 0 0 0.00562859 -0.181753 -0.230391 11.8297 13.16 27.8138 -11.2959 0.781089 -3.1922 -0.798985 0.14907 -0.215701 47.7267 -9.95426 -24.1253 -6.68112 -1.97761 -6.49976 -0.753443 0.186639 -0.199266 
26.982 1 269 30.8729 4.74413 4.34148 -5.4774 0.550315 -0.503041 -0.331464 -0.0115884 0.475187 0 0 0 0 0 0 -0.0053466 -0.0549423 -0.116633 26.6607 14.3662 28.8011 -6.52593 -1.34696 0.788467 -0.342952 -0.0175718 0.477555 32.5073 -6.76439 -21.198 -4.38423 2.52681 -1.73504 -0.319821 -0.00549897 0.472822 
26.982 1 2839 41.8726 19.2366 17.8841 3.86327 -4.43309 0.224321 0.700304 -0.360354 0.581366 0 0 0 0 0 0 0.0134201 0.0626851 -0.0751117 40.2634 4.71347 37.3426 4.15992 -9.00169 1.27937 0.721425 -0.372148 0.568205 37.2741 34.0612 -1.34473 3.5275 0.20787 -0.771214 0.679049 -0.348607 0.594618 
26.982 1 71 32.9903 4.77535 2.61315 -5.99379 1.01663 0.326482 -0.225216 0.195608 -0.496417 0 0 0 0 0 0 0.00639055 -0.056907 -0.283463 31.4465 19.6689 2.37522 -5.91688 1.08326 1.19193 -0.223237 0.192621 -0.510665 31.085 -11.9841 1.69101 -6.05862 1.03154 -0.461856 -0.22718 0.198601 -0.482151 
26.982 1 230 32.9984 2.96499 4.55397 -2.18772 0.812544 2.7767 0.0122779 -0.372922 -0.0958962 0 0 0 0 0 0 0.0195357 -0.181156 -0.148058 14.1221 -9.03875 -9.52876 -3.31762 -1.78861 -0.624678 0.0239057 -0.390032 -0.0985823 48.5066 13.028 17.6174 -1.03329 3.49788 6.24364 0.000757246 -0.355747 -0.0932097 
26.982 1 273 34.9596 4.9602 4.50006 9.56054 -5.6322 -8.76675 -0.284574 -0.476225 0.323651 0 0 0 0 0 0 0.00959961 -0.0524283 -0.0902582 47.047 20.432 -12.8765 12.1214 -6.53296 -11.9621 -0.275434 -0.478649 0.33572 18.6261 -12.4382 20.755 6.95461 -4.67051 -5.52226 -0.293769 -0.47389 0.311541 
26.982 1 36 35.1601 2.77768 2.55145 5.00564 1.60523 1.63402 -0.506453 -0.646798 0.358287 0 0 0 0 0 0 -0.0030929 -0.186355 -0.209992 44.0297 -5.77801 -16.4168 8.5123 -0.33738 -0.877434 -0.508295 -0.657075 0.373771 22.0677 9.27112 20.3488 1.47013 3.61835 4.19938 -0.5046 -0.636499 0.342826 
26.982 1 75 36.9851 4.61771 2.60893 7.94865 0.209932 4.6769 0.621478 0.921636 -0.17787 0 0 0 0 0 0 8.63024e-05 -0.0541806 -0.253517 43.3726 25.1862 7.35691 11.3147 1.92125 6.49689 0.635096 0.951702 -0.180187 25.6059 -17.9792 -3.26408 4.51089 -1.45975 2.90685 0.607817 0.891499 -0.175593 
26.982 1 234 37.1553 2.7732 4.59398 0.160461 3.41292 4.84743 -0.253405 0.408744 0.267118 0 0 0 0 0 0 0.0121182 -0.174504 -0.128363 57.9611 -2.3887 -3.11294 7.08447 1.92157 4.26839 -0.244877 0.429421 0.288581 11.3683 5.83419 11.2933 -6.86874 4.97724 5.45927 -0.262098 0.388127 0.245535 
26.982 1 40 39.1513 2.97664 2.5818 0.814658 2.82706 -2.84089 0.187183 -0.0126282 0.734393 0 0 0 0 0 0 -0.0235518 -0.183384 -0.16068 53.7424 22.148 -5.86655 9.20636 4.50775 1.72783 0.201283 0.000800786 0.764314 18.9504 -18.3851 9.83331 -7.65336 1.1972 -7.42952 0.172946 -0.0259858 0.704339 
26.982 1 277 39.0354 5.00006 4.74203 -4.40984 -3.24509 -4.39695 -0.19106 0.0447153 0.0280369 0 0 0 0 0 0 -0.00450154 -0.0630907 -0.0646118 40.5089 30.3701 -6.12872 3.07771 -6.89075 -5.9084 -0.188286 0.049398 0.0346369 31.9288 -22.2272 14.6601 -11.9891 0.510398 -2.84218 -0.193978 0.0400778 0.0213109 
26.982 1 964 -3.409 17.2846 18.2501 -1.06407 -1.73896 -3.65158 0.240114 0.820663 -0.415745 0 0 0 0 0 0 -0.231013 -0.01933 -0.0658638 31.77 4.53681 17.9372 -1.46269 -11.598 -3.63123 0.244118 0.83564 -0.428923 49.6291 29.9334 18.619 -0.70405 8.21578 -3.61667 0.236011 0.805594 -0.402499 
26.982 1 415 12.7846 1.66885 9.4548 0.231931 3.43982 -5.78831 0.535605 0.0725084 0.313657 0 0 0 0 0 0 0.0279387 -0.263761 -0.0240949 12.2503 14.7782 51.2984 -0.963438 -0.452205 -6.71185 0.548216 0.0584381 0.300947 15.5363 -13.9968 -32.9522 1.47599 7.3499 -4.78359 0.523031 0.0865634 0.326475 
26.982 1 241 43.1626 5.24879 5.18501 1.11837 3.02743 -1.12437 0.144081 -0.613696 -0.49932 0 0 0 0 0 0 0.18162 -0.0690539 -0.0893837 3.8073 13.543 -15.1139 8.59764 2.1473 -0.616227 0.159786 -0.640225 -0.492661 -5.73779 -4.86559 24.3408 -6.47198 3.99802 -1.64813 0.128226 -0.587079 -0.50621 
26.982 1 813 11.2749 1.34522 16.1274 -2.46751 1.00922 0.794704 -0.0742291 0.0328623 -0.0446825 0 0 0 0 0 0 0.037513 -0.209726 -0.104009 7.68722 0.108532 8.55581 -1.60431 2.1631 -1.67359 -0.0792065 0.0342143 -0.0477154 17.5702 0.098815 23.9012 -3.31829 -0.122855 3.36821 -0.0692676 0.0313564 -0.0415237 
26.982 1 4 43.3914 3.16079 2.92802 -4.66255 -0.601215 1.65393 -0.124997 0.256733 0.823577 0 0 0 0 0 0 -0.0131612 -0.230251 -0.0605645 25.9592 5.15312 14.336 -3.13138 5.87066 11.3632 -0.130925 0.259862 0.870736 53.9493 -1.04575 -9.74562 -6.27314 -7.03849 -8.094 -0.119138 0.253665 0.776209 
26.982 1 79 41.1849 5.15456 2.98154 -0.986028 5.96142 -4.36925 0.121255 -0.444052 -0.136601 0 0 0 0 0 0 -0.0246069 -0.0876023 -0.121189 33.187 36.4934 -22.6559 3.06606 8.87499 -3.93407 0.132251 -0.452793 -0.123257 42.9309 -28.144 27.4321 -5.13472 3.10198 -4.81454 0.110131 -0.435328 -0.15007 
26.982 1 238 41.0937 3.1904 4.9823 1.38621 -0.471381 -2.11024 0.713289 -0.125903 -0.206762 0 0 0 0 0 0 0.0279801 -0.193731 -0.0718637 51.4881 -5.52796 -8.03511 5.64765 -0.853197 -1.94974 0.742876 -0.154143 -0.176848 24.4057 9.78539 16.9252 -2.96355 0.00358849 -2.29569 0.683544 -0.0975352 -0.2369 
26.982 1 41 43.2611 5.09642 1.05526 0.22434 3.56104 0.728524 -0.325711 0.336399 -0.146323 0 0 0 0 0 0 -0.00919398 -0.0395427 -0.259009 -7.43459 27.8804 5.55682 6.26897 14.4211 -1.52389 -0.331944 0.351287 -0.148694 5.81302 -19.6165 -4.95118 -5.90057 -7.29809 2.99662 -0.319586 0.321401 -0.143936 
26.982 1 141 20.6497 13.2995 1.30676 2.46439 -0.278472 6.59627 -0.0718316 -0.174433 0.055129 0 0 0 0 0 0 0.0619159 0.0423357 -0.261933 14.3724 38.3466 32.7742 0.359383 8.06363 16.5322 -0.0626584 -0.178893 0.075036 26.9571 -12.4405 49.6604 4.56065 -8.55976 -3.28757 -0.0812347 -0.16978 0.0352602 
26.982 1 90 7.46061 10.5619 1.05389 1.66994 5.19241 0.0691169 0.799747 0.25117 0.373167 0 0 0 0 0 0 0.0761166 -0.0213608 -0.292081 18.0552 -9.09738 39.9381 4.20882 1.1581 1.2571 0.828335 0.25902 0.378771 0.187332 29.3826 42.1251 -0.89371 9.3846 -1.04736 0.771038 0.243464 0.367642 
26.982 1 83 -2.3016 9.92439 3.60827 -5.05034 -3.70626 -7.4084 0.113555 -0.460416 0.158529 0 0 0 0 0 0 -0.198242 -0.000269873 -0.102234 -4.35541 31.374 12.6231 -6.74823 -0.987596 -6.58448 0.108373 -0.457839 0.159178 5.93714 -12.9451 -6.65049 -3.3834 -6.41497 -8.20319 0.118693 -0.463079 0.157781 
26.982 1 242 -2.40178 7.27769 4.94869 -4.12476 3.71054 0.674442 0.179128 0.436276 -0.27569 0 0 0 0 0 0 -0.119143 0.0192358 -0.100924 -8.32197 24.9244 22.5289 -1.47392 4.21101 7.16627 0.190651 0.443176 -0.281766 9.6282 -12.0422 -13.5883 -6.86528 3.23791 -5.78802 0.167459 0.429276 -0.269815 
26.982 1 48 -0.0380869 7.79536 3.33614 -2.95039 3.61753 3.33833 -0.402815 0.379075 0.522596 0 0 0 0 0 0 -0.01964 0.0251226 -0.130347 -32.6058 45.1061 -20.8879 -9.06273 9.38042 4.90787 -0.421901 0.396043 0.549714 38.2141 -31.1615 26.0589 3.21272 -2.091 1.68028 -0.383646 0.362055 0.495316 
26.982 1 88 0.368955 10.5865 2.81439 -1.69613 6.92523 -3.63778 0.396672 0.311523 0.353276 0 0 0 0 0 0 -0.0160476 -0.016423 -0.173089 -28.2697 25.87 23.1466 -6.87942 11.2483 4.74168 0.39309 0.315265 0.358161 34.783 -5.8672 -18.8862 3.58481 2.62691 -12.0237 0.400496 0.307757 0.348256 
26.982 1 42 -2.3163 7.56936 1.34147 1.69515 -3.96231 0.0882954 0.22618 0.307528 0.238925 0 0 0 0 0 0 -0.131258 0.00840573 -0.194681 0.28656 28.156 9.55295 -0.58272 1.49211 -0.171386 0.233347 0.333648 0.247714 1.36839 -14.6929 -8.45294 3.97726 -9.40911 0.359907 0.219009 0.281249 0.230099 
26.982 1 81 43.0998 9.48937 1.08111 1.92497 3.84805 4.87886 0.0407013 -0.158339 -0.135696 0 0 0 0 0 0 -0.0138462 0.059303 -0.262461 3.54155 24.3307 5.58459 10.5814 8.7222 7.44626 0.0565413 -0.149736 -0.140372 -5.50585 -6.68562 -4.86806 -6.81853 -1.00849 2.39208 0.0247426 -0.16703 -0.131038 
26.982 1 87 2.6631 8.80094 2.87217 -1.66022 0.486132 -4.10434 -0.393446 -0.421953 0.234541 0 0 0 0 0 0 -0.0331661 -0.0278557 -0.20788 -15.5586 16.6679 21.7364 -6.85186 2.30861 4.82205 -0.415089 -0.421435 0.250849 25.9144 -0.391553 -17.355 3.60507 -1.27149 -13.0526 -0.371624 -0.422437 0.218118 
26.982 1 286 2.61207 10.6678 4.85207 -4.20493 3.47516 -1.11474 0.0032168 0.296091 0.162404 0 0 0 0 0 0 -0.0237835 -0.00997819 -0.0184728 -6.16724 36.0437 64.0286 -8.18075 7.00197 13.3855 -0.0172839 0.297925 0.191149 16.5208 -16.0556 -55.7915 -0.120798 -0.0444698 -15.7032 0.0239594 0.294284 0.133429 
26.982 1 2423 22.7159 20.0116 9.38796 2.88409 0.266503 -4.68333 -0.263811 0.61218 0.498085 0 0 0 0 0 0 -0.0462289 0.105467 -0.0692109 6.40816 15.2594 27.6466 -2.47864 1.69488 -9.29309 -0.256836 0.635274 0.489701 38.4229 25.099 -9.31977 8.29707 -1.1364 0.0830483 -0.270838 0.589066 0.506675 
26.982 1 2227 27.0439 20.2148 6.07471 -8.73926 1.19402 -0.349718 0.00536705 0.109387 -0.541953 0 0 0 0 0 0 -0.0353718 0.137544 -0.168739 40.3939 52.2711 5.16464 -16.3969 6.51902 -3.14323 -0.0360079 0.119117 -0.565385 11.565 -11.4258 6.13602 -0.977495 -4.09354 2.51904 0.0468724 0.0996903 -0.51857 
26.982 1 289 4.97843 9.00944 4.95708 0.645821 -1.35133 2.50349 -0.886853 -0.38369 0.220693 0 0 0 0 0 0 -0.0398671 -0.0104971 -0.0148201 16.0404 14.2908 48.2017 -2.99523 -0.471394 13.0211 -0.917651 -0.386678 0.247725 -1.91499 2.34974 -39.6245 4.32561 -2.15529 -8.07227 -0.85596 -0.380646 0.193461 
26.982 1 52 4.8067 6.85255 3.01362 -4.19099 -1.21785 4.51533 -0.248344 0.468368 -0.376696 0 0 0 0 0 0 -0.0369778 0.0179344 -0.18175 12.1056 -2.26855 21.6918 -4.90545 -6.66663 9.60015 -0.256728 0.470088 -0.377573 1.53008 14.4757 -16.8527 -3.52337 4.37058 -0.540521 -0.239993 0.466832 -0.375904 
26.982 1 91 7.21389 9.72603 3.85485 -1.64854 4.71117 4.82802 0.735263 0.129218 0.128664 0 0 0 0 0 0 0.028856 -0.00940545 -0.0746784 14.9294 -0.0566127 16.0029 0.0383069 1.37603 9.13917 0.754451 0.126915 0.142223 2.79704 18.2559 -9.5443 -3.35614 8.16103 0.528845 0.715968 0.131591 0.115073 
26.982 1 250 6.87786 6.88195 4.91038 -4.25949 1.21902 -2.25798 0.503883 0.220771 -0.963115 0 0 0 0 0 0 0.0145284 -0.00183366 -0.0417158 11.375 9.13463 41.7644 -3.09421 -5.32873 -0.311224 0.519497 0.215238 -0.966621 5.67317 3.31584 -33.4476 -5.46747 7.93255 -4.22831 0.488187 0.2265 -0.959643 
26.982 1 89 5.12305 9.53493 2.23431 1.01582 -1.57868 3.45564 -0.187823 0.493981 -0.480714 0 0 0 0 0 0 -0.0422437 -0.036553 -0.2443 16.7204 15.7879 -22.6191 0.653054 -4.10258 2.17265 -0.195312 0.493763 -0.486206 -2.44057 2.04631 25.6723 1.38116 1.03494 4.72976 -0.180329 0.494247 -0.475203 
26.982 1 50 7.2163 7.8825 1.96625 2.08309 8.46356 10.2245 0.310681 -0.484261 0.117873 0 0 0 0 0 0 0.0491657 -0.0472696 -0.272502 28.5957 17.0894 -0.0548758 12.6265 -3.83803 8.15942 0.349434 -0.525534 0.11136 -10.8569 -2.82057 2.7402 -8.51722 20.9037 12.3731 0.271772 -0.442867 0.124463 
26.982 1 293 9.50805 9.80033 5.4468 2.63778 8.40333 -1.77988 0.485511 -0.58574 0.27284 0 0 0 0 0 0 0.0186973 -0.0106444 -0.0138616 11.4819 29.1005 56.5481 2.81019 5.94529 4.01067 0.4999 -0.599843 0.285915 10.2509 -10.9124 -46.9301 2.46844 10.969 -7.57225 0.470968 -0.571667 0.259618 
26.982 1 56 9.54091 7.85172 3.30532 2.06208 6.86652 0.591287 -0.157876 -0.254702 0.404725 0 0 0 0 0 0 0.012303 -0.00287436 -0.16839 14.9408 2.6239 20.7637 1.68871 -5.41536 -1.30883 -0.159794 -0.2796 0.395527 6.93587 11.6429 -15.3517 2.43846 19.2895 2.55432 -0.156096 -0.229661 0.414016 
26.982 1 95 11.9772 9.02149 2.42822 3.05179 -0.718541 -3.97384 0.325353 -0.564052 -0.313918 0 0 0 0 0 0 -0.0161977 0.000796803 -0.258369 7.96408 8.44025 -10.9066 2.30105 -9.4329 -5.34219 0.341979 -0.590046 -0.321553 18.0887 8.1397 14.6094 3.83981 8.10444 -2.54043 0.308709 -0.537966 -0.306213 
26.982 1 254 11.7726 7.82976 4.8704 -0.704391 5.58816 -6.7859 0.0847037 0.440219 0.239457 0 0 0 0 0 0 -0.0113367 0.0125331 -0.0454868 -1.43529 -6.61042 61.9599 -7.74825 -1.36731 2.79152 0.0748154 0.448351 0.23931 27.1844 20.7964 -53.4864 6.39651 12.6413 -16.3295 0.0945015 0.432126 0.239597 
26.982 1 53 11.9329 6.04055 2.67118 3.66404 3.09767 -0.746563 -0.428969 0.204143 0.472499 0 0 0 0 0 0 -0.0142752 0.00266953 -0.223001 -9.26687 32.4383 -28.304 -9.17608 2.89447 -5.64015 -0.441854 0.196408 0.456896 35.9791 -22.1163 32.1677 16.5671 3.44209 4.20372 -0.416078 0.212092 0.488298 
26.982 1 97 16.3055 9.71354 1.84514 3.88348 -5.09295 -4.61985 -0.216434 0.0829176 -0.681785 0 0 0 0 0 0 -0.0278608 0.00259556 -0.272483 23.8102 13.5099 18.9732 4.66743 0.794802 -4.95043 -0.223725 0.0745619 -0.70196 10.1894 4.54572 -16.7545 3.09658 -10.9336 -4.24666 -0.209286 0.0913871 -0.661606 
26.982 1 60 16.5849 7.81824 3.64976 -9.56251 -1.70838 -4.59156 -0.17166 -0.510252 0.749481 0 0 0 0 0 0 -0.00946954 -0.00777157 -0.0694338 30.1313 13.6531 -1.13641 -10.6494 4.78395 -5.7906 -0.172499 -0.520366 0.754314 4.43762 0.27378 7.16855 -8.42852 -8.16708 -3.37081 -0.170935 -0.50003 0.744691 
26.982 1 297 14.3313 9.38969 4.01354 1.52578 6.1581 1.44545 0.184997 -0.592857 0.269735 0 0 0 0 0 0 -0.018353 -0.000693911 -0.0715369 29.1211 47.0433 0.962039 4.84182 10.7105 0.41015 0.179478 -0.594891 0.274581 0.978263 -29.651 5.87121 -1.77233 1.6727 2.49192 0.190508 -0.59075 0.264851 
26.982 1 54 14.4282 7.23328 1.7854 -1.21716 -1.52514 3.24761 -1.1187 0.613554 0.51148 0 0 0 0 0 0 -0.0567656 0.0203041 -0.25755 1.92062 24.2895 -32.9674 -7.73079 0.0412061 -4.91188 -1.13195 0.618919 0.505176 29.1431 -11.5154 34.9841 5.39297 -3.00476 11.4125 -1.10544 0.608348 0.51785 
26.982 1 299 16.9108 9.84768 5.90819 1.34531 2.52942 -1.55967 -0.249244 -0.586778 0.018181 0 0 0 0 0 0 -0.0122799 -0.0290534 0.00213594 5.02074 15.093 -13.6261 3.53776 4.49306 -7.28291 -0.261524 -0.615777 0.0203187 29.4865 3.15664 24.3527 -0.867852 0.572587 4.17896 -0.236988 -0.557725 0.0160451 
26.982 1 58 18.2856 7.89295 1.58362 -1.53277 4.68348 -3.3913 0.325409 0.172531 -0.250648 0 0 0 0 0 0 0.0216096 0.0282122 -0.255818 1.76088 66.9219 26.9026 -1.77903 16.8668 -0.875805 0.355992 0.178251 -0.253791 35.4424 -52.8402 -24.8962 -1.28975 -7.52169 -5.80365 0.294586 0.166862 -0.247539 
26.982 1 99 18.7312 9.90305 3.78741 -1.78338 4.92156 -2.11908 0.331809 -0.609703 -0.178252 0 0 0 0 0 0 0.0205653 -0.00662614 -0.094986 30.9356 36.0229 16.9902 4.88031 18.5763 1.54342 0.356039 -0.617772 -0.206332 7.20466 -17.6972 -10.6358 -8.48222 -8.7315 -5.72544 0.307253 -0.601554 -0.15005 
26.982 1 258 19.1804 7.90717 5.58088 0.879381 -2.27056 2.6944 -0.408665 0.493409 -0.344466 0 0 0 0 0 0 0.0142556 -0.0215716 -0.0252443 17.3585 15.3519 6.82333 3.89614 4.17771 2.91941 -0.395292 0.471658 -0.364549 21.6192 -1.24009 3.1168 -2.13743 -8.73684 2.47577 -0.422218 0.515181 -0.324223 
26.982 1 64 20.8657 7.97697 3.36707 -3.3153 -1.92629 -3.33069 0.195502 0.133845 -0.341869 0 0 0 0 0 0 0.0558892 0.0115306 -0.122324 20.4364 9.32197 3.21369 0.320899 6.31523 -3.10485 0.251472 0.145944 -0.381776 21.241 4.98997 2.2585 -6.94401 -10.2003 -3.51544 0.13946 0.121772 -0.301939 
26.982 1 301 21.17 9.88665 5.51475 2.53014 -4.69483 -2.87254 0.437214 0.16578 -0.207324 0 0 0 0 0 0 0.0558716 -0.00181368 -0.0470117 11.7242 7.05541 6.31694 4.38917 5.61822 -0.809254 0.491565 0.162668 -0.249383 30.5966 11.2444 3.60219 0.709764 -15.0255 -4.87552 0.382681 0.1689 -0.165045 
26.982 1 103 23.4742 9.14713 1.42021 -1.5899 3.50071 2.32081 0.293115 -0.338669 0.00052189 0 0 0 0 0 0 0.0189986 -0.010888 -0.231918 8.92347 28.5255 -7.04735 -12.7113 9.59952 0.995616 0.259826 -0.335799 0.0143615 37.3395 -11.5834 8.65996 9.60733 -2.63057 3.69961 0.326433 -0.341598 -0.0133998 
26.982 1 262 23.4711 6.82694 3.06729 -5.28987 -6.66223 5.37243 -0.218056 0.6922 0.448424 0 0 0 0 0 0 -0.00623979 0.0189979 -0.167553 14.7351 5.4414 0.0409377 -14.9656 -0.853388 4.14838 -0.258927 0.732726 0.428103 31.5386 6.52633 4.95786 4.45102 -12.4931 6.62879 -0.177138 0.65155 0.468619 
26.982 1 305 26.0737 8.41212 3.95115 -4.47731 2.77621 4.36244 -0.422151 0.134102 0.0838428 0 0 0 0 0 0 -0.0716015 0.0156259 -0.10577 25.7514 55.7335 -20.5429 -13.8748 7.24288 -0.545752 -0.503548 0.155916 0.071896 25.122 -40.2814 27.3376 5.05607 -1.67971 9.35377 -0.340359 0.112236 0.0959124 