ITEM: TIMESTEP
18500
ITEM: NUMBER OF ATOMS
4000
ITEM: BOX BOUNDS pp pp pp
-3.83417 44.3342
1.50218 38.9978
1.02515 39.4749
ITEM: ATOMS mass type id x y z vx vy vz fx fy fz xrad yrad zrad vxrad vyrad vzrad fxrad fyrad fzrad xub yub zub vxub vyub vzub fxub fyub fzub xlb ylb zlb vxlb vylb vzlb fxlb fylb fzlb 
26.982 1 43 -2.8329 5.7188 3.16173 3.3701 0.60505 3.45327 -0.245543 0.107493 0.0932928 0 0 0 0 0 0 -0.22717 -0.00686894 -0.114374 -16.4814 20.271 34.9412 4.32746 8.66143 7.60235 -0.255967 0.104897 0.0837074 17.5544 -11.0347 -30.4251 2.324 -7.4208 -0.739971 -0.235215 0.11002 0.102886 
26.982 1 202 -2.78849 3.72711 5.1508 -0.846851 -0.471859 1.24885 0.164285 0.164014 -0.249882 0 0 0 0 0 0 -0.163969 -0.048207 -0.0914018 8.82782 -12.4276 30.6481 -0.374932 0.387939 17.0288 0.163083 0.157373 -0.241084 -7.73809 17.5053 -21.8512 -1.44869 -1.22199 -14.6505 0.165369 0.170751 -0.258788 
26.982 1 245 -0.665025 5.864 5.06241 0.987753 -0.00601797 -8.03171 -0.885615 -0.244993 0.0196822 0 0 0 0 0 0 -0.0548088 0.00123808 -0.0498988 -18.7275 25.255 21.3484 -3.31599 7.91921 -2.27504 -0.896907 -0.246663 0.00869797 23.4674 -15.4311 -12.8293 5.21015 -7.79065 -13.9045 -0.874408 -0.243278 0.0305877 
26.982 1 8 -0.598846 4.0011 3.02316 0.965923 4.83486 0.303047 -0.41559 -0.00157404 0.400735 0 0 0 0 0 0 -0.0333376 -0.0350441 -0.127471 -3.08465 26.2077 18.9857 4.50083 7.99257 4.10553 -0.416661 0.00559313 0.393323 7.88819 -20.6591 -14.7844 -2.67976 1.77938 -3.62647 -0.414617 -0.008738 0.40804 
26.982 1 45 -0.846804 6.13803 1.29957 -3.83509 2.86489 6.06763 0.426698 -0.215021 -0.0681136 0 0 0 0 0 0 0.0116645 0.0601134 -0.265348 -8.82656 11.6349 57.3253 -5.27362 5.95402 8.34917 0.427771 -0.206799 -0.0816074 13.3554 -1.30804 24.6647 -2.37882 -0.149406 3.72964 0.425596 -0.223284 -0.054666 
26.982 1 205 -0.693721 2.00649 4.98252 2.77819 4.33466 3.43543 0.200514 0.0517771 0.41431 0 0 0 0 0 0 -0.027214 -0.116863 -0.064036 20.4738 21.3087 37.9705 21.0554 -7.68765 27.1962 0.2078 0.0349824 0.458083 -16.0139 61.2239 -29.5419 -15.6434 16.4265 -20.4382 0.193133 0.0686446 0.370407 
26.982 1 102 22.0619 11.7621 1.06842 -0.150823 0.644375 2.96541 0.495255 -0.221697 0.330872 0 0 0 0 0 0 0.0902126 0.0185342 -0.270042 31.4593 28.9712 58.3181 11.2735 -1.75965 9.57137 0.55235 -0.241676 0.334442 12.0555 -6.70961 23.3037 -11.5297 3.11857 -3.63627 0.438054 -0.201573 0.327293 
26.982 1 998 42.0508 17.6947 17.2189 -6.32588 5.03418 -0.0370706 0.36812 -0.205587 0.176451 0 0 0 0 0 0 0.0420136 -0.0254508 -0.00388378 36.9132 39.9076 35.7815 -6.31246 -0.202676 3.56819 0.390886 -0.225437 0.195242 40.4129 -4.65635 -1.36302 -6.39974 10.3179 -3.56895 0.345117 -0.185744 0.157602 
26.982 1 206 1.54421 3.89397 5.04111 5.34793 2.51864 1.36972 -0.372727 0.126174 0.0246182 0 0 0 0 0 0 0.0140542 -0.0359542 -0.0396266 24.33 -35.3148 66.566 15.4352 -13.9872 21.8483 -0.366705 0.115942 0.0293269 -16.0092 41.0468 -57.9666 -4.83434 19.2333 -19.2116 -0.378777 0.136499 0.0198046 
26.982 1 12 3.92981 4.6555 3.98957 1.03152 3.78087 3.13151 -0.0332441 -0.165811 -0.151862 0 0 0 0 0 0 0.00549539 0.00212908 -0.126893 14.333 -20.3921 -2.11618 6.62932 -11.3198 8.36403 -0.0371582 -0.155804 -0.155529 -2.08782 27.8172 8.348 -4.64338 19.1255 -2.18545 -0.0293759 -0.175746 -0.148256 
26.982 1 9 3.71047 2.73052 1.94874 -2.05406 -4.13749 -6.30977 0.83484 -0.653548 -0.414238 0 0 0 0 0 0 0.0323245 -0.107256 -0.238713 14.53 0.165822 28.864 8.70706 -16.8779 6.13813 0.829821 -0.661588 -0.424116 -2.76908 2.72503 -26.813 -12.9452 8.73106 -18.8719 0.839759 -0.645539 -0.404416 
26.982 1 6 1.58765 4.3191 1.73448 -1.07515 -1.35385 0.702104 0.352324 0.230952 -0.466328 0 0 0 0 0 0 0.0637127 0.0246654 -0.260449 -4.05716 -28.3996 32.9729 1.96556 -8.10859 7.38479 0.35479 0.247319 -0.47889 12.3625 34.8176 -31.4007 -4.2145 5.54488 -6.08159 0.349789 0.214592 -0.453846 
26.982 1 7 1.79554 1.81868 3.49897 2.67863 -1.6622 -4.70065 -0.795123 -0.481594 -0.255983 0 0 0 0 0 0 0.0255562 -0.185315 -0.15663 26.1345 9.49075 34.1916 17.9822 -17.7567 11.6521 -0.794098 -0.493141 -0.25072 -17.5175 72.813 -29.0059 -12.7818 14.5211 -21.2128 -0.796189 -0.470065 -0.26142 
26.982 1 170 7.3345 18.9086 1.30789 -0.98547 1.46291 3.82256 -0.0232885 0.0783087 -0.260526 0 0 0 0 0 0 0.0420641 0.0466494 -0.277909 5.11299 39.5433 2.14348 -3.66607 3.41989 5.99457 -0.0233001 0.0824174 -0.268375 13.412 -1.74815 -1.42116 1.73737 -0.53101 1.65002 -0.0232595 0.0740923 -0.25264 
26.982 1 209 5.66486 2.40193 4.06471 -1.3028 -4.40988 3.91269 0.0263496 0.710207 -0.145272 0 0 0 0 0 0 0.0245416 -0.113828 -0.162414 -7.74661 -5.45678 8.0413 -9.54118 -10.488 8.57669 0.0370917 0.735459 -0.156896 23.4703 7.85465 -1.3723 6.89369 1.83634 -0.767881 0.0155143 0.684972 -0.133711 
26.982 1 51 6.35892 5.33997 2.85001 0.937357 1.19283 5.14671 0.408868 0.360603 0.817072 0 0 0 0 0 0 -0.0120106 0.00314749 -0.18942 3.87784 -8.71331 -30.6879 11.1551 -10.5825 0.240035 0.439917 0.370556 0.832135 12.3484 17.7489 34.8529 -9.40758 13.1917 10.08 0.377596 0.350685 0.802033 
26.982 1 210 6.23527 4.61625 5.87847 1.68959 2.25996 2.01282 -0.0345339 0.154366 -0.349637 0 0 0 0 0 0 0.021492 -0.0426911 -0.0235559 -17.0689 -16.639 20.7822 -3.78954 -12.1353 7.8112 -0.0148951 0.169821 -0.35344 33.224 23.7506 -10.4698 7.12141 16.8508 -3.78318 -0.0543546 0.138938 -0.345922 
26.982 1 11 8.25248 2.35529 3.39091 4.20479 -1.56111 0.178759 -0.0712364 0.255424 0.445234 0 0 0 0 0 0 0.043494 -0.182443 -0.162622 -12.1139 70.0981 -39.8229 -0.519587 -2.7973 -5.30463 -0.0633294 0.273369 0.453883 32.3298 13.5546 44.9574 8.88025 -0.128662 5.69023 -0.0794609 0.237527 0.436604 
26.982 1 253 8.68682 5.08251 4.55048 -1.30043 -4.1882 1.75072 -0.360298 -0.0769673 0.474611 0 0 0 0 0 0 0.0197443 -0.0292621 -0.0535711 -2.68037 -5.56082 57.0849 -5.44004 -12.9306 6.83646 -0.339248 -0.0771323 0.483652 23.1617 14.1097 -49.3571 2.81273 4.76824 -3.28291 -0.381471 -0.0767698 0.465608 
26.982 1 1816 9.03826 5.11843 1.46049 1.77476 0.324053 0.979463 -0.172864 -0.217904 -0.464922 0 0 0 0 0 0 0.0152877 -0.0277167 -0.266371 -11.3691 -0.0082555 25.092 9.45468 -1.76114 -9.46633 -0.145744 -0.18762 -0.502412 32.7714 7.99431 57.2665 -5.83211 2.58406 11.5136 -0.200094 -0.248061 -0.427514 
26.982 1 10 6.59282 3.30179 1.24812 -1.28264 -2.5744 2.71552 -0.0744956 0.152411 0.196395 0 0 0 0 0 0 0.0016744 -0.0851547 -0.236031 30.1453 -1.15803 1.65537 6.29407 -7.71933 4.23379 -0.0718528 0.155038 0.192877 -13.3302 5.37552 -0.819427 -8.99931 2.67893 1.21552 -0.0774407 0.149689 0.200006 
26.982 1 16 10.5666 3.66892 3.1124 -0.925188 -1.86417 4.24568 0.698192 -0.110377 0.228757 0 0 0 0 0 0 0.0195881 -0.136539 -0.168536 -18.5556 33.9554 -16.6575 -9.40873 0.116644 -5.38324 0.707244 -0.106827 0.234798 42.9497 -28.9008 21.2625 7.64063 -3.67594 13.9506 0.68914 -0.113888 0.222804 
26.982 1 213 10.5547 2.20638 5.52564 -3.71759 0.466702 1.73277 -0.343216 0.224728 -0.0478073 0 0 0 0 0 0 -0.0222655 -0.235876 -0.013474 1.57525 -8.41721 12.1254 -7.3297 -10.9159 -1.48369 -0.352165 0.218412 -0.0335032 22.7305 10.2383 -2.52106 -0.0541424 11.9888 4.99129 -0.334373 0.231074 -0.0621075 
26.982 1 15 13.3322 2.09883 3.67357 2.48323 0.672414 1.0779 -1.00113 0.637125 0.386585 0 0 0 0 0 0 -0.0405744 -0.223711 -0.153676 -29.1479 33.7071 31.7862 -15.9295 -12.1934 10.2587 -1.02868 0.612204 0.389802 58.4598 49.0293 -25.8373 21.0621 13.6491 -7.99579 -0.973367 0.662193 0.383446 
26.982 1 214 12.6791 4.04438 5.43674 -3.02645 1.23267 0.0052266 -0.0750564 0.218631 -0.178377 0 0 0 0 0 0 -0.0288545 -0.0842777 -0.020574 3.16732 -1.58274 28.8443 -12.6171 -8.54797 8.48352 -0.0944227 0.221263 -0.165674 24.8017 7.422 -19.4503 6.67971 11.1255 -8.44129 -0.055559 0.216045 -0.191075 
26.982 1 14 12.9247 4.95919 2.76918 0.437754 -2.83514 1.23677 -0.0272071 0.155805 -0.47382 0 0 0 0 0 0 -0.0449648 -0.03005 -0.220104 -34.5511 31.7406 35.377 -21.8524 -9.64188 -4.36687 -0.0671714 0.171966 -0.474604 63.1123 -24.0227 49.8299 22.8684 4.12663 6.91149 0.0128774 0.139773 -0.473043 
26.982 1 20 14.991 4.8551 4.5105 3.22175 0.307527 4.6061 -0.0308949 0.692125 -0.100817 0 0 0 0 0 0 -0.00170354 -0.0159614 -0.052775 25.6801 -22.9696 16.5517 8.93809 -2.94713 5.99312 -0.0232405 0.716506 -0.0876579 6.05139 30.3674 -9.0402 -2.41265 3.60627 3.23954 -0.0384508 0.667725 -0.114026 
26.982 1 57 16.2932 5.27203 1.98635 -2.41424 -0.802781 -3.33698 0.130892 0.28445 -0.154651 0 0 0 0 0 0 -0.023152 -0.0198112 -0.246047 25.4989 44.5031 -12.8767 3.95834 0.794836 -4.42174 0.142595 0.289603 -0.152117 8.75994 -35.9241 15.2321 -8.73341 -2.30733 -2.26819 0.119183 0.279343 -0.15729 
26.982 1 17 14.8655 3.01585 1.90473 -2.15804 3.10348 2.99569 -0.187633 0.32552 -0.28257 0 0 0 0 0 0 -0.0340661 -0.12965 -0.236355 19.7482 51.8745 19.1459 -4.18793 0.98047 -6.06458 -0.196288 0.327843 -0.300764 11.7939 32.9775 64.2333 0.0523357 5.34316 12.0831 -0.178781 0.323371 -0.264363 
26.982 1 19 17.5177 2.64262 2.45363 -1.63522 0.246286 0.753239 0.299226 0.349682 0.351543 0 0 0 0 0 0 -0.00239323 -0.193108 -0.13936 29.5632 11.0468 12.0218 -3.5317 10.9627 -3.01855 0.305696 0.370521 0.357067 6.38651 -8.50987 -8.65542 0.402388 -10.5018 4.56052 0.292807 0.328827 0.345982 
26.982 1 217 15.7751 2.41159 4.87543 2.29601 0.123996 -8.74488 0.188392 0.024879 0.295507 0 0 0 0 0 0 0.0330873 -0.169079 -0.111542 8.74201 44.2818 38.3661 -7.40836 -0.904902 7.33003 0.198691 0.0300897 0.306276 24.6638 39.1013 -30.0994 12.1982 1.1805 -24.7738 0.178292 0.0197337 0.284777 
26.982 1 218 17.5802 4.66824 4.73654 1.89596 1.87773 0.327928 0.617741 -0.304919 -0.243764 0 0 0 0 0 0 0.0260923 -0.0512063 -0.0438661 -9.75324 3.31158 3.55859 -0.921498 6.03768 -0.179853 0.642847 -0.301508 -0.240095 45.7238 3.67738 4.48947 4.75728 -2.28152 0.860453 0.592658 -0.308427 -0.247448 
26.982 1 24 22.12 5.01025 4.00181 -5.30062 1.71526 2.13166 -0.170662 -0.796827 -0.692911 0 0 0 0 0 0 -0.00409113 -0.0690756 -0.0624473 -6.87578 34.8354 22.5971 -18.584 10.131 5.50015 -0.185591 -0.807858 -0.693336 51.0361 -27.113 -16.1786 8.02687 -6.74119 -1.25056 -0.155593 -0.785836 -0.692554 
26.982 1 221 19.87 2.80227 4.59535 0.881752 -1.85277 -1.02249 0.0902452 0.531097 -0.19009 0 0 0 0 0 0 0.0115447 -0.169029 -0.0882392 -7.46496 59.1421 -9.92645 -4.14529 15.9729 1.86996 0.0984608 0.547976 -0.186003 47.1983 24.9739 17.5924 5.93446 -19.7524 -3.9376 0.0820267 0.514111 -0.194185 
26.982 1 23 22.235 2.4663 2.7189 -3.77818 -0.402908 1.75834 -0.151701 0.259976 0.385808 0 0 0 0 0 0 0.0244573 -0.222033 -0.104276 9.78286 88.2362 33.4639 -8.58662 19.1916 16.9754 -0.172435 0.28884 0.416683 33.9674 -4.89401 -29.642 1.05469 -20.0955 -13.5465 -0.130882 0.231041 0.354836 
26.982 1 18 19.2527 4.9044 2.04401 -2.27445 1.88697 -3.16312 -0.337667 0.0151012 0.58896 0 0 0 0 0 0 -0.0175245 -0.0498625 -0.177746 33.8173 12.356 7.99553 -1.1623 2.38451 2.27713 -0.340608 0.0143794 0.617399 5.49858 -4.85911 -5.52551 -3.27969 1.38367 -8.62248 -0.33471 0.015777 0.560466 
26.982 1 130 7.61918 14.891 1.229 -0.11527 3.54695 -0.0661605 -0.931352 0.547425 0.0575315 0 0 0 0 0 0 -0.00333239 0.000365508 -0.292721 2.8948 39.3999 41.4219 -5.11282 6.98878 13.4732 -0.960465 0.565704 0.0695097 16.1131 -9.86737 -40.8088 4.94791 0.205952 -13.6208 -0.902178 0.52909 0.0455393 
26.982 1 63 24.4017 4.63922 2.21928 1.14486 0.524775 1.28966 0.0955258 -0.23971 0.722304 0 0 0 0 0 0 0.0322356 -0.114833 -0.199591 22.5273 47.2309 21.6366 -3.89787 15.2705 8.78572 0.0893283 -0.242329 0.733799 25.5807 -40.2406 -18.8117 6.28187 -14.3157 -6.2565 0.101886 -0.23719 0.710866 
26.982 1 222 24.6395 2.70412 4.54022 4.64759 6.39061 6.87719 -0.753949 0.647 0.0558573 0 0 0 0 0 0 -0.0227111 -0.187549 -0.105901 28.57 23.6863 21.8503 7.38004 10.7097 19.5586 -0.786891 0.666757 0.0840893 19.8682 -20.747 -14.2674 1.94826 2.02481 -5.85728 -0.720809 0.627214 0.0276132 
26.982 1 28 26.5011 3.06695 2.46892 -4.18661 5.66661 -2.47991 0.365213 -0.665942 0.0986922 0 0 0 0 0 0 0.022666 -0.196649 -0.210624 30.0087 12.229 36.0376 -7.73118 9.21267 6.43768 0.366771 -0.683006 0.0869176 21.5725 -8.437 -33.0561 -0.571377 2.13376 -11.4831 0.363838 -0.648955 0.110559 
26.982 1 265 26.5129 5.02083 4.4719 -0.30659 4.75263 0.74898 -0.413939 -1.23264 0.0902142 0 0 0 0 0 0 -0.011658 -0.0873566 -0.0652711 23.0158 -30.2246 9.17366 -8.67417 0.16411 3.23253 -0.433276 -1.26334 0.103067 28.7522 38.2087 -1.72356 8.25971 9.3748 -1.71241 -0.394345 -1.20197 0.0773553 
26.982 1 67 28.56 4.97695 2.52563 0.310314 4.51754 -4.06651 -0.068145 0.0860451 -0.272291 0 0 0 0 0 0 0.0202054 -0.068001 -0.270284 23.1153 -14.5612 8.75675 -3.93035 1.11265 -6.90511 -0.0656474 0.0902342 -0.296016 31.9581 22.4398 -5.28425 4.68696 7.94317 -1.14327 -0.0704877 0.0817792 -0.248295 
26.982 1 226 28.591 2.73431 4.63856 -5.72751 -3.36802 2.16726 -0.694586 0.699254 -0.0712363 0 0 0 0 0 0 -0.0143745 -0.183942 -0.14552 19.3518 -17.2913 24.2313 -13.498 -7.83616 5.01262 -0.721367 0.709692 -0.068577 35.8502 20.6998 -16.5193 2.19665 1.21673 -0.670256 -0.667661 0.68882 -0.0739467 
26.982 1 32 30.4576 2.97507 2.8033 0.12904 -7.00545 -2.95311 0.814023 0.202676 -0.626997 0 0 0 0 0 0 0.0269279 -0.192191 -0.236006 6.72435 14.7872 27.6293 -2.96426 -6.59219 -4.53164 0.824067 0.201305 -0.65625 51.3571 -11.0175 -23.6497 3.30719 -7.33959 -1.31939 0.80403 0.204023 -0.597613 
26.982 1 269 30.3556 5.05853 4.55406 0.932775 -0.639582 -4.46627 0.857002 -0.0162863 -0.293552 0 0 0 0 0 0 0.0229881 -0.0648108 -0.106193 24.1622 9.96236 28.7617 -0.699439 -4.21301 -5.61769 0.869139 -0.0225218 -0.299419 33.8062 -1.8842 -20.9163 2.666 3.00198 -3.23457 0.844946 -0.0100214 -0.287637 
26.982 1 71 32.5849 5.00548 2.7652 -0.0373286 -3.61062 7.25611 0.086681 -0.182964 -0.643133 0 0 0 0 0 0 0.00875198 -0.0668564 -0.281592 32.049 18.9354 1.75448 0.590875 -4.6119 6.43666 0.08718 -0.182299 -0.67294 29.3464 -10.9386 2.43737 -0.636176 -2.52938 8.18399 0.0861909 -0.183632 -0.613178 
26.982 1 230 32.7105 3.08675 4.59148 2.0225 -1.51809 1.77533 0.270284 0.0618303 -0.0133447 0 0 0 0 0 0 0.00776689 -0.178775 -0.156265 12.3127 -12.6066 -17.5513 1.20048 -4.42986 -3.78204 0.275818 0.0730851 -0.0111031 49.4372 16.6708 25.5463 2.8787 1.48664 7.41266 0.264724 0.0506142 -0.0155475 
26.982 1 273 34.7039 5.08003 4.67741 0.539916 -0.0230796 -0.812274 0.419025 0.27871 -0.127184 0 0 0 0 0 0 0.0209675 -0.0567598 -0.115616 50.9713 20.7742 -18.5547 3.61701 0.763477 -4.62554 0.435164 0.288 -0.137048 13.6936 -12.7177 26.5949 -2.59625 -0.744694 3.0642 0.402801 0.26943 -0.117261 
26.982 1 36 34.9507 3.12232 2.73037 -1.00093 -0.913982 1.69172 -0.240216 0.33884 0.0758669 0 0 0 0 0 0 0.0167083 -0.175488 -0.225728 50.4374 -8.27768 -22.2828 3.37428 -2.40951 -2.42314 -0.243139 0.356648 0.0693364 14.7666 12.2677 26.3575 -5.41828 0.663718 5.87825 -0.237361 0.321069 0.0825125 
26.982 1 75 36.8706 5.17835 2.70053 2.07447 3.67 -0.925333 0.204779 0.448542 0.160024 0 0 0 0 0 0 0.0222356 -0.0570122 -0.262389 49.5432 30.0059 8.00242 6.60496 7.08619 -0.93251 0.211736 0.461901 0.152021 18.6027 -21.8658 -3.96024 -2.54709 0.315501 -0.8619 0.197764 0.435185 0.168093 
26.982 1 234 37.1407 3.30004 4.77649 -4.69261 1.64784 2.16994 -0.139644 0.424053 -0.0569099 0 0 0 0 0 0 0.0211626 -0.159519 -0.15467 71.7198 -2.55521 -6.93734 4.63983 2.22389 -1.0298 -0.123428 0.445523 -0.0551965 -3.10592 6.87718 15.2515 -14.1781 1.17035 5.40145 -0.155926 0.402616 -0.0586061 
26.982 1 40 39.3362 3.29167 2.76522 -2.12908 1.52349 -0.263377 -0.103167 -0.0752021 0.584239 0 0 0 0 0 0 -0.0325716 -0.129623 -0.207095 68.5933 26.9951 1.70287 7.46563 5.76026 4.86991 -0.0965821 -0.0569473 0.603587 3.78597 -22.8094 2.25763 -11.8258 -2.63305 -5.44106 -0.109768 -0.093441 0.564941 
26.982 1 277 39.0718 5.44753 4.77269 2.84676 7.54884 1.54946 -0.0477191 -0.149343 -0.152867 0 0 0 0 0 0 -0.00214829 -0.0508465 -0.106265 54.6 24.832 -10.0078 12.5001 4.61187 -0.975124 -0.0458239 -0.153465 -0.152832 17.1975 -15.8683 18.3823 -6.93575 10.6162 4.10758 -0.0496574 -0.145191 -0.15288 
26.982 1 241 43.0874 5.66529 5.16597 2.94238 2.08331 -3.30167 0.586002 -0.0937859 -0.171697 0 0 0 0 0 0 -0.000110228 -0.0268909 -0.0422295 15.742 12.0679 -12.8097 9.48155 1.17047 -1.17979 0.601129 -0.0945903 -0.179022 -18.6878 -2.65668 21.6489 -3.74316 3.10384 -5.48828 0.570775 -0.0929799 -0.164449 
26.982 1 4 43.3664 3.58217 3.19019 5.26482 -0.120902 0.830894 0.205697 0.0533104 -0.21823 0 0 0 0 0 0 -0.0544243 -0.142071 -0.14207 27.684 17.6805 32.7107 5.48163 7.69548 12.4609 0.212317 0.0564959 -0.222197 51.3687 -12.9533 -28.0243 4.94586 -7.87117 -10.8829 0.199002 0.050153 -0.214282 
26.982 1 79 41.2773 5.50783 3.01918 -2.97171 1.96293 1.98869 -0.242345 -0.0577967 -0.0940463 0 0 0 0 0 0 -0.0621373 -0.0396049 -0.218352 39.6703 42.2476 -22.2411 0.521943 5.94609 2.02267 -0.245288 -0.0541511 -0.0981056 35.8642 -33.3687 26.7447 -6.5793 -1.95228 1.93377 -0.239458 -0.0614592 -0.0899352 
26.982 1 238 41.184 3.44363 5.20469 1.11518 0.201695 -2.37846 0.0753126 0.162056 -0.211223 0 0 0 0 0 0 -0.0246012 -0.124167 -0.0989171 59.7848 -9.65194 -4.2251 5.73585 -3.91389 0.223781 0.071898 0.163282 -0.2217 15.5128 14.299 13.1845 -3.63274 4.45043 -5.06839 0.0786305 0.160908 -0.200865 
26.982 1 83 -2.71233 10.0722 3.4028 6.57077 5.80106 0.467323 -0.668125 -0.379399 0.145049 0 0 0 0 0 0 -0.193748 0.00269277 -0.169727 -7.76138 38.8405 17.098 5.16618 11.048 5.28996 -0.67917 -0.38231 0.132761 9.09904 -20.3293 -11.8445 7.92354 0.522655 -4.36146 -0.657148 -0.376496 0.157342 
26.982 1 242 -2.87083 7.83353 5.08742 3.39069 -1.64258 -2.02311 -0.537702 -0.133264 0.0585917 0 0 0 0 0 0 -0.171793 -0.0166742 -0.091106 -3.73102 29.7749 32.6867 6.14688 3.42241 3.47075 -0.549936 -0.139488 0.0524156 4.55064 -15.9966 -23.7553 0.492903 -6.71342 -7.55101 -0.525558 -0.127093 0.0647168 
26.982 1 48 -0.735812 8.23334 3.52682 3.10337 1.77742 -0.284816 0.214447 -0.421224 -0.334669 0 0 0 0 0 0 -0.0289879 0.00795879 -0.167275 -42.5479 56.9615 -16.871 -1.70834 9.8375 1.70649 0.216692 -0.431929 -0.352465 47.4246 -42.2781 21.9171 7.96288 -6.2346 -2.41735 0.212214 -0.410532 -0.316875 
26.982 1 88 -0.135606 10.8452 3.06053 3.37148 -4.58118 2.6803 0.281927 0.81745 -0.720239 0 0 0 0 0 0 -0.0350564 -0.0114784 -0.213244 -39.1394 33.6287 40.7593 -3.88396 -0.748135 15.4493 0.288837 0.831856 -0.736931 45.4033 -13.2588 -36.4044 10.7599 -8.41419 -10.1517 0.275117 0.803052 -0.703559 
26.982 1 285 -0.664765 10.2138 5.57189 -1.7632 0.795523 -3.31497 0.185061 0.0774834 0.526683 0 0 0 0 0 0 -0.0527394 0.00388603 -0.0192405 -31.5115 48.002 40.4645 -6.87497 8.38047 12.9259 0.190986 0.0827662 0.535511 36.5055 -29.2392 -30.9451 3.39048 -6.79446 -19.6713 0.179191 0.0721875 0.517765 
26.982 1 42 -2.94427 7.92438 1.24818 -0.942594 1.85003 1.05927 0.0223387 -0.112444 0.0126596 0 0 0 0 0 0 -0.12332 0.041728 -0.198601 -3.61052 38.4227 9.22433 -2.01823 8.02242 1.03139 0.0153289 -0.113479 0.00413952 4.64506 -24.4807 -8.66119 0.124254 -4.33808 1.08491 0.0293042 -0.111459 0.0212312 
26.982 1 47 1.38331 6.49263 3.56321 1.01703 2.42029 -3.42236 0.714356 -0.31788 -0.130059 0 0 0 0 0 0 0.0429876 0.0279026 -0.161118 -20.1898 25.9771 -8.67975 -3.55348 3.64663 -2.92 0.732742 -0.319488 -0.138819 28.3283 -14.569 13.855 5.57929 1.39191 -4.06581 0.695981 -0.316205 -0.121322 
26.982 1 249 3.85061 6.61962 5.83234 -3.67448 -0.695424 -3.02728 0.233653 -0.253982 0.119814 0 0 0 0 0 0 0.0011414 -0.0206377 -0.0256535 -11.1953 -30.0989 29.082 -10.2228 -11.161 3.72184 0.236419 -0.268742 0.11913 23.3644 41.6616 -18.9022 2.8434 9.97772 -9.84939 0.230818 -0.239096 0.120375 
26.982 1 87 1.96541 9.17323 3.02568 4.47491 -9.69026 -1.69199 0.246318 -0.388974 -0.27953 0 0 0 0 0 0 -0.00733704 -0.0370401 -0.22979 -27.2541 20.7758 39.0647 -3.72594 -8.18547 10.0486 0.249269 -0.408529 -0.286407 36.8602 -3.84023 -34.7855 12.7714 -11.1143 -13.4992 0.243466 -0.369371 -0.27265 
26.982 1 289 4.18398 9.28635 4.85746 -2.7974 0.652175 -3.55951 0.283284 0.428019 0.195424 0 0 0 0 0 0 -0.00484349 -0.00912137 -0.0526527 7.85774 16.8934 67.2309 -8.14461 1.94361 8.98678 0.287368 0.432257 0.202404 5.19264 0.246196 -59.2962 2.59018 -0.538957 -16.2121 0.279173 0.423901 0.188412 
26.982 1 52 4.24924 7.36775 3.08147 3.29136 -0.640141 2.08285 -0.174771 -0.431693 -0.308421 0 0 0 0 0 0 -0.0275106 -0.032887 -0.225957 9.36224 -12.7772 32.6926 0.983762 -8.81441 10.1615 -0.179842 -0.449318 -0.307611 3.48972 26.062 -28.0252 5.50727 7.73028 -5.98578 -0.169806 -0.413952 -0.309212 
26.982 1 89 4.87202 10.1808 2.1105 2.60729 -0.951254 4.12977 0.0453863 -0.374534 0.329146 0 0 0 0 0 0 -0.0476622 -0.0719365 -0.244946 16.8171 12.8243 -22.9247 2.91477 -3.16627 4.98811 0.0480231 -0.392594 0.342144 -2.62053 6.26223 25.3775 2.2736 1.35026 3.26222 0.0427039 -0.356332 0.316171 
26.982 1 246 1.70452 8.42988 5.79869 -4.61033 0.123353 -3.74103 -0.355801 0.134867 -0.135838 0 0 0 0 0 0 -0.00665122 -0.000350173 -0.0316152 -1.32062 19.0331 47.1323 -12.1814 5.11737 6.17979 -0.364381 0.135538 -0.138127 10.3812 -3.90277 -37.2393 3.05134 -4.80139 -13.7917 -0.34718 0.134271 -0.133657 
26.982 1 91 6.7174 10.4119 4.10091 1.03401 -7.33903 8.02757 0.0611452 -0.283203 -0.456163 0 0 0 0 0 0 -0.000649771 -0.0157706 -0.0631221 18.8919 -2.55505 25.6798 3.61372 -7.973 14.9032 0.0662207 -0.290996 -0.454854 -1.8561 22.1394 -19.0382 -1.61168 -6.57432 1.1529 0.0559164 -0.275262 -0.457507 
26.982 1 250 6.52282 7.34727 4.74669 2.50613 -4.97016 -6.0467 -0.186284 -0.120695 0.0983722 0 0 0 0 0 0 0.00226485 -0.0216855 -0.0516158 13.1677 -5.32297 48.7218 4.74675 -16.7535 -0.0168155 -0.167428 -0.137788 0.0990632 3.43551 18.791 -41.082 0.162313 7.05028 -12.1204 -0.205325 -0.103443 0.097692 
26.982 1 50 6.97096 8.33116 2.08501 2.72453 -1.6673 5.73939 0.187867 -0.151436 0.124961 0 0 0 0 0 0 -0.0287877 -0.0666343 -0.245195 53.608 -6.99183 -4.71898 22.2191 -18.6696 1.86639 0.221868 -0.180155 0.12265 -36.1391 22.2289 7.46976 -16.9002 15.5476 9.73088 0.15367 -0.122508 0.127347 
26.982 1 293 8.9035 10.6326 5.66873 1.93933 -1.46092 -0.197383 0.258426 -0.0882919 0.315307 0 0 0 0 0 0 0.0128132 -0.00162648 0.00940983 13.737 27.7675 67.3652 4.61776 -1.82319 6.69525 0.267611 -0.09005 0.331182 7.07465 -7.89376 -57.6163 -0.76817 -0.95714 -7.12079 0.249116 -0.0863857 0.299383 
26.982 1 56 8.85865 8.61251 4.02314 -3.40877 -0.42373 -2.00045 -0.496844 -0.465767 -0.904274 0 0 0 0 0 0 0.00850427 -0.0420432 -0.0869627 15.4459 -22.0058 17.803 -2.15234 -19.4816 -5.11976 -0.492509 -0.506019 -0.920876 5.35579 37.8482 -11.1606 -4.69671 18.8208 1.18423 -0.501314 -0.425335 -0.887663 
26.982 1 90 7.51682 11.0967 1.44341 -2.05868 -3.80278 3.06046 0.881962 -0.708226 -0.102737 0 0 0 0 0 0 0.0129491 -0.0299386 -0.275063 23.2641 -15.013 44.5502 0.903719 -8.42755 6.9396 0.90512 -0.733884 -0.110311 -4.6254 36.5053 38.0668 -5.08082 1.04363 -0.727715 0.858706 -0.682267 -0.0951698 
26.982 1 95 12.0049 8.93522 2.6436 -1.40495 3.9259 -1.3651 0.2252 -0.100648 0.187933 0 0 0 0 0 0 0.0263528 -0.00306334 -0.214324 7.93241 -9.02322 -10.9182 -2.01654 -8.16735 -1.42053 0.228016 -0.112724 0.193383 18.4841 25.4656 14.8166 -0.73251 16.2116 -1.25975 0.222491 -0.0882712 0.182396 
26.982 1 254 11.0794 8.66721 5.30793 1.66504 -3.11584 -5.51297 0.482519 -0.217881 0.408816 0 0 0 0 0 0 0.0200354 -0.0143095 -0.00571409 -13.1005 -18.1538 81.0936 -4.50931 -10.5716 6.70234 0.497215 -0.233555 0.427848 37.7919 33.9844 -71.9977 7.88077 4.48105 -17.7275 0.46781 -0.202002 0.389782 
26.982 1 53 10.4011 6.58738 3.14218 -6.58789 -3.51134 -5.95023 1.0333 0.35874 0.207756 0 0 0 0 0 0 0.0236509 -0.0170365 -0.150619 -32.5269 26.6825 -39.0742 -20.82 -10.5142 -13.7652 1.034 0.35179 0.205482 56.555 -15.2211 43.6584 7.73669 3.71474 1.93312 1.03268 0.365867 0.210073 
26.982 1 55 13.1424 6.86338 4.66385 -3.51446 -3.49877 1.01243 -0.453432 0.0911 0.228149 0 0 0 0 0 0 -0.00867655 0.00363116 -0.0369634 -12.4479 16.2418 38.1764 -9.82351 -0.133638 11.4712 -0.459648 0.0941431 0.245308 41.3145 -4.22306 -30.2906 2.87706 -6.69376 -9.42038 -0.447171 0.0881516 0.210899 
26.982 1 97 16.1539 9.37211 1.93617 4.2012 0.608001 -2.75544 0.174382 0.0153304 0.0783055 0 0 0 0 0 0 -0.02962 -0.00674739 -0.251368 31.3641 20.1213 19.696 12.6655 3.16323 -1.05226 0.184191 0.00430425 0.0868326 2.36024 -2.82353 -17.5888 -4.34675 -1.84122 -4.45553 0.164515 0.0264971 0.0696316 
26.982 1 60 16.729 7.1629 4.13769 1.12831 0.280358 1.06062 -0.19328 -0.0867635 -0.481302 0 0 0 0 0 0 -0.0213341 -0.00442506 -0.0460884 34.0618 18.7062 -1.47195 6.30465 -0.454631 2.36168 -0.203115 -0.0903328 -0.46699 0.886583 -6.23159 8.18853 -4.08691 1.10522 -0.265345 -0.183494 -0.083177 -0.495758 
26.982 1 297 14.6277 9.16653 4.3255 -6.97571 -8.22303 -3.51721 -0.168159 0.432014 -0.523126 0 0 0 0 0 0 -0.0135243 -0.00494043 -0.0570291 36.8284 50.391 3.68108 -1.37189 -9.5021 0.839143 -0.172002 0.424816 -0.51274 -5.97471 -33.4868 3.45381 -12.5984 -6.81044 -7.92184 -0.164348 0.4394 -0.533715 
26.982 1 54 14.3699 7.4036 2.18604 4.4683 -3.59207 0.707096 -0.331101 -0.504629 0.0606974 0 0 0 0 0 0 -0.0365262 -0.0139062 -0.253445 -9.46641 21.7754 -45.4944 -2.5064 -7.82054 -6.6234 -0.340101 -0.521442 0.0694733 40.7217 -8.68484 47.9602 11.5181 0.805068 8.0017 -0.322029 -0.487706 0.05177 
26.982 1 59 19.6962 6.49887 4.33708 -2.00554 -1.65774 1.18742 0.0283328 -0.330302 -0.739655 0 0 0 0 0 0 -0.00546264 -0.0268051 -0.0404996 39.4739 -16.8239 18.6348 2.13162 -10.1998 1.05893 0.0269531 -0.350805 -0.734813 0.574755 27.5631 -11.4174 -6.14644 6.84348 1.32752 0.0297283 -0.309829 -0.744511 
26.982 1 61 20.9713 7.08812 1.8359 0.347661 4.14613 0.496124 0.347812 0.451573 0.189078 0 0 0 0 0 0 0.0149988 0.0194239 -0.213907 38.4189 3.9728 -6.71919 3.37253 10.2712 3.69933 0.363042 0.459992 0.21154 3.49676 7.75082 8.75957 -2.662 -2.09226 -2.71281 0.332588 0.443098 0.166611 
26.982 1 58 18.2715 7.44836 1.59283 3.09412 3.08769 -4.5879 -0.656819 0.0665254 -0.00823773 0 0 0 0 0 0 -0.0328335 -0.00263577 -0.260147 10.3886 80.6215 29.3492 11.8652 7.25493 -3.21394 -0.656491 0.0587888 -0.00708298 26.733 -67.6678 -27.551 -5.77385 -1.07468 -5.92525 -0.657248 0.0743237 -0.00951307 
26.982 1 99 18.621 9.22961 3.69754 2.86305 1.07659 3.68455 -0.47454 0.119533 0.342211 0 0 0 0 0 0 -0.0206276 -0.00528938 -0.0627972 46.6281 52.8182 21.6567 13.7212 9.58596 7.30802 -0.488174 0.113828 0.354577 -8.82899 -35.9836 -15.6901 -8.1325 -7.37126 0.10774 -0.460984 0.125371 0.329744 
26.982 1 64 21.4481 8.79032 4.02594 4.54779 2.75484 -5.58752 0.109993 -0.0778064 -0.275578 0 0 0 0 0 0 0.0127503 -0.000712199 -0.0679214 33.8449 25.2573 -2.07803 14.6346 12.4332 -11.4969 0.127903 -0.0792535 -0.29864 8.95722 -9.60325 8.6262 -5.54359 -6.95096 0.365688 0.0920853 -0.0763631 -0.252532 
26.982 1 101 19.9741 9.84775 1.50987 -0.95149 0.0168489 -0.057392 0.567121 -0.502818 -0.522581 0 0 0 0 0 0 0.0277115 -0.0137163 -0.259856 28.3875 5.12743 26.917 9.47049 1.87705 -9.52242 0.604282 -0.512162 -0.524449 11.4637 12.9358 55.5074 -11.4687 -1.85169 9.41604 0.529831 -0.493382 -0.520729 
26.982 1 103 23.7132 9.46725 2.28425 3.39456 -2.5287 4.43458 -0.583997 0.0722739 0.45094 0 0 0 0 0 0 -0.00652274 0.043282 -0.206941 -11.5758 48.9466 -12.1483 -5.7383 18.2843 -2.61088 -0.592116 0.108183 0.420971 58.37 -31.6483 15.2335 12.6279 -23.3919 11.5333 -0.57591 0.0363456 0.480896 
26.982 1 262 24.1454 6.96315 3.97407 3.61233 -2.58886 -2.57331 -0.351265 -0.120322 -0.0165863 0 0 0 0 0 0 -0.022421 -0.00250974 -0.066866 -6.42288 21.672 -8.19202 -11.3135 9.40745 -10.1263 -0.382356 -0.108233 -0.0261933 54.1305 -9.78757 14.7216 18.7029 -14.6798 5.00116 -0.319988 -0.132543 -0.00694147 
26.982 1 305 26.2273 8.88537 4.1342 -1.39575 1.40064 -2.85614 0.141228 0.266114 0.173758 0 0 0 0 0 0 -0.00495584 0.0400671 -0.0688323 -6.55001 71.7289 -32.5942 -27.3382 15.5425 -13.3703 0.120161 0.303924 0.169685 57.9185 -55.5824 39.6446 24.8216 -12.8098 7.81621 0.162607 0.228061 0.178015 
26.982 1 68 26.3222 6.73163 2.43486 2.36354 3.07365 5.41985 0.459271 0.354447 -0.457767 0 0 0 0 0 0 0.0476343 -0.0175569 -0.254522 16.8851 27.8442 -4.10359 -7.53876 12.1337 0.276667 0.460583 0.379278 -0.496202 34.5077 -16.3697 7.46578 12.4813 -6.08716 10.6595 0.458161 0.329421 -0.419076 
26.982 1 107 28.6506 8.78387 2.58801 1.97277 3.11733 -0.582107 -0.276405 0.4261 0.0387571 0 0 0 0 0 0 0.0286481 0.043321 -0.271232 10.6604 44.1175 -3.039 -14.7789 8.21427 -7.85977 -0.305084 0.453501 0.0130132 44.7027 -28.3669 6.91907 18.9877 -2.00304 6.8535 -0.247437 0.398636 0.0647972 
26.982 1 266 28.319 6.93569 4.40944 -6.73607 5.06123 -4.00274 0.319457 0.238449 0.295153 0 0 0 0 0 0 0.00155872 0.00496422 -0.0834261 31.3241 8.49275 -5.14719 -12.5025 2.70443 -8.23275 0.308202 0.246331 0.291043 23.3906 3.60536 12.7378 -0.761205 7.42904 0.341782 0.330961 0.23048 0.29939 
26.982 1 72 30.613 6.97908 2.66325 -0.803747 0.506579 1.91916 -0.0650579 -0.114778 -0.119835 0 0 0 0 0 0 0.0262944 -0.000551216 -0.293887 20.9457 27.186 19.4885 -3.68204 1.09075 0.564375 -0.0714679 -0.117153 -0.152456 37.41 -15.053 -15.4397 2.1939 -0.0314085 3.41321 -0.0585028 -0.112431 -0.0869431 
26.982 1 309 30.5064 9.0349 4.74839 1.21231 1.08922 -1.65459 0.100766 -0.0062378 -1.2807 0 0 0 0 0 0 0.0121792 -0.00396272 -0.117654 29.8358 9.81237 -12.3894 -0.327418 0.473562 -2.77592 0.105909 -0.0128655 -1.31726 28.3412 6.62592 20.7196 2.87683 1.73599 -0.42424 0.095802 0.000354458 -1.24401 
26.982 1 306 28.3242 10.9444 4.59146 2.01252 -6.72527 -3.7605 -0.237834 0.127787 -0.590005 0 0 0 0 0 0 -0.0324962 0.0276463 -0.115332 11.6765 26.2075 3.6336 -17.2416 -1.62169 -8.28844 -0.280232 0.153766 -0.629279 43.1376 -5.4159 4.40324 21.5623 -11.7765 0.894547 -0.195025 0.10172 -0.550604 
26.982 1 111 32.7197 9.06276 2.72121 3.83206 -0.618502 -1.09803 -0.26019 -0.0698397 0.445595 0 0 0 0 0 0 0.00762305 0.0011918 -0.278892 38.5877 7.84165 -25.4018 5.52289 -1.39222 -5.2507 -0.254267 -0.0760543 0.44273 23.1198 8.81065 29.3527 2.17611 0.220136 3.13875 -0.266075 -0.0635919 0.448598 
26.982 1 270 32.6148 7.02025 4.60174 -3.81897 -4.69515 2.29595 0.0687307 0.130484 0.266471 0 0 0 0 0 0 0.0120096 -0.000107059 -0.101147 42.8425 56.0709 16.7482 -2.28951 -1.08233 2.61786 0.0798307 0.134107 0.268676 18.6364 -43.7155 -8.71494 -5.33151 -8.24757 2.05358 0.0576089 0.12689 0.264364 