ITEM: TIMESTEP
8900
ITEM: NUMBER OF ATOMS
4000
ITEM: BOX BOUNDS pp pp pp
-1.88305 42.383
0.519297 39.9807
0.511078 39.9889
ITEM: ATOMS mass type id x y z vx vy vz fx fy fz xrad yrad zrad vxrad vyrad vzrad fxrad fyrad fzrad xub yub zub vxub vyub vzub fxub fyub fzub xlb ylb zlb vxlb vylb vzlb fxlb fylb fzlb 
26.982 1 43 0.207644 4.44939 2.43375 -0.79252 -5.55924 -2.31098 0.290222 0.0192841 0.0110987 0 0 0 0 0 0 -0.104623 -0.0230555 -0.15065 -9.42632 -1.16583 7.26185 -2.52205 -5.83447 -0.325742 0.301844 0.0291838 0.0199543 13.1517 9.18396 -3.38599 0.943278 -5.26731 -4.28281 0.27853 0.00944116 0.00224309 
26.982 1 202 0.246336 2.5385 4.45167 -4.4328 1.4236 2.02174 0.220119 0.092272 0.111593 0 0 0 0 0 0 -0.0977253 -0.106013 -0.11317 0.865024 -3.60744 6.25701 -4.74144 -0.337799 2.8912 0.234213 0.0899834 0.114334 2.93724 7.68615 1.82844 -4.11457 3.20599 1.17907 0.205994 0.0945576 0.108862 
26.982 1 4 -1.9096 2.47764 2.53629 3.98556 2.09871 0.869476 -0.274888 0.347385 -0.0387755 0 0 0 0 0 0 -0.158932 -0.104078 -0.107284 32.2517 1.43726 4.73471 2.69752 2.08029 1.30931 -0.278293 0.352643 -0.0366019 48.8721 2.51472 -0.60019 5.27771 2.14097 0.458692 -0.271556 0.34211 -0.0409777 
26.982 1 2 0.333862 2.26539 0.645698 3.10891 -1.93047 -2.85841 -0.0308871 0.644677 -0.337428 0 0 0 0 0 0 -0.0697269 -0.115715 -0.1837 2.25257 9.26937 13.7107 3.20078 -0.332843 -0.740233 -0.0261508 0.669277 -0.352128 1.69013 -5.71605 -13.563 3.01972 -3.5031 -4.95944 -0.0356912 0.620068 -0.32276 
26.982 1 8 2.54843 2.44665 2.47376 1.22058 -3.79915 3.09636 0.187841 0.181201 0.138192 0 0 0 0 0 0 -0.0112594 -0.159289 -0.139251 -1.66034 9.55269 1.2719 0.986219 -2.30648 3.2011 0.19445 0.195726 0.148752 9.69101 -5.65178 2.70601 1.45853 -5.272 3.01465 0.181232 0.166647 0.127664 
26.982 1 45 2.4365 4.4491 0.441858 2.67504 -0.477391 -2.82517 0.191015 -0.254641 0.178338 0 0 0 0 0 0 -0.00813899 0.00996153 -0.250661 3.31897 2.7549 41.4068 2.99767 -1.2081 -2.72067 0.200286 -0.265821 0.186886 4.48859 5.29715 39.6899 2.35462 0.278456 -2.90677 0.181697 -0.243419 0.169804 
26.982 1 205 2.78089 0.438795 4.51338 3.69213 1.28739 0.371464 -0.530621 0.0548028 -0.234622 0 0 0 0 0 0 -0.0234644 -0.1669 -0.198716 0.196878 38.3348 3.39694 3.47056 0.587759 0.381152 -0.540372 0.0645928 -0.236342 8.27492 42.7323 4.78089 3.91563 2.0095 0.383315 -0.520803 0.0449496 -0.232895 
26.982 1 245 2.47247 4.48297 4.49572 -0.0919487 -0.120494 4.45972 0.225348 -0.308692 -0.0953185 0 0 0 0 0 0 -0.0173295 -0.0530711 -0.0655907 1.97097 5.03626 4.51214 -0.382449 0.490967 4.83817 0.231614 -0.342799 -0.116554 5.92115 3.08017 3.62802 0.205504 -0.712026 4.10214 0.219117 -0.274596 -0.0740622 
26.982 1 47 4.90693 4.53378 2.51297 1.92951 2.19504 2.06103 -0.248557 -0.469942 0.105588 0 0 0 0 0 0 0.0128867 -0.0316149 -0.18748 1.82726 9.4346 1.40864 1.51569 3.9017 1.45896 -0.260481 -0.493711 0.101616 10.5139 -1.17646 2.65307 2.34359 0.522052 2.68831 -0.236544 -0.446168 0.109616 
26.982 1 206 4.95426 2.28993 4.40204 -0.933283 -2.95536 2.40845 -0.613333 0.744226 -0.110663 0 0 0 0 0 0 -0.0147908 -0.0963163 -0.120994 8.67262 -1.82129 11.1292 -0.495687 -5.12402 4.1444 -0.630466 0.77079 -0.109409 3.76309 5.42198 -3.127 -1.37026 -0.766401 0.70509 -0.596099 0.717677 -0.111849 
26.982 1 12 7.1164 2.38741 2.41726 -2.56884 -0.922128 1.02038 0.0351954 0.278547 0.0222217 0 0 0 0 0 0 0.00649053 -0.135818 -0.182201 7.90038 2.94479 -0.87296 -2.44642 -0.498245 0.280075 0.0408158 0.297445 0.02178 8.4573 0.860505 4.76044 -2.69439 -1.31985 1.79336 0.0296691 0.25962 0.0226971 
26.982 1 249 6.95096 4.4916 4.49678 2.0408 -2.97917 0.506352 0.0798991 0.130515 -0.49466 0 0 0 0 0 0 -0.00190841 -0.0303528 -0.0790923 9.03677 -3.38048 6.41627 1.89685 -3.21525 1.50255 0.0762586 0.123214 -0.514245 6.98445 11.5388 1.72405 2.17923 -2.71581 -0.464273 0.0835852 0.137824 -0.475018 
26.982 1 6 4.94116 2.62351 0.550075 2.4663 -4.24093 3.22239 -0.501671 -0.292445 -0.149952 0 0 0 0 0 0 0.0218327 -0.110462 -0.21329 3.89294 -2.8759 7.26095 2.15867 -5.82801 4.5541 -0.523501 -0.309526 -0.149553 8.5041 7.17037 -7.21131 2.77137 -2.62723 1.91977 -0.47978 -0.27546 -0.150276 
26.982 1 209 7.04336 0.386993 4.26932 -0.567567 -1.85153 1.27575 0.0586399 0.147313 0.151641 0 0 0 0 0 0 0.0199146 -0.183222 -0.193261 10.1531 -2.66099 -0.255996 -0.645503 -2.62011 0.590551 0.0588707 0.162118 0.17059 6.06155 2.33014 7.92294 -0.493772 -1.05694 1.9826 0.0584546 0.132455 0.132706 
26.982 1 51 9.12795 4.52808 2.45801 -0.769602 -2.49805 0.0587477 0.231291 -0.466113 -0.0721206 0 0 0 0 0 0 -0.0374831 -0.0584881 -0.152271 0.574799 6.79841 -6.67514 -2.42585 -1.01485 -2.08929 0.234554 -0.483211 -0.0736538 19.4426 1.44286 10.6414 0.881448 -3.95168 2.23515 0.228012 -0.449046 -0.0705697 
26.982 1 210 9.26609 2.5294 4.47266 2.95692 -5.24042 -3.97511 -0.0361435 -0.319585 -0.663337 0 0 0 0 0 0 0.0266117 -0.140973 -0.113306 6.275 2.77739 6.21016 2.32852 -5.38908 -4.33871 -0.0356232 -0.320905 -0.681176 14.0188 1.29146 1.83539 3.58058 -5.07148 -3.59802 -0.0366703 -0.318276 -0.645476 
26.982 1 53 11.4178 4.55421 0.530037 0.205611 -1.8684 -2.89807 -0.167518 -0.240097 0.023543 0 0 0 0 0 0 -0.0312659 -0.0175667 -0.262152 10.4835 10.5012 -9.85854 -0.48077 -0.193835 -5.12967 -0.16859 -0.251031 0.0286451 13.8161 -2.26474 9.85606 0.897863 -3.52413 -0.645974 -0.166495 -0.229205 0.018376 
26.982 1 10 9.31806 2.34424 0.487921 -6.77214 0.5869 -1.85648 0.272321 0.567818 0.39134 0 0 0 0 0 0 -0.034844 -0.132698 -0.201866 13.2484 1.27217 -5.26325 -6.42825 0.738633 -2.60181 0.293803 0.588557 0.399961 7.17525 2.43975 5.19128 -7.11335 0.451022 -1.07796 0.250886 0.54709 0.382742 
26.982 1 16 11.5376 2.47309 2.3776 2.19023 1.59624 -0.0178688 -0.393451 -0.0234494 0.0648577 0 0 0 0 0 0 -0.0601427 -0.179341 -0.0943681 12.8602 6.2727 -5.65636 2.42679 4.03795 -1.24204 -0.402813 -0.0182811 0.0751024 11.6824 -2.28687 9.414 1.96278 -0.819629 1.22019 -0.384116 -0.0286562 0.0546556 
26.982 1 253 11.4482 4.43865 4.39892 -1.18588 2.49418 6.57249 -0.0129628 -0.261743 -0.053404 0 0 0 0 0 0 -0.00398603 -0.0445873 -0.0455001 11.3515 1.28479 18.0723 -1.41215 2.13608 9.14196 -0.00980717 -0.261744 -0.0584698 13.0044 6.80489 -10.1362 -0.953129 2.88788 4.02569 -0.0161387 -0.261771 -0.0482683 
26.982 1 55 13.6261 4.31944 2.34605 4.38001 0.287702 -5.60941 0.175634 0.42032 0.223306 0 0 0 0 0 0 -0.0131202 -0.00835756 -0.092323 14.4475 3.23076 4.39617 4.3566 0.738385 -5.22773 0.182858 0.445581 0.237546 13.9116 4.59748 -0.646083 4.41 -0.134279 -5.96048 0.168409 0.395042 0.209136 
26.982 1 214 13.7317 2.43598 4.48311 -5.5537 2.53277 1.15705 9.90824e-05 0.500821 -0.141321 0 0 0 0 0 0 -0.0449996 -0.104837 -0.0505747 20.2115 2.29133 9.84434 -4.49212 3.21956 0.36492 0.00277356 0.516661 -0.157361 8.35567 1.63219 -1.77126 -6.60856 1.87317 1.96084 -0.00256525 0.48498 -0.125244 
26.982 1 257 15.9511 4.4606 4.53212 2.19531 -0.381099 1.80917 -0.77727 0.0178194 -0.517328 0 0 0 0 0 0 -0.0176639 -0.0185193 -0.0415762 19.5036 -4.96604 6.99535 3.2608 -2.28608 1.7279 -0.797757 0.0216659 -0.553938 13.133 13.046 1.18687 1.12585 1.54842 1.9089 -0.756753 0.0139531 -0.480658 
26.982 1 15 13.6682 0.527764 2.55919 -1.93948 -0.387969 -6.1611 0.205908 0.188138 -0.37963 0 0 0 0 0 0 -0.0716858 -0.246885 -0.0983081 11.9536 36.4616 7.10372 -2.32932 -0.0322028 -4.75458 0.2143 0.197215 -0.397168 16.4562 44.7633 -2.95291 -1.54854 -0.730476 -7.53866 0.19749 0.179039 -0.362103 
26.982 1 17 15.9251 0.501413 0.402596 2.34534 -3.23591 3.03294 -0.0986005 -0.0549568 0.114563 0 0 0 0 0 0 0.0324455 -0.190783 -0.133092 21.6623 33.9842 36.0647 3.02004 -2.60729 2.83202 -0.0957644 -0.0475141 0.127545 10.8893 47.2145 44.9555 1.66289 -3.84914 3.25824 -0.101484 -0.0623907 0.101632 
26.982 1 14 13.6961 2.3701 0.334586 -2.75644 2.62553 3.33293 0.0405037 -0.0592548 0.171511 0 0 0 0 0 0 -0.0534753 -0.106798 -0.231703 11.852 8.01133 32.4776 -2.92303 4.81329 3.17852 0.0415114 -0.0495474 0.190575 16.6492 -4.25741 48.4091 -2.58478 0.452144 3.51641 0.0394573 -0.0689788 0.152456 
26.982 1 20 15.8003 2.46932 2.41868 -4.56591 1.26162 0.844799 0.133226 -0.0975074 0.0572622 0 0 0 0 0 0 0.0298481 -0.130041 -0.0865806 20.4685 -6.91795 6.90978 -3.55417 -0.546608 1.53662 0.13307 -0.0966571 0.0544289 11.8446 10.9452 -3.04028 -5.58388 3.09417 0.181063 0.133378 -0.0983764 0.06016 
26.982 1 218 17.9466 2.55946 4.486 5.91767 -6.91433 3.73078 0.434191 -0.273476 -0.195145 0 0 0 0 0 0 0.0560608 -0.151799 -0.0785121 13.7503 -1.74022 4.8268 5.51464 -7.36868 3.39073 0.43955 -0.289408 -0.205865 22.4844 5.95326 3.27767 6.30964 -6.42897 4.0911 0.428811 -0.257529 -0.184375 
26.982 1 59 17.9321 4.35362 2.38616 1.17691 1.70916 4.05676 -0.0825828 0.136541 -0.248847 0 0 0 0 0 0 0.0155061 -0.0410765 -0.110125 24.1479 -1.02728 5.38372 2.27933 0.338679 4.9195 -0.096453 0.144228 -0.253794 12.0604 8.91742 -1.55456 0.0617729 3.1051 3.2252 -0.0687331 0.128828 -0.243812 
26.982 1 24 20.1389 2.62355 2.50975 0.193852 1.26925 -2.32276 -0.0647903 -0.165264 -0.15894 0 0 0 0 0 0 0.024103 -0.227596 -0.105283 16.9728 2.03462 7.17555 -0.359986 1.79243 -1.33558 -0.072295 -0.176369 -0.1772 23.2785 2.30043 -3.12405 0.740387 0.77536 -3.28959 -0.0573372 -0.154185 -0.140668 
26.982 1 261 20.232 4.42264 4.61672 2.83589 -1.35105 -0.389908 -0.0510103 0.140214 -0.373616 0 0 0 0 0 0 0.0186158 -0.0547308 -0.0482588 17.8232 3.58488 8.53426 3.00083 -1.53566 -0.695961 -0.040996 0.143134 -0.393293 22.6142 4.43759 -0.163481 2.66127 -1.14501 -0.0648085 -0.0610943 0.137256 -0.353905 
26.982 1 217 16.0124 0.543386 4.48603 5.73465 2.9374 -2.04242 -0.199706 -0.395697 -0.194895 0 0 0 0 0 0 0.0416614 -0.20733 -0.139945 22.8255 35.6125 9.94123 6.98394 3.33374 -1.14487 -0.197169 -0.413476 -0.21397 9.89531 45.6783 -1.83496 4.47739 2.5648 -2.9259 -0.20224 -0.377883 -0.17584 
26.982 1 57 15.8904 4.28659 0.309909 5.36721 -3.02286 -1.53926 -0.124762 0.387267 0.311165 0 0 0 0 0 0 0.00311745 0.00150285 -0.260239 19.6576 9.49869 -4.58179 6.20211 -1.7128 -2.16447 -0.126275 0.40613 0.326136 12.8502 -1.77116 4.18699 4.52829 -4.31676 -0.873229 -0.123266 0.368384 0.29625 
26.982 1 61 20.1844 4.51006 0.400047 -3.83795 -1.50794 -1.91133 0.331961 -0.307653 0.180449 0 0 0 0 0 0 0.01865 -0.0218396 -0.252697 25.3207 -2.5084 -5.1934 -2.83965 -2.00281 -2.71267 0.335451 -0.302675 0.194611 15.0232 10.6811 4.94623 -4.84291 -0.998927 -1.07984 0.328489 -0.312629 0.166291 
26.982 1 18 18.1073 2.32432 0.355814 -2.02926 -4.70361 0.434986 0.0544864 0.0331809 0.143963 0 0 0 0 0 0 0.0623825 -0.139835 -0.187023 22.5737 -0.356906 4.33868 -0.713135 -4.87011 1.07433 0.0546509 0.0399795 0.154835 13.9732 4.07964 -4.68683 -3.35554 -4.51012 -0.175671 0.0543238 0.0263949 0.133161 
26.982 1 63 22.3308 4.35566 2.27358 -4.39684 0.872271 0.209017 0.452623 0.388279 0.675895 0 0 0 0 0 0 0.0564117 -0.0585709 -0.119602 27.2471 8.91294 2.1826 -3.65396 2.14333 0.860666 0.463535 0.405203 0.700825 17.0476 -1.01996 1.42737 -5.13871 -0.381166 -0.416001 0.441703 0.371344 0.651011 
26.982 1 222 22.2469 2.58431 4.49878 2.17716 -1.8671 -3.88591 0.75635 0.0591891 0.0598501 0 0 0 0 0 0 0.0123852 -0.171605 -0.100119 20.5571 3.91082 7.02192 1.99315 -0.688627 -3.67451 0.768014 0.0600229 0.0631852 23.5655 0.332715 1.12337 2.35953 -3.02477 -4.07382 0.744679 0.0583086 0.0565845 
26.982 1 22 22.5183 2.50407 0.356063 3.77451 0.336488 -0.58732 0.257079 -0.248488 0.191464 0 0 0 0 0 0 0.0280974 -0.110632 -0.174998 29.9843 8.44642 -0.165773 5.04966 2.20896 -0.711518 0.267387 -0.245309 0.208222 14.7127 -4.36847 -0.172792 2.50663 -1.5107 -0.4386 0.246796 -0.251666 0.174681 
26.982 1 28 24.7286 2.41789 2.59539 -4.17832 -3.32189 -0.769162 -0.111051 0.592998 -0.445305 0 0 0 0 0 0 0.0283819 -0.149398 -0.132419 25.9458 6.70298 7.7888 -3.81971 -2.77699 0.364643 -0.112737 0.623086 -0.464815 22.8322 -2.79538 -3.58932 -4.52737 -3.8442 -1.8868 -0.109322 0.562913 -0.425789 
26.982 1 265 24.685 4.58887 4.47176 -7.29395 0.886652 -1.62045 -0.249199 -0.93869 -0.129376 0 0 0 0 0 0 -0.00773948 -0.0848229 -0.0854896 27.6307 -7.69 5.07389 -7.5188 -1.42755 -1.96408 -0.271075 -0.970853 -0.152861 21.0376 16.014 2.98713 -7.0599 3.22138 -1.25857 -0.227245 -0.906559 -0.105815 
26.982 1 67 26.8845 4.37767 2.53567 -3.31201 0.9415 -2.33463 0.076917 -0.0561254 -0.151812 0 0 0 0 0 0 0.0167022 -0.0545633 -0.250532 27.8395 -1.23498 6.00003 -3.59596 0.589036 -1.81727 0.0798657 -0.0517869 -0.180558 24.8944 9.12028 -1.89085 -3.01399 1.31243 -2.83192 0.0740142 -0.0604089 -0.123034 
26.982 1 226 26.8574 2.42346 4.63964 1.38349 3.88176 3.62306 -0.0633082 0.196222 -0.669232 0 0 0 0 0 0 0.00084436 -0.159531 -0.148176 26.0113 0.34019 7.92513 1.17932 2.62587 4.31086 -0.0632467 0.196309 -0.694566 26.6851 3.61607 0.453684 1.60113 5.17909 2.94846 -0.0633823 0.196168 -0.643862 
26.982 1 32 28.99 2.43619 2.41079 -7.68268 -0.651416 4.2211 0.561969 0.345722 0.055841 0 0 0 0 0 0 -0.0299709 -0.0937251 -0.157612 21.3149 5.29022 7.94197 -9.57446 -0.280882 6.10188 0.568486 0.364868 0.0599701 35.2461 -1.33189 -4.08393 -5.77974 -0.990612 2.35668 0.555405 0.326625 0.0517474 
26.982 1 25 24.7074 0.384057 0.371919 -0.962934 0.180094 -1.53056 0.081606 0.744349 0.0678878 0 0 0 0 0 0 0.0205037 -0.107114 -0.0718456 20.4646 4.24127 5.10333 -1.54971 1.56305 -0.901043 0.0810049 0.77418 0.0760143 28.2802 -4.53731 -5.42513 -0.366966 -1.17899 -2.14286 0.0822357 0.714538 0.0597743 
26.982 1 29 29.1741 0.479415 0.392577 -3.99163 3.32806 -2.59438 -0.146293 0.0767235 0.214533 0 0 0 0 0 0 -0.0157207 -0.0773472 -0.115454 27.0567 -10.9391 45.9741 -4.71224 0.870732 -1.16625 -0.141196 0.0849545 0.233735 29.8337 10.8049 35.0049 -3.26903 5.80971 -4.01695 -0.151424 0.0684925 0.195347 
26.982 1 269 29.0555 4.53381 4.43567 -5.21764 -4.82984 -2.39848 -0.103032 -0.327487 -0.297717 0 0 0 0 0 0 -0.00180988 -0.0659101 -0.0999028 26.4592 11.4182 14.3675 -5.23769 -4.41877 -0.89433 -0.0993853 -0.352652 -0.316695 30.2657 -3.20363 -6.33008 -5.18336 -5.21915 -3.87318 -0.106731 -0.302239 -0.278701 
26.982 1 71 31.2957 4.50986 2.37286 -0.646355 8.00917 0.49125 -0.212754 -0.170826 0.134189 0 0 0 0 0 0 -0.0114469 -0.0385615 -0.254546 30.5602 8.15133 1.14888 -0.757536 9.43044 0.674338 -0.221317 -0.196772 0.14617 30.2085 -0.00672224 2.68906 -0.534702 6.60394 0.336878 -0.20423 -0.144816 0.122244 
26.982 1 230 31.2329 2.603 4.38287 3.31415 -2.04166 1.52314 0.176049 -0.0587186 0.0558695 0 0 0 0 0 0 0.00438217 -0.137512 -0.0905879 23.1433 -3.44248 5.21515 2.12889 -3.35895 1.11116 0.184339 -0.0693923 0.0612772 37.522 7.74001 2.74036 4.50426 -0.689517 1.96242 0.167735 -0.0480163 0.0505011 
26.982 1 273 33.5638 4.46284 4.59029 1.46773 0.927165 -3.50012 -0.0410242 0.157595 0.0378861 0 0 0 0 0 0 -0.00674516 -0.0576304 -0.0742675 39.6918 10.2843 3.84185 1.79576 3.42839 -3.84766 -0.0405651 0.149433 0.0320827 25.2179 -2.24072 4.49875 1.13046 -1.55828 -3.13069 -0.0414802 0.165811 0.0436781 
26.982 1 31 31.2489 0.474903 2.48005 2.52107 -0.192855 2.30818 0.0162658 0.128504 0.136391 0 0 0 0 0 0 0.0411672 -0.164666 -0.112682 30.5529 28.293 2.32486 2.50086 -2.8432 3.26234 0.0144457 0.140895 0.136371 30.1135 52.9564 1.7035 2.54159 2.5021 1.3755 0.0180912 0.116075 0.136411 
26.982 1 36 33.5813 2.68508 2.542 1.21037 -1.74948 -7.65349 -0.241268 -0.616473 0.174449 0 0 0 0 0 0 0.0115728 -0.161099 -0.201721 34.0343 0.00158003 -2.0491 1.56948 -2.4631 -8.22458 -0.249729 -0.639945 0.184435 30.931 4.43557 6.23811 0.844475 -1.00689 -7.05214 -0.232742 -0.593047 0.164452 
26.982 1 75 35.7296 4.55334 2.32653 2.85465 -5.50415 1.10483 0.117557 -0.208408 0.382902 0 0 0 0 0 0 -0.0551606 -0.0868941 -0.177175 39.8795 6.43059 4.93438 3.13481 -3.76338 1.28397 0.119576 -0.215185 0.399277 28.997 1.76286 -1.20158 2.56097 -7.23135 0.954254 0.115565 -0.201696 0.366542 
26.982 1 234 35.8036 2.61925 4.48088 5.42681 -5.36729 -2.15286 -0.134868 -0.666787 -0.359179 0 0 0 0 0 0 -0.0483926 -0.14625 -0.116257 42.0658 1.17954 4.45157 6.69896 -6.20981 -2.31543 -0.139012 -0.682848 -0.365775 26.9667 3.08887 3.7161 4.14337 -4.50103 -1.96046 -0.130664 -0.650782 -0.352625 
26.982 1 40 37.8491 2.48764 2.46908 -1.39006 -5.48567 -2.63626 -0.088846 0.224321 0.226748 0 0 0 0 0 0 -0.0845556 -0.143892 -0.160585 41.6484 10.366 -1.54945 -0.499953 -4.25132 -4.35706 -0.0945389 0.226162 0.247915 31.122 -6.39904 5.55985 -2.2925 -6.69667 -0.889499 -0.0831754 0.222416 0.205559 
26.982 1 237 37.819 0.497668 4.35171 5.12197 -1.21504 2.70145 0.0107462 0.156751 0.409702 0 0 0 0 0 0 -0.064649 -0.176956 -0.150014 37.8893 4.48101 10.2289 5.70832 -0.236604 3.84489 0.00419305 0.17229 0.441626 34.823 -4.59045 -2.33462 4.52412 -2.16926 1.58975 0.0172622 0.141201 0.377741 
26.982 1 77 37.8977 4.31714 0.409389 -2.97787 -0.111723 -4.05714 -0.158939 0.710715 0.367827 0 0 0 0 0 0 -0.0161088 -0.0346636 -0.262557 38.3058 8.85905 34.4233 -2.89739 1.2877 -6.3724 -0.161189 0.737927 0.3829 34.5782 -1.10525 46.5826 -3.06394 -1.49337 -1.7272 -0.156675 0.68345 0.35278 
26.982 1 1 42.2958 0.586513 0.550191 -6.46529 3.70507 -0.490209 -0.251372 0.165458 -0.545288 0 0 0 0 0 0 0.0308211 -0.15704 -0.147942 38.7568 47.7617 5.81361 -7.52333 5.60467 -0.204313 -0.261864 0.1753 -0.576115 42.2529 33.5485 -5.81696 -5.39988 1.8218 -0.760906 -0.240948 0.155573 -0.514477 
26.982 1 39 39.9727 0.498531 2.42848 0.204965 5.53305 0.907071 0.403681 0.231055 0.127176 0 0 0 0 0 0 0.00171517 -0.224409 -0.0992976 37.9919 38.8032 7.3652 -0.0588139 4.92833 2.06306 0.413606 0.257112 0.141873 38.6943 42.3749 -3.4142 0.466981 6.16426 -0.207732 0.393667 0.204966 0.112458 
26.982 1 277 38.0025 4.40262 4.57885 4.98877 -4.41634 0.0285827 -0.179772 0.137662 -0.179936 0 0 0 0 0 0 -0.00444657 -0.0268509 -0.0431919 37.6218 13.8854 -3.06251 5.16434 -1.79401 -1.20518 -0.180431 0.146972 -0.180063 35.4439 -5.9758 11.4066 4.80241 -7.02112 1.2906 -0.179116 0.128314 -0.179812 
26.982 1 241 42.3042 4.54216 4.65625 -2.46939 -0.920966 -1.32916 -0.148289 -0.312144 -0.400232 0 0 0 0 0 0 -0.00109651 -0.0436463 -0.0644026 -5.44571 6.6358 0.334003 -3.23988 -0.0240995 -2.67449 -0.154783 -0.333125 -0.420181 5.14391 1.57908 8.16725 -1.69645 -1.79144 0.0353141 -0.14185 -0.291173 -0.380295 
26.982 1 79 40.1033 4.49726 2.54177 2.22273 3.23805 1.75405 0.320074 -0.109192 0.0526703 0 0 0 0 0 0 0.0493143 -0.00128781 -0.168506 36.5338 16.4375 -4.75266 1.71559 6.37403 0.342169 0.327345 -0.110408 0.0572539 40.4078 -8.3257 8.91657 2.72718 0.119748 3.19415 0.312778 -0.108018 0.0480684 
26.982 1 238 40.0592 2.51522 4.46266 -1.05907 0.847868 -0.0280859 0.223992 -0.045726 -0.0726428 0 0 0 0 0 0 0.0372076 -0.0961617 -0.0628822 44.8625 2.44353 2.17111 -0.430857 0.341059 -1.14338 0.228579 -0.0507635 -0.062444 31.9798 1.60385 5.94559 -1.69376 1.38119 1.1184 0.219335 -0.0407033 -0.0828513 
26.982 1 38 39.9623 2.52 0.683755 -1.54962 0.0362958 -1.14119 0.628214 -0.183511 -0.497843 0 0 0 0 0 0 0.00961574 -0.0573365 -0.247517 38.0585 7.40128 50.6107 -1.89972 0.678705 1.04515 0.6455 -0.186638 -0.510931 38.6104 -3.33647 30.9651 -1.20106 -0.57563 -3.30066 0.610854 -0.180414 -0.484748 
26.982 1 83 0.29505 8.34934 2.51053 5.02273 -0.846237 2.48221 0.123825 0.248052 -0.145808 0 0 0 0 0 0 -0.109865 -0.0550378 -0.21111 -1.87287 17.9714 6.37389 4.61476 0.520357 3.20475 0.127814 0.258151 -0.142045 5.75537 -1.95908 -2.34686 5.4324 -2.20154 1.77956 0.119848 0.237996 -0.149598 
26.982 1 242 0.241512 6.4252 4.3911 4.46099 2.38533 -1.65106 0.353614 -0.0218192 0.0690403 0 0 0 0 0 0 -0.116755 -0.0358673 -0.117042 -4.86151 9.27201 10.8907 3.54665 3.73763 -0.697574 0.363821 -0.0154575 0.0614558 8.64161 2.82118 -2.91826 5.37905 1.04303 -2.57609 0.343388 -0.0281321 0.076661 
26.982 1 285 2.72273 8.5413 4.57602 2.0866 -3.17176 -6.00933 -0.664941 -0.459396 -0.572803 0 0 0 0 0 0 -0.036187 -0.0274657 -0.0546482 -7.20784 12.1281 2.53394 0.483282 -1.68968 -5.96081 -0.682729 -0.477599 -0.58587 15.6138 4.27059 5.73821 3.701 -4.64098 -6.04304 -0.647113 -0.441182 -0.559717 
26.982 1 84 -2.007 10.4405 2.50803 0.0496675 5.06066 3.99583 0.44743 -0.372516 0.247123 0 0 0 0 0 0 -0.176432 -0.0859532 -0.167172 40.2127 14.0065 -8.47308 0.101445 6.21901 2.71093 0.45131 -0.377178 0.257487 40.6804 6.37138 12.4628 -0.0095484 3.92802 5.29293 0.443579 -0.367876 0.236742 
26.982 1 85 2.48217 8.3407 0.567476 3.62114 1.65512 4.2499 0.0558335 -0.182231 0.246168 0 0 0 0 0 0 -0.0665221 -0.0340006 -0.266815 -5.69789 14.0069 12.1987 2.53858 2.966 6.93507 0.049616 -0.190392 0.266985 13.5844 2.03857 -12.1748 4.70881 0.364714 1.57916 0.0620382 -0.173974 0.225345 
26.982 1 281 -1.83346 8.29461 4.46524 0.628728 -0.765105 -2.50972 -0.274077 0.175127 -0.0837198 0 0 0 0 0 0 -0.119124 -0.109954 -0.150921 42.8641 20.6636 6.31569 0.662647 2.5205 -2.93587 -0.274867 0.192328 -0.0900561 38.4031 -4.71095 1.7715 0.590155 -4.03988 -2.06657 -0.273278 0.157926 -0.0773566 
26.982 1 282 0.374254 10.268 4.50302 6.10038 -3.73421 1.37368 -0.119069 0.198079 0.135821 0 0 0 0 0 0 -0.0591711 -0.00483191 -0.0633483 -2.01126 25.1319 3.33406 5.91745 -1.99128 0.563251 -0.125345 0.213641 0.145536 6.0148 -5.17627 4.77149 6.27891 -5.46842 2.19151 -0.11275 0.18254 0.126137 
26.982 1 48 2.63224 6.30772 2.56012 0.965311 1.0593 -3.40592 -0.40946 0.376917 -0.208926 0 0 0 0 0 0 -0.0401311 -0.0022392 -0.174116 -6.4371 11.3891 -3.14824 -0.647152 3.5656 -5.41825 -0.419202 0.376556 -0.216898 14.6497 0.464704 7.29015 2.58528 -1.4379 -1.37222 -0.399722 0.377371 -0.200947 
26.982 1 87 4.63197 8.35896 2.54082 3.23849 0.434205 -1.59813 0.404304 -0.158625 -0.476638 0 0 0 0 0 0 0.00263686 -0.0481577 -0.16141 0.577621 12.5104 8.90393 2.44424 0.9704 -1.07762 0.409702 -0.170406 -0.48325 11.2525 3.55535 -4.79512 4.04286 -0.0813774 -2.09799 0.398923 -0.14678 -0.469994 
26.982 1 246 4.81054 6.41763 4.453 -3.32344 4.91011 0.889262 0.0752965 0.168263 0.0944861 0 0 0 0 0 0 0.00289506 -0.0169282 -0.0601982 9.63348 9.13687 8.32569 -2.82649 5.92734 2.39273 0.076423 0.16101 0.086136 2.54392 2.94679 -0.306426 -3.81192 3.91044 -0.600387 0.0742374 0.175548 0.102907 
26.982 1 289 7.02954 8.49592 4.47494 4.32073 0.227731 1.53806 -0.270542 -0.783933 0.0205001 0 0 0 0 0 0 0.00263003 -0.0315303 -0.044937 12.5674 7.95978 11.5463 4.7868 0.202554 4.44841 -0.270613 -0.810468 0.0162393 3.64618 8.37501 -3.48884 3.85318 0.265588 -1.3593 -0.270485 -0.757433 0.0247979 
26.982 1 88 2.4432 10.4215 2.50608 -1.74763 -0.761652 0.98388 0.0520466 -0.103641 -0.130995 0 0 0 0 0 0 -0.0670359 -0.00817894 -0.161622 -4.48499 15.2507 6.17197 -3.11468 -0.168792 2.20252 0.0366 -0.103416 -0.13235 12.3404 5.01943 -2.1675 -0.367312 -1.34189 -0.218988 0.0675287 -0.103834 -0.129686 
26.982 1 86 4.66725 10.3306 0.59789 2.00967 2.77828 3.53726 0.489595 0.0889584 0.490061 0 0 0 0 0 0 -0.00827647 -0.0232256 -0.277588 0.397314 9.38935 47.7094 0.724382 1.93221 5.07581 0.505069 0.083404 0.50182 11.4829 10.768 33.7678 3.3004 3.6552 2.03433 0.474087 0.0945677 0.478296 
26.982 1 89 7.0038 8.40379 0.591234 5.60022 -0.541901 5.63256 -0.158197 0.391133 -0.00377123 0 0 0 0 0 0 0.0105588 -0.0141001 -0.276151 10.5687 10.8495 -1.57849 6.2827 0.107589 4.71878 -0.156458 0.398069 -0.00930754 5.55716 5.31665 1.74611 4.90886 -1.17011 6.57817 -0.159945 0.38422 0.00174043 
26.982 1 52 7.03818 6.42748 2.45396 -0.504472 -0.0675567 -3.62735 -0.172454 0.167887 0.212488 0 0 0 0 0 0 -0.0238781 -0.0281242 -0.173358 9.32498 6.467 8.94018 -0.261271 -0.327295 -3.25498 -0.173136 0.171978 0.219178 6.87681 5.65472 -4.96646 -0.752655 0.213153 -3.96497 -0.171729 0.163802 0.205864 
26.982 1 91 9.18595 8.63607 2.67275 1.41875 -0.394712 0.329962 -0.265173 -1.06164 -0.807719 0 0 0 0 0 0 0.0265464 -0.00485361 -0.183908 11.755 6.19377 5.43524 1.87586 -0.371466 0.713095 -0.265802 -1.08521 -0.839402 8.38351 10.4283 -1.01529 0.952044 -0.403754 -0.0198693 -0.264606 -1.03813 -0.776042 
26.982 1 250 9.15412 6.30243 4.53539 -2.7437 0.0837696 -1.42502 0.0627673 0.450138 -0.229563 0 0 0 0 0 0 -0.00432544 0.0150382 -0.0501297 8.34111 9.62908 18.702 -2.78798 1.86338 0.872712 0.0604109 0.467389 -0.247911 11.7321 2.30055 -10.5793 -2.70459 -1.66371 -3.71813 0.0650793 0.432884 -0.211187 
26.982 1 293 11.355 8.40624 4.6525 7.40197 -1.14556 2.80163 0.258899 -0.354236 -0.520855 0 0 0 0 0 0 0.0137689 0.0126049 -0.0597609 9.85162 14.5691 19.3989 7.32532 1.12769 5.93011 0.271646 -0.349322 -0.543931 14.3011 1.55716 -10.9516 7.4791 -3.41988 -0.298183 0.246123 -0.359185 -0.497733 
26.982 1 290 9.06931 10.4128 4.49491 -0.261032 6.2815 1.07205 0.641118 0.586131 0.530916 0 0 0 0 0 0 0.0215507 0.0152179 -0.0330127 9.03661 19.5364 22.2238 0.560036 8.33882 4.47799 0.654505 0.604926 0.536386 10.874 0.726685 -14.0785 -1.09154 4.22682 -2.31727 0.627664 0.567306 0.525489 
26.982 1 96 11.3024 10.1949 2.50325 3.7651 -4.83356 4.59233 0.584573 0.582185 -0.0737734 0 0 0 0 0 0 0.0164529 -0.0149544 -0.201089 10.7495 12.7388 -8.4308 3.73227 -4.56504 3.40537 0.597306 0.597875 -0.0861561 13.2669 7.09675 12.4919 3.78659 -5.09477 5.79846 0.571809 0.566502 -0.0613951 
26.982 1 50 9.15985 6.5614 0.560229 -1.1684 -0.391402 1.25362 0.158741 -0.0149897 -0.0213074 0 0 0 0 0 0 -0.00292809 0.0172457 -0.273039 13.2468 17.3203 -0.34426 -0.799103 2.56082 1.51946 0.162501 -0.0176254 -0.0155375 6.85288 -4.94988 0.454611 -1.54205 -3.32885 1.02454 0.154979 -0.0124134 -0.0271128 
26.982 1 56 11.2644 6.47598 2.58318 6.08342 -2.01797 -1.87279 0.197009 0.184778 -0.0816031 0 0 0 0 0 0 0.00239891 0.0388944 -0.145167 14.788 8.27217 7.11376 6.76056 -1.09918 -0.81737 0.204778 0.178295 -0.087606 9.20659 3.94344 -2.88367 5.41212 -2.91677 -2.89238 0.189181 0.191189 -0.075586 
26.982 1 95 13.5209 8.35654 2.65268 4.58925 -2.23037 0.831124 0.250134 -0.320633 -0.385598 0 0 0 0 0 0 -0.0326687 0.0352851 -0.15863 14.3934 12.6762 -3.67905 3.80185 -0.991015 0.373395 0.256677 -0.324285 -0.397491 13.7336 3.36271 8.06661 5.37826 -3.46252 1.32687 0.243597 -0.317004 -0.373686 
26.982 1 254 13.5865 6.28577 4.51762 -1.65889 -1.30826 2.28963 0.278733 0.378482 -0.378568 0 0 0 0 0 0 0.000723873 0.0225853 -0.0416176 11.6972 5.00354 16.0577 -2.38886 -2.31252 5.05215 0.286307 0.398364 -0.401171 16.5841 6.85434 -7.92578 -0.922173 -0.282719 -0.458503 0.271191 0.358586 -0.355878 
26.982 1 60 15.8163 6.36187 2.3879 0.314532 1.44814 4.7854 -0.281626 -0.286169 0.265869 0 0 0 0 0 0 -0.0184154 0.022102 -0.0999422 22.3955 10.1834 -3.76672 1.41102 1.5514 3.84773 -0.294655 -0.282708 0.27326 9.95081 1.76386 7.59571 -0.786989 1.35533 5.75226 -0.268554 -0.289658 0.258576 
26.982 1 97 15.7001 8.27372 0.568073 -0.936328 3.80641 -1.34301 0.0550822 0.649487 -0.386186 0 0 0 0 0 0 -0.0391647 0.0532344 -0.263784 18.2727 11.093 7.99095 -0.1985 4.477 -0.395658 0.0476891 0.666548 -0.395165 13.8561 4.80542 -7.93406 -1.67213 3.15034 -2.26778 0.0624898 0.632467 -0.377226 
26.982 1 54 13.5065 6.48878 0.447509 -0.699082 -2.95514 -4.35413 0.333724 -0.153503 0.165405 0 0 0 0 0 0 -0.0450768 0.0546726 -0.251626 9.98671 14.8904 -9.82085 -1.4865 -1.61198 -6.8532 0.342274 -0.166187 0.185325 18.1234 -2.67991 9.65098 0.092317 -4.29121 -1.82578 0.325115 -0.140897 0.145455 
26.982 1 297 15.9486 8.36033 4.56902 1.02354 3.04498 -0.934195 -0.525566 -0.0939296 -0.629549 0 0 0 0 0 0 -0.0219328 0.0154253 -0.0416344 20.8265 16.5141 0.0613743 1.70255 5.19581 -0.721664 -0.543543 -0.082764 -0.653823 11.8063 -0.458543 8.22039 0.344104 0.904932 -1.12423 -0.50755 -0.105116 -0.605193 
26.982 1 99 17.9101 8.38791 2.55207 0.693898 -2.63415 -4.74407 0.235916 -0.498904 -0.567088 0 0 0 0 0 0 0.03135 0.0106527 -0.134337 18.2389 10.8021 -2.38913 1.46646 -2.14563 -4.40631 0.233943 -0.494697 -0.578373 17.9565 5.26131 6.54988 -0.0816907 -3.11767 -5.05344 0.23792 -0.503083 -0.555775 
26.982 1 258 17.9177 6.33723 4.39788 -0.169118 -2.85367 -4.2274 0.390562 0.321194 -0.274061 0 0 0 0 0 0 0.0134541 0.0212712 -0.0362557 16.5271 9.85922 4.62643 0.0197411 -3.21956 -4.46678 0.396032 0.346602 -0.288283 19.6558 2.07199 3.30307 -0.37216 -2.4704 -3.96907 0.38506 0.295774 -0.25975 
26.982 1 58 18.0199 6.55085 0.343822 -3.76058 -0.907488 1.37012 -0.256656 -0.463261 0.759495 0 0 0 0 0 0 0.0356864 0.0310327 -0.266597 7.61908 25.2812 8.03351 -4.89281 2.78642 3.24583 -0.271475 -0.483752 0.77179 28.7713 -12.9485 -8.38094 -2.635 -4.58298 -0.465808 -0.241795 -0.442799 0.74724 
26.982 1 64 20.0403 6.13403 2.54873 3.75793 -4.00888 -1.09671 0.3985 0.866629 -0.091914 0 0 0 0 0 0 0.0191847 0.040124 -0.119553 19.5776 4.35019 -1.45934 4.24971 -4.86706 -1.34947 0.407275 0.894358 -0.0924141 20.492 7.17938 5.59401 3.25849 -3.12699 -0.822884 0.389668 0.838941 -0.0913936 
26.982 1 104 20.3573 10.2921 2.52659 3.95074 -2.29534 -0.407142 -0.427617 0.339916 -0.203715 0 0 0 0 0 0 -0.00995243 -0.0227233 -0.140412 19.9656 20.3151 4.09296 4.03471 -0.522237 0.54095 -0.440269 0.355148 -0.203602 20.7533 -0.312121 0.0147397 3.86555 -4.06309 -1.32723 -0.414958 0.324701 -0.203833 
26.982 1 102 22.436 10.4118 0.580561 -0.249438 -4.71918 -2.75214 0.135118 0.115916 -0.0262532 0 0 0 0 0 0 0.0277933 0.000735535 -0.29398 25.3839 10.0243 45.898 0.366204 -4.85273 -2.81553 0.14095 0.110294 -0.0460237 19.1077 10.2714 35.4817 -0.868902 -4.56678 -2.66916 0.129264 0.121508 -0.00652698 
26.982 1 301 20.3968 8.42402 4.4629 0.387535 -1.8899 -2.56705 -0.445265 -0.598485 0.0584239 0 0 0 0 0 0 -0.0076588 -0.0122381 -0.0241681 16.9624 3.26866 3.1049 -0.050815 -2.76529 -3.37633 -0.451971 -0.61098 0.0737416 23.8084 12.9108 4.97198 0.817186 -0.996208 -1.74019 -0.438591 -0.58597 0.043163 
26.982 1 103 22.2893 8.34284 2.3857 9.05209 1.3192 -0.238264 0.337351 -0.69324 -0.0866052 0 0 0 0 0 0 -0.0162055 -0.0211721 -0.152402 19.4524 16.9824 2.16514 8.6291 1.89098 -0.960654 0.337611 -0.718671 -0.0845295 24.7307 -0.927328 1.66267 9.47038 0.774665 0.507904 0.337068 -0.667758 -0.0886601 
26.982 1 262 22.4644 6.40589 4.63537 0.656565 -1.39344 0.56736 -0.138482 0.124067 -0.749704 0 0 0 0 0 0 -0.00526305 -0.00819233 -0.055822 21.096 6.58259 3.96118 0.702728 -1.50168 0.610872 -0.145808 0.125995 -0.783112 23.4456 5.47984 4.4541 0.609667 -1.26826 0.546313 -0.13114 0.122145 -0.716274 