ITEM: TIMESTEP
8650
ITEM: NUMBER OF ATOMS
4000
ITEM: BOX BOUNDS pp pp pp
-1.83224 42.3322
0.516127 39.9839
0.488602 40.0114
ITEM: ATOMS mass type id x y z vx vy vz fx fy fz xrad yrad zrad vxrad vyrad vzrad fxrad fyrad fzrad xub yub zub vxub vyub vzub fxub fyub fzub xlb ylb zlb vxlb vylb vzlb fxlb fylb fzlb 
26.982 1 43 0.324392 4.34538 2.40941 1.44069 2.84798 1.27987 0.0638312 0.248159 -0.150243 0 0 0 0 0 0 -0.107809 -0.0184607 -0.136315 -8.92571 -1.276 6.79897 -0.236213 2.80213 3.01472 0.0673187 0.271559 -0.147507 12.7911 9.08738 -2.93503 3.12482 2.90907 -0.441172 0.0603047 0.224761 -0.152987 
26.982 1 202 0.335582 2.51024 4.37747 -2.35567 -2.64951 2.91119 0.0620382 0.233399 0.461953 0 0 0 0 0 0 -0.106544 -0.107308 -0.0988812 0.980809 -3.19768 6.09532 -2.62132 -4.60066 3.1421 0.0653673 0.236549 0.479525 2.90589 7.22063 1.87175 -2.0798 -0.682074 2.70512 0.0587064 0.230264 0.444321 
26.982 1 4 -1.77999 2.49992 2.4168 2.58421 -3.5979 -2.18146 -0.176793 0.106477 -0.00126868 0 0 0 0 0 0 -0.162403 -0.104285 -0.094063 32.6675 1.52558 4.55928 1.29601 -4.00083 -2.14134 -0.179261 0.108269 0.0061937 48.6129 2.47134 -0.630408 3.8756 -3.1747 -2.19358 -0.174329 0.104684 -0.00874172 
26.982 1 2 0.36237 2.39815 0.378198 2.60607 -3.07222 2.18292 -0.036516 0.393119 0.0732479 0 0 0 0 0 0 -0.0748789 -0.10672 -0.177934 2.22058 9.03265 12.8832 2.71035 -1.94382 4.53069 -0.0391359 0.407698 0.0722896 1.68674 -5.21422 -13.2292 2.50501 -4.17912 -0.154694 -0.0339522 0.378556 0.0742726 
26.982 1 8 2.46213 2.41436 2.40035 -5.58895 -7.62522 -0.358879 0.37182 0.291555 0.0801818 0 0 0 0 0 0 -0.00620458 -0.175137 -0.138205 -1.70999 9.13122 1.2972 -5.97725 -6.64187 -0.890032 0.380546 0.299427 0.083536 9.48536 -5.29369 2.56891 -5.19505 -8.59231 0.19481 0.363022 0.283651 0.0768492 
26.982 1 45 2.36511 4.54597 0.306168 0.297015 4.24649 0.823221 0.507174 -0.730623 0.271112 0 0 0 0 0 0 -0.00986252 0.0118086 -0.245723 3.11437 2.97766 41.235 0.679573 3.96085 1.10675 0.517323 -0.756872 0.286537 4.46796 5.26715 39.6295 -0.0812589 4.55488 0.561545 0.496957 -0.70438 0.255709 
26.982 1 205 2.67235 0.418178 4.47823 0.647813 1.7979 0.422301 -0.514877 1.01008 -0.0550022 0 0 0 0 0 0 -0.0175969 -0.171086 -0.205018 0.15857 38.5217 3.38673 0.148702 1.06544 0.184868 -0.521607 1.04066 -0.0591458 8.01407 42.5054 4.7516 1.15018 2.54994 0.681654 -0.508152 0.97949 -0.0509024 
26.982 1 245 2.60552 4.43586 4.48088 -2.4007 -0.193348 0.203538 -0.332512 0.054734 -0.0839161 0 0 0 0 0 0 -0.022981 -0.0311726 -0.0536714 2.15802 4.82774 4.53074 -2.82154 0.241795 -0.0841906 -0.336538 0.0538455 -0.0947068 5.9167 3.1949 3.6109 -1.97097 -0.609869 0.511335 -0.328547 0.0556031 -0.0731226 
26.982 1 47 4.62816 4.4314 2.38419 -2.03102 1.90735 -7.93033 0.22647 -0.113856 -0.198422 0 0 0 0 0 0 0.0351669 -0.0244269 -0.173948 1.62315 8.86504 1.49868 -2.45447 3.69193 -9.20096 0.232538 -0.112219 -0.198929 10.0889 -0.814432 2.33959 -1.60531 0.153283 -6.6347 0.220321 -0.11551 -0.197915 
26.982 1 206 4.7459 2.56431 4.53183 -4.99001 -2.95245 0.477503 -0.0588665 -0.0363772 -0.171149 0 0 0 0 0 0 0.00845202 -0.10623 -0.104934 8.31939 -1.06163 10.9456 -4.68504 -4.90888 1.5116 -0.054496 -0.0356545 -0.17863 3.62796 5.21267 -2.65529 -5.29293 -0.981163 -0.524209 -0.0633147 -0.0371414 -0.16365 
26.982 1 12 6.91907 2.4759 2.36703 0.275735 -1.06983 -4.0326 0.150147 -0.147167 0.0132466 0 0 0 0 0 0 0.00324054 -0.149349 -0.172485 7.63245 2.92158 -0.583746 0.515087 -0.812563 -5.80818 0.158967 -0.137171 0.00834912 8.27065 1.0601 4.40335 0.0335685 -1.30226 -2.22531 0.141301 -0.157184 0.0180879 
26.982 1 249 6.96526 4.49639 4.21174 2.39715 -7.37343 -0.858085 0.0518534 0.0165613 0.599908 0 0 0 0 0 0 0.0046701 -0.0278268 -0.0517134 9.04713 -3.35334 5.99635 2.36646 -7.94227 -0.661348 0.060676 0.0239968 0.619999 6.94293 11.52 1.6043 2.42359 -6.7802 -1.03277 0.0429955 0.00910042 0.579903 
26.982 1 6 4.74427 2.56493 0.283415 -0.767589 0.927814 5.03859 -0.227849 -0.276824 0.20007 0 0 0 0 0 0 0.0326181 -0.107024 -0.195296 3.72709 -2.61413 6.70475 -1.06287 -0.667446 6.42392 -0.234478 -0.277322 0.206577 8.20531 6.7905 -7.15071 -0.472953 2.54781 3.68022 -0.221248 -0.276358 0.193581 
26.982 1 209 6.93145 0.558792 4.47998 -0.958469 -2.13845 1.13301 0.220571 -0.394568 -0.00547687 0 0 0 0 0 0 0.0174872 -0.185736 -0.195258 9.99146 -2.32496 0.254619 -0.96415 -2.63991 0.0973739 0.232688 -0.405018 -0.0158014 5.93959 2.33795 7.86506 -0.95706 -1.61337 2.18738 0.208423 -0.384162 0.00484213 
26.982 1 51 9.05228 4.44095 2.30683 -1.37328 -1.59393 0.434359 0.403163 -0.102529 0.0929736 0 0 0 0 0 0 -0.036051 -0.0486314 -0.128879 0.869748 6.30863 -6.18322 -3.01654 -0.409213 -2.31051 0.407107 -0.103347 0.110485 18.9465 1.75671 9.88036 0.267014 -2.75231 3.21039 0.399242 -0.101742 0.0754594 
26.982 1 210 9.04108 2.47655 4.5068 -3.19118 0.333368 -0.615878 0.221538 0.036967 -0.402943 0 0 0 0 0 0 0.0200827 -0.125065 -0.114911 6.18966 2.70252 6.42077 -3.91818 0.222935 -1.34915 0.212721 0.0459207 -0.427591 13.6045 1.26147 1.72602 -2.46747 0.463686 0.129493 0.230372 0.0279642 -0.378289 
26.982 1 53 11.3918 4.44722 0.193553 2.07953 0.0127721 -4.32823 -0.146304 0.292953 0.542616 0 0 0 0 0 0 -0.0183484 -0.0137951 -0.251598 10.6297 9.94073 -9.67885 1.28744 1.65807 -6.52195 -0.149406 0.316343 0.567745 13.576 -1.91732 9.04311 2.87859 -1.616 -2.11017 -0.143182 0.26954 0.51748 
26.982 1 10 9.17614 2.44773 0.125663 -3.51315 -3.55235 2.73947 0.0804738 0.229924 0.887078 0 0 0 0 0 0 -0.0445813 -0.12572 -0.181976 13.0147 1.34505 -5.41641 -3.26482 -3.6023 1.90915 0.0801097 0.237886 0.923597 7.07387 2.57563 4.65712 -3.75756 -3.48579 3.60122 0.0808668 0.221915 0.850509 
26.982 1 16 11.2691 2.60287 2.30667 -6.42 -2.97158 -4.78177 0.10658 0.064185 0.162896 0 0 0 0 0 0 -0.0559427 -0.182486 -0.0973495 12.53 5.89095 -5.32464 -6.44387 -1.08961 -6.7547 0.0936536 0.0743299 0.175669 11.4329 -1.64566 8.97757 -6.38576 -4.82603 -2.79505 0.119556 0.0539867 0.150116 
26.982 1 253 11.4235 4.3952 4.4265 3.66552 -0.360538 -3.27198 -0.30986 0.22287 0.123281 0 0 0 0 0 0 -0.0266754 -0.035897 -0.0288012 11.3694 1.3968 17.6138 3.42257 -1.11048 -1.41065 -0.327202 0.237457 0.117413 12.8949 6.60247 -9.59139 3.91593 0.424168 -5.10841 -0.292433 0.208312 0.129174 
26.982 1 55 13.5706 4.49585 2.60612 2.54544 -2.08053 -7.94297 0.301202 -0.147427 -0.667121 0 0 0 0 0 0 -0.0164286 -0.030108 -0.107483 14.3932 3.40592 4.58947 2.39809 -2.22542 -7.75842 0.301313 -0.148265 -0.694126 13.823 4.77319 -0.286224 2.6974 -1.90846 -8.0977 0.301184 -0.1466 -0.640126 
26.982 1 214 13.7703 2.47364 4.37034 -4.08613 -6.60591 -4.19252 -0.357851 0.244152 0.58915 0 0 0 0 0 0 -0.0490236 -0.102783 -0.0426605 19.9769 2.23576 9.95785 -3.02269 -6.59051 -5.01009 -0.364665 0.254557 0.596648 8.63571 1.76218 -2.07738 -5.14395 -6.59511 -3.36244 -0.350967 0.233731 0.581675 
26.982 1 257 15.8858 4.40489 4.45518 2.97816 -2.36458 0.765319 -0.0962389 0.250412 -0.304255 0 0 0 0 0 0 -0.000415272 -0.023634 -0.0302174 19.1661 -4.52473 6.97473 4.1639 -4.46038 0.572519 -0.102502 0.257655 -0.317832 13.3205 12.4925 1.08524 1.78799 -0.245451 0.975596 -0.0899458 0.243154 -0.290703 
26.982 1 15 13.598 0.5998 2.64723 -0.407599 1.53139 -1.49716 0.132392 -0.0856971 -0.848875 0 0 0 0 0 0 -0.0777801 -0.245401 -0.104501 11.9375 36.4569 6.83709 -0.659643 1.66289 -0.348232 0.131852 -0.0866066 -0.866258 16.3016 44.9152 -2.47612 -0.155485 1.41459 -2.6192 0.132967 -0.0848231 -0.831502 
26.982 1 17 15.756 0.657739 0.537262 1.86549 2.93834 1.18572 0.374703 -0.544892 -0.109979 0 0 0 0 0 0 0.0368961 -0.198952 -0.158066 21.3045 34.0219 36.326 2.60502 3.48787 0.612929 0.384124 -0.557765 -0.107061 10.8908 47.492 45.0031 1.11788 2.40569 1.77966 0.36526 -0.532045 -0.112865 
26.982 1 14 13.6327 2.51333 0.474193 0.23271 4.00636 -0.240406 -0.0863013 0.410296 0.488352 0 0 0 0 0 0 -0.0461586 -0.110542 -0.235419 11.8196 7.66631 32.7509 0.00741098 6.13922 -0.971238 -0.0874877 0.416557 0.49159 16.5235 -3.62381 48.4534 0.462058 1.88948 0.517385 -0.0850968 0.403968 0.485105 
26.982 1 20 15.8798 2.55301 2.33802 5.81781 0.394781 1.89846 -0.159513 0.192845 0.671548 0 0 0 0 0 0 0.0342948 -0.133219 -0.0929825 20.2745 -6.32021 6.70876 7.02635 -1.62052 2.39791 -0.161848 0.18215 0.679282 12.179 10.5146 -2.96659 4.60263 2.43359 1.42523 -0.157152 0.203508 0.663878 
26.982 1 218 18.0003 2.39671 4.47364 0.199891 2.54629 -4.29014 -0.0205517 0.617566 -0.0731954 0 0 0 0 0 0 0.0464146 -0.144237 -0.100617 13.9314 -1.85931 4.92466 -0.345954 2.37649 -4.72544 -0.0305222 0.625823 -0.0797583 22.4026 5.7448 3.18571 0.736705 2.74711 -3.83359 -0.0105871 0.609335 -0.0666542 
26.982 1 59 18.1298 4.56479 2.60178 3.24717 -1.45863 2.97226 -0.27805 -0.226278 -0.486966 0 0 0 0 0 0 0.0177298 -0.0433078 -0.11189 24.1041 -0.352829 5.45035 4.07406 -3.43105 3.79472 -0.281408 -0.23137 -0.515248 12.4925 8.6644 -1.15713 2.40907 0.533717 2.18077 -0.274705 -0.22124 -0.458694 
26.982 1 24 20.155 2.63503 2.58607 4.29944 -6.44928 -6.48271 0.175877 -0.512734 -0.688845 0 0 0 0 0 0 0.0221022 -0.228799 -0.104744 17.1519 1.9436 6.99845 3.62229 -6.33983 -5.5725 0.176185 -0.532055 -0.708266 23.1334 2.41295 -2.75928 4.97019 -6.53188 -7.37181 0.175543 -0.493417 -0.669383 
26.982 1 261 20.2428 4.2088 4.60234 2.92725 -2.26701 1.55471 0.179046 1.08309 0.0346177 0 0 0 0 0 0 0.0248469 -0.038115 -0.0441049 17.8322 3.38875 8.57166 2.74929 -2.47688 1.41022 0.193132 1.11442 0.0304216 22.6292 4.20583 -0.19818 3.09565 -2.03727 1.7183 0.164961 1.05173 0.0388199 
26.982 1 217 15.8385 0.500791 4.54392 1.13559 1.9711 -0.942568 -0.128008 -0.360977 -0.152332 0 0 0 0 0 0 0.0286824 -0.202235 -0.148101 22.39 35.4354 9.77384 2.28265 2.36557 0.0370441 -0.132821 -0.372317 -0.161801 9.96462 45.7707 -1.51976 -0.0190741 1.60057 -1.9054 -0.123207 -0.34963 -0.142893 
26.982 1 57 15.8578 4.53985 0.437845 5.59421 -2.0784 0.727228 0.147571 0.0894191 0.171578 0 0 0 0 0 0 0.00740737 -0.0193624 -0.267007 19.3995 9.47042 -4.26769 6.55253 -1.00904 0.2603 0.146949 0.0877755 0.169668 13.024 -1.23552 4.16425 4.63092 -3.13038 1.23198 0.14822 0.0910539 0.173543 
26.982 1 61 20.4274 4.52245 0.433064 -2.92157 2.24175 3.02134 -0.814051 0.00173399 0.126056 0 0 0 0 0 0 0.00258464 -0.0281883 -0.259338 25.3622 -2.31661 -4.9453 -2.12865 1.74484 2.63678 -0.827036 0.00211309 0.122053 15.4696 10.5155 4.80191 -3.72131 2.75297 3.43484 -0.801054 0.00139092 0.13008 
26.982 1 18 18.0962 2.60412 0.683742 0.286054 -0.563002 -1.53313 -0.0407724 -0.183505 -0.515451 0 0 0 0 0 0 0.0536635 -0.150326 -0.2175 22.2748 -0.0140388 4.55925 1.31274 -0.574054 -0.892669 -0.0421242 -0.19975 -0.544449 14.2425 4.29527 -4.21365 -0.749808 -0.525146 -2.14489 -0.0394325 -0.167278 -0.486413 
26.982 1 63 22.3512 4.34675 2.21981 1.78717 0.628708 -1.08864 0.507229 0.205853 0.840924 0 0 0 0 0 0 0.049349 -0.051108 -0.115283 27.0647 8.60844 1.98493 2.69889 1.85209 -0.585495 0.510636 0.22833 0.868329 17.2814 -0.732941 1.55128 0.873926 -0.578749 -1.56584 0.503821 0.183424 0.81357 
26.982 1 222 22.4192 2.60315 4.48341 0.178151 -5.14241 -7.40788 0.240573 0.0199793 0.0968854 0 0 0 0 0 0 0.0091047 -0.176952 -0.0964406 20.7613 3.67121 6.93755 0.00992503 -4.40954 -7.36931 0.247659 0.0189774 0.0983735 23.7168 0.610573 1.20742 0.342858 -5.85436 -7.42404 0.233502 0.0209606 0.0954455 
26.982 1 22 22.3735 2.29507 0.372842 2.19688 1.81852 -0.46443 0.430858 0.135945 0.077674 0 0 0 0 0 0 0.0100934 -0.121193 -0.177398 29.5276 7.81946 -0.109817 3.58659 3.4848 -0.532349 0.435737 0.13328 0.0686965 14.8886 -4.15964 -0.156466 0.812983 0.171361 -0.37185 0.425982 0.138665 0.0866986 
26.982 1 28 24.5005 2.46973 2.53902 0.174927 -3.68864 -2.03491 0.619319 0.32811 -0.46391 0 0 0 0 0 0 0.0410069 -0.148655 -0.136109 25.5857 6.64476 7.46096 0.59135 -3.3183 -1.13958 0.623806 0.343004 -0.493687 22.7545 -2.63332 -3.33707 -0.23352 -4.03878 -2.91583 0.614833 0.313255 -0.434109 
26.982 1 265 24.7811 4.45187 4.46938 -5.49583 1.33243 -5.45996 -0.602585 -0.253008 -0.00140378 0 0 0 0 0 0 -0.00428285 -0.0760827 -0.0786518 27.7333 -7.24102 5.15376 -5.41433 -0.801657 -6.07122 -0.622521 -0.272395 -0.012059 21.146 15.2905 2.93434 -5.57091 3.48683 -4.83259 -0.582629 -0.233676 0.00929516 
26.982 1 67 26.9378 4.39361 2.39456 -0.336792 2.77941 -5.46185 -0.0896724 0.218495 0.0823764 0 0 0 0 0 0 0.018885 -0.0389403 -0.251744 27.9867 -1.1312 5.71713 -0.665376 2.70937 -5.27341 -0.0866035 0.235466 0.0833186 24.8813 9.04903 -1.85401 0.00497164 2.86564 -5.63345 -0.092746 0.201528 0.0814839 
26.982 1 226 26.871 2.57366 4.46593 5.42777 7.83884 0.407663 -0.0471591 -0.0660951 0.173097 0 0 0 0 0 0 0.00147048 -0.173224 -0.135846 26.1198 0.839947 7.63322 5.21444 7.05305 0.864717 -0.0459055 -0.0793423 0.164303 26.6315 3.41288 0.4317 5.6536 8.66019 -0.0397014 -0.048402 -0.0528284 0.181944 
26.982 1 32 29.241 2.59695 2.61683 -2.85502 4.36092 0.813778 -0.424215 -0.254963 -0.60619 0 0 0 0 0 0 -0.0293467 -0.101688 -0.19408 22.0137 5.3359 7.81557 -4.56864 5.28304 2.14657 -0.428155 -0.260014 -0.631972 35.0875 -1.05797 -3.50865 -1.13098 3.46873 -0.502321 -0.420262 -0.249924 -0.580387 
26.982 1 25 24.6748 0.510814 0.387802 -0.849289 -2.96235 4.40552 0.0195202 0.287742 0.146993 0 0 0 0 0 0 0.0341122 -0.122333 -0.0850057 20.5833 4.10354 4.97842 -1.51674 -2.28178 4.88373 0.0255239 0.286051 0.155976 28.1146 -4.14559 -5.22814 -0.173563 -3.61995 3.94644 0.0135364 0.289441 0.138089 
26.982 1 29 29.0465 0.455349 0.723603 2.1905 -2.44991 0.216587 0.135294 0.240996 -0.40902 0 0 0 0 0 0 -0.0257698 -0.0886003 -0.121207 27.0896 -10.3115 46.0021 1.75643 -5.32322 1.5253 0.132284 0.248258 -0.426622 29.5862 10.1296 35.6817 2.62525 0.445214 -1.07838 0.138333 0.233818 -0.391388 
26.982 1 269 29.0294 4.43253 4.50935 1.14018 2.75129 5.39199 0.168469 0.300559 0.0130255 0 0 0 0 0 0 0.00336597 -0.0245429 -0.100091 26.4567 11.1573 14.0626 1.0199 3.59143 7.4162 0.174176 0.326959 0.00302495 30.2532 -3.1455 -5.84907 1.27483 1.93106 3.3968 0.1627 0.274101 0.0230801 
26.982 1 71 31.3626 4.48791 2.5201 2.42544 2.82667 -0.736801 -0.21586 0.337316 0.0495089 0 0 0 0 0 0 0.00062815 -0.00909665 -0.256556 30.6822 7.76876 1.3038 2.27034 4.60113 -0.788001 -0.218166 0.356414 0.0584244 30.2708 0.333034 2.86193 2.5816 1.06761 -0.657415 -0.21359 0.318131 0.0405818 
26.982 1 230 31.2549 2.56573 4.45066 -5.92484 -3.06224 1.79683 0.336385 -0.233932 0.409717 0 0 0 0 0 0 0.00480415 -0.121333 -0.0977673 23.4948 -3.24466 5.41134 -7.20855 -4.00051 1.5764 0.345254 -0.236832 0.41826 37.2637 7.46464 2.70926 -4.6362 -2.08982 2.0415 0.327474 -0.231084 0.401188 
26.982 1 273 33.464 4.33822 4.60009 -2.10223 5.91508 1.2858 0.0563009 0.758979 -0.210091 0 0 0 0 0 0 -0.00135557 -0.0223125 -0.0887156 39.5201 9.49173 3.92866 -1.53483 8.77213 1.18682 0.0671948 0.790049 -0.214337 25.2527 -1.69661 4.46227 -2.67817 3.07328 1.40501 0.0453824 0.727857 -0.205869 
26.982 1 31 31.4193 0.549066 2.51231 1.70373 -1.33724 2.87949 -0.309473 -0.288348 0.0911337 0 0 0 0 0 0 0.0397764 -0.171201 -0.128768 30.78 28.9826 2.17549 1.80188 -3.80076 3.78501 -0.312715 -0.295901 0.0833722 30.278 52.4108 1.95245 1.6046 1.16769 1.99662 -0.306213 -0.280756 0.0989126 
26.982 1 36 33.5122 2.49656 2.60425 6.18165 -2.47898 -6.86748 0.204709 -0.272114 -0.073322 0 0 0 0 0 0 0.0264883 -0.134645 -0.215816 33.9086 -0.0840348 -1.85133 6.67784 -3.23482 -7.57933 0.212893 -0.264908 -0.0797423 30.9811 4.14249 6.19787 5.67884 -1.69449 -6.12763 0.196497 -0.279365 -0.066925 
26.982 1 75 35.7259 4.4367 2.46253 0.737463 2.68094 5.17516 0.0310727 0.16264 0.437537 0 0 0 0 0 0 -0.0604146 -0.0754403 -0.183748 39.8199 5.83128 5.04485 1.26229 4.67277 5.85098 0.0335325 0.173212 0.458214 29.1231 2.13082 -1.00683 0.198492 0.699406 4.52766 0.0286298 0.15201 0.416859 
26.982 1 234 35.9159 2.25048 4.29186 -1.75744 5.61795 0.097028 -0.360538 0.658469 0.250677 0 0 0 0 0 0 -0.0602358 -0.122547 -0.139852 41.9062 0.89362 4.26963 -0.373213 5.26799 0.162941 -0.360616 0.688931 0.253679 27.4242 2.63688 3.5482 -3.15273 5.99276 0.0600162 -0.360446 0.62799 0.247675 
26.982 1 40 38.1432 2.36954 2.42892 4.88888 -5.27575 -0.33537 -0.68112 -0.226094 0.0458135 0 0 0 0 0 0 -0.0880986 -0.132511 -0.170942 41.7403 9.85961 -1.22765 6.02306 -4.11611 -1.5063 -0.690419 -0.222358 0.0506448 31.7026 -6.12873 5.19161 3.74159 -6.4159 0.862821 -0.671785 -0.229839 0.0409912 
26.982 1 237 37.8774 0.397839 4.47392 0.4625 -2.05651 0.85293 0.183373 -0.0655955 -0.0712911 0 0 0 0 0 0 -0.0390439 -0.184036 -0.163108 37.8498 4.15906 10.1203 1.04378 -1.39766 2.08679 0.183886 -0.0697745 -0.0756281 35.0628 -4.46788 -1.95396 -0.128979 -2.69226 -0.348738 0.182859 -0.0613815 -0.0669483 
26.982 1 77 37.9654 4.30451 0.568947 -1.90934 -4.54972 2.38521 0.0151578 0.534526 -0.0610789 0 0 0 0 0 0 -0.0241632 -0.0159213 -0.273423 38.3691 8.51438 35.1248 -1.54312 -3.52307 0.614511 0.0133607 0.555431 -0.0622479 34.7331 -0.785114 46.2418 -2.28338 -5.56104 4.16993 0.0169882 0.513589 -0.0599047 
26.982 1 1 42.4645 0.503912 0.41639 -0.838242 1.20391 -0.345634 -0.365859 0.000992704 -0.190682 0 0 0 0 0 0 0.0322891 -0.162737 -0.134952 39.2033 47.3198 5.62294 -1.68885 2.51458 -0.242566 -0.371802 0.000447188 -0.2036 42.2439 33.8284 -5.85278 0.0186309 -0.094904 -0.434998 -0.359914 0.00156028 -0.177719 
26.982 1 39 40.1561 0.355904 2.34226 2.80871 2.01824 -1.09028 0.141812 0.468166 0.141558 0 0 0 0 0 0 -0.00206161 -0.234841 -0.0889853 38.2612 38.8684 7.0038 2.58419 1.4517 -0.00770399 0.144074 0.469271 0.153244 38.8836 42.0244 -3.19536 3.03046 2.61024 -2.13357 0.139569 0.467115 0.129882 
26.982 1 277 37.9086 4.39096 4.40004 -0.179672 2.69395 -0.0147448 -0.0660008 -0.376095 0.30397 0 0 0 0 0 0 -0.0128278 -0.029528 -0.0416986 37.5259 13.1161 -2.88131 0.120509 5.68509 -1.71917 -0.0750088 -0.373895 0.323549 35.4353 -5.22941 10.8966 -0.491549 -0.282138 1.71864 -0.0569528 -0.37837 0.284398 
26.982 1 241 42.2884 4.4775 4.57022 1.07569 -1.17015 -0.200029 0.0444066 -0.561001 -0.228738 0 0 0 0 0 0 0.00328686 -0.0443089 -0.046624 -5.23363 6.3083 0.613836 0.404938 -0.370255 -1.82091 0.0446678 -0.577533 -0.229558 5.00091 1.77639 7.74603 1.74853 -1.94597 1.4416 0.0441512 -0.544499 -0.227955 
26.982 1 79 40.1899 4.29315 2.49737 -2.3303 1.38871 -5.05794 -0.121265 0.66575 0.134791 0 0 0 0 0 0 0.0306264 0.0299793 -0.159329 36.7663 15.5035 -4.41368 -2.71223 4.0558 -6.66544 -0.120701 0.695291 0.150122 40.4405 -7.79823 8.52173 -1.95219 -1.26711 -3.42025 -0.121787 0.636168 0.119471 
26.982 1 238 40.0856 2.31658 4.33269 -1.62776 0.0708287 3.03417 0.264584 0.0240462 0.53337 0 0 0 0 0 0 0.0425359 -0.0991948 -0.0477674 44.7609 2.41132 2.32142 -1.01616 -0.832151 2.223 0.271981 0.0379183 0.555274 32.2271 1.23815 5.5635 -2.24654 0.998794 3.87745 0.25719 0.0101991 0.511444 
26.982 1 38 40.2156 2.46419 0.563858 -4.48859 -1.33131 -0.684258 0.0332906 -0.302748 -0.690978 0 0 0 0 0 0 -0.00372639 -0.0395182 -0.251846 38.417 7.19692 49.981 -4.77381 -0.81197 1.20188 0.0396622 -0.309751 -0.715138 38.8504 -3.24491 31.3939 -4.20618 -1.82428 -2.54582 0.0269541 -0.295746 -0.666803 
26.982 1 83 0.477501 8.4717 2.38444 -1.38058 1.81678 -0.990131 -0.243818 -0.0812052 0.215015 0 0 0 0 0 0 -0.115111 -0.0695549 -0.199171 -1.61458 17.7876 6.13694 -1.81668 3.14344 -0.841716 -0.244903 -0.0913004 0.225362 5.76954 -1.5299 -2.32642 -0.942713 0.504469 -1.11948 -0.242697 -0.0711672 0.204672 
26.982 1 242 0.348395 6.3979 4.21668 1.76474 -1.34135 -1.30191 0.123695 0.141006 0.264653 0 0 0 0 0 0 -0.129363 -0.0356274 -0.11281 -4.55484 8.93114 10.4886 0.695265 -0.0852961 -0.437203 0.128416 0.143497 0.270366 8.45579 3.10937 -2.83713 2.8387 -2.58622 -2.13439 0.118978 0.138476 0.258975 
26.982 1 285 2.56439 8.43068 4.48175 3.47441 4.98454 -1.95761 -0.0421162 -0.511466 -0.436982 0 0 0 0 0 0 -0.0210726 -0.0194337 -0.0550432 -7.00684 11.6225 2.42118 1.80724 6.62232 -2.02044 -0.0412682 -0.51867 -0.45743 15.0118 4.55605 5.69441 5.15257 3.35702 -1.87795 -0.0430271 -0.504274 -0.416526 
26.982 1 84 -1.94064 10.2995 2.42727 -5.38036 1.2258 -1.74558 0.29696 -0.134204 0.397621 0 0 0 0 0 0 -0.167522 -0.0851142 -0.162218 40.2059 13.6532 -8.15801 -5.33776 1.95663 -3.46631 0.307622 -0.137744 0.416511 40.7196 6.43927 12.0238 -5.42948 0.520291 -0.0130752 0.286316 -0.130637 0.378762 
26.982 1 85 2.52636 8.33521 0.429332 -3.91267 4.36968 0.386869 0.00102729 0.230162 0.224699 0 0 0 0 0 0 -0.0595838 -0.0388084 -0.251933 -5.43153 13.6986 11.4509 -4.98235 5.7251 2.76284 -0.00246007 0.240473 0.245836 13.3233 2.33478 -11.6615 -2.83755 3.03388 -1.9778 0.00450284 0.219836 0.203522 
26.982 1 281 -1.86865 8.3091 4.49236 3.86966 -2.36414 -4.13384 0.126087 0.341441 -0.11176 0 0 0 0 0 0 -0.115601 -0.0981162 -0.16458 42.7663 19.852 6.48705 3.94569 0.71983 -4.77624 0.128419 0.365365 -0.123297 38.3298 -3.87005 1.68593 3.78961 -5.43541 -3.47345 0.123807 0.31751 -0.100204 
26.982 1 282 0.341457 10.2598 4.54924 2.809 -8.7086 1.0476 -0.293886 0.0623346 -0.159076 0 0 0 0 0 0 -0.0636526 -0.014688 -0.0745566 -2.00985 24.7015 3.71883 2.44421 -7.2822 -0.154686 -0.304277 0.06874 -0.17663 5.85712 -4.76203 4.51313 3.16889 -10.1238 2.25738 -0.283477 0.0559342 -0.141527 
26.982 1 48 2.59626 6.28722 2.4348 1.37036 -1.65541 -2.57621 -0.116716 0.485677 0.0643638 0 0 0 0 0 0 -0.0317719 0.0182077 -0.157119 -6.12311 10.7455 -2.78391 -0.163368 0.775308 -4.77738 -0.110753 0.507566 0.0799651 14.18 1.06917 6.70977 2.91322 -4.07813 -0.3511 -0.122744 0.46381 0.048767 
26.982 1 87 4.78099 8.25217 2.41557 0.853346 -0.0597998 2.1057 -0.0699132 0.227587 0.299526 0 0 0 0 0 0 -0.000429264 -0.0413671 -0.139214 0.902919 12.2688 8.63175 -0.0411175 0.505772 3.05384 -0.0663241 0.233403 0.310782 11.1512 3.58219 -4.73821 1.75919 -0.606562 1.17899 -0.0735645 0.221809 0.288231 
26.982 1 246 4.78549 6.2326 4.50885 -0.843875 -1.71778 0.809173 -0.0111893 0.497752 -0.313128 0 0 0 0 0 0 0.0112222 0.0144235 -0.0575358 9.42024 8.71962 8.07827 -0.266006 -1.11506 1.86219 -0.00191038 0.520101 -0.330182 2.63367 2.99434 0.0858434 -1.41246 -2.30659 -0.230036 -0.0205498 0.475425 -0.29605 
26.982 1 289 6.94915 8.66254 4.3403 1.89155 -1.54066 -2.31428 -0.234783 -0.4689 -0.068672 0 0 0 0 0 0 -0.00448036 -0.0325807 -0.0426179 12.3606 8.13144 10.7416 2.22844 -1.26829 0.176699 -0.246488 -0.495255 -0.0691757 3.63126 8.53718 -2.92009 1.55575 -1.79976 -4.79434 -0.223109 -0.44255 -0.068131 
26.982 1 88 2.4223 10.5003 2.39387 -0.959237 -3.59357 1.28381 0.0797104 -0.347081 -0.17561 0 0 0 0 0 0 -0.0550194 -0.036462 -0.15068 -4.20139 15.2193 5.82471 -2.39533 -3.10711 2.24873 0.080472 -0.371982 -0.184726 11.9303 5.20868 -2.00836 0.489167 -4.06715 0.33438 0.0789293 -0.322213 -0.166531 
26.982 1 86 4.70141 10.2932 0.431961 1.59448 -5.09967 0.373834 0.0900562 0.338977 0.13893 0 0 0 0 0 0 -0.00965312 -0.0156437 -0.259713 0.745321 9.60684 47.1859 0.147428 -6.5844 1.76229 0.0952214 0.351226 0.1603 11.1303 10.4712 33.9956 3.04906 -3.58397 -0.980516 0.0848682 0.326751 0.117527 
26.982 1 89 6.96071 8.51307 0.32298 0.844646 -0.381286 6.03151 0.0815754 0.132461 0.545479 0 0 0 0 0 0 0.0228742 -0.0442711 -0.260531 10.3393 10.8177 -1.58675 1.35423 0.0917501 5.38619 0.0871308 0.120736 0.576603 5.64096 5.56543 1.25484 0.329019 -0.831803 6.70952 0.0759898 0.144195 0.514303 
26.982 1 52 7.1354 6.47341 2.3452 -1.2305 1.28219 2.7022 -0.286072 0.348991 -0.0131286 0 0 0 0 0 0 -0.0263591 -0.0248604 -0.162544 9.34525 6.58142 8.73995 -1.13141 1.05641 3.22191 -0.28396 0.35607 0.000195739 6.99104 5.63167 -4.95191 -1.33257 1.52812 2.21686 -0.288203 0.341938 -0.0264728 
26.982 1 91 9.2853 8.56775 2.60556 4.70375 -2.05268 -1.65268 -0.334856 0.00200544 -0.402963 0 0 0 0 0 0 0.0278435 0.00466875 -0.178533 11.6934 6.16049 5.33934 5.17228 -2.28232 -1.57075 -0.338427 -0.0154164 -0.422319 8.59473 10.3251 -1.02112 4.22839 -1.80858 -1.70235 -0.331239 0.0194424 -0.38366 
26.982 1 250 9.30524 6.51079 4.48165 -2.46002 -2.88605 -4.85338 -0.205397 -0.78659 -0.491981 0 0 0 0 0 0 -0.00645621 -0.0174736 -0.0482153 8.47976 9.4462 18.1365 -2.66488 -1.64019 -3.12925 -0.210607 -0.805249 -0.512878 11.8458 2.89593 -10.0854 -2.25782 -4.09673 -6.57688 -0.200132 -0.76791 -0.471085 
26.982 1 293 11.371 8.39773 4.31557 -1.2217 -4.64394 -2.37168 0.217172 -0.000921119 0.118087 0 0 0 0 0 0 -0.00351572 0.0124425 -0.052829 9.90852 13.9978 18.3713 -1.36109 -2.65729 -0.0479912 0.212206 0.00187034 0.132424 14.235 2.11516 -10.5671 -1.0816 -6.63082 -4.67497 0.222217 -0.00368428 0.103804 
26.982 1 290 8.96009 10.7655 4.49633 -4.04116 -3.66671 4.86989 0.282795 -0.449278 -0.390728 0 0 0 0 0 0 0.0196017 -0.0162951 -0.0435387 8.71622 19.4501 21.3663 -3.51069 -1.68732 8.58496 0.292187 -0.458846 -0.403329 10.9266 1.52124 -13.1862 -4.57782 -5.63935 1.17211 0.273428 -0.439722 -0.378133 
26.982 1 96 11.5151 10.4032 2.46947 4.33648 -3.55087 -1.08178 -0.495304 0.239203 -0.0810371 0 0 0 0 0 0 -0.00813948 -0.0397717 -0.196849 10.953 12.8554 -8.09215 4.4954 -2.94292 -2.74048 -0.510255 0.243856 -0.0885082 13.4506 7.39783 12.1216 4.16621 -4.15051 0.593982 -0.480328 0.234532 -0.0735846 
26.982 1 50 9.29122 6.51198 0.435054 -1.43846 -5.28766 0.765807 -0.311066 -0.084141 0.0706615 0 0 0 0 0 0 -0.00712848 0.0330346 -0.254783 13.2418 16.5061 -0.51341 -1.02637 -2.45825 1.12447 -0.316682 -0.0954576 0.0864889 7.07055 -4.23316 0.40963 -1.85262 -8.10367 0.44206 -0.305464 -0.0728414 0.0547951 
26.982 1 56 11.4307 6.27238 2.40243 2.43353 -2.67262 -5.16049 -0.0768778 0.0261505 0.0683456 0 0 0 0 0 0 -0.0162737 0.0504468 -0.152022 14.8093 7.8137 6.71456 2.85833 -1.85865 -4.63903 -0.0843865 0.0306319 0.0561974 9.47539 3.99413 -2.81377 2.0158 -3.46856 -5.64779 -0.0692867 0.0217182 0.0804853 
26.982 1 95 13.7113 8.40162 2.40029 2.72896 -3.19577 0.195335 -0.240563 -0.0407811 0.127058 0 0 0 0 0 0 -0.0635251 0.0442853 -0.17589 14.7726 12.3798 -3.78642 1.96044 -1.81181 -0.414155 -0.248675 -0.0411947 0.12566 13.7041 3.75078 7.70024 3.49746 -4.57197 0.842888 -0.232401 -0.0403744 0.128494 
26.982 1 254 13.6536 6.45337 4.46129 3.47033 4.33149 -2.25961 -0.00748846 0.149398 -0.115926 0 0 0 0 0 0 -0.0133664 0.0122697 -0.0351571 11.9222 5.44453 15.4217 2.95324 3.49135 -0.0461644 -0.013012 0.15587 -0.125187 16.4612 6.74802 -7.36849 3.99253 5.19129 -4.46015 -0.00190361 0.142945 -0.106663 
26.982 1 60 15.9109 6.5444 2.47452 1.07663 3.8907 2.68423 -0.216891 -0.654769 -0.109927 0 0 0 0 0 0 -0.00857122 -0.0077757 -0.111402 22.2133 10.4271 -3.35027 2.09374 3.77565 1.69873 -0.220652 -0.677925 -0.120425 10.3032 1.88712 7.38635 0.0534245 4.01453 3.69527 -0.213111 -0.631648 -0.0994217 
26.982 1 97 15.9701 8.33125 0.398408 1.24943 -2.02235 -3.31163 -0.181236 0.623736 0.26763 0 0 0 0 0 0 -0.0345107 0.0457094 -0.280584 18.366 11.0186 7.63004 2.02475 -1.65632 -2.70734 -0.187488 0.65093 0.267113 14.2821 4.9951 -7.87273 0.474968 -2.37461 -3.8959 -0.17496 0.596538 0.268169 
26.982 1 54 13.7596 6.43398 0.535599 -1.29465 -0.652297 1.13203 -0.220561 -0.280553 -0.17707 0 0 0 0 0 0 -0.0502959 0.0524585 -0.274968 10.42 14.4545 -9.12007 -2.18678 0.80271 -1.06522 -0.228809 -0.286811 -0.196704 18.1649 -2.35094 9.16454 -0.399185 -2.10035 3.35446 -0.212247 -0.274288 -0.157424 
26.982 1 297 15.7208 8.49011 4.31424 4.43498 0.0468239 4.1962 0.0169661 -0.217579 0.368052 0 0 0 0 0 0 -0.00853721 -0.00309237 -0.0123543 20.4042 16.1658 -0.233398 5.35978 2.14615 4.56794 0.0169456 -0.225166 0.39005 11.7525 0.150414 8.03648 3.50958 -2.04038 3.84587 0.0169248 -0.210073 0.346019 
26.982 1 99 17.9766 8.40032 2.54929 0.660942 7.02459 -1.82023 0.294144 0.0493723 -0.20012 0 0 0 0 0 0 0.036558 0.0163677 -0.116541 18.0907 10.739 -2.41907 1.48658 7.47291 -1.63293 0.304345 0.0648123 -0.206952 18.2277 5.35196 6.60791 -0.166535 6.58055 -1.97948 0.283896 0.0338792 -0.19334 
26.982 1 258 17.9821 6.37564 4.44861 1.78189 0.406503 3.32295 0.24638 0.599181 0.0257583 0 0 0 0 0 0 0.0158551 0.0267588 -0.0197182 16.5569 10.0064 4.74528 1.87889 0.0526649 3.33258 0.255092 0.63326 0.0221073 19.7476 2.00198 3.3172 1.67246 0.776727 3.33185 0.237634 0.56506 0.0293571 
26.982 1 58 18.1474 6.54526 0.432063 -2.34307 1.26365 4.20268 -0.00837856 -0.125877 0.445256 0 0 0 0 0 0 0.0424725 0.0147603 -0.273908 8.04319 24.3765 7.73727 -3.56168 4.91275 5.94844 -0.00532463 -0.149312 0.447126 28.5936 -12.0548 -7.87332 -1.13062 -2.36518 2.49601 -0.0114269 -0.102479 0.443392 
26.982 1 64 20.1816 6.49587 2.49249 1.07664 -0.30188 4.98766 0.307204 -0.312532 0.105061 0 0 0 0 0 0 0.0162028 0.0221812 -0.127125 19.6407 4.92226 -1.42511 1.31327 -0.835827 4.8415 0.315396 -0.31349 0.108468 20.7128 7.32986 5.48273 0.833146 0.253314 5.15451 0.299018 -0.311623 0.101618 
26.982 1 104 20.1997 10.3731 2.45685 1.47016 -4.52689 2.24328 0.387372 -0.0381794 -0.290924 0 0 0 0 0 0 0.0131125 -0.0305412 -0.138806 19.8049 19.9563 3.83418 1.49192 -2.95585 3.20919 0.390521 -0.0302951 -0.307222 20.5985 0.210706 0.167677 1.44798 -6.09336 1.30593 0.384302 -0.0460869 -0.274663 
26.982 1 102 22.628 10.4925 0.438276 -2.95843 -2.55972 -1.45561 -0.361934 -0.333379 -0.461304 0 0 0 0 0 0 0.0281442 -0.000925841 -0.27263 25.42 10.0639 45.7625 -2.16902 -2.38845 -1.45765 -0.380663 -0.344228 -0.474155 19.4666 10.3919 35.372 -3.75231 -2.71196 -1.43218 -0.34308 -0.322598 -0.448462 
26.982 1 301 20.5074 8.35145 4.43624 2.65014 -1.05041 -0.156056 -0.612289 -7.38426e-05 -0.170205 0 0 0 0 0 0 -0.0121904 0.00145146 -0.0296821 17.1789 3.46068 3.23158 2.40444 -2.17501 -0.472508 -0.622894 0.00279373 -0.172519 23.8147 12.573 4.82368 2.88763 0.0919541 0.177794 -0.601612 -0.00298972 -0.167933 
26.982 1 103 22.3719 8.44106 2.31576 -0.217011 3.94593 -1.20469 0.198445 -0.150121 0.137762 0 0 0 0 0 0 -0.0224298 -0.0120695 -0.147186 19.6397 16.9563 2.22799 -0.568159 4.896 -1.49432 0.18549 -0.158354 0.146707 24.7195 -0.707469 1.49444 0.128111 3.02199 -0.891335 0.211489 -0.141908 0.128801 
26.982 1 262 22.5817 6.37063 4.44999 1.30506 3.86986 2.55051 -0.336424 -0.345976 -0.327594 0 0 0 0 0 0 -0.00535925 -0.02397 -0.0475177 21.1995 6.61069 3.73157 1.50291 3.70086 2.78163 -0.34667 -0.352768 -0.345184 23.5873 5.38151 4.34372 1.10382 4.05464 2.34067 -0.326122 -0.33921 -0.310015 