ITEM: TIMESTEP
9350
ITEM: NUMBER OF ATOMS
4000
ITEM: BOX BOUNDS pp pp pp
-1.97451 42.4745
0.547578 39.9524
0.541037 39.959
ITEM: ATOMS mass type id x y z vx vy vz fx fy fz xrad yrad zrad vxrad vyrad vzrad fxrad fyrad fzrad xub yub zub vxub vyub vzub fxub fyub fzub xlb ylb zlb vxlb vylb vzlb fxlb fylb fzlb 
26.982 1 43 0.101395 4.45858 2.41334 -1.42364 0.087059 -3.51887 0.132141 0.259 0.434097 0 0 0 0 0 0 -0.0517752 -0.0761283 -0.144239 -10.2118 -1.13367 8.19613 -3.11967 0.512091 -1.62086 0.127481 0.277146 0.439095 13.8917 9.13262 -4.40759 0.279084 -0.319183 -5.40104 0.136772 0.240891 0.429158 
26.982 1 202 0.221669 2.507 4.59835 -1.27788 4.90262 -2.88806 -0.0533179 0.439103 -0.275847 0 0 0 0 0 0 -0.044001 -0.0739211 -0.0872387 0.868403 -4.53086 6.64237 -1.35685 3.19877 -2.528 -0.0572741 0.445683 -0.285689 3.05302 8.50489 1.7011 -1.18982 6.62869 -3.22001 -0.0493612 0.432575 -0.266046 
26.982 1 4 -1.94857 2.61347 2.64528 -4.06223 3.07629 2.19453 -0.153999 0.0306508 -0.445926 0 0 0 0 0 0 -0.16133 -0.125453 -0.176829 31.7061 1.3957 4.95113 -5.56344 2.83835 2.40059 -0.15902 0.0268704 -0.45859 49.5238 2.78719 -0.638117 -2.55612 3.33738 2.02135 -0.148941 0.0344514 -0.433247 
26.982 1 8 2.48512 2.72101 2.5417 -1.12487 0.275535 1.66646 -0.225391 -0.529298 -0.0197632 0 0 0 0 0 0 -0.0409064 -0.13975 -0.174863 -1.80677 10.6465 1.34206 -1.34976 2.11799 1.69747 -0.224367 -0.550226 -0.0366034 9.85896 -6.23836 2.72899 -0.896038 -1.54164 1.66061 -0.226454 -0.508375 -0.00290608 
26.982 1 205 2.51481 0.667145 4.66781 -6.56225 -2.66969 -4.76237 -0.431357 -0.815156 -0.903489 0 0 0 0 0 0 -0.0122543 -0.185468 -0.153405 -0.177426 38.2657 3.49636 -6.97759 -3.39222 -4.82915 -0.438793 -0.832079 -0.934988 8.26415 43.2113 4.95233 -6.14571 -1.92415 -4.67271 -0.423929 -0.798233 -0.872034 
26.982 1 241 -2.07913 4.54646 4.55553 -2.22306 0.589242 -5.36813 0.104476 0.305223 0.0288589 0 0 0 0 0 0 -0.123644 -0.0785878 -0.0892221 -5.76742 7.06571 -0.476756 -2.94561 1.64701 -7.16282 0.101084 0.295428 0.0289887 5.41457 1.12429 8.73924 -1.49639 -0.439938 -3.54954 0.107892 0.315072 0.0287142 
26.982 1 201 -2.02229 0.621406 4.45727 1.29259 5.25227 -1.73331 0.319404 -0.288862 0.159797 0 0 0 0 0 0 -0.109955 -0.139675 -0.184962 43.3344 45.2662 11.3286 1.26989 4.89533 0.44235 0.323167 -0.300047 0.170638 37.7537 36.0737 -3.28138 1.31978 5.62604 -3.88484 0.315687 -0.277638 0.148931 
26.982 1 3 0.295372 0.680341 2.52624 3.51769 -1.67117 -3.26987 0.15545 -0.418401 0.611399 0 0 0 0 0 0 -0.0348025 -0.202218 -0.199156 -1.14399 6.02573 9.5173 2.91706 -1.1628 -1.93954 0.166023 -0.43638 0.617868 5.18622 -5.88332 -5.4779 4.12552 -2.16559 -4.58178 0.144884 -0.400412 0.604946 
26.982 1 41 -2.12021 4.39754 0.392688 -1.03392 3.2926 -2.70153 0.280544 0.0308852 0.428333 0 0 0 0 0 0 -0.114846 -0.0981739 -0.203966 -8.30833 7.22057 9.51592 -2.36456 3.52051 -2.44486 0.272361 0.0341892 0.428435 7.88513 0.68293 -9.85488 0.30504 3.08996 -2.93555 0.288764 0.0276053 0.42832 
26.982 1 45 2.39905 4.43695 0.512941 1.13819 1.66457 -0.573799 -0.0510256 -0.157944 -0.547865 0 0 0 0 0 0 -0.0407234 -0.0754129 -0.288604 3.46136 2.54352 41.6135 1.42583 1.46684 -0.141282 -0.05128 -0.154984 -0.567889 4.41878 5.451 39.5772 0.852811 1.89027 -0.977903 -0.050824 -0.160901 -0.527809 
26.982 1 245 2.32271 4.63044 4.47667 -0.819532 4.11017 1.00335 -0.168073 -0.557966 0.16993 0 0 0 0 0 0 -0.00947136 -0.0305677 -0.018904 1.76382 5.44782 4.51757 -1.04014 5.00641 0.98256 -0.174295 -0.578794 0.175871 5.97848 2.92687 3.54632 -0.592183 3.23531 1.04607 -0.161916 -0.53716 0.164004 
26.982 1 47 4.68499 4.47118 2.43221 -3.26783 2.00733 -3.33459 0.32625 -0.251185 0.169946 0 0 0 0 0 0 0.0183352 -0.0375244 -0.114853 1.38769 10.1412 0.956706 -3.91622 3.80261 -4.31698 0.34537 -0.255389 0.166479 10.6381 -2.03843 2.9009 -2.6183 0.247497 -2.32585 0.307139 -0.246968 0.173437 
26.982 1 206 4.5213 2.48067 4.39785 1.04584 -2.43276 -0.187401 0.677942 0.361326 0.34822 0 0 0 0 0 0 0.0189376 -0.0715143 -0.0476847 8.46726 -2.445 11.7911 1.50157 -4.28058 1.30428 0.697661 0.365408 0.353861 3.23113 6.38528 -3.82983 0.591675 -0.563951 -1.64551 0.658199 0.357227 0.342571 
26.982 1 12 6.9286 2.39208 2.54119 -4.15382 3.02057 1.32489 -0.438154 0.22877 -0.0854331 0 0 0 0 0 0 0.0434152 -0.155054 -0.150453 7.87223 3.21167 -1.16884 -3.92103 3.75811 0.42504 -0.454706 0.235155 -0.092875 8.21827 0.565109 5.26489 -4.38931 2.31442 2.25698 -0.42161 0.222406 -0.0779976 
26.982 1 6 4.77755 2.48821 0.302482 -1.46789 -3.749 -5.19832 0.0599633 -0.34002 0.459154 0 0 0 0 0 0 -0.00691414 -0.133684 -0.245458 3.64904 -3.67466 7.54364 -1.67904 -5.21962 -4.14191 0.0719214 -0.360586 0.468446 8.54774 7.66034 -8.03476 -1.25888 -2.24942 -6.22171 0.048024 -0.319473 0.449931 
26.982 1 7 4.54321 0.675065 2.45077 -1.91136 -0.900716 -2.98994 0.540461 -0.427677 0.00737224 0 0 0 0 0 0 -0.000437895 -0.242486 -0.173085 5.09454 39.4859 -3.86673 -2.49624 -1.28489 -3.53256 0.547574 -0.436626 -0.0148896 6.6246 42.0298 7.77992 -1.33182 -0.493352 -2.41328 0.533335 -0.41876 0.0296459 
26.982 1 49 6.89696 4.35724 0.471216 -0.540024 -2.15605 0.904379 -0.352122 0.450474 0.449924 0 0 0 0 0 0 0.0502095 -0.00372012 -0.272654 12.5572 -2.70849 -7.34903 0.253228 -3.10422 -1.30355 -0.364164 0.469998 0.453973 3.46497 10.5338 7.1986 -1.33682 -1.18091 3.14766 -0.340053 0.430988 0.445919 
26.982 1 249 6.90847 4.41227 4.46244 0.103779 -4.3563 5.87691 -0.612452 0.14647 -0.103864 0 0 0 0 0 0 0.00280168 -0.0161275 -0.0278327 8.94786 -3.61691 6.78468 -0.170798 -5.09497 7.18911 -0.624477 0.145176 -0.101414 7.09571 11.5836 1.25039 0.373829 -3.58944 4.59143 -0.600464 0.147785 -0.10637 
26.982 1 209 6.79354 0.40175 4.50218 2.03601 -1.40905 0.446308 0.200611 0.276456 -0.53431 0 0 0 0 0 0 0.0343454 -0.179385 -0.181831 9.94809 -2.9093 -0.495763 1.98908 -1.8839 -0.574856 0.200079 0.29858 -0.555304 5.87499 2.56366 8.5899 2.08011 -0.90463 1.48836 0.201113 0.254315 -0.513341 
26.982 1 51 9.06021 4.51202 2.49162 -3.13717 2.78477 3.29009 0.0278442 0.507709 0.00821414 0 0 0 0 0 0 0.0527106 -0.000228437 -0.180863 -0.165339 7.53046 -7.72126 -4.81742 4.7313 0.974402 0.0316085 0.520387 -0.00227889 20.1364 0.647176 11.7117 -1.46165 0.872593 5.62841 0.0240168 0.495052 0.0186544 
26.982 1 210 9.10011 2.51496 4.29627 -4.61476 -1.04564 -2.12537 0.160204 -0.226299 0.581188 0 0 0 0 0 0 0.0227989 -0.116477 -0.0927412 5.84731 2.73623 5.77872 -5.47926 -1.12436 -2.62698 0.170855 -0.229936 0.607856 14.2038 1.26241 1.8725 -3.75426 -0.945288 -1.60854 0.149501 -0.222686 0.554515 
26.982 1 10 9.03808 2.74488 0.560254 -4.17603 2.45323 5.28389 0.312534 -0.797272 -0.154365 0 0 0 0 0 0 0.0617809 -0.116015 -0.233365 13.1898 1.72316 -5.62048 -3.82354 2.82909 4.50655 0.321087 -0.816989 -0.161203 6.76655 2.74761 5.64902 -4.52547 2.09985 6.0991 0.303949 -0.777557 -0.147528 
26.982 1 16 11.3251 2.39939 2.24347 -3.50279 0.365475 0.67928 0.174922 0.525779 0.49779 0 0 0 0 0 0 0.0145042 -0.124404 -0.177676 12.7397 7.20507 -6.31657 -3.48777 2.87709 -0.510584 0.192337 0.541647 0.516179 11.4552 -3.40518 9.75875 -3.50808 -2.12037 1.88866 0.15745 0.509916 0.479406 
26.982 1 253 11.2554 4.45534 4.33041 0.99696 -1.24258 -0.900686 0.209667 -0.426504 0.331255 0 0 0 0 0 0 0.0101298 -0.032965 -0.0601029 11.0655 1.04723 18.958 0.63247 -1.66223 1.40818 0.212599 -0.440103 0.34922 12.9809 7.04674 -11.1966 1.36806 -0.786282 -3.18722 0.206664 -0.412907 0.313292 
26.982 1 55 13.5404 4.49138 2.48361 -3.18239 -2.15437 -1.27404 -0.0116789 -0.622119 -0.404393 0 0 0 0 0 0 0.0069184 0.00290296 -0.228791 14.4144 3.46329 4.78039 -3.11364 -2.12093 -0.792959 -0.0137341 -0.626944 -0.416706 13.8307 4.67781 -0.794407 -3.24539 -2.15532 -1.72119 -0.00966786 -0.617298 -0.392083 
26.982 1 214 13.7003 2.49538 4.49063 -4.66355 0.0600408 0.53604 -0.799326 0.0314605 -0.307597 0 0 0 0 0 0 -0.0207815 -0.097165 -0.116807 20.6971 2.48511 9.43453 -3.59686 0.416346 -0.0351368 -0.822691 0.0406294 -0.310502 7.8647 1.5194 -1.38872 -5.72486 -0.268224 1.12082 -0.775971 0.0222621 -0.304696 
26.982 1 14 13.5455 2.30332 0.460668 -2.07735 -1.99977 -2.79819 -0.121377 0.683906 0.133059 0 0 0 0 0 0 0.00535626 -0.0763469 -0.200212 11.6398 8.90778 32.4511 -2.25663 0.293481 -3.59626 -0.123271 0.71532 0.135579 16.6174 -5.32982 48.6414 -1.89252 -4.27685 -1.96925 -0.119488 0.652477 0.130519 
26.982 1 217 15.7255 0.639278 4.3766 -2.58557 3.30932 0.89854 0.30141 -0.220963 0.445916 0 0 0 0 0 0 0.0174774 -0.202505 -0.176535 23.07 35.8268 10.1658 -1.32838 3.87513 1.92034 0.305447 -0.231844 0.470542 9.10917 45.6103 -2.32045 -3.85286 2.76895 -0.110954 0.297371 -0.210133 0.421267 
26.982 1 213 11.3856 0.684755 4.4529 -0.896648 3.06409 -0.232139 -0.124896 -0.0627626 0.08068 0 0 0 0 0 0 0.00536422 -0.176282 -0.188326 10.2424 -2.46191 8.22019 -1.18845 3.90069 0.583965 -0.121036 -0.0661588 0.0814187 14.0428 2.66742 -0.268969 -0.601054 2.24834 -1.03265 -0.128786 -0.0594349 0.0799513 
26.982 1 257 15.762 4.40724 4.3699 1.98816 -6.90385 -3.68276 0.354316 0.694729 0.0840694 0 0 0 0 0 0 0.020985 -0.000139315 -0.0863595 19.7846 -6.02441 6.77842 3.15538 -9.38751 -3.98495 0.370771 0.721853 0.0868308 12.5085 13.9637 1.04022 0.815713 -4.39435 -3.36055 0.337896 0.667603 0.0813462 
26.982 1 20 15.7415 2.57771 2.44525 6.06875 -2.28629 -0.33623 0.252125 -0.065219 -0.244275 0 0 0 0 0 0 0.0113097 -0.105145 -0.191805 20.9528 -7.71649 7.07076 7.47023 -4.44028 -0.469046 0.254015 -0.0484192 -0.236792 11.2764 11.9212 -3.18889 4.65892 -0.107635 -0.173962 0.250281 -0.0820674 -0.251724 
26.982 1 218 17.937 2.4755 4.44001 1.91226 -0.794886 -3.70121 0.0902639 0.195692 -0.222249 0 0 0 0 0 0 0.0416116 -0.127413 -0.112968 13.5231 -1.97467 4.5145 1.54788 -1.03024 -4.33966 0.0883145 0.203039 -0.210272 22.7061 5.98372 3.4598 2.2658 -0.5257 -3.0396 0.0922254 0.188335 -0.234288 
26.982 1 59 18.1687 4.44794 2.41332 -0.516348 1.36907 3.34682 -0.502078 -0.239405 0.266839 0 0 0 0 0 0 0.00463273 0.00764944 -0.221322 24.81 -1.6823 5.61162 0.449933 -0.202483 3.72554 -0.517056 -0.226962 0.281001 11.8842 9.72787 -1.7669 -1.49722 2.96834 3.00283 -0.487022 -0.251899 0.252686 
26.982 1 18 17.9934 2.5175 0.373347 0.668411 -1.02581 -2.93995 0.202035 -0.431889 0.456062 0 0 0 0 0 0 0.0206089 -0.0689043 -0.182966 23.08 -0.261016 4.51216 2.1191 -1.11786 -2.65077 0.199826 -0.434046 0.478248 13.2528 4.33245 -4.87125 -0.795422 -0.904206 -3.19719 0.204314 -0.429786 0.433876 
26.982 1 24 20.2434 2.34624 2.5684 -0.252877 -2.14612 -1.48558 -0.115483 0.391269 -0.102867 0 0 0 0 0 0 0.0296612 -0.170942 -0.189452 16.7434 1.97093 7.5394 -1.0811 -1.57526 -0.813618 -0.12423 0.412539 -0.107015 23.7139 1.77248 -3.41526 0.566655 -2.68632 -2.13297 -0.106696 0.370009 -0.0987908 
26.982 1 261 20.1376 4.4318 4.34797 4.30392 -1.16712 -3.60916 0.510951 -0.129474 0.404738 0 0 0 0 0 0 0.00634579 -0.0442407 -0.0829603 17.8222 3.45955 7.97254 4.64889 -1.35465 -4.47483 0.509919 -0.125821 0.431691 22.4223 4.5461 -0.177662 3.94906 -0.956986 -2.71947 0.512036 -0.133153 0.377734 
26.982 1 63 22.4628 4.35824 2.56691 -2.49563 0.571062 6.8811 -0.150588 0.30907 0.0897764 0 0 0 0 0 0 -0.0232251 -0.0421125 -0.246689 27.7199 9.55986 2.86822 -1.69096 2.31814 8.14811 -0.155791 0.323266 0.092853 16.821 -1.69827 1.28714 -3.29896 -1.15819 5.64505 -0.145375 0.294834 0.0866881 
26.982 1 222 22.5138 2.43705 4.40162 4.45104 -4.77401 1.28816 -0.0463739 0.147842 0.385033 0 0 0 0 0 0 -0.0433069 -0.144837 -0.128689 20.7609 4.36354 6.99592 4.37483 -3.58927 1.43274 -0.0514367 0.149583 0.408034 23.8763 -0.455985 0.918303 4.52356 -5.93758 1.17001 -0.0412702 0.146131 0.361948 
26.982 1 28 24.6267 2.71657 2.41638 -0.0163841 -2.15194 -0.562098 0.150368 -0.659645 0.289883 0 0 0 0 0 0 -0.0383659 -0.138417 -0.229601 26.0107 7.29223 8.08195 0.418474 -1.444 0.61462 0.149638 -0.682781 0.291452 22.5308 -2.82688 -4.28823 -0.441017 -2.83109 -1.72719 0.151079 -0.63654 0.288326 
26.982 1 225 24.8821 0.57562 4.42634 0.231363 -2.95405 1.91041 -0.801125 -0.216255 -0.198557 0 0 0 0 0 0 -0.00814402 -0.193628 -0.201446 28.0361 8.98333 6.22498 0.963794 -1.41542 2.3781 -0.819349 -0.234419 -0.193373 20.9766 -8.96965 1.7254 -0.504786 -4.4772 1.46478 -0.782873 -0.198073 -0.203794 
26.982 1 265 24.6872 4.50183 4.56934 -0.77855 2.65146 -3.60904 -0.0321982 -0.157423 -0.329586 0 0 0 0 0 0 -0.00465474 -0.0372282 -0.0908714 27.5205 -8.83967 5.06093 -0.963005 0.341888 -3.84169 -0.0308627 -0.166595 -0.348557 21.1195 16.955 3.15641 -0.586371 4.98436 -3.35634 -0.0335273 -0.148294 -0.310675 
26.982 1 67 27.0185 4.60527 2.49038 1.15154 0.057081 -2.62711 -0.158583 0.14844 0.271206 0 0 0 0 0 0 0.0194633 -0.00549941 -0.22942 27.8107 -1.19229 6.19991 0.834171 -0.468109 -2.32229 -0.151692 0.156157 0.267346 25.1426 9.49629 -2.22603 1.48266 0.602276 -2.91181 -0.165504 0.140678 0.275025 
26.982 1 226 26.7621 2.58466 4.36291 -2.29908 1.42765 -0.487902 0.580657 0.307403 -0.0125582 0 0 0 0 0 0 0.0408721 -0.127579 -0.12017 25.773 -0.235796 7.95011 -2.59626 -0.13092 0.603002 0.594332 0.312939 -0.00850255 26.6833 4.48232 -0.167148 -1.98915 3.02743 -1.56658 0.56693 0.301852 -0.0166476 
26.982 1 26 26.8667 2.60544 0.738691 1.62679 4.83329 -2.02574 -0.069238 -0.460331 -0.598716 0 0 0 0 0 0 0.00097835 -0.0877526 -0.229045 20.5223 6.92311 10.3255 0.583065 6.44225 0.101742 -0.0755364 -0.472556 -0.623586 32.1337 -2.69313 -9.96206 2.684 3.25446 -4.12834 -0.0629433 -0.448146 -0.573865 
26.982 1 32 29.1367 2.2722 2.48684 -7.97432 0.449232 -3.57754 0.142671 0.469469 -0.06665 0 0 0 0 0 0 -0.0079635 -0.138249 -0.170336 20.6519 5.21887 8.76965 -9.72758 0.812928 -1.78705 0.152912 0.494736 -0.0592293 36.1337 -1.62501 -4.80644 -6.21115 0.118173 -5.35335 0.132396 0.4442 -0.0741204 
26.982 1 269 29.155 4.47698 4.36321 3.66638 -0.708717 3.03043 -0.0508861 -0.0228429 0.189515 0 0 0 0 0 0 -0.000994125 -0.0349466 -0.0798642 26.4631 11.5738 14.9226 3.51719 -0.0823468 4.77302 -0.0478736 -0.0194156 0.205503 30.3935 -3.50742 -7.06542 3.82888 -1.30998 1.31343 -0.0539627 -0.0262822 0.173527 
26.982 1 71 31.3762 4.25173 2.44979 -3.65551 3.32479 0.624886 -0.0487484 0.524409 0.130533 0 0 0 0 0 0 -0.0480477 -0.0113324 -0.217176 30.5281 8.30354 1.22859 -3.7295 4.33296 0.45713 -0.0518637 0.549434 0.138017 30.3096 -0.711805 2.72273 -3.58319 2.33685 0.823052 -0.0456227 0.499386 0.122989 
26.982 1 230 31.3115 2.37994 4.47569 0.223214 -2.20177 -1.21002 0.22292 -0.243409 -0.00871803 0 0 0 0 0 0 -0.0379079 -0.107329 -0.0842466 22.6761 -4.21428 5.10552 -0.709996 -3.05176 -1.62299 0.225488 -0.233177 -0.00300853 38.0564 8.03216 2.99996 1.15961 -1.31025 -0.769616 0.220376 -0.253659 -0.0145031 
26.982 1 273 33.6665 4.2998 4.45726 1.28318 -5.03147 -0.96756 -0.837709 0.87497 0.322045 0 0 0 0 0 0 -0.0337059 -0.00116355 -0.0503196 39.977 11.157 3.53416 1.81691 -2.87152 -1.6774 -0.864604 0.900249 0.335018 25.0236 -3.47726 4.50243 0.739793 -7.17422 -0.234306 -0.810714 0.849721 0.309064 
26.982 1 31 31.4995 0.449521 2.42635 -1.29737 2.13985 -5.70045 -0.226595 0.618742 -0.213049 0 0 0 0 0 0 -0.0289461 -0.183999 -0.153962 30.6963 27.1427 2.58789 -1.32151 -0.197554 -5.2006 -0.223889 0.637142 -0.204812 30.3795 54.0184 1.28888 -1.27483 4.52015 -6.17793 -0.229284 0.600354 -0.221322 
26.982 1 36 33.6156 2.46633 2.46229 -1.79802 -0.582799 2.08654 -0.240159 -0.593104 0.150022 0 0 0 0 0 0 -0.0190479 -0.157448 -0.171053 34.1699 -0.549345 -2.26204 -1.41515 -1.26149 1.87416 -0.253221 -0.602842 0.167248 30.7511 4.51177 6.25202 -2.18806 0.127441 2.33172 -0.227045 -0.58339 0.132783 
26.982 1 233 33.6445 0.564638 4.76915 0.198016 -2.75192 -0.34536 -0.120447 0.340318 -0.473885 0 0 0 0 0 0 0.00660742 -0.157516 -0.172846 33.1268 35.2264 -2.0511 0.288118 -4.07808 -0.634258 -0.129362 0.354903 -0.494059 31.9005 46.1375 10.7816 0.107646 -1.38915 -0.0219816 -0.111469 0.325728 -0.45377 
26.982 1 73 33.5444 4.32203 0.573639 1.35636 2.22075 -2.74584 -0.100215 0.822206 -0.227935 0 0 0 0 0 0 -0.0535425 0.0169712 -0.270455 31.0177 15.0846 5.4759 1.67666 4.33644 -1.17091 -0.106867 0.855354 -0.225627 33.741 -7.35005 -5.39454 1.02333 0.114177 -4.28781 -0.0935534 0.789024 -0.230223 
26.982 1 75 35.6563 4.57341 2.55247 2.68715 0.734635 8.63835 0.421754 0.0280754 -0.0604416 0 0 0 0 0 0 -0.00448677 0.00609781 -0.157982 39.8746 7.32487 5.27562 2.97137 2.68558 9.1465 0.422207 0.0354603 -0.0554816 28.7211 0.868179 -1.13148 2.38958 -1.20231 8.16098 0.421338 0.0206734 -0.0653411 
26.982 1 234 35.6835 2.68205 4.46628 -0.062523 0.114057 -0.535869 0.679984 -0.900507 0.217399 0 0 0 0 0 0 0.0110871 -0.128466 -0.0816965 42.4472 0.97003 4.39807 1.19994 -0.492313 -0.766961 0.686746 -0.924188 0.231831 26.2124 3.38382 3.70592 -1.33487 0.745293 -0.275 0.673254 -0.87681 0.202971 
26.982 1 77 37.9054 4.4738 0.688496 4.25768 3.45178 1.90283 0.346642 0.117968 -0.403637 0 0 0 0 0 0 -0.00162224 0.0153034 -0.266642 38.307 9.66229 33.6543 4.52308 4.9713 -0.320899 0.356319 0.129176 -0.426942 34.4438 -1.63277 47.8568 3.98844 1.94937 4.14168 0.336953 0.106761 -0.380269 
26.982 1 277 37.9134 4.61236 4.55784 1.74428 5.19042 3.65195 0.259626 -0.421266 -0.129728 0 0 0 0 0 0 0.00474209 -0.0474099 -0.0402805 37.5296 15.325 -3.58659 1.90293 7.98464 2.69552 0.2636 -0.449094 -0.134632 35.2072 -7.03351 11.8545 1.57718 2.41777 4.6383 0.255643 -0.393401 -0.124825 
26.982 1 34 35.8652 2.46846 0.655488 -5.10571 -4.09941 4.37354 -0.20555 0.350482 -0.53573 0 0 0 0 0 0 -0.00503982 -0.146192 -0.224342 38.6255 14.1262 48.5534 -4.66548 -2.42261 6.36857 -0.204689 0.367905 -0.553529 30.4357 -10.2648 32.9353 -5.55427 -5.77011 2.41401 -0.206434 0.333066 -0.517914 
26.982 1 40 37.8736 2.56357 2.60617 3.19751 0.70024 -0.452315 0.476659 0.104239 -0.00328376 0 0 0 0 0 0 0.0165249 -0.172318 -0.137869 41.955 11.2037 -1.9457 4.07736 2.45224 -1.18607 0.494609 0.1067 -0.00264722 30.7128 -7.12544 6.19003 2.3071 -1.02509 0.314147 0.458694 0.10181 -0.00391118 
26.982 1 237 37.847 0.623023 4.42527 -1.69478 -1.87296 0.532013 0.150799 0.257337 0.904356 0 0 0 0 0 0 0.002761 -0.195057 -0.172129 38.0398 5.01295 10.915 -1.36841 -1.1012 2.01838 0.151284 0.258667 0.928356 34.5777 -4.91724 -2.90729 -2.02875 -2.61972 -0.923532 0.150267 0.256063 0.880398 
26.982 1 79 40.2788 4.54238 2.5289 -1.21122 -1.09922 -1.00274 -0.393822 -0.207406 0.0638202 0 0 0 0 0 0 -0.0132707 -0.0337729 -0.146134 36.3605 17.7695 -5.51526 -1.96506 1.77784 -2.9409 -0.400741 -0.216617 0.0530693 40.7661 -9.60604 9.61369 -0.458043 -3.95844 0.968426 -0.386876 -0.198141 0.0746284 
26.982 1 238 40.2879 2.58018 4.50443 -3.97207 3.29998 1.47106 -0.538241 0.333084 -0.103748 0 0 0 0 0 0 -0.0214024 -0.120073 -0.101104 45.3195 2.1616 1.81496 -3.39837 2.48479 0.475609 -0.556206 0.331146 -0.100332 31.8128 1.97587 6.35227 -4.54907 4.13863 2.49919 -0.520267 0.335075 -0.107171 
26.982 1 38 40.1426 2.51154 0.56494 -0.453308 -0.251558 5.47633 0.263699 0.064462 0.210277 0 0 0 0 0 0 0.00206952 -0.151065 -0.199872 37.9953 7.61226 51.3431 -0.915862 0.217397 7.67025 0.265328 0.0817628 0.214332 38.8685 -3.60156 29.9464 0.00928932 -0.690016 3.30764 0.262086 0.0471646 0.206278 
26.982 1 83 0.0159441 8.42546 2.36705 -0.483929 -1.86182 5.50542 0.387427 0.0859364 0.698186 0 0 0 0 0 0 -0.0802533 0.0146121 -0.128317 -2.29675 18.6222 6.37291 -1.05505 -0.708612 5.89763 0.39058 0.097102 0.720984 5.7863 -2.48553 -2.67751 0.0898158 -3.00084 5.13522 0.384199 0.0747521 0.675451 
26.982 1 242 0.106493 6.45823 4.48691 -4.19971 1.57205 2.98488 0.309167 -0.105758 -0.370824 0 0 0 0 0 0 -0.0455199 -0.00410468 -0.0493733 -5.32467 9.95536 11.4941 -5.02562 3.28145 4.28313 0.314992 -0.104427 -0.387867 9.0005 2.1687 -3.36402 -3.36921 -0.126143 1.71956 0.303293 -0.107096 -0.35375 
26.982 1 84 -2.02167 10.4629 2.63225 2.12598 -1.99097 5.18912 -0.0557234 -0.690671 -0.336654 0 0 0 0 0 0 -0.207935 0.0313014 -0.152406 40.3306 14.5024 -9.05891 2.26633 -1.11474 3.61196 -0.0529641 -0.710279 -0.360446 40.7129 5.90416 13.2491 1.97992 -2.83908 6.78003 -0.0585529 -0.671125 -0.312858 
26.982 1 281 -2.0629 8.05764 4.55273 0.658786 2.05717 4.31648 0.325038 0.778591 -0.424532 0 0 0 0 0 0 -0.128846 -0.0310293 -0.108928 42.8075 21.9548 6.03714 0.935078 5.42884 3.67488 0.338589 0.797009 -0.435718 38.1813 -6.50326 2.1858 0.379745 -1.30138 4.97903 0.311449 0.760159 -0.413319 
26.982 1 44 -2.04444 6.36206 2.45805 -2.56082 -2.74704 0.269971 -0.0245719 0.0352022 -0.206197 0 0 0 0 0 0 -0.216445 0.00551517 -0.140279 35.3953 15.4224 3.39959 -3.42433 0.581451 -0.303384 -0.0289918 0.0382934 -0.208576 45.6797 -3.50313 0.495645 -1.69051 -6.05859 0.865955 -0.0201598 0.03214 -0.20373 
26.982 1 42 0.0749201 6.49676 0.494425 4.0976 -0.0517107 0.512782 0.394197 -0.552112 0.096442 0 0 0 0 0 0 -0.0786314 -0.000141273 -0.262291 -2.3363 8.24931 4.79282 3.90603 1.09563 1.01607 0.399681 -0.572156 0.100188 5.97124 3.97187 -4.97442 4.29684 -1.17918 0.0253857 0.388684 -0.532084 0.0927414 
26.982 1 285 2.28853 8.33228 4.30003 -0.235895 -1.62817 2.27031 0.0463265 0.0848439 -0.111595 0 0 0 0 0 0 -0.0140818 0.0230203 -0.0286142 -8.29111 12.7029 2.36691 -1.91722 0.355478 2.53479 0.0369527 0.102161 -0.109667 15.9798 3.24902 5.31265 1.45619 -3.6003 2.02384 0.0556591 0.0675174 -0.113443 
26.982 1 85 2.34667 8.26904 0.605372 0.962347 2.05575 0.0730262 0.291737 0.182805 -0.0586103 0 0 0 0 0 0 -0.0133452 0.034059 -0.267068 -6.3102 14.479 13.2504 -0.402004 3.50994 2.28384 0.302094 0.192227 -0.0618335 14.0741 1.39987 -13.2042 2.3307 0.62597 -2.12097 0.281354 0.173402 -0.0553899 
26.982 1 48 2.48665 6.1495 2.45403 -1.09597 1.29644 0.872004 -0.354922 1.1674 -0.236153 0 0 0 0 0 0 -0.023603 0.0200612 -0.109615 -7.29491 12.3392 -4.11924 -2.79613 3.97485 -0.889535 -0.363627 1.19999 -0.242813 15.3661 -0.836671 8.00515 0.612014 -1.37401 2.65773 -0.346256 1.13483 -0.229453 
26.982 1 87 4.6939 8.50502 2.32781 3.10494 1.35504 -3.75205 -0.357914 0.0416001 -0.257585 0 0 0 0 0 0 -0.007942 0.00550564 -0.116432 0.363793 12.8455 8.88617 2.46929 1.94166 -3.38851 -0.369466 0.0405564 -0.253991 11.7227 3.48752 -5.24789 3.75021 0.790642 -4.09375 -0.346307 0.0426345 -0.261125 
26.982 1 246 4.65468 6.73161 4.20679 -1.0586 -1.79299 0.24877 -0.057584 -0.639448 0.557679 0 0 0 0 0 0 0.00571888 -0.0193916 -0.0102922 9.76681 9.76804 8.73358 -0.62859 -1.3224 1.65613 -0.0565752 -0.657659 0.573249 2.23076 2.91144 -1.24779 -1.48014 -2.24515 -1.14488 -0.0585893 -0.621232 0.542141 
26.982 1 88 2.29892 10.4744 2.55081 1.347 4.24261 -3.76508 0.371659 -0.518366 -0.592564 0 0 0 0 0 0 -0.0252958 0.0375196 -0.149626 -5.23789 15.5139 6.73227 -0.263946 4.94211 -2.57383 0.375006 -0.530815 -0.599593 12.9567 4.83928 -2.68512 2.96914 3.55715 -4.93738 0.368308 -0.505958 -0.585521 
26.982 1 46 4.6792 6.44685 0.519997 -1.08274 -8.20631 2.85766 -0.105614 -0.100697 -0.0961745 0 0 0 0 0 0 0.0124439 0.00435692 -0.286808 0.635137 -0.919336 8.03408 -2.13785 -8.94705 3.78915 -0.109486 -0.0986161 -0.114673 11.367 13.0488 -8.05682 -0.026666 -7.44207 1.96348 -0.101723 -0.102772 -0.0776419 
26.982 1 289 6.90645 8.58585 4.39671 1.80712 1.18664 1.21488 -0.148158 -0.124914 -0.0786196 0 0 0 0 0 0 0.00648158 -0.0162229 -0.0105343 12.8177 8.11886 12.8308 2.64758 1.60401 4.5101 -0.146264 -0.13649 -0.0598357 3.25875 8.36685 -4.97147 0.964572 0.781928 -2.06479 -0.150049 -0.113332 -0.097424 
26.982 1 89 6.93752 8.37799 0.658541 3.69485 -1.7028 -4.43612 0.0107557 -0.10468 -0.753912 0 0 0 0 0 0 0.0382409 -0.022647 -0.295928 10.8921 11.2171 -2.12624 4.46123 -0.882883 -5.81333 0.0108759 -0.106691 -0.778285 5.20763 4.87245 2.38271 2.92291 -2.50583 -3.02702 0.0106646 -0.102633 -0.729496 
26.982 1 52 6.85198 6.42278 2.50551 0.596195 -4.11957 1.51116 0.146219 -0.151696 -0.144653 0 0 0 0 0 0 0.0461032 -0.016941 -0.136902 9.2968 6.34431 9.16721 0.849861 -4.51126 2.0853 0.149031 -0.159815 -0.155777 6.64026 5.73735 -5.12847 0.33888 -3.70799 0.974478 0.143417 -0.143535 -0.133532 
26.982 1 91 9.04951 8.39976 2.49273 -1.17785 -1.90225 0.514199 0.145572 0.0600531 -0.258019 0 0 0 0 0 0 0.0313446 -0.0493235 -0.159254 11.871 6.00661 5.486 -0.812637 -1.90918 1.24487 0.155798 0.0557657 -0.271241 8.08235 10.1146 -1.46558 -1.54925 -1.88257 -0.184116 0.135287 0.0643719 -0.244799 
26.982 1 250 8.96003 6.5617 4.44969 2.80071 2.83138 -7.90894 0.28792 -0.248978 -0.0122124 0 0 0 0 0 0 0.0217537 -0.0202481 -0.035982 8.18862 10.7747 19.7106 2.83454 4.78506 -5.45723 0.300593 -0.261321 -0.00324968 11.586 1.64832 -11.8065 2.76323 0.912594 -10.3615 0.275185 -0.236579 -0.0212377 
26.982 1 290 9.04096 10.5033 4.2393 1.58707 2.83389 -7.56242 0.095221 -0.212372 1.01219 0 0 0 0 0 0 0.00801476 -0.0117097 5.68425e-05 9.41703 20.5179 23.6138 2.36224 4.66625 -3.95707 0.0982672 -0.2179 1.04451 10.5247 -0.100409 -16.0196 0.804941 1.00675 -11.1509 0.0921301 -0.20689 0.979858 
26.982 1 90 9.14109 10.5421 0.560071 2.65915 3.11425 1.43359 -0.327597 -0.59278 0.739541 0 0 0 0 0 0 0.017651 -0.0378766 -0.27975 12.587 4.60475 42.0212 3.38289 2.27922 2.42927 -0.324556 -0.609776 0.740271 7.55768 15.9784 39.292 1.92951 3.97976 0.466134 -0.330689 -0.575834 0.738866 
26.982 1 293 11.1738 8.56964 4.47667 0.761567 0.723009 -2.61146 0.442754 -0.468167 0.246686 0 0 0 0 0 0 0.0239964 -0.0305745 -0.0373191 9.60405 15.9202 20.6727 0.502133 3.3094 0.572135 0.455061 -0.488383 0.255663 14.2606 0.497191 -12.614 1.02387 -1.86441 -5.77509 0.430399 -0.447917 0.237671 
26.982 1 56 11.2501 6.4203 2.50797 -1.64189 0.138158 1.28466 -0.0889127 0.354662 -0.160358 0 0 0 0 0 0 0.0283928 -0.0285742 -0.220179 15.0772 8.72511 7.54634 -1.20347 1.13418 2.69988 -0.0880156 0.354919 -0.167912 8.965 3.34879 -3.50562 -2.07334 -0.836692 -0.0963658 -0.0899096 0.354462 -0.152829 
26.982 1 95 13.4756 8.56745 2.68607 0.89909 7.23962 0.61287 -0.115299 0.0208358 -0.319222 0 0 0 0 0 0 0.0407993 -0.0345396 -0.223702 14.0481 13.5332 -3.94437 0.124248 9.09243 0.142887 -0.119848 0.00454857 -0.336042 14.0443 2.89777 8.36186 1.67482 5.39875 1.11952 -0.110782 0.0371879 -0.30242 
26.982 1 254 13.5202 6.41799 4.29479 1.57105 3.19914 -5.81747 0.143461 0.331317 0.332621 0 0 0 0 0 0 0.0140494 0.0118503 -0.0868493 11.3952 4.74487 17.0298 1.00324 2.51447 -3.0587 0.150402 0.344849 0.342598 16.8115 7.34817 -9.38583 2.14476 3.90726 -8.56806 0.136504 0.317875 0.32268 
26.982 1 294 13.639 10.4779 4.65033 -0.623847 0.715164 1.13207 -0.437749 -0.572223 -0.315029 0 0 0 0 0 0 0.00243522 -0.0198283 -0.0594683 16.2001 26.7 0.295858 -0.74993 3.34095 0.781757 -0.444255 -0.586994 -0.329415 12.2273 -6.36259 8.13142 -0.493525 -1.91963 1.50974 -0.431214 -0.557408 -0.300675 
26.982 1 100 15.6866 10.3455 2.61715 -0.119213 -6.99394 2.0031 0.0288813 0.0156379 -0.326672 0 0 0 0 0 0 0.0184548 -0.0359303 -0.243751 17.9961 29.2403 -7.04176 -0.262929 -3.79229 1.10433 0.0275262 0.0148036 -0.346491 14.1488 -9.11401 11.293 0.0272059 -10.1876 2.92992 0.0302226 0.0165393 -0.306856 
26.982 1 93 11.2776 8.54761 0.648988 -4.80331 -1.80647 1.9684 0.187678 -0.176676 -0.0549799 0 0 0 0 0 0 0.0719228 -0.067546 -0.282447 10.6055 6.48987 40.8537 -4.8933 -1.81486 3.18073 0.196834 -0.195122 -0.0582275 13.4767 9.96414 40.6981 -4.71108 -1.7783 0.793468 0.17847 -0.158229 -0.0517016 
26.982 1 60 15.8122 6.71253 2.47479 0.54627 3.07852 -2.61821 0.0861966 -0.706637 0.36327 0 0 0 0 0 0 0.0163258 -0.0128005 -0.245787 22.8966 10.5622 -4.18307 1.75428 3.21907 -3.49381 0.0940039 -0.737356 0.385778 9.47544 2.05244 8.14481 -0.669815 2.95169 -1.71241 0.0784011 -0.675908 0.340817 
26.982 1 297 15.733 8.52957 4.71955 -0.445607 1.43579 2.28732 -0.0410695 -0.465435 -0.201841 0 0 0 0 0 0 0.0106722 -0.0292778 -0.0788002 20.9271 17.6894 0.317018 0.223277 3.98709 2.80223 -0.0358362 -0.490325 -0.208105 11.3109 -1.32372 8.22752 -1.1169 -1.0991 1.79587 -0.046315 -0.440458 -0.195562 
26.982 1 99 17.9209 8.52465 2.53361 0.638802 3.7597 -2.80571 0.195005 -0.289468 0.12762 0 0 0 0 0 0 0.0151407 -0.0280157 -0.269417 18.5916 11.2382 -2.25018 1.53119 4.91271 -2.37367 0.194848 -0.316946 0.133982 17.6416 5.06769 6.33331 -0.260417 2.61594 -3.20746 0.195134 -0.26194 0.121277 
26.982 1 258 18.2417 6.35668 4.52734 4.15032 -2.46629 -1.62157 -0.92655 0.264756 -0.248622 0 0 0 0 0 0 -0.0156013 0.0163391 -0.0935844 16.9012 9.63392 4.72882 4.44832 -2.93232 -1.83422 -0.944227 0.283055 -0.245866 19.9418 2.30459 3.42082 3.83721 -1.98301 -1.38858 -0.908852 0.246523 -0.25136 
26.982 1 64 20.3671 6.44674 2.54881 -4.91097 0.600267 1.91633 0.132378 0.231376 -0.156112 0 0 0 0 0 0 -0.00483878 0.0141258 -0.256359 20.1456 4.41268 -1.55358 -4.46859 0.451912 2.07543 0.137701 0.244949 -0.146312 20.5738 7.71354 5.64473 -5.36315 0.773359 1.78342 0.127124 0.217755 -0.16589 
26.982 1 104 20.039 10.5574 2.65239 2.25618 -3.88202 -4.50651 0.529645 -0.3003 0.282688 0 0 0 0 0 0 0.00658857 -0.0266912 -0.256627 19.7175 21.438 4.71514 2.70691 -2.12651 -3.42757 0.542277 -0.314301 0.286352 20.3644 -0.928847 -0.396567 1.80198 -5.62552 -5.55465 0.516969 -0.286287 0.279014 
26.982 1 301 20.1292 8.38893 4.57801 0.332877 -4.47408 0.296783 0.132554 -0.20023 -0.46686 0 0 0 0 0 0 -0.00477891 0.000958733 -0.100144 16.5216 2.82534 2.85206 0.00620486 -5.24408 -0.326043 0.130737 -0.200035 -0.474908 23.71 13.2593 5.41572 0.648654 -3.68193 0.940332 0.134366 -0.200405 -0.458824 
26.982 1 103 22.5054 8.44389 2.38227 -3.71652 5.8463 -0.266083 -0.0344628 -0.515797 0.161314 0 0 0 0 0 0 -0.0609928 0.00302579 -0.233765 19.4482 17.2336 1.92977 -4.40478 6.6496 -0.676784 -0.0480541 -0.522547 0.179891 25.1465 -0.997829 1.84872 -3.03314 5.07238 0.172374 -0.0208804 -0.509093 0.14281 
26.982 1 262 22.5269 6.42707 4.57292 -0.936394 -0.735398 -2.66273 -0.352949 0.0997025 -0.569343 0 0 0 0 0 0 -0.0193328 -0.00635993 -0.0906715 21.1928 6.48295 3.86594 -0.898339 -0.633047 -2.83335 -0.36387 0.100897 -0.578741 23.4549 5.58972 4.38755 -0.976206 -0.821408 -2.46587 -0.341981 0.0984668 -0.559989 
26.982 1 105 24.7946 8.32358 0.63466 3.33016 0.418033 -4.75046 0.0177756 -0.0243333 -0.499398 0 0 0 0 0 0 -0.00274273 0.00981238 -0.288291 24.0331 14.9283 51.0415 3.05977 0.806329 -3.75989 0.0151375 -0.0188992 -0.528676 24.7915 1.01673 30.3687 3.60475 0.0408136 -5.73238 0.020449 -0.0297816 -0.470131 