ITEM: TIMESTEP
15700
ITEM: NUMBER OF ATOMS
4000
ITEM: BOX BOUNDS pp pp pp
-3.26509 43.7651
0.946213 39.5538
0.819691 39.6803
ITEM: ATOMS mass type id x y z vx vy vz fx fy fz xrad yrad zrad vxrad vyrad vzrad fxrad fyrad fzrad xub yub zub vxub vyub vzub fxub fyub fzub xlb ylb zlb vxlb vylb vzlb fxlb fylb fzlb 
26.982 1 43 -1.91678 4.77468 2.86147 -1.8819 -2.33659 5.24153 0.0737075 -0.121093 0.0278447 0 0 0 0 0 0 -0.119398 -0.0509722 -0.115418 -18.9609 4.84387 20.4258 -0.904751 1.31032 8.58836 0.0827499 -0.114027 0.0403972 20.9368 3.32273 -16.0848 -2.89051 -5.95851 1.92619 0.0645576 -0.128207 0.0151713 
26.982 1 202 -1.67702 3.0871 5.39295 0.144261 7.81644 2.71038 0.0219775 0.0105928 -0.24997 0 0 0 0 0 0 -0.208509 -0.0609186 -0.0148753 4.09662 -16.1777 6.03526 3.28689 7.71925 4.20906 0.0303541 0.0171358 -0.246851 -1.63645 20.8057 3.6862 -3.03516 7.93838 1.24624 0.0133831 0.00408283 -0.253275 
26.982 1 241 43.1853 4.77027 5.09097 -1.83912 0.599819 3.51838 -0.429736 0.0194729 0.370585 0 0 0 0 0 0 0.0216967 -0.00637549 0.0027086 -3.92223 12.8239 -14.854 2.90207 1.82125 1.38213 -0.400348 0.0225913 0.389661 2.57911 -4.57035 23.9308 -6.62704 -0.568927 5.67109 -0.45925 0.0163988 0.351425 
26.982 1 3 -1.97331 0.933045 3.33761 -4.24457 -3.66635 5.3406 0.283195 0.270105 0.0378595 0 0 0 0 0 0 -0.0807459 -0.123594 -0.168354 -4.33811 8.71443 24.7388 -1.90918 -2.13654 10.1771 0.296618 0.279336 0.0550884 6.19512 -8.77071 -19.4464 -6.61018 -5.19229 0.518064 0.269572 0.260928 0.0204342 
26.982 1 245 0.485584 4.95623 4.62851 -3.19653 1.28356 -3.41733 -0.346754 0.314032 0.168005 0 0 0 0 0 0 -0.0443006 -0.0196325 -9.95911e-05 -5.05966 10.2569 2.69582 -4.87974 3.94922 -1.61209 -0.367098 0.315842 0.210199 11.2328 -1.64782 5.42957 -1.52587 -1.33173 -5.19505 -0.326596 0.312287 0.125642 
26.982 1 8 0.098963 2.85242 2.55825 -5.70249 -2.07353 1.39733 0.375913 -0.374253 0.437692 0 0 0 0 0 0 -0.0130372 -0.110992 -0.152153 -5.70982 18.6623 4.70345 -5.17754 0.507028 4.58271 0.387927 -0.384312 0.454292 11.089 -14.5828 -0.892613 -6.24315 -4.6406 -1.76452 0.363774 -0.364102 0.420897 
26.982 1 47 2.83297 5.69793 3.45826 -5.29476 1.26734 2.85754 0.715912 0.242558 -0.248855 0 0 0 0 0 0 0.0473991 -0.00278583 -0.105369 -6.9156 20.6761 -9.15475 -8.94161 2.38829 -0.107974 0.741487 0.243712 -0.230515 17.0802 -10.4253 14.7317 -1.63859 0.220069 5.80511 0.690229 0.24154 -0.26733 
26.982 1 206 2.64343 2.92392 4.28665 -3.75976 6.06464 -2.02173 0.00850483 0.0504614 0.083136 0 0 0 0 0 0 0.0539032 -0.129222 -0.0420893 8.30929 -10.3734 26.2476 -3.41572 6.67132 2.5723 0.0414706 0.0192771 0.10412 1.45975 14.7427 -18.7236 -4.11143 5.53523 -6.60102 -0.0244751 0.081709 0.0620297 
26.982 1 7 2.48844 1.08988 2.1162 -5.72446 1.47446 -0.995978 -0.245616 -0.0598871 0.128878 0 0 0 0 0 0 0.0271414 -0.186291 -0.122928 2.12218 35.8792 -0.0502394 -4.29405 0.746959 2.6941 -0.215771 -0.0696237 0.148703 7.27032 45.8736 3.04788 -7.18535 2.25508 -4.66402 -0.275497 -0.0500596 0.108805 
26.982 1 45 0.820751 5.34542 1.79834 -0.611244 -1.38926 2.81505 -0.326804 0.582226 -0.623338 0 0 0 0 0 0 -0.0160426 -0.00450201 -0.233128 -1.27558 6.69083 49.4195 -1.51165 -0.111483 5.32391 -0.321616 0.588761 -0.620462 8.10722 2.73051 34.013 0.297355 -2.62529 0.350348 -0.331995 0.57573 -0.626338 
26.982 1 205 0.480958 1.23178 5.12991 -0.596318 -4.76842 -0.989454 -0.3099 0.542874 0.0588694 0 0 0 0 0 0 0.0520123 -0.109752 -0.101482 -6.28222 35.7207 4.52612 0.0679703 -5.41128 2.39412 -0.284737 0.54591 0.0789216 12.3537 46.2477 4.6122 -1.29454 -4.10633 -4.33397 -0.335209 0.539902 0.0387488 
26.982 1 249 6.16004 6.08764 5.3967 2.70936 5.82131 2.6999 0.071956 -0.139425 -0.305327 0 0 0 0 0 0 -0.0128005 -0.0125592 -0.0322211 6.17033 -12.406 14.2479 -0.159941 2.6394 4.79157 0.062693 -0.132446 -0.31399 9.89534 23.3692 -4.56774 5.58414 9.03832 0.638229 0.0812319 -0.14631 -0.29662 
26.982 1 12 5.38983 3.86946 3.64807 3.06653 0.240839 2.51037 -0.368501 -0.142459 0.0476772 0 0 0 0 0 0 0.0344875 -0.0867746 -0.133576 6.35321 8.8333 -6.9541 3.32749 -1.38316 -0.165494 -0.349847 -0.173446 0.0362598 8.17371 -2.51645 12.984 2.80408 1.947 5.18765 -0.387249 -0.111441 0.0590416 
26.982 1 51 8.71079 4.7613 2.20924 -4.62694 3.06813 0.781153 -0.420356 -0.331109 0.274856 0 0 0 0 0 0 -0.0681339 -0.0650228 -0.227713 -6.97072 13.3447 -20.588 -7.78812 1.49441 0.92154 -0.456754 -0.341207 0.264748 27.4563 -5.00126 23.7465 -1.48007 4.72956 0.68148 -0.384126 -0.320907 0.284968 
26.982 1 210 7.84017 3.58212 5.04998 -5.31725 1.4112 -2.53972 0.0676937 0.213145 -0.172781 0 0 0 0 0 0 -0.0342008 -0.0643269 -0.105158 0.115521 6.94808 14.546 -8.12017 0.422654 -2.06675 0.0548386 0.203698 -0.227497 18.6538 -1.3141 -5.64627 -2.51258 2.45715 -2.98049 0.0806026 0.222651 -0.11795 
26.982 1 11 8.82209 1.6598 3.19523 1.3569 2.52838 4.25066 -0.652246 0.140495 0.104438 0 0 0 0 0 0 -0.0816145 -0.155729 -0.177927 0.924772 64.6439 -23.1863 -1.3812 5.68494 0.38615 -0.676528 0.142645 0.076141 19.8957 18.263 28.2283 4.11375 -0.54893 8.13858 -0.627988 0.138407 0.132747 
26.982 1 253 10.9679 4.55073 4.06313 -2.21112 2.57052 -1.14849 -0.180089 -0.251722 -0.147633 0 0 0 0 0 0 -0.0238401 -0.0310207 -0.0803791 7.65253 1.67774 48.6007 -4.13948 3.64674 6.70639 -0.196881 -0.258438 -0.166188 16.8575 6.29767 -41.6143 -0.266475 1.58219 -8.98136 -0.163233 -0.244985 -0.128937 
26.982 1 16 11.3266 2.38097 2.48294 4.44965 -4.62331 2.53953 0.509807 -0.11738 -1.21113 0 0 0 0 0 0 -0.045571 -0.146726 -0.189816 7.12048 27.5762 -5.1936 -0.884014 -2.27363 4.83264 0.488306 -0.139085 -1.21814 18.1688 -24.365 8.77083 9.8285 -6.93844 0.268363 0.531531 -0.0957557 -1.20406 
26.982 1 55 14.1857 5.12864 3.04946 0.171457 3.43426 1.84692 -0.0494374 -0.0839535 0.496008 0 0 0 0 0 0 0.0211373 -0.00886507 -0.105556 12.3027 10.9268 18.731 -3.84643 6.03233 6.91487 -0.0655546 -0.0811614 0.507272 18.0907 -1.87595 -13.862 4.24711 0.908384 -3.19112 -0.033074 -0.0868592 0.484813 
26.982 1 214 13.5022 2.80036 4.44867 4.04705 0.933669 4.46345 0.148377 0.125453 0.069352 0 0 0 0 0 0 0.0292825 -0.101983 -0.0538932 26.3955 8.19906 12.4922 1.43127 3.25063 5.96829 0.136072 0.122107 0.0727876 2.62816 -4.08926 -4.83092 6.72325 -1.34026 2.97613 0.16093 0.128722 0.0659269 
26.982 1 213 10.888 1.53876 4.86122 -1.91037 0.825991 6.21576 0.229981 -0.30087 0.742075 0 0 0 0 0 0 -0.000509848 -0.125158 -0.10645 9.78156 4.71157 16.498 -3.50121 2.68967 7.3418 0.231815 -0.307229 0.736294 14.5913 -3.41362 -8.02411 -0.275862 -0.993284 5.12297 0.22831 -0.294417 0.74805 
26.982 1 823 22.7141 0.972792 18.3038 -1.82207 -3.51076 -4.6373 -0.412892 0.260029 -0.415416 0 0 0 0 0 0 0.0287631 -0.281441 -0.0170693 16.2485 -2.39585 19.8208 -2.04772 -5.69844 -4.83251 -0.433524 0.273867 -0.436101 28.6674 2.57684 16.8352 -1.57262 -1.29384 -4.39833 -0.392201 0.246239 -0.394699 
26.982 1 15 13.9081 1.08222 2.22864 2.67074 -1.05489 -7.47652 -0.303601 -0.409177 0.00241783 0 0 0 0 0 0 -0.0258068 -0.209851 -0.0972311 10.453 42.5826 12.4663 -2.4912 1.02772 -3.65937 -0.348185 -0.407644 0.00324868 19.3278 39.0192 -9.26898 7.89903 -3.10075 -11.256 -0.258641 -0.410695 0.00161269 
26.982 1 20 16.0415 3.16817 2.6176 -1.33596 -4.23764 0.653594 0.562908 0.220224 0.470504 0 0 0 0 0 0 0.0471559 -0.0614716 -0.12589 30.9371 -14.5779 8.08162 -2.01571 -5.87799 3.98372 0.551032 0.232653 0.493755 2.4139 19.4513 -4.10498 -0.607222 -2.56313 -2.64337 0.575106 0.207654 0.447182 
26.982 1 257 16.4239 4.97026 5.0378 -1.80433 0.556282 -0.705847 -0.417977 -0.035677 -0.859578 0 0 0 0 0 0 -0.0134081 -0.0515652 -0.0401129 23.779 -16.3284 17.7645 -3.0614 0.634752 4.14822 -0.44291 -0.063018 -0.859061 10.3809 24.9865 -8.85383 -0.497206 0.528541 -5.52215 -0.39284 -0.00840726 -0.860135 
26.982 1 218 18.5252 3.34195 4.49888 -6.11212 3.2844 4.29146 0.206366 -0.108557 0.309681 0 0 0 0 0 0 0.0073029 -0.101642 -0.0858929 6.51611 -2.6804 2.54823 -9.09652 4.35646 6.62468 0.18919 -0.114339 0.3223 31.1058 7.92733 5.30631 -3.10186 2.25689 1.98066 0.223762 -0.102905 0.296952 
26.982 1 2003 -0.295208 19.3932 2.74226 1.57514 4.59054 0.876215 -0.298187 -0.284294 0.65476 0 0 0 0 0 0 -0.0767794 0.0225851 -0.186254 19.4118 55.3456 -4.02502 0.0983971 8.63566 1.64567 -0.306087 -0.287157 0.658747 -14.3566 -16.4715 8.07297 3.07573 0.571817 0.13535 -0.290065 -0.281353 0.650754 
26.982 1 3013 11.1866 19.9102 20.1927 -5.32346 1.52257 3.51845 0.4345 -0.317729 0.257764 0 0 0 0 0 0 -0.0665227 -0.0237045 -0.0169304 13.3243 1.74238 20.1614 -7.25744 -2.57672 4.64492 0.446376 -0.322261 0.283588 11.5951 38.379 20.4651 -3.35821 5.68609 2.40495 0.422674 -0.313154 0.231772 
26.982 1 2225 25.0932 20.2762 4.4683 -1.59255 7.01755 -3.54318 0.0518427 -0.849537 0.300155 0 0 0 0 0 0 -0.0564538 0.0826053 -0.146521 22.5419 36.5226 -22.025 -4.68802 10.7402 -7.08097 0.0324797 -0.846796 0.284006 26.2883 4.28529 29.7952 1.54078 3.33482 0.0325137 0.071442 -0.852285 0.316418 
26.982 1 59 18.3845 5.05059 2.45252 2.24022 1.46554 2.44774 0.231966 -0.00140334 -0.102052 0 0 0 0 0 0 0.0184342 -0.023259 -0.261515 31.4354 -11.3015 15.0221 2.38079 -0.242678 5.95699 0.221292 0.000754769 -0.106727 5.87795 20.0828 -11.3253 2.11866 3.18322 -1.02325 0.24288 -0.00363972 -0.0974844 
26.982 1 2027 27.6169 20.2145 2.681 1.74105 0.207628 -1.03155 -0.400747 0.304927 -0.285739 0 0 0 0 0 0 -0.00883894 0.0751601 -0.285862 39.979 8.67572 22.3312 2.69214 0.0615085 0.833603 -0.408005 0.312583 -0.31009 13.2537 32.1612 -18.3363 0.802602 0.407419 -2.86758 -0.393316 0.297306 -0.261337 
26.982 1 24 20.749 2.95578 2.59466 0.608979 -0.947444 8.64796 -0.11134 0.543635 0.334121 0 0 0 0 0 0 -0.0112439 -0.131681 -0.175263 9.94487 15.4899 15.5092 -1.73838 0.864425 11.6948 -0.114915 0.559439 0.346569 31.4804 -10.9561 -11.596 2.95598 -2.70038 5.6375 -0.107671 0.527787 0.32163 
26.982 1 261 20.9267 5.16564 4.70028 2.16038 0.468938 4.88851 -0.297277 -0.495421 -0.602805 0 0 0 0 0 0 -0.0147839 -0.0477692 -0.0893511 20.6271 9.75128 3.1206 1.15423 3.15917 5.90887 -0.311608 -0.514947 -0.62048 21.1562 -0.713821 5.13962 3.17124 -2.1822 3.89144 -0.28272 -0.475914 -0.585232 
26.982 1 2023 22.6725 20.0215 2.08226 2.12726 1.68629 -0.604853 0.0987683 -0.154232 0.349826 0 0 0 0 0 0 -0.0309463 -0.0150926 -0.233927 15.217 42.3219 9.31319 -2.96793 5.60953 1.2968 0.0901958 -0.157541 0.373141 29.535 -1.86527 -6.39378 7.2842 -2.17 -2.46029 0.107582 -0.1508 0.326482 
26.982 1 603 -1.11711 0.943711 14.8855 -0.829468 -2.8709 6.08173 -0.0782705 -0.0687959 -0.41169 0 0 0 0 0 0 -0.078832 -0.1992 -0.0885589 -3.62748 54.0349 21.9601 -0.83399 -3.69002 9.90213 -0.0580674 -0.0901108 -0.410598 7.17002 27.349 7.78128 -0.821374 -2.01668 2.31441 -0.0984413 -0.0473782 -0.412819 
26.982 1 203 -1.07823 1.65996 7.71788 1.2738 1.02634 7.23128 -0.147638 -0.313627 -0.486685 0 0 0 0 0 0 -0.0917568 -0.120192 -0.0960758 2.69292 68.7013 10.1266 3.8539 6.14637 8.78381 -0.148563 -0.325003 -0.486693 0.878742 14.1691 4.28979 -1.33631 -4.06665 5.69543 -0.146861 -0.30227 -0.486751 
26.982 1 63 23.0318 4.87053 2.6418 -5.27156 -2.91169 -5.22398 -0.147332 0.437095 -0.0742008 0 0 0 0 0 0 -0.012227 -0.0103218 -0.236137 29.4683 25.6387 11.2232 -5.32131 -0.0437987 -2.73625 -0.157583 0.444431 -0.0862853 15.9774 -17.2067 -7.17562 -5.2211 -5.73929 -7.68125 -0.136965 0.429813 -0.0621036 
26.982 1 222 23.073 2.98172 4.64698 4.28972 -0.502319 6.1984 -0.208833 -0.492547 -0.159128 0 0 0 0 0 0 -0.0376009 -0.14835 -0.130873 19.2203 18.3302 8.37038 3.55329 1.37056 8.35615 -0.206742 -0.507309 -0.171347 26.2577 -13.8413 -0.2243 5.01303 -2.32338 4.06105 -0.210802 -0.477773 -0.146914 
26.982 1 28 25.2794 3.07735 2.52931 -1.47822 0.19293 0.733383 -0.160721 -0.471531 0.335224 0 0 0 0 0 0 -0.00986905 -0.114103 -0.23389 29.6511 10.0724 18.4141 0.0294211 0.0272009 4.36963 -0.163886 -0.496581 0.344778 19.7199 -5.33255 -14.8112 -2.99323 0.414814 -2.90759 -0.157478 -0.446426 0.325729 
26.982 1 265 25.1505 4.9622 4.53959 -2.15824 1.18306 -2.25076 0.120396 -0.583833 -0.344955 0 0 0 0 0 0 -0.0118116 -0.0417571 -0.105225 28.7529 -18.0335 4.19051 -1.13289 -0.206801 -0.718854 0.118709 -0.604573 -0.359657 20.3328 26.6447 3.67652 -3.18401 2.62459 -3.76568 0.122179 -0.563039 -0.330264 
26.982 1 807 5.26584 1.11156 17.9231 -2.84087 -1.32257 -4.8179 0.0895562 -0.174892 0.123795 0 0 0 0 0 0 -0.0644994 -0.178491 -0.120308 5.28795 57.7215 13.9897 -9.00633 -2.49712 -7.06222 0.0612705 -0.183715 0.105973 9.70494 24.4023 21.9168 3.38523 -0.0571636 -2.5218 0.118052 -0.165915 0.141677 
26.982 1 401 -3.33181 0.82137 9.18038 -2.37516 -5.38338 -1.62101 0.11531 0.066865 0.395722 0 0 0 0 0 0 -0.132081 -0.0367238 -0.18892 44.067 64.9935 -9.96128 -0.0224157 0.550808 -2.18159 0.122237 0.0556038 0.414661 36.8882 16.21 27.4532 -4.76212 -11.2671 -1.05332 0.108276 0.0782023 0.376735 
26.982 1 67 27.5155 5.01268 2.7301 -1.87649 1.42156 -3.64352 -0.256759 -0.63156 -0.649464 0 0 0 0 0 0 -0.0359645 -0.0216281 -0.260169 26.6103 -5.28449 9.02772 -2.3843 0.297792 -2.95555 -0.262223 -0.643441 -0.664472 26.5962 13.9575 -4.90416 -1.36892 2.60121 -4.30753 -0.251259 -0.619631 -0.634397 
26.982 1 226 27.4074 2.92742 4.58807 6.80665 -4.74857 -0.532861 -0.259042 -0.087297 -0.0881749 0 0 0 0 0 0 -0.0228198 -0.0883652 -0.0951861 27.7101 -9.09844 16.9124 6.66843 -6.25159 1.86874 -0.274229 -0.101805 -0.0865303 25.3089 13.6409 -9.00441 6.95186 -3.17909 -2.91704 -0.243829 -0.072715 -0.0898219 
26.982 1 32 29.5673 2.91259 2.69206 -0.0738519 3.14333 -1.99025 0.240529 -0.686943 -0.191985 0 0 0 0 0 0 -6.64118e-05 -0.129819 -0.223826 12.1755 11.6098 24.8088 -1.71711 5.42461 1.31133 0.243297 -0.710212 -0.197169 44.484 -7.17094 -20.776 1.58047 0.931474 -5.26669 0.237746 -0.663638 -0.186799 
26.982 1 269 29.6088 4.77016 4.50553 -1.6091 5.42339 0.789912 0.343116 -0.273279 0.0226786 0 0 0 0 0 0 0.0179665 -0.02382 -0.0818346 26.0966 15.1072 26.4588 -2.15634 6.05444 3.98049 0.358349 -0.277562 0.0191994 30.7081 -6.90408 -18.5357 -1.04325 4.84486 -2.36479 0.327815 -0.26894 0.0261132 
26.982 1 964 43.0877 17.6297 17.6913 3.08593 -3.28111 1.34528 -0.213873 -0.558413 0.276929 0 0 0 0 0 0 0.0140946 -0.0574164 -0.0304617 30.9079 14.034 16.848 3.52868 -7.40296 1.56676 -0.219085 -0.591622 0.272069 48.992 21.1395 18.5466 2.62878 0.907089 1.16109 -0.208777 -0.524986 0.281773 
26.982 1 19 18.2864 1.26088 2.94619 7.74993 5.02006 -1.33039 0.151341 -0.479936 -0.218645 0 0 0 0 0 0 0.0449736 -0.184331 -0.124238 37.6525 -0.960386 13.1161 8.59085 7.08367 1.83109 0.14244 -0.47553 -0.211102 -0.540452 1.74871 -8.49111 6.92478 3.01058 -4.44993 0.160423 -0.48448 -0.226293 
26.982 1 411 8.62711 0.993597 9.8303 -4.56713 -2.83857 -0.44736 0.0425801 0.447136 0.101829 0 0 0 0 0 0 -0.0235937 -0.248187 -0.0516764 21.0157 61.7377 20.2671 -5.23403 -0.647977 -0.619882 0.043436 0.460839 0.114681 -0.811863 19.6813 -1.16726 -3.90419 -5.01512 -0.209701 0.0417524 0.433401 0.0891749 
26.982 1 2831 31.5521 19.5316 18.388 1.83457 -5.42748 2.20067 0.485809 0.693999 0.0530604 0 0 0 0 0 0 -0.0595818 0.115053 0.00889787 28.7078 29.5944 18.8688 4.62041 -6.00803 0.730081 0.503677 0.704769 0.0442296 31.1433 9.73241 18.0303 -0.970891 -4.78995 3.69638 0.467883 0.683192 0.0617697 
26.982 1 71 31.8995 4.68773 2.51496 -3.50826 6.65229 1.4922 0.307977 -0.114703 0.796378 0 0 0 0 0 0 0.0554828 -0.0151634 -0.234007 30.1376 18.6051 1.29007 -2.8882 8.70455 2.44538 0.318261 -0.111175 0.817622 30.4509 -10.5541 2.55302 -4.13474 4.65979 0.59233 0.297598 -0.118176 0.775112 
26.982 1 230 31.8281 2.82307 4.64122 -2.27705 -3.81214 -2.9232 0.0477528 0.406089 -0.108421 0 0 0 0 0 0 0.0501826 -0.101922 -0.080868 14.3326 -6.64673 -6.0422 -3.64628 -4.98583 -5.81745 0.0529075 0.415257 -0.0982762 46.1813 10.9632 14.2832 -0.902029 -2.56983 0.0152683 0.0424617 0.396954 -0.118648 
26.982 1 273 34.2987 4.85932 4.56031 2.28306 0.155049 -2.44712 -0.393329 0.0389024 0.731842 0 0 0 0 0 0 0.0193626 -0.0411101 -0.0699293 44.1617 21.1085 -9.48521 3.96413 0.155256 -5.2175 -0.381613 0.0343467 0.746885 20.5156 -12.7605 17.4778 0.572527 0.201963 0.363077 -0.405213 0.0435444 0.716699 
26.982 1 36 34.1211 2.95701 2.81028 -3.15208 2.17589 -4.95359 -0.350574 -0.50205 -0.448155 0 0 0 0 0 0 0.0121928 -0.12282 -0.208639 39.0055 -2.95727 -13.0066 0.16836 1.14302 -8.00015 -0.346879 -0.514608 -0.456427 25.3302 7.43651 17.4509 -6.49959 3.26174 -1.8703 -0.354415 -0.48947 -0.439981 
26.982 1 2237 38.3781 20.358 4.74691 -1.13864 3.98709 0.0442629 0.146332 -0.449562 -0.168024 0 0 0 0 0 0 -0.0673567 0.0695045 -0.118886 33.4711 13.3121 -0.231616 1.88811 6.2346 -1.32871 0.163226 -0.461118 -0.167896 38.2129 27.7802 8.54655 -4.22918 1.78956 1.46548 0.129046 -0.438086 -0.168201 
26.982 1 75 36.2906 4.73076 2.61947 -2.50752 6.39674 -0.806057 0.493229 -0.00913692 0.0150821 0 0 0 0 0 0 0.00698501 -0.0311638 -0.248553 39.7245 23.0982 5.73075 -0.932588 9.57412 0.130605 0.516706 -0.00131193 0.0164829 28.251 -15.0951 -1.63021 -4.11742 3.25201 -1.68214 0.469614 -0.0169017 0.013567 
26.982 1 234 36.2828 2.66834 4.74443 -6.553 -4.60353 -1.22146 0.0869557 0.353181 -0.0292072 0 0 0 0 0 0 0.0230019 -0.137684 -0.063684 51.0191 -0.673449 -2.59672 -2.96539 -5.40057 -1.95207 0.114288 0.358794 -0.0112422 16.9714 4.53056 11.0815 -10.178 -3.74786 -0.449278 0.0594401 0.347626 -0.0473462 
26.982 1 40 38.3629 2.62268 2.83853 -3.97683 1.85493 -0.754907 -0.0563253 0.154495 -0.419464 0 0 0 0 0 0 -0.0429513 -0.123013 -0.150426 46.9566 21.3327 -8.64097 -1.73638 2.42604 -0.596341 -0.0594056 0.165479 -0.411796 24.5778 -17.6308 13.1522 -6.23111 1.32189 -0.872004 -0.0533527 0.143529 -0.427375 
26.982 1 277 38.4615 4.5189 4.78276 -5.19179 1.45723 -3.61914 -0.586664 0.0583527 0.971829 0 0 0 0 0 0 -0.0182073 -0.0610692 -0.0261367 35.829 30.8042 -5.17267 -5.66855 4.11496 -4.70816 -0.588145 0.0517424 1.0047 35.8931 -23.1107 13.7744 -4.73812 -1.1344 -2.47587 -0.585291 0.065121 0.938874 
26.982 1 38 40.6449 2.92862 1.01283 1.90043 -2.82408 -3.35287 0.0544594 0.125365 -0.134747 0 0 0 0 0 0 -0.0842358 -0.0558567 -0.23618 30.5497 11.8776 67.6459 0.961967 -2.09516 0.454195 0.0598392 0.129679 -0.129488 45.0152 -7.50165 14.259 2.82672 -3.52185 -7.11692 0.048917 0.120959 -0.140058 
26.982 1 4 42.8517 2.69123 3.33126 2.27412 0.399601 2.94704 0.264458 0.00744169 -0.247784 0 0 0 0 0 0 -0.00882229 -0.0874577 -0.0784917 23.1578 -0.230719 7.65053 3.94891 2.80098 5.19323 0.27267 0.017717 -0.238361 56.1878 4.05838 -2.20842 0.566223 -1.97236 0.739321 0.256076 -0.00279921 -0.257418 
26.982 1 79 40.6159 4.46047 3.40651 -3.57626 -1.5347 -3.20721 0.816938 -0.167018 -0.81057 0 0 0 0 0 0 -0.0383781 -0.0330649 -0.0977731 29.9498 31.898 -20.8161 -3.35501 2.44624 -7.01496 0.818831 -0.165199 -0.80426 45.5097 -24.3665 26.4801 -3.82123 -5.49132 0.62281 0.814924 -0.168796 -0.817 
26.982 1 238 40.9985 2.42565 5.36645 3.50077 -0.516517 -1.07381 -0.04339 0.0933472 0.261765 0 0 0 0 0 0 0.00552061 -0.209872 0.0275866 48.1435 -6.0659 -6.90129 5.19 -0.883993 -1.54302 -0.0509161 0.0978572 0.278016 28.0403 9.42144 16.6052 1.78965 -0.0886756 -0.579372 -0.0359318 0.088971 0.245318 
26.982 1 2427 27.1709 20.1609 10.0469 -3.56917 0.229809 0.688913 -0.299508 0.363031 0.876853 0 0 0 0 0 0 -0.13182 0.15512 -0.11834 30.4782 12.266 20.3592 -3.99069 -1.06197 3.20617 -0.304671 0.372755 0.88818 21.8866 28.3108 -0.931605 -3.13648 1.54624 -1.80425 -0.294361 0.353357 0.865518 
26.982 1 419 18.2276 0.933018 10.1681 -3.55487 0.022739 -0.433237 -0.190856 0.274009 0.25854 0 0 0 0 0 0 -0.0311784 -0.241956 -0.0680259 29.3769 43.4178 29.1498 -3.60667 8.02462 3.04385 -0.213313 0.304918 0.268834 7.72008 -43.0977 -9.37737 -3.48268 -7.90736 -3.86729 -0.168104 0.243016 0.248284 
26.982 1 83 -1.60648 9.54526 3.37511 1.32511 -0.0175339 2.21746 -0.217435 -0.29561 0.000441309 0 0 0 0 0 0 -0.105718 -0.0240823 -0.131597 -4.23603 28.8758 12.0393 3.80887 0.920692 1.699 -0.236686 -0.281377 0.00418694 6.80463 -10.7896 -6.53939 -1.18178 -0.935867 2.80024 -0.19827 -0.309866 -0.00331064 
26.982 1 242 -2.05931 6.85219 4.58127 -9.77157 -3.82994 -1.43328 0.609988 0.401649 0.441879 0 0 0 0 0 0 -0.172257 -0.022764 -0.0619799 -10.9132 23.4056 16.2668 -8.62989 -1.89478 0.790731 0.623298 0.402231 0.466255 12.5456 -10.8746 -8.07554 -10.9671 -5.73902 -3.59351 0.596481 0.401019 0.417421 
26.982 1 281 42.8754 8.72436 4.82911 0.345342 -3.93056 0.33048 0.271059 0.0444715 0.0786074 0 0 0 0 0 0 0.0340031 0.0034679 -0.0535177 44.7988 39.1955 4.51979 4.93616 -1.77559 0.665108 0.292629 0.0529436 0.0723745 34.4998 -22.787 4.07792 -4.31319 -6.09055 0.0539209 0.249189 0.0359104 0.0847973 
26.982 1 78 40.829 6.39862 1.03573 3.58073 -2.50957 -6.89155 0.0972711 0.286387 0.0885648 0 0 0 0 0 0 0.00246265 0.0132998 -0.263966 32.3322 24.8631 31.0146 4.79437 3.44593 -5.19248 0.115389 0.305271 0.0777881 43.6891 -13.2237 -30.5277 2.34579 -8.4436 -8.5435 0.0789364 0.267442 0.0993481 
26.982 1 48 0.606727 7.69606 3.36557 2.47015 1.04462 -2.30915 -0.164083 -0.591417 0.104973 0 0 0 0 0 0 -0.0456674 0.0047794 -0.0899654 -26.6617 38.8198 -20.4516 -1.37557 5.94536 -5.36281 -0.176609 -0.596643 0.116649 33.1307 -24.6266 25.7892 6.33378 -3.80155 0.731972 -0.151545 -0.586209 0.0930868 
26.982 1 285 0.449811 9.52175 5.39195 -0.111951 2.78252 -2.12392 -0.133897 -0.11284 0.221184 0 0 0 0 0 0 -0.0476387 -0.00405695 -0.00804776 -23.5064 33.1682 5.70284 -0.950316 7.45843 0.921854 -0.13904 -0.116154 0.235206 29.6732 -15.2153 3.88943 0.734038 -1.85994 -5.14819 -0.128767 -0.109596 0.206993 
26.982 1 87 3.52855 8.40196 2.98056 -3.3163 -0.606654 -4.88884 0.114235 0.00899296 -0.265324 0 0 0 0 0 0 0.0270466 -0.0195235 -0.150409 -9.89354 15.1653 13.0563 -7.32897 -0.456802 0.277992 0.13511 0.00271734 -0.243749 21.5703 0.709291 -8.41818 0.746685 -0.694581 -10.0277 0.0933498 0.0152803 -0.287033 
26.982 1 246 2.35553 7.48828 5.56009 1.74293 1.16347 6.50724 0.259221 -0.195181 0.156987 0 0 0 0 0 0 0.0096656 -0.01173 0.00703304 9.29805 10.9995 20.1972 1.42512 1.804 11.4657 0.26732 -0.20871 0.183001 0.0103084 2.82921 -10.3057 2.09225 0.555448 1.57028 0.251153 -0.181683 0.130835 
26.982 1 88 1.34493 10.2312 2.8388 0.477891 3.43306 -3.99436 0.266256 0.486078 -0.20067 0 0 0 0 0 0 -0.0384925 0.031882 -0.175702 -22.1716 21.6326 14.8577 -4.5046 5.19244 1.40385 0.265375 0.518376 -0.186368 30.1711 -1.98606 -10.5298 5.51027 1.71237 -9.34803 0.267212 0.453735 -0.215103 
26.982 1 286 3.6076 10.2432 5.11015 1.91181 -2.27737 6.56121 0.0471385 -0.112221 0.128822 0 0 0 0 0 0 0.00458825 0.00403928 -0.0132451 -1.43742 32.377 50.0645 -0.766331 0.411714 17.8795 0.0576275 -0.104447 0.146903 13.3437 -12.8588 -41.2172 4.65038 -4.95738 -4.76951 0.036763 -0.119943 0.11061 
26.982 1 289 6.01337 8.67927 4.53929 3.24827 5.95315 1.84649 0.182281 -0.00751071 -0.140863 0 0 0 0 0 0 -0.00447406 -0.0203788 -0.0419616 20.2329 13.8232 37.6459 2.13766 7.04207 9.46166 0.181566 -0.022123 -0.135566 -4.37548 2.5408 -29.8218 4.39047 4.92023 -5.78755 0.18302 0.00716966 -0.146283 
26.982 1 52 5.88136 6.55134 2.69822 1.27889 1.50264 -1.29071 -0.00588061 0.123789 -0.503912 0 0 0 0 0 0 -0.0192445 -0.0464504 -0.206511 13.2833 3.19299 16.6195 0.988234 -1.3964 2.94537 -0.00146488 0.100513 -0.513681 2.23278 8.83062 -12.4036 1.57454 4.48319 -5.49095 -0.0104818 0.147204 -0.4942 
26.982 1 91 8.54966 9.89829 3.49083 1.99644 1.79618 2.24151 -0.474958 -0.387669 -0.307943 0 0 0 0 0 0 0.00973421 -0.000662687 -0.139332 15.353 4.38324 12.8792 1.99579 -0.615998 4.09076 -0.47902 -0.404954 -0.318867 4.80948 14.4684 -7.12463 1.9961 4.27241 0.412715 -0.470876 -0.370219 -0.297142 
26.982 1 250 8.52147 6.6278 4.204 -2.87041 -0.266307 -2.38404 0.113267 0.284566 -0.201205 0 0 0 0 0 0 -0.018211 -0.0158364 -0.0871449 11.6331 14.5341 38.9963 -3.31166 -1.5456 1.6673 0.103059 0.269199 -0.231008 8.47981 -2.20235 -32.0254 -2.43276 1.10528 -6.45979 0.123459 0.300014 -0.171372 
26.982 1 92 6.26069 11.4903 3.90318 -1.98132 -4.69511 5.90522 -0.0331079 0.209618 -0.244852 0 0 0 0 0 0 -0.00319012 0.00174354 -0.0801216 4.38916 10.0841 17.3619 -4.27646 -5.71574 7.661 -0.0449324 0.207619 -0.248404 11.9446 12.1706 -10.7617 0.351302 -3.61783 4.16698 -0.0212003 0.21166 -0.24143 
26.982 1 290 8.55131 11.9318 5.5443 -3.6431 1.30452 6.43554 0.525316 -0.678241 -0.125131 0 0 0 0 0 0 0.00924771 -0.000120909 -0.0217815 14.2182 31.7523 57.446 -5.16822 1.4887 13.0759 0.531834 -0.680634 -0.124092 5.97902 -8.75773 -47.5589 -2.09441 1.17306 -0.191164 0.518893 -0.675721 -0.126332 
26.982 1 609 6.87389 1.03149 12.0374 -4.09492 -0.465958 -4.88137 -0.488841 0.553339 -0.203184 0 0 0 0 0 0 -0.0490176 -0.168487 -0.0825837 3.02633 21.4738 16.803 -7.91705 5.21198 -5.88082 -0.526676 0.582312 -0.19087 14.4436 -21.1186 6.8979 -0.242936 -6.08125 -3.82013 -0.450885 0.524298 -0.215458 
26.982 1 89 5.99425 9.59718 1.90313 -1.69071 0.0482216 3.56083 0.401088 -0.337829 -0.419475 0 0 0 0 0 0 0.00974721 -0.0362135 -0.24326 17.806 18.9685 -19.9234 -1.36072 -1.81135 0.806799 0.408638 -0.357422 -0.422525 -2.08869 -0.672912 22.3674 -2.00333 1.96791 6.31577 0.393494 -0.318123 -0.416535 
26.982 1 293 10.717 9.53277 4.89916 -6.70592 0.229039 0.568973 0.819148 -0.120567 0.199209 0 0 0 0 0 0 -0.0110364 0.00396813 -0.0382659 12.83 31.5387 49.3598 -7.39116 -0.156655 6.93146 0.809333 -0.123768 0.197455 11.1142 -13.5657 -40.8062 -6.01506 0.676159 -5.78785 0.828993 -0.117195 0.20095 
26.982 1 56 10.8679 7.71131 2.7985 -0.549649 -1.05363 0.270726 0.0332316 -0.171109 -0.130432 0 0 0 0 0 0 -0.0146023 0.0123962 -0.183885 17.1803 12.8618 20.4436 -2.11945 -3.87447 2.83843 0.0258748 -0.186665 -0.154901 7.14035 1.49702 -16.0529 1.03016 1.83724 -2.26262 0.0405942 -0.155381 -0.105951 
26.982 1 95 13.4894 9.36266 2.03507 0.310931 -3.73489 -0.610658 0.0371798 -0.20587 0.409903 0 0 0 0 0 0 -0.0347234 0.00993279 -0.212908 10.0602 17.5109 -10.0101 0.342291 -8.03478 -0.644285 0.0399045 -0.232915 0.427399 18.8393 0.114969 12.9018 0.285128 0.587638 -0.520814 0.0344875 -0.178684 0.392554 
26.982 1 254 13.1604 7.60799 4.3109 2.01392 0.650187 2.18414 0.745309 0.513673 -0.668722 0 0 0 0 0 0 -0.00290612 0.0041544 -0.0561086 6.31274 0.32819 50.8698 -0.552761 -2.8273 11.9552 0.743126 0.513881 -0.682273 22.0054 13.8215 -43.5087 4.6116 4.17673 -7.56428 0.747586 0.513581 -0.655088 
26.982 1 294 13.3045 11.1381 4.33137 -4.70031 -3.90555 -2.66014 0.184069 -0.749054 -0.363149 0 0 0 0 0 0 -0.0154405 -0.00918031 -0.0834099 17.8052 43.6837 -1.86316 -3.61324 -2.88788 -3.72901 0.178317 -0.763083 -0.382396 10.704 -22.4138 9.37284 -5.79694 -4.88157 -1.56263 0.189845 -0.734884 -0.343927 
26.982 1 425 24.884 0.800834 8.61557 2.35846 -2.72311 -4.33905 0.166631 0.364756 -0.233288 0 0 0 0 0 0 -0.0302284 -0.187126 -0.159815 36.8007 22.659 16.4248 4.70476 -0.41836 -4.05734 0.17149 0.381562 -0.242183 11.68 -22.6813 0.0551785 0.0082072 -4.98384 -4.57707 0.161788 0.347929 -0.224436 
26.982 1 60 16.3036 6.93375 3.01738 -3.39415 5.65764 1.55679 -0.00758809 0.118376 -0.482797 0 0 0 0 0 0 0.00915548 -0.0185292 -0.171669 31.8147 7.6215 -1.72872 -3.47102 8.29124 2.13335 -0.0370901 0.131486 -0.499563 2.05515 5.0178 6.51505 -3.28204 3.04814 1.01101 0.0221425 0.105255 -0.466022 
26.982 1 297 15.7633 9.50455 3.80736 3.1989 -2.07972 -1.09039 -0.5906 0.0468947 -0.557997 0 0 0 0 0 0 -0.0140478 -0.0120558 -0.0876761 27.5084 43.44 0.991747 4.92412 1.74923 -0.261081 -0.606473 0.041258 -0.576503 5.3297 -25.4446 5.44885 1.48492 -5.8606 -1.89764 -0.574641 0.0525566 -0.539429 
26.982 1 99 18.8485 8.78454 2.8929 -2.12553 -2.39539 -3.20433 -0.453394 0.983798 -0.758693 0 0 0 0 0 0 0.0276939 -0.00897487 -0.199706 27.9236 22.4124 11.2831 -1.04937 4.15729 0.379392 -0.46488 1.0216 -0.774904 10.405 -5.902 -6.71751 -3.1786 -8.92435 -6.74859 -0.441651 0.945927 -0.742482 
26.982 1 258 18.6966 6.83071 4.53231 4.40988 -0.255624 3.54613 -0.08274 0.0110642 0.446156 0 0 0 0 0 0 -0.000640633 -0.00342235 -0.0727352 17.3294 8.8383 4.71296 4.12171 1.85655 3.58029 -0.0924789 0.0217021 0.446079 20.6231 3.63366 3.17558 4.71729 -2.35765 3.52209 -0.0727502 0.000403412 0.446157 
26.982 1 100 15.6451 11.3006 1.80041 2.33601 -1.48176 -2.77745 -0.272527 0.45839 0.12741 0 0 0 0 0 0 -0.0242853 0.0349574 -0.239645 20.0069 49.1216 -18.82 3.79474 -0.199563 -5.52237 -0.267564 0.458404 0.124139 12.591 -27.3951 21.1535 0.866812 -2.73673 0.0227649 -0.277478 0.458501 0.130717 
26.982 1 14 13.9129 3.42514 0.932428 -7.1423 -1.2609 -0.172045 -0.463827 0.257379 -0.444664 0 0 0 0 0 0 0.0037769 -0.0352541 -0.255371 6.69427 36.3241 37.5995 -11.909 2.37792 4.9653 -0.495751 0.252418 -0.460141 23.1645 -31.0245 44.1474 -2.30301 -4.8481 -5.27083 -0.431568 0.262186 -0.429268 
26.982 1 64 20.858 6.87041 2.57028 6.94854 3.31758 4.64516 0.054101 -0.056542 0.341582 0 0 0 0 0 0 0.00100649 -0.0031509 -0.276613 22.0494 3.31704 0.887572 6.01409 4.64886 6.21488 0.0532435 -0.0497107 0.340876 19.6043 9.30675 3.00006 7.89126 2.01266 3.11201 0.0551894 -0.0634322 0.342277 
26.982 1 301 20.9258 8.89395 4.65575 1.28766 2.54745 5.33649 -0.099234 0.142364 -0.194375 0 0 0 0 0 0 -0.00115774 0.0233102 -0.0769686 14.2466 -3.16252 1.70057 -1.0077 5.00893 6.6347 -0.108389 0.170783 -0.201112 27.5572 19.919 6.50848 3.60462 0.0961021 4.06403 -0.0898633 0.113813 -0.187694 
26.982 1 104 20.9027 10.9779 2.69279 -1.38882 2.75097 2.65057 -0.013004 -0.126552 -0.0189681 0 0 0 0 0 0 0.0410887 0.00619044 -0.220291 24.1356 41.3537 18.3869 -3.06368 10.8829 5.49648 -0.0223969 -0.106375 -0.0167966 17.6578 -20.3357 -14.2129 0.303098 -5.38078 -0.157957 -0.00338928 -0.146893 -0.0211484 
26.982 1 2811 9.08019 19.8718 18.6145 3.34187 5.27722 9.90004 -0.182014 0.092811 -0.923875 0 0 0 0 0 0 0.0138546 0.0949848 -0.117131 8.56019 21.9789 39.3649 -3.54243 3.64873 10.3962 -0.209984 0.0994248 -0.963361 12.7868 18.0278 -2.06824 10.2712 6.96838 9.4345 -0.154024 0.0862474 -0.88451 
26.982 1 103 23.1153 8.87097 2.54172 2.69297 2.56139 -0.689895 -0.041536 0.0582244 -0.295743 0 0 0 0 0 0 -0.00254208 0.0112135 -0.277941 15.7957 23.897 -3.91883 0.690672 4.73093 -2.2914 -0.0475008 0.066534 -0.294161 29.7506 -7.04832 7.77498 4.71263 0.425422 0.950303 -0.0353944 0.0497556 -0.29731 