ITEM: TIMESTEP
4825
ITEM: NUMBER OF ATOMS
4000
ITEM: BOX BOUNDS pp pp pp
-1.05484 41.5548
0.253901 40.2461
0.273383 40.2266
ITEM: ATOMS mass type id x y z vx vy vz fx fy fz xrad yrad zrad vxrad vyrad vzrad fxrad fyrad fzrad xub yub zub vxub vyub vzub fxub fyub fzub xlb ylb zlb vxlb vylb vzlb fxlb fylb fzlb 
26.982 1 3 1.02788 0.326943 2.1799 2.55895 -0.877457 -0.314657 0.202457 0.0475058 0.0597151 0 0 0 0 0 0 -0.103741 -0.200447 -0.101888 1.15213 2.31088 3.74211 2.171 0.226312 0.755808 0.214327 0.0391313 0.0650007 2.66313 -2.31333 0.0129502 2.95618 -1.97678 -1.38049 0.190518 0.0558987 0.0543989 
26.982 1 8 3.05303 2.26619 2.25684 -1.4512 3.32523 5.87916 0.332118 -0.306552 0.229736 0 0 0 0 0 0 0.0242999 -0.166372 -0.102757 0.745846 4.77846 3.25155 -2.36597 4.39986 5.96319 0.341038 -0.317269 0.243602 6.9297 -0.819452 0.656134 -0.526076 2.25892 5.8011 0.323126 -0.295825 0.215829 
26.982 1 43 0.991937 4.25612 2.18437 1.69614 -4.03889 3.27013 0.387367 -0.131346 0.408888 0 0 0 0 0 0 -0.111991 -0.0876208 -0.0451606 -2.74723 2.17606 3.73448 0.361427 -5.43441 3.67051 0.390862 -0.117329 0.433799 6.50318 5.83224 0.0222547 3.04211 -2.63419 2.8739 0.383849 -0.145426 0.383942 
26.982 1 202 0.965745 2.29666 4.32654 3.92786 1.43181 3.93853 0.303384 -0.42188 -0.375926 0 0 0 0 0 0 -0.141618 -0.0808778 -0.106785 1.54799 0.440631 5.77385 3.75626 0.881776 4.6275 0.310618 -0.432593 -0.384462 2.15468 3.5819 2.3566 4.11027 1.99252 3.26462 0.296105 -0.411189 -0.367419 
26.982 1 245 3.1219 4.25693 4.26912 0.908723 -0.41193 0.417754 0.52638 -0.363053 0.0484818 0 0 0 0 0 0 -0.00933236 -0.0329215 -0.0214513 3.00381 3.87733 4.73945 0.681556 -0.422193 0.356458 0.538492 -0.352308 0.056694 4.81381 4.14331 3.26684 1.14668 -0.38767 0.488917 0.514258 -0.373804 0.0402846 
26.982 1 2 1.10646 2.11554 0.112433 -6.36449 0.0198523 0.326864 0.0766161 -0.557932 0.705445 0 0 0 0 0 0 -0.0748741 -0.126578 -0.189194 2.26857 3.80397 4.49368 -6.42631 1.22182 1.86582 0.0837627 -0.564694 0.72456 1.70361 -0.14809 -4.9595 -6.29506 -1.17031 -1.214 0.0694303 -0.551159 0.686342 
26.982 1 205 3.11451 0.340444 4.27695 -2.35405 -2.46071 0.912752 0.466469 0.0854306 0.0863721 0 0 0 0 0 0 0.0369402 -0.181071 -0.152787 2.2462 40.1824 4.12773 -3.08281 -3.15584 0.878889 0.485078 0.0874383 0.0953841 5.54592 41.1578 3.88887 -1.61789 -1.75573 0.953978 0.447798 0.0834503 0.077361 
26.982 1 41 -0.94581 4.25649 0.369952 -1.06312 -4.16171 3.84429 -0.672428 -0.305525 -0.367972 0 0 0 0 0 0 -0.124764 -0.138686 -0.15984 -4.26316 5.66109 5.96691 -2.01194 -3.75981 5.27566 -0.686777 -0.304203 -0.381839 4.32832 2.34683 -5.89813 -0.109338 -4.55335 2.42942 -0.658046 -0.306935 -0.354099 
26.982 1 47 5.3655 4.31808 2.32155 -1.72959 -1.35387 -0.0143349 0.160984 -0.30754 0.12715 0 0 0 0 0 0 0.0488642 -0.0773264 -0.111478 3.77899 4.89038 1.94265 -2.27704 -0.919155 0.196641 0.171008 -0.32618 0.133033 8.30869 3.26239 2.09731 -1.17977 -1.77039 -0.214647 0.150922 -0.288911 0.121247 
26.982 1 206 5.49294 2.3873 4.33869 3.48181 -3.29761 -2.77361 -0.549135 -0.228416 0.0872983 0 0 0 0 0 0 0.0324394 -0.147577 -0.0881122 7.17934 2.26073 7.33561 3.77205 -4.28383 -1.80739 -0.557255 -0.245917 0.0833039 5.16592 1.94811 0.822007 3.19478 -2.30065 -3.72233 -0.54106 -0.210891 0.0913164 
26.982 1 45 3.23709 4.15088 0.385653 4.65978 0.225407 -3.38987 -0.309748 0.373815 -0.375923 0 0 0 0 0 0 0.00723275 -0.0435327 -0.254118 3.56565 4.83345 41.1183 4.62244 0.170645 -2.77759 -0.307906 0.39541 -0.379176 4.47918 2.97271 40.2761 4.70684 0.291862 -3.99003 -0.311633 0.352196 -0.372689 
26.982 1 6 5.22633 2.21615 0.329148 -1.23835 7.92527 -4.12205 0.385354 0.245521 -0.0849771 0 0 0 0 0 0 0.0552678 -0.147743 -0.197109 4.63496 1.24177 2.6275 -1.46125 7.722 -3.05833 0.390306 0.25193 -0.0817052 7.16901 2.62784 -2.63379 -1.01487 8.14053 -5.17439 0.380353 0.239135 -0.0882953 
26.982 1 12 7.4655 2.31777 2.44472 0.208826 0.173137 -1.40985 0.158296 0.207756 -0.447778 0 0 0 0 0 0 -0.0257108 -0.172035 -0.129277 7.03722 2.27525 2.30851 0.140914 0.38623 -1.78693 0.159523 0.204665 -0.452722 9.04305 1.78709 1.98261 0.272129 -0.0293395 -1.02378 0.157045 0.210856 -0.442875 
26.982 1 249 7.61622 4.29753 4.38874 0.401521 -4.13321 -5.26479 -0.310843 -0.203379 0.181773 0 0 0 0 0 0 0.0028225 -0.0613408 -0.0250136 9.27748 0.246682 4.22873 0.673179 -5.77227 -4.96601 -0.306925 -0.221364 0.186402 7.09935 7.86259 4.00748 0.12529 -2.4761 -5.55431 -0.314776 -0.185377 0.177195 
26.982 1 51 9.77259 4.20315 2.42158 -1.4949 1.2424 2.86726 -0.318386 0.133501 -0.343148 0 0 0 0 0 0 -0.0266007 -0.0555992 -0.118788 6.59725 4.13234 0.0249064 -2.87635 1.58262 2.03353 -0.317581 0.132761 -0.359814 13.9014 3.78678 4.21306 -0.120013 0.917199 3.70939 -0.319179 0.134251 -0.326485 
26.982 1 210 9.79429 2.1056 4.19785 5.08458 -0.663291 -2.32729 -0.250612 0.483767 0.642092 0 0 0 0 0 0 -0.0101451 -0.144454 -0.043112 9.02185 3.80599 6.5644 4.65698 0.0271609 -1.76416 -0.250748 0.491901 0.661323 11.5223 -0.176218 1.28597 5.50728 -1.34442 -2.88872 -0.250443 0.475682 0.622878 
26.982 1 11 9.67609 0.382689 2.10085 1.39443 0.100432 -5.28614 -0.0486946 -0.654689 0.227309 0 0 0 0 0 0 -0.0267603 -0.245858 -0.102345 8.35534 40.9838 -1.69831 0.829192 0.303269 -6.94827 -0.0518901 -0.690211 0.232012 11.9652 40.4373 5.30789 1.95804 -0.0934676 -3.61046 -0.0454755 -0.619204 0.222572 
26.982 1 53 11.731 4.46287 0.0362661 2.70976 -1.40031 -6.78065 -0.123733 -0.133237 0.579245 0 0 0 0 0 0 0.0182926 -0.0790118 -0.262796 12.3713 6.33002 -4.11775 2.58111 -0.481591 -7.91535 -0.119636 -0.145079 0.606 11.877 2.09612 3.52964 2.84025 -2.31172 -5.6323 -0.127843 -0.121389 0.552466 
26.982 1 10 9.55759 2.49777 0.268654 -1.9446 7.1662 5.9167 0.15938 -0.248242 0.187207 0 0 0 0 0 0 -0.0374421 -0.0968342 -0.230493 11.5392 1.85939 -1.71099 -1.80087 7.56342 5.42427 0.163195 -0.248813 0.194866 8.54034 2.57202 1.5883 -2.09155 6.78053 6.42062 0.155544 -0.24767 0.179511 
26.982 1 16 11.7458 2.09031 2.23643 -2.23707 2.69672 1.15387 0.473042 1.00344 -0.2116 0 0 0 0 0 0 0.0382289 -0.158607 -0.135075 13.0895 2.58832 -0.990109 -2.54505 3.17146 0.325421 0.482512 1.02832 -0.2279 11.1866 1.02302 4.85587 -1.92574 2.2331 1.99027 0.4636 0.978549 -0.19529 
26.982 1 15 13.9739 0.212344 2.3002 0.0064057 -5.44805 -2.18259 0.106738 0.0776323 -0.169145 0 0 0 0 0 0 -0.0056533 -0.199348 -0.134226 13.9461 37.8512 2.59056 -0.352999 -7.02064 -2.00252 0.1134 0.0863439 -0.175453 14.5779 43.2256 1.4085 0.364717 -3.86872 -2.35347 0.100118 0.0688399 -0.162805 
26.982 1 253 11.8327 4.26888 4.26974 -0.471255 3.92677 -2.04165 -0.218677 -0.270949 0.303586 0 0 0 0 0 0 0.00306723 -0.0534115 -0.0166822 12.0247 4.37158 10.6416 -0.638161 3.90569 -0.333793 -0.215118 -0.281755 0.310916 12.4232 3.68324 -2.64221 -0.30281 3.96231 -3.74381 -0.222199 -0.26013 0.296304 
26.982 1 55 13.6702 4.26805 2.30863 0.279406 -1.12293 -0.971621 0.339081 -0.0738743 -0.63246 0 0 0 0 0 0 0.010104 -0.070353 -0.147573 14.5211 3.71594 3.40451 0.202364 -0.536582 -0.373329 0.337064 -0.0770436 -0.6613 13.4163 4.33869 0.611466 0.36001 -1.69481 -1.5567 0.341078 -0.0706864 -0.603588 
26.982 1 214 13.9774 2.13855 4.27059 1.99731 8.01084 4.87271 -0.219229 0.181435 -0.0712128 0 0 0 0 0 0 -0.00964523 -0.125178 -0.0764383 16.9228 1.71102 7.977 2.66793 8.36685 5.93055 -0.219675 0.188174 -0.0865893 11.6212 2.00248 0.0105205 1.32915 7.66834 3.81697 -0.218746 0.174674 -0.0558095 
26.982 1 20 15.9291 2.22874 2.14977 -0.267598 -7.01541 -1.341 0.410063 0.0400597 0.327401 0 0 0 0 0 0 -0.0404038 -0.150648 -0.139796 17.302 -1.93205 4.73539 0.253725 -8.24023 -0.424287 0.411067 0.0402136 0.32273 14.9441 5.85428 -1.04632 -0.788806 -5.77041 -2.24906 0.409054 0.0398343 0.332124 
26.982 1 257 15.8918 4.32098 4.10264 4.02104 0.444218 1.99765 0.065349 -0.201831 0.187033 0 0 0 0 0 0 -0.00875734 -0.0286883 -0.0278922 16.5782 1.18658 5.46808 4.2259 -0.869753 2.51943 0.0609238 -0.197904 0.180587 15.6093 6.96406 2.18521 3.81871 1.76147 1.47876 0.069753 -0.205756 0.193538 
26.982 1 19 18.1104 0.124759 2.231 0.956882 -4.98459 1.38535 0.109529 0.129782 0.136816 0 0 0 0 0 0 0.00189117 -0.222251 -0.0806334 22.3132 -3.70428 2.90512 2.34485 -6.68035 1.534 0.111718 0.144324 0.140811 14.0896 3.33184 0.949799 -0.433981 -3.274 1.24415 0.107305 0.115172 0.132844 
26.982 1 218 17.8334 2.24114 4.23933 0.222307 -1.84678 -0.314861 0.698393 -0.243084 -0.320365 0 0 0 0 0 0 0.00307842 -0.142389 -0.0558384 15.8556 -1.23383 5.03667 -0.340255 -2.48602 -0.170947 0.699619 -0.248113 -0.337674 20.0035 5.17969 2.90029 0.783881 -1.18872 -0.455133 0.69713 -0.238097 -0.303018 
26.982 1 18 18.1991 2.12432 0.293099 -2.32682 -2.56329 0.522357 -0.281194 0.409046 -0.282297 0 0 0 0 0 0 -0.0159822 -0.14204 -0.232978 19.3809 0.14781 2.00453 -1.83227 -2.97342 1.15143 -0.285119 0.428363 -0.28999 17.2041 3.55999 -2.08928 -2.82371 -2.1337 -0.0910978 -0.277269 0.389699 -0.274638 
26.982 1 59 18.0447 4.14828 2.19338 -3.67012 7.819 2.51929 -0.137942 0.22366 -0.0481514 0 0 0 0 0 0 -0.0204344 -0.0399075 -0.0966763 20.7565 2.31197 3.06206 -2.96816 7.79199 3.00805 -0.144706 0.225945 -0.0521165 15.5297 5.506 0.723457 -4.3707 7.86142 2.04168 -0.13118 0.221387 -0.0441381 
26.982 1 57 15.9041 4.46127 0.157612 -1.33418 -0.285944 1.59463 0.0564955 -0.25929 -0.057462 0 0 0 0 0 0 -0.0349934 -0.0540119 -0.259754 16.8635 5.13898 -2.95353 -1.06808 0.430039 1.18274 0.0528049 -0.278647 -0.0580238 15.3424 3.29473 2.61685 -1.59714 -0.989093 2.02476 0.0601796 -0.239953 -0.0569228 
26.982 1 24 20.3241 2.30454 2.27253 1.15661 -2.78887 -1.87144 -0.147361 -0.064736 -0.327262 0 0 0 0 0 0 -0.00108009 -0.166847 -0.0877581 18.9183 1.24351 2.74408 0.762358 -2.86805 -1.53655 -0.144204 -0.0633886 -0.338604 21.7232 2.83451 1.199 1.54837 -2.68884 -2.1949 -0.150513 -0.0661014 -0.315898 
26.982 1 63 22.3338 4.42207 2.19039 4.38785 -0.625207 1.84075 -0.148791 -0.809057 0.209169 0 0 0 0 0 0 0.0120332 -0.0569363 -0.0897153 23.4176 5.41288 0.968942 5.33907 -0.25895 1.72134 -0.155178 -0.837893 0.218802 21.0599 2.96359 2.82069 3.43454 -0.974203 1.97273 -0.142414 -0.780246 0.199564 
26.982 1 222 22.2309 2.16759 4.32202 2.26274 -1.00977 4.48487 0.43571 0.322556 -0.506129 0 0 0 0 0 0 0.00192198 -0.125793 -0.067604 20.9218 1.60011 4.72853 2.37344 -0.249465 4.90044 0.438214 0.329199 -0.531515 23.3485 2.19945 3.38051 2.15049 -1.75267 4.07843 0.433189 0.315905 -0.480709 
26.982 1 261 20.2177 4.24763 4.24857 -3.37003 3.83595 -2.04912 0.0797423 -0.108367 -0.247854 0 0 0 0 0 0 -0.000223469 -0.0490267 -0.0194424 18.4105 2.52742 5.825 -3.80177 4.31125 -1.22721 0.0797272 -0.114623 -0.260408 22.0234 5.49114 2.12834 -2.93972 3.3751 -2.86552 0.0797641 -0.10212 -0.235248 
26.982 1 23 22.5163 0.343831 2.23222 3.19445 1.50051 0.486266 -0.531426 -0.22221 0.129147 0 0 0 0 0 0 0.00238885 -0.243286 -0.0975415 20.3565 41.1869 3.27265 2.43054 2.80537 1.35812 -0.545331 -0.228539 0.123224 24.4935 40.1811 0.605347 3.95904 0.211489 -0.370761 -0.517513 -0.215953 0.135086 
26.982 1 61 19.9861 4.34627 0.179409 -0.910242 2.72085 -1.12485 0.669174 -0.439866 0.058353 0 0 0 0 0 0 0.00418587 -0.0393502 -0.265351 22.2431 -0.103995 -2.41344 -0.281941 1.86839 -2.14307 0.674895 -0.457986 0.059241 17.724 8.31144 2.10876 -1.54167 3.58678 -0.0895133 0.663471 -0.421764 0.0574374 
26.982 1 22 22.4632 2.39982 0.128232 -1.28206 1.59345 -1.022 -0.422902 -0.474329 0.39117 0 0 0 0 0 0 0.010262 -0.131057 -0.235553 25.1925 2.75809 -0.47463 -0.381052 2.24956 -1.11209 -0.433941 -0.48979 0.402815 19.5483 1.5062 0.0734745 -2.18251 0.957196 -0.91519 -0.411853 -0.458894 0.379485 
26.982 1 28 24.418 2.26014 2.21717 0.683442 -2.50748 -3.12312 0.211186 0.490336 0.0569417 0 0 0 0 0 0 0.0440508 -0.132412 -0.118777 23.6992 4.52241 2.82669 0.996914 -1.45412 -2.21469 0.209235 0.509215 0.0647749 24.767 -0.532884 1.00346 0.373177 -3.54241 -4.02331 0.213124 0.471445 0.0491238 
26.982 1 27 26.5559 0.409488 2.21277 5.2969 -4.6752 -4.2959 0.4743 -0.314656 0.0959082 0 0 0 0 0 0 -0.0108384 -0.188529 -0.161896 27.0221 1.60295 -1.01364 5.77761 -3.85323 -4.75248 0.486013 -0.320654 0.0974148 25.5205 -1.40254 4.82865 4.82197 -5.48388 -3.83189 0.4626 -0.30876 0.0943648 
26.982 1 67 26.698 4.29281 2.16219 6.31938 1.348 6.14965 -0.143958 0.102411 0.0582134 0 0 0 0 0 0 0.0470019 -0.0321202 -0.207333 28.5278 1.21656 2.49184 6.73921 1.08646 7.4491 -0.147676 0.100493 0.0692281 24.2931 6.87815 1.2388 5.90317 1.61733 4.86241 -0.140215 0.104351 0.0471875 
26.982 1 226 26.552 2.3542 4.31914 -5.4551 -1.39879 0.345015 0.25575 -0.361604 -0.408986 0 0 0 0 0 0 -0.0127245 -0.108884 -0.0911929 26.4996 2.44391 4.20905 -5.32305 -1.27498 1.2857 0.269019 -0.376514 -0.424461 26.0374 1.73419 3.88159 -5.58028 -1.50062 -0.588552 0.242476 -0.346718 -0.393508 
26.982 1 265 24.4809 4.2698 4.23517 -5.76423 3.21338 1.64074 -0.163498 -0.0252393 -0.154149 0 0 0 0 0 0 0.0134037 -0.0378588 -0.0411273 25.623 0.708164 3.76979 -5.23626 2.04283 2.38302 -0.160046 -0.0280113 -0.161781 22.9571 7.35038 4.15464 -6.29241 4.39526 0.903831 -0.166971 -0.0224725 -0.146465 
26.982 1 65 24.4967 4.23063 0.109422 -5.34543 5.46541 -1.60141 0.334615 -0.0848588 0.16302 0 0 0 0 0 0 0.100134 -0.036612 -0.254293 24.9062 7.22429 3.25008 -5.66047 6.89226 0.0767805 0.347024 -0.0948525 0.181602 23.7058 0.74612 -3.67559 -5.03001 4.05162 -3.26018 0.322227 -0.0748492 0.144387 
26.982 1 32 28.7542 2.32028 2.11338 -5.92155 -4.61337 -0.970324 0.0118204 0.00922738 0.346041 0 0 0 0 0 0 0.00274939 -0.0602953 -0.243184 26.7079 2.57169 2.90473 -6.58606 -4.60924 0.336655 0.00381682 0.0172333 0.36019 30.0172 1.53039 0.724474 -5.25489 -4.60204 -2.26635 0.0198939 0.00120113 0.331868 
26.982 1 71 31.1116 4.4803 2.21378 0.864089 -0.967494 1.26178 -0.523116 -0.834229 -0.280185 0 0 0 0 0 0 -0.00787849 -0.0347736 -0.259315 31.3554 5.0842 1.975 0.917437 -0.536379 1.3526 -0.531332 -0.864037 -0.275226 29.8832 3.37427 1.87383 0.807192 -1.39113 1.19034 -0.514832 -0.804393 -0.285153 
26.982 1 230 30.8529 2.40555 4.13795 -1.76054 3.60987 1.38319 -0.190809 -0.175237 0.270027 0 0 0 0 0 0 -0.01944 -0.0626577 -0.0798532 27.7394 0.0833943 4.30917 -2.83763 3.49418 2.4272 -0.207513 -0.184781 0.294107 32.9881 4.19054 3.45015 -0.684936 3.7434 0.35507 -0.174032 -0.165702 0.245916 
26.982 1 269 28.6975 4.27699 4.31132 -0.418259 -0.563706 -3.67401 0.13932 -0.360857 -0.56741 0 0 0 0 0 0 -0.00418288 -0.0335154 -0.0991701 27.4319 7.54518 8.26813 -0.674885 0.670529 -2.38858 0.133602 -0.380221 -0.600057 29.1938 0.514127 -0.176229 -0.155927 -1.78695 -4.9478 0.145105 -0.341441 -0.534765 
26.982 1 273 33.0228 4.25109 4.23024 1.38995 -1.32429 1.85404 0.141174 -0.0159467 0.201979 0 0 0 0 0 0 0.0008956 0.00024837 -0.0588865 36.3292 3.62305 3.90484 2.32661 -0.277375 1.94935 0.149534 -0.0147142 0.222061 28.5297 4.37017 4.02824 0.445352 -2.36488 1.77171 0.132796 -0.0171702 0.181854 
26.982 1 229 28.9083 0.246028 4.20876 4.95397 -3.13041 -3.30901 -0.489809 0.394083 0.0562173 0 0 0 0 0 0 -0.0268924 -0.161449 -0.141345 27.9856 35.781 7.45422 4.96687 -4.20639 -1.70351 -0.499193 0.409021 0.0697084 29.0558 45.4 0.441428 4.94476 -2.03746 -4.90378 -0.480365 0.379092 0.0426866 
26.982 1 31 30.9231 0.213403 2.22463 -0.913086 -4.2943 2.13764 -0.278973 0.0630416 -0.0886896 0 0 0 0 0 0 -0.0221698 -0.182189 -0.205125 30.6089 36.1938 0.817625 -0.656965 -6.20405 2.26072 -0.298421 0.0725279 -0.0798661 30.2487 44.9324 3.04882 -1.17404 -2.36145 2.03085 -0.259429 0.0534842 -0.0975676 
26.982 1 36 32.8719 2.18322 2.22396 5.31635 -5.54992 -0.266247 0.259735 0.679491 -0.0221157 0 0 0 0 0 0 -0.0510243 -0.0428131 -0.222156 32.3744 2.30502 0.919516 5.35901 -5.87356 -0.63936 0.250835 0.711019 -0.00712736 32.196 1.5165 2.95545 5.26833 -5.21226 0.126315 0.268668 0.647909 -0.0371267 
26.982 1 35 34.857 0.413818 2.17448 -1.03562 -0.218696 2.27868 0.652563 -0.814101 0.506134 0 0 0 0 0 0 -0.0047777 -0.239022 -0.164805 33.3383 1.79013 1.53451 -1.38333 0.172549 2.41396 0.657991 -0.842419 0.52777 35.0271 -1.57758 2.23501 -0.68943 -0.592314 2.15971 0.647105 -0.785804 0.48447 
26.982 1 75 35.133 4.12446 2.15686 -1.45747 -0.584848 0.11676 -0.018767 0.617954 0.839034 0 0 0 0 0 0 -0.0565474 0.0472187 -0.169922 37.613 2.58287 2.45863 -0.613957 -0.528437 1.1942 -0.0178205 0.656853 0.870211 31.2747 5.14276 1.26698 -2.30939 -0.640168 -0.945068 -0.0197547 0.579024 0.807864 
26.982 1 234 35.0576 2.17646 4.36692 -1.99679 -3.53846 -3.57835 0.114429 0.168007 -0.332773 0 0 0 0 0 0 -0.00727171 -0.0476666 -0.0639363 37.5524 1.14878 5.58351 -1.12909 -3.57497 -3.17481 0.108223 0.185282 -0.327813 31.188 2.635 2.63765 -2.8732 -3.49184 -3.96255 0.120629 0.150683 -0.33782 
26.982 1 34 35.1839 2.29541 0.352807 0.738057 0.491374 -4.0536 -0.113905 -0.315946 -0.892166 0 0 0 0 0 0 -0.0507142 -0.0674812 -0.276754 36.3517 8.06943 43.4493 1.02022 2.63711 -3.27876 -0.114536 -0.3151 -0.920691 32.659 -4.05419 37.8774 0.452509 -1.64939 -4.81951 -0.113294 -0.316869 -0.863601 
26.982 1 233 32.8661 0.405821 4.24847 -0.122193 1.38978 -2.92956 0.286069 -0.325722 0.232758 0 0 0 0 0 0 -0.0115399 -0.181988 -0.107573 32.2622 38.8671 1.22924 -0.128468 0.926669 -4.18763 0.283909 -0.334965 0.263817 32.3099 42.6342 6.76646 -0.116226 1.87196 -1.65226 0.288256 -0.316506 0.201596 
26.982 1 237 37.0999 0.144663 4.17633 0.0576251 0.0624668 4.18469 0.072828 -0.028032 0.59809 0 0 0 0 0 0 0.0521733 -0.201282 -0.150211 36.7885 1.19273 6.41727 0.538842 1.05075 5.54529 0.0605717 -0.031089 0.618256 35.8443 -1.53925 1.41255 -0.432281 -0.917482 2.83962 0.0850737 -0.0249455 0.577872 
26.982 1 277 37.271 4.0463 4.16011 0.313145 -0.799755 -2.95555 -0.120363 0.547474 0.178249 0 0 0 0 0 0 -0.00256064 0.00293594 -0.0347295 36.577 4.62221 2.20891 0.500437 -0.281924 -3.93063 -0.124713 0.582824 0.191736 36.395 2.9513 5.58967 0.117554 -1.31335 -1.96468 -0.116031 0.512057 0.164724 
26.982 1 77 37.3919 4.16468 0.342999 -2.87234 -2.26678 0.149552 -0.278603 0.235192 -0.170032 0 0 0 0 0 0 -0.0537801 0.00236508 -0.269136 38.792 6.325 40.8758 -2.83162 -2.25222 -0.212635 -0.27735 0.258377 -0.187311 34.4279 1.49446 40.4312 -2.91771 -2.27485 0.518925 -0.279875 0.211936 -0.152723 
26.982 1 241 41.5798 4.15362 4.33852 -0.149127 -7.49814 1.85262 -0.177065 0.411792 -0.187317 0 0 0 0 0 0 -0.0122326 -0.0148177 -0.0158323 -2.64158 4.55073 3.94784 -0.770971 -7.47376 2.07326 -0.184785 0.445566 -0.185826 2.53439 3.24558 4.21589 0.476952 -7.5113 1.64889 -0.169344 0.377933 -0.18886 
26.982 1 4 41.5568 2.27927 2.26953 -2.32438 4.43934 -0.984041 -0.108773 -0.114568 -0.124165 0 0 0 0 0 0 -0.0407134 -0.200215 -0.0958772 37.0778 2.67736 2.41342 -3.59758 4.49997 -0.492677 -0.112147 -0.117475 -0.124955 44.0969 1.30109 1.52792 -1.04912 4.38893 -1.46618 -0.105409 -0.111712 -0.123407 
26.982 1 40 37.1061 2.00532 2.32596 -0.702682 -1.15829 -1.33137 0.256759 0.681598 -0.20099 0 0 0 0 0 0 0.048448 -0.148379 -0.153758 38.6552 5.35745 2.69746 0.0135756 -0.463252 -0.902724 0.256643 0.706308 -0.208465 33.9924 -1.93982 1.36758 -1.42754 -1.84942 -1.74555 0.256861 0.656828 -0.193545 
26.982 1 79 39.3568 4.03804 2.16069 3.86769 0.777846 -1.57907 0.247678 0.494671 0.559522 0 0 0 0 0 0 -0.00202194 -0.0459493 -0.0913352 37.5013 6.65756 0.417891 3.23412 2.19006 -2.48689 0.247415 0.525365 0.581042 39.46 0.909893 3.31377 4.49736 -0.624774 -0.655009 0.247955 0.4639 0.538007 
26.982 1 238 39.3782 2.12035 4.25756 -1.39514 -4.78412 -0.300882 0.109888 0.382878 0.0756446 0 0 0 0 0 0 0.0420998 -0.146383 -0.0915184 40.8302 3.81106 4.19682 -0.488876 -4.9949 -0.497459 0.116006 0.403341 0.0855708 36.1686 -0.141727 3.79754 -2.30745 -4.56074 -0.0885613 0.103779 0.362365 0.0656724 
26.982 1 38 39.427 2.17724 0.218069 0.316598 1.23722 -4.39118 0.245537 -0.243316 0.129684 0 0 0 0 0 0 0.00260056 -0.169182 -0.20769 38.5201 4.32106 43.4324 0.379601 2.49555 -3.26008 0.252439 -0.246124 0.122814 38.5843 -0.549475 37.6189 0.250578 -0.0117889 -5.51723 0.238656 -0.240587 0.136583 
26.982 1 83 1.02479 8.16267 2.20115 0.51049 4.13723 -0.348684 0.362576 0.0214989 0.473394 0 0 0 0 0 0 -0.0805214 -0.0443019 -0.0701866 0.141385 12.061 3.05476 0.328336 5.8417 0.337409 0.376404 0.0312115 0.502293 3.67789 3.86984 0.728862 0.701195 2.4366 -1.02884 0.34876 0.0118138 0.444493 
26.982 1 242 1.15639 6.08405 4.37692 -5.75846 -5.71744 4.47731 -0.411605 0.511534 -0.0643848 0 0 0 0 0 0 -0.126539 -0.0137268 -0.051799 -0.586814 5.89243 6.36415 -6.37393 -5.50789 5.89527 -0.418618 0.544692 -0.0606546 4.66908 5.84055 1.861 -5.13326 -5.9168 3.07328 -0.404565 0.478333 -0.0681548 
26.982 1 281 -1.05932 8.23982 4.06416 -5.4689 -5.91543 3.30915 0.136393 0.0660371 0.744883 0 0 0 0 0 0 -0.115833 -0.132084 -0.0894481 42.2473 11.7986 4.61254 -5.09645 -4.34806 4.09006 0.148925 0.0583398 0.777282 38.9192 4.30982 2.98834 -5.8405 -7.47407 2.53865 0.123834 0.0737757 0.712467 
26.982 1 285 3.2592 8.1933 4.34156 -2.76985 2.23245 2.68489 -0.243577 0.101463 0.128335 0 0 0 0 0 0 -0.0278468 -0.00328809 -0.00321683 -1.10841 8.51585 2.48214 -4.03687 2.66339 2.64346 -0.260006 0.106165 0.133839 9.20839 7.4833 5.66154 -1.49064 1.80336 2.73333 -0.227081 0.0968119 0.122846 
26.982 1 42 1.05522 6.23188 0.302589 -3.47297 -0.402744 -0.846234 0.272929 0.0506955 -0.207855 0 0 0 0 0 0 -0.0904257 -0.0023285 -0.208817 0.148958 5.36928 1.66503 -3.9618 -0.112578 -0.368995 0.282788 0.0699645 -0.213741 3.73684 6.65965 -1.7387 -2.97276 -0.681523 -1.31595 0.263074 0.0313521 -0.201964 
26.982 1 81 -1.24288 8.37754 0.252444 -0.50853 -2.46076 -4.5538 0.492283 -0.60958 -0.00661029 0 0 0 0 0 0 -0.118758 -0.102374 -0.167355 -2.81676 6.27656 2.26807 -1.23487 -3.09289 -4.87974 0.488711 -0.631356 -0.0127927 2.29225 10.106 -2.44465 0.222144 -1.81676 -4.22211 0.495836 -0.587809 -0.000387669 
26.982 1 48 3.27279 6.1589 2.26839 -0.167956 -3.28979 4.52011 -0.43251 0.308666 0.139043 0 0 0 0 0 0 -0.0301803 0.00123721 -0.0802879 -0.566642 5.54813 0.988881 -1.17301 -2.86124 4.82282 -0.439991 0.327003 0.13967 8.6879 6.33597 2.93877 0.847122 -3.71 4.22712 -0.42502 0.290299 0.13838 
26.982 1 46 5.23615 6.10622 0.24436 0.434863 0.635837 -0.895544 0.298997 0.687248 0.0439918 0 0 0 0 0 0 0.0460113 -0.0288386 -0.272473 3.89807 3.32565 3.9567 -0.117811 -0.617479 0.325826 0.308377 0.710405 0.0347054 7.93024 8.46081 -4.12091 0.98845 1.90285 -2.09778 0.289589 0.664083 0.0532748 
26.982 1 87 5.24118 8.15759 2.34636 5.91937 4.36826 -0.151068 0.556119 -0.138611 -0.154604 0 0 0 0 0 0 0.00490318 -0.00576254 -0.0908838 4.13906 9.64844 5.04523 5.39303 5.48839 0.75301 0.556554 -0.138491 -0.161286 7.71465 6.28545 -0.960278 6.45149 3.25466 -1.04584 0.555719 -0.138665 -0.147911 
26.982 1 246 5.34253 6.25221 4.37491 -3.21177 -3.11733 0.560428 -0.0467236 -0.149389 0.191766 0 0 0 0 0 0 0.000356209 -0.0122876 -0.0113261 7.19175 6.06714 2.95068 -2.76555 -2.41568 1.3462 -0.0505417 -0.1575 0.189105 4.85815 6.00497 5.25246 -3.65335 -3.80821 -0.218276 -0.0428895 -0.141268 0.194455 
26.982 1 85 3.30252 8.27926 0.341604 -1.68387 -0.874969 3.71285 -0.526156 -0.211723 -0.0124435 0 0 0 0 0 0 -0.0133412 -0.00513072 -0.264375 -0.597704 10.2201 3.97186 -2.87553 -0.21606 5.70626 -0.533668 -0.229255 -0.018222 8.77032 5.95872 -3.96118 -0.485335 -1.52343 1.7297 -0.518617 -0.194208 -0.00664082 
26.982 1 52 7.53348 6.19921 2.42199 -4.29984 -3.70021 0.259487 -0.146408 -0.16261 -0.417668 0 0 0 0 0 0 -0.00537249 -0.0412992 -0.124546 8.27536 6.19642 5.51803 -4.08494 -3.64716 1.00376 -0.145914 -0.158697 -0.435039 7.93949 5.77794 -1.27667 -4.5196 -3.74151 -0.470758 -0.146919 -0.166448 -0.400278 
26.982 1 289 7.54607 8.15952 4.25533 -1.12729 0.914229 1.40262 -0.37928 0.181025 0.242689 0 0 0 0 0 0 -0.00486071 -0.00392684 -0.00478534 9.97945 6.54442 5.18169 -0.374078 1.26408 2.23559 -0.383805 0.18049 0.248177 6.26888 9.39966 2.78118 -1.88309 0.570273 0.571954 -0.374746 0.181649 0.23722 
26.982 1 56 11.6625 6.27605 2.13077 3.55513 -0.0778623 7.21573 0.0548319 0.0890595 0.390449 0 0 0 0 0 0 0.00644022 -0.00832147 -0.101099 13.2875 6.49771 4.604 4.09724 -0.0564995 8.08876 0.0503304 0.0801688 0.395234 10.8238 5.63165 -0.949778 3.01399 -0.0896754 6.35335 0.0593376 0.0980359 0.385707 
26.982 1 91 9.69379 8.45562 2.31253 0.187182 5.14249 -3.295 -0.147946 -1.0009 -0.295133 0 0 0 0 0 0 0.0117609 -0.0292582 -0.109247 10.7247 7.93258 3.42965 0.31399 4.49448 -2.96336 -0.146371 -1.0391 -0.31125 9.62324 8.61259 0.59743 0.0538647 5.79602 -3.61523 -0.149501 -0.962594 -0.279001 
26.982 1 250 9.59499 6.16348 4.4378 -1.5368 3.67465 -6.82347 0.253329 0.512466 -0.28037 0 0 0 0 0 0 0.00154119 0.00358737 -0.0191133 9.86884 6.16437 11.0542 -1.74931 4.36422 -5.09109 0.260823 0.525029 -0.291239 10.2737 5.75213 -2.74382 -1.33102 3.00226 -8.55523 0.245838 0.499996 -0.269489 
26.982 1 50 9.47026 6.27199 0.429217 3.60021 -2.01679 1.60383 0.212144 -0.0979749 -0.592756 0 0 0 0 0 0 -0.0375843 -0.0353671 -0.272352 11.4764 7.61339 -0.507237 4.06281 -0.972292 1.95003 0.202688 -0.0949447 -0.613645 8.42712 4.50304 0.714632 3.13341 -3.05009 1.27503 0.221598 -0.100946 -0.571907 
26.982 1 290 9.5386 10.1118 4.28006 -5.31857 -2.64964 -5.66927 0.164027 1.01996 0.526842 0 0 0 0 0 0 0.00970839 0.0313075 0.000334642 8.68931 11.8163 9.76502 -5.77537 -1.68128 -3.43968 0.165963 1.04667 0.54589 11.3471 8.09409 -1.73744 -4.86784 -3.61256 -7.88935 0.16208 0.993329 0.507765 
26.982 1 89 7.43707 8.12407 0.409107 -3.15404 4.89031 0.633518 -0.146821 0.071085 -0.254794 0 0 0 0 0 0 -0.00816348 -0.0187126 -0.273498 8.19459 8.73215 0.942559 -3.05197 5.33872 0.936331 -0.152265 0.0617325 -0.27102 7.83087 7.13939 -0.77244 -3.26054 4.44764 0.349046 -0.141371 0.0805356 -0.238537 
26.982 1 293 11.7606 8.26765 4.20171 2.4494 3.85232 2.30726 -0.235973 -0.391932 0.381451 0 0 0 0 0 0 0.00577037 -0.0137892 -0.00891917 10.7817 7.28943 10.0631 2.49007 4.60264 4.10259 -0.240093 -0.417765 0.398324 13.5162 8.87126 -2.20465 2.40645 3.10542 0.515405 -0.231857 -0.366043 0.364572 
26.982 1 95 13.865 8.27192 2.36453 -5.383 -0.520051 -5.89379 0.181068 0.189369 -0.412217 0 0 0 0 0 0 0.0530669 0.0493169 -0.179952 15.4693 9.37236 -0.644083 -5.18545 -0.0711859 -6.3073 0.196238 0.177562 -0.425502 12.8474 6.78994 4.77886 -5.58149 -0.96625 -5.46921 0.16587 0.201239 -0.398909 
26.982 1 254 13.7924 6.25565 4.17022 0.276546 -1.08746 -0.179671 0.205421 0.0764748 0.357948 0 0 0 0 0 0 0.00832766 -0.00122365 -0.014842 12.9161 6.14392 8.43723 -0.00987255 -0.397358 1.22658 0.208469 0.0708412 0.364007 15.2673 5.9516 -0.652012 0.564925 -1.76578 -1.58473 0.202368 0.0821542 0.35193 
26.982 1 60 15.8825 6.32701 2.13609 -3.62772 0.488751 1.5719 0.163487 -0.0561748 0.154188 0 0 0 0 0 0 -0.00451801 0.0336906 -0.14489 18.2911 8.65118 -0.483776 -2.92352 1.52084 1.27226 0.16353 -0.0775788 0.152099 13.8662 3.56532 4.15732 -4.3303 -0.538727 1.88254 0.163425 -0.0347439 0.156332 
26.982 1 93 11.7565 8.41778 0.395786 -1.06441 -1.16369 -0.567439 -0.289904 -0.0876435 -0.344616 0 0 0 0 0 0 0.0548004 0.0634206 -0.279189 11.479 8.01055 38.3038 -1.11376 -2.03197 -0.500513 -0.294872 -0.10549 -0.357271 12.8158 8.46404 43.1371 -1.01598 -0.283368 -0.614776 -0.284936 -0.0696964 -0.33197 
26.982 1 54 13.6247 6.41942 0.0302236 -0.190274 2.78389 5.58811 0.480729 -0.45195 0.495232 0 0 0 0 0 0 0.053084 0.0368841 -0.265204 11.8689 8.35045 -3.27732 -0.428778 3.80119 4.82505 0.482756 -0.471408 0.516175 15.9705 4.056 2.66355 0.0504701 1.77517 6.36204 0.478659 -0.432425 0.474286 
26.982 1 297 16.0664 8.34696 4.21361 -8.16967 0.11444 1.05992 -0.3972 -0.2221 -0.176053 0 0 0 0 0 0 -0.00160567 -0.00747653 -0.0598348 17.9303 10.3641 0.587874 -7.68547 1.82269 0.433713 -0.396726 -0.245347 -0.185039 14.602 5.95154 7.29901 -8.65071 -1.58589 1.6934 -0.397686 -0.198831 -0.167049 
26.982 1 99 18.0536 8.30905 2.19276 0.271617 -2.02926 -0.180019 -0.0884126 -0.133614 0.114993 0 0 0 0 0 0 -0.0445715 0.0343387 -0.167572 16.6277 10.9904 -0.841572 0.233344 -1.63326 -0.842557 -0.0954687 -0.156653 0.117515 19.6808 5.22728 4.63073 0.314967 -2.43119 0.493187 -0.0813672 -0.11056 0.112512 
26.982 1 258 18.1028 6.13966 4.21648 -0.191225 8.40894 -0.323711 -0.149024 0.430484 -0.186604 0 0 0 0 0 0 -0.00532387 0.0107205 -0.0189577 17.557 8.93539 5.09692 -0.580813 9.67237 -0.313439 -0.151515 0.437269 -0.192234 18.85 2.9128 2.79433 0.200826 7.15344 -0.329664 -0.146545 0.42373 -0.180944 
26.982 1 298 18.1354 10.2696 4.2946 3.23013 -0.112288 1.79146 0.0350803 -0.0465149 -0.504621 0 0 0 0 0 0 -0.0019268 -0.0108703 -0.066088 17.8748 11.2048 -1.69526 3.33828 0.397663 -0.609704 0.0430644 -0.0577284 -0.523982 18.5973 9.01439 9.75919 3.12649 -0.618305 4.20354 0.0270826 -0.035285 -0.485264 
26.982 1 58 18.1519 6.36937 0.133119 0.634997 5.55743 -2.56677 -0.387241 -0.19751 0.175029 0 0 0 0 0 0 -0.0466645 0.0587475 -0.265086 13.2238 11.9963 2.45031 -0.864242 8.20913 -1.32396 -0.389525 -0.208423 0.183755 23.2735 0.308724 -2.84836 2.13533 2.91034 -3.7991 -0.384942 -0.186571 0.166328 
26.982 1 301 20.1397 8.26912 4.228 0.310694 1.15261 5.70926 0.09019 -0.200558 -0.0989456 0 0 0 0 0 0 -0.00497827 -0.00874994 -0.0276968 18.3017 6.71119 4.59402 -0.225593 1.00077 5.61026 0.0892799 -0.219626 -0.099188 21.9772 9.43944 3.33333 0.847157 1.30537 5.81888 0.0910694 -0.181483 -0.0986819 
26.982 1 101 20.2195 8.31997 0.337566 -2.47043 -0.102677 5.18985 0.230866 -0.48961 -0.396696 0 0 0 0 0 0 -0.00706956 0.062973 -0.267366 17.5649 10.3675 40.7573 -3.00832 0.954835 6.00727 0.235405 -0.50633 -0.402466 22.8744 5.88701 40.5371 -1.93371 -1.16023 4.37878 0.226348 -0.472877 -0.390904 
26.982 1 64 20.0453 6.18856 2.26172 1.25238 -0.402924 -3.45446 0.455701 0.301083 -0.0966727 0 0 0 0 0 0 -8.41169e-06 0.0203162 -0.0958706 19.1238 6.15519 0.414657 1.25854 -0.406931 -3.96941 0.46081 0.308295 -0.101413 20.9692 5.78704 3.51015 1.2463 -0.392607 -2.9308 0.450586 0.293912 -0.091921 
26.982 1 103 22.4024 8.26285 2.20246 -0.92575 -1.19108 -1.11267 -0.197669 -0.167278 -0.0536695 0 0 0 0 0 0 0.00518162 0.0392717 -0.143563 20.3608 12.0042 3.39371 -1.31819 0.183888 -0.638454 -0.200471 -0.176575 -0.0465164 24.245 4.13475 0.424525 -0.537944 -2.56182 -1.57221 -0.194898 -0.157959 -0.0608301 