ITEM: TIMESTEP
1550
ITEM: NUMBER OF ATOMS
4000
ITEM: BOX BOUNDS pp pp pp
-0.389221 40.8892
0.0419582 40.458
0.0393423 40.4607
ITEM: ATOMS mass type id x y z vx vy vz fx fy fz xrad yrad zrad vxrad vyrad vzrad fxrad fyrad fzrad xub yub zub vxub vyub vzub fxub fyub fzub xlb ylb zlb vxlb vylb vzlb fxlb fylb fzlb 
26.982 1 811 10.0404 0.122179 18.2632 -0.787899 3.82385 -2.7579 -0.858605 -0.0098218 -0.223365 0 0 0 0 0 0 -0.0734073 -0.256461 -0.018473 10.4085 40.8173 18.6743 -0.810173 4.33828 -2.52639 -0.87979 -0.0116233 -0.215776 9.97878 40.4933 17.8352 -0.7649 3.31173 -2.98271 -0.837392 -0.00800734 -0.230993 
26.982 1 3 1.75573 -0.01132 1.99462 1.1653 6.04299 1.13242 0.351167 0.104556 0.128862 0 0 0 0 0 0 -0.092974 -0.138359 -0.10142 1.80862 -0.439266 1.80445 1.27082 6.19836 1.05413 0.358773 0.100551 0.123288 2.25043 0.183621 1.98597 1.05909 5.88676 1.21263 0.343589 0.108588 0.134483 
26.982 1 8 3.96962 2.04011 2.0728 1.21185 7.1359 0.826363 -0.526213 0.153492 -0.250291 0 0 0 0 0 0 -0.00194962 -0.163472 -0.143144 4.04406 2.36992 2.02213 0.936673 7.96281 0.797489 -0.529994 0.148719 -0.269527 4.38469 1.50354 1.92318 1.48711 6.31065 0.855536 -0.522413 0.158274 -0.231004 
26.982 1 807 5.74393 0.13645 18.2252 1.40047 -2.4289 -7.32932 0.523833 -0.336447 0.274871 0 0 0 0 0 0 -0.00834559 -0.268081 0.0209434 5.9852 40.5578 18.1198 1.29395 -2.42459 -7.63629 0.537962 -0.349934 0.290024 5.93077 40.7837 18.312 1.50795 -2.42853 -7.01678 0.50968 -0.32288 0.259657 
26.982 1 43 1.73245 3.99628 2.04229 0.990293 2.43241 -2.95625 -0.0915975 -0.185068 0.364364 0 0 0 0 0 0 -0.127875 -0.0671783 -0.216649 1.19552 3.8718 2.06729 0.105845 2.42601 -2.78979 -0.0960245 -0.190087 0.35938 2.82179 3.93429 1.81735 1.87738 2.4395 -3.12114 -0.0871522 -0.180048 0.369427 
26.982 1 202 1.79719 1.9262 4.08145 -7.22367 4.43576 -3.63714 -0.0709634 0.196215 -0.057437 0 0 0 0 0 0 -0.0763701 -0.131476 -0.133172 1.86611 1.79725 4.19482 -7.64009 4.53368 -3.3658 -0.0694722 0.205404 -0.0618098 2.27807 1.84542 3.7932 -6.80633 4.3387 -3.90474 -0.0724165 0.187076 -0.0530332 
26.982 1 241 -0.278715 3.93524 4.083 -1.71104 -3.54047 -0.322054 -0.18434 -0.13749 -0.243542 0 0 0 0 0 0 -0.118283 -0.133016 -0.170535 -0.552804 4.31184 3.96301 -2.373 -3.46466 -0.398135 -0.193295 -0.148016 -0.253307 0.60702 3.36948 4.02914 -1.04897 -3.61672 -0.238168 -0.17531 -0.126956 -0.233758 
26.982 1 245 3.77063 3.99253 4.16445 1.24328 -1.0879 0.0175942 -0.182576 0.0859973 -0.332333 0 0 0 0 0 0 -0.0202439 -0.0330294 -0.0590879 3.95883 3.75906 4.19331 1.11084 -1.22444 0.155739 -0.184021 0.10028 -0.340347 4.07304 4.04255 3.95861 1.37744 -0.946603 -0.116443 -0.181172 0.0716668 -0.324307 
26.982 1 2825 24.2405 20.1574 16.3325 -0.730816 1.93731 1.84486 0.19296 0.240822 -0.212316 0 0 0 0 0 0 -0.0404951 0.142124 -0.110371 24.9599 20.5289 16.0853 -0.171089 2.15397 1.51084 0.194322 0.253242 -0.210796 23.3975 19.7908 16.534 -1.29037 1.72665 2.17775 0.191637 0.228404 -0.213821 
26.982 1 2819 18.2461 20.3871 18.1613 -2.16831 -1.07745 -1.62725 0.153809 -0.0686252 0.299142 0 0 0 0 0 0 -0.122836 0.110032 -0.0853484 17.5578 20.2036 18.917 -2.71954 -1.59798 -0.271188 0.155924 -0.0731234 0.309752 18.9948 20.5744 17.3816 -1.61681 -0.551713 -2.98463 0.151739 -0.0640992 0.288534 
26.982 1 12 8.01571 2.12904 2.04185 -4.23943 1.1838 -2.06809 -0.377395 -0.145389 -0.119012 0 0 0 0 0 0 -0.0359524 -0.181522 -0.153883 7.78982 1.91168 1.91679 -4.81829 1.20075 -2.14167 -0.3841 -0.146783 -0.121875 8.60735 2.13791 1.96793 -3.66168 1.16805 -1.99143 -0.3707 -0.144019 -0.116178 
26.982 1 47 5.9338 4.14559 2.20037 -0.0760104 -0.607932 7.68491 0.00716199 -0.308749 -0.52917 0 0 0 0 0 0 -0.00824736 -0.0588839 -0.146061 5.63701 4.04673 1.77411 -0.13784 -0.427883 7.69037 0.00634895 -0.307388 -0.537503 6.65808 4.06307 2.42665 -0.0142997 -0.781905 7.68036 0.00797584 -0.310159 -0.520837 
26.982 1 49 7.80071 4.05574 -0.0574909 0.659481 -2.23347 0.204376 0.202518 0.293382 0.380867 0 0 0 0 0 0 -0.0122077 -0.0128855 -0.259508 8.09398 3.99495 0.0178986 0.776912 -2.47715 0.261495 0.198024 0.295853 0.398858 7.87238 3.93497 -0.3548 0.539788 -1.98361 0.149701 0.207025 0.290882 0.36291 
26.982 1 206 5.94684 2.06637 4.04116 -5.53647 2.35025 -1.58162 0.0529437 0.27152 -0.10232 0 0 0 0 0 0 -0.0175973 -0.138681 -0.100656 6.33347 2.51268 4.44704 -5.3577 3.02083 -0.971039 0.0658685 0.271758 -0.105795 5.98825 1.41321 3.45729 -5.71499 1.68103 -2.18951 0.0399838 0.271279 -0.0988861 
26.982 1 209 7.93634 0.0374097 3.99131 6.7745 1.2022 -1.5724 -0.0456874 0.162944 0.0119887 0 0 0 0 0 0 -0.000186498 -0.190059 -0.186152 8.29741 0.010585 3.42031 7.06889 1.55499 -1.73768 -0.0464593 0.159088 0.0132607 7.94279 -0.16745 4.38364 6.48126 0.848352 -1.40419 -0.0449204 0.166812 0.0106596 
26.982 1 249 7.90591 4.08557 4.06234 -1.38306 0.334549 0.387065 0.138127 0.213213 0.15829 0 0 0 0 0 0 0.00534715 -0.0189352 -0.0283912 8.36886 3.77467 3.91018 -1.22809 -0.0999726 0.186214 0.144237 0.223141 0.169365 7.80693 4.21226 4.03658 -1.53955 0.773097 0.589886 0.131976 0.203235 0.147118 
26.982 1 10 9.93694 2.19085 0.0850157 4.30771 0.206729 -3.59195 0.147396 -0.506819 -0.530751 0 0 0 0 0 0 -0.0302042 -0.133794 -0.21638 10.4498 1.79693 -0.0549769 4.52043 -0.0216839 -3.68294 0.151028 -0.509412 -0.545636 9.73 2.3778 0.00338032 4.09529 0.438059 -3.4956 0.143702 -0.504265 -0.515869 
26.982 1 16 12.0478 1.98819 1.94662 3.98076 -0.844177 -0.937774 -0.132263 0.279355 0.409278 0 0 0 0 0 0 0.0436883 -0.183257 -0.0781564 12.6736 2.26851 1.38526 4.34909 -0.277004 -1.40844 -0.122651 0.283571 0.425226 11.6662 1.49878 2.30692 3.61366 -1.40866 -0.463314 -0.141997 0.275095 0.393275 
26.982 1 51 9.89165 4.15357 1.90279 2.58252 6.04712 -5.61149 -0.0110766 0.218685 0.417923 0 0 0 0 0 0 0.00116727 0.00644768 -0.137138 9.77083 4.17361 1.68659 1.8286 5.96924 -6.02004 -0.0064627 0.22312 0.437014 10.3162 3.95063 1.91639 3.33547 6.13047 -5.2015 -0.0157519 0.214234 0.39878 
26.982 1 53 11.8771 4.09978 -0.103733 -0.0465391 2.14015 -2.47984 0.159139 0.0681422 0.297082 0 0 0 0 0 0 0.00389077 0.00116881 -0.254001 12.3164 4.07061 -0.594228 -0.146464 2.38682 -2.93345 0.161006 0.0657927 0.30577 11.6827 3.94554 0.163413 0.0552659 1.89851 -2.02285 0.157172 0.0704976 0.288396 
26.982 1 210 10.0093 2.05241 3.95958 -0.0677005 -2.119 0.321416 0.0724039 0.227663 -0.068053 0 0 0 0 0 0 0.0440217 -0.14238 -0.0870976 10.2222 2.20606 3.8219 -0.447636 -1.73976 0.738524 0.0813281 0.23592 -0.061625 10.0997 1.68843 3.91899 0.311478 -2.49916 -0.0924903 0.0634058 0.219363 -0.0745683 
26.982 1 1197 36.7587 16.216 20.3117 -1.26783 4.31221 -2.8119 -0.338538 -0.210475 -0.37201 0 0 0 0 0 0 -0.103792 -0.0712481 0.024643 36.8377 15.7108 20.3445 -1.01019 3.94375 -2.28895 -0.345015 -0.221155 -0.380887 36.187 16.6729 20.2786 -1.53287 4.6797 -3.33391 -0.332097 -0.199729 -0.363099 
26.982 1 253 11.8793 4.39315 3.90295 -1.25046 -1.56899 2.54854 0.523235 -1.04648 0.0488388 0 0 0 0 0 0 0.0161396 -0.0661118 -0.0353946 12.1398 4.71269 4.53869 -1.40552 -1.46603 3.44959 0.53634 -1.08203 0.0616817 11.8626 3.89184 3.08711 -1.09383 -1.66571 1.64913 0.510082 -1.01094 0.0359614 
26.982 1 20 16.1915 2.15523 2.11038 1.437 1.092 -0.611069 -0.149666 -0.419053 -0.186638 0 0 0 0 0 0 -0.0402633 -0.194859 -0.0901921 16.2883 1.38268 2.30588 1.67856 0.249847 -0.0585514 -0.157951 -0.42909 -0.195201 16.2182 2.72355 1.71257 1.19725 1.94003 -1.16145 -0.141376 -0.409018 -0.178109 
26.982 1 55 14.0026 4.06913 1.94854 -0.253782 -1.23013 -0.540548 -0.0232902 0.00134227 -0.0583871 0 0 0 0 0 0 -0.013126 -0.0819672 -0.127779 14.1351 3.97196 1.6415 -0.140618 -1.35024 -0.286561 -0.0210047 -0.00856984 -0.0519451 14.0545 3.9854 2.05316 -0.363979 -1.10429 -0.792393 -0.025626 0.0113038 -0.0648518 
26.982 1 57 16.1381 4.03292 0.0594581 -1.0175 -0.383911 4.57455 -0.130182 0.313892 0.00321482 0 0 0 0 0 0 -0.0439104 -0.0517528 -0.258827 16.1642 4.07046 -0.840154 -0.832689 -0.421196 3.67815 -0.137567 0.316865 0.00448018 16.2356 3.81417 0.734963 -1.1998 -0.340732 5.47439 -0.122783 0.310957 0.00190108 
26.982 1 214 14.1409 2.06012 3.98189 0.0959888 1.85516 2.36821 -0.412586 -0.0603326 0.0916788 0 0 0 0 0 0 -0.00815368 -0.176884 -0.0852165 14.5788 2.09827 4.27115 0.759035 1.74585 3.02948 -0.417943 -0.0610781 0.0900114 13.8861 1.81364 3.51053 -0.565885 1.96729 1.70745 -0.407262 -0.0595893 0.0933547 
26.982 1 257 16.2927 4.0468 4.09277 4.58728 -3.13604 0.991811 -0.485162 0.414296 -0.2208 0 0 0 0 0 0 -0.0303209 -0.0426459 -0.0364396 16.5349 4.02315 4.12552 4.7837 -3.41187 1.34415 -0.50409 0.417089 -0.229831 16.1771 3.8902 3.87933 4.39624 -2.85194 0.640731 -0.466199 0.411584 -0.211714 
26.982 1 218 18.229 2.02519 4.24202 1.98555 5.12412 -6.26815 -0.0623834 0.0390151 -0.859753 0 0 0 0 0 0 -0.0431843 -0.128952 -0.102426 17.8034 1.44981 4.29565 1.1591 4.44069 -6.31459 -0.0644813 0.030394 -0.890118 18.7183 2.39752 4.00929 2.81459 5.81865 -6.21928 -0.0602466 0.0476803 -0.829365 
26.982 1 18 18.1315 2.0219 0.0390113 -3.57112 2.59353 -3.27223 0.155488 0.061501 0.0702401 0 0 0 0 0 0 0.00951722 -0.130913 -0.195275 18.3579 1.67732 -0.0494632 -3.55057 2.14423 -3.10343 0.157906 0.0651884 0.0773801 17.9678 2.16258 -0.0957542 -3.59068 3.05044 -3.43816 0.153058 0.0578279 0.0630515 
26.982 1 819 18.0399 0.0845396 18.2658 -5.36021 -2.85101 3.89887 0.156857 -0.232138 -0.293904 0 0 0 0 0 0 -0.0987893 -0.247885 -0.0169981 18.4568 40.2446 18.1929 -5.14026 -3.24496 3.65139 0.152974 -0.22959 -0.308053 17.6828 40.9911 18.319 -5.58068 -2.45401 4.15098 0.160714 -0.234738 -0.279763 
26.982 1 2813 12.0921 20.2727 16.1501 10.762 0.0837062 -1.97273 -0.823816 0.331864 0.5922 0 0 0 0 0 0 -0.0729804 0.100137 -0.0872986 12.0179 20.3213 16.3293 10.6969 -0.141525 -1.61128 -0.834619 0.340879 0.603767 12.4113 20.2247 15.927 10.8278 0.309246 -2.3352 -0.813025 0.322825 0.580622 
26.982 1 22 22.2499 1.85101 -0.0994707 2.00834 -0.973196 3.43019 -0.116944 0.385297 0.334909 0 0 0 0 0 0 -0.0344007 -0.0683192 -0.240608 22.6727 1.76099 -0.689087 2.75024 -1.04587 3.33563 -0.122842 0.399579 0.35414 21.7697 1.73724 0.268326 1.26946 -0.89154 3.53109 -0.111079 0.371016 0.315682 
26.982 1 24 20.3578 2.00914 2.07986 6.25292 1.03576 5.24577 -0.340041 -0.00516398 -0.142388 0 0 0 0 0 0 -0.0501699 -0.136889 -0.129493 20.1677 1.74352 2.21468 6.0348 0.847793 5.38766 -0.348123 -0.0124708 -0.151174 20.5496 2.07205 1.74462 6.47188 1.23295 5.10838 -0.331978 0.00215261 -0.13357 
26.982 1 59 18.2859 4.16836 1.98794 -4.68104 -3.67425 2.37153 -0.417784 -0.398634 0.187397 0 0 0 0 0 0 -0.011226 -0.0506811 -0.101517 18.5241 4.03516 1.61999 -4.30683 -3.79692 2.65892 -0.42431 -0.408418 0.188144 18.1111 4.11966 2.15449 -5.0523 -3.54469 2.08752 -0.411238 -0.388787 0.186675 
26.982 1 61 20.2182 3.95909 0.0784142 -2.82176 -6.16928 -2.27612 0.435288 0.304623 -0.268607 0 0 0 0 0 0 0.0400897 -0.00272236 -0.264068 20.4485 3.55859 -0.107536 -2.29674 -6.96066 -2.39827 0.452281 0.310724 -0.277519 19.9893 4.17804 0.0423162 -3.34577 -5.37153 -2.14935 0.418249 0.298565 -0.259711 
26.982 1 63 22.3402 4.17314 2.11228 -0.125586 -2.38794 -4.65413 -0.139007 -0.508613 -0.395587 0 0 0 0 0 0 0.020267 0.0193403 -0.151533 22.2016 4.58335 1.41537 -0.00711997 -2.39701 -5.64562 -0.127586 -0.517421 -0.417624 22.4209 3.58192 2.60991 -0.241533 -2.36968 -3.65715 -0.150505 -0.499804 -0.373517 
26.982 1 222 22.1311 2.10368 4.13636 1.27268 -3.99184 -4.84775 0.181323 -0.28799 -0.1987 0 0 0 0 0 0 -0.0043078 -0.0664098 -0.0508281 21.7504 1.63056 4.01443 0.934032 -4.5725 -4.75476 0.184732 -0.296458 -0.212183 22.4516 2.37566 4.07892 1.61227 -3.40063 -4.93783 0.17789 -0.279536 -0.185161 
26.982 1 261 20.2104 4.17009 4.0446 -0.764645 0.451306 -6.69165 -0.0548153 -0.266699 0.0748805 0 0 0 0 0 0 -0.00158453 -0.0174426 -0.0220623 19.8594 4.09477 4.00235 -1.31992 -0.0871923 -6.82445 -0.0516657 -0.271647 0.0760377 20.5638 4.0634 3.90744 -0.207268 0.996862 -6.55677 -0.057992 -0.261717 0.0737807 
26.982 1 25 24.4028 0.146229 -0.127821 -0.435144 -0.604935 -6.39349 -0.0618891 -0.603604 0.159557 0 0 0 0 0 0 0.0480027 -0.145069 -0.182128 24.0053 0.162851 0.0446089 -0.798955 -0.474058 -6.22162 -0.06447 -0.607948 0.171478 24.6818 -0.097887 -0.523947 -0.0664208 -0.728811 -6.56163 -0.0592516 -0.599311 0.147611 
26.982 1 635 34.7626 -0.133619 13.9502 -0.00884738 0.92628 -2.31104 -0.0864163 0.0796582 0.719031 0 0 0 0 0 0 0.0955367 -0.262163 -0.03668 34.5156 40.5031 14.1374 0.125597 0.768232 -2.06012 -0.100125 0.0811007 0.737136 34.5834 40.2967 13.6947 -0.1437 1.08672 -2.56001 -0.0726867 0.0782032 0.700948 
26.982 1 27 26.5481 -0.140212 2.07594 -0.183174 1.16598 -1.25974 -0.64915 0.40846 -0.127485 0 0 0 0 0 0 0.0610888 -0.200533 -0.115792 26.6674 -0.368476 1.58112 0.136975 0.931103 -1.53823 -0.659964 0.436145 -0.132869 26.2461 -0.137845 2.36658 -0.501786 1.40872 -0.980702 -0.638311 0.380709 -0.122139 
26.982 1 28 24.2105 1.92115 1.9712 1.99547 6.26798 3.03195 0.411724 0.374317 0.0990044 0 0 0 0 0 0 0.045461 -0.0615006 -0.126328 23.8127 2.11474 1.74609 1.79401 6.96322 3.2171 0.419548 0.393299 0.0998832 24.489 1.52469 1.9954 2.20058 5.58227 2.85059 0.403868 0.355281 0.0981647 
26.982 1 65 24.452 3.91494 -0.0179163 1.99428 -3.34326 4.15147 -0.0536739 0.347562 0.220833 0 0 0 0 0 0 0.037454 0.0393133 -0.25704 24.7518 4.10722 -0.0429081 2.30142 -3.11226 4.82947 -0.0538849 0.357644 0.236171 24.0331 3.54028 -0.213042 1.68938 -3.56836 3.48122 -0.053478 0.337481 0.205429 
26.982 1 67 26.4507 4.12674 2.04426 0.120813 0.284763 1.09027 -0.198667 -0.169805 -0.158864 0 0 0 0 0 0 -0.000653751 -0.00849909 -0.154989 27.1724 3.79535 1.82145 0.704954 -0.384086 1.13043 -0.201242 -0.17739 -0.160878 25.5453 4.27724 2.06654 -0.463969 0.959381 1.05472 -0.19607 -0.162228 -0.15686 
26.982 1 225 24.4112 -0.0166385 4.14805 1.27693 -4.3525 4.57479 -0.144511 0.00561182 -0.269284 0 0 0 0 0 0 0.0346582 -0.181751 -0.111893 24.5513 -0.868113 3.79377 1.46403 -5.19585 4.7574 -0.137598 0.0269757 -0.2752 24.1502 0.609867 4.32146 1.09198 -3.49978 4.39288 -0.151438 -0.0158029 -0.263323 
26.982 1 226 26.2584 2.07953 3.8934 -4.72738 5.92116 -1.14545 0.675652 -0.204859 0.257613 0 0 0 0 0 0 0.057291 -0.0790352 -0.0565374 26.3073 1.70607 3.80734 -4.72996 5.84808 -1.09535 0.697531 -0.191948 0.249224 26.0266 2.25186 3.79917 -4.72425 6.00405 -1.19487 0.653753 -0.217843 0.266042 
26.982 1 265 24.3078 3.97756 4.06397 -0.998259 -3.00706 -1.70028 -0.0335339 0.575794 -0.111165 0 0 0 0 0 0 0.0183389 0.012029 -0.0340741 24.218 3.58313 3.74778 -0.576813 -3.56031 -1.90102 -0.0235756 0.591336 -0.116845 24.277 4.19148 4.20012 -1.41889 -2.44526 -1.49873 -0.0435723 0.56024 -0.105416 
26.982 1 30 30.2551 1.86317 -0.0984848 1.12067 -3.04828 -0.534068 0.800035 0.353285 0.539282 0 0 0 0 0 0 -0.0121091 -0.119139 -0.239379 30.075 1.29736 -0.321331 0.922824 -3.70044 -0.775746 0.818519 0.382323 0.559827 30.1266 2.22367 -0.0978847 1.31411 -2.38982 -0.287113 0.781582 0.324162 0.518657 
26.982 1 32 28.5605 1.76938 2.00267 2.94363 1.23293 0.28672 -0.273717 0.461401 0.43835 0 0 0 0 0 0 -0.0425479 -0.131788 -0.109129 28.5318 1.40015 1.90605 2.95891 1.38728 0.185391 -0.282129 0.491503 0.464487 28.3417 1.93574 1.8976 2.92517 1.08792 0.390754 -0.265259 0.431236 0.412165 
26.982 1 69 28.5082 3.99909 0.128265 3.39078 1.1418 -1.56256 -0.208516 0.149829 -0.0671869 0 0 0 0 0 0 -0.0678594 -0.00354723 -0.256056 28.4571 4.14357 -0.0137639 3.40092 1.49708 -1.78164 -0.219951 0.165419 -0.0564332 28.3113 3.67044 0.0478211 3.37643 0.788518 -1.33785 -0.197037 0.134215 -0.0780154 
26.982 1 71 30.7033 4.08652 2.02684 -2.04127 2.68082 1.12904 -0.51872 -0.598494 0.0882814 0 0 0 0 0 0 -0.0360962 -0.0319767 -0.104391 30.6222 4.10829 1.94984 -2.14646 2.92307 0.933826 -0.530228 -0.614578 0.0906709 30.4757 3.88002 1.9056 -1.93992 2.44029 1.33044 -0.507128 -0.582395 0.0858995 
26.982 1 230 30.5592 2.02592 4.02691 -0.881363 2.6136 -1.64519 -0.3747 -0.112899 0.331855 0 0 0 0 0 0 -0.0537275 -0.108784 -0.0304794 30.1669 1.22663 3.8653 -1.39613 2.35564 -1.72679 -0.390941 -0.11784 0.336447 30.6444 2.6215 4.0131 -0.368746 2.87936 -1.55822 -0.358398 -0.107984 0.327248 
26.982 1 269 28.5706 4.06044 4.04728 -4.54052 3.01628 -2.26443 -0.454697 -0.0372145 -0.245311 0 0 0 0 0 0 -0.020026 -0.028431 -0.0326396 28.5826 4.30051 4.16414 -4.72928 3.74935 -1.72798 -0.465238 -0.0476158 -0.24839 28.3124 3.63902 3.75138 -4.35328 2.2884 -2.79891 -0.444085 -0.0267912 -0.242214 
26.982 1 35 34.6868 0.0233658 1.8677 -0.100452 0.0723856 -0.744252 -0.0364878 0.156475 0.647491 0 0 0 0 0 0 0.0677895 -0.232362 -0.12044 34.4437 0.343535 1.63902 -0.110046 0.435052 -0.930104 -0.0367572 0.159501 0.669951 34.5046 -0.527179 1.89944 -0.0906002 -0.284938 -0.550839 -0.0362352 0.153387 0.624991 
26.982 1 36 32.4874 1.97532 2.19107 -3.07156 -3.29646 -1.20931 0.242322 0.0159634 -0.891921 0 0 0 0 0 0 0.00231934 -0.124921 -0.136366 32.3448 1.88994 2.05757 -3.01036 -3.24178 -1.33055 0.234374 0.0176909 -0.909076 32.2628 1.85706 2.12824 -3.1346 -3.34364 -1.07995 0.2503 0.0142166 -0.874809 
26.982 1 73 32.6593 4.02617 -0.019529 -1.81368 4.51408 -3.73599 -0.296733 -0.333527 0.076654 0 0 0 0 0 0 0.00915065 -0.0351182 -0.271691 31.9211 4.12079 0.102507 -2.32304 5.10523 -3.6669 -0.306318 -0.345663 0.0751569 33.0286 3.74881 -0.363717 -1.30832 3.92746 -3.79909 -0.287117 -0.321412 0.0781638 
26.982 1 75 34.7355 4.02067 2.02694 1.12851 -0.153666 -3.76528 -0.25183 -0.217309 0.0545659 0 0 0 0 0 0 0.0616179 -0.0468777 -0.139328 35.3225 3.73563 1.85832 2.08191 -0.166138 -4.00844 -0.254391 -0.22503 0.0514543 33.7183 4.11868 1.99738 0.17064 -0.142608 -3.51556 -0.249275 -0.209558 0.0577018 
26.982 1 234 34.5591 2.08557 4.06159 1.72342 -1.85171 -0.625414 0.499535 -0.172067 0.143549 0 0 0 0 0 0 0.0580474 -0.112502 -0.0421923 34.9823 1.70975 4.03841 2.49554 -2.36288 -0.218494 0.504086 -0.18586 0.156451 33.707 2.25258 3.91007 0.947577 -1.33791 -1.02735 0.49498 -0.158267 0.130615 
26.982 1 273 32.6419 4.06816 3.99315 -4.16379 2.50297 -0.00559087 -0.178086 0.165159 0.375792 0 0 0 0 0 0 -0.0023327 -0.0139532 -0.00422553 32.913 3.50436 4.00152 -3.54535 2.48008 0.187188 -0.185944 0.164519 0.386335 32.0012 4.44582 3.80774 -4.78607 2.52628 -0.196208 -0.170185 0.165853 0.365229 
26.982 1 4 41.0037 1.86333 2.20491 5.06204 -1.27846 2.80354 -0.129115 0.779344 -0.671266 0 0 0 0 0 0 -0.0593607 -0.0520722 -0.217586 40.2014 2.05813 2.0374 4.40875 -0.698706 3.00681 -0.13244 0.80259 -0.705493 41.1949 1.45627 2.17563 5.71588 -1.86167 2.60535 -0.125723 0.756125 -0.63699 
26.982 1 40 36.7018 2.02375 2.18258 0.842628 -2.18865 -5.09275 0.146319 -0.23892 -0.700366 0 0 0 0 0 0 0.0736431 -0.146883 -0.172566 37.0191 2.60519 2.32016 1.4535 -1.72305 -5.17778 0.147061 -0.246393 -0.717535 35.8951 1.23068 1.84927 0.228894 -2.65557 -5.0005 0.145564 -0.231456 -0.683201 
26.982 1 79 38.8743 3.78667 2.02052 -2.57214 2.07727 0.864959 -0.0714715 0.290053 0.343726 0 0 0 0 0 0 0.0205258 -0.0349193 -0.254961 38.5917 4.06269 1.98276 -2.5691 2.77451 0.710303 -0.0730074 0.297629 0.338313 38.6063 3.32268 1.8602 -2.57663 1.38071 1.02559 -0.0698883 0.282521 0.349189 
26.982 1 961 -0.569581 16.2226 16.1626 6.57793 -0.00475063 0.145523 0.3546 0.189221 0.227178 0 0 0 0 0 0 -0.13999 -0.0609582 -0.0996218 40.3245 16.0857 16.2018 6.63865 -0.167918 0.46912 0.354053 0.188891 0.234184 40.4852 16.314 16.0755 6.51948 0.158184 -0.182004 0.355173 0.189614 0.220119 
26.982 1 238 38.8847 1.80678 4.15456 -1.59037 1.64492 -4.39303 -0.127438 0.554841 -0.0870377 0 0 0 0 0 0 -0.0534329 -0.119812 -0.120145 38.7559 2.06128 3.86505 -1.14455 2.04766 -4.4246 -0.135016 0.574825 -0.0887028 38.4637 1.34104 4.26874 -2.0374 1.24251 -4.35824 -0.11979 0.534889 -0.0853801 
26.982 1 277 36.8416 3.92343 4.09457 -0.386556 1.18685 1.2932 -0.0709878 0.141961 0.268894 0 0 0 0 0 0 0.0244631 -0.0486395 -0.050164 36.6421 3.46045 3.9622 -0.348989 1.13766 1.33991 -0.0654245 0.14594 0.276358 36.5503 4.1976 4.05063 -0.427489 1.23656 1.25137 -0.0765317 0.138035 0.261411 
26.982 1 631 30.5462 -0.0435543 14.2878 0.580845 -3.12015 0.401757 0.411205 -0.243447 0.053359 0 0 0 0 0 0 -0.0305982 -0.258057 -0.0962624 30.8484 41.2044 14.2145 1.18948 -2.65031 -0.15102 0.427 -0.252589 0.0428511 29.9408 39.7751 14.2936 -0.0279149 -3.58932 0.956635 0.395386 -0.234266 0.0638937 
26.982 1 48 3.84925 5.83285 2.05293 -0.489305 6.29902 4.50059 -0.184343 0.897787 0.122269 0 0 0 0 0 0 -0.0847818 0.052882 -0.173311 3.22819 5.64463 1.5414 -1.44981 6.13145 4.34349 -0.182596 0.92964 0.116061 4.96311 5.86175 2.36123 0.475309 6.47202 4.65742 -0.186088 0.86587 0.128502 
26.982 1 627 26.2786 0.104176 14.2319 -1.7666 -3.3108 1.66569 0.379896 -0.0164888 0.226631 0 0 0 0 0 0 -0.0264914 -0.263359 -0.125201 25.6806 40.7725 14.3392 -2.28266 -3.58455 1.6872 0.372422 -0.0225694 0.231254 26.6981 40.5026 14.0576 -1.24528 -3.03457 1.64764 0.387397 -0.0103904 0.222016 
26.982 1 83 1.73006 7.90143 2.12299 -2.06353 -0.986186 1.99612 -0.0632298 0.612156 -0.142237 0 0 0 0 0 0 -0.14307 -0.0186617 -0.212028 1.30175 8.06189 2.09361 -2.62806 -0.763796 2.15992 -0.0578906 0.638314 -0.148148 2.71267 7.6021 1.95033 -1.49449 -1.20686 1.83492 -0.0685857 0.585908 -0.136335 
26.982 1 403 1.72137 -0.0346162 10.2317 2.21963 -5.88803 5.25016 -0.048362 0.195616 -0.205243 0 0 0 0 0 0 -0.140055 -0.178699 0.0010141 1.78101 40.5683 9.78452 2.29868 -5.53695 5.03652 -0.0506008 0.194945 -0.204105 2.21041 40.4283 10.568 2.14006 -6.23757 5.46663 -0.0460874 0.196352 -0.206406 
26.982 1 242 1.73401 5.98256 4.09342 0.0685616 -2.60051 -1.51806 -0.0167058 -0.120371 -0.102148 0 0 0 0 0 0 -0.133885 0.0304601 -0.122361 1.25814 6.29415 4.24801 -0.648528 -2.54556 -1.20718 -0.0117602 -0.113017 -0.106089 2.76278 5.51047 3.76268 0.787363 -2.65093 -1.82269 -0.021656 -0.127839 -0.0981988 
26.982 1 285 3.82365 7.97236 3.95562 1.22915 2.31951 -0.479821 -0.103799 0.166308 0.198881 0 0 0 0 0 0 -0.040904 0.0169966 -0.0686416 2.89793 8.1275 3.51753 0.229738 2.47834 -0.79377 -0.103908 0.180494 0.200262 5.24246 7.67822 4.21613 2.23266 2.16311 -0.16184 -0.103674 0.152037 0.19749 
26.982 1 46 5.9192 6.14158 0.0254032 3.11925 -1.86299 4.46669 -0.608106 -0.0672018 0.175303 0 0 0 0 0 0 -0.0224592 0.0383429 -0.274581 5.82795 5.90225 0.65505 2.93741 -2.3071 5.30984 -0.625418 -0.0739654 0.176032 6.43813 6.22271 -0.827069 3.30179 -1.41362 3.62694 -0.590748 -0.0604732 0.174598 
26.982 1 52 7.79015 6.27481 2.06076 2.2579 -0.0667918 0.146447 0.336923 -0.402368 -0.0376922 0 0 0 0 0 0 0.0411388 0.0208558 -0.166135 8.019 6.26963 2.79252 2.12554 -0.312714 1.09389 0.343509 -0.415796 -0.0326804 7.9259 6.1218 1.12703 2.38827 0.185076 -0.800145 0.330354 -0.388968 -0.0427497 
26.982 1 87 5.83522 8.23459 1.89943 -1.42 2.93884 0.511052 -0.311589 -0.264962 0.447839 0 0 0 0 0 0 -0.0282583 -0.00665796 -0.175849 5.67657 8.29947 2.06325 -1.74214 3.09107 1.1956 -0.325687 -0.273152 0.465397 6.42321 8.03019 1.53326 -1.09619 2.78844 -0.173228 -0.297431 -0.256797 0.430257 
26.982 1 603 1.8101 0.0336097 14.3969 -5.42611 -0.215559 6.1861 -0.302096 -0.0318525 -0.360831 0 0 0 0 0 0 -0.0728686 -0.193926 -0.066114 2.05925 40.5583 14.2077 -5.76173 -0.222782 6.06407 -0.318607 -0.0431173 -0.383174 2.10689 40.5758 14.521 -5.09264 -0.203729 6.31362 -0.285529 -0.0205416 -0.338441 
26.982 1 246 5.80246 6.06412 4.14404 -0.702485 -1.08957 0.570335 0.0179004 0.136426 0.155502 0 0 0 0 0 0 0.00386399 0.0159848 -0.0208465 6.24462 5.744 3.42857 -0.298811 -1.83953 0.0696276 0.0236397 0.153409 0.167371 5.78904 6.225 4.68017 -1.10533 -0.334328 1.07079 0.0121295 0.119387 0.143584 
26.982 1 289 7.85445 8.12834 4.07605 -2.54616 3.0199 -0.388082 -0.00241816 0.0737031 0.119585 0 0 0 0 0 0 0.00374101 0.000440937 -0.0316884 8.42627 7.6222 3.92071 -2.25297 2.45483 -0.270554 -0.00425974 0.0784453 0.129149 7.64795 8.49686 4.05285 -2.84144 3.5875 -0.504505 -0.000586964 0.068959 0.109914 
26.982 1 92 7.83387 10.1625 2.04991 0.787487 1.83264 3.8158 0.273065 -0.208484 0.0623217 0 0 0 0 0 0 0.00476064 -0.0361428 -0.143594 7.86347 9.75933 1.55736 0.632872 1.95479 3.80953 0.280742 -0.213206 0.0686756 8.17032 10.449 2.34188 0.939529 1.71104 3.8239 0.265398 -0.203755 0.0559064 
26.982 1 286 5.79334 10.046 4.13069 6.62497 2.92517 3.69682 -0.248786 0.14124 -0.298361 0 0 0 0 0 0 -0.0210108 0.0019361 -0.0357973 5.83849 9.79031 4.15983 6.84141 3.05055 4.10655 -0.26155 0.140944 -0.293352 6.17989 10.1843 3.92522 6.41154 2.799 3.29038 -0.235984 0.141544 -0.303424 
26.982 1 1021 20.1685 0.00973311 20.1327 -2.59036 -1.52452 1.03304 0.417123 0.159006 0.526722 0 0 0 0 0 0 0.00395275 -0.247958 0.00577863 20.4516 40.5939 19.861 -2.41043 -1.78756 0.652787 0.431377 0.173354 0.538887 19.8856 40.4933 20.4046 -2.76715 -1.2578 1.4153 0.402839 0.1446 0.514572 
26.982 1 56 11.8205 6.23306 1.92469 0.730637 -4.09056 -3.23601 0.331668 -0.101336 0.15431 0 0 0 0 0 0 -0.0338193 0.0311264 -0.17759 11.9626 6.3074 2.13048 0.682537 -3.6953 -2.94839 0.343372 -0.110356 0.162924 11.9246 6.00219 1.51519 0.781851 -4.47907 -3.52515 0.31991 -0.0922691 0.145659 
26.982 1 91 9.98859 8.24571 2.08534 3.4062 0.0561163 -0.390662 -0.276153 -0.0834005 -0.192523 0 0 0 0 0 0 -0.00494982 -0.0360773 -0.186661 10.3944 8.75044 2.12215 3.64496 0.39937 -0.0958477 -0.282818 -0.0806285 -0.183388 9.88827 7.60577 1.84842 3.16687 -0.280941 -0.683346 -0.2695 -0.086179 -0.201713 
26.982 1 250 9.88594 6.15179 4.03325 -0.453764 -3.67626 -2.77382 -0.136937 0.226031 0.0085257 0 0 0 0 0 0 -0.0104747 0.0197231 -0.033653 10.2009 6.12035 5.06405 -0.505945 -3.43591 -1.52633 -0.147413 0.235279 0.0169323 9.87459 6.02732 2.82165 -0.403004 -3.90876 -4.02319 -0.126478 0.216794 7.09452e-06 
26.982 1 293 12.1669 8.11934 4.13441 -3.41578 -1.94854 -1.15822 -0.539415 0.39004 -0.499233 0 0 0 0 0 0 -0.0242593 -0.000865994 -0.0378134 12.1697 7.38609 4.83009 -3.93522 -2.92034 -0.0370861 -0.553007 0.392498 -0.502563 12.4097 8.71668 3.25922 -2.89386 -0.973643 -2.27776 -0.525794 0.387591 -0.495971 
26.982 1 54 13.8193 6.28194 0.0881458 1.56634 -3.48012 -0.227814 0.867055 -0.294221 0.0769339 0 0 0 0 0 0 -0.0496063 0.0108152 -0.272017 13.521 6.68497 -0.20194 1.04245 -3.04387 -0.927473 0.884316 -0.30206 0.0724789 14.3014 5.72196 0.153453 2.09203 -3.90969 0.473076 0.849762 -0.286312 0.0813796 
26.982 1 60 16.1381 6.06391 1.99631 -9.42785 0.23791 4.01902 0.0277514 0.108534 -0.176036 0 0 0 0 0 0 -0.0149251 -0.0159922 -0.103587 16.6051 6.56834 1.01674 -9.05228 0.528526 3.45776 0.0276289 0.0996362 -0.183947 15.7931 5.40034 2.77468 -9.80157 -0.0484451 4.58435 0.0278948 0.11751 -0.168124 
26.982 1 95 14.1949 8.32227 2.09811 -1.97394 1.71632 -2.50566 -0.35901 -0.481918 -0.353533 0 0 0 0 0 0 -0.0410178 -0.0320222 -0.118794 14.559 8.50795 0.942671 -1.89656 1.96654 -3.52107 -0.356206 -0.506617 -0.359784 14.0144 8.0005 3.05398 -2.0478 1.47021 -1.48631 -0.361814 -0.457204 -0.347307 
26.982 1 97 16.1532 8.15019 -0.0283853 2.7064 0.429292 1.81843 -0.252919 -0.298644 -0.0890257 0 0 0 0 0 0 -0.0315297 -0.0265015 -0.272513 15.8447 8.78813 0.482676 2.40321 1.20582 2.50846 -0.256317 -0.321634 -0.0940305 16.5831 7.37389 -0.762359 3.01037 -0.344263 1.13297 -0.249525 -0.27562 -0.0840168 
26.982 1 254 14.0203 6.1085 3.77276 0.318291 3.54549 3.19621 0.413223 -0.0463272 0.448489 0 0 0 0 0 0 0.00246218 -0.0194398 -0.0277685 13.9248 5.90104 3.88703 0.0802266 3.58356 3.7087 0.427537 -0.0661005 0.463375 14.3013 6.1605 3.4776 0.561172 3.51527 2.68356 0.398924 -0.0264898 0.433615 
26.982 1 297 16.1307 8.08211 4.0011 2.53289 -2.94587 0.728425 -0.124055 0.325328 0.0300634 0 0 0 0 0 0 -0.00505196 0.00140048 -0.00244226 16.3769 7.88939 3.17042 2.69296 -3.01621 0.0589607 -0.124011 0.326543 0.0324399 16.0065 8.1386 4.65457 2.37668 -2.87234 1.40147 -0.124097 0.32412 0.0276866 
26.982 1 58 18.2605 6.25601 -0.116981 -1.50672 1.20614 3.98761 -0.297299 -0.225835 0.299822 0 0 0 0 0 0 0.0189533 -0.0188657 -0.279472 17.3423 6.87689 0.128737 -2.52523 2.23935 4.2373 -0.297666 -0.236253 0.304257 19.2394 5.47679 -0.586281 -0.487908 0.180899 3.74288 -0.296947 -0.215369 0.295384 
26.982 1 2639 38.7488 20.3621 14.2552 -0.241154 -2.68607 4.91549 0.0658381 -0.317343 -0.154477 0 0 0 0 0 0 0.0243279 0.0668573 -0.136396 38.6761 21.283 13.9364 0.113304 -1.98478 4.83695 0.0633346 -0.315201 -0.145698 38.2753 19.4409 14.5077 -0.592619 -3.38569 4.99381 0.0683557 -0.319516 -0.163289 
26.982 1 64 20.1385 6.08585 1.93327 -1.49917 -1.15559 -0.324445 0.525281 0.514211 0.077684 0 0 0 0 0 0 0.0543089 0.0153689 -0.127946 19.6527 6.26801 1.18406 -1.71343 -1.19448 -0.615971 0.536101 0.523143 0.0782846 20.6268 5.74145 2.48393 -1.28271 -1.11449 -0.026756 0.514396 0.505316 0.0771185 
26.982 1 99 18.1641 8.21494 1.86471 -0.433075 0.507578 4.08083 0.0180921 -0.0580224 0.310468 0 0 0 0 0 0 0.0248837 -0.00573864 -0.0932321 17.8931 8.86425 0.828872 -0.90594 1.08557 3.38711 0.0257199 -0.0611031 0.319257 18.4959 7.42718 2.70153 0.0407634 -0.0676404 4.78099 0.0104278 -0.0549392 0.301677 
26.982 1 103 22.323 8.23622 1.91594 -0.217209 -1.41552 2.67962 -0.293696 -0.0115311 0.118212 0 0 0 0 0 0 0.0108502 0.00394751 -0.171472 21.447 8.4653 2.53868 -0.700169 -0.853299 3.25843 -0.298395 -0.00734766 0.113056 23.1404 7.86619 1.09543 0.266682 -1.97707 2.10675 -0.289049 -0.015677 0.123365 
26.982 1 258 18.2348 6.29481 3.9985 -2.08914 0.337823 -3.64451 -0.26753 -0.259352 -0.0703453 0 0 0 0 0 0 -0.00408817 -0.00327976 -0.00777527 18.3254 6.39188 3.92684 -2.27359 0.76532 -3.2426 -0.276818 -0.260645 -0.0683232 18.2077 6.03727 3.89237 -1.90158 -0.0847961 -4.04324 -0.258254 -0.258039 -0.0723337 
26.982 1 262 22.1583 6.15386 4.01408 -1.32793 0.800567 1.39244 0.107858 0.0309738 0.150567 0 0 0 0 0 0 0.0144296 0.00664456 -0.029938 21.0762 6.45718 3.88391 -2.11548 1.1515 1.27514 0.115552 0.0327924 0.155162 23.1811 5.68923 3.96673 -0.539267 0.452799 1.51361 0.100081 0.0291494 0.146004 
26.982 1 301 20.1118 8.32242 3.9377 -1.16368 1.19218 1.22762 0.253865 -0.223183 0.320326 0 0 0 0 0 0 0.01804 -0.00972944 -0.0153685 19.4734 7.8576 3.92832 -1.41989 0.908659 1.63783 0.261243 -0.232581 0.323746 20.7509 8.64768 3.77088 -0.907223 1.47552 0.821531 0.246419 -0.213833 0.316898 