ITEM: TIMESTEP
825
ITEM: NUMBER OF ATOMS
4000
ITEM: BOX BOUNDS pp pp pp
-0.241871 40.7419
-0.0169746 40.517
-0.0125083 40.5125
ITEM: ATOMS mass type id x y z vx vy vz fx fy fz xrad yrad zrad vxrad vyrad vzrad fxrad fyrad fzrad xub yub zub vxub vyub vzub fxub fyub fzub xlb ylb zlb vxlb vylb vzlb fxlb fylb fzlb 
26.982 1 2 1.92312 2.07309 -0.12965 0.826628 -6.91478 0.147278 -0.0606243 -0.0147979 0.538652 0 0 0 0 0 0 -0.035097 -0.101439 -0.172714 2.13178 2.32962 0.0688778 1.14467 -6.42708 0.679824 -0.0521213 -0.00869137 0.553417 1.99911 1.71388 -0.449147 0.508251 -7.4013 -0.384002 -0.0691123 -0.0209288 0.523861 
26.982 1 3 1.90733 -0.0682195 1.99548 4.98851 1.3618 -2.01465 -0.387624 -0.045043 -0.0333975 0 0 0 0 0 0 -0.0677443 -0.178518 -0.0966908 1.90702 -0.266422 1.95172 4.92495 1.04496 -2.32503 -0.402286 -0.0457399 -0.0333444 2.19147 0.0156591 1.93183 5.0495 1.67908 -1.69987 -0.372922 -0.0443789 -0.0334886 
26.982 1 8 3.9505 1.99499 2.02166 -2.05264 7.94754 3.95306 -0.277664 -0.156203 -0.462717 0 0 0 0 0 0 -0.0170831 -0.145156 -0.125901 4.00825 2.01539 2.00987 -2.05516 8.43664 4.19976 -0.282477 -0.142278 -0.476888 4.14614 1.87243 1.92514 -2.05076 7.46178 3.70948 -0.272828 -0.170187 -0.448553 
26.982 1 41 0.0132388 4.15441 -0.0820753 -1.06259 1.50184 2.92233 -0.461302 -0.498111 0.382053 0 0 0 0 0 0 -0.10722 -0.128754 -0.17289 -0.0157864 4.26615 0.112333 -1.57908 1.81091 3.58164 -0.476398 -0.509741 0.396276 0.358855 3.951 -0.398356 -0.544504 1.1933 2.26285 -0.446213 -0.486482 0.367781 
26.982 1 43 1.84319 4.08046 2.13045 1.76386 3.95429 -0.252212 0.434809 0.016738 -0.469839 0 0 0 0 0 0 -0.0405396 -0.10014 -0.123004 1.70096 3.97325 2.06712 1.21009 3.81755 -0.261963 0.443155 0.0151333 -0.477814 2.27114 4.09546 2.08598 2.31882 4.09077 -0.239378 0.42649 0.0183447 -0.461916 
26.982 1 202 2.10642 1.75665 3.96433 -0.0512231 3.20575 -3.10102 -0.751918 0.688178 0.416153 0 0 0 0 0 0 -0.0896973 -0.137347 -0.0964609 2.22618 1.74849 3.88964 -0.106438 3.31398 -3.07493 -0.78102 0.696339 0.428905 2.27121 1.66124 3.94383 0.00291429 3.09803 -3.12254 -0.722781 0.679968 0.403396 
26.982 1 241 -0.0579747 3.99658 4.05265 -4.82931 -0.525214 -7.31508 -0.49665 -0.00986727 0.179301 0 0 0 0 0 0 -0.127381 -0.131857 -0.103872 -0.0433531 4.22261 3.9889 -5.46911 -0.12962 -7.52995 -0.509611 -0.0142994 0.185985 0.244217 3.67707 4.02118 -4.18827 -0.923964 -7.09529 -0.483679 -0.00542793 0.172626 
26.982 1 245 3.86624 3.98332 4.12116 4.8505 -7.96761 -3.67995 0.0735189 0.299528 -0.186404 0 0 0 0 0 0 -0.0149212 -0.0313256 -0.0429363 3.94856 3.81484 4.10123 5.14222 -8.18311 -3.64086 0.0694084 0.310434 -0.193086 4.03752 4.06045 4.04478 4.55898 -7.74969 -3.71645 0.0776534 0.288605 -0.179713 
26.982 1 6 5.82966 1.91927 -0.0497848 1.53034 2.48891 2.92088 0.151538 0.313133 0.17656 0 0 0 0 0 0 -0.0562391 -0.101078 -0.201758 5.6607 1.78155 0.0954837 1.20242 2.51338 3.53307 0.16527 0.324987 0.176183 6.22006 1.95468 -0.31474 1.8582 2.46691 2.31088 0.13779 0.301222 0.176925 
26.982 1 9 7.89433 0.0194896 -0.0726804 5.98909 -2.22512 1.61217 0.47642 0.111036 -0.076753 0 0 0 0 0 0 -0.00656008 -0.175653 -0.112276 7.95616 0.160633 -0.065773 5.99598 -1.99066 2.12805 0.484539 0.122369 -0.0820351 8.02342 -0.235972 -0.200804 5.98361 -2.45857 1.09863 0.468296 0.0996712 -0.0714568 
26.982 1 12 8.03689 2.08858 2.00154 1.261 1.92254 -4.59881 -0.191808 -0.429225 -0.392685 0 0 0 0 0 0 -0.00681573 -0.144721 -0.105428 7.98468 1.9884 1.89414 0.903063 1.92318 -4.61411 -0.187416 -0.420749 -0.411754 8.27882 2.08576 2.00072 1.61928 1.92335 -4.58068 -0.196203 -0.43779 -0.373572 
26.982 1 47 5.82347 3.93924 1.97391 -0.590039 -1.71055 -1.79789 0.41219 0.562627 0.129666 0 0 0 0 0 0 -0.0286534 -0.0279533 -0.119542 5.56555 3.86414 1.75868 -1.14361 -1.88053 -2.07292 0.430255 0.581597 0.128246 6.30241 3.92402 2.08145 -0.0366686 -1.53686 -1.52036 0.394111 0.543612 0.131108 
26.982 1 49 7.95055 4.09471 -0.00649814 -3.42201 -6.28911 1.15733 -0.0027355 -0.273013 -0.130457 0 0 0 0 0 0 -0.0161437 -0.0255859 -0.248823 8.00393 4.11235 0.118974 -3.32876 -6.26265 1.36672 0.000619304 -0.271419 -0.129323 8.08668 3.98648 -0.252335 -3.51599 -6.31262 0.950677 -0.00613884 -0.274698 -0.131606 
26.982 1 206 5.90882 1.88479 3.91342 2.70232 -2.273 0.137667 -0.0188012 0.311654 0.349152 0 0 0 0 0 0 -0.0364294 -0.13497 -0.0767509 5.98012 2.0097 3.96513 2.88624 -1.92888 0.534216 -0.0125501 0.32563 0.354298 6.05878 1.65781 3.76516 2.51872 -2.61495 -0.257271 -0.0250325 0.297605 0.344027 
26.982 1 209 7.86834 0.0149115 3.92056 -2.81393 0.73277 3.45126 0.450604 -0.0976089 0.218139 0 0 0 0 0 0 -0.00867175 -0.188622 -0.164739 7.98331 -0.0965125 3.59654 -2.88285 0.781557 3.00632 0.465473 -0.0929214 0.224322 7.94332 0.0122491 4.14744 -2.74339 0.686103 3.89897 0.435727 -0.102325 0.211975 
26.982 1 249 7.94271 4.02775 3.99116 5.24441 1.94549 -1.75699 -0.146471 0.262462 0.321654 0 0 0 0 0 0 -0.0113598 -0.00899528 -0.0127083 8.09255 3.95627 3.89522 5.51265 1.95867 -1.65985 -0.148719 0.276354 0.322816 7.98164 4.00806 3.99084 4.97538 1.93384 -1.85228 -0.14423 0.24851 0.320563 
26.982 1 10 10.1041 2.06244 -0.208932 -1.78505 -7.36576 -4.08798 -0.426419 -0.350051 0.594272 0 0 0 0 0 0 0.0505603 -0.12883 -0.212181 10.3345 1.96408 -0.302253 -1.5847 -7.81446 -4.26741 -0.439291 -0.343387 0.609432 10.032 2.05795 -0.236367 -1.98514 -6.91439 -3.90528 -0.413529 -0.356796 0.579105 
26.982 1 16 11.9754 1.87769 1.99815 -2.13953 -1.59308 -0.928421 0.462462 0.310548 -0.0164715 0 0 0 0 0 0 0.0608722 -0.194711 -0.159249 12.27 1.94454 1.74956 -1.65119 -1.44264 -1.20015 0.467906 0.32239 -0.0136603 11.8068 1.70673 2.13723 -2.62933 -1.74268 -0.654493 0.457017 0.298644 -0.0192704 
26.982 1 51 10.018 3.94727 2.19884 4.38522 -2.1667 -5.29661 0.0147731 0.613185 -0.91658 0 0 0 0 0 0 0.0199698 -0.0235783 -0.10817 10.1134 4.05531 2.12508 4.0993 -2.09166 -5.47366 0.0166027 0.642641 -0.939436 10.08 3.74821 2.16288 4.66969 -2.2396 -5.11919 0.0129504 0.583638 -0.893663 
26.982 1 53 12.14 3.96093 0.0781517 3.64647 -3.50189 5.04238 -0.159415 0.42216 0.0136289 0 0 0 0 0 0 0.0507326 -0.0537939 -0.245324 12.4492 3.88028 -0.082126 3.8488 -3.78716 4.83849 -0.166725 0.460986 0.0234844 11.957 3.9504 0.117386 3.44391 -3.21484 5.24745 -0.152038 0.383248 0.0037433 
26.982 1 210 10.0472 2.08246 4.05571 1.39227 0.252485 4.24834 -0.237733 -0.486064 0.261675 0 0 0 0 0 0 0.0049274 -0.106649 -0.0695307 10.1985 2.01828 3.8113 1.4713 0.262968 4.27389 -0.243615 -0.483368 0.266438 10.053 2.04295 4.20293 1.31166 0.242271 4.22454 -0.231859 -0.488821 0.256954 
26.982 1 213 12.0311 -0.0583307 4.08219 3.2204 0.77162 -0.748539 0.664126 0.174508 -0.3456 0 0 0 0 0 0 0.0435267 -0.183607 -0.198111 12.114 -0.00649457 3.71774 3.33273 0.706253 -1.20325 0.683936 0.181205 -0.352126 12.0736 -0.226258 4.34875 3.10626 0.836104 -0.293709 0.644271 0.167819 -0.339074 
26.982 1 253 11.9604 4.05892 4.04345 0.503083 2.19558 -6.47875 0.51101 0.214444 0.187888 0 0 0 0 0 0 0.0185816 -0.0140979 -0.0374969 12.1503 4.22965 4.25559 0.555747 2.70134 -6.02225 0.518898 0.228356 0.178487 11.8957 3.79789 3.73314 0.448529 1.69249 -6.93399 0.503124 0.20048 0.197363 
26.982 1 20 16.3294 2.05343 2.0512 -1.43284 0.53127 1.12416 -0.22035 0.0602075 0.0451126 0 0 0 0 0 0 -0.0818578 -0.193634 -0.108422 16.3599 1.82705 1.97964 -1.47944 0.0166866 1.16522 -0.219329 0.0552063 0.0517145 16.3621 2.17798 2.01287 -1.38547 1.049 1.08418 -0.221364 0.0652053 0.0385 
26.982 1 55 14.2222 3.99719 2.14167 2.76399 -0.148977 0.541715 -0.357214 0.521299 -0.261201 0 0 0 0 0 0 -0.0127043 -0.0696319 -0.132317 14.2958 3.9898 1.95592 2.7509 -0.140982 0.325124 -0.363836 0.539183 -0.267524 14.2433 3.91451 2.21735 2.77666 -0.153599 0.758854 -0.350544 0.503368 -0.254883 
26.982 1 57 16.1002 4.01696 0.00915927 4.48105 3.80002 -0.791748 0.42957 0.152979 0.0811801 0 0 0 0 0 0 -0.0468121 -0.0707737 -0.253353 16.0044 4.12991 -0.269711 4.70696 4.14804 -1.18533 0.432638 0.160661 0.0877405 16.2596 3.8138 0.165867 4.25555 3.4557 -0.397974 0.426529 0.145294 0.0745601 
26.982 1 214 14.0563 2.0994 3.97645 2.63195 -2.39385 -0.272916 0.143471 -0.597528 0.330815 0 0 0 0 0 0 0.0315433 -0.150288 -0.103261 14.2022 2.13412 4.05937 2.90456 -2.30488 -0.214518 0.143428 -0.606188 0.328004 14.0046 1.9611 3.79485 2.35821 -2.48157 -0.33136 0.143497 -0.588887 0.333638 
26.982 1 257 16.1279 3.98523 4.21778 6.74528 -0.861912 -1.95467 -0.176359 0.233259 -0.362475 0 0 0 0 0 0 -0.0175007 -0.0444762 -0.0326215 16.2549 3.98186 4.16525 6.96176 -0.740594 -2.05894 -0.18973 0.235561 -0.374247 16.0655 3.89843 4.1725 6.53157 -0.979903 -1.85039 -0.162972 0.230958 -0.350701 
26.982 1 218 18.2569 1.91568 4.04977 -2.29188 2.58717 -2.55205 0.0493051 0.351864 -0.328445 0 0 0 0 0 0 -0.0102428 -0.146212 -0.048958 18.168 1.70098 4.06308 -2.60087 2.33376 -2.70236 0.0513559 0.352464 -0.335057 18.3782 2.02869 3.93928 -1.98011 2.84419 -2.40008 0.0472813 0.351268 -0.321823 
26.982 1 18 18.1933 2.0712 -0.00338885 -0.817596 1.08008 1.3334 0.176434 0.0503755 0.052948 0 0 0 0 0 0 -0.0610011 -0.117888 -0.229321 18.277 2.01272 -0.0227713 -0.561643 0.951352 1.32486 0.184884 0.034252 0.0536869 18.1416 2.02792 -0.105546 -1.07234 1.21274 1.34335 0.167943 0.0665275 0.0521936 
26.982 1 19 18.2472 -0.0498667 2.06052 3.41157 -1.65381 -2.34653 0.179349 -0.0565895 -0.170395 0 0 0 0 0 0 -0.0465628 -0.235844 -0.0571241 18.3553 -0.1862 2.03848 3.72311 -1.9524 -2.44769 0.18525 -0.0663852 -0.181694 18.1707 -0.0274918 1.9734 3.10053 -1.35235 -2.24305 0.17345 -0.0467627 -0.15907 
26.982 1 21 20.2917 0.0189505 -0.0575217 -2.76581 -3.8891 -4.59109 -0.0399297 -0.102592 -0.176403 0 0 0 0 0 0 0.0091788 -0.185816 -0.128507 20.3717 -0.286724 0.0577427 -2.48668 -4.78642 -4.36676 -0.0380321 -0.104842 -0.186921 20.2121 0.211016 -0.29439 -3.0436 -2.98876 -4.81447 -0.0418252 -0.100308 -0.165879 
26.982 1 22 22.3746 2.1209 0.0599562 -1.27661 0.632338 0.628403 0.0609494 -0.714495 -0.488973 0 0 0 0 0 0 -0.00843663 -0.108781 -0.217248 22.4712 2.12236 -0.213471 -0.843775 0.794823 0.0986013 0.0579483 -0.741105 -0.502228 22.2474 2.01744 0.212048 -1.70629 0.473693 1.15991 0.0640069 -0.687865 -0.475716 
26.982 1 24 20.2257 1.97666 1.90517 1.05901 -2.32969 0.954634 0.11715 0.152632 0.474779 0 0 0 0 0 0 0.0167811 -0.148742 -0.0377892 20.1577 1.83666 2.00107 1.00905 -2.4036 1.07689 0.120246 0.149153 0.476005 20.2943 2.01549 1.69992 1.1102 -2.25165 0.835237 0.114064 0.156135 0.473599 
26.982 1 59 18.3047 4.20242 2.12246 3.39823 -0.429384 -3.94891 -0.261108 -0.461072 -0.385456 0 0 0 0 0 0 -0.0098882 -0.0462218 -0.102087 18.3925 4.13224 1.94569 3.56228 -0.182019 -4.52925 -0.261902 -0.482924 -0.403916 18.2494 4.18199 2.1896 3.23564 -0.674429 -3.36765 -0.260303 -0.439214 -0.367001 
26.982 1 61 20.3857 3.9533 -0.122004 -2.70665 8.79875 1.5718 -0.551197 0.393575 0.344931 0 0 0 0 0 0 -0.00674743 0.0123551 -0.258646 20.3832 3.88783 -0.229545 -2.64775 9.04431 1.56487 -0.56352 0.388128 0.356958 20.3887 3.92852 -0.135896 -2.76449 8.55619 1.58084 -0.5389 0.399042 0.332912 
26.982 1 63 22.3331 3.91214 2.03814 4.87863 1.79861 0.75506 -0.054103 0.494557 0.311125 0 0 0 0 0 0 -0.00470319 -0.0063814 -0.0790717 22.2814 4.12817 1.73992 4.90889 2.21084 0.275776 -0.0538418 0.501054 0.313087 22.3544 3.60537 2.22738 4.85105 1.38935 1.23737 -0.054329 0.488077 0.309212 
26.982 1 222 22.4086 2.02994 4.15665 2.91202 0.906057 -1.15348 -0.437237 -0.0474919 -0.350689 0 0 0 0 0 0 -0.0502761 -0.127605 -0.0710775 22.2777 1.86887 4.01715 2.84189 0.582816 -1.55733 -0.445377 -0.048043 -0.372529 22.5083 2.08973 4.19895 2.98244 1.23463 -0.74869 -0.429087 -0.046905 -0.328829 
26.982 1 261 20.2414 4.16463 3.97629 4.42921 2.6363 -1.68915 0.280967 -0.383742 0.180106 0 0 0 0 0 0 0.0040229 -0.0514277 -0.0190265 20.1598 4.28557 3.96694 4.22849 2.81561 -1.82815 0.284836 -0.408277 0.175578 20.3239 3.95284 3.88851 4.63194 2.45855 -1.54841 0.277141 -0.359202 0.184658 
26.982 1 25 24.3135 -0.0197268 -0.0103156 -0.468844 -5.01755 -4.26613 -0.204655 -0.294445 0.300791 0 0 0 0 0 0 -0.0201455 -0.191629 -0.141825 24.1634 0.0218288 0.0228061 -0.662349 -4.82168 -4.15182 -0.218703 -0.306456 0.314022 24.4015 -0.174978 -0.165409 -0.272085 -5.20955 -4.37927 -0.190555 -0.282374 0.287536 
26.982 1 26 26.3502 1.86939 0.0438274 -4.81605 -0.936624 0.79215 -0.150042 0.186782 -0.112397 0 0 0 0 0 0 0.042507 -0.11695 -0.241554 26.3686 2.09948 -0.13977 -4.84912 -0.488163 0.587972 -0.161244 0.180964 -0.112867 26.2371 1.53706 0.106 -4.78309 -1.38233 0.998638 -0.138831 0.19261 -0.111933 
26.982 1 27 26.5127 -0.210733 2.12136 -2.88975 0.607133 3.91629 -0.333244 0.586325 -0.238635 0 0 0 0 0 0 0.0757647 -0.245218 -0.0799116 26.4725 -0.178849 1.87039 -2.81984 0.663129 3.53913 -0.338967 0.593072 -0.24201 26.4582 -0.355452 2.26188 -2.9595 0.55592 4.29134 -0.327501 0.579628 -0.235254 
26.982 1 28 24.3533 1.88654 2.05835 0.648657 -1.82057 -1.41673 0.0386247 0.16993 -0.134788 0 0 0 0 0 0 -0.0305896 -0.128269 -0.0808355 24.1603 1.97626 1.83975 0.413645 -1.77045 -1.64651 0.0355006 0.165937 -0.143711 24.484 1.69506 2.16767 0.885779 -1.86629 -1.18617 0.0417799 0.173968 -0.125863 
26.982 1 65 24.427 3.99312 0.0872769 0.674663 -5.10828 -0.390122 -0.467417 0.0369354 -0.298886 0 0 0 0 0 0 -0.00362804 0.0262824 -0.268141 24.5399 3.99372 -0.0841727 0.925159 -5.04309 -0.408356 -0.478096 0.0393488 -0.302106 24.2519 3.90162 0.137806 0.426517 -5.17136 -0.368727 -0.456701 0.0344848 -0.295643 
26.982 1 67 26.376 3.91503 1.87656 1.40769 3.19868 -3.13971 0.0534866 0.210114 0.65375 0 0 0 0 0 0 0.00564721 -0.00410667 -0.0902107 26.7366 3.91763 1.73055 1.94419 3.10863 -3.33446 0.0484699 0.219208 0.670825 25.9209 3.82224 1.91331 0.870541 3.29247 -2.94266 0.0584887 0.200992 0.636677 
26.982 1 225 24.4182 0.0545736 4.00194 -0.493332 0.546223 -5.47073 -0.131198 -0.635721 0.374064 0 0 0 0 0 0 -0.0328197 -0.213734 -0.111615 24.4234 -0.173911 3.803 -0.27952 0.0474717 -6.00106 -0.132354 -0.657747 0.375453 24.35 0.170264 4.10353 -0.706989 1.05 -4.9411 -0.130043 -0.613695 0.3727 
26.982 1 226 26.3649 2.0791 4.05242 1.6365 -3.4077 -0.442203 0.252188 -0.30002 0.178321 0 0 0 0 0 0 0.0450078 -0.119625 -0.0172266 26.3795 2.07446 4.00216 1.80795 -3.84669 -0.344901 0.263808 -0.319928 0.190309 26.2558 1.98315 4.00518 1.46497 -2.962 -0.53991 0.240565 -0.280101 0.166307 
26.982 1 265 24.3569 4.02625 4.13586 2.78174 1.87479 4.51541 -0.272734 -0.347614 -0.187997 0 0 0 0 0 0 -0.00252666 -0.0248232 -0.0252967 24.26 3.9577 4.06278 2.71585 1.60705 4.4604 -0.270153 -0.358817 -0.203684 24.3913 4.00416 4.11179 2.84877 2.14687 4.57135 -0.275343 -0.336395 -0.172312 
26.982 1 30 30.4579 1.89108 0.117929 -5.18859 -0.187684 -0.863476 0.136233 0.203053 -0.280064 0 0 0 0 0 0 0.0239681 -0.179721 -0.207168 30.4544 1.69772 0.0240247 -5.19095 -0.440632 -0.88687 0.13728 0.206257 -0.287686 30.3027 1.98226 0.0907207 -5.1889 0.0679947 -0.83801 0.135148 0.199834 -0.272423 
26.982 1 32 28.3519 1.88405 1.94694 0.668027 -1.10016 1.62217 0.256113 0.05671 0.386467 0 0 0 0 0 0 0.0648846 -0.19817 -0.0783122 28.3165 1.71753 1.93102 0.804073 -1.57619 1.64168 0.258142 0.0487024 0.398543 28.2602 1.94892 1.85338 0.528723 -0.619572 1.60314 0.254075 0.0647328 0.374382 
26.982 1 69 28.4001 4.02746 0.0795633 2.10698 3.13372 1.25216 0.484113 -0.406457 -0.761646 0 0 0 0 0 0 0.0172493 -0.0166798 -0.26916 28.4171 4.03658 0.0457089 2.25677 3.3987 1.12256 0.495044 -0.403462 -0.785229 28.256 3.92716 -0.00828632 1.95381 2.86996 1.38383 0.47314 -0.409518 -0.738038 
26.982 1 71 30.5394 3.96568 1.96014 0.12207 0.868968 2.1945 -0.0853607 0.297582 -0.253659 0 0 0 0 0 0 0.0237092 -0.0356366 -0.117256 30.5235 3.91418 1.96116 0.284425 0.967823 2.41506 -0.0796252 0.311912 -0.267991 30.3968 3.92555 1.8509 -0.0431114 0.771619 1.97703 -0.0911317 0.283179 -0.239319 
26.982 1 230 30.5572 2.02506 3.94801 4.16608 3.17642 3.25173 -0.180677 -0.368797 0.183396 0 0 0 0 0 0 -0.00649329 -0.20369 -0.0697131 30.4249 1.65605 3.93418 4.26299 2.6001 3.26867 -0.18708 -0.382861 0.194751 30.5315 2.29218 3.86599 4.06769 3.75621 3.23914 -0.174289 -0.354746 0.172035 
26.982 1 269 28.4828 3.81827 3.86751 3.94206 -1.85883 0.53587 -0.206968 0.488079 0.503954 0 0 0 0 0 0 -0.00302109 -0.0395026 -0.00614189 28.4816 3.80742 3.81487 4.09683 -1.7715 0.784371 -0.218809 0.503497 0.522816 28.3573 3.73882 3.82318 3.78511 -1.94258 0.288087 -0.195139 0.472639 0.48507 
26.982 1 35 34.5885 -0.0786359 1.90899 1.29885 3.58234 -1.57306 -0.436241 -0.0748627 0.343021 0 0 0 0 0 0 -0.0233368 -0.189416 -0.159889 34.5081 0.00784389 1.75484 1.386 3.95862 -1.71822 -0.453287 -0.0808535 0.353476 34.4488 -0.279817 1.95536 1.21431 3.20566 -1.42438 -0.41921 -0.0688602 0.33257 
26.982 1 36 32.5338 1.96121 1.96636 -5.06703 0.324271 4.00677 0.147411 -0.16489 -0.286269 0 0 0 0 0 0 0.0120848 -0.181812 -0.138627 32.4854 1.85316 1.91 -5.07305 0.450833 4.17687 0.157341 -0.172815 -0.293961 32.3926 1.96759 1.91507 -5.06088 0.20116 3.84086 0.137444 -0.156981 -0.278573 
26.982 1 73 32.5418 4.05591 -0.165214 5.45554 1.99875 -3.89778 0.0336571 0.118158 0.688502 0 0 0 0 0 0 0.0900232 -0.0257746 -0.254079 32.2692 3.95064 -0.248912 5.05387 2.34477 -3.81229 0.0319247 0.122643 0.705429 32.6247 4.07008 -0.202808 5.85603 1.65637 -3.98165 0.0353832 0.113615 0.671595 
26.982 1 75 34.5952 4.01434 1.90066 -6.52911 -1.10843 -7.98942 -0.0275128 0.272788 0.225606 0 0 0 0 0 0 0.0410895 -0.021259 -0.206662 34.7364 3.87275 1.78847 -6.12661 -1.19685 -8.25492 -0.0337607 0.281999 0.240635 34.2323 4.06368 1.90439 -6.93233 -1.01965 -7.72098 -0.0212893 0.263534 0.210558 
26.982 1 234 34.5209 2.08491 3.86678 1.8971 1.94595 1.73452 0.16665 -0.190096 0.428516 0 0 0 0 0 0 -0.013406 -0.0993652 -0.0788855 34.6763 1.9542 3.76562 2.26666 1.82112 1.72508 0.181078 -0.187045 0.439491 34.1443 2.11244 3.8726 1.52828 2.07022 1.74857 0.152175 -0.193183 0.41753 
26.982 1 273 32.4271 3.98409 3.97077 -4.85625 -5.38237 -3.50997 0.792976 0.338799 0.0244947 0 0 0 0 0 0 0.0288149 -0.0253607 -0.0405632 32.4399 3.75998 3.9907 -4.68592 -6.02956 -3.60975 0.814535 0.353232 0.0292936 32.2241 4.11578 3.85467 -5.02796 -4.73388 -3.40698 0.771365 0.324297 0.0197042 
26.982 1 4 40.9469 2.08493 1.99421 1.98397 2.46024 3.70688 -0.26986 -0.233056 0.00702019 0 0 0 0 0 0 -0.0860811 -0.184581 -0.128937 40.7467 2.12879 1.82688 1.74599 2.49917 3.54894 -0.281722 -0.236584 0.00979936 40.8314 1.937 2.05473 2.22177 2.41947 3.87089 -0.257991 -0.229573 0.00418858 
26.982 1 40 36.5621 1.90548 2.03152 -0.827516 -2.05365 2.67215 0.427178 0.442221 -0.166267 0 0 0 0 0 0 0.0458584 -0.10586 -0.22936 36.6116 2.11288 2.04267 -0.668403 -1.63636 3.04235 0.431614 0.453021 -0.165716 36.2597 1.59411 1.91333 -0.986288 -2.47349 2.30716 0.422719 0.431388 -0.166849 
26.982 1 79 38.741 3.98847 2.04103 -0.296964 1.7215 3.38577 0.278482 0.246564 0.172979 0 0 0 0 0 0 -0.0460589 -0.0882502 -0.170828 38.6452 4.02353 2.01192 -0.369021 2.09138 3.63723 0.286935 0.248594 0.183325 38.5522 3.86029 1.96187 -0.22495 1.34937 3.13883 0.270028 0.244536 0.162573 
26.982 1 237 36.6962 -0.0425092 3.92623 -3.49844 -1.57553 1.85532 -0.341444 0.326407 0.641655 0 0 0 0 0 0 0.04146 -0.168341 -0.163982 36.6073 -0.128504 3.83939 -3.62903 -1.78062 1.88843 -0.34861 0.337691 0.660639 36.5319 -0.0709632 3.91738 -3.36779 -1.37035 1.82543 -0.334289 0.315077 0.622664 
26.982 1 238 38.7505 2.03149 4.01541 -2.9379 2.02527 -0.26771 -0.0355255 0.0353329 0.173274 0 0 0 0 0 0 0.0296865 -0.130019 -0.10947 38.632 2.09756 3.8507 -2.95141 2.22833 -0.600883 -0.0328246 0.043839 0.184521 38.5847 1.86093 4.08479 -2.92363 1.82054 0.0695431 -0.038236 0.0267793 0.162021 
26.982 1 277 36.7648 4.05477 4.00964 -0.305055 -2.86543 -0.280334 -0.307574 0.090278 -0.0499126 0 0 0 0 0 0 0.000896578 -0.03074 -0.0645855 36.7221 3.88606 3.82179 -0.352662 -3.35197 -0.392563 -0.307642 0.0883013 -0.0375379 36.5541 4.13005 4.10082 -0.258054 -2.38167 -0.164752 -0.307528 0.0922529 -0.0622777 
26.982 1 42 1.73212 6.25301 -0.0768067 -4.00631 1.76138 -1.14267 0.777112 -0.421538 0.0665673 0 0 0 0 0 0 -0.0565002 -0.0201633 -0.197273 1.68802 6.07215 -0.107646 -4.48811 1.44345 -1.18162 0.797863 -0.427493 0.0646761 2.0624 6.35463 -0.167897 -3.52082 2.08091 -1.10348 0.756373 -0.415557 0.068444 
26.982 1 48 3.93608 6.15318 1.99662 3.85871 4.52483 -0.576759 -0.095227 -0.359387 0.381356 0 0 0 0 0 0 -0.0320881 -0.0361001 -0.120033 3.77139 6.10449 1.75874 3.47296 4.52352 -1.0664 -0.0897715 -0.373675 0.383491 4.35528 6.12226 2.1252 4.24665 4.52812 -0.0870268 -0.100715 -0.345054 0.379219 
26.982 1 81 -0.0248861 8.20376 0.0830142 -1.33707 -0.808541 3.75192 -0.341332 -0.0498792 -0.263968 0 0 0 0 0 0 -0.145748 0.00222891 -0.155604 -0.0577561 8.02805 0.276688 -1.93743 -1.16457 4.26397 -0.354606 -0.05932 -0.27738 0.32485 8.31075 -0.232526 -0.73408 -0.451411 3.24128 -0.32803 -0.0404193 -0.250528 
26.982 1 83 1.89366 8.01628 2.21874 -0.372955 1.23691 0.505534 0.265091 0.545752 -0.668853 0 0 0 0 0 0 -0.122847 -0.00833737 -0.106442 1.69006 8.06011 2.11145 -0.899935 1.51219 0.511626 0.274442 0.547141 -0.684696 2.38343 7.90333 2.21677 0.157145 0.961818 0.50081 0.255745 0.544433 -0.653008 
26.982 1 85 3.93764 8.12357 0.0511876 2.60138 -3.92748 -0.861849 -0.11325 0.101638 -0.488257 0 0 0 0 0 0 -0.0316179 0.0493375 -0.273849 3.77873 8.10686 -0.121175 2.30618 -4.05695 -1.04317 -0.113779 0.09504 -0.51461 4.3507 8.07099 0.101779 2.89835 -3.7984 -0.680318 -0.11278 0.108275 -0.461913 
26.982 1 242 1.63719 6.14239 3.99468 -1.82654 -5.86888 2.14174 0.741548 -0.393525 0.681658 0 0 0 0 0 0 -0.131508 0.0131143 -0.0670813 1.48077 6.21151 4.06236 -2.37218 -5.33505 2.43238 0.745763 -0.40907 0.691324 2.07962 5.99295 3.83073 -1.27841 -6.40074 1.85454 0.73735 -0.377899 0.671996 
26.982 1 285 4.00347 8.07906 4.11744 -0.556571 -3.99842 0.719356 -0.35386 0.151897 -0.403516 0 0 0 0 0 0 -0.029151 -0.007069 -0.0368204 3.65642 8.13692 3.91647 -1.32341 -3.79489 0.516095 -0.352518 0.143745 -0.413048 4.60507 7.95177 4.22202 0.21314 -4.20111 0.925012 -0.355227 0.160116 -0.393971 
26.982 1 46 5.83321 6.0178 -0.0641412 -2.97831 4.63571 -2.79301 0.415194 0.184553 0.237684 0 0 0 0 0 0 -0.0311204 -0.0178486 -0.257345 5.78211 5.92995 0.141911 -3.24172 4.74037 -2.48293 0.434205 0.184036 0.246696 6.10593 6.02661 -0.390682 -2.71519 4.53391 -3.10074 0.396092 0.18505 0.228655 
26.982 1 52 7.99642 6.14249 1.99393 -4.87167 1.44903 3.0671 -0.255901 -0.288743 -0.0326558 0 0 0 0 0 0 -0.000205734 0.0141135 -0.102731 8.14677 6.14576 2.24147 -5.03967 1.65411 3.63786 -0.25506 -0.291338 -0.0425885 8.03535 6.06051 1.63714 -4.70482 1.24695 2.49756 -0.256806 -0.286179 -0.0226628 
26.982 1 87 5.93039 8.17792 1.98694 -1.55728 0.530236 -2.55923 -0.0157642 -0.331563 -0.134965 0 0 0 0 0 0 0.0090177 0.0226052 -0.140857 5.83363 8.2102 1.9615 -1.75806 0.649398 -2.51525 0.000852875 -0.345198 -0.149985 6.24936 8.07644 1.90338 -1.35553 0.411234 -2.60216 -0.032481 -0.317885 -0.11991 
26.982 1 89 7.83082 7.96007 -0.324151 -3.45334 1.8409 -0.221852 0.546907 0.314918 0.859186 0 0 0 0 0 0 0.0221488 0.0698326 -0.26454 8.0732 7.9636 -0.276536 -3.39372 2.21476 -0.00836753 0.562731 0.318316 0.884121 7.7783 7.88826 -0.492406 -3.51435 1.46701 -0.431975 0.531005 0.311568 0.834264 
26.982 1 246 5.98548 6.12207 4.22866 -0.930056 1.13778 -3.69453 -0.0328361 -0.494528 -0.765426 0 0 0 0 0 0 0.00285379 -0.0162264 -0.039957 6.06773 6.18659 3.92222 -0.64555 1.05808 -4.28486 -0.0255336 -0.510968 -0.792463 6.12485 5.978 4.43863 -1.21369 1.22 -3.10416 -0.0401682 -0.478075 -0.738356 
26.982 1 289 7.90968 8.1203 3.93829 2.05084 -0.922934 -2.0148 0.160834 0.0674334 0.555754 0 0 0 0 0 0 0.0244319 0.00810726 -0.0226981 8.11711 7.9424 3.82688 2.35212 -1.2868 -2.29834 0.180436 0.0656441 0.556031 7.89204 8.22964 3.95288 1.74905 -0.557327 -1.7286 0.141163 0.0692289 0.555564 
26.982 1 92 7.87121 10.043 2.04593 3.33833 -6.15543 0.800807 0.414564 0.685878 -0.437086 0 0 0 0 0 0 0.0296209 0.00875468 -0.16619 7.83522 9.78227 1.78569 3.26675 -6.60859 0.401888 0.441511 0.688838 -0.450449 8.09758 10.2454 2.19765 3.40907 -5.7021 1.20302 0.387532 0.682979 -0.423703 
26.982 1 286 5.92306 10.3288 4.04165 2.18231 -6.65716 -7.15271 0.151027 -0.442736 0.195696 0 0 0 0 0 0 0.0109024 0.00205462 -0.0311184 5.88717 10.2148 3.98995 2.058 -7.13307 -7.19846 0.172643 -0.44146 0.197527 6.18194 10.385 3.99792 2.30969 -6.18103 -7.10235 0.129337 -0.443983 0.193901 
26.982 1 50 10.0563 5.93475 0.0391453 -6.71672 1.21448 5.78527 -0.0361209 0.342045 -0.265155 0 0 0 0 0 0 0.0505479 0.0595731 -0.255342 10.2499 5.87481 -0.160597 -6.81886 1.38282 5.60092 -0.0334291 0.350437 -0.268744 10.0204 5.91577 0.118426 -6.61464 1.04775 5.97214 -0.0387855 0.333601 -0.26159 
26.982 1 56 12.0247 6.09898 2.10571 2.70355 1.64582 -0.554003 0.179208 -0.0274891 -0.354767 0 0 0 0 0 0 0.0108577 0.0460864 -0.134284 12.1016 5.96002 2.20983 2.82521 1.73117 -0.341368 0.182632 -0.0211622 -0.368585 12.0738 6.16001 1.89185 2.58231 1.56407 -0.766567 0.175857 -0.0338348 -0.340902 
26.982 1 91 9.90388 8.18708 1.89568 -4.05016 0.443255 3.73229 0.46477 -0.0605844 -0.0208132 0 0 0 0 0 0 0.0538109 0.0546205 -0.174213 10.0682 8.22236 1.92096 -4.13143 1.03977 3.86619 0.476054 -0.055797 -0.0330586 9.89765 8.08413 1.76205 -3.96925 -0.150315 3.60209 0.453506 -0.0653272 -0.00853536 
26.982 1 250 10.0125 6.1898 4.11499 -3.24168 -1.04957 6.06995 -0.153643 -0.257775 0.00247542 0 0 0 0 0 0 -0.00208654 0.0139368 -0.0199536 10.2168 6.05987 4.35506 -3.19221 -1.04533 6.97659 -0.159772 -0.252532 -0.00416379 9.96563 6.24179 3.77702 -3.2926 -1.04918 5.16425 -0.14752 -0.263049 0.00923194 
26.982 1 293 12.032 8.07441 4.17066 1.99298 -0.509437 -4.05252 -0.0429059 0.317564 -0.228794 0 0 0 0 0 0 -0.00669965 0.0128951 -0.046938 12.2066 7.81988 4.293 2.03828 -1.07961 -3.67562 -0.050313 0.320801 -0.239746 11.9835 8.26135 3.95111 1.94767 0.0633659 -4.42728 -0.0354204 0.314345 -0.217744 
26.982 1 54 14.2216 6.0279 -0.0758201 -2.76975 -3.31319 -0.896648 -0.615882 0.10396 0.421839 0 0 0 0 0 0 -0.0474353 0.0435332 -0.256588 14.127 6.22586 -0.0791719 -2.93522 -2.96311 -0.741153 -0.646079 0.107101 0.435962 14.4106 5.75199 -0.194567 -2.60475 -3.65951 -1.05207 -0.585591 0.100839 0.407659 
26.982 1 60 16.1986 6.03806 2.15521 8.14802 4.72808 0.374871 -0.489652 -0.112178 -0.176693 0 0 0 0 0 0 -0.0202664 0.0120606 -0.106558 16.3028 6.27885 1.79903 8.69778 5.47925 -0.241192 -0.505831 -0.115034 -0.183597 16.1575 5.71815 2.40161 7.59717 3.9791 0.990326 -0.473415 -0.109271 -0.169802 
26.982 1 95 13.971 8.12162 2.11539 0.742649 -2.15973 0.999736 0.0998971 -0.42565 -0.337383 0 0 0 0 0 0 -0.0391661 0.0246292 -0.180711 14.1545 8.19219 1.70233 1.08508 -2.01004 0.424606 0.0842592 -0.46103 -0.348283 13.8814 7.98338 2.41966 0.399213 -2.30707 1.57623 0.115647 -0.390215 -0.326482 
26.982 1 97 16.1564 7.96489 0.0493314 0.750995 -2.70181 0.272396 -0.325432 0.160598 0.0980219 0 0 0 0 0 0 8.17305e-05 0.107479 -0.266647 16.0371 8.11585 0.202947 0.621491 -2.23607 0.942908 -0.340546 0.163706 0.106688 16.3383 7.74516 -0.226276 0.878894 -3.16752 -0.395971 -0.310271 0.157544 0.0893149 
26.982 1 254 14.0588 6.12656 4.26444 -1.9638 9.91126 2.14656 -0.0773098 -0.392277 -0.421408 0 0 0 0 0 0 -0.00976254 -0.00383661 -0.038761 14.1432 5.9496 4.27247 -2.07638 10.0274 2.41072 -0.083411 -0.400092 -0.442483 14.0693 6.22571 4.15851 -1.8516 9.80018 1.88246 -0.0711658 -0.384446 -0.400276 
26.982 1 297 15.9467 8.13572 4.10053 -1.59222 -0.415328 4.60254 0.535875 0.0990762 -0.0395641 0 0 0 0 0 0 0.00849605 0.00194981 -0.0372522 16.0627 8.06079 3.75441 -1.4158 -0.597644 4.14475 0.544067 0.0865435 -0.0414547 15.8934 8.1429 4.34987 -1.77053 -0.230952 5.06265 0.527714 0.111652 -0.0376688 
26.982 1 58 18.2666 6.02259 -0.0635733 -1.8205 0.091527 -1.37713 -0.371012 -0.457879 0.468324 0 0 0 0 0 0 0.0344468 0.0617738 -0.270158 17.9363 6.141 0.0408175 -2.44343 0.62934 -0.816602 -0.37493 -0.474578 0.484946 18.6283 5.82495 -0.29045 -1.19849 -0.443605 -1.93762 -0.367124 -0.441138 0.451666 
26.982 1 62 22.2028 6.01267 0.0405785 1.56946 -1.14846 4.74877 0.546569 0.129427 -0.0999618 0 0 0 0 0 0 0.00086927 0.108776 -0.266948 22.1986 5.9167 -0.0418271 1.52233 -1.40805 4.64656 0.551922 0.135243 -0.106813 22.1767 6.02856 0.00135623 1.6198 -0.888175 4.85188 0.541205 0.123589 -0.0930787 
26.982 1 64 20.3651 6.12107 2.11011 -0.106958 -0.754506 1.19085 0.0107584 -0.248553 -0.365881 0 0 0 0 0 0 0.0116922 0.058041 -0.151575 20.1 6.25675 1.76267 -0.484056 -0.521671 0.56704 0.0180023 -0.255146 -0.381193 20.631 5.90531 2.34887 0.272246 -0.98747 1.81673 0.00351029 -0.24195 -0.350539 
26.982 1 99 18.0615 8.00355 2.04059 5.62607 0.0290817 3.79588 0.277885 0.149995 0.0783413 0 0 0 0 0 0 0.0350949 0.0734316 -0.172468 18.0476 8.20964 1.69276 5.47548 0.565999 3.2116 0.275844 0.155587 0.081991 18.1071 7.72864 2.27952 5.77581 -0.507492 4.38299 0.279894 0.144418 0.0746851 
26.982 1 103 22.5752 8.0624 2.0785 5.86411 -4.51321 1.5272 -0.697041 -0.271748 -0.00858122 0 0 0 0 0 0 -0.0135351 0.0607823 -0.215316 22.152 8.05094 2.31277 5.3113 -4.58772 2.01327 -0.702572 -0.272449 -0.0160509 22.9679 8.00437 1.73582 6.4198 -4.44121 1.04556 -0.691514 -0.271104 -0.00106335 
26.982 1 258 18.1528 6.11778 4.14396 2.2579 0.0280787 -1.64139 -0.207311 0.0886904 -0.139717 0 0 0 0 0 0 -0.00549878 0.00976005 -0.0146347 18.2311 6.11308 3.95479 2.38365 0.16222 -1.88278 -0.217611 0.0888529 -0.138897 18.1071 6.04292 4.23628 2.13375 -0.105685 -1.39776 -0.196988 0.0885611 -0.140547 
26.982 1 262 22.3975 6.07097 4.21248 -0.946882 -3.24549 -2.37888 -0.479999 -0.0701113 -0.921819 0 0 0 0 0 0 -0.00832673 0.00819108 -0.0540832 21.9371 6.14799 4.15079 -1.8497 -2.95344 -2.41598 -0.487829 -0.0755281 -0.952295 22.8271 5.91396 4.17743 -0.0417939 -3.53676 -2.33855 -0.472153 -0.0647257 -0.89133 
26.982 1 301 20.162 8.02772 3.908 1.68562 -0.292884 -0.714493 0.340076 0.0908768 0.521735 0 0 0 0 0 0 0.00842202 0.0201923 -0.0618512 19.9117 7.83164 3.86535 0.886754 -0.498468 -0.892163 0.344477 0.0950872 0.531284 20.4128 8.15525 3.8545 2.48525 -0.0878309 -0.532327 0.335659 0.0866086 0.512178 