ITEM: TIMESTEP
16350
ITEM: NUMBER OF ATOMS
4000
ITEM: BOX BOUNDS pp pp pp
-3.3972 43.8972
1.16407 39.3359
0.845137 39.6549
ITEM: ATOMS mass type id x y z vx vy vz fx fy fz xrad yrad zrad vxrad vyrad vzrad fxrad fyrad fzrad xub yub zub vxub vyub vzub fxub fyub fzub xlb ylb zlb vxlb vylb vzlb fxlb fylb fzlb 
26.982 1 43 -2.27114 5.14963 3.11192 -4.69258 -4.72281 -4.08334 0.20432 -0.156845 -0.141967 0 0 0 0 0 0 -0.135923 -0.107981 -0.128393 -18.3763 7.77612 23.2809 -3.77527 -0.49357 0.605721 0.206319 -0.166881 -0.138163 19.8688 0.804059 -18.4753 -5.6484 -8.93136 -8.76977 0.202258 -0.146744 -0.145915 
26.982 1 202 -2.38551 3.20849 5.22543 -2.52682 3.41417 -0.278359 0.228688 0.27966 0.334699 0 0 0 0 0 0 -0.18265 -0.14617 -0.0526895 5.42532 -15.884 8.06016 -0.343623 4.95715 4.8202 0.223359 0.2992 0.3486 -4.16519 20.3832 1.30132 -4.76473 1.89595 -5.37417 0.233916 0.260267 0.320667 
26.982 1 245 -0.116099 5.1183 5.2215 -3.22137 2.61677 1.97052 -0.247774 -0.407097 -0.31377 0 0 0 0 0 0 -0.033832 -0.0507126 -0.0497614 -7.55322 12.4064 6.19993 -7.40688 6.87841 8.13216 -0.250374 -0.42432 -0.325011 12.7344 -3.78561 3.07441 0.943584 -1.57673 -4.19363 -0.245238 -0.389744 -0.3027 
26.982 1 8 -0.0541985 3.15924 2.83745 3.48522 1.16938 -6.40751 -0.147811 0.124481 0.0424705 0 0 0 0 0 0 -0.0487856 -0.161686 -0.147934 -5.45031 20.4986 7.49917 3.6758 3.93953 -1.87001 -0.160575 0.132617 0.0507801 10.733 -16.1861 -3.17626 3.26499 -1.56986 -10.9597 -0.13519 0.116493 0.0339057 
26.982 1 45 0.415401 5.57215 1.76305 6.15141 -4.04191 0.191674 -0.589409 0.292879 0.221894 0 0 0 0 0 0 -0.0593069 -0.0562783 -0.214594 -2.3458 7.55879 50.9772 4.30162 -2.70058 3.15324 -0.599895 0.29034 0.239051 8.59369 2.01188 32.3576 8.01963 -5.33627 -2.75229 -0.578841 0.295539 0.204524 
26.982 1 205 0.0152105 1.48513 5.0071 2.10575 -1.65356 2.42002 -0.369433 0.207322 0.313623 0 0 0 0 0 0 0.0114579 -0.110469 -0.173289 -5.03517 34.955 7.84951 6.53552 -3.35357 8.35919 -0.342582 0.205147 0.330227 10.3708 47.1042 1.0185 -2.37876 0.0657546 -3.50613 -0.396385 0.209511 0.296917 
26.982 1 2801 44.0045 19.0791 16.2352 5.09267 0.300228 -2.58385 0.137269 0.121998 0.256379 0 0 0 0 0 0 0.0669152 -0.0177473 -0.159099 40.5332 9.48783 33.2755 6.73996 -3.91376 -5.19765 0.13076 0.121801 0.260236 40.8912 28.7856 -0.840071 3.40217 4.57323 0.0994556 0.143726 0.122123 0.252617 
26.982 1 2 -2.06683 2.85353 0.881689 -2.91655 3.17267 -2.05713 0.0745433 -0.0369294 0.479204 0 0 0 0 0 0 -0.0786475 -0.101668 -0.144219 5.96707 28.3459 39.5371 1.83087 11.1069 4.47029 0.0734112 -0.0299238 0.499265 -4.10976 -24.503 -39.351 -7.70486 -4.76197 -8.55747 0.0755782 -0.0439806 0.45901 
26.982 1 47 2.41934 5.75586 3.7597 -4.18299 -0.219551 -3.84167 0.132559 0.0357735 0.147519 0 0 0 0 0 0 4.15637e-05 -0.0267898 -0.0563323 -9.2606 21.8639 -9.98538 -7.83364 2.26695 -4.30545 0.135648 0.0315552 0.159191 18.7969 -11.7705 16.099 -0.527439 -2.60657 -3.43199 0.129432 0.0402395 0.135608 
26.982 1 206 2.31244 2.99567 4.71861 -0.838394 5.20037 3.09322 -0.063809 0.355174 0.120818 0 0 0 0 0 0 0.0204461 -0.131411 -0.0649308 9.49627 -11.7285 31.3405 2.80701 1.20294 12.6686 -0.0397993 0.349657 0.149793 -0.197101 15.9073 -22.9865 -4.50329 9.30623 -6.47793 -0.0878563 0.360922 0.0917974 
26.982 1 12 5.21196 4.14894 3.54059 4.28937 -2.40785 4.53443 -0.49197 -0.45859 0.543446 0 0 0 0 0 0 -0.00214462 -0.0733783 -0.0652298 7.41387 6.08876 -8.75231 6.73906 -8.99149 2.78685 -0.498756 -0.481753 0.560704 6.91841 0.479974 14.5223 1.81059 4.29107 6.2729 -0.485316 -0.435241 0.526077 
26.982 1 9 4.63986 1.63957 2.21249 5.77151 1.11523 8.70286 -0.038444 -0.175194 0.479817 0 0 0 0 0 0 -0.0457473 -0.206135 -0.127791 -1.28992 18.0427 7.21228 10.6439 -2.53535 13.7705 -0.0367346 -0.192732 0.504147 14.4998 -16.9308 -4.1289 0.855213 4.84568 3.64287 -0.0402386 -0.157519 0.455332 
26.982 1 6 2.57689 3.68503 1.94248 -0.343315 -3.21799 -4.16639 -0.0467739 -0.0304763 -0.0797548 0 0 0 0 0 0 -0.0295248 -0.136049 -0.185134 -4.96814 -16.1267 20.4329 -0.604946 -6.32499 -0.491593 -0.0333207 -0.0460967 -0.0578986 14.7347 21.6068 -17.9621 -0.124133 -0.046283 -7.83476 -0.060336 -0.0146222 -0.101836 
26.982 1 249 4.72077 6.03074 5.52707 2.29992 3.16597 -0.967458 0.227188 -0.100902 0.136691 0 0 0 0 0 0 0.00159678 -0.0119643 0.00296065 2.17426 -14.7692 16.0303 -2.47183 -0.484873 2.72037 0.227907 -0.102261 0.149592 11.1777 25.3293 -6.10943 7.06548 6.8904 -4.63597 0.226364 -0.0992701 0.123617 
26.982 1 51 7.76557 4.92973 2.5835 0.31506 1.30482 0.0508992 -0.113347 -0.150711 0.134025 0 0 0 0 0 0 0.0753806 -0.0226036 -0.201772 -8.67527 11.1088 -21.3749 2.85508 -3.59853 -3.82548 -0.086092 -0.166411 0.123922 27.3912 -2.7145 25.2628 -2.26406 6.31971 3.97192 -0.14056 -0.134876 0.144122 
26.982 1 210 7.08164 3.72611 5.3934 -0.461304 -1.33255 6.24411 0.887346 0.395042 0.184082 0 0 0 0 0 0 0.0195099 -0.0669063 -0.0118572 -2.48669 5.18838 13.7503 -3.75207 -5.83468 4.84007 0.896373 0.400775 0.190639 19.8775 0.406227 -4.1782 2.81626 3.26498 7.68648 0.878385 0.389446 0.177398 
26.982 1 11 8.89928 2.36093 3.44877 -6.36576 2.27798 1.10768 -0.363855 0.134376 0.44253 0 0 0 0 0 0 0.018201 -0.15251 -0.16924 -1.14244 67.2582 -26.6854 -9.43559 6.33018 -4.95881 -0.368477 0.145204 0.451246 22.2498 16.6985 32.2025 -3.28604 -1.66565 7.19381 -0.359189 0.123642 0.43385 
26.982 1 49 5.01016 4.46965 1.04831 -0.711434 5.54421 2.00272 0.143981 0.739928 -0.739519 0 0 0 0 0 0 0.0103215 -0.00821497 -0.265569 20.0158 -12.5993 -16.397 4.84818 2.82274 0.188524 0.163853 0.748731 -0.740049 -6.14453 19.9278 17.1476 -6.33342 8.36372 3.85845 0.123903 0.731384 -0.739162 
26.982 1 209 6.40881 1.20787 4.53092 -5.58257 -4.63548 -6.67365 0.121848 -0.0387264 -0.504457 0 0 0 0 0 0 -0.0266402 -0.168685 -0.149425 8.62171 2.02729 -4.52648 -10.1262 -4.79396 -3.03405 0.11097 -0.0502799 -0.521892 8.10263 -1.67033 12.416 -1.05731 -4.35422 -10.2655 0.132827 -0.0271353 -0.487172 
26.982 1 10 6.99485 2.7567 1.11237 -1.66241 -0.515979 -1.40672 0.390218 0.114983 0.181557 0 0 0 0 0 0 0.0799033 -0.120449 -0.217389 17.2439 5.11673 -5.75786 1.26621 -1.98493 2.06146 0.408577 0.119159 0.18521 0.0378385 -1.55564 6.63457 -4.60311 1.00857 -4.83096 0.371843 0.110865 0.177821 
26.982 1 253 9.84461 4.99987 4.3074 5.00119 1.75281 0.817621 -0.852616 -0.366269 -0.435017 0 0 0 0 0 0 -0.0279706 -0.0343812 -0.0993083 5.95084 2.45266 52.0806 4.27984 2.03955 2.08772 -0.883921 -0.380121 -0.447816 16.4376 6.13093 -44.6329 5.74192 1.57862 -0.423436 -0.821224 -0.352247 -0.422245 
26.982 1 16 11.4525 3.35915 2.6287 5.78346 -1.66627 -2.02189 0.116316 -0.330716 0.210409 0 0 0 0 0 0 -0.0317475 -0.0984249 -0.242601 2.06674 29.8444 -3.31399 -4.24245 1.25103 -0.138131 0.108002 -0.34698 0.190044 23.6064 -25.0437 7.15494 15.8689 -4.52975 -3.86412 0.124694 -0.314359 0.230867 
26.982 1 213 11.2519 2.1004 5.14572 -8.9325 -4.96962 -2.73647 -0.00729089 0.293345 -0.0468794 0 0 0 0 0 0 0.0176384 -0.240759 -0.00257053 8.85509 5.78362 17.0049 -12.348 -5.19695 -3.14101 -0.0202178 0.265374 -0.0516612 16.38 -3.74882 -7.97556 -5.45794 -4.6843 -2.29306 0.00567916 0.32143 -0.042167 
26.982 1 255 12.1163 5.14122 5.48956 -1.13742 3.5029 -0.843184 0.806138 0.162663 -0.171737 0 0 0 0 0 0 -0.0140402 -0.0529378 -0.0157941 0.410341 3.13605 51.7651 -8.92731 -0.451703 5.52919 0.790542 0.154176 -0.159588 25.9339 5.60717 -41.8471 6.70685 7.53626 -7.20678 0.8219 0.171329 -0.183925 
26.982 1 55 14.4539 6.15863 4.39909 4.42589 -4.51605 3.03662 -0.614796 -0.734934 -0.752446 0 0 0 0 0 0 -0.0263684 -0.0207855 -0.0709739 7.94815 12.798 23.4607 -4.7895 -3.92998 7.28543 -0.636759 -0.74044 -0.773409 23.104 -1.96793 -15.9102 13.7412 -5.01321 -1.15249 -0.592721 -0.729304 -0.73147 
26.982 1 214 14.2503 3.3939 5.05414 2.31302 1.28053 6.54189 -0.771487 0.551858 0.000702648 0 0 0 0 0 0 0.0226204 -0.113644 -0.0480554 23.7373 9.86609 14.4791 -3.77723 2.15368 9.78253 -0.795096 0.539363 0.00998162 6.90642 -4.92728 -5.63293 8.50425 0.466049 3.32522 -0.747711 0.564611 -0.00858554 
26.982 1 20 16.5504 3.91871 3.84089 0.310044 3.45566 1.61346 0.152364 0.000697805 -1.07758 0 0 0 0 0 0 -0.0210393 -0.115695 -0.0774785 29.788 -15.361 11.576 -3.71283 0.246621 4.88188 0.147315 -0.0015363 -1.10939 4.68058 21.3788 -5.17501 4.44877 6.69882 -1.60775 0.157647 0.00308496 -1.04575 
26.982 1 257 16.719 5.62136 5.67855 7.47085 5.39528 -5.7291 0.780903 0.923805 0.485092 0 0 0 0 0 0 -0.00789273 -0.0353105 0.00822383 21.9717 -15.7672 22.8774 2.99158 5.40482 2.6748 0.778974 0.923851 0.494873 12.8701 25.425 -12.7009 12.0451 5.4402 -14.0947 0.782907 0.923768 0.475177 
26.982 1 14 14.0686 4.32466 2.28912 0.286615 4.23675 5.70535 0.168409 0.286263 0.237629 0 0 0 0 0 0 -0.0407836 -0.0646986 -0.241923 1.94832 38.9118 41.3997 -9.93053 6.1036 7.41495 0.157988 0.283988 0.20638 28.3581 -32.1427 43.0344 10.6252 2.44098 4.04986 0.179 0.288716 0.268966 
26.982 1 57 16.7761 5.42113 1.30717 -2.36321 -3.08334 4.50251 -0.126358 -0.362246 -0.105374 0 0 0 0 0 0 -0.0364139 -0.027695 -0.278531 25.4776 34.4823 -9.71517 -5.81706 2.64986 4.09605 -0.135589 -0.375171 -0.125082 9.42846 -25.2233 10.9955 1.1898 -8.77271 4.96129 -0.116923 -0.349268 -0.0856161 
26.982 1 142 22.0416 15.611 0.975538 -0.978196 7.44109 -7.65927 -0.585613 -0.500691 -0.891797 0 0 0 0 0 0 0.0426617 0.0228984 -0.253636 20.4757 31.2673 51.2469 -17.2273 7.68557 -2.56272 -0.603141 -0.531761 -0.871071 22.9602 -0.48304 30.6704 15.3557 7.23466 -12.7186 -0.568033 -0.469447 -0.912636 
26.982 1 17 15.5559 2.03211 2.13138 1.29138 0.814065 0.288914 0.581413 0.169664 0.279699 0 0 0 0 0 0 -0.0273279 -0.18802 -0.184159 28.4891 51.557 32.3973 -1.21736 3.53729 -2.04799 0.583612 0.157758 0.25233 3.92784 31.7327 51.7133 3.90803 -1.82303 2.65709 0.579536 0.181689 0.307085 
26.982 1 218 18.902 3.43754 5.25217 -0.379327 -2.29532 -0.349978 -0.137222 0.356115 0.0606849 0 0 0 0 0 0 -0.040615 -0.113276 -0.0173293 3.77188 -2.38536 4.99292 -7.0519 -2.37489 2.18958 -0.15204 0.371663 0.0560066 34.6573 7.46697 4.34093 6.37308 -2.17598 -2.86604 -0.122217 0.340586 0.0652992 
26.982 1 59 18.8929 5.36303 3.42019 -3.1784 1.25966 6.6805 -0.142988 0.241878 -0.674464 0 0 0 0 0 0 -0.00656433 -0.017351 -0.0996006 31.4708 -11.9699 18.0147 -4.56952 0.300487 9.56544 -0.147933 0.253094 -0.699839 6.9056 21.0371 -12.4006 -1.72473 2.21318 3.84339 -0.137955 0.230595 -0.649091 
26.982 1 24 20.666 3.31444 3.01533 -2.04747 -6.17356 -2.78125 -0.131549 0.385307 0.108482 0 0 0 0 0 0 0.0180752 -0.0883338 -0.118386 7.71816 16.9689 17.8355 -6.64423 -4.12531 0.126758 -0.142122 0.409027 0.116856 33.545 -12.0665 -13.1059 2.57451 -8.16606 -5.65548 -0.120939 0.361507 0.100078 
26.982 1 261 21.0774 5.45587 5.11835 1.28444 2.24444 -3.74665 -0.116785 -0.633376 -0.0679307 0 0 0 0 0 0 0.0014237 -0.00923404 -0.0113256 19.4436 12.0159 4.18089 -1.71989 6.52393 -2.46352 -0.117621 -0.622171 -0.0657758 22.6474 -2.72305 4.88469 4.31877 -2.017 -5.0179 -0.116007 -0.644756 -0.0701753 
26.982 1 19 18.1739 1.68912 3.14693 3.25892 7.70058 -7.27456 0.124734 -0.126123 0.202785 0 0 0 0 0 0 -0.0476331 -0.247144 -0.074508 37.0801 0.257353 15.4732 0.827578 9.03621 -4.66663 0.0935498 -0.140463 0.197869 -0.144196 0.994054 -10.4707 5.76607 6.42053 -9.83967 0.156234 -0.111722 0.207726 
26.982 1 221 20.6878 1.432 5.05116 -2.40166 8.94862 0.764248 0.0900514 0.296799 -0.487085 0 0 0 0 0 0 -0.0139775 -0.181918 -0.137335 4.08633 39.5191 -9.34511 -7.09134 9.19619 -0.23521 0.0781423 0.312405 -0.49623 37.2586 42.5364 18.2409 2.3187 8.75161 1.77005 0.101979 0.281195 -0.47798 
26.982 1 63 22.9401 5.10894 2.94521 -1.57883 2.76671 -0.886336 -0.111043 -0.468019 -0.432942 0 0 0 0 0 0 0.0125001 -0.0587936 -0.15444 28.8534 27.6154 12.9941 -2.80505 5.59984 0.8487 -0.100775 -0.459933 -0.446742 16.3837 -19.0291 -8.3657 -0.346231 -0.0376138 -2.58495 -0.121455 -0.476235 -0.419154 
26.982 1 222 23.0238 2.84745 4.65668 1.5824 1.73186 -1.18218 0.377765 0.409007 0.410373 0 0 0 0 0 0 0.0398895 -0.112259 -0.0756158 18.5029 19.0795 9.53264 0.861508 3.0081 0.176525 0.406014 0.422934 0.411113 26.8413 -15.2194 -1.39672 2.29548 0.499068 -2.52295 0.349318 0.39506 0.409575 
26.982 1 28 25.6434 2.08634 3.02165 5.66103 -1.6788 5.16116 0.190284 1.15116 0.191944 0 0 0 0 0 0 0.000170937 -0.21819 -0.107525 31.0823 8.96442 21.0179 8.04833 -1.23974 8.14786 0.195135 1.17165 0.211542 18.9553 -6.56647 -16.4776 3.26087 -2.0628 2.17809 0.185266 1.13064 0.172256 
26.982 1 265 25.5542 4.75311 4.17803 3.63395 -1.49276 1.24797 -0.168497 -0.123618 -0.248247 0 0 0 0 0 0 0.00267558 -0.0612159 -0.0640538 29.9451 -19.6072 4.80419 5.39814 -4.34652 2.78337 -0.167193 -0.142142 -0.254542 19.8939 27.4865 2.31148 1.87749 1.42126 -0.262965 -0.16983 -0.105009 -0.241898 
26.982 1 998 42.4401 16.8939 16.2425 2.37858 -3.28982 -1.52504 -0.212539 -0.41904 0.356293 0 0 0 0 0 0 0.0321171 -0.0138419 -0.0219914 33.9898 45.7991 29.5472 5.55717 -5.24832 0.608767 -0.206657 -0.435937 0.36839 45.0129 -12.1791 2.83958 -0.83297 -1.26495 -3.60349 -0.218473 -0.402092 0.344329 
26.982 1 23 22.573 1.5522 2.46184 -0.221142 1.86481 -2.07598 0.717066 -0.331463 0.429816 0 0 0 0 0 0 0.0655573 -0.206511 -0.145397 11.9904 64.2817 14.9215 -1.21025 5.48449 0.685226 0.735869 -0.317762 0.461916 32.5227 17.9739 -11.2211 0.767408 -1.72419 -4.80753 0.6981 -0.345251 0.397605 
26.982 1 67 27.8222 4.73836 2.47856 5.51848 -2.4124 -5.04332 0.175828 -0.342227 -0.720832 0 0 0 0 0 0 0.035007 -0.0301757 -0.218125 26.8382 -6.65874 9.41309 5.82723 -4.36662 -4.40116 0.170492 -0.352261 -0.741025 26.9002 14.4728 -5.82159 5.2132 -0.386189 -5.6474 0.181263 -0.332092 -0.700616 
26.982 1 226 28.1369 2.63813 4.2588 -1.68782 -2.14421 4.94878 -0.0234515 0.261828 -0.124206 0 0 0 0 0 0 0.0280171 -0.158731 -0.108461 28.5088 -10.5128 17.9819 -1.5004 -3.329 7.01397 -0.0241537 0.273726 -0.127099 25.8916 14.1271 -10.7622 -1.86267 -0.879 2.90615 -0.0225989 0.250032 -0.121293 
26.982 1 32 30.404 3.23236 2.20012 4.96692 4.01541 -3.6529 -0.443922 -0.518356 0.226908 0 0 0 0 0 0 0.0368037 -0.15527 -0.208102 12.0551 13.0417 26.4189 3.48351 5.94313 -1.2922 -0.473441 -0.524024 0.223637 46.1778 -8.31076 -23.4004 6.4707 2.16374 -5.98413 -0.414199 -0.512594 0.230255 
26.982 1 269 30.2163 4.90349 4.44352 6.03744 2.83534 -2.41441 -0.152087 -0.824613 -0.0885668 0 0 0 0 0 0 0.00616472 -0.0738876 -0.0958188 26.4277 15.2616 28.2008 5.41481 2.83023 -0.574075 -0.164633 -0.846302 -0.103472 31.4974 -7.10611 -20.4181 6.68619 2.90253 -4.20418 -0.139337 -0.8028 -0.0736037 
26.982 1 2839 41.9517 18.956 18.2535 -1.46896 0.025352 1.0679 0.45167 -0.150694 -0.0665032 0 0 0 0 0 0 0.0854612 0.0465456 -0.0023651 40.202 6.76116 36.9121 -0.882493 -4.59193 2.79682 0.462673 -0.154246 -0.0643967 37.699 31.4344 -0.202815 -2.08753 4.72612 -0.608447 0.44065 -0.147264 -0.0685719 
26.982 1 71 32.6761 4.79027 2.31733 3.7217 -4.02159 -2.68287 -0.713196 0.472061 -0.162766 0 0 0 0 0 0 0.00117175 -0.0483604 -0.263476 31.2654 19.6058 1.68857 3.66906 -2.97257 -2.13883 -0.732669 0.480823 -0.154672 30.74 -11.6588 1.75202 3.77651 -4.99909 -3.15917 -0.693548 0.463387 -0.170768 
26.982 1 230 32.5238 3.00442 4.18838 0.508262 -2.01984 -4.87427 -0.480286 -0.12908 1.12329 0 0 0 0 0 0 -0.00174699 -0.208475 -0.127563 14.3631 -7.62333 -8.23243 -0.669788 -4.21395 -7.93571 -0.497406 -0.14602 1.15355 47.4132 11.9546 15.5598 1.69851 0.248075 -1.75111 -0.463001 -0.112067 1.09308 
26.982 1 273 34.424 4.96164 4.41787 4.41894 1.33196 1.86622 0.409645 0.325523 0.195804 0 0 0 0 0 0 0.0182902 -0.0610733 -0.0946642 45.529 20.9132 -11.4759 6.46599 0.849756 -1.08825 0.423437 0.329854 0.215143 19.2179 -12.6771 19.169 2.33201 1.8669 4.86612 0.395824 0.32126 0.176447 
26.982 1 36 34.7169 3.00738 2.52389 -0.770448 -2.89878 -3.404 0.469937 -0.212427 -0.0781727 0 0 0 0 0 0 0.0238267 -0.201531 -0.218491 41.9379 -4.19959 -15.0666 2.96666 -5.42929 -6.38681 0.493865 -0.230478 -0.0749187 23.4121 8.42274 18.9202 -4.53571 -0.308005 -0.369291 0.44606 -0.194284 -0.081382 
26.982 1 75 36.877 4.94156 2.40842 3.17749 1.79157 0.413881 -0.700472 0.126677 0.412346 0 0 0 0 0 0 -0.0147522 -0.0561867 -0.25772 41.7904 24.8296 6.33015 6.14331 3.89735 1.74692 -0.704698 0.132033 0.430012 27.1465 -16.7301 -2.66072 0.154913 -0.276304 -0.868204 -0.696368 0.121367 0.394621 
26.982 1 234 36.6157 3.0465 4.58637 1.41365 -9.80653 5.21766 0.101292 0.135566 0.432798 0 0 0 0 0 0 0.0142563 -0.188247 -0.119467 54.2651 -1.10698 -2.85685 6.98097 -11.6878 5.37348 0.111418 0.126283 0.460664 14.1733 5.36842 11.009 -4.22925 -7.86318 5.0947 0.0909636 0.144936 0.404792 
26.982 1 40 38.7421 3.06335 2.85645 -10.2754 -4.86796 -3.77801 0.440861 -0.105555 0.0894136 0 0 0 0 0 0 -0.0179538 -0.201829 -0.158663 49.6426 21.9575 -7.65107 -4.35472 -4.58628 -1.2092 0.466718 -0.103621 0.126568 22.4238 -17.741 12.1701 -16.2461 -5.1103 -6.33624 0.414815 -0.107462 0.0520522 
26.982 1 277 38.7156 5.09778 4.74884 1.19687 1.35649 2.86074 -0.300097 -0.0907374 0.168423 0 0 0 0 0 0 0.00132706 -0.0884268 -0.0568904 37.0495 32.0391 -5.62494 5.53062 0.409742 2.27723 -0.284964 -0.124591 0.176633 34.9475 -23.4841 14.1504 -3.20209 2.39139 3.48919 -0.315423 -0.0567992 0.160091 
26.982 1 964 -2.93389 17.2499 18.3586 6.04417 0.0354643 0.0387339 -0.00578853 -0.0594354 0.183656 0 0 0 0 0 0 -0.176177 -0.0461719 -0.0644084 32.1114 9.34643 17.802 5.82566 -8.65845 0.598045 -0.00196499 -0.0818345 0.189308 50.0553 25.0573 18.9471 6.23372 8.82719 -0.476669 -0.00968262 -0.0369754 0.178051 
26.982 1 223 23.3443 1.05757 6.77985 5.55103 -2.93509 -1.55149 0.0216103 0.501572 -0.23096 0 0 0 0 0 0 0.0625545 -0.26614 -0.0598476 26.7304 11.3585 28.8155 5.79408 -1.85656 1.30066 0.0494334 0.514755 -0.253928 19.2911 -11.3746 -16.2049 5.30851 -3.9664 -4.36004 -0.00645134 0.488399 -0.20801 
26.982 1 241 42.6572 5.14138 5.03981 -6.09997 -0.5724 -5.49925 1.19758 -0.244046 -0.410342 0 0 0 0 0 0 0.0127007 -0.0589401 -0.0277839 -0.272322 13.7707 -15.4208 1.38843 0.0886929 -5.58264 1.21511 -0.271604 -0.405441 -2.4256 -5.08617 24.3622 -13.6706 -1.16564 -5.41782 1.17988 -0.216309 -0.415322 
26.982 1 38 40.867 2.95593 0.900429 -2.03218 2.6326 0.269619 0.203709 0.378838 0.383188 0 0 0 0 0 0 -0.0402265 -0.140259 -0.198735 30.5558 12.6271 70.06 -1.32992 4.97619 3.99216 0.219912 0.408937 0.393829 45.203 -8.57321 11.5897 -2.78329 0.302102 -3.43865 0.187278 0.348654 0.372363 
26.982 1 4 42.8515 3.09292 3.26877 0.29263 6.25297 4.90248 0.312464 -0.333357 -0.0322431 0 0 0 0 0 0 -0.00259963 -0.181273 -0.120463 24.5554 2.32195 10.4694 2.88935 11.528 11.6283 0.318765 -0.328502 -0.00928623 54.5037 1.93326 -5.1854 -2.36465 1.00551 -1.82288 0.306004 -0.338187 -0.0554087 
26.982 1 79 40.785 4.90148 3.03916 -1.7282 1.13759 0.143773 0.041108 0.062746 -0.400274 0 0 0 0 0 0 -0.033286 -0.0726027 -0.13732 31.0287 34.7982 -22.6381 1.44004 5.20131 -1.06615 0.0511309 0.0613592 -0.402988 44.5084 -26.7146 27.5336 -4.96385 -2.88623 1.35839 0.0308185 0.0642272 -0.397724 
26.982 1 238 41.434 2.41232 5.62204 2.74859 3.22817 2.14563 0.204974 0.0788476 0.281236 0 0 0 0 0 0 0.041442 -0.246968 -0.0694253 50.0847 -6.37091 -7.01418 6.30693 3.67118 1.69616 0.223064 0.0743725 0.294616 26.7084 9.33871 17.1957 -0.869507 2.85612 2.58563 0.186773 0.0834281 0.267723 
26.982 1 41 42.9574 4.91322 1.19983 -3.9988 -2.07167 1.77408 0.195069 0.033774 -0.43155 0 0 0 0 0 0 0.0249648 -0.0361984 -0.249621 -10.478 22.7404 6.8286 0.948851 7.26927 -0.599211 0.213784 0.0523666 -0.440578 8.47987 -14.5786 -5.93921 -9.00628 -11.4053 4.16786 0.176206 0.0151653 -0.422636 
26.982 1 141 20.3178 13.443 0.93151 -5.46408 6.40936 -2.66669 0.000752348 0.429816 -0.0875615 0 0 0 0 0 0 0.00530489 0.00079792 -0.238579 16.1474 33.6516 27.9041 -11.6936 17.5602 5.20797 0.00540568 0.43478 -0.0483071 24.5122 -7.37212 53.7603 0.797022 -4.69932 -10.5011 -0.00406956 0.424966 -0.12672 
26.982 1 90 7.88453 10.6098 1.09791 -2.86079 1.41786 -2.25414 0.0436633 0.0147077 0.0216263 0 0 0 0 0 0 0.047499 0.0093992 -0.268326 17.4877 -6.87767 39.6244 -1.65256 -2.90788 -2.10329 0.0516188 0.0305059 0.0303413 1.50432 27.3538 42.4945 -4.08199 5.88017 -2.33432 0.0356474 -0.0010951 0.0129696 
26.982 1 83 -2.12254 9.5159 3.59633 -0.883069 -3.01763 -2.33798 0.27931 -0.444492 -0.0307756 0 0 0 0 0 0 -0.128603 -0.0676958 -0.0749054 -3.93163 29.7942 12.202 -1.03198 -1.03673 -1.80966 0.28895 -0.453461 -0.0294655 5.69583 -12.0024 -6.26794 -0.76785 -4.98302 -2.8253 0.269603 -0.435604 -0.032167 
26.982 1 242 -2.14969 7.16438 5.22701 0.306232 1.03502 2.89316 -0.375571 0.0778184 -0.546469 0 0 0 0 0 0 -0.141825 -0.0188308 -0.0941686 -9.50986 24.6903 19.689 2.87087 1.84121 8.65364 -0.369509 0.0766543 -0.549554 11.1675 -11.8227 -10.2071 -2.33292 0.256478 -2.81303 -0.381767 0.0790738 -0.543466 
26.982 1 48 0.157356 7.57269 3.7321 -0.554679 -1.64527 -4.59549 0.094694 0.317293 -0.0248525 0 0 0 0 0 0 -0.0369806 0.00287332 -0.0601283 -29.9036 42.1825 -20.9363 -5.28446 4.21612 -4.11696 0.0921128 0.326265 -0.0140861 35.7095 -28.4912 26.9395 4.2075 -7.45792 -5.13492 0.0973159 0.308393 -0.0358112 
26.982 1 88 0.485003 10.5464 2.76643 0.195096 0.977868 4.47543 0.415837 -0.593621 0.421832 0 0 0 0 0 0 -0.0258117 0.0135028 -0.152146 -25.9493 23.8517 19.1373 -4.16015 4.91267 12.0492 0.410447 -0.592428 0.434222 32.4841 -3.77482 -14.9755 4.62101 -2.91943 -3.08512 0.421305 -0.594966 0.409303 
26.982 1 42 -2.02578 7.47292 1.59579 -2.0438 2.20538 6.62459 0.246262 -0.127688 0.610662 0 0 0 0 0 0 -0.168173 -0.0398091 -0.186126 1.38293 25.8108 9.95976 -3.25582 6.80002 6.41356 0.241999 -0.129439 0.613118 0.661119 -12.3239 -8.35434 -0.835577 -2.37642 6.85535 0.250562 -0.125913 0.608137 
26.982 1 82 -2.00437 10.2 0.813132 2.9469 -0.620417 -2.09828 0.327786 0.0177958 0.396423 0 0 0 0 0 0 -0.122384 0.0496344 -0.208425 -15.245 18.8916 59.9612 -0.9619 0.650435 0.015051 0.325125 0.0353503 0.395434 17.2622 0.578557 21.4879 6.87731 -1.86905 -4.1531 0.330487 0.000127048 0.397462 
26.982 1 87 2.79392 8.73586 2.95066 1.05652 1.1133 4.20204 -0.424485 -0.37588 0.0857515 0 0 0 0 0 0 -0.00590566 0.0147553 -0.124514 -13.1523 15.893 17.5512 -3.23098 2.4773 12.443 -0.445015 -0.369793 0.107365 23.5859 0.423787 -13.0058 5.40391 -0.187871 -4.03565 -0.40393 -0.381936 0.0639598 
26.982 1 286 2.66685 10.7092 5.00069 -1.58491 4.4034 -3.79168 0.0461817 -0.363364 0.0963368 0 0 0 0 0 0 -0.0106859 0.00208314 -0.011041 -4.30769 34.5201 57.4208 -5.29196 7.47951 8.54982 0.0349552 -0.358321 0.112902 14.5711 -14.288 -48.8521 2.21293 1.34265 -16.1845 0.0575099 -0.368483 0.0795283 
26.982 1 85 0.640585 8.35515 1.01678 -3.97186 0.596046 -2.10683 -0.562276 0.400609 0.0433421 0 0 0 0 0 0 -0.00515212 0.0426153 -0.264895 -26.4262 30.6728 26.6323 -7.99202 3.46073 0.205175 -0.57465 0.419161 0.0591218 33.176 -15.127 -26.2334 0.116213 -2.24522 -4.40033 -0.549733 0.382001 0.0274588 
26.982 1 46 2.69347 6.75683 0.943283 -1.70575 -2.29686 -3.97318 0.984322 -0.521575 0.444834 0 0 0 0 0 0 0.0484088 0.00960076 -0.273758 -16.7554 -4.01845 22.0574 -5.88147 -4.21729 -1.30622 1.01087 -0.53308 0.476061 26.826 16.1854 -21.4901 2.46935 -0.293503 -6.58177 0.957743 -0.509926 0.41346 
26.982 1 289 4.97078 8.82528 4.80545 -9.95815 -1.42008 -2.44425 0.18768 -0.271636 0.579931 0 0 0 0 0 0 -0.00299401 -0.0115992 -0.00454527 17.7659 13.9566 43.1524 -13.3796 -1.67911 6.42634 0.184022 -0.280578 0.609456 -3.8073 2.47857 -34.8533 -6.49794 -1.09188 -11.3478 0.191291 -0.262612 0.550195 
26.982 1 52 5.09081 6.81979 2.79826 -0.108704 -7.20376 0.194167 -0.32089 -0.229704 0.0695443 0 0 0 0 0 0 0.00888146 -0.00300464 -0.158906 12.5349 0.53821 19.2141 0.0151175 -12.3178 4.06057 -0.32993 -0.254538 0.0738565 1.55665 11.7769 -14.8196 -0.263903 -1.97986 -3.63192 -0.312021 -0.204637 0.065098 
26.982 1 91 7.57912 9.67574 3.96751 -1.25615 -1.77148 -3.35062 -0.235093 0.09361 -0.546307 0 0 0 0 0 0 0.0147855 0.00379441 -0.0789004 14.6899 1.81774 14.5195 -0.365509 -5.75943 -1.36102 -0.230034 0.0973383 -0.542053 3.66413 16.4094 -7.84214 -2.15696 2.32617 -5.31132 -0.240188 0.0899138 -0.550633 
26.982 1 250 7.40584 6.84525 4.47309 -4.71442 2.05334 3.15406 -0.118292 -0.0879822 0.638229 0 0 0 0 0 0 -0.00171269 -0.019605 -0.0359238 11.1478 12.2771 40.5919 -3.17576 -3.27791 4.20426 -0.128152 -0.109842 0.65225 6.86065 0.258558 -33.1378 -6.28126 7.52106 2.0924 -0.108499 -0.0659272 0.624077 
26.982 1 89 5.25224 9.5613 2.25789 8.11395 0.365017 1.02468 0.457067 0.365051 -0.696 0 0 0 0 0 0 0.00823156 -0.00564578 -0.233429 17.0765 17.1173 -21.571 7.92907 -2.26368 -1.70556 0.468716 0.380701 -0.694965 -2.67049 0.912358 24.6774 8.30829 3.07882 3.75401 0.445328 0.349374 -0.697077 
26.982 1 50 7.5126 7.85409 1.81941 -3.93524 4.74304 1.44162 -0.0474546 0.497431 0.703902 0 0 0 0 0 0 0.0460818 -0.0285132 -0.262659 24.5752 22.7247 0.77624 3.00079 -5.08175 -0.490596 -0.0382967 0.493247 0.713668 -6.33087 -8.35933 1.5796 -10.9077 14.6788 3.45412 -0.056762 0.501857 0.694202 
26.982 1 293 9.90738 9.74799 5.23513 -1.39802 -2.97445 -0.540586 0.3003 0.337241 0.703675 0 0 0 0 0 0 -0.00656224 0.00978971 -0.0200133 11.796 30.4642 53.604 -1.2045 -5.62389 5.01338 0.291119 0.344049 0.712044 10.6423 -12.2482 -44.4111 -1.5854 -0.227642 -6.08447 0.309526 0.330444 0.695196 
26.982 1 56 9.86346 7.81941 3.49587 0.871796 -5.86166 1.46247 -0.296879 -0.247182 -0.69311 0 0 0 0 0 0 -0.00753537 -0.016898 -0.167523 15.4733 8.48572 21.8538 0.0909292 -16.5129 -0.0367646 -0.311387 -0.269148 -0.710014 6.95432 5.86915 -16.0854 1.65864 4.90588 3.01432 -0.282312 -0.225081 -0.676204 
26.982 1 95 12.3591 8.88903 2.12446 1.11593 -1.88327 4.00345 0.570956 -0.430261 -0.187713 0 0 0 0 0 0 -0.0247723 -0.00899244 -0.268713 8.64906 12.6321 -10.4056 0.627788 -10.3168 2.31891 0.584202 -0.440867 -0.196597 18.0815 3.83031 13.4695 1.62816 6.63947 5.75899 0.557836 -0.419594 -0.178778 
26.982 1 254 12.2773 8.05683 4.7311 8.78428 -5.03838 2.19505 0.43601 -0.394777 0.0146175 0 0 0 0 0 0 -0.00388625 -0.00103536 -0.0463555 2.30874 -2.97572 57.3266 2.92896 -11.7325 10.6971 0.437828 -0.394219 0.0186449 24.3532 17.785 -49.1496 14.6879 1.7333 -6.26528 0.43432 -0.395258 0.0105301 
26.982 1 53 11.8187 6.02585 2.64159 2.97006 4.94665 4.19528 0.363055 0.478051 0.358753 0 0 0 0 0 0 -0.0479828 -0.0182613 -0.240244 -3.35672 32.1252 -26.4965 -7.90848 7.14016 1.8066 0.346745 0.463765 0.347457 29.7407 -21.6493 30.2811 13.8933 2.8683 6.62644 0.379498 0.492542 0.370197 
26.982 1 97 16.5402 9.48355 1.44924 -1.17269 -3.21745 -0.839255 0.343591 -0.628291 0.543698 0 0 0 0 0 0 -0.027293 0.00200926 -0.269932 23.7478 10.4591 18.9829 -0.978983 1.8214 -1.76465 0.350506 -0.629812 0.546454 10.6804 7.30557 -17.5766 -1.33581 -8.21859 0.133027 0.336619 -0.626851 0.541008 
26.982 1 60 16.9809 7.24859 3.33204 -0.620002 0.423433 -0.267433 -0.156114 0.571402 0.352583 0 0 0 0 0 0 -0.00265261 0.012158 -0.103809 31.3683 10.2383 -1.25163 -3.23332 5.65233 -0.466701 -0.147906 0.584275 0.335215 3.93421 2.75608 6.64027 2.0602 -4.77657 -0.0434285 -0.164269 0.558516 0.369962 
26.982 1 297 14.8774 9.27749 3.80226 4.79736 0.00215115 1.79094 -0.293464 -0.0991069 -0.353193 0 0 0 0 0 0 -0.011987 0.0187632 -0.0898806 28.0351 45.0577 1.03992 7.79353 3.32394 1.31125 -0.289764 -0.0817543 -0.356944 3.09927 -27.7255 5.36385 1.81695 -3.25863 2.29445 -0.297104 -0.116491 -0.349455 
26.982 1 54 14.6409 7.14977 1.97582 5.48824 0.700709 -1.22446 -0.467637 0.0514943 -1.09623 0 0 0 0 0 0 -0.0505522 0.00376002 -0.266045 5.39521 23.4615 -29.2064 -0.761553 2.872 -7.57805 -0.475848 0.0488291 -1.12566 25.9971 -10.6637 31.6055 11.8212 -1.40451 5.12749 -0.45932 0.0543133 -1.06671 
26.982 1 299 16.9122 9.57202 5.46379 -6.08117 5.45264 3.82573 0.606423 0.0462176 -0.155962 0 0 0 0 0 0 0.0104351 0.00845322 -0.0194231 4.08217 14.3106 -11.8171 -5.54402 6.18106 0.184634 0.618125 0.0537814 -0.161185 30.4053 3.57483 21.6469 -6.61712 4.72273 7.50069 0.594594 0.0384995 -0.150836 
26.982 1 58 18.844 7.58669 1.24119 -4.32227 2.52421 0.782447 -0.25709 -0.733306 0.466457 0 0 0 0 0 0 -0.0149946 0.0200369 -0.280683 3.08357 61.1911 25.4738 -6.59106 12.1307 3.18338 -0.258145 -0.733388 0.456282 35.2097 -47.4923 -24.2018 -2.00752 -7.08635 -1.51508 -0.25609 -0.733397 0.476682 
26.982 1 99 18.988 9.5243 3.26432 6.63979 -8.60229 0.251436 -0.168301 -0.17482 -0.263449 0 0 0 0 0 0 0.01118 0.0206196 -0.0901415 29.0067 29.0161 14.1541 8.9299 3.66267 4.71196 -0.153582 -0.155886 -0.262434 9.63768 -11.2602 -8.8651 4.37546 -20.8669 -4.16822 -0.183273 -0.194026 -0.26447 
26.982 1 258 19.0149 7.5723 5.19962 -2.39723 -2.61001 1.17667 0.127961 -0.0307097 -0.0662393 0 0 0 0 0 0 -0.00272405 0.0129717 -0.0104539 16.9093 11.8684 5.76015 -3.96799 2.82405 2.78565 0.127633 -0.0194445 -0.0666113 21.7185 1.79683 3.42343 -0.786616 -8.05031 -0.441212 0.128157 -0.0422023 -0.0659882 
26.982 1 64 21.0657 7.2524 3.1162 -0.895263 -7.56111 3.7563 0.100832 0.318939 -0.345864 0 0 0 0 0 0 0.0165805 0.042987 -0.105453 20.9211 5.25477 2.32707 -3.68236 -3.2261 5.15282 0.110505 0.364107 -0.35701 21.1557 7.84306 2.62864 1.91912 -11.9143 2.39596 0.0910612 0.273527 -0.334686 
26.982 1 301 21.2964 9.39711 4.85293 -1.7831 3.74516 -1.34945 0.235607 0.493123 -0.627269 0 0 0 0 0 0 0.0263406 0.0559347 -0.0142712 12.5788 1.0569 3.53346 -5.29245 14.0862 3.12183 0.262001 0.546312 -0.617753 29.9819 16.4546 5.04623 1.77503 -6.6172 -5.79568 0.209211 0.439706 -0.636786 
26.982 1 103 23.6531 8.87153 2.32601 0.424849 0.787104 -4.38477 -0.381906 -0.0857962 0.159187 0 0 0 0 0 0 0.00341011 0.0502163 -0.199579 13.5063 25.5668 -5.16751 -6.31924 5.13195 -6.42811 -0.408085 -0.0647225 0.153885 33.1085 -8.96437 8.57008 7.22678 -3.56669 -2.30138 -0.355586 -0.107109 0.164601 
26.982 1 262 23.4128 6.90434 4.62249 0.410516 2.56542 -3.22251 0.14286 0.40037 -0.0257391 0 0 0 0 0 0 0.00431533 0.0138386 -0.0520866 17.7933 3.91061 1.89264 -3.56937 4.18197 -3.95225 0.14476 0.414459 -0.0415753 28.3663 8.4472 6.20874 4.43421 0.952975 -2.47432 0.141046 0.386084 -0.00988964 
26.982 1 305 25.7099 8.67064 4.09319 -0.175997 -1.33514 -0.46333 0.130409 0.353155 0.0375727 0 0 0 0 0 0 -0.0110374 0.0103408 -0.0826631 27.6356 54.2442 -18.7946 -1.55095 2.25149 -2.53445 0.110287 0.354756 0.0321862 22.512 -38.0811 25.8431 1.26182 -4.89502 1.66185 0.150849 0.35145 0.0431129 