ITEM: TIMESTEP
2950
ITEM: NUMBER OF ATOMS
4000
ITEM: BOX BOUNDS pp pp pp
-0.67376 41.1738
0.145739 40.3543
0.133709 40.3663
ITEM: ATOMS mass type id x y z vx vy vz fx fy fz xrad yrad zrad vxrad vyrad vzrad fxrad fyrad fzrad xub yub zub vxub vyub vzub fxub fyub fzub xlb ylb zlb vxlb vylb vzlb fxlb fylb fzlb 
26.982 1 3 1.40818 0.120422 1.9174 -3.53884 -0.0398965 4.98996 -0.171948 0.144582 0.498758 0 0 0 0 0 0 -0.0254401 -0.120774 -0.157695 1.56407 0.186107 1.95349 -3.89045 0.929271 5.53441 -0.181132 0.13703 0.519935 2.3141 -0.386075 1.5169 -3.18386 -1.01086 4.45096 -0.162737 0.152143 0.477559 
26.982 1 8 3.53984 2.23961 2.13286 -0.785554 -1.27979 1.9246 -0.0689414 0.0243064 0.249693 0 0 0 0 0 0 -0.0249536 -0.142024 -0.173305 2.94764 3.38268 2.31881 -1.81106 -0.471073 2.52609 -0.0698407 0.0174956 0.257741 5.07863 0.707627 1.58164 0.244575 -2.08631 1.3286 -0.0680445 0.0311513 0.241607 
26.982 1 43 1.32774 4.20073 2.22491 0.173635 6.1213 -3.66364 0.33382 -0.0335012 0.0268314 0 0 0 0 0 0 -0.0725757 -0.0779802 -0.259768 -0.334427 3.73653 2.81348 -0.956164 6.19638 -3.25277 0.32883 -0.0264087 0.016423 4.06067 4.31816 1.27122 1.30814 6.05263 -4.07152 0.33886 -0.0405902 0.0372066 
26.982 1 202 1.35973 2.12725 4.1086 3.43957 -0.505892 -3.72201 0.162654 -0.0853477 0.289783 0 0 0 0 0 0 -0.0366784 -0.0990041 -0.133126 1.38795 1.3664 4.61703 3.52317 -0.948922 -3.60022 0.161433 -0.0881587 0.310155 2.39945 2.49793 3.2827 3.36196 -0.0576085 -3.83754 0.163893 -0.0824986 0.269331 
26.982 1 241 -0.645357 4.21222 4.20669 -1.57784 1.11763 -8.89596 -0.249962 0.098177 -0.138269 0 0 0 0 0 0 -0.108392 -0.109835 -0.162117 -1.54344 4.29897 3.95888 -2.19232 1.09695 -9.16662 -0.260613 0.0970608 -0.142162 1.43642 3.77391 4.14226 -0.960906 1.14144 -8.61529 -0.239256 0.0993204 -0.134394 
26.982 1 201 -0.720264 0.101925 4.08641 -0.974586 3.98828 5.72088 -0.10349 0.214118 0.237309 0 0 0 0 0 0 -0.093102 -0.0682132 -0.217693 41.028 41.4284 3.62652 -0.436749 5.36941 6.02852 -0.114561 0.225812 0.247643 40.0506 39.6341 4.22087 -1.51022 2.61086 5.41662 -0.0923891 0.202404 0.226961 
26.982 1 245 3.6062 4.017 4.22034 -2.75388 3.01302 -2.52608 -0.147431 0.261205 0.0467141 0 0 0 0 0 0 -0.0119559 -0.0473943 -0.076081 3.67788 3.49507 4.65041 -3.06158 3.64073 -2.42269 -0.148165 0.270941 0.0464738 4.48382 4.19899 3.46985 -2.4412 2.39222 -2.62316 -0.146689 0.251518 0.0468562 
26.982 1 47 5.65139 4.26362 2.20048 3.03542 -1.94111 -0.579477 -0.0824646 -0.577807 0.163884 0 0 0 0 0 0 -0.00909282 -0.0712582 -0.176115 5.01378 4.53045 1.40512 2.27158 -1.50435 -0.835907 -0.0807691 -0.599965 0.163593 7.11212 3.65994 2.63194 3.798 -2.36979 -0.317921 -0.0841733 -0.555603 0.164145 
26.982 1 206 5.79736 2.14249 4.20628 -3.69424 -1.70531 -0.547906 -0.390607 0.189238 0.169855 0 0 0 0 0 0 -0.000985081 -0.177735 -0.108695 6.69422 2.98415 5.77044 -3.52258 -1.50748 0.402894 -0.389944 0.191517 0.174015 5.72507 0.912653 2.32202 -3.86542 -1.89862 -1.48904 -0.391269 0.186996 0.165608 
26.982 1 6 5.58188 2.10784 0.203985 -3.03608 -1.87771 -4.43353 -0.0418389 0.224644 -0.359298 0 0 0 0 0 0 -0.0181005 -0.108454 -0.196824 5.02511 2.15191 1.14596 -3.39395 -1.993 -4.35134 -0.0399895 0.220088 -0.377485 6.959 1.67872 -1.14192 -2.67998 -1.75733 -4.50786 -0.0437228 0.229221 -0.341057 
26.982 1 12 7.6409 2.01676 2.1145 2.91712 -0.297837 -1.41494 0.371357 0.271732 -0.0539854 0 0 0 0 0 0 -0.0237051 -0.188739 -0.127299 7.25329 1.75281 1.91668 2.78356 -0.440321 -1.27749 0.384809 0.285606 -0.0612692 8.73123 1.88872 1.95082 3.04524 -0.15402 -1.54614 0.35784 0.257895 -0.0467083 
26.982 1 249 7.78122 4.0934 4.07032 3.08016 -1.09843 -3.06894 -0.0405364 0.179521 0.301816 0 0 0 0 0 0 -0.0113243 -0.0555384 -0.0431878 8.87982 2.62004 3.36937 3.36327 -2.15251 -3.19056 -0.0360162 0.173792 0.321756 7.381 5.22594 4.44567 2.7905 -0.0373132 -2.94464 -0.0450958 0.185295 0.281822 
26.982 1 10 9.74853 2.00657 0.000608578 5.23111 0.746304 -4.51035 -0.0611381 0.479844 0.383348 0 0 0 0 0 0 -0.0871615 -0.100631 -0.192912 10.9143 1.59762 -0.706834 5.86724 0.912851 -5.07791 -0.0588352 0.506616 0.387675 9.17149 2.02819 0.307655 4.5909 0.584272 -3.93347 -0.0634609 0.453088 0.379024 
26.982 1 16 11.8757 2.10806 2.00416 -2.95297 1.42602 -3.85892 -0.123504 0.180485 0.313677 0 0 0 0 0 0 -0.056957 -0.102355 -0.0916928 13.1395 2.49242 0.54563 -2.58449 1.49453 -4.84407 -0.13149 0.179635 0.314982 11.0855 1.33297 3.09712 -3.32007 1.36126 -2.86744 -0.115526 0.181309 0.312334 
26.982 1 51 9.87741 4.0737 2.1715 3.27375 1.2796 1.51326 -0.356378 -0.230389 -0.410827 0 0 0 0 0 0 -0.0428969 -0.0411991 -0.137325 8.76519 3.94203 1.41798 2.43698 1.56871 0.735124 -0.350864 -0.251003 -0.42654 11.573 3.86591 2.55794 4.10455 0.997955 2.29819 -0.361966 -0.209722 -0.395129 
26.982 1 53 11.7408 4.18908 -0.104662 -1.33197 2.76879 -2.94489 0.372018 -0.401233 0.475953 0 0 0 0 0 0 0.0172746 0.041228 -0.261761 12.2438 4.53923 -1.56434 -1.07583 3.74592 -4.16969 0.370259 -0.409624 0.490172 11.7134 3.49724 0.951208 -1.58658 1.79954 -1.70898 0.373754 -0.392821 0.461724 
26.982 1 210 9.67307 2.02865 4.14608 1.14067 -0.596473 3.10639 0.315567 -0.153835 0.167166 0 0 0 0 0 0 -0.0531577 -0.159426 -0.0803714 9.51796 2.53038 4.65936 0.76045 -0.466596 4.03448 0.319518 -0.168513 0.170509 10.4119 1.12951 3.30774 1.51582 -0.726506 2.1804 0.311559 -0.139141 0.163801 
26.982 1 13 11.9339 0.102009 0.176725 7.50864 -1.18881 -3.10692 -0.292928 -0.118199 -0.259744 0 0 0 0 0 0 -0.0475155 -0.201677 -0.149867 10.7047 40.0799 39.5605 7.07291 -1.95399 -3.58066 -0.299424 -0.128741 -0.264672 13.6356 40.9907 41.6925 7.94426 -0.417202 -2.62233 -0.286401 -0.107687 -0.254857 
26.982 1 253 11.7929 4.10339 4.1378 4.7846 -4.64919 3.37538 0.539364 -0.205884 0.141231 0 0 0 0 0 0 0.00110114 -0.0126864 -0.0182312 12.0449 4.78803 6.84315 4.80051 -4.5777 5.0726 0.55099 -0.214194 0.146919 12.0146 3.0829 1.10738 4.77137 -4.7128 1.68346 0.527669 -0.197562 0.135526 
26.982 1 20 15.9871 2.1652 1.98508 0.400256 -2.50221 -6.73556 0.36407 -0.162236 0.208008 0 0 0 0 0 0 0.0351544 -0.0996411 -0.138892 16.2604 -0.195159 3.10828 0.573136 -3.28396 -6.24647 0.37245 -0.162475 0.221642 15.9516 4.15099 0.491779 0.22628 -1.70602 -7.2218 0.355636 -0.162 0.194317 
26.982 1 55 14.0319 4.06289 1.95062 -2.77767 3.27966 0.00646222 -0.518177 0.288368 0.175381 0 0 0 0 0 0 -0.00128979 0.0475193 -0.13945 14.5494 3.60646 2.2214 -2.60005 3.05225 0.450206 -0.531053 0.294566 0.188213 13.875 4.18367 1.31317 -2.9504 3.51652 -0.430189 -0.505343 0.282159 0.162506 
26.982 1 57 16.0951 4.1729 0.0810727 -0.995658 -2.00598 -2.60146 0.0939704 -0.243671 -0.146869 0 0 0 0 0 0 0.0231108 0.0631328 -0.276553 16.3412 4.50987 -1.935 -0.94959 -1.45592 -3.22056 0.104052 -0.248608 -0.151403 16.0907 3.49903 1.69456 -1.03709 -2.54699 -1.96994 0.0838551 -0.238768 -0.142365 
26.982 1 214 13.9813 2.182 4.05378 -1.62067 5.13003 -1.57657 0.158746 0.219691 0.32516 0 0 0 0 0 0 0.00257392 -0.0601601 -0.029154 15.5663 1.71532 5.4556 -1.02305 5.06153 -0.512736 0.162113 0.222669 0.338239 12.7519 2.26095 2.319 -2.21662 5.20518 -2.64143 0.155338 0.216671 0.312075 
26.982 1 257 16.2448 4.01821 4.19888 1.71888 -3.15642 0.986015 -0.504702 0.236527 -0.201126 0 0 0 0 0 0 0.0049712 0.00467826 -0.0379109 16.5014 3.00623 4.72039 1.77076 -4.1268 1.46931 -0.51058 0.248367 -0.201246 16.2348 4.69699 3.34708 1.66982 -2.17667 0.503324 -0.49883 0.22469 -0.201024 
26.982 1 213 12.0433 0.18749 4.19232 0.659979 0.196499 -4.68415 -0.994717 -0.157061 -0.147171 0 0 0 0 0 0 -0.0713303 -0.19766 -0.11434 11.8813 -0.116639 3.00368 0.13059 -0.27507 -5.0675 -1.02134 -0.170889 -0.144319 12.6741 0.0497926 5.04877 1.18825 0.667668 -4.30049 -0.968099 -0.143272 -0.150028 
26.982 1 15 13.9284 0.0638431 2.23913 -1.97432 1.77044 -2.19833 0.290466 0.157398 -0.481051 0 0 0 0 0 0 0.0228526 -0.245182 -0.120071 14.1857 39.6483 2.16889 -2.27671 1.52123 -2.11521 0.297548 0.154155 -0.486587 14.0206 41.3401 1.94585 -1.67389 2.02091 -2.27415 0.283348 0.160618 -0.475574 
26.982 1 217 15.9925 0.139826 4.21444 4.38114 -3.81095 1.54764 0.12196 0.104809 0.0265721 0 0 0 0 0 0 0.0349136 -0.177935 -0.107782 17.3144 40.0007 4.72921 5.19519 -4.54632 1.84569 0.132005 0.106486 0.0261584 14.9042 41.139 3.37549 3.56291 -3.07236 1.25415 0.111811 0.103137 0.0269734 
26.982 1 14 13.917 2.01994 0.0929196 -1.15038 1.69535 2.58445 -0.0835725 0.355338 0.00912434 0 0 0 0 0 0 0.0386032 -0.0721313 -0.251402 13.7602 2.48331 38.368 -1.50776 2.58806 1.70871 -0.0946077 0.377132 0.0109067 14.4318 1.17106 42.7091 -0.78946 0.806819 3.46745 -0.0725546 0.333516 0.00728567 
26.982 1 218 18.2104 2.06911 4.16487 -2.04275 0.809039 -0.831645 0.187231 0.108749 0.422964 0 0 0 0 0 0 0.0557383 -0.114498 -0.0483507 16.8474 -0.182125 4.67809 -2.49805 -0.103665 -0.39737 0.192123 0.0965218 0.432133 19.6944 3.94903 3.32626 -1.5906 1.73773 -1.26263 0.182366 0.121024 0.413793 
26.982 1 18 18.4184 2.16084 0.156513 -4.75744 -1.81322 -1.68957 -0.64096 0.00988264 0.255859 0 0 0 0 0 0 0.044626 -0.0797584 -0.237755 18.5885 1.30003 0.602058 -4.49861 -2.20359 -1.26056 -0.646738 0.00228276 0.26829 18.3667 2.6455 -0.697228 -5.01829 -1.40971 -2.11605 -0.635173 0.0174914 0.243395 
26.982 1 59 18.2393 4.14105 2.05166 2.64857 1.17595 -1.82125 -0.208761 -0.266563 0.283998 0 0 0 0 0 0 0.0362782 0.0169124 -0.171724 19.3782 3.5018 2.19912 3.38955 0.965878 -1.41057 -0.214166 -0.264146 0.292276 17.2234 4.44698 1.53803 1.90767 1.40039 -2.22811 -0.203311 -0.268971 0.275676 
26.982 1 19 17.9907 0.284914 2.27775 -0.628691 -5.42227 1.39287 0.473228 -0.531786 -0.639414 0 0 0 0 0 0 0.068506 -0.243643 -0.127432 19.447 -1.62683 3.03732 0.560794 -6.47035 1.94297 0.47766 -0.555554 -0.636711 16.6499 1.77058 1.15166 -1.82361 -4.36747 0.847055 0.468768 -0.508035 -0.642182 
26.982 1 22 22.4921 2.07051 0.205232 1.24414 -0.598019 -2.86952 -0.431573 0.156289 -0.763653 0 0 0 0 0 0 -0.00133239 -0.0881728 -0.209524 24.0905 1.96887 -0.499906 1.94833 -0.444248 -2.82679 -0.431044 0.154782 -0.778749 20.7818 1.79863 0.508536 0.540503 -0.736123 -2.90639 -0.43208 0.157851 -0.748534 
26.982 1 24 20.4208 2.24521 2.09826 5.30757 0.104365 2.49093 -0.434411 -0.297782 0.251386 0 0 0 0 0 0 0.0397228 -0.152802 -0.129067 19.8094 1.69272 2.5118 5.01076 0.0964143 2.54666 -0.445488 -0.313487 0.265401 21.032 2.42638 1.31922 5.60092 0.129963 2.43808 -0.423257 -0.282008 0.237345 
26.982 1 63 22.3618 4.16022 2.08146 -0.224758 -0.671444 -4.77516 -0.0850712 0.592548 0.16827 0 0 0 0 0 0 -0.00295004 0.00171588 -0.201218 22.6101 4.82844 0.685286 0.272473 -0.371933 -4.71755 -0.0904766 0.602929 0.174753 21.9992 3.16362 3.11697 -0.722173 -0.952905 -4.82677 -0.0796393 0.582173 0.161769 
26.982 1 222 22.4922 2.25492 4.09188 2.34054 0.897299 1.35046 -0.38944 -0.158433 0.288202 0 0 0 0 0 0 -0.00683643 -0.170342 -0.0808643 21.686 1.21812 4.37967 2.12988 1.12138 1.63696 -0.394269 -0.164043 0.303406 23.1827 2.91992 3.47845 2.55163 0.688325 1.06948 -0.384566 -0.152789 0.272979 
26.982 1 261 20.2723 4.13833 4.22418 -0.517167 10.9394 -0.319582 0.0948308 -0.0648364 -0.407944 0 0 0 0 0 0 0.0133006 -0.0336813 -0.0616766 19.2131 3.25362 4.76248 -0.972979 10.6031 0.277288 0.0935558 -0.060175 -0.416248 21.333 4.69145 3.35844 -0.063423 11.291 -0.913571 0.0961776 -0.0694941 -0.399683 
26.982 1 28 24.3525 2.32099 2.1151 -4.50184 -1.02104 2.00011 0.6781 -0.555115 0.145872 0 0 0 0 0 0 -0.0262737 -0.137778 -0.142126 23.7373 3.13353 2.13762 -4.73662 -0.140375 2.37526 0.691966 -0.579983 0.153127 24.7407 1.13663 1.72633 -4.26193 -1.88325 1.62849 0.66421 -0.530235 0.138617 
26.982 1 27 26.4439 0.222026 2.25207 0.203578 0.800894 -2.05377 -0.0527378 0.0173764 -0.230421 0 0 0 0 0 0 -0.101469 -0.217806 -0.0930598 26.7181 0.365413 1.06229 0.441391 1.57644 -2.90356 -0.0610299 0.023539 -0.230126 25.8197 -0.343148 3.07129 -0.0302694 0.0346293 -1.20144 -0.0444857 0.0112181 -0.230749 
26.982 1 67 26.4174 4.26019 2.19408 -5.58348 4.10752 -3.5531 0.462844 0.0392665 0.146316 0 0 0 0 0 0 -0.00735635 0.0190281 -0.196786 27.5605 2.62112 2.04707 -5.19551 3.50247 -3.47872 0.47285 0.0284422 0.156567 24.9216 5.5642 1.97941 -5.96993 4.72071 -3.62185 0.452818 0.0501181 0.136031 
26.982 1 226 26.4808 2.16907 4.23557 -3.04476 2.93821 9.13829 0.153051 0.319719 0.116601 0 0 0 0 0 0 -0.04913 -0.0833025 -0.0472129 26.4524 1.65576 3.77524 -3.17339 3.65471 9.42659 0.16215 0.332682 0.12429 26.1596 2.31043 4.3652 -2.91177 2.23617 8.85162 0.143892 0.306784 0.108867 
26.982 1 265 24.4423 4.21309 4.2183 0.500684 1.28566 -0.246714 -0.00237038 0.230703 0.147013 0 0 0 0 0 0 -0.00921828 -0.0346911 -0.0530408 24.8073 3.11318 3.65123 0.966671 0.86696 -0.490777 -0.00205376 0.228548 0.152211 23.8458 4.98161 4.45617 0.0359133 1.71712 -0.00141814 -0.00271552 0.232855 0.141775 
26.982 1 26 26.6663 2.22652 0.251752 2.85548 -2.85358 1.27748 -0.636143 -0.0551376 -0.195473 0 0 0 0 0 0 -0.0527825 -0.0118132 -0.249634 26.0501 3.46784 0.423256 2.58451 -2.34652 1.65058 -0.64653 -0.0609056 -0.197469 26.9324 0.607285 -0.317656 3.12974 -3.34863 0.915467 -0.625757 -0.0493488 -0.193492 
26.982 1 30 30.7482 2.20556 0.347632 3.36693 -3.32545 -4.41282 0.0866565 0.00981386 -0.505495 0 0 0 0 0 0 -0.0474021 -0.0242131 -0.259512 30.5449 0.608053 0.0469847 3.75508 -3.99733 -4.73745 0.0888497 0.0140027 -0.516773 30.352 3.42326 0.247244 2.97366 -2.64351 -4.08021 0.0844908 0.00563675 -0.494254 
26.982 1 32 28.5706 2.20339 2.13939 2.41815 -1.62753 2.51552 0.378705 0.508533 0.279279 0 0 0 0 0 0 -0.0285666 -0.017721 -0.119687 27.8575 2.19288 1.97716 2.02168 -0.948566 2.76605 0.384401 0.527779 0.295655 28.8048 1.84105 1.93718 2.81277 -2.29268 2.27153 0.373013 0.489316 0.262854 
26.982 1 71 30.8805 4.2761 2.06576 -1.32554 1.56717 4.8694 -0.502201 -0.134159 0.267109 0 0 0 0 0 0 -0.0634464 -0.00397778 -0.12248 30.923 4.78215 2.01407 -0.999278 1.87518 5.06705 -0.513187 -0.149011 0.272485 30.2397 3.42744 1.76142 -1.65485 1.26707 4.68197 -0.491176 -0.119263 0.261697 
26.982 1 230 31.0299 2.37402 4.20412 -2.27167 4.76514 -1.21535 -0.833297 -0.345003 0.0068346 0 0 0 0 0 0 -0.0326556 -0.0633512 -0.0210844 29.8018 1.02556 3.97189 -2.93069 4.83939 -1.06284 -0.860333 -0.360665 0.0114694 31.6637 3.3477 4.12076 -1.61406 4.70499 -1.3582 -0.806193 -0.329313 0.00218641 
26.982 1 269 28.7375 4.13407 4.17913 1.35199 0.716911 1.19857 -0.183555 -0.111844 -0.414829 0 0 0 0 0 0 -0.0198064 -0.00689073 -0.0562501 28.3301 5.53699 5.4847 1.12081 1.96989 2.59914 -0.187641 -0.118124 -0.424862 28.6722 2.39293 2.55076 1.58565 -0.528079 -0.194686 -0.179445 -0.105486 -0.404832 
26.982 1 36 32.9107 2.28967 2.15434 -2.54133 4.50193 3.94736 -0.157002 0.129961 -0.0769954 0 0 0 0 0 0 -0.00517392 -0.0616955 -0.100007 32.6085 2.51407 2.11077 -2.60167 4.92061 3.87097 -0.163977 0.127546 -0.0789438 32.5027 1.68861 1.84635 -2.48203 4.095 4.03693 -0.150001 0.132413 -0.0750608 
26.982 1 73 32.7951 4.2067 0.1204 3.06381 -2.18638 -0.471848 0.274063 -0.195397 -0.324322 0 0 0 0 0 0 -0.00481734 -0.00936911 -0.284128 31.4019 5.55486 0.754671 2.8312 -1.11275 0.0405004 0.276113 -0.207974 -0.335451 33.4732 2.51975 -0.914316 3.29234 -3.25068 -0.975282 0.272012 -0.182799 -0.313195 
26.982 1 273 32.9948 4.18995 4.22038 -1.57209 1.74721 0.221223 -0.0399873 0.445384 -0.081235 0 0 0 0 0 0 0.0048604 0.0120853 -0.0156849 34.4165 3.4617 4.29887 -0.607649 1.7191 0.229631 -0.0377566 0.462432 -0.0877789 30.8561 4.57036 3.81934 -2.5407 1.78085 0.219223 -0.0422048 0.428312 -0.0747139 
26.982 1 229 28.6184 0.31579 4.04679 1.38878 -0.386549 0.916142 0.101406 -0.288248 0.778369 0 0 0 0 0 0 -0.0226341 -0.191003 -0.0723968 27.7616 38.0199 5.05777 1.57601 -1.48849 1.8097 0.105799 -0.303083 0.813726 29.002 43.4887 2.7172 1.20079 0.724951 0.0306358 0.097006 -0.273435 0.742999 
26.982 1 31 30.7623 0.167912 2.26462 -5.61044 1.34095 2.31005 0.250598 0.0468278 0.0279672 0 0 0 0 0 0 -0.00320945 -0.235512 -0.0942196 30.2382 38.7232 1.67278 -5.71631 0.895506 1.95268 0.256048 0.0354374 0.0215682 30.6884 42.4927 2.4989 -5.50954 1.80044 2.67743 0.245183 0.0582386 0.0342855 
26.982 1 29 28.7363 0.156974 0.321493 -0.330175 -4.09336 -0.406414 -0.0612262 0.121011 -0.387179 0 0 0 0 0 0 -0.0383351 -0.170257 -0.197216 28.3688 -0.81622 40.8092 -0.467419 -4.14895 -0.267973 -0.0656442 0.118388 -0.404105 28.623 0.706267 40.7219 -0.197048 -4.02872 -0.536309 -0.0567968 0.123632 -0.370308 
26.982 1 33 32.9212 0.252664 0.278417 1.94859 2.34349 -0.143952 -0.595412 -0.156548 -0.581985 0 0 0 0 0 0 -0.0112716 -0.189739 -0.20805 32.8975 40.8832 0.400212 2.0297 2.50524 -0.172603 -0.603382 -0.170826 -0.590624 32.2392 40.495 -0.251677 1.8691 2.19329 -0.109654 -0.587458 -0.142238 -0.57339 
26.982 1 35 34.7228 0.309398 2.09957 -4.61845 1.04052 -1.11264 1.16483 -0.393752 0.310324 0 0 0 0 0 0 0.055163 -0.241302 -0.0909019 34.1314 1.02708 1.77148 -4.89943 1.66018 -1.1401 1.18661 -0.411993 0.311829 34.4945 -0.836279 2.07401 -4.33257 0.432927 -1.07311 1.14303 -0.375433 0.30882 
26.982 1 75 34.9282 4.26514 1.97387 -3.41458 -1.06405 -5.21973 0.00887475 0.144109 0.513124 0 0 0 0 0 0 0.0545583 0.000519434 -0.122406 36.0854 3.47923 1.37332 -2.95804 -1.57832 -5.63673 0.0132274 0.1573 0.533734 32.9374 4.69819 2.21642 -3.87421 -0.549088 -4.79411 0.00446636 0.130891 0.492497 
26.982 1 234 34.9904 2.2947 4.13286 2.87394 0.838815 -1.70315 -0.203314 -0.131574 -0.129765 0 0 0 0 0 0 0.0196746 -0.0617273 -0.0455618 36.1707 1.47672 4.50141 3.4566 0.765696 -1.54532 -0.199166 -0.137919 -0.141132 32.9792 2.72333 3.44871 2.2895 0.917706 -1.85054 -0.207491 -0.125228 -0.118364 
26.982 1 34 35.0235 2.20149 0.120787 -4.00356 -1.05072 1.32164 -0.178271 0.169435 -0.0857152 0 0 0 0 0 0 0.0465024 -0.0252191 -0.259208 35.6869 4.57588 41.8496 -3.44467 0.536718 2.1052 -0.177988 0.170734 -0.0970851 33.5359 -0.563595 39.2805 -4.55971 -2.6326 0.543163 -0.178589 0.168186 -0.0743726 
26.982 1 233 32.9293 0.402993 4.19618 -1.08678 3.99758 3.59677 -0.148565 -0.571449 0.239073 0 0 0 0 0 0 -0.00609396 -0.200161 -0.0784893 32.5851 39.8313 2.95602 -1.1926 4.02068 3.36691 -0.15634 -0.601298 0.234832 32.5685 41.8491 5.12748 -0.978445 3.98677 3.83866 -0.140735 -0.541547 0.24334 
26.982 1 237 37.0366 0.168803 4.19438 -3.39148 3.64891 2.61604 0.320732 0.121299 -0.317052 0 0 0 0 0 0 0.0439839 -0.181898 -0.162613 36.6417 -0.18596 4.83726 -3.28076 4.07058 3.33164 0.337972 0.119602 -0.343371 36.4823 0.0890075 3.23062 -3.50366 3.23327 1.90744 0.303482 0.123032 -0.290665 
26.982 1 4 41.2406 2.26933 2.22086 1.91508 -0.791561 -2.31958 -0.223704 -0.484612 -0.353346 0 0 0 0 0 0 0.0191693 -0.144311 -0.17559 38.9053 2.58728 2.33935 1.03851 -0.688716 -2.3293 -0.233945 -0.502839 -0.359008 42.3972 1.55417 1.74398 2.79223 -0.892558 -2.30351 -0.21338 -0.466365 -0.347725 
26.982 1 40 36.9923 2.29903 2.21438 1.72215 4.0959 4.80947 0.0828818 -0.298595 -0.142876 0 0 0 0 0 0 0.0552397 -0.0772377 -0.141621 37.6249 3.70933 2.39504 2.12977 5.1585 4.66051 0.0927385 -0.307054 -0.158053 35.4121 0.489038 1.67915 1.31396 3.03295 4.9676 0.0729907 -0.29011 -0.127711 
26.982 1 79 39.1497 4.15595 2.11755 3.29089 2.79112 -1.88059 -0.185586 0.633468 0.191855 0 0 0 0 0 0 -0.0247176 -0.0194365 -0.129552 38.391 5.05061 1.76792 2.98436 3.45639 -2.29493 -0.193265 0.649203 0.19998 38.8452 2.91272 2.10853 3.59783 2.13059 -1.45778 -0.177857 0.617726 0.183715 
26.982 1 238 39.1174 2.16651 4.0171 -0.431376 4.19603 -0.109619 -0.112623 -0.00423592 0.743372 0 0 0 0 0 0 0.00177395 -0.102083 -0.0757918 39.5436 2.86926 3.84786 0.155263 5.05624 0.0493802 -0.113574 -0.00893699 0.759078 37.627 1.07164 3.86808 -1.01939 3.34259 -0.260672 -0.111654 0.000472309 0.727695 
26.982 1 277 36.9708 4.3313 4.25961 4.82088 -0.529443 -0.886911 0.276615 0.0791505 -0.271845 0 0 0 0 0 0 0.0166555 0.00174266 -0.0533567 36.3641 3.91156 3.947 4.75657 -0.144619 -1.50147 0.290091 0.0952501 -0.299192 36.6282 4.39916 4.25396 4.88323 -0.911725 -0.264286 0.263131 0.0630165 -0.24449 
26.982 1 37 37.1472 0.41329 0.0124313 -0.302336 4.12472 -5.59028 -0.163684 -0.493557 0.284001 0 0 0 0 0 0 0.0558071 -0.168143 -0.152517 38.351 1.41738 41.6532 0.721208 5.07773 -5.3119 -0.160965 -0.517549 0.293284 35.0042 -1.02375 39.2638 -1.32129 3.18093 -5.86001 -0.166394 -0.46956 0.274667 
26.982 1 38 39.2136 2.37542 0.00400251 -1.25972 3.513 -1.68931 -0.000840651 -0.70687 0.366753 0 0 0 0 0 0 0.0210059 -0.088346 -0.216996 38.3805 2.50094 41.8263 -1.39438 3.8769 -1.16095 0.00298312 -0.725016 0.384441 38.9852 1.84958 39.0679 -1.12393 3.15073 -2.21438 -0.00461752 -0.688716 0.34905 
26.982 1 41 41.2837 4.21508 0.240919 3.14898 1.03642 -1.28643 -0.0535868 0.259101 -0.450333 0 0 0 0 0 0 0.0840501 -0.0225669 -0.276788 -2.19971 5.04549 3.0533 1.77978 1.53481 0.166692 -0.0566936 0.268833 -0.470802 2.25901 3.03665 -2.98406 4.52162 0.543875 -2.73238 -0.0504022 0.249338 -0.429856 
26.982 1 83 1.54385 8.21582 2.22652 1.24798 -1.9098 6.40869 -0.28219 0.0744342 -0.129254 0 0 0 0 0 0 -0.0513991 -0.0237414 -0.25856 0.87417 9.43011 2.27287 0.945123 -0.944831 7.01297 -0.292002 0.0778756 -0.133563 3.28619 6.73921 1.81064 1.55448 -2.87573 5.80417 -0.272327 0.0710082 -0.124919 
26.982 1 242 1.48415 6.14729 4.05357 5.79934 2.81494 3.54134 -0.0282441 0.22954 0.325445 0 0 0 0 0 0 -0.0533883 -0.0146204 -0.0964564 0.450533 6.2385 4.63456 5.19184 2.59858 4.23676 -0.0307407 0.232644 0.343246 3.58773 5.75728 3.15486 6.41068 3.03679 2.85183 -0.025719 0.226462 0.307629 
26.982 1 44 -0.726044 6.36672 2.15063 -4.52995 0.510048 1.52726 0.285139 -0.394034 -0.191184 0 0 0 0 0 0 -0.158965 -0.048082 -0.214312 39.6704 4.95475 2.40596 -4.81558 0.030931 1.78323 0.271631 -0.399671 -0.199342 41.4019 7.47262 1.53116 -4.23911 0.989977 1.27478 0.298722 -0.388408 -0.183018 
26.982 1 281 -0.584799 8.22709 4.16005 -0.812773 1.99814 0.237725 0.00338306 0.280487 0.219878 0 0 0 0 0 0 -0.111057 -0.0578167 -0.123323 41.408 9.26814 4.10932 -0.30138 2.88467 0.610953 0.000536807 0.284457 0.226742 39.9426 6.93061 3.89396 -1.32168 1.1182 -0.129635 0.00629204 0.276557 0.213049 
26.982 1 48 3.55459 5.98819 2.17498 5.30384 -4.73002 -1.71915 0.10663 0.469211 0.336781 0 0 0 0 0 0 -0.0554852 0.00113789 -0.230559 1.66701 5.2612 1.05299 4.17072 -5.08132 -2.26924 0.108763 0.489522 0.337743 6.39531 6.41875 2.9285 6.44037 -4.37258 -1.16537 0.104528 0.448917 0.335793 
26.982 1 285 3.53599 8.24761 4.18411 0.403388 0.0625813 -4.58793 0.196164 -0.780037 0.30749 0 0 0 0 0 0 -0.00500061 -0.0232467 -0.0595911 1.24189 8.55262 2.96406 -0.689961 -0.31854 -5.32331 0.202674 -0.797071 0.312474 6.78461 7.68157 5.08083 1.50201 0.445143 -3.84864 0.189656 -0.762997 0.302464 
26.982 1 46 5.74569 6.10901 0.252207 0.137141 -1.33468 -0.837513 -0.57108 0.0380587 -0.304848 0 0 0 0 0 0 -0.0276217 0.00135392 -0.2842 5.32198 5.28217 1.91604 -0.402915 -1.97023 0.0979463 -0.581738 0.0272387 -0.317149 6.99284 6.64161 -1.81346 0.674997 -0.691692 -1.76262 -0.560411 0.0489389 -0.292496 
26.982 1 52 7.83537 6.17118 2.10454 -0.173305 -0.456042 2.28905 -0.262577 -0.557951 0.333984 0 0 0 0 0 0 -0.00942634 0.000893422 -0.176616 8.22216 6.15099 3.60532 -0.126705 0.179866 3.05569 -0.258041 -0.578392 0.348041 8.1484 5.89956 0.236683 -0.225151 -1.08338 1.52779 -0.267158 -0.537441 0.319903 
26.982 1 87 5.54225 8.04223 2.21686 -2.55324 -0.267999 0.483516 0.1478 0.134001 0.00877535 0 0 0 0 0 0 -0.0237247 0.000996973 -0.191313 5.2264 8.20336 3.27874 -2.75724 0.214331 1.35198 0.137593 0.145797 0.00801797 6.68743 7.62108 0.786432 -2.34713 -0.746593 -0.379548 0.15803 0.122189 0.00950199 
26.982 1 86 5.72211 10.1386 0.143184 -0.767748 -4.81524 0.331689 -0.335486 -0.0156648 0.243278 0 0 0 0 0 0 -0.0122579 -0.0621782 -0.280588 5.78612 10.3949 41.1524 -0.990022 -4.95347 1.1652 -0.343051 0.00137371 0.245296 6.48832 9.66712 40.0253 -0.543737 -4.67097 -0.494072 -0.327916 -0.032791 0.241315 
26.982 1 246 5.67893 6.0702 4.2592 -0.672761 -2.01048 -0.598281 -0.142194 0.166162 -0.078135 0 0 0 0 0 0 -0.00653792 -0.00397789 -0.0418851 6.78831 5.26167 2.55886 -0.426231 -2.04691 -1.17662 -0.141523 0.172007 -0.0742601 5.39619 6.58242 5.63103 -0.918629 -1.96886 -0.0184331 -0.142859 0.160357 -0.082098 
26.982 1 289 7.69078 8.05675 4.06028 3.82475 3.0164 -3.15648 0.0275802 0.0990941 0.422301 0 0 0 0 0 0 0.00369895 0.00613485 -0.0409033 8.9393 6.82823 3.79512 4.23863 2.84754 -3.24437 0.0258925 0.105434 0.453816 7.14479 9.02945 3.99801 3.40834 3.19244 -3.06599 0.0292415 0.0927448 0.390687 
26.982 1 286 5.74434 10.1355 4.11727 -2.2886 -0.761443 -1.36825 -0.0823799 -0.0576568 -0.0542679 0 0 0 0 0 0 0.00677773 -0.00581457 -0.0379458 6.28511 10.063 5.25734 -1.90732 -0.642048 -0.181888 -0.0752321 -0.0529374 -0.0411915 6.04046 9.98482 2.65484 -2.66247 -0.882073 -2.55246 -0.0895443 -0.0624164 -0.0674101 
26.982 1 56 11.8361 6.03977 2.19554 -1.62681 -1.38961 6.82967 0.319907 0.0407646 -0.643021 0 0 0 0 0 0 0.030602 0.0580227 -0.177943 12.4631 6.55409 3.36966 -1.02985 -1.29697 7.80303 0.333196 0.0427787 -0.655801 11.6867 5.23421 0.654112 -2.22131 -1.47329 5.86253 0.306522 0.0388029 -0.630282 
26.982 1 91 9.6682 8.10136 2.13604 -2.41833 1.02851 -0.103065 0.771501 -0.214643 -0.18235 0 0 0 0 0 0 0.02816 0.0286769 -0.22718 10.406 8.73549 2.44571 -2.42657 0.707673 0.229078 0.792078 -0.223148 -0.192847 9.51752 7.21831 1.46372 -2.41334 1.35888 -0.427966 0.750823 -0.206151 -0.171896 
26.982 1 250 9.87817 6.07971 4.15069 1.23841 1.88181 5.34043 -0.274658 -0.177455 0.0392311 0 0 0 0 0 0 0.00109377 0.00640014 -0.0302122 10.3931 5.96375 7.24741 1.28656 1.90032 7.30964 -0.270968 -0.183827 0.0583845 9.94576 5.90844 0.720477 1.18488 1.87424 3.36897 -0.278436 -0.171041 0.0200152 
26.982 1 293 11.8725 8.04105 4.02394 -0.387824 1.37624 6.27473 0.187187 0.451641 0.364457 0 0 0 0 0 0 0.0107016 0.0257951 -0.0537668 11.187 6.56861 6.61615 -0.80664 1.39398 8.16722 0.197996 0.468999 0.388736 13.0326 9.26081 1.10628 0.0305821 1.36374 4.38427 0.17627 0.434306 0.340133 
26.982 1 50 9.75352 5.98137 0.0612511 -5.49505 0.731182 1.50471 0.184796 0.34747 0.289077 0 0 0 0 0 0 -0.0220984 0.0635208 -0.270575 10.5995 6.17812 -0.603954 -4.88751 1.46535 1.5896 0.198013 0.344667 0.29117 9.49455 5.48826 0.327424 -6.1057 0.00265479 1.43107 0.171505 0.350361 0.287012 
26.982 1 95 14.0023 8.13365 2.21208 -4.00944 0.439625 -5.81953 -0.464289 0.0819771 -0.342001 0 0 0 0 0 0 0.00406032 -0.01183 -0.215895 14.7332 8.56546 0.0251108 -3.63708 0.338315 -6.02953 -0.459451 0.0866127 -0.346233 13.63 7.44726 4.0389 -4.37987 0.542493 -5.60022 -0.469225 0.0773524 -0.337829 
26.982 1 254 14.052 6.03035 3.98226 2.78448 -3.27145 1.59039 -0.136305 -0.182737 0.54122 0 0 0 0 0 0 0.0108676 0.0131635 -0.0410901 13.5255 5.52239 5.63059 2.27816 -3.45339 3.00412 -0.131116 -0.182971 0.564743 14.9422 6.25107 2.0028 3.2963 -3.07978 0.175825 -0.141568 -0.182516 0.517673 
26.982 1 94 13.7818 10.0202 0.173626 -1.07797 -5.29808 -1.53641 0.671477 0.691965 -0.0928224 0 0 0 0 0 0 -0.0193342 -0.0131456 -0.279525 14.4134 10.7059 40.7435 -0.827031 -4.42672 -0.697212 0.681222 0.718011 -0.107272 13.5056 9.11834 40.4954 -1.32978 -6.16683 -2.36772 0.661676 0.665937 -0.078409 
26.982 1 96 11.7852 10.2132 2.0553 0.552594 0.673094 8.15924 0.25986 -0.0366206 0.448353 0 0 0 0 0 0 -0.0260662 -0.00795048 -0.223094 11.6515 9.82118 0.512917 0.675936 0.727768 7.74391 0.267066 -0.0307468 0.46325 12.3936 10.3916 3.23853 0.426034 0.62313 8.58423 0.25257 -0.0425337 0.433457 
26.982 1 100 16.018 10.4747 2.10118 2.04899 0.957875 1.03303 -0.293524 -1.24196 -0.0257101 0 0 0 0 0 0 -0.0193767 -0.0576136 -0.182564 16.2483 12.3156 -0.566826 2.05471 2.32259 0.0607684 -0.292642 -1.27993 -0.0289955 16.0235 8.42077 4.40644 2.04529 -0.400676 2.01212 -0.294453 -1.20394 -0.0224785 
26.982 1 294 13.8555 10.2467 4.05015 -5.14213 -4.33067 0.551398 0.0180245 -0.27254 0.0745162 0 0 0 0 0 0 -0.00798518 -0.0228644 -0.0495235 14.0215 12.6177 2.8748 -5.122 -2.81339 0.669622 0.0171913 -0.289152 0.0852393 14.0496 7.66188 4.89887 -5.16071 -5.84352 0.438171 0.0187705 -0.255884 0.063756 
26.982 1 98 18.0296 10.2423 0.0313985 -3.35827 -2.19077 -0.103021 -0.0322553 -0.709411 0.380298 0 0 0 0 0 0 -0.0703225 -0.050309 -0.267701 17.1294 10.7139 41.4988 -4.35543 -2.47767 0.624824 -0.0381655 -0.73792 0.39181 19.0512 9.55698 39.4464 -2.35639 -1.89858 -0.829159 -0.0263623 -0.680869 0.368781 
26.982 1 60 16.0531 6.02803 2.00644 -1.05787 0.126399 1.18298 0.224692 0.139388 0.417561 0 0 0 0 0 0 0.00417784 0.0527259 -0.194185 17.1662 7.15572 0.363683 -0.576885 0.919683 0.966383 0.233826 0.141968 0.432907 15.1794 4.60407 3.2849 -1.53576 -0.663039 1.40778 0.215531 0.136764 0.402158 
26.982 1 297 15.9635 8.11907 3.94126 0.678209 4.59442 -0.0342904 0.674507 0.236531 0.559721 0 0 0 0 0 0 0.0159369 0.0070732 -0.0488868 16.6174 8.25871 1.95138 1.12121 5.5335 -1.21291 0.698108 0.248424 0.585782 15.5511 7.72447 5.60694 0.239918 3.65794 1.14809 0.65085 0.22465 0.533625 
26.982 1 99 18.1573 8.13265 2.20465 -0.101188 -2.62143 -3.20903 -0.183201 0.352923 -0.012595 0 0 0 0 0 0 -0.0384557 -0.0343674 -0.156802 17.2394 9.61569 0.0413991 -0.526821 -1.96668 -3.96246 -0.188218 0.36359 -0.00204373 19.1959 6.38705 4.00591 0.328457 -3.27881 -2.44978 -0.178169 0.34222 -0.0232228 
26.982 1 258 18.158 6.1054 4.1752 -0.633715 1.81915 1.3282 -0.263478 0.191088 -0.139804 0 0 0 0 0 0 -0.0138252 0.0195976 -0.0503995 18.0141 7.392 4.75161 -0.679716 3.21531 1.61318 -0.277793 0.209374 -0.140846 18.425 4.52262 3.27356 -0.586509 0.430174 1.04603 -0.249127 0.172703 -0.13882 
26.982 1 301 20.3289 8.3155 4.10931 -6.92512 0.141979 -0.735988 -0.2072 -0.109758 -0.0422434 0 0 0 0 0 0 -0.0131284 -0.00883556 -0.025277 19.4172 7.26295 4.38859 -7.32504 -0.271201 -0.646768 -0.217133 -0.104995 -0.0289774 21.2403 9.10625 3.50856 -6.52511 0.556218 -0.820273 -0.197201 -0.11459 -0.0555564 
26.982 1 298 17.9981 10.3915 4.20025 -0.517681 5.06369 0.471445 0.342772 -0.688348 0.0705228 0 0 0 0 0 0 -0.00133066 -0.0421299 -0.00946808 17.8741 10.9076 2.08339 -0.706262 5.48582 -0.796994 0.350394 -0.724624 0.0840205 18.2398 9.65779 5.99756 -0.325541 4.64494 1.74575 0.335118 -0.652 0.0569879 