ITEM: TIMESTEP
300
ITEM: NUMBER OF ATOMS
4000
ITEM: BOX BOUNDS pp pp pp
-0.135169 40.6352
-0.0536281 40.5536
-0.0592634 40.5593
ITEM: ATOMS mass type id x y z vx vy vz fx fy fz xrad yrad zrad vxrad vyrad vzrad fxrad fyrad fzrad xub yub zub vxub vyub vzub fxub fyub fzub xlb ylb zlb vxlb vylb vzlb fxlb fylb fzlb 
26.982 1 2 1.80874 1.97003 -0.0737535 0.95853 4.71303 -0.19483 0.239773 0.0665221 -0.00707728 0 0 0 0 0 0 -0.0354472 -0.113633 -0.171017 1.84464 2.02629 -0.0494037 1.00017 5.33634 0.158762 0.253434 0.0643816 -0.00434627 1.86538 1.87622 -0.126379 0.917332 4.09035 -0.548611 0.226147 0.0686703 -0.00984095 
26.982 1 3 1.92999 -0.0212058 1.91596 0.751026 -3.26115 7.60427 -0.230991 -0.119868 0.13159 0 0 0 0 0 0 -0.0590063 -0.184027 -0.080898 1.94664 -0.0252587 1.90302 0.610855 -3.29526 8.12654 -0.241508 -0.12708 0.134544 2.00592 -0.058628 1.90374 0.890849 -3.22742 7.08357 -0.220446 -0.112664 0.128624 
26.982 1 8 3.89638 2.03834 1.94462 2.91559 -1.39533 -0.688169 -0.346138 -0.265907 0.149523 0 0 0 0 0 0 -0.0249278 -0.154756 -0.122326 3.92258 2.0396 1.9385 2.90535 -1.30201 -0.448319 -0.364786 -0.26474 0.15409 3.95277 1.99977 1.92551 2.92672 -1.48808 -0.927766 -0.327463 -0.267084 0.14493 
26.982 1 41 -0.133428 3.96186 -0.0528777 4.35141 2.65927 0.09998 -0.151098 0.168075 0.154998 0 0 0 0 0 0 -0.109822 -0.13259 -0.158281 -0.103154 4.02583 -0.0243789 4.17267 3.05076 0.43449 -0.157226 0.16923 0.165231 -0.0609844 3.86468 -0.109709 4.53057 2.26783 -0.235025 -0.144979 0.166931 0.144708 
26.982 1 43 1.82473 4.21762 1.97212 0.0237266 -2.48337 2.23007 -0.303723 -0.687635 0.0777195 0 0 0 0 0 0 -0.0532924 -0.107468 -0.106005 1.79623 4.17994 1.97301 -0.344095 -2.43054 2.41646 -0.320245 -0.696309 0.0900693 1.94594 4.22194 1.94608 0.392967 -2.53608 2.04433 -0.287164 -0.678972 0.0652989 
26.982 1 202 1.87208 1.98559 4.02509 0.63294 -4.93478 4.40661 -0.0874286 -0.204008 -0.321637 0 0 0 0 0 0 -0.0741833 -0.142357 -0.105471 1.89572 1.98407 3.97132 0.63737 -4.89007 4.43467 -0.0916544 -0.200631 -0.325793 1.941 1.94954 4.05657 0.629394 -4.98005 4.38012 -0.0831511 -0.207407 -0.317504 
26.982 1 241 -0.377268 3.92179 4.04078 2.4335 -2.3729 -0.423186 0.545611 0.22642 -0.094414 0 0 0 0 0 0 -0.11143 -0.137166 -0.12509 -0.331886 3.97673 3.98794 2.47214 -2.05823 -0.471643 0.563492 0.223977 -0.0955653 -0.319894 3.83325 4.07133 2.39576 -2.68888 -0.373777 0.527756 0.228868 -0.093282 
26.982 1 245 3.73494 4.04431 3.86563 -0.450809 1.12789 -2.1452 0.472997 -0.0379449 0.389743 0 0 0 0 0 0 -0.00902207 -0.0450461 -0.0351684 3.74388 3.981 3.81336 -0.684072 0.948637 -2.17539 0.470119 -0.0379002 0.403735 3.80832 4.07435 3.89543 -0.21596 1.30762 -2.11404 0.475918 -0.038018 0.375726 
26.982 1 6 5.92218 1.89061 -0.0745841 5.51075 0.727651 2.2555 0.0747601 0.0077763 0.0436116 0 0 0 0 0 0 -0.0621534 -0.107701 -0.205339 5.88225 1.86389 -0.0708712 5.34285 0.720152 2.52363 0.0787713 0.00571762 0.0437329 6.03433 1.88008 -0.106362 5.67878 0.735523 1.98921 0.0706941 0.00984072 0.0435226 
26.982 1 9 8.03485 -0.389107 -0.131217 -3.76091 0.539769 -3.94196 -0.214319 0.973525 -0.040927 0 0 0 0 0 0 -0.00468989 -0.168347 -0.0979347 8.06559 -0.372468 -0.170139 -3.82385 0.906041 -4.09729 -0.219416 0.995611 -0.044786 8.06607 -0.447235 -0.120452 -3.69676 0.172882 -3.78519 -0.209268 0.95144 -0.0370469 
26.982 1 12 7.89119 1.89372 1.92591 3.17183 -0.436562 5.16247 0.0409917 0.245423 -0.220319 0 0 0 0 0 0 -0.0173718 -0.155946 -0.103758 7.88933 1.89106 1.87323 3.09522 -0.211273 5.21058 0.0484885 0.250566 -0.222345 7.95496 1.8589 1.95311 3.2488 -0.66256 5.11504 0.0334249 0.24027 -0.218277 
26.982 1 47 5.77911 3.96913 2.00091 4.51425 4.35129 5.63597 0.482932 0.694722 -0.197787 0 0 0 0 0 0 -0.0284063 -0.030209 -0.126555 5.75241 3.93338 1.95616 4.21887 4.43008 5.72134 0.498946 0.713238 -0.197632 5.87792 3.97173 2.02039 4.80972 4.27417 5.55156 0.466909 0.676194 -0.197968 
26.982 1 49 7.78722 4.09561 0.0541822 -0.533257 2.63961 -6.51992 0.578229 -0.231794 0.438901 0 0 0 0 0 0 -0.0141066 -0.0214917 -0.265457 7.77259 4.06675 0.0840253 -0.748301 2.52826 -6.45582 0.592669 -0.235745 0.442278 7.86366 4.09131 -0.00391285 -0.318169 2.75223 -6.58303 0.563743 -0.227823 0.435533 
26.982 1 206 5.97202 2.12343 3.87671 -1.75409 1.10534 3.27381 -0.286314 -0.627065 0.529131 0 0 0 0 0 0 -0.0398557 -0.138871 -0.0662613 5.99126 2.13348 3.86483 -1.94663 1.37824 3.4108 -0.295336 -0.631778 0.546494 6.02482 2.07609 3.86598 -1.56091 0.833575 3.1374 -0.277301 -0.622374 0.511738 
26.982 1 209 7.92506 -0.143405 3.8822 -4.00252 3.47606 -1.50484 0.392462 0.396917 0.744056 0 0 0 0 0 0 -0.0213476 -0.204149 -0.157245 7.94651 -0.166223 3.84292 -4.089 3.5472 -1.63659 0.405653 0.398238 0.761054 7.96533 -0.162129 3.89864 -3.9151 3.40457 -1.37363 0.379222 0.395582 0.72705 
26.982 1 249 7.91115 4.01043 4.11881 2.72777 -4.5701 4.77341 0.0873911 0.4139 -0.686159 0 0 0 0 0 0 -0.00178077 -0.0104583 -0.026927 7.9562 3.9881 4.04524 2.80855 -4.70663 4.80106 0.0958048 0.426901 -0.698357 7.92772 3.99945 4.16989 2.64625 -4.43213 4.74675 0.0789129 0.400886 -0.673991 
26.982 1 10 9.83323 2.02676 -0.0384668 -0.665699 -0.810156 -1.36002 0.476108 -0.425984 0.212181 0 0 0 0 0 0 0.0526164 -0.132926 -0.21755 9.86195 1.98669 -0.0346127 -0.503272 -0.807714 -1.40454 0.48931 -0.441996 0.212493 9.85607 2.02939 -0.0705231 -0.82783 -0.812451 -1.3143 0.462906 -0.409984 0.211864 
26.982 1 16 11.9637 2.03816 1.76276 -2.62557 -3.58297 3.13686 -0.00223613 -0.0320395 0.514476 0 0 0 0 0 0 0.0635973 -0.180071 -0.153358 12.0244 2.03012 1.69705 -2.42782 -3.53388 2.94506 -0.0126245 -0.0262634 0.53525 11.9442 2.00852 1.80291 -2.82428 -3.63331 3.32897 0.00813175 -0.0378516 0.493661 
26.982 1 51 9.9171 3.95186 2.04975 -3.66689 -4.15069 -0.602211 0.127512 0.393043 -0.292286 0 0 0 0 0 0 0.0242429 -0.0286892 -0.0897191 9.97355 3.95886 2.02001 -3.59059 -4.12322 -0.6385 0.133839 0.403607 -0.288546 9.91206 3.91157 2.05385 -3.74379 -4.17695 -0.566663 0.121112 0.382484 -0.296064 
26.982 1 53 11.943 4.00606 -0.165111 0.416374 -1.03108 -0.378876 0.521544 -0.131202 0.744199 0 0 0 0 0 0 0.0485774 -0.0575651 -0.248456 12.0586 4.00795 -0.177064 0.931251 -1.01383 -0.537035 0.528873 -0.130342 0.775846 11.8685 3.971 -0.181375 -0.0992828 -1.04757 -0.219747 0.514217 -0.132054 0.712498 
26.982 1 210 9.7493 1.96625 3.94895 2.52573 0.675066 4.56543 0.901351 -0.163193 -0.0735212 0 0 0 0 0 0 0.0370897 -0.110255 -0.0743163 9.77084 1.93596 3.85739 2.59302 0.748584 4.37703 0.934397 -0.154316 -0.070897 9.77928 1.95889 4.01781 2.45812 0.601205 4.75337 0.868235 -0.172112 -0.0761656 
26.982 1 213 12.0745 0.184948 3.88224 3.96389 -2.25161 0.620402 -0.479623 -0.535283 0.0413104 0 0 0 0 0 0 0.021692 -0.192209 -0.184786 12.099 0.187503 3.78954 4.06303 -2.22663 0.23235 -0.488972 -0.536824 0.0412189 12.0912 0.140291 3.95212 3.86424 -2.2781 1.0082 -0.470308 -0.533797 0.0413944 
26.982 1 253 11.9908 4.0627 3.9038 -6.79651 1.23894 -3.06605 -0.00107541 -0.249914 0.154059 0 0 0 0 0 0 0.00863962 -0.0307195 -0.0291681 12.0281 4.07854 3.9 -6.72198 1.42258 -2.90301 -0.00382615 -0.254745 0.168651 11.9946 4.01398 3.88473 -6.87193 1.05678 -3.23008 0.00162492 -0.245091 0.139435 
26.982 1 20 16.1987 1.87458 1.94277 -0.386802 2.69262 1.91771 0.113513 0.377236 -0.254857 0 0 0 0 0 0 -0.0865193 -0.205408 -0.111088 16.1857 1.84398 1.90744 -0.382626 2.63465 1.97247 0.119593 0.374004 -0.254411 16.2324 1.86801 1.95266 -0.391326 2.75092 1.86385 0.107459 0.380496 -0.255357 
26.982 1 55 14.3281 3.97924 1.89264 1.91699 4.90537 -2.18886 -0.882211 0.353263 0.203233 0 0 0 0 0 0 -0.0349091 -0.0787334 -0.12922 14.341 3.96677 1.84688 2.03974 5.15082 -2.5524 -0.903104 0.36565 0.207231 14.3464 3.95882 1.91285 1.79328 4.66086 -1.82521 -0.861284 0.340873 0.199161 
26.982 1 57 16.2059 4.05343 0.0221214 8.57627 -0.96216 -1.95691 -0.014771 -0.186017 -0.334959 0 0 0 0 0 0 -0.057427 -0.0651685 -0.278198 16.149 4.0924 -0.0376639 8.54613 -0.743622 -2.26659 -0.0228472 -0.193267 -0.359992 16.2837 3.98139 0.0536518 8.60618 -1.17946 -1.64749 -0.00666302 -0.178772 -0.309977 
26.982 1 214 13.9535 2.00824 3.9643 -2.79631 -1.74924 -0.412021 0.589064 0.370825 -0.241773 0 0 0 0 0 0 0.0333891 -0.122743 -0.105074 13.9462 1.98801 3.98357 -2.77341 -1.58831 -0.202154 0.591255 0.388065 -0.23889 13.9917 1.99086 3.9223 -2.82018 -1.91115 -0.621897 0.586886 0.353538 -0.244706 
26.982 1 257 16.2232 4.06616 3.78877 -1.67679 -0.963674 -3.62814 -0.0897519 -0.202769 0.468576 0 0 0 0 0 0 -0.0161371 -0.0471218 -0.016597 16.2262 4.05154 3.76445 -1.51606 -0.810053 -3.74252 -0.0984291 -0.204743 0.487014 16.2409 4.04777 3.79033 -1.83671 -1.11577 -3.51356 -0.0809977 -0.200797 0.450067 
26.982 1 218 18.247 2.01847 3.77605 0.952312 2.19632 -0.626834 -0.119776 -0.579256 0.718127 0 0 0 0 0 0 -0.00822728 -0.16317 -0.023559 18.2065 1.98796 3.78994 0.773673 2.17437 -0.537817 -0.117171 -0.601028 0.736477 18.2976 2.01181 3.73943 1.13182 2.2187 -0.715319 -0.122361 -0.557435 0.699729 
26.982 1 18 18.2507 2.17518 -0.100161 -3.93822 -2.90809 0.247469 -0.118201 -0.573163 -0.211378 0 0 0 0 0 0 -0.0522046 -0.115259 -0.237558 18.246 2.17467 -0.123237 -3.98035 -2.85845 0.247164 -0.120135 -0.593524 -0.217062 18.2657 2.1383 -0.105364 -3.89519 -2.95724 0.248721 -0.116272 -0.552751 -0.205694 
26.982 1 19 18.1751 -0.233247 1.78141 0.134342 -1.66254 -1.36071 -0.337278 0.752684 0.564305 0 0 0 0 0 0 -0.0523377 -0.231999 -0.0450593 18.175 -0.270898 1.76723 0.135364 -1.7519 -1.37602 -0.346826 0.76243 0.573678 18.1854 -0.23706 1.77007 0.133461 -1.57335 -1.34455 -0.327737 0.74299 0.554899 
26.982 1 21 20.0996 0.0213605 -0.083833 -3.86057 -3.60746 -1.62589 0.797746 0.109368 0.056133 0 0 0 0 0 0 0.0198641 -0.183189 -0.135181 20.1082 0.00728113 -0.079563 -3.95903 -3.77676 -1.56939 0.81174 0.111745 0.0545872 20.0908 -0.00610129 -0.116468 -3.76117 -3.43745 -1.68205 0.783748 0.107003 0.057653 
26.982 1 22 22.464 1.93478 0.130519 -2.40863 1.11004 3.21158 -0.579832 0.425742 -0.589231 0 0 0 0 0 0 -0.0166155 -0.10092 -0.197619 22.4532 1.92898 0.078217 -2.45113 1.18201 3.04687 -0.577709 0.431472 -0.598955 22.4645 1.9033 0.154489 -2.36498 1.03838 3.37667 -0.581993 0.420034 -0.579535 
26.982 1 24 20.1858 1.98248 1.96208 -4.55266 -1.96102 -3.3424 0.62988 -0.116843 -0.158868 0 0 0 0 0 0 0.0389398 -0.161196 -0.0419055 20.1924 1.95283 1.96001 -4.75726 -2.15374 -3.24604 0.647285 -0.123852 -0.159416 20.1789 1.97506 1.93857 -4.34722 -1.76713 -3.43796 0.612451 -0.109783 -0.15833 
26.982 1 59 18.2583 3.98071 1.91789 1.60908 -2.75229 -0.516759 0.0995905 0.361511 0.188789 0 0 0 0 0 0 -0.00366073 -0.0275843 -0.082148 18.2453 3.92941 1.88102 1.47429 -2.88932 -0.634854 0.105712 0.370216 0.192773 18.2817 3.99898 1.92926 1.74495 -2.61456 -0.398071 0.0934806 0.352821 0.18477 
26.982 1 61 20.3522 4.02571 -0.0420172 -3.66803 2.00518 -4.72515 0.272335 -0.580409 0.24109 0 0 0 0 0 0 0.0223285 -0.00217132 -0.258322 20.3333 4.01414 -0.0575788 -3.82349 1.98893 -4.93691 0.292841 -0.594056 0.243716 20.3712 4.00454 -0.0547939 -3.5117 2.02248 -4.51253 0.25178 -0.566749 0.238458 
26.982 1 63 22.3485 4.12189 2.18085 1.95685 -5.86747 4.37494 -0.286556 -0.0727623 -0.62916 0 0 0 0 0 0 -0.00316228 -0.0147114 -0.0984439 22.3388 4.17762 2.11394 1.98084 -5.64039 4.13041 -0.282647 -0.0711607 -0.65029 22.348 4.03292 2.22223 1.93329 -6.09395 4.61937 -0.290509 -0.0743402 -0.608016 
26.982 1 222 22.2899 2.09869 4.05327 -1.41386 3.25527 0.983854 -0.363163 -0.48336 -0.137927 0 0 0 0 0 0 -0.0416275 -0.144954 -0.0477335 22.2447 2.07005 4.04024 -1.63233 3.309 1.02962 -0.375041 -0.503236 -0.135717 22.3246 2.09014 4.04357 -1.19517 3.20225 0.9384 -0.351313 -0.463461 -0.140119 
26.982 1 261 20.1731 4.04517 3.99688 -4.99096 5.77478 1.43287 0.346348 0.0378628 0.0885557 0 0 0 0 0 0 0.0127921 -0.0293821 -0.00497636 20.1723 4.08499 4.00248 -5.14017 6.12477 1.62498 0.358422 0.0416528 0.0994997 20.1739 3.97219 3.96853 -4.84115 5.42519 1.24109 0.334279 0.034109 0.0776046 
26.982 1 25 24.1798 -0.183433 -0.133241 -0.733881 0.102678 1.03169 0.494634 0.297915 -0.246606 0 0 0 0 0 0 -0.022611 -0.183382 -0.132862 24.1477 -0.197684 -0.114558 -0.911544 0.12209 1.30013 0.506646 0.305247 -0.251827 24.1914 -0.210602 -0.180479 -0.55565 0.0843599 0.762793 0.482604 0.290536 -0.241411 
26.982 1 26 26.3515 1.82194 -0.149217 -0.715304 -3.92743 5.4932 -0.126728 0.341578 -0.066018 0 0 0 0 0 0 0.036007 -0.101194 -0.226934 26.3413 1.8578 -0.175071 -0.557641 -3.73632 5.60006 -0.13485 0.343129 -0.06322 26.3311 1.74896 -0.151724 -0.873335 -4.11801 5.3866 -0.118618 0.340015 -0.0688341 
26.982 1 27 26.374 -0.100982 1.75973 -4.28935 -2.68316 1.48073 -0.269184 0.0107874 0.475599 0 0 0 0 0 0 0.0678143 -0.233918 -0.0703856 26.3439 -0.115908 1.73674 -4.31439 -2.50836 1.43188 -0.27231 0.0117474 0.483769 26.3732 -0.127238 1.75717 -4.26483 -2.85556 1.52914 -0.266078 0.00979731 0.467424 
26.982 1 28 24.3858 1.9945 2.05093 3.41779 4.54836 3.76566 0.0393788 0.0647347 -0.35193 0 0 0 0 0 0 -0.0215178 -0.116083 -0.0848541 24.3257 2.00159 1.99349 3.19418 4.83378 3.6318 0.0467054 0.0665588 -0.3668 24.4252 1.9501 2.08296 3.64169 4.26399 3.89995 0.0320254 0.0629163 -0.337048 
26.982 1 65 24.3268 4.02536 -0.137629 -1.11671 1.82384 0.982032 0.269024 -0.174679 0.275981 0 0 0 0 0 0 0.00820366 0.0127837 -0.253997 24.3484 4.01236 -0.203403 -0.992861 1.93291 0.839941 0.278977 -0.183152 0.287032 24.2851 4.0053 -0.100164 -1.23999 1.715 1.12472 0.25905 -0.166196 0.264905 
26.982 1 67 26.5475 4.05779 1.84466 -0.576064 -1.16753 -2.07962 -0.282354 0.110633 -0.330484 0 0 0 0 0 0 -0.000127609 -0.00322708 -0.106416 26.6082 4.04644 1.80285 -0.149406 -1.04572 -2.23197 -0.289578 0.118497 -0.33852 26.4562 4.03619 1.86097 -1.00234 -1.28842 -1.92651 -0.275161 0.10279 -0.322443 
26.982 1 225 24.2187 -0.116521 3.84109 5.15608 -2.85932 3.33481 0.680588 0.130953 0.362964 0 0 0 0 0 0 -0.0310591 -0.181861 -0.128533 24.2196 -0.201522 3.7995 5.40619 -3.16831 3.21418 0.701667 0.140494 0.361726 24.1973 -0.0727215 3.86009 4.90585 -2.54876 3.45655 0.659505 0.121388 0.364221 
26.982 1 226 26.463 2.18366 3.77649 -1.17048 5.66665 1.42422 -0.11775 -0.636712 0.402301 0 0 0 0 0 0 0.0394601 -0.120568 -0.0249791 26.4528 2.18888 3.77529 -1.00305 5.89425 1.49775 -0.116411 -0.650176 0.412832 26.4424 2.14138 3.75505 -1.33773 5.44109 1.35118 -0.119119 -0.623249 0.391804 
26.982 1 265 24.3079 4.09119 3.96242 -0.508458 -3.77417 -6.87468 0.385325 0.0963926 -0.135955 0 0 0 0 0 0 0.00556293 -0.0144101 -0.0206099 24.282 4.12049 3.95445 -0.52684 -3.65452 -6.92061 0.395123 0.0963796 -0.146554 24.3132 4.02852 3.94771 -0.489202 -3.89377 -6.82834 0.375476 0.0964202 -0.125328 
26.982 1 30 30.5971 1.79935 -0.144728 -1.87007 1.87022 -0.962629 -0.302262 0.540748 0.104978 0 0 0 0 0 0 0.0247793 -0.169534 -0.20094 30.5876 1.74181 -0.186634 -1.78011 1.65827 -1.16289 -0.305546 0.555414 0.101898 30.5552 1.81998 -0.131144 -1.96098 2.08389 -0.761393 -0.298932 0.526033 0.108024 
26.982 1 32 28.5483 1.90805 1.89171 -3.67209 -1.21731 -0.0694751 -0.23514 0.205805 -0.169083 0 0 0 0 0 0 0.0453528 -0.187442 -0.0780543 28.5362 1.85627 1.87474 -3.76672 -1.3736 -0.0265171 -0.234704 0.212761 -0.167381 28.5192 1.92287 1.88331 -3.57847 -1.05906 -0.111886 -0.235563 0.198843 -0.170817 
26.982 1 69 28.4407 3.89737 -0.24598 4.38149 2.02795 0.77583 -0.0937388 0.237026 0.200655 0 0 0 0 0 0 0.00723493 -0.0146219 -0.258527 28.449 3.87843 -0.270993 4.64185 2.06288 0.688388 -0.0976315 0.238862 0.196862 28.3917 3.88342 -0.249362 4.12031 1.99349 0.863538 -0.0898516 0.235182 0.204432 
26.982 1 71 30.5456 3.93304 1.62598 0.810068 -4.09965 1.55564 -0.233122 0.0757866 0.688287 0 0 0 0 0 0 0.0146581 -0.0408547 -0.105669 30.547 3.90833 1.58605 0.847808 -4.14832 1.55196 -0.238124 0.0728837 0.710698 30.4931 3.92465 1.64047 0.771923 -4.05045 1.56093 -0.228074 0.0787194 0.665894 
26.982 1 230 30.4401 1.68404 3.9077 1.22854 -1.82111 0.17488 -0.167941 0.573781 0.488785 0 0 0 0 0 0 0.000537562 -0.170548 -0.0716255 30.4183 1.59464 3.90607 1.05116 -2.14308 0.309942 -0.170738 0.589975 0.503486 30.4107 1.73638 3.88683 1.40577 -1.49679 0.0410694 -0.165124 0.557613 0.474121 
26.982 1 269 28.5295 4.08978 3.88788 -1.12037 -1.44285 1.57012 0.135783 -0.114178 -0.0244493 0 0 0 0 0 0 0.010178 -0.032503 -0.0195607 28.5245 4.0647 3.86208 -1.04931 -1.37504 1.59936 0.138107 -0.113176 -0.0256953 28.4935 4.0819 3.89108 -1.19099 -1.50901 1.54195 0.133482 -0.115139 -0.0231605 
26.982 1 35 34.679 -0.0912532 1.95874 -1.68092 -0.0539966 -0.216728 -0.272075 -0.0311921 0.325597 0 0 0 0 0 0 -0.0196752 -0.189899 -0.159733 34.6248 -0.106537 1.93015 -1.72336 -0.150946 -0.191638 -0.276205 -0.0149616 0.338891 34.6617 -0.117178 1.96204 -1.63799 0.0441714 -0.24056 -0.267915 -0.0474632 0.312245 
26.982 1 36 32.3298 1.66516 2.03377 -4.82444 -4.32911 0.51029 0.705228 0.625745 -0.181671 0 0 0 0 0 0 0.0240781 -0.185028 -0.127538 32.3309 1.56595 2.0017 -4.86814 -4.72337 0.521648 0.727025 0.652833 -0.180684 32.2672 1.72745 2.04071 -4.78092 -3.93211 0.500916 0.683498 0.598659 -0.182719 
26.982 1 73 32.5508 4.07406 -0.126836 -1.83568 -6.12253 2.24109 0.0837849 -0.480123 -0.174622 0 0 0 0 0 0 0.0823814 -0.0253299 -0.257122 32.5089 3.97268 -0.153213 -2.072 -6.4791 2.20186 0.0804235 -0.492158 -0.176552 32.5313 4.14241 -0.128767 -1.5996 -5.76495 2.28108 0.0872239 -0.468072 -0.172687 
26.982 1 75 34.5467 3.93073 1.82222 4.3202 1.54765 -0.219787 -0.134113 -0.130514 0.532759 0 0 0 0 0 0 0.0307723 -0.052443 -0.205326 34.5511 3.89573 1.78598 4.70811 1.53945 -0.310399 -0.146958 -0.140362 0.547452 34.4705 3.93264 1.83316 3.93125 1.55562 -0.127855 -0.121232 -0.120591 0.518031 
26.982 1 234 34.5115 1.87239 3.93963 1.8301 -4.99122 0.120671 -0.0463675 0.172545 -0.0530206 0 0 0 0 0 0 -0.0302833 -0.105542 -0.0847546 34.5584 1.79374 3.89439 2.3356 -5.45155 0.166928 -0.0532215 0.178242 -0.0499832 34.3929 1.91383 3.96247 1.32372 -4.52919 0.0763527 -0.0395014 0.166865 -0.0560653 
26.982 1 273 32.479 4.03115 3.89513 -0.21694 0.199832 0.556012 -0.113389 -0.55116 -0.165662 0 0 0 0 0 0 -0.00316532 -0.062718 -0.0467794 32.4645 4.00024 3.89251 -0.202711 0.0720838 0.742165 -0.121799 -0.581957 -0.170191 32.4319 4.02875 3.87517 -0.232143 0.326778 0.370926 -0.104943 -0.52029 -0.161101 
26.982 1 4 40.6011 2.00433 1.92551 2.07828 -0.867412 5.02212 0.319179 -0.0671184 0.492658 0 0 0 0 0 0 -0.0620737 -0.17913 -0.126748 40.5761 2.04086 1.89797 2.10202 -0.725181 5.13921 0.325694 -0.062214 0.509167 40.5239 1.93033 1.92791 2.05475 -1.01017 4.9061 0.31268 -0.0720284 0.476082 
26.982 1 40 36.551 1.85489 1.86942 1.95919 1.12508 3.70968 0.227961 0.0797529 0.540049 0 0 0 0 0 0 0.0419713 -0.113593 -0.22681 36.5469 1.86485 1.85885 2.24991 1.33237 3.86621 0.233048 0.0847555 0.561045 36.4733 1.80762 1.85479 1.66819 0.91781 3.55466 0.222899 0.0747529 0.518982 
26.982 1 79 38.4703 4.12569 2.06946 6.53582 -5.76205 -0.523975 0.316587 -0.324004 -0.495045 0 0 0 0 0 0 -0.0336545 -0.0980798 -0.173063 38.4641 4.11383 2.02339 6.90698 -5.80898 -0.454724 0.329082 -0.340481 -0.498591 38.3844 4.10404 2.09028 6.16393 -5.71575 -0.592769 0.304074 -0.307501 -0.491584 
26.982 1 237 36.7696 -0.210505 4.13737 -0.322615 -5.63889 0.254665 -0.537637 0.542107 -0.400721 0 0 0 0 0 0 0.0291706 -0.164805 -0.185499 36.7352 -0.230659 4.09352 -0.332293 -5.69839 0.201488 -0.549639 0.56572 -0.412828 36.722 -0.231708 4.1588 -0.313108 -5.57803 0.308876 -0.525617 0.518436 -0.388653 
26.982 1 238 38.5541 1.8876 3.89226 -3.9002 -2.63635 3.86693 -0.00234061 0.0426191 0.300408 0 0 0 0 0 0 0.0263198 -0.136918 -0.103216 38.5224 1.89126 3.85516 -3.93602 -2.54679 3.94139 -0.00444263 0.0401925 0.31023 38.4938 1.84635 3.90691 -3.86486 -2.72708 3.79336 -0.000234548 0.0450247 0.29056 
26.982 1 277 36.5298 4.00681 3.97855 0.179678 2.46724 -3.43937 -0.166805 -0.123162 -0.103012 0 0 0 0 0 0 0.00124548 -0.0391809 -0.0646908 36.524 3.96114 3.9197 0.481782 2.33537 -3.67871 -0.166467 -0.133577 -0.10794 36.4535 4.01916 4.01485 -0.124103 2.5977 -3.19966 -0.167152 -0.112679 -0.0981195 
26.982 1 42 1.97354 5.91043 -0.0965682 1.59791 1.26956 -1.92599 -0.479683 0.454225 -0.419906 0 0 0 0 0 0 -0.063833 -0.0190442 -0.210861 1.98131 5.86708 -0.125872 1.487 1.2797 -1.94458 -0.497019 0.461564 -0.428623 2.05845 5.92507 -0.0955522 1.71068 1.26008 -1.90753 -0.462335 0.446883 -0.411238 
26.982 1 48 3.86765 6.27761 1.82913 1.18363 -1.36083 -3.05909 0.193354 -0.423016 0.452024 0 0 0 0 0 0 -0.0254667 -0.037573 -0.113197 3.83182 6.28034 1.77722 0.74901 -1.35872 -3.19432 0.199251 -0.438755 0.465092 3.9859 6.24582 1.85568 1.62038 -1.3613 -2.92371 0.187493 -0.407279 0.4389 
26.982 1 81 -0.065188 7.92853 -0.291534 -2.16376 3.27114 -0.181717 -0.223134 0.382578 0.585578 0 0 0 0 0 0 -0.132751 0.00684599 -0.148578 -0.0290557 7.85829 -0.286737 -2.28049 3.09594 0.190436 -0.22554 0.396325 0.611992 0.00117099 7.97409 -0.3247 -2.04631 3.44618 -0.554705 -0.220719 0.368805 0.559125 
26.982 1 83 1.91072 8.2339 1.80236 5.50179 4.95724 -0.927815 -0.355632 -0.180545 -0.00802461 0 0 0 0 0 0 -0.131954 -0.00978696 -0.104115 1.88698 8.21706 1.74932 5.16413 4.97146 -0.923824 -0.368666 -0.184098 -0.00209402 2.0271 8.22585 1.83009 5.84181 4.94281 -0.931255 -0.342556 -0.176991 -0.0140052 
26.982 1 85 3.83107 8.05838 -0.268458 -1.34295 -0.798741 -2.73 0.287179 0.475439 0.375783 0 0 0 0 0 0 -0.0118893 0.055157 -0.272091 3.81996 8.02831 -0.336579 -1.73022 -0.762711 -3.05183 0.282189 0.489162 0.386224 3.92458 8.06334 -0.228616 -0.953719 -0.834858 -2.40721 0.292181 0.461709 0.365325 
26.982 1 242 2.03892 6.17133 3.87772 0.1245 1.05834 3.97767 -0.786058 0.00343845 0.41042 0 0 0 0 0 0 -0.145644 0.0168001 -0.0493812 1.99632 6.12534 3.8485 -0.315902 0.977604 4.15936 -0.808493 -0.000771727 0.432567 2.17403 6.18822 3.88444 0.567425 1.13919 3.79662 -0.763585 0.00765346 0.38827 
26.982 1 285 3.85433 8.21709 3.87811 0.212073 0.733567 2.45893 0.366097 -0.170092 0.198502 0 0 0 0 0 0 -0.0261477 -0.011364 -0.0219623 3.80591 8.20415 3.81612 -0.411652 0.634023 2.31458 0.375729 -0.178352 0.204383 3.98494 8.20486 3.91766 0.838111 0.83289 2.60418 0.356524 -0.161795 0.192607 
26.982 1 46 5.90709 6.19706 0.142923 4.29413 -3.16485 3.06023 0.29316 -0.320659 -0.348962 0 0 0 0 0 0 -0.0136628 -0.0159699 -0.271669 5.89306 6.1523 0.172542 4.14767 -3.39116 3.50565 0.301229 -0.321776 -0.348027 5.99337 6.2128 0.0851269 4.44155 -2.93666 2.61638 0.285074 -0.319529 -0.34991 
26.982 1 52 8.10507 6.08067 2.03366 -1.88587 0.970313 -2.98664 -0.713925 -0.174854 -0.131265 0 0 0 0 0 0 -0.0105217 0.0132187 -0.0939771 8.13175 6.05317 2.057 -1.95229 0.975716 -2.7135 -0.724637 -0.178545 -0.121609 8.14004 6.07926 1.98472 -1.8196 0.967377 -3.25992 -0.70326 -0.171127 -0.140948 
26.982 1 87 5.95796 8.19782 1.94904 -2.89833 -0.949753 4.81939 0.144573 -0.285005 0.0660374 0 0 0 0 0 0 0.00362598 0.018694 -0.132486 5.93985 8.2075 1.93739 -3.25709 -0.931245 4.93826 0.148391 -0.300499 0.0695371 6.048 8.16304 1.93529 -2.53808 -0.967805 4.70105 0.140767 -0.269485 0.0625232 
26.982 1 89 8.04512 8.0877 -0.0880484 -2.48642 2.80482 -1.90679 -0.674176 0.1564 0.346468 0 0 0 0 0 0 0.0143298 0.055639 -0.273461 8.07526 8.08699 -0.0750182 -2.3899 2.83036 -1.75049 -0.684441 0.163634 0.360403 8.07676 8.06369 -0.129196 -2.58254 2.78008 -2.06142 -0.663938 0.149201 0.332543 
26.982 1 246 5.83411 6.04197 4.04298 -2.24502 -2.21745 1.45702 0.159843 0.134384 -0.314808 0 0 0 0 0 0 -0.00206707 0.00271498 -0.0239885 5.85403 6.06915 3.96111 -2.50225 -2.08324 1.29708 0.162005 0.13876 -0.31956 5.88612 5.9857 4.10245 -1.98713 -2.34983 1.61805 0.157682 0.130024 -0.310068 
26.982 1 289 8.07075 8.22001 3.97885 -3.97173 2.61262 0.577165 -0.567791 -0.330869 -0.0452174 0 0 0 0 0 0 -0.00871568 -0.0121793 -0.0294751 8.13138 8.19623 3.9351 -3.9587 2.55086 0.649936 -0.582977 -0.349499 -0.0398601 8.07173 8.21878 4 -3.98461 2.67503 0.504575 -0.552639 -0.312178 -0.0505751 
26.982 1 92 8.03402 10.1818 1.98767 1.50153 1.68327 -3.43312 -0.026291 -0.0316679 -0.546223 0 0 0 0 0 0 0.00243808 -0.0154394 -0.168465 8.04474 10.125 1.93579 1.44972 1.57449 -3.71252 -0.0284075 -0.0353902 -0.560825 8.08495 10.2176 2.01427 1.55366 1.78994 -3.15275 -0.0241896 -0.0279403 -0.531617 
26.982 1 286 5.94447 10.1308 3.83387 2.90608 -5.3898 5.48625 -0.0701806 -0.194793 0.461908 0 0 0 0 0 0 -0.00470366 -0.00571802 -0.0305502 5.94447 10.0872 3.78587 2.67821 -5.56478 5.53681 -0.0754378 -0.200518 0.465334 6.01639 10.1534 3.85944 3.13597 -5.21537 5.43712 -0.0648873 -0.18907 0.458476 
26.982 1 50 10.0624 5.93552 -0.191197 -1.46031 2.55664 1.68675 -0.0475737 -0.072539 0.836876 0 0 0 0 0 0 0.036188 0.0563439 -0.263802 10.1263 5.90641 -0.231095 -1.32367 2.58752 1.56886 -0.0365451 -0.0780712 0.853311 10.0499 5.93579 -0.179582 -1.59722 2.52784 1.80563 -0.058626 -0.066975 0.820421 
26.982 1 56 12.143 6.1274 1.93639 1.5018 0.136996 -2.76613 -0.348331 -0.689614 0.131342 0 0 0 0 0 0 -0.00238995 0.0333406 -0.145556 12.1587 6.08396 1.966 1.42713 0.0873263 -2.6918 -0.351743 -0.707066 0.127362 12.1683 6.14221 1.8813 1.57541 0.18907 -2.84036 -0.344958 -0.672112 0.135245 
26.982 1 91 9.92169 8.07541 1.83167 3.83083 -0.0645815 1.05318 0.606145 0.0186777 0.324037 0 0 0 0 0 0 0.0532573 0.0318341 -0.168556 9.98064 8.07588 1.83868 3.98454 -0.0125906 1.11554 0.618144 0.00788071 0.332274 9.91411 8.05017 1.79929 3.67649 -0.115505 0.991885 0.594098 0.0295306 0.31578 
26.982 1 250 9.90212 6.13502 4.0135 -1.96114 1.92777 -3.0039 0.698793 -0.061374 0.0217239 0 0 0 0 0 0 0.0211303 0.00353382 -0.0153313 9.94985 6.07247 4.0154 -1.85846 1.8218 -2.82955 0.715981 -0.0684679 0.0314501 9.90573 6.16879 3.98878 -2.0648 2.03644 -3.17865 0.681528 -0.0542124 0.0119823 
26.982 1 293 12.1305 8.1016 3.92464 2.33498 2.14867 -0.586548 -0.491937 -0.0248396 0.0151145 0 0 0 0 0 0 -0.00866844 0.00220344 -0.0450942 12.2001 8.07465 3.93961 2.64143 2.14277 -0.496575 -0.498387 -0.0309698 0.0180651 12.1022 8.10368 3.88705 2.02744 2.15585 -0.676201 -0.485537 -0.0186303 0.0121345 
26.982 1 54 14.1155 5.99281 -0.12423 3.91181 1.53689 0.649831 0.125936 0.157387 0.355341 0 0 0 0 0 0 -0.0364728 0.039037 -0.25942 14.089 6.03749 -0.164855 3.87002 1.95346 0.632049 0.128419 0.171416 0.369534 14.1728 5.91942 -0.111899 3.95229 1.12227 0.668495 0.123456 0.143364 0.341097 
26.982 1 60 16.4837 6.20048 2.00079 0.0374169 3.92578 -7.50462 -1.00104 -0.655007 -0.0981125 0 0 0 0 0 0 -0.0322574 0.0158249 -0.103385 16.4917 6.20844 1.93468 0.0236979 4.18937 -8.06403 -1.02884 -0.662992 -0.0957122 16.4964 6.16372 2.04151 0.0507111 3.66394 -6.94466 -0.973209 -0.647052 -0.10054 
26.982 1 95 14.1218 8.06122 1.96922 2.76315 -1.00546 -0.357699 0.060976 -0.0161223 -0.0679912 0 0 0 0 0 0 -0.0340553 0.0443945 -0.16994 14.1418 8.07196 1.87601 2.95443 -0.928177 -0.878119 0.0630029 -0.0213862 -0.0728928 14.1328 8.02585 2.03718 2.5703 -1.08168 0.163377 0.0589306 -0.0108228 -0.0631182 
26.982 1 97 16.0898 8.00291 -0.0310032 -2.59212 -3.59827 3.40855 0.187211 0.116315 -0.318726 0 0 0 0 0 0 0.0085477 0.0967107 -0.278729 16.0523 8.00155 -0.0352197 -2.83719 -3.48084 3.57062 0.181374 0.120542 -0.326964 16.148 7.97935 -0.0550593 -2.34753 -3.71549 3.24662 0.193008 0.11206 -0.310502 
26.982 1 254 13.989 5.92524 4.04425 2.7424 -1.42874 2.17263 0.559615 0.25964 -0.309435 0 0 0 0 0 0 0.00101923 0.0030981 -0.0296658 14.0254 5.86684 4.06124 3.08602 -1.53496 2.24087 0.565054 0.263513 -0.317632 13.9838 5.95488 4.00456 2.39803 -1.31985 2.10443 0.554198 0.255841 -0.301311 
26.982 1 297 16.0488 8.09558 3.962 3.56269 -1.88253 -2.28695 0.281093 -0.14879 0.234955 0 0 0 0 0 0 0.000944391 0.00736153 -0.024108 16.0518 8.08694 3.92796 3.75729 -1.93008 -2.66501 0.28225 -0.155607 0.244865 16.0665 8.07943 3.97344 3.36765 -1.83334 -1.908 0.279935 -0.141954 0.225023 
26.982 1 58 18.3461 5.8706 -0.0414054 -2.41834 -3.13378 -0.704706 -0.191704 0.790293 0.0764785 0 0 0 0 0 0 0.02172 0.0859177 -0.273897 18.2554 5.8582 -0.045323 -2.96184 -3.15373 -0.655499 -0.191952 0.818555 0.0774929 18.4471 5.85436 -0.0658921 -1.8746 -3.11225 -0.754022 -0.191469 0.761978 0.0754716 
26.982 1 62 22.3084 5.92192 -0.108858 0.774012 -0.547055 2.38502 0.242395 0.498823 0.393654 0 0 0 0 0 0 0.00302013 0.098069 -0.269324 22.3219 5.8701 -0.0975959 0.907182 -0.611259 2.45258 0.25301 0.508719 0.395551 22.2851 5.9448 -0.148589 0.641531 -0.482219 2.31741 0.23175 0.488897 0.391745 
26.982 1 64 20.3257 6.14215 1.97658 1.21079 -0.992935 3.52224 -0.128787 -0.237885 -0.0665868 0 0 0 0 0 0 0.0139614 0.0599481 -0.136267 20.2826 6.1576 1.94768 0.920977 -0.696706 3.33564 -0.120183 -0.239142 -0.0720098 20.3688 6.09777 1.98001 1.50128 -1.28813 3.70953 -0.137421 -0.236673 -0.0611543 
26.982 1 99 18.207 8.12137 2.09116 -5.79492 1.69755 1.54205 0.253038 0.148332 -0.618236 0 0 0 0 0 0 0.0410343 0.0664026 -0.176181 18.2029 8.12886 2.01275 -5.93399 1.98523 1.21303 0.255466 0.156595 -0.625127 18.2214 8.08903 2.14414 -5.65536 1.41106 1.87162 0.250608 0.140024 -0.611334 
26.982 1 103 22.2808 8.16134 1.81703 7.64853 -0.292114 1.32503 0.184636 -0.426886 0.499275 0 0 0 0 0 0 0.0016821 0.067573 -0.216895 22.1687 8.14407 1.84744 7.3695 -0.237938 1.76992 0.196738 -0.435084 0.511184 22.3831 8.1538 1.76099 7.9276 -0.346238 0.880469 0.172511 -0.418721 0.487389 
26.982 1 258 18.2771 6.03485 4.11359 -5.54465 0.904906 1.3349 -0.0300738 0.147854 -0.188997 0 0 0 0 0 0 0.00739915 0.0162737 -0.0182352 18.3077 6.00291 4.08042 -5.4126 0.950177 1.28349 -0.0265803 0.155038 -0.193753 18.2567 6.03793 4.1241 -5.67588 0.860868 1.38641 -0.0335153 0.140655 -0.184287 
26.982 1 262 22.3135 6.27865 4.05484 2.69894 0.701911 -0.473803 -0.0982982 -0.288331 -0.400146 0 0 0 0 0 0 0.00138449 0.0155685 -0.0352554 22.2222 6.28131 4.03476 2.33712 0.893778 -0.52055 -0.0969351 -0.287401 -0.410736 22.3946 6.24685 4.05212 3.06071 0.510997 -0.426967 -0.0997099 -0.289301 -0.389537 
26.982 1 301 20.2044 8.01396 4.00554 1.62641 4.76057 1.6639 0.103397 0.342062 0.390562 0 0 0 0 0 0 0.0030961 0.0250961 -0.0392702 20.203 7.97203 4.00217 1.53458 4.80124 1.8232 0.0993472 0.350421 0.406661 20.2059 8.03112 3.98613 1.71786 4.72153 1.50536 0.107444 0.333654 0.374475 