ITEM: TIMESTEP
6675
ITEM: NUMBER OF ATOMS
4000
ITEM: BOX BOUNDS pp pp pp
-1.43084 41.9308
0.393234 40.1068
0.377626 40.1224
ITEM: ATOMS mass type id x y z vx vy vz fx fy fz xrad yrad zrad vxrad vyrad vzrad fxrad fyrad fzrad xub yub zub vxub vyub vzub fxub fyub fzub xlb ylb zlb vxlb vylb vzlb fxlb fylb fzlb 
26.982 1 43 0.663059 4.37226 2.32361 -1.93441 0.289827 -4.90507 0.473323 -0.0199415 0.070278 0 0 0 0 0 0 -0.0646985 -0.0220121 -0.198243 -5.60652 0.0607018 4.03139 -3.48018 -1.02757 -4.71995 0.478548 -0.022017 0.0741929 9.40603 7.97706 -0.166365 -0.375432 1.61688 -5.07956 0.468097 -0.017899 0.0663976 
26.982 1 202 0.777631 2.3082 4.34068 -6.04275 -1.24691 -1.86867 -0.0512104 0.46018 -0.215085 0 0 0 0 0 0 -0.0337881 -0.104206 -0.12991 1.41894 -0.905905 5.5965 -6.07353 -2.14154 -1.37573 -0.0574434 0.463842 -0.219899 2.60673 4.72084 2.43093 -5.99996 -0.340791 -2.3424 -0.0449979 0.456547 -0.21027 
26.982 1 201 -1.33278 0.484922 4.31419 -1.68855 1.77869 -2.96949 -0.233482 -0.21437 0.273719 0 0 0 0 0 0 -0.0751823 -0.137354 -0.205532 42.9594 44.6867 6.49299 -1.29441 2.1459 -1.03895 -0.234231 -0.229044 0.28286 38.4143 36.6615 1.46658 -2.08131 1.41641 -4.88276 -0.232748 -0.199711 0.264582 
26.982 1 241 -1.41674 4.40594 4.36726 4.73548 -0.571559 5.27966 -0.100828 0.0817224 0.231273 0 0 0 0 0 0 -0.118144 -0.0545579 -0.114922 -3.92606 4.99448 3.33629 4.13999 -0.161093 4.59777 -0.105619 0.0840117 0.233608 3.80475 3.10875 4.75412 5.33432 -0.967043 5.98112 -0.0960282 0.0794084 0.228943 
26.982 1 4 -1.40998 2.44053 2.42696 -6.11055 -0.97282 2.30555 -0.252373 -0.215712 -0.0892399 0 0 0 0 0 0 -0.160342 -0.100305 -0.19623 35.0011 2.31009 3.68807 -7.35854 -1.57711 3.24925 -0.262471 -0.22182 -0.100799 46.2123 1.75832 0.411929 -4.8605 -0.358159 1.384 -0.242287 -0.209641 -0.0776951 
26.982 1 2 0.72512 2.34756 0.384981 2.86111 -7.42114 -0.71595 0.11703 0.195765 0.0767275 0 0 0 0 0 0 -0.0498994 -0.110292 -0.203691 2.11724 6.33933 8.68565 3.01689 -6.84447 1.27877 0.122556 0.201389 0.0691054 1.78131 -2.44223 -8.80878 2.71287 -7.98151 -2.70545 0.111507 0.19013 0.0843439 
26.982 1 45 2.87542 4.36111 0.316003 -0.386727 -2.86344 0.790875 0.320243 -0.098992 0.195688 0 0 0 0 0 0 0.00580895 -0.0176252 -0.256473 2.98156 3.96816 41.5326 -0.544139 -3.5296 0.731484 0.327212 -0.109066 0.21087 4.96285 4.06472 39.5398 -0.217978 -2.18175 0.86574 0.313293 -0.08895 0.180494 
26.982 1 8 3.04863 2.38514 2.39967 3.14237 0.442917 -4.05037 -0.298286 0.247114 -0.167826 0 0 0 0 0 0 0.0240843 -0.171761 -0.182165 -0.465651 6.4538 2.37936 2.63631 1.58055 -4.53438 -0.29914 0.246629 -0.166448 8.75577 -2.48437 1.65088 3.6591 -0.678952 -3.55286 -0.297455 0.247607 -0.16921 
26.982 1 245 2.92626 4.28018 4.37788 -1.38396 -5.3563 -0.652044 -0.0221732 0.47774 -0.309022 0 0 0 0 0 0 0.00145615 -0.0184808 -0.0788552 2.59454 3.96352 4.30488 -1.44052 -5.56345 -0.441935 -0.0219052 0.491964 -0.335784 5.45602 3.90874 3.77438 -1.31484 -5.13328 -0.849565 -0.02247 0.46356 -0.282241 
26.982 1 205 2.89715 0.336523 4.28304 6.1557 -1.67548 2.90879 0.266293 -0.123711 0.252066 0 0 0 0 0 0 0.0167413 -0.183763 -0.191003 1.0946 39.065 3.75047 5.76081 -2.23374 2.99573 0.283076 -0.132627 0.269229 6.87672 42.0116 4.13524 6.55599 -1.10202 2.83743 0.249474 -0.114757 0.234888 
26.982 1 47 5.28314 4.31301 2.34869 -3.58113 -0.49345 -1.56516 -0.328405 0.163735 -0.154261 0 0 0 0 0 0 -0.0165094 -0.0495979 -0.172812 2.89244 6.1559 1.88265 -3.94092 0.539843 -1.2784 -0.330031 0.176225 -0.146461 9.562 1.80323 2.0476 -3.21906 -1.50528 -1.83845 -0.326777 0.151288 -0.162067 
26.982 1 206 5.18021 2.55351 4.38404 -4.265 -2.49114 1.64905 0.202102 -0.613239 0.3361 0 0 0 0 0 0 0.00717681 -0.129066 -0.090727 7.78194 1.28038 9.10522 -3.97183 -3.19143 2.89393 0.221385 -0.645923 0.338963 4.46747 3.03802 -0.986979 -4.55609 -1.77597 0.425918 0.182798 -0.580535 0.333227 
26.982 1 12 7.46027 2.17448 2.3157 5.18642 1.59421 4.51972 -0.622983 0.545675 0.314167 0 0 0 0 0 0 -0.0773462 -0.110964 -0.104711 7.41002 2.0604 1.11485 5.44819 1.68112 4.49513 -0.625892 0.558643 0.344952 9.10146 1.49361 2.75587 4.91864 1.52683 4.56123 -0.620061 0.532743 0.283324 
26.982 1 9 7.21762 0.306968 0.342033 6.41842 2.00581 0.47283 0.304122 0.135056 -0.344463 0 0 0 0 0 0 -0.0732559 -0.152663 -0.138578 4.43683 8.30213 1.45132 5.41736 3.594 0.873541 0.308682 0.141392 -0.350362 11.6023 -8.56228 -1.60207 7.41754 0.432716 0.0943496 0.299589 0.128716 -0.338646 
26.982 1 249 7.20758 4.59547 4.4266 -2.74845 1.75676 -1.65172 0.382096 -0.863733 0.00901924 0 0 0 0 0 0 0.00374052 -0.0389011 -0.0294172 9.38954 -2.04299 5.40346 -2.7868 0.955522 -0.83705 0.390537 -0.891431 0.0107172 6.61116 10.5591 2.76464 -2.715 2.57518 -2.44984 0.373661 -0.835996 0.00734272 
26.982 1 209 7.35282 0.282218 4.74757 -1.46364 4.29475 3.07679 -0.171696 0.46831 -0.630389 0 0 0 0 0 0 -0.0181925 -0.149663 -0.156683 9.84091 -1.69579 2.68695 -1.05841 3.75261 2.33172 -0.174246 0.485554 -0.641514 6.46261 1.36001 6.11711 -1.87599 4.8532 3.8303 -0.16914 0.451075 -0.619307 
26.982 1 49 7.24829 4.30436 0.22694 1.78034 -3.155 0.850916 0.0278927 0.208676 0.176379 0 0 0 0 0 0 -0.0447114 0.00522934 -0.262715 10.5521 -0.671133 -2.94582 2.61527 -4.5914 -0.758546 0.0231518 0.219939 0.188864 5.53247 8.5855 2.56305 0.939254 -1.70314 2.48347 0.0326365 0.19742 0.163864 
26.982 1 51 9.40436 4.30461 2.18882 2.01212 9.58332 -2.84899 -0.0621652 0.2112 0.234964 0 0 0 0 0 0 -0.0109547 0.0152383 -0.134162 3.81502 4.32873 -2.44141 0.660843 10.34 -4.34658 -0.066487 0.21601 0.251862 16.3127 3.60694 6.05305 3.35845 8.84963 -1.3301 -0.0578304 0.206433 0.218041 
26.982 1 210 9.27983 2.37738 4.32486 1.75394 -4.66168 1.10688 0.283117 0.266748 0.486313 0 0 0 0 0 0 0.0202669 -0.10452 -0.0252067 7.63397 3.5563 6.9965 1.08386 -5.34279 1.0236 0.274017 0.257894 0.507147 12.2469 0.392519 0.945503 2.41769 -3.96369 1.19516 0.292224 0.275641 0.465487 
26.982 1 11 9.39845 0.371008 2.32774 -4.10504 -2.68371 -1.81964 0.157641 -0.525334 0.333894 0 0 0 0 0 0 0.050831 -0.245692 -0.0757536 7.2597 41.373 -5.04312 -4.45272 -2.41537 -4.13348 0.158476 -0.543256 0.356303 12.8766 39.7695 8.94371 -3.76156 -2.9352 0.51078 0.156813 -0.507455 0.311395 
26.982 1 16 11.5813 2.51326 2.55792 0.468354 -3.71091 2.15204 0.0703427 -0.165184 -0.547635 0 0 0 0 0 0 0.0147929 -0.150793 -0.0854767 12.7795 3.53696 -1.97342 0.415611 -3.33909 1.0737 0.0758936 -0.175578 -0.55094 11.4757 0.702453 6.31008 0.525236 -4.05909 3.23641 0.0648193 -0.154767 -0.544379 
26.982 1 253 11.5495 4.48721 4.40299 0.044352 -2.88458 -0.144998 -0.24668 -0.416305 -0.0175788 0 0 0 0 0 0 -0.00768291 -0.0421337 -0.0305485 11.657 3.12977 14.0127 -0.111427 -3.81025 1.8019 -0.255383 -0.439488 -0.0222146 12.5305 5.18377 -5.89771 0.203338 -1.93014 -2.07924 -0.237965 -0.393092 -0.0129339 
26.982 1 10 9.45767 2.3648 0.25374 -1.69401 -0.970122 -2.98579 -0.33358 -0.495833 0.151473 0 0 0 0 0 0 0.0110031 -0.0849025 -0.237233 12.1443 1.06489 -3.17644 -1.21089 -1.43786 -3.9461 -0.340458 -0.495421 0.166733 8.10691 2.87777 2.84405 -2.18032 -0.486388 -2.00412 -0.326722 -0.496259 0.136176 
26.982 1 53 11.6397 4.09856 0.27746 -5.19623 -4.45491 2.40009 0.108221 0.777957 0.125658 0 0 0 0 0 0 0.00828915 0.0237616 -0.257565 11.7854 7.57522 -5.8126 -5.63662 -4.06893 1.04233 0.120296 0.803239 0.127976 12.5869 -0.0834009 5.5264 -4.75334 -4.82789 3.77694 0.0961493 0.752708 0.123353 
26.982 1 55 13.7207 4.35386 2.46895 0.357482 -1.42445 -5.04966 0.0983255 -0.30706 -0.473492 0 0 0 0 0 0 0.0520436 -0.018184 -0.156274 14.4307 3.56817 4.08097 0.334606 -1.75362 -5.19815 0.103278 -0.311418 -0.486167 13.8394 4.47161 0.0973172 0.382905 -1.07323 -4.88119 0.0933675 -0.302698 -0.460824 
26.982 1 214 13.834 2.24176 4.45155 -0.384012 1.47058 -4.24309 -0.202363 0.0661659 -0.195227 0 0 0 0 0 0 -0.0292849 -0.109158 -0.0725485 18.0527 1.65774 9.75562 0.384327 1.55254 -3.67774 -0.206405 0.0724501 -0.208244 10.4373 2.04646 -1.56101 -1.14723 1.41334 -4.79917 -0.198251 0.0599145 -0.182204 
26.982 1 20 15.9301 2.3454 2.41849 -0.635776 0.0637159 1.01114 -0.310761 0.033664 -0.196564 0 0 0 0 0 0 0.0588135 -0.100321 -0.212694 18.5039 -3.86574 5.96236 -0.014993 -1.06229 1.57514 -0.325273 0.045672 -0.201568 13.8946 7.81693 -1.90215 -1.25657 1.21522 0.464059 -0.296203 0.0216292 -0.191551 
26.982 1 15 13.6472 0.313636 2.17253 -0.508121 -4.56419 1.85065 0.291899 0.140863 0.390824 0 0 0 0 0 0 -0.00335897 -0.216018 -0.116093 12.6873 36.0402 3.51278 -1.1236 -5.34662 3.02709 0.29116 0.146767 0.409868 15.4102 44.9764 0.0602147 0.108785 -3.76733 0.68539 0.292692 0.134951 0.371784 
26.982 1 14 13.7383 2.33142 0.30368 -0.781152 3.35472 -10.629 0.183622 -0.112684 0.290723 0 0 0 0 0 0 0.0674486 -0.0863167 -0.222829 12.2627 4.79266 34.3144 -1.10817 4.15924 -11.7697 0.187192 -0.106688 0.315798 16.0422 -0.922022 46.728 -0.449146 2.56518 -9.47212 0.18008 -0.118692 0.265653 
26.982 1 257 15.8025 4.30591 4.36553 -0.851682 0.354085 2.7752 0.0936399 0.428773 -0.0919664 0 0 0 0 0 0 0.0106326 0.00131078 -0.0791539 17.3924 -1.36119 6.74726 -0.159255 -0.913608 3.63591 0.0909282 0.456975 -0.0970812 14.7689 9.2832 1.27875 -1.54409 1.64106 1.92584 0.0963667 0.400558 -0.0868223 
26.982 1 218 17.9278 2.3561 4.37017 1.63007 2.37093 5.79788 0.329693 -0.00265452 0.172991 0 0 0 0 0 0 0.0119808 -0.0937423 -0.130956 15.0435 -1.85733 5.26478 1.21838 2.45162 5.94627 0.331008 -0.00241695 0.178299 21.0746 5.82603 2.78134 2.0374 2.31693 5.66078 0.328388 -0.00294455 0.167703 
26.982 1 59 18.2103 4.35426 2.42033 0.739793 -1.1933 1.74515 -0.449552 0.281353 0.0130851 0 0 0 0 0 0 -0.00223592 -0.0262621 -0.255068 22.5434 1.59121 4.49739 1.67705 -1.94535 2.38926 -0.464645 0.293298 0.00503555 14.1452 6.45238 -0.419521 -0.201695 -0.419629 1.11963 -0.434426 0.269352 0.0211324 
26.982 1 217 15.935 0.347939 4.42045 -3.25644 3.95536 -5.92173 -0.150861 -0.0332271 -0.0507369 0 0 0 0 0 0 0.00468569 -0.170285 -0.170883 20.596 35.6396 7.43301 -2.5989 3.22976 -4.98227 -0.163615 -0.0238097 -0.053851 11.7979 45.4642 0.719776 -3.91482 4.70322 -6.84854 -0.138033 -0.0426498 -0.0476008 
26.982 1 21 20.2737 0.423831 0.283236 -6.16254 2.76405 2.02559 -0.304004 -0.183991 0.17648 0 0 0 0 0 0 0.00677193 -0.0807653 -0.117428 23.8408 -9.5559 2.51324 -5.5068 1.30174 2.42159 -0.308854 -0.201715 0.181948 16.7024 9.53152 -2.79106 -6.82007 4.23778 1.64713 -0.299219 -0.166299 0.171004 
26.982 1 221 19.9923 0.313795 4.20807 2.25513 -4.96692 2.69593 0.516176 0.34896 0.381526 0 0 0 0 0 0 0.018361 -0.162155 -0.187924 18.2594 39.6047 0.153199 1.55978 -5.718 2.57911 0.520846 0.366446 0.396189 21.7231 41.4544 7.58128 2.94665 -4.19957 2.82409 0.511427 0.331476 0.366902 
26.982 1 261 20.1647 4.37943 4.52022 0.921156 -3.89294 2.5146 0.00351853 -0.191549 -0.42071 0 0 0 0 0 0 0.000539791 -0.0320242 -0.100014 17.9358 3.46652 7.70966 0.794355 -3.78811 3.43421 0.000653942 -0.19489 -0.447892 22.3836 4.62467 0.639187 1.04066 -3.97941 1.61112 0.00638778 -0.188233 -0.39355 
26.982 1 24 20.2273 2.32698 2.33039 -6.44202 0.891606 -2.78961 0.173618 0.184719 0.42428 0 0 0 0 0 0 0.0114627 -0.0965011 -0.211384 18.3039 1.12968 4.81606 -6.55294 0.577397 -1.58568 0.182184 0.182979 0.443218 22.1346 2.78351 -0.923729 -6.33749 1.22848 -3.98016 0.165009 0.186435 0.405369 
26.982 1 63 22.5949 4.25377 2.33495 1.68059 -4.41305 -2.71783 -0.232732 0.08298 -0.0444269 0 0 0 0 0 0 -0.00508814 -0.0477968 -0.249545 25.4423 6.28456 1.47162 2.59495 -4.13021 -2.30185 -0.223709 0.0844664 -0.0460457 19.4761 1.56541 2.44665 0.761859 -4.6787 -3.1154 -0.241791 0.08149 -0.0427596 
26.982 1 222 22.2777 2.34289 4.36906 -0.874792 -1.09383 3.68007 -0.105579 0.0668759 -0.323185 0 0 0 0 0 0 0.0313798 -0.139746 -0.151031 20.844 1.9658 5.58659 -0.9439 -1.05244 4.71932 -0.114746 0.0589635 -0.336512 23.4392 1.97255 2.47009 -0.810531 -1.11368 2.65484 -0.0964584 0.0748 -0.309833 
26.982 1 28 24.7634 2.46022 2.16648 -8.24824 -1.17585 0.960217 0.00959332 0.150088 0.0589633 0 0 0 0 0 0 -0.042662 -0.137478 -0.210194 24.7894 5.90965 4.79418 -8.10349 -1.03846 2.08706 0.0133962 0.14761 0.0585329 24.224 -1.73392 -1.23701 -8.38695 -1.29442 -0.160703 0.00583867 0.152548 0.0594337 
26.982 1 265 24.5785 4.28834 4.30814 0.622682 2.02758 -3.34603 -0.088593 -0.155434 -0.184646 0 0 0 0 0 0 -0.0107993 -0.0430781 -0.0922695 26.7434 -3.12148 4.52562 1.06439 -0.25161 -2.85102 -0.0885005 -0.146072 -0.201815 21.8851 11.0169 3.3942 0.183344 4.31865 -3.83251 -0.0887056 -0.164813 -0.167477 
26.982 1 67 26.8461 4.36182 2.42009 -2.11201 3.64335 -2.31656 -0.137766 0.0905838 -0.133118 0 0 0 0 0 0 -0.0197556 -0.0596461 -0.216806 28.6604 0.247562 4.38164 -2.50161 3.16282 -1.63161 -0.150745 0.0961727 -0.144105 24.2433 7.78103 -0.29616 -1.71083 4.13588 -2.98774 -0.124738 0.0849471 -0.122131 
26.982 1 226 26.7796 2.34055 4.50115 -3.84745 3.87662 3.94122 -0.0357335 0.223182 -0.628437 0 0 0 0 0 0 -0.0447426 -0.084096 -0.0982661 26.5439 2.07 5.63755 -4.0482 3.60538 5.24545 -0.0368342 0.230884 -0.640099 26.2407 1.87825 2.66242 -3.63319 4.17725 2.64323 -0.0345836 0.215477 -0.616801 
26.982 1 269 29.0245 4.45882 4.23367 -3.97376 2.6319 2.05387 -0.536922 -0.167211 0.421858 0 0 0 0 0 0 0.00191087 -0.0310145 -0.0594673 27.0312 9.6182 10.1885 -4.26307 3.80147 3.98335 -0.541924 -0.173936 0.442971 29.9631 -1.39061 -2.39098 -3.66997 1.48236 0.139041 -0.531903 -0.160591 0.400728 
26.982 1 27 26.9747 0.407291 2.43316 3.25004 -2.05159 -2.41709 -0.599474 -0.0699577 -0.0250892 0 0 0 0 0 0 -0.0840545 -0.185571 -0.146548 28.2088 3.19197 -1.12286 3.77766 -0.893899 -1.92748 -0.608228 -0.0822887 -0.0298709 24.956 -3.24429 5.20675 2.72958 -3.19007 -2.89792 -0.590625 -0.057651 -0.0203359 
26.982 1 29 28.9153 0.372513 0.457474 0.0879768 2.48062 -1.94009 0.287141 0.0511395 -0.134759 0 0 0 0 0 0 0.0362105 -0.0902484 -0.165753 27.5239 -6.04084 43.3056 -0.204286 0.573753 -0.472936 0.292976 0.0525345 -0.152508 29.2118 5.90547 38.0463 0.380214 4.40109 -3.39546 0.281332 0.049728 -0.11704 
26.982 1 32 28.8786 2.43094 2.43127 0.268738 -3.409 6.77028 0.178826 0.0867535 -0.394202 0 0 0 0 0 0 0.0347064 -0.0736781 -0.219775 24.8393 3.53676 5.23255 -1.30075 -2.5975 8.29237 0.18117 0.081456 -0.412815 31.841 0.575473 -1.12575 1.8463 -4.19289 5.26458 0.176511 0.0920025 -0.375606 
26.982 1 71 31.1101 4.2674 2.30546 0.911323 1.35526 -1.86389 0.320799 0.486162 0.168553 0 0 0 0 0 0 -0.00813375 -0.0368256 -0.212551 31.1643 5.04012 1.31114 0.93117 2.08476 -1.96855 0.335051 0.509554 0.172895 29.6875 2.79041 2.57432 0.888252 0.640081 -1.73528 0.306536 0.46269 0.164202 
26.982 1 230 31.011 2.53403 4.39463 0.171092 -0.281725 -0.113771 0.483846 -0.273605 0.0952205 0 0 0 0 0 0 0.0499145 -0.132477 -0.112937 25.8007 -1.07332 5.41278 -0.919961 -1.35441 0.227053 0.497352 -0.28691 0.0876893 34.865 5.39376 2.73177 1.26263 0.81584 -0.434191 0.470325 -0.260357 0.102735 
26.982 1 273 33.3265 4.38664 4.44813 -0.709872 -0.844996 2.98866 -0.667413 -0.186766 -0.489481 0 0 0 0 0 0 -0.0187925 -0.0376145 -0.0774762 38.1039 5.78573 3.60702 0.294209 0.401723 3.01681 -0.678721 -0.179568 -0.511275 26.8946 2.2743 4.6226 -1.72569 -2.07764 2.97538 -0.656116 -0.194013 -0.467703 
26.982 1 229 29.0074 0.553901 4.29087 -2.22985 3.04802 -3.33419 -0.194685 -0.659168 0.566646 0 0 0 0 0 0 0.0475683 -0.184269 -0.144975 27.2231 34.1044 10.4397 -3.02448 2.21061 -1.75453 -0.196032 -0.680544 0.575986 29.7268 47.4559 -2.5187 -1.42595 3.91336 -4.89984 -0.193297 -0.637803 0.557278 
26.982 1 36 33.2397 2.40009 2.3239 3.63978 1.82243 0.43566 -0.325385 -0.243954 0.396208 0 0 0 0 0 0 -0.0386994 -0.169857 -0.166334 32.9275 1.19793 -0.693154 4.18891 0.984834 -0.508558 -0.337053 -0.256427 0.413731 31.9156 2.83952 4.62395 3.08007 2.68273 1.40571 -0.313737 -0.231498 0.378645 
26.982 1 73 33.3138 4.23506 0.215647 1.64344 -0.0324164 -2.63633 -0.330775 0.514556 0.121889 0 0 0 0 0 0 -0.00448273 -0.0379513 -0.248622 30.303 10.1317 2.52236 2.11365 1.4004 -2.34169 -0.339576 0.538532 0.141713 34.6783 -2.35563 -2.91384 1.16206 -1.45211 -2.90582 -0.321947 0.490514 0.102007 
26.982 1 75 35.298 4.24782 2.38589 1.51761 -2.60187 2.62747 0.201153 0.315132 -0.344213 0 0 0 0 0 0 0.0123036 -0.0397164 -0.202593 38.7716 2.76394 3.98958 2.09818 -2.10175 3.19681 0.199383 0.327041 -0.34407 29.9046 4.99583 0.0432285 0.925178 -3.09137 2.08029 0.202923 0.303183 -0.344403 
26.982 1 234 35.5085 2.40285 4.40582 0.339434 -1.73032 2.3955 -0.278654 -0.0972623 -0.0389627 0 0 0 0 0 0 -0.041009 -0.0943134 -0.0766228 39.3766 1.40032 5.29221 1.51672 -1.93406 1.80981 -0.275158 -0.10229 -0.0334759 29.7225 2.6127 2.88087 -0.847731 -1.50719 3.0047 -0.282169 -0.0922276 -0.0444842 
26.982 1 40 37.5474 2.53522 2.20572 2.8627 4.61984 -0.337187 -0.0592086 -0.224465 0.510093 0 0 0 0 0 0 -0.0348111 -0.0731797 -0.212461 39.9358 7.77374 1.69691 3.41055 5.89814 -1.60535 -0.0574282 -0.236516 0.527028 32.9775 -3.52739 1.97233 2.30834 3.36035 0.955121 -0.0610347 -0.212416 0.493146 
26.982 1 277 37.629 4.49393 4.3527 -0.22122 -2.53062 -5.00804 -0.384082 -0.117215 0.124341 0 0 0 0 0 0 -0.00985235 -0.0163033 -0.053445 37.2459 8.02025 0.0833013 0.00140919 -0.58338 -6.42779 -0.389251 -0.124698 0.133962 35.8221 0.248002 7.96653 -0.452812 -4.46381 -3.56515 -0.378936 -0.109767 0.114675 
26.982 1 35 35.3366 0.491704 2.33159 0.0573231 -0.306536 -5.97436 -0.113659 -0.0795948 0.156787 0 0 0 0 0 0 -0.058313 -0.197304 -0.16829 32.815 2.94511 2.01077 -0.362375 0.424254 -6.2881 -0.118652 -0.0964969 0.167189 35.9818 -2.8156 1.92374 0.474791 -1.00952 -5.63687 -0.108707 -0.0626424 0.146345 
26.982 1 79 39.7071 4.43945 2.33853 0.176162 2.13013 -2.63117 0.190718 -0.437559 0.378247 0 0 0 0 0 0 0.0146015 0.0163511 -0.215766 36.8516 10.6177 -1.60092 -0.171952 4.45965 -4.40222 0.197173 -0.44951 0.384639 40.1215 -2.44778 5.53608 0.52017 -0.183968 -0.836227 0.184222 -0.42565 0.371854 
26.982 1 238 39.6574 2.44756 4.37484 -1.48563 0.261078 -0.736619 0.122646 -0.0397075 -0.245807 0 0 0 0 0 0 0.00531685 -0.0627482 -0.0768769 42.7124 3.94376 3.79548 -0.486553 0.139058 -1.10909 0.123143 -0.0473765 -0.246835 34.1557 0.154096 4.30051 -2.48936 0.39806 -0.342831 0.122136 -0.0320739 -0.244788 
26.982 1 39 39.6324 0.443145 2.3459 -4.91666 0.753939 0.789637 0.43554 -0.0572841 0.169494 0 0 0 0 0 0 0.0179384 -0.215969 -0.168949 38.2008 40.3634 4.74405 -5.33869 0.138094 1.96705 0.444323 -0.0656158 0.16933 38.6252 40.9131 -0.797861 -4.49645 1.38018 -0.356683 0.426758 -0.0489407 0.16967 
26.982 1 38 39.6941 2.34354 0.388745 -4.08216 0.196186 2.36661 -0.0699894 0.123638 -0.116741 0 0 0 0 0 0 0.00175545 -0.0407174 -0.2547 38.6135 6.09735 46.2199 -4.4048 0.398076 4.31667 -0.0737653 0.12806 -0.126655 38.3389 -2.21493 34.9851 -3.7621 0.0155936 0.434964 -0.0662545 0.119223 -0.106809 
26.982 1 237 37.5228 0.462387 4.24246 -1.71273 3.62795 -1.78932 0.114234 0.0550789 -0.217123 0 0 0 0 0 0 -0.0225804 -0.173447 -0.133227 37.353 3.21102 7.77258 -1.60529 4.69676 -1.10777 0.116849 0.0627984 -0.202885 35.509 -3.18148 0.0558546 -1.82484 2.57428 -2.44779 0.111637 0.0474173 -0.231372 
26.982 1 83 0.921644 8.13739 2.49289 0.766239 0.425232 -0.380863 -0.162313 0.595914 -0.617111 0 0 0 0 0 0 -0.122678 -0.0642128 -0.184984 -0.481667 14.9885 4.90462 0.092704 1.99581 0.448309 -0.166541 0.609909 -0.633455 4.79002 0.730601 -0.705512 1.44864 -1.14341 -1.19413 -0.158036 0.581955 -0.600732 
26.982 1 242 0.765677 6.32528 4.2957 1.51336 -6.37232 2.22561 -0.0541555 -0.398124 0.58877 0 0 0 0 0 0 -0.0918765 -0.0174731 -0.107166 -2.39895 7.14913 8.45942 0.411846 -5.73282 3.3086 -0.0569535 -0.407629 0.595171 6.39688 4.89366 -0.52536 2.62436 -6.99984 1.16535 -0.0513197 -0.388632 0.582446 
26.982 1 281 -1.52018 8.41744 4.361 -4.08634 4.18166 -3.80762 0.648798 0.0468102 -0.365011 0 0 0 0 0 0 -0.110375 -0.100444 -0.166758 42.5908 15.2233 6.18273 -4.13474 6.3733 -3.69706 0.657239 0.0484509 -0.382967 38.4043 1.08987 1.87249 -4.03903 2.00269 -3.90054 0.640374 0.0451693 -0.347026 
26.982 1 88 2.98299 10.1921 2.41369 5.88955 -3.07419 2.15065 0.125201 -0.372712 -0.0853137 0 0 0 0 0 0 -0.0449005 -0.0276372 -0.102727 -1.09022 12.9597 4.40682 4.46606 -1.89042 2.70163 0.12779 -0.381188 -0.0914871 9.27236 6.95795 -0.369618 7.3265 -4.24847 1.60929 0.122697 -0.364168 -0.079104 
26.982 1 285 2.93496 8.19792 4.45087 2.90263 2.14797 5.08605 0.354908 0.16092 -0.500235 0 0 0 0 0 0 -0.00149211 -0.00345533 -0.0491514 -3.85847 9.39321 2.56692 1.61507 3.25767 4.91978 0.366913 0.168864 -0.52217 11.9362 6.45044 5.64193 4.20283 1.03985 5.26113 0.342935 0.153036 -0.478256 
26.982 1 48 3.16035 6.1735 2.29216 -0.182562 -5.28509 4.82013 -0.271566 0.452335 0.143425 0 0 0 0 0 0 -0.0219741 -0.00256668 -0.172485 -2.85266 7.36595 0.00451038 -1.51009 -4.31916 4.21827 -0.263763 0.467652 0.140369 11.3736 4.37303 3.80402 1.15699 -6.24493 5.43561 -0.279329 0.437055 0.146504 
26.982 1 87 5.27915 8.21944 2.38385 4.68404 -0.0976875 1.44436 -0.388303 0.0887122 -0.0990139 0 0 0 0 0 0 -0.00519849 -0.0462445 -0.127436 2.78392 10.9336 6.53222 3.95036 0.13578 2.30734 -0.389187 0.0878582 -0.0973624 9.68465 4.96983 -2.53764 5.42542 -0.324722 0.59638 -0.387396 0.0896455 -0.100666 
26.982 1 246 5.09681 6.26909 4.46813 3.08751 -0.0641932 -2.60794 -0.12482 0.298897 -0.267125 0 0 0 0 0 0 0.00157185 0.001754 -0.0469251 8.19024 7.65824 5.07199 4.09967 1.14084 -1.04217 -0.122918 0.310031 -0.280583 3.90422 4.27545 3.16709 2.08219 -1.25772 -4.16148 -0.126746 0.287807 -0.253634 
26.982 1 289 7.36843 8.36522 4.24764 5.37331 -3.50357 -1.1673 -0.372471 -0.4134 0.231794 0 0 0 0 0 0 -0.00174344 -0.0182257 -0.0208466 11.2889 7.2371 7.0661 5.97604 -3.31642 0.386775 -0.37907 -0.421689 0.23815 5.05488 8.96373 0.72224 4.77166 -3.68359 -2.71557 -0.365903 -0.405083 0.225445 
26.982 1 286 5.09582 10.3184 4.26403 1.69691 -2.75348 -3.19935 0.23185 -0.40331 0.24641 0 0 0 0 0 0 0.00763076 -0.0304199 -0.00344756 6.97664 13.6575 12.8141 1.71379 -1.56289 -0.461452 0.239356 -0.430041 0.253449 5.15154 6.50119 -4.99923 1.69268 -3.94458 -5.93399 0.224332 -0.376537 0.23938 
26.982 1 85 3.13815 8.48975 0.302353 0.406404 -0.598777 1.89957 -0.251512 -0.34953 0.0616506 0 0 0 0 0 0 -0.0302352 -0.0970422 -0.2569 -3.00013 11.9579 7.1177 -0.79165 0.383297 3.98657 -0.251876 -0.370452 0.0722153 11.4606 4.49696 -7.37774 1.61237 -1.56733 -0.179749 -0.251066 -0.328592 0.0510894 
26.982 1 52 7.25156 6.17196 2.22496 -1.32487 -3.33865 -0.79689 0.285688 0.645703 -0.0303664 0 0 0 0 0 0 -0.00216659 0.0086694 -0.161144 8.67737 6.17528 6.55449 -0.934553 -2.84519 0.133199 0.282978 0.658611 -0.0221968 7.41624 5.5728 -2.86393 -1.71919 -3.8196 -1.70915 0.288403 0.632838 -0.0385424 
26.982 1 92 7.31477 10.2559 2.19069 0.0536191 -5.9537 4.35635 0.105466 0.290387 0.291587 0 0 0 0 0 0 0.0234821 -0.00414941 -0.106007 6.89301 11.1246 6.18842 0.000931636 -5.70891 5.91712 0.116802 0.296799 0.303862 9.34308 8.95317 -2.56419 0.104784 -6.1843 2.81442 0.0940801 0.284043 0.279291 
26.982 1 91 9.34048 8.16774 2.25073 0.0088703 -0.837387 1.46011 0.332125 0.152222 -0.0967937 0 0 0 0 0 0 0.0471696 -0.0175738 -0.168527 10.9237 6.43597 4.40422 0.203165 -1.42932 1.74219 0.337051 0.169878 -0.0915786 9.08501 9.37614 -0.653869 -0.189721 -0.240661 1.20039 0.327179 0.134598 -0.102035 
26.982 1 250 9.43513 6.28563 4.31559 3.15602 0.234039 -0.396242 -0.230438 0.135009 -0.0300622 0 0 0 0 0 0 -0.00815102 0.00771346 -0.0419861 9.16033 7.4509 14.401 2.64546 1.01673 1.30018 -0.242183 0.143983 -0.0333643 11.0309 4.55561 -6.50339 3.6638 -0.525637 -2.09452 -0.218685 0.126057 -0.02675 
26.982 1 290 9.52629 10.1845 4.14892 -3.04628 1.49083 -2.92952 0.13535 0.355526 0.0961968 0 0 0 0 0 0 0.0300928 0.013433 -0.0331705 8.52241 14.7507 14.7876 -3.11439 3.45759 -0.0373057 0.152507 0.373565 0.105302 11.8594 5.17453 -7.15969 -2.98084 -0.476289 -5.80909 0.118127 0.337513 0.0870739 
26.982 1 293 11.5419 8.16254 4.27324 2.6021 -2.05411 -0.936326 0.202001 0.41393 -0.114306 0 0 0 0 0 0 0.0140527 0.0276901 -0.0596005 10.3276 9.51536 13.8473 2.37912 -0.220839 1.05816 0.209787 0.441405 -0.111075 13.8356 6.27251 -5.99377 2.82665 -3.89137 -2.91638 0.194191 0.386429 -0.11754 
26.982 1 89 7.37904 8.34864 0.227274 -3.53233 -1.70839 -4.64685 -0.211667 -0.126346 0.187027 0 0 0 0 0 0 0.0172413 -0.0745313 -0.272887 9.13842 9.9032 0.0886386 -3.02534 -1.27712 -5.50342 -0.209767 -0.137467 0.201015 7.21123 6.26692 -0.446296 -4.04627 -2.12929 -3.76255 -0.213574 -0.11519 0.17304 
26.982 1 56 11.5058 6.21928 2.22316 6.3729 -2.38059 -0.799677 0.192807 0.0434264 -0.00743928 0 0 0 0 0 0 -0.00905834 0.0619898 -0.185657 13.909 6.6369 5.34136 6.85255 -1.96132 -0.520268 0.19389 0.0615428 -0.00926339 10.196 5.20542 -1.65815 5.89699 -2.78888 -1.05629 0.191707 0.0253419 -0.00562733 
26.982 1 95 13.7444 8.50421 2.32624 -0.28648 -4.46747 2.70019 0.192145 -0.502598 0.521439 0 0 0 0 0 0 0.000832383 0.000320139 -0.18651 15.4855 10.9213 -2.03945 -0.328395 -4.27384 1.7008 0.194631 -0.517872 0.55196 12.8165 5.54788 5.9421 -0.244432 -4.65759 3.72434 0.189643 -0.487345 0.490876 
26.982 1 254 13.6403 6.3252 4.23232 1.51604 -0.982491 -0.548814 0.447355 0.546699 0.343067 0 0 0 0 0 0 0.0208085 0.0257909 -0.0524748 12.3406 6.41412 11.3672 1.40031 -1.17165 1.24947 0.463884 0.566884 0.355247 15.7684 5.6565 -3.61438 1.63422 -0.776186 -2.34229 0.430802 0.526492 0.330928 
26.982 1 54 13.8572 6.38339 0.428826 -0.979206 5.06108 1.36602 -0.412269 -0.306129 -0.0530345 0 0 0 0 0 0 0.0361423 0.0339244 -0.270707 11.097 11.1197 -5.29463 -1.32494 7.01981 -0.168761 -0.421337 -0.332674 -0.0519524 17.4386 1.03878 5.29799 -0.632255 3.11312 2.92358 -0.403226 -0.279586 -0.0541435 
26.982 1 297 15.9721 8.31428 4.48156 0.229549 -2.4045 -4.53091 -0.188125 0.134915 -0.574066 0 0 0 0 0 0 -0.00868551 -0.00293345 -0.0691767 19.1342 13.2216 -0.111767 0.857574 -1.21201 -4.81819 -0.192051 0.137444 -0.596876 13.3623 2.87379 8.38665 -0.398208 -3.59297 -4.22733 -0.184179 0.132373 -0.551285 
26.982 1 60 15.8519 6.50997 2.23522 0.495712 -2.52147 -0.835278 0.400344 -0.525366 0.812948 0 0 0 0 0 0 0.0448232 -0.0208451 -0.20495 19.9575 10.2096 -1.4047 1.51339 -2.05954 -1.5823 0.408411 -0.544564 0.840539 12.2876 2.19037 5.11456 -0.524212 -2.97728 -0.0684811 0.392269 -0.506217 0.785371 
26.982 1 99 18.2663 8.15804 2.4008 3.03261 -3.20357 -2.8592 -0.353989 0.387922 -0.257264 0 0 0 0 0 0 -0.0254939 -0.0293301 -0.194682 17.1178 10.7965 -1.47712 3.36594 -3.49676 -3.47976 -0.362988 0.404979 -0.261781 19.696 4.94954 5.51773 2.7018 -2.90906 -2.22147 -0.344965 0.370886 -0.252767 
26.982 1 258 18.0449 6.3417 4.323 3.63803 -5.47806 3.18065 -0.13562 -0.218123 0.271031 0 0 0 0 0 0 -0.0163649 -0.0161725 -0.0721529 17.044 10.4224 5.0298 3.32179 -5.7066 3.13243 -0.153162 -0.218324 0.272572 19.3191 1.6576 2.92355 3.94896 -5.23712 3.24171 -0.118046 -0.217969 0.269524 
26.982 1 298 18.0122 10.4038 4.13898 1.58159 1.22105 -0.0067227 -0.0981432 -0.126339 0.314289 0 0 0 0 0 0 -0.00721832 -0.0106824 -0.0465034 17.6806 11.6294 -6.44996 1.57855 1.07071 -2.59634 -0.107668 -0.130877 0.324384 18.6239 8.73035 14.0618 1.58713 1.37828 2.60154 -0.0886274 -0.121783 0.3042 
26.982 1 100 15.8671 10.3342 2.2016 -0.585872 1.4486 1.81448 0.0818816 -0.382303 0.569311 0 0 0 0 0 0 -0.0289807 -0.0752712 -0.16213 17.791 20.2888 -3.72723 0.124924 4.52156 1.03628 0.0830522 -0.405067 0.599998 14.4851 -0.0594884 7.37098 -1.29201 -1.61697 2.61608 0.0806986 -0.359515 0.538602 
26.982 1 98 18.093 10.3384 0.363401 0.380123 1.6581 2.6824 -0.0451553 -0.178261 0.406293 0 0 0 0 0 0 0.0167272 -0.036539 -0.276538 14.6961 13.3258 45.0712 -0.32755 2.16869 4.01505 -0.0453391 -0.18064 0.412211 21.7726 6.91859 36.0631 1.09515 1.15779 1.36257 -0.0450124 -0.175849 0.400355 
26.982 1 301 20.2762 8.15651 4.53186 3.35126 4.89836 1.38603 3.68567e-05 0.144978 -0.4815 0 0 0 0 0 0 0.00488455 0.0168153 -0.0668723 17.6692 5.6847 4.32566 3.01169 4.06897 1.09418 0.000865647 0.165685 -0.497981 22.8766 10.0827 4.06438 3.68598 5.73659 1.69107 -0.000767018 0.124256 -0.465015 
26.982 1 64 20.4522 6.20622 2.45361 1.76939 -5.08152 -0.860366 -0.39441 0.0359247 -0.100238 0 0 0 0 0 0 0.00877479 -0.0456187 -0.238447 19.5928 5.75616 0.0832668 1.83224 -5.33678 -1.52835 -0.392872 0.0436923 -0.113688 21.3099 6.04882 4.05756 1.70309 -4.81017 -0.179897 -0.395927 0.0281415 -0.0867817 
26.982 1 103 22.4324 8.17118 2.54867 1.88964 -2.27776 3.06062 0.227231 0.219123 0.0493898 0 0 0 0 0 0 0.0440341 0.0164937 -0.224891 20.0811 14.6472 3.25995 1.85925 -0.438451 2.82623 0.238915 0.23411 0.0411121 24.4961 1.16184 1.08847 1.91135 -4.10192 3.31053 0.215548 0.204147 0.0576709 
26.982 1 262 22.3334 6.14508 4.52223 0.588447 2.00076 1.51679 0.251122 0.16332 -0.224634 0 0 0 0 0 0 0.0139967 -0.000621021 -0.0866595 20.2883 6.56531 4.00925 0.757416 1.70402 1.20896 0.262576 0.175888 -0.24739 24.0966 5.11785 4.35332 0.411693 2.31046 1.83734 0.239637 0.150739 -0.201892 
26.982 1 305 24.5078 8.41113 4.51411 2.27514 2.11527 -1.44036 -0.177141 -0.442716 -0.23434 0 0 0 0 0 0 -0.0186193 -0.019168 -0.0724451 25.6709 18.5462 -0.956443 2.54022 4.64245 -2.75915 -0.192458 -0.46702 -0.247471 22.8041 -2.24976 9.3036 2.00747 -0.390465 -0.109176 -0.161843 -0.418399 -0.221242 
26.982 1 101 20.4127 8.28688 0.493084 -1.76116 3.77366 1.20544 0.0720302 0.0873192 0.0573749 0 0 0 0 0 0 0.0484674 -0.0356407 -0.283264 16.9113 11.3228 41.8512 -2.18954 4.26928 1.68283 0.0829427 0.0982927 0.0552544 23.9105 4.70639 39.5559 -1.33343 3.28713 0.735931 0.0611408 0.0763315 0.059478 
26.982 1 68 24.7033 6.23838 2.38215 -4.42769 3.53779 3.07645 -0.197365 0.329619 -0.215588 0 0 0 0 0 0 -0.0435369 0.00296117 -0.217913 27.8795 8.14137 4.86135 -3.98888 4.73841 4.1882 -0.202484 0.342814 -0.216648 20.9826 3.70706 -0.86199 -4.86861 2.34463 1.97845 -0.192253 0.31645 -0.214494 
26.982 1 107 26.6616 8.43612 2.27788 4.59527 0.222984 2.25467 0.431387 -0.423583 0.226426 0 0 0 0 0 0 -0.0544326 0.0279427 -0.206184 26.3883 16.3043 3.74452 4.19642 2.13199 3.09047 0.427933 -0.445185 0.233604 26.1262 0.00514952 0.0641813 4.99545 -1.68258 1.4366 0.434821 -0.401946 0.219277 