ITEM: TIMESTEP
3400
ITEM: NUMBER OF ATOMS
4000
ITEM: BOX BOUNDS pp pp pp
-0.765219 41.2652
0.175105 40.3249
0.168975 40.331
ITEM: ATOMS mass type id x y z vx vy vz fx fy fz xrad yrad zrad vxrad vyrad vzrad fxrad fyrad fzrad xub yub zub vxub vyub vzub fxub fyub fzub xlb ylb zlb vxlb vylb vzlb fxlb fylb fzlb 
26.982 1 3 1.45882 0.397839 2.13175 0.817535 -2.58236 1.80064 -0.491954 -0.353567 0.478436 0 0 0 0 0 0 -0.053273 -0.222614 -0.124463 1.5791 0.928273 2.49229 0.612227 -1.61228 2.93381 -0.498638 -0.371828 0.486259 2.56698 -0.632345 1.34567 1.02821 -3.5519 0.672805 -0.485234 -0.3353 0.470667 
26.982 1 8 3.54773 2.13645 2.1982 -0.765707 4.2491 -3.40944 -0.54982 0.718833 0.096967 0 0 0 0 0 0 0.0542411 -0.154177 -0.162992 2.57524 3.5843 2.65649 -1.90776 5.04128 -2.86673 -0.559674 0.744933 0.0934254 5.61529 0.248415 1.31387 0.38248 3.46009 -3.94558 -0.539974 0.692738 0.100543 
26.982 1 43 1.28029 4.24691 2.34753 1.11246 0.235143 -0.926102 0.0642535 -0.33615 -0.751074 0 0 0 0 0 0 -0.110563 -0.0543424 -0.109641 -0.849967 3.52798 3.05119 -0.0665623 -0.720287 -0.5421 0.0658614 -0.347267 -0.773991 4.64865 4.57503 1.2162 2.29787 1.19749 -1.30775 0.0626027 -0.32497 -0.728128 
26.982 1 202 1.15972 2.30227 4.281 -0.8299 -0.729678 -0.657702 0.371682 -0.49669 -0.184028 0 0 0 0 0 0 -0.108341 -0.0869154 -0.0750509 1.25926 1.3245 4.96418 -0.80915 -1.42042 -0.112903 0.378752 -0.525093 -0.187701 2.29617 2.83991 3.22731 -0.842006 -0.0325729 -1.19375 0.364619 -0.468244 -0.180326 
26.982 1 241 41.3112 4.33874 4.36719 4.38974 -4.58555 -1.61963 -0.540939 -0.524986 -0.914106 0 0 0 0 0 0 -0.0211604 -0.0366535 -0.0615559 -1.77919 4.41371 4.14016 4.01287 -4.75398 -1.41934 -0.553405 -0.55639 -0.932325 1.70889 3.8673 4.23028 4.76916 -4.41175 -1.80958 -0.528457 -0.493493 -0.895869 
26.982 1 201 41.27 0.0736287 4.04308 2.09737 4.23232 4.20939 0.0975318 0.394298 0.327314 0 0 0 0 0 0 0.00496259 -0.173254 -0.136085 41.2732 41.8934 3.69737 2.70191 5.76264 4.81503 0.103043 0.409476 0.336655 39.9093 39.0561 4.0086 1.49442 2.70645 3.60978 0.0920199 0.379129 0.318027 
26.982 1 245 3.30891 4.17223 4.21314 -3.33176 2.21034 7.29314 0.553198 0.283939 -0.20374 0 0 0 0 0 0 -0.00295464 -0.0287313 -0.0427455 3.31229 3.86264 4.72195 -3.72493 2.71716 7.77719 0.573586 0.293659 -0.215899 4.40341 4.09868 3.32971 -2.93207 1.713 6.81505 0.532754 0.274232 -0.191551 
26.982 1 47 5.51723 4.19575 2.18148 3.70397 0.793103 2.03137 -0.0132469 0.137451 -0.14532 0 0 0 0 0 0 0.0193492 -0.0941965 -0.133969 4.64853 4.53686 1.29613 3.02518 0.953022 2.14284 -0.0103967 0.14968 -0.146845 7.33612 3.47552 2.64158 4.38109 0.644008 1.92574 -0.0161602 0.12522 -0.143787 
26.982 1 206 5.45715 2.20374 4.16629 -1.4489 3.09918 -3.72873 0.364682 0.408304 0.13347 0 0 0 0 0 0 0.0589144 -0.137375 -0.110556 6.59929 3.05936 6.07199 -1.07864 2.95363 -3.11439 0.375085 0.428732 0.134101 5.26747 0.909756 1.88873 -1.81894 3.25062 -4.33099 0.354225 0.387828 0.132865 
26.982 1 815 13.9491 0.272368 18.2807 -4.76601 0.979866 4.35538 -0.120937 -0.369367 0.0282671 0 0 0 0 0 0 -0.00829783 -0.283029 0.00683939 15.4806 0.270171 16.5851 -4.48257 1.38029 3.80171 -0.126116 -0.370551 0.0367199 12.8174 -0.217724 19.9479 -5.05218 0.585346 4.92067 -0.115777 -0.368227 0.019798 
26.982 1 12 7.57622 2.00085 2.0662 -3.67832 0.813821 -1.46588 0.0561898 1.08958 0.740608 0 0 0 0 0 0 0.010492 -0.21285 -0.17252 7.17129 1.66835 1.92343 -3.84127 0.863178 -1.42472 0.0675906 1.13245 0.758362 8.79071 1.88985 1.78738 -3.52207 0.767736 -1.49929 0.0447218 1.04665 0.722844 
26.982 1 249 7.75891 4.29541 4.03827 -4.51187 -0.628664 1.56607 -0.327419 -0.397748 0.245663 0 0 0 0 0 0 0.00684295 -0.0764565 -0.0516046 8.99999 2.3135 3.34127 -4.27061 -1.87602 1.62767 -0.322119 -0.420238 0.250686 7.32266 5.89406 4.35432 -4.75985 0.627956 1.50882 -0.332765 -0.375241 0.240707 
26.982 1 2835 34.909 20.2953 18.1613 -4.11492 -2.13787 -1.54049 0.394604 -0.135773 0.0584706 0 0 0 0 0 0 -0.0482705 0.104348 -0.0743792 34.1245 20.7846 17.0981 -4.50312 -2.55136 -2.38393 0.407432 -0.142317 0.0705644 34.7374 19.8086 19.191 -3.72555 -1.72067 -0.68522 0.381726 -0.129226 0.0463702 
26.982 1 16 11.8627 2.19552 2.28209 -1.80193 -1.98545 0.445593 -0.265776 0.226366 -0.130246 0 0 0 0 0 0 0.0142458 -0.135886 -0.23062 13.2834 2.50303 0.384281 -1.72211 -2.1657 -0.384792 -0.27348 0.250811 -0.125339 10.9893 1.44686 3.75374 -1.87886 -1.79929 1.27994 -0.258031 0.201891 -0.135159 
26.982 1 51 9.83812 4.27952 2.11651 -0.764241 3.25334 3.41604 -0.0564381 -0.297297 0.0192206 0 0 0 0 0 0 0.0453456 -0.128291 -0.173473 8.36402 4.2019 0.963381 -1.668 3.49701 2.80295 -0.051778 -0.315865 0.0175462 11.9841 3.97501 2.84226 0.133627 3.02023 4.03699 -0.0610943 -0.278679 0.020893 
26.982 1 2833 32.7344 20.2191 16.2843 2.69286 -1.41348 -1.81447 0.150531 0.409819 -0.373024 0 0 0 0 0 0 -0.0446752 0.106655 -0.194224 33.359 21.9711 13.7093 2.79098 -0.663357 -2.86314 0.146 0.425281 -0.40259 31.2888 18.476 18.7877 2.59402 -2.15746 -0.753133 0.155013 0.394338 -0.343424 
26.982 1 210 9.43605 2.17491 4.17606 1.44012 -0.862586 -4.07238 0.519484 -0.0687159 -0.0403321 0 0 0 0 0 0 -0.0141845 -0.13816 -0.122084 9.11052 2.79747 5.10191 1.09176 -0.342788 -3.20305 0.53534 -0.0512571 -0.0382997 10.4343 1.10281 2.87002 1.78292 -1.38101 -4.93791 0.503593 -0.0862009 -0.0423485 
26.982 1 1161 -0.802414 16.409 20.1907 0.729465 -5.61041 -3.90704 0.199003 -1.05516 0.436322 0 0 0 0 0 0 -0.160985 -0.115333 -0.0158039 37.7334 16.0668 20.5976 -0.493461 -5.38175 -2.94086 0.206185 -1.08391 0.449993 43.3693 16.6545 19.7929 1.95488 -5.83792 -4.86899 0.191781 -1.02641 0.422571 
26.982 1 253 11.9564 4.38893 4.34187 1.59784 -3.26575 -3.14433 -0.0279727 -0.424846 -0.307006 0 0 0 0 0 0 0.00920548 -0.0730005 -0.0754838 12.2689 5.1412 7.8017 1.54291 -3.43277 -1.35367 -0.0327206 -0.466883 -0.320812 12.1912 3.25865 0.503291 1.65528 -3.08801 -4.92843 -0.0231638 -0.382734 -0.293174 
26.982 1 20 16.0531 2.11883 2.15464 7.896 1.59557 -1.19838 -0.0388454 0.151884 0.270222 0 0 0 0 0 0 -0.0626002 -0.156761 -0.181532 16.5171 -0.635956 3.54957 8.51029 0.747906 -0.631291 -0.0438578 0.164474 0.275972 15.8627 4.45306 0.327963 7.27953 2.45952 -1.76265 -0.0337936 0.13926 0.264517 
26.982 1 55 13.9151 4.32439 2.31214 2.98018 0.615609 -3.65425 0.0956895 -0.430689 -0.330094 0 0 0 0 0 0 -0.00425227 -0.0785824 -0.238284 14.5504 3.75643 2.73256 3.03688 0.511087 -3.3115 0.084883 -0.449606 -0.339677 13.697 4.51465 1.46562 2.92847 0.732047 -3.9896 0.106541 -0.41172 -0.320478 
26.982 1 2827 26.4786 20.0732 18.2552 5.67507 -0.105536 -4.63229 0.0271491 0.352821 0.310371 0 0 0 0 0 0 -0.126129 0.126765 -0.0524841 26.7828 17.2207 19.4004 6.04934 -1.78139 -4.51429 0.0246687 0.362147 0.336829 25.7751 22.9349 17.062 5.30444 1.58002 -4.74732 0.0296825 0.343527 0.283803 
26.982 1 214 13.958 2.13631 4.18175 -2.30944 -1.03815 0.846875 -0.314412 0.264908 0.160175 0 0 0 0 0 0 0.0172477 -0.134677 -0.137706 15.8917 1.5635 6.12166 -1.66454 -1.20086 2.46737 -0.329607 0.284878 0.16681 12.4351 2.27173 1.85343 -2.95222 -0.867636 -0.772257 -0.299129 0.244948 0.153552 
26.982 1 257 15.9941 4.08805 4.33695 -1.55945 2.14574 0.847984 -0.096874 0.283305 -0.391769 0 0 0 0 0 0 -0.0150166 -0.0553665 -0.0747013 16.3439 2.61555 4.95955 -1.37362 1.22573 1.40714 -0.104959 0.28377 -0.39883 15.9284 5.18487 3.32808 -1.7425 3.07673 0.289215 -0.0888101 0.282843 -0.384695 
26.982 1 213 11.6116 0.22235 4.17966 3.0167 -6.25509 -1.1281 0.181032 0.0963054 0.300605 0 0 0 0 0 0 -0.00264673 -0.16415 -0.199227 11.2478 -0.385296 2.9008 2.63286 -6.83396 -1.03423 0.176396 0.112154 0.321831 12.5166 0.330309 5.07048 3.3998 -5.67443 -1.22008 0.18567 0.0803621 0.279355 
26.982 1 1000 37.1055 18.3172 17.9903 -2.54154 -0.602954 0.63229 0.158401 -0.38458 0.314621 0 0 0 0 0 0 0.00477575 0.01611 0.000750687 35.4059 17.7488 18.3304 -3.1509 -0.91258 0.680607 0.166657 -0.395417 0.330223 37.7058 18.8343 17.6067 -1.93481 -0.294018 0.588313 0.150136 -0.373737 0.299019 
26.982 1 999 39.317 16.2462 18.1339 3.077 0.888613 4.15686 -1.0243 -0.318595 0.0811998 0 0 0 0 0 0 0.0408822 -0.0348136 -0.0523943 36.4862 16.0399 19.4699 2.07008 1.22291 4.84687 -1.05108 -0.32998 0.0930667 40.9175 16.3588 16.7397 4.08394 0.559071 3.4669 -0.997486 -0.307205 0.069318 
26.982 1 2829 28.5186 20.4059 16.4217 -1.97279 0.271585 3.29472 0.484416 -0.838828 -0.310604 0 0 0 0 0 0 -0.020175 0.0293534 -0.0984272 28.8761 21.5246 16.7629 -1.59637 0.221577 3.33246 0.495608 -0.86331 -0.326417 27.6139 19.293 16.0018 -2.3517 0.325463 3.26652 0.473239 -0.81431 -0.294812 
26.982 1 218 18.0914 2.02578 4.09287 -0.0640617 -2.10741 0.250464 0.103926 0.185385 0.261061 0 0 0 0 0 0 -0.0505388 -0.13752 -0.10386 16.5762 -0.718969 4.7043 -0.333187 -3.18625 0.609647 0.103862 0.203237 0.274648 19.7444 4.35245 3.10157 0.201553 -1.01385 -0.105417 0.103968 0.167496 0.247471 
26.982 1 18 18.2048 2.15265 0.142029 -0.139918 -2.40508 3.75114 -0.243674 0.226018 0.11175 0 0 0 0 0 0 -0.0551893 -0.0525407 -0.203872 18.5635 1.08711 0.898461 0.410964 -2.95253 4.82851 -0.249248 0.236584 0.10889 17.9812 2.79531 -1.09159 -0.696237 -1.84371 2.67898 -0.238109 0.215417 0.114649 
26.982 1 59 18.1588 4.13511 2.41788 -4.42228 -4.34721 -0.871925 -0.0826533 -0.0445077 -0.74282 0 0 0 0 0 0 -0.0194191 -0.053909 -0.184087 19.6757 3.24251 2.77569 -3.54834 -5.12136 -0.467737 -0.0816933 -0.0375869 -0.768551 16.7829 4.65432 1.63292 -5.29806 -3.55772 -1.26911 -0.0836501 -0.0514948 -0.717091 
26.982 1 998 39.3475 18.0937 15.9836 4.95522 -2.47123 4.04442 -0.695835 0.22637 0.356096 0 0 0 0 0 0 0.00534572 0.0665689 -0.0754189 37.782 19.8523 15.1333 4.45226 -1.51015 4.20303 -0.71003 0.230509 0.360622 39.6936 16.2804 16.7306 5.46247 -3.43681 3.88466 -0.681625 0.222235 0.351581 
26.982 1 2821 20.3197 20.2225 16.0656 2.55429 -1.33769 3.68522 -0.196312 0.0665052 0.416874 0 0 0 0 0 0 -0.0873897 0.0961811 -0.0926086 19.062 20.6845 15.6702 1.58753 -0.453156 3.27446 -0.196624 0.0568565 0.43857 21.5792 19.7774 16.3588 3.52406 -2.21266 4.09631 -0.196004 0.0761827 0.395131 
26.982 1 24 20.2833 2.04741 2.07449 0.522964 2.4129 -3.24425 -0.0456784 0.31409 0.41439 0 0 0 0 0 0 0.0287207 -0.100113 -0.169263 19.4189 1.3884 2.40169 0.0837909 2.23593 -3.52238 -0.0412502 0.326199 0.418888 21.1459 2.29008 1.3204 0.958343 2.60846 -2.96056 -0.0501237 0.30196 0.409933 
26.982 1 63 22.376 3.98007 2.30675 -2.51277 -3.8821 -0.776674 0.159372 0.62254 -0.921378 0 0 0 0 0 0 0.000760316 -0.0568019 -0.228116 22.7245 4.7127 1.00731 -2.22992 -3.80411 -0.447105 0.157571 0.643086 -0.957424 21.8949 2.88073 3.18565 -2.79422 -3.94006 -1.09698 0.161209 0.601931 -0.885323 
26.982 1 222 22.3599 2.10245 4.11533 1.12883 1.63669 2.96559 0.0569846 -0.540295 0.425964 0 0 0 0 0 0 -0.00123638 -0.105228 -0.107405 21.3846 1.06046 4.43988 0.934264 1.6135 3.19453 0.0572141 -0.549011 0.44127 23.2014 2.72657 3.41176 1.32421 1.67629 2.74368 0.0567774 -0.531609 0.410649 
26.982 1 261 20.3552 4.04988 4.09915 3.46302 0.128965 1.62137 -0.416693 0.252052 0.335561 0 0 0 0 0 0 -0.00824204 -0.0156683 -0.0491258 19.0532 2.83675 4.80514 3.1456 -0.692545 2.35824 -0.422744 0.269078 0.358188 21.658 4.89167 3.01058 3.77868 0.969157 0.888008 -0.410642 0.234941 0.312921 
26.982 1 28 24.5396 2.14509 2.28742 -0.976285 -3.31579 6.90626 -0.240969 -0.253766 -0.304258 0 0 0 0 0 0 -0.0688002 -0.111172 -0.22071 23.8755 3.2055 2.46022 -0.943048 -2.7822 7.79601 -0.24351 -0.269792 -0.320147 24.9424 0.668671 1.68682 -1.00347 -3.82981 6.02182 -0.238408 -0.237757 -0.288318 
26.982 1 27 26.3977 0.0934512 2.238 -3.30836 5.52698 2.33383 0.443287 0.0172555 -0.525588 0 0 0 0 0 0 -0.0261581 -0.213423 -0.180446 26.6973 0.419991 0.541102 -3.28078 6.21023 1.43719 0.449888 0.0156916 -0.536919 25.6955 -0.709981 3.50244 -3.33085 4.85251 3.23512 0.436652 0.0188492 -0.514214 
26.982 1 67 26.5762 4.08565 2.26847 -1.96477 -0.944708 -0.725113 0.132521 0.590919 -0.559831 0 0 0 0 0 0 -0.00143247 -0.00135517 -0.185304 27.9228 2.02229 2.1938 -1.44544 -1.74847 -0.354599 0.138169 0.601981 -0.582384 24.823 5.77173 1.92079 -2.48157 -0.129473 -1.08739 0.126873 0.579836 -0.5372 
26.982 1 226 26.5906 2.15033 4.11923 -1.59677 -1.68178 1.92095 0.148458 -0.383861 0.254334 0 0 0 0 0 0 -0.00495209 -0.074856 -0.0601656 26.5191 1.88965 3.57226 -1.63226 -1.01444 1.82552 0.157524 -0.395373 0.26608 26.2596 1.99312 4.27979 -1.5549 -2.33223 2.01806 0.139403 -0.37233 0.242612 
26.982 1 265 24.5466 4.19958 4.15702 -0.389591 -0.978833 2.11075 -0.0143301 -0.0988284 0.262316 0 0 0 0 0 0 -0.0140388 -0.0142084 -0.0454639 25.0917 2.69284 3.48687 0.139609 -2.12813 2.08809 -0.0173291 -0.091495 0.273749 23.7337 5.33369 4.44224 -0.917438 0.184049 2.13524 -0.0112734 -0.106208 0.250865 
26.982 1 26 26.6114 2.25879 0.179789 -1.80332 -0.208975 -0.132799 -0.06312 -0.248263 -0.154685 0 0 0 0 0 0 -0.0240011 -0.0644083 -0.262699 25.7722 3.61884 0.520258 -2.22178 0.00187236 0.483956 -0.0570313 -0.259257 -0.169013 27.0473 0.473669 -0.6243 -1.38054 -0.406264 -0.736417 -0.0692378 -0.237317 -0.140302 
26.982 1 30 30.9626 2.06951 0.161669 -2.76083 -4.41507 -4.14257 -0.379719 0.0503287 -0.0701413 0 0 0 0 0 0 -0.0236779 0.00381178 -0.259055 30.8535 0.110327 -0.252593 -2.50098 -5.50057 -4.37069 -0.379754 0.0503441 -0.0750875 30.3784 3.60079 0.108762 -3.02396 -3.319 -3.90376 -0.379667 0.0503181 -0.0651804 
26.982 1 32 28.6795 2.26905 2.01459 -1.85999 3.29152 2.95194 -0.0304832 -0.378978 0.215922 0 0 0 0 0 0 -0.00301744 -0.0639578 -0.192063 27.6296 2.42529 1.86037 -2.6778 3.79435 3.25662 -0.0300923 -0.387604 0.216389 29.1772 1.6936 1.74379 -1.04193 2.804 2.65596 -0.0308984 -0.370328 0.215552 
26.982 1 71 30.7404 4.03767 2.16421 0.36474 0.376884 -2.16874 0.122299 0.425238 -0.0789619 0 0 0 0 0 0 0.00676732 0.0592815 -0.215524 30.8657 4.4755 2.08246 0.536127 0.387417 -2.22321 0.119646 0.438144 -0.0885243 29.9244 3.21405 1.83191 0.192016 0.374163 -2.10154 0.124934 0.412361 -0.069312 
26.982 1 230 30.7675 2.18831 4.22456 -0.13906 -2.1959 2.07871 -0.0882347 0.0154156 0.0593365 0 0 0 0 0 0 -0.0032141 -0.0618347 -0.0460435 29.1495 0.641149 3.9541 -1.05221 -2.57003 2.18743 -0.0861453 0.000833464 0.0620416 31.6994 3.31504 4.12745 0.77405 -1.80577 1.98096 -0.0903689 0.0300575 0.0566917 
26.982 1 269 28.7017 4.14449 4.12414 1.40719 -0.959537 4.40038 -0.068261 0.0240768 0.0739811 0 0 0 0 0 0 0.00561526 0.0103966 -0.0599638 28.0744 5.92632 6.04868 0.887774 0.00441121 5.97951 -0.0683138 0.0299721 0.0705456 28.7848 1.98165 1.82328 1.93139 -1.91566 2.82821 -0.0682077 0.0181877 0.0774682 
26.982 1 36 32.826 2.23886 2.41601 3.48747 1.61609 -0.39187 0.51983 -0.179968 -0.67562 0 0 0 0 0 0 0.0150094 -0.0303784 -0.161601 32.4419 2.47281 2.23341 3.40494 1.80143 -0.763613 0.536516 -0.191582 -0.698602 32.3894 1.58147 2.19001 3.56851 1.44499 -0.00552619 0.503111 -0.168316 -0.652621 
26.982 1 2805 3.4671 20.2631 16.2572 -3.14403 -2.08427 0.173969 -0.490555 0.0668965 -0.548175 0 0 0 0 0 0 -0.0172261 0.0897571 -0.134432 5.40218 22.9338 15.2496 -2.55308 -0.885296 -0.45494 -0.498605 0.0683935 -0.565763 2.6167 17.5985 17.1689 -3.74064 -3.27674 0.806131 -0.482522 0.0654351 -0.530617 
26.982 1 273 32.952 4.23704 4.26458 -6.0006 -0.341792 -0.865029 -0.074936 -0.475721 -0.0729601 0 0 0 0 0 0 0.00335325 -0.00389193 -0.0674999 34.8269 3.38945 4.26582 -4.99327 -0.579246 -1.11993 -0.0697599 -0.493579 -0.0867012 30.2478 4.69253 3.88765 -7.01282 -0.0986891 -0.602209 -0.0801336 -0.457803 -0.0591592 
26.982 1 229 28.5547 0.0970456 4.05324 0.37764 1.14943 1.50099 0.135144 0.0361494 0.0217393 0 0 0 0 0 0 -0.000165961 -0.183576 -0.128099 27.6972 37.2203 5.40232 0.31249 0.132959 2.39241 0.135983 0.0395024 0.0205283 28.866 43.7972 2.33303 0.444366 2.17986 0.618238 0.134259 0.0328623 0.0229823 
26.982 1 31 30.7255 0.268229 2.22418 -0.0085023 2.55875 -0.553203 0.0483807 -0.316665 -0.246045 0 0 0 0 0 0 -0.0354537 -0.22422 -0.133456 30.1839 38.4565 1.37467 -0.0363484 1.65977 -0.928108 0.0446359 -0.331524 -0.250823 30.5755 42.9078 2.6576 0.0148873 3.47298 -0.165515 0.0520964 -0.301807 -0.241243 
26.982 1 997 37.0692 16.2094 16.0424 2.26245 -5.54483 -3.9977 0.227342 0.0118287 0.633194 0 0 0 0 0 0 0.0138117 0.00223014 0.0196543 36.0215 14.7852 16.1585 2.30469 -5.61077 -4.16912 0.236572 0.012733 0.658234 37.028 17.5277 15.8372 2.2235 -5.47913 -3.82338 0.218088 0.0109282 0.608154 
26.982 1 33 32.9697 0.0942241 0.158479 1.09186 -0.106107 3.03647 -0.0371111 0.186018 0.179784 0 0 0 0 0 0 0.00376653 -0.150463 -0.171902 32.9684 40.7231 0.289368 1.31421 -0.0258493 3.24212 -0.0327361 0.1995 0.196619 32.156 40.2855 -0.448407 0.871491 -0.171558 2.83765 -0.0414938 0.172494 0.162921 
26.982 1 35 35.0109 0.342177 2.04805 -2.78622 -2.66346 -0.779122 0.0640224 -0.213652 0.148194 0 0 0 0 0 0 0.0434399 -0.205486 -0.133617 34.2583 1.22435 1.69277 -3.21266 -2.39697 -0.771158 0.0660819 -0.217539 0.152921 34.8179 -1.02032 1.99164 -2.35618 -2.91388 -0.774587 0.0619654 -0.209805 0.143473 
26.982 1 75 35.0713 4.21869 2.0243 0.220289 0.593529 1.18157 -0.223776 -0.418366 0.12717 0 0 0 0 0 0 -0.00666757 0.00906594 -0.217629 36.4657 3.11674 1.36748 0.832421 0.154685 1.48713 -0.228564 -0.448993 0.135261 32.7132 4.92141 2.26338 -0.396351 1.03417 0.885197 -0.218963 -0.387645 0.119115 
26.982 1 234 34.9982 2.0851 4.26244 -1.05572 -2.26421 -2.44095 -0.360453 0.119338 -0.384037 0 0 0 0 0 0 0.00366147 -0.0572518 -0.0772688 36.4499 1.06739 4.74585 -0.303518 -2.65034 -2.30033 -0.367028 0.120654 -0.408979 32.5862 2.66379 3.41203 -1.81181 -1.87044 -2.56977 -0.35388 0.11809 -0.359049 
26.982 1 34 35.1556 2.2865 0.0205154 -2.62342 -0.732853 1.34177 -0.0849054 -0.542307 0.538691 0 0 0 0 0 0 0.0399665 -0.00293152 -0.248257 36.0181 5.3219 42.0361 -2.32309 0.911164 2.17649 -0.0874557 -0.567266 0.565112 33.342 -1.18948 38.8256 -2.92161 -2.36878 0.51272 -0.0823448 -0.517331 0.512238 
26.982 1 233 32.7909 0.0373946 4.16379 0.684354 -3.97878 -1.93208 -0.089857 0.43339 0.308231 0 0 0 0 0 0 0.00868239 -0.188559 -0.108209 32.3858 39.256 2.61352 0.696729 -4.53532 -3.00697 -0.0887239 0.443315 0.314581 32.3822 41.6412 5.35534 0.67361 -3.40573 -0.841106 -0.0910167 0.423507 0.301905 
26.982 1 237 37.0391 0.11136 4.15076 -2.21036 -1.11418 -0.50019 -0.219149 0.12978 -0.0931115 0 0 0 0 0 0 0.00509394 -0.174446 -0.139121 36.6347 -0.156826 5.0486 -2.13068 -0.516844 0.224336 -0.232272 0.142302 -0.105936 36.3472 -0.110264 2.87976 -2.2943 -1.70277 -1.21477 -0.205976 0.117254 -0.0802433 
26.982 1 4 -0.716647 2.22124 2.13619 1.35733 -0.214964 -9.01223 -0.0827148 0.459068 0.362628 0 0 0 0 0 0 -0.197294 -0.0926224 -0.096639 38.4763 2.55327 2.25595 0.5333 -0.181668 -9.27182 -0.0850485 0.462578 0.368947 42.7903 1.44089 1.59722 2.18132 -0.243514 -8.74852 -0.0803652 0.455632 0.356367 
26.982 1 40 37.3525 2.06448 2.11301 2.72257 2.7358 1.9054 -0.766016 0.399399 0.131016 0 0 0 0 0 0 0.0352442 -0.0604534 -0.217649 38.1322 3.89489 2.24087 3.16429 4.18631 1.97481 -0.778479 0.413474 0.125237 35.4783 -0.218684 1.57095 2.27788 1.28473 1.84467 -0.753512 0.385396 0.136808 
26.982 1 79 39.192 4.46326 2.07177 1.59466 4.13117 -4.06069 -0.102875 -0.602054 0.114855 0 0 0 0 0 0 -0.00256779 -0.0776446 -0.215568 38.2046 5.573 1.41061 1.31101 4.83755 -4.9483 -0.107043 -0.633185 0.121385 38.9515 2.9602 2.31384 1.87651 3.43184 -3.1649 -0.0986691 -0.570812 0.108352 
26.982 1 238 39.3454 2.36387 4.20371 0.892856 1.17096 4.23834 -0.244363 -0.17525 -0.230989 0 0 0 0 0 0 -0.00298363 -0.0722542 -0.086208 40.0046 3.43715 4.12159 1.71713 1.94112 4.67122 -0.246944 -0.196025 -0.242983 37.4565 0.848938 3.91475 0.0644106 0.410758 3.81445 -0.241736 -0.154438 -0.218966 
26.982 1 277 37.0283 4.12177 3.99515 -0.720921 -0.541318 -2.75106 0.245535 0.175433 0.188785 0 0 0 0 0 0 0.00371499 -0.0228409 -0.0709886 36.3857 3.92465 3.33542 -0.560899 0.124203 -3.5969 0.246566 0.16696 0.183025 36.5735 3.92127 4.2839 -0.885696 -1.20392 -1.8957 0.244536 0.184009 0.194579 
26.982 1 2801 41.2876 20.0733 16.2167 2.63399 1.70586 -1.04733 0.240687 0.547511 -0.0602242 0 0 0 0 0 0 -0.0529011 0.0296174 -0.107984 40.9028 18.6746 17.2095 2.80916 1.47664 -0.254899 0.250344 0.570431 -0.0567099 40.3206 21.4687 15.1242 2.46252 1.93226 -1.84018 0.23104 0.524587 -0.0637562 
26.982 1 2803 1.31334 20.2941 18.214 0.238998 -0.623334 -3.40756 -0.489109 -0.183582 -0.111483 0 0 0 0 0 0 -0.149091 0.0832983 -0.127903 3.13141 19.4144 19.9401 1.04284 -1.767 -2.52319 -0.50429 -0.186314 -0.110966 0.728904 21.1716 16.4474 -0.562964 0.518312 -4.28645 -0.473943 -0.180845 -0.112024 
26.982 1 637 36.9804 0.0539059 12.1579 1.23213 0.799949 -1.6701 0.0358792 0.0543479 -0.118509 0 0 0 0 0 0 -0.0153091 -0.194274 -0.194999 37.5826 2.98887 10.9243 1.82113 1.78861 -1.69489 0.0311887 0.0524981 -0.126175 35.2942 -3.36328 13.2127 0.644337 -0.181184 -1.6402 0.0405595 0.0562213 -0.110866 
26.982 1 83 1.42405 8.20629 2.08008 1.29283 5.60854 -1.91308 -0.23213 0.17582 0.0702469 0 0 0 0 0 0 -0.134711 -0.0392709 -0.130129 0.68833 10.0213 2.27999 1.08229 7.54862 -1.32709 -0.225499 0.18674 0.08177 3.39883 6.09233 1.44686 1.5072 3.66529 -2.49959 -0.23883 0.164871 0.0587289 
26.982 1 242 1.20903 6.22047 4.07957 -1.11193 -0.177992 1.73125 0.567913 0.506947 0.349386 0 0 0 0 0 0 -0.130182 -0.0401526 -0.0748331 -0.0482179 6.13928 4.9085 -1.61731 -0.70601 2.57562 0.584934 0.512879 0.358111 3.70296 5.96432 2.87896 -0.600933 0.357042 0.892093 0.550815 0.501022 0.3407 
26.982 1 44 41.2206 6.22951 2.14941 1.19811 1.56666 -2.60358 0.318001 0.0270117 -0.176452 0 0 0 0 0 0 0.0644496 -0.114536 -0.18865 39.5372 4.58146 2.37936 0.86042 1.05966 -2.84499 0.323998 0.0199922 -0.191244 41.5532 7.53118 1.49301 1.54122 2.07579 -2.36038 0.311986 0.0340785 -0.161635 
26.982 1 281 -0.818596 8.10791 4.07982 -1.50399 -3.18403 -0.358161 0.138021 0.143038 0.450155 0 0 0 0 0 0 -0.138069 -0.107597 -0.154211 41.4654 9.5191 4.11512 -0.941538 -2.03605 0.11715 0.141717 0.164522 0.460966 39.6015 6.40886 3.67386 -2.06413 -4.32702 -0.827662 0.134305 0.121516 0.43937 
26.982 1 48 3.38236 6.19525 2.07473 4.30055 -0.583851 -1.14477 0.371385 -0.00692279 0.399374 0 0 0 0 0 0 -0.024736 -0.0180873 -0.085462 1.0373 5.39107 0.738369 3.16467 -0.492757 -1.28881 0.386168 -0.00160844 0.425053 6.82856 6.66466 2.98106 5.44087 -0.668314 -0.995332 0.356517 -0.0122158 0.373711 
26.982 1 285 3.40673 8.32875 4.08217 -1.65921 -3.27474 -3.38512 0.0349096 -0.307855 0.00587017 0 0 0 0 0 0 -0.0176018 -0.0200679 -0.0271696 0.699859 8.62993 2.62004 -2.87068 -3.20895 -3.91053 0.0381369 -0.316531 -0.00241981 7.21695 7.73195 5.16593 -0.441668 -3.33881 -2.85696 0.0316038 -0.2992 0.0142091 
26.982 1 46 5.62146 6.32766 0.158791 0.82757 -1.74503 0.963345 -0.0860887 -0.272459 0.00695175 0 0 0 0 0 0 0.00311392 -0.0444399 -0.261724 5.02273 5.08423 2.18584 0.278269 -2.77075 1.93632 -0.0854586 -0.282033 0.0127574 7.17051 7.23936 -2.33571 1.37433 -0.711569 0.00213028 -0.0867597 -0.26285 0.00109313 
26.982 1 52 7.65826 6.23574 2.20478 -0.106136 3.48904 -1.52236 0.145298 0.270016 -0.22119 0 0 0 0 0 0 0.00918538 -0.0298825 -0.10708 8.08524 6.4113 3.99002 -0.0991371 3.977 -0.922227 0.147406 0.263919 -0.233697 8.03829 5.73136 -0.00825435 -0.11892 3.00992 -2.11541 0.143197 0.276178 -0.208694 
26.982 1 87 5.57802 8.22912 2.1676 7.0821 5.67701 -2.65102 0.0286701 0.13246 0.153217 0 0 0 0 0 0 0.0077215 0.00536399 -0.0681853 5.19569 8.66831 3.50995 6.71304 6.65831 -2.07228 0.0318532 0.131391 0.172025 6.91904 7.49622 0.395938 7.45364 4.69877 -3.22374 0.0254622 0.133535 0.134396 
26.982 1 86 5.5704 10.2182 0.0568598 -1.00938 1.09907 3.74921 -0.0494419 0.166162 0.185886 0 0 0 0 0 0 0.0456393 0.0393761 -0.262958 5.5141 10.6137 41.2551 -1.50551 1.69607 4.58019 -0.0450156 0.176871 0.204375 6.58605 9.58066 39.6839 -0.511586 0.507228 2.92929 -0.0539109 0.155454 0.167348 
26.982 1 246 5.5764 6.27435 4.20502 -7.95539 -0.217666 1.30589 -0.236679 -0.118763 -0.340366 0 0 0 0 0 0 -0.00593306 -0.0112933 -0.0304059 6.88937 5.54448 2.37124 -7.84116 0.0831717 1.18189 -0.24074 -0.125134 -0.361206 5.21808 6.66946 5.65428 -8.06887 -0.51209 1.43179 -0.232657 -0.112379 -0.319482 
26.982 1 289 7.89065 8.22641 4.24034 1.82717 2.33522 2.16075 -0.744975 0.0379496 -0.483196 0 0 0 0 0 0 -0.0112342 0.0114412 -0.0247144 9.35672 6.87098 4.11884 2.21784 2.36533 2.4848 -0.755967 0.0445385 -0.502684 7.23582 9.29328 3.97899 1.43434 2.30988 1.83944 -0.733939 0.0313707 -0.46368 
26.982 1 286 5.54535 10.3181 4.17696 -0.854303 4.87417 -1.72684 -0.0768622 -0.415344 0.0758836 0 0 0 0 0 0 0.00575128 -0.00844864 -0.0172056 6.34802 10.3733 5.99069 -0.424916 5.64129 -0.248752 -0.0760736 -0.427914 0.0680298 5.71107 10.009 1.98539 -1.27583 4.10323 -3.20351 -0.0776805 -0.40281 0.0837655 
26.982 1 56 11.8978 6.27539 2.18663 -1.60298 -6.85328 3.4106 -0.0730067 -0.179995 -0.158547 0 0 0 0 0 0 0.0482499 -0.0638987 -0.172885 12.8424 6.8079 3.67676 -1.15456 -7.1948 4.2619 -0.079089 -0.19568 -0.161976 11.5047 5.41511 0.268177 -2.04855 -6.50298 2.5656 -0.066887 -0.164173 -0.155091 
26.982 1 91 9.76563 8.25124 2.03679 -0.473477 -0.718506 -0.514985 -0.0251424 -0.172856 0.405778 0 0 0 0 0 0 0.0128105 0.000484236 -0.109648 10.5837 8.68861 2.50993 -0.435045 -1.26049 -0.177023 -0.0365988 -0.182701 0.417153 9.62433 7.53347 1.14123 -0.515513 -0.169133 -0.845323 -0.0136231 -0.16298 0.394407 
26.982 1 250 9.88903 6.28837 4.19166 -0.982127 0.515728 -4.1781 -0.124428 -0.292271 -0.17438 0 0 0 0 0 0 0.0150301 -0.0272325 -0.0377421 10.4152 6.0926 8.17599 -1.00621 0.520537 -2.34871 -0.118508 -0.308361 -0.18876 10.0343 6.16089 -0.183645 -0.963328 0.523267 -6.01066 -0.130305 -0.276072 -0.159958 
26.982 1 293 11.8746 8.20312 4.19181 -2.56801 5.22344 2.28599 0.186508 0.0738542 -0.125167 0 0 0 0 0 0 0.0148616 0.00275731 -0.0334249 11.0801 6.68781 7.5205 -2.80444 5.52618 4.08704 0.189499 0.0763244 -0.124261 13.2159 9.43268 0.482955 -2.33242 4.92477 0.48892 0.18353 0.0713772 -0.126069 
26.982 1 50 9.8018 6.30045 0.0948026 0.105711 -5.22077 -2.18982 0.0569513 0.0837178 0.101961 0 0 0 0 0 0 0.0571794 -0.070639 -0.26696 10.9746 6.74122 -0.698422 0.648607 -5.09151 -2.55296 0.0619534 0.0740463 0.106492 9.30608 5.52613 0.424077 -0.439738 -5.34172 -1.81358 0.0519748 0.0935073 0.0974048 
26.982 1 95 13.92 8.21552 1.99684 -5.0409 -3.05189 -3.10417 0.285092 0.388999 0.871608 0 0 0 0 0 0 0.0211229 0.00782467 -0.191831 14.8621 8.65933 -0.352182 -4.69008 -3.02107 -3.55239 0.291561 0.395022 0.899413 13.3915 7.48254 3.92656 -5.38999 -3.08228 -2.64734 0.278568 0.383008 0.843798 
26.982 1 254 14.0776 6.33058 4.20768 0.0965295 0.122917 -0.704725 -0.834725 -0.615418 -0.0580204 0 0 0 0 0 0 -0.0137401 -0.0264924 -0.0658397 13.4516 5.81141 6.44244 -0.0215188 0.230217 0.647909 -0.848611 -0.633766 -0.067235 15.1238 6.52632 1.58585 0.219484 0.0269287 -2.05904 -0.820851 -0.597017 -0.0487754 
26.982 1 427 26.476 0.165841 10.2922 2.11918 -3.8155 -1.94184 0.181237 -0.106747 -0.404131 0 0 0 0 0 0 0.026035 -0.260739 0.0109516 27.595 -1.24452 8.61848 2.92896 -4.31989 -2.67531 0.180718 -0.111895 -0.416017 24.9601 1.09086 11.7298 1.31168 -3.30539 -1.20335 0.181837 -0.101657 -0.392264 
26.982 1 96 11.7838 10.2573 2.13948 5.06814 0.521899 -3.38856 0.566115 -0.0719171 0.286376 0 0 0 0 0 0 0.0523626 0.0483048 -0.168265 11.7914 9.86249 0.182818 5.28498 0.624455 -4.565 0.572593 -0.0604738 0.29407 12.3223 10.4108 3.67777 4.84761 0.422042 -2.20356 0.55966 -0.0834158 0.278636 
26.982 1 100 16.0886 10.2882 2.21024 -2.36137 3.84719 4.45017 -0.250765 -0.410379 -0.21082 0 0 0 0 0 0 -0.00741728 0.0357095 -0.220389 16.3315 12.7424 -1.00519 -2.35622 5.45563 3.56624 -0.253992 -0.421526 -0.220012 16.1183 7.59372 5.00158 -2.36554 2.24359 5.33848 -0.247612 -0.399247 -0.201709 
26.982 1 294 13.9199 10.2255 4.10519 -2.8107 -1.63136 2.43764 -0.0843191 0.00486268 0.0041933 0 0 0 0 0 0 0.00102408 0.0191052 -0.0565816 14.2049 13.3327 2.87325 -2.56032 0.135206 2.65376 -0.0868766 0.0194609 0.016302 14.0498 6.87645 4.9564 -3.0605 -3.3961 2.22652 -0.0818203 -0.00980401 -0.00793791 
26.982 1 625 24.3659 0.0837263 12.1798 -5.25031 4.46185 2.58511 -0.0981704 -0.0409883 0.500649 0 0 0 0 0 0 -0.0249048 -0.197865 -0.110374 23.7926 0.228748 13.3477 -5.5573 4.97197 3.38098 -0.107082 -0.0416745 0.507327 24.6679 -0.549963 10.8379 -4.94587 3.95679 1.8013 -0.0892198 -0.0404047 0.493962 
26.982 1 60 16.0934 6.17494 2.24283 -1.03782 3.23166 -2.13386 -0.0427187 0.102481 -0.472788 0 0 0 0 0 0 -0.0365634 -0.0485402 -0.206614 17.4493 7.55832 0.421685 -0.543863 3.83551 -2.80813 -0.0370679 0.0967736 -0.488995 15.0143 4.45683 3.63994 -1.53028 2.63329 -1.45201 -0.0484372 0.108202 -0.456559 
26.982 1 297 15.9135 8.11172 4.14399 -0.363447 0.979013 -1.23061 0.719382 0.841654 -0.172296 0 0 0 0 0 0 0.00150621 0.0212422 -0.0651451 16.8109 8.61486 1.6764 0.127065 1.82947 -2.10194 0.727993 0.860862 -0.187255 15.2957 7.31973 6.23195 -0.849632 0.129625 -0.356508 0.710662 0.822416 -0.157342 
26.982 1 99 18.1704 8.25007 2.18443 0.151072 -1.29119 -2.78745 -0.0636099 -0.217853 -0.23027 0 0 0 0 0 0 -0.00118373 0.0366634 -0.159956 17.0637 9.98782 -0.206882 -0.175449 -0.6534 -3.28782 -0.0542524 -0.222045 -0.232595 19.4174 6.21298 4.15337 0.480665 -1.93296 -2.27942 -0.0730364 -0.213652 -0.227958 
26.982 1 258 18.0082 6.18077 4.12536 -2.64969 -4.21229 0.517141 0.563943 0.0654923 0.451428 0 0 0 0 0 0 0.00937337 -0.00880219 -0.0311839 17.8047 7.93418 4.80457 -2.85645 -3.45471 0.9789 0.580125 0.0607794 0.461373 18.3534 4.09427 3.06587 -2.44169 -4.96069 0.0574421 0.547671 0.0701585 0.44149 
26.982 1 301 20.4326 8.1785 4.06813 -2.41004 -0.450438 -5.36022 -0.0819069 0.0780521 -0.0812604 0 0 0 0 0 0 0.00936277 0.00593509 -0.0431524 19.3077 6.99722 4.47283 -2.85869 -0.559818 -5.28955 -0.071534 0.076658 -0.0804739 21.5568 9.06356 3.28826 -1.96036 -0.339582 -5.42514 -0.0922577 0.0794687 -0.0820509 
26.982 1 298 18.376 10.1299 4.03658 1.25324 -1.02024 3.58318 -0.25608 0.281288 0.437698 0 0 0 0 0 0 0.00952737 0.0146843 -0.0605799 18.1905 10.7595 1.24101 1.10498 -0.770261 2.24281 -0.246696 0.277859 0.449637 18.6988 9.25467 6.45936 1.40628 -1.26799 4.93292 -0.265483 0.284755 0.425757 