ITEM: TIMESTEP
18875
ITEM: NUMBER OF ATOMS
4000
ITEM: BOX BOUNDS pp pp pp
-3.91039 44.4104
1.49647 39.0035
1.10271 39.3973
ITEM: ATOMS mass type id x y z vx vy vz fx fy fz xrad yrad zrad vxrad vyrad vzrad fxrad fyrad fzrad xub yub zub vxub vyub vzub fxub fyub fzub xlb ylb zlb vxlb vylb vzlb fxlb fylb fzlb 
26.982 1 43 -2.98154 5.77492 3.31435 4.82425 1.32254 -5.60876 0.318922 0.199874 -0.456414 0 0 0 0 0 0 -0.218822 0.0269845 -0.135398 -16.233 23.5324 36.379 6.10099 10.3027 -2.34076 0.345462 0.212726 -0.46682 17.1195 -14.1646 -31.7126 3.44735 -7.63616 -8.91934 0.292197 0.186907 -0.446072 
26.982 1 202 -3.07881 3.79429 5.33137 -6.65641 0.340813 3.15607 0.621289 -0.218674 -0.0312806 0 0 0 0 0 0 -0.111885 -0.111273 -0.111847 8.8163 -12.0664 37.016 -5.9749 0.822175 20.4496 0.650436 -0.225485 -0.0346044 -8.2127 17.3297 -28.0287 -7.48515 -0.0254691 -14.2746 0.591911 -0.211795 -0.0281383 
26.982 1 245 -0.877472 5.74263 5.24378 1.98811 3.54724 5.53851 -0.172473 0.470272 0.165808 0 0 0 0 0 0 -0.0443034 0.0144618 -0.0445784 -20.4663 28.377 23.5153 -2.01366 13.1297 10.7384 -0.163226 0.490655 0.163932 24.882 -18.734 -14.8021 5.8974 -5.89582 0.206059 -0.181873 0.449866 0.167525 
26.982 1 8 -0.886535 3.94486 3.31172 -5.28898 0.917849 0.742089 0.139286 -0.0678504 -0.373992 0 0 0 0 0 0 -0.0416501 -0.0556627 -0.11178 -1.83021 27.496 20.5329 -0.763599 4.63604 4.11599 0.157906 -0.0620274 -0.374857 6.1461 -22.0117 -15.9437 -9.93864 -2.69793 -2.77076 0.12048 -0.0736532 -0.373305 
26.982 1 45 -0.813964 6.17535 1.24061 1.49559 3.5192 2.91871 -0.138993 -0.418507 -0.00516392 0 0 0 0 0 0 -0.0417346 0.0814346 -0.252037 -9.18841 12.8976 57.9802 0.566893 6.79175 5.10613 -0.138205 -0.425005 0.003898 13.9208 -2.46097 23.7167 2.43741 0.313942 0.673712 -0.139823 -0.412078 -0.0143114 
26.982 1 205 -0.897471 2.1202 5.46411 -1.42515 -5.29808 3.08334 0.190926 0.722331 -0.404251 0 0 0 0 0 0 -0.0121348 -0.249841 0.00846512 27.5005 16.4248 48.078 18.7011 -20.1981 30.7117 0.225196 0.705495 -0.387929 -23.372 66.3699 -38.8535 -21.7117 9.6751 -24.6708 0.156479 0.739328 -0.420729 
26.982 1 804 -2.77343 1.70958 19.3319 8.21774 8.03686 10.9346 0.883183 -0.0320965 0.117288 0 0 0 0 0 0 -0.0981366 -0.204293 -0.0541542 23.5287 -24.6199 18.7397 8.07512 1.74653 3.18323 0.918034 -0.0367631 0.102957 59.8215 25.6383 20.6072 8.34043 14.5012 18.7883 0.848244 -0.0274474 0.131688 
26.982 1 998 42.2881 17.4536 17.2474 -1.47484 1.73062 -2.02701 0.0788978 0.0662602 0.223041 0 0 0 0 0 0 0.0310256 -0.00775288 -0.0291465 37.4039 37.4995 37.167 -0.281267 -4.12889 1.49839 0.0866659 0.0698029 0.220321 40.2301 -2.71131 -2.68803 -2.75319 7.63667 -5.47594 0.0708633 0.0626779 0.225916 
26.982 1 206 1.3011 3.95724 5.24565 -8.8581 0.0918719 -2.17512 -0.423045 0.71705 0.717496 0 0 0 0 0 0 0.000427877 -0.0312836 -0.0104872 28.0052 -41.5719 74.6609 1.54379 -17.1906 19.8601 -0.420792 0.715499 0.741908 -20.0882 47.5214 -65.8134 -19.3615 17.5909 -24.3252 -0.425396 0.718727 0.692969 
26.982 1 12 3.59375 4.28879 3.76654 -3.89873 -1.39587 1.98806 -0.0610681 0.377617 -0.0463963 0 0 0 0 0 0 0.0048165 -0.0310218 -0.0921527 16.2578 -26.4081 -0.471614 2.80958 -16.2394 7.40022 -0.0516851 0.378905 -0.0532959 -4.61077 33.2047 6.08808 -10.6915 13.7094 -3.5223 -0.0705425 0.37645 -0.039607 
26.982 1 9 3.60639 2.24153 1.91611 -0.857244 -1.72488 0.947894 0.166041 0.869208 -0.727996 0 0 0 0 0 0 0.00640508 -0.172919 -0.193516 18.5578 -5.02055 33.3919 10.473 -14.3997 13.0135 0.17647 0.885736 -0.722791 -6.95373 6.99682 -31.6051 -12.3359 11.0934 -11.2453 0.155327 0.852695 -0.73334 
26.982 1 6 1.3217 4.29799 1.46827 -3.13462 -0.678217 -5.09341 0.644025 -0.172777 0.659654 0 0 0 0 0 0 0.0148847 -0.00380607 -0.247372 -2.97563 -30.8113 35.1075 0.648554 -6.89151 1.24415 0.653627 -0.171618 0.677045 10.8275 37.2518 -34.2605 -7.02624 5.67883 -11.5472 0.634282 -0.173946 0.642119 
26.982 1 7 1.24636 2.10707 3.48483 0.248804 0.884196 -0.787776 0.285967 -0.580775 -0.271049 0 0 0 0 0 0 0.0081136 -0.197533 -0.12829 31.5505 3.75218 40.3717 16.5545 -15.6394 16.1275 0.303547 -0.605785 -0.251024 -23.9746 79.1717 -35.4173 -16.2232 17.4905 -17.8895 0.268282 -0.555762 -0.291341 
26.982 1 170 7.0328 18.6517 1.4965 0.697427 2.25741 -5.23087 -0.288753 0.57431 -0.337457 0 0 0 0 0 0 0.0102842 0.0770274 -0.27565 3.90014 39.9858 3.07984 -1.53656 4.71772 -3.23052 -0.287665 0.599122 -0.341554 14.1203 -2.72021 -2.13246 2.97793 -0.254317 -7.23793 -0.289761 0.549408 -0.333478 
26.982 1 209 5.63146 2.44506 3.85161 -2.51867 0.211019 -1.09561 -0.469255 -0.183811 0.111233 0 0 0 0 0 0 0.0200303 -0.144896 -0.116852 -10.6534 -7.59894 9.52048 -9.81245 -5.60677 3.7109 -0.458478 -0.189596 0.11945 26.3843 10.1569 -3.41916 4.71669 6.19904 -5.92802 -0.48024 -0.177968 0.10301 
26.982 1 51 6.36479 5.2246 3.05224 2.12382 2.38494 0.238157 -0.0063777 -0.310903 -0.287717 0 0 0 0 0 0 0.0688785 -0.026345 -0.178086 8.5199 -13.1464 -32.657 16.8929 -8.8685 -6.27846 0.0352462 -0.330522 -0.312352 7.75334 22.0461 37.0962 -12.7875 13.8735 6.77902 -0.0481736 -0.291137 -0.263064 
26.982 1 210 5.74137 4.57386 5.70104 -1.45117 -0.859199 3.00697 0.281835 0.10013 -0.271452 0 0 0 0 0 0 0.0357793 -0.0627571 -0.00441392 -19.448 -22.0386 22.5688 -5.95876 -14.8818 8.17353 0.314993 0.0985539 -0.271436 34.6845 29.1494 -12.7324 2.99358 13.3697 -2.16981 0.248538 0.101871 -0.271562 
26.982 1 11 8.20645 2.35573 3.35259 -4.36919 -2.89848 2.5803 0.000856881 0.00381176 0.0422929 0 0 0 0 0 0 0.0571333 -0.157701 -0.166345 -13.9041 69.54 -42.2143 -9.25293 -4.44052 -4.71811 -0.00758916 0.0234039 0.0330481 34.0805 14.1968 47.1465 0.445305 -1.15566 9.91279 0.00915475 -0.0156517 0.051591 
26.982 1 253 8.71952 5.31958 4.56255 -2.87043 1.55867 -0.470642 0.0235436 -0.3325 0.196194 0 0 0 0 0 0 0.00492418 -0.0329838 -0.0890699 -4.03457 -8.22182 58.4843 -7.01937 -5.53644 1.54858 0.0201884 -0.341015 0.185017 24.6418 17.3374 -50.8383 1.24412 8.87259 -2.43581 0.0268469 -0.323813 0.207364 
26.982 1 3005 0.933375 20.2387 19.8351 -5.9948 8.27527 0.266437 0.143773 -0.170955 -0.108374 0 0 0 0 0 0 -0.0721876 0.0297106 -0.108586 38.2478 83.1971 23.2393 7.00642 26.9902 -16.9929 0.163982 -0.171479 -0.144925 -30.5488 -42.8049 17.2354 -19.1205 -10.5909 17.7264 0.123466 -0.170615 -0.0716296 
26.982 1 2 -2.69278 3.84646 1.12756 -1.17293 -5.71875 -0.959579 0.250923 -0.0198966 0.408547 0 0 0 0 0 0 -0.140629 -0.0376194 -0.205026 15.6267 53.4801 54.8315 2.37149 5.902 3.57393 0.261251 -0.016789 0.417293 -14.225 -48.2381 -54.6612 -4.8156 -17.3338 -5.4985 0.240484 -0.0230501 0.399797 
26.982 1 16 10.5472 3.81488 2.98247 -4.36115 1.67667 2.22883 0.228551 0.160294 0.0046983 0 0 0 0 0 0 -0.0118636 -0.0951234 -0.228899 -21.8358 35.0546 -20.8224 -14.0454 5.07394 -9.05751 0.206428 0.186482 -0.00370682 46.2806 -29.6326 25.0603 5.39932 -1.53582 13.6152 0.250697 0.134305 0.0131647 
26.982 1 213 10.1504 2.49383 5.29153 5.20513 1.31209 -1.00083 0.176841 0.403856 0.657796 0 0 0 0 0 0 0.0005605 -0.124418 -0.100083 -0.0891551 -12.8367 10.8898 2.01847 -12.5099 -3.39166 0.187406 0.400559 0.673868 23.6667 15.2948 -1.85737 8.43712 15.2737 1.44047 0.16633 0.407216 0.64174 
26.982 1 15 12.9675 2.16272 4.10983 -3.60515 -3.90074 1.89223 -0.471423 -0.331961 -0.136293 0 0 0 0 0 0 -0.0401181 -0.193149 -0.174437 -36.3047 28.4896 35.6312 -21.797 -18.8654 11.0559 -0.484842 -0.355691 -0.129215 64.9969 54.4295 -28.898 14.759 11.1831 -7.14499 -0.457912 -0.308119 -0.143293 
26.982 1 214 13.7372 4.07789 5.87814 -0.996207 -1.66412 -1.15952 -0.161725 -0.155904 -0.733813 0 0 0 0 0 0 -0.0116541 -0.156579 -0.0187687 0.727531 -5.4189 32.4492 -10.2249 -12.9226 7.16314 -0.173637 -0.17797 -0.749298 29.446 11.3791 -22.2776 8.34622 9.71405 -9.43494 -0.14979 -0.13378 -0.718306 
26.982 1 14 13.2927 4.67467 2.88684 -5.25514 3.60917 0.444026 -0.774242 0.0792878 0.537555 0 0 0 0 0 0 -0.0617531 -0.0638597 -0.219514 -42.9732 28.9008 32.959 -29.4569 -3.3753 -7.2094 -0.810272 0.0666493 0.533138 72.368 -21.6794 52.3698 19.086 10.773 8.16914 -0.73819 0.092073 0.541945 
26.982 1 20 15.5767 5.16569 4.42724 0.659934 -0.313674 -7.31241 -0.382623 -0.29022 -0.00204943 0 0 0 0 0 0 0.0205658 -0.00494781 -0.0580737 28.9467 -23.5766 17.2028 9.6372 -1.82924 -5.25932 -0.350326 -0.26668 0.0042724 4.01826 31.6211 -9.97811 -8.23533 1.25094 -9.3451 -0.414865 -0.313661 -0.00838483 
26.982 1 57 16.2525 5.28915 1.79442 -1.19861 -1.9877 4.78078 0.485423 0.275846 0.218927 0 0 0 0 0 0 -0.00785211 -0.0228114 -0.272347 28.0709 44.9716 -13.4463 6.54996 -1.35609 4.13045 0.509633 0.286288 0.225225 6.15137 -36.3124 15.2607 -8.89238 -2.5132 5.40113 0.46127 0.265555 0.212439 
26.982 1 17 15.12 2.88838 2.61244 4.05067 -0.733634 -0.05144 -0.27571 -0.30938 -0.734456 0 0 0 0 0 0 -0.0189229 -0.17748 -0.218273 19.3358 50.8106 16.3075 3.08828 -3.27482 -9.80663 -0.281179 -0.332994 -0.751894 12.8192 33.8425 68.3484 5.20838 1.93026 9.70743 -0.270154 -0.285704 -0.717068 
26.982 1 19 17.6638 2.44889 2.52871 -1.28954 0.0992283 -7.39627 1.04872 0.20428 0.0078901 0 0 0 0 0 0 0.0515974 -0.191696 -0.17994 28.9169 15.2547 10.6755 -3.83041 13.3362 -11.5167 1.07144 0.217902 0.00906774 7.39657 -13.1077 -7.29057 1.41167 -13.1841 -3.24514 1.02619 0.190646 0.00663625 
26.982 1 217 16.1449 2.38549 5.18009 -2.98245 -2.33997 -0.225996 -0.156934 0.228909 -0.180831 0 0 0 0 0 0 0.0399213 -0.167443 -0.112309 5.54006 43.7432 44.6569 -12.374 -4.39133 16.0162 -0.144171 0.213813 -0.173214 28.7104 39.6082 -35.8841 6.61981 -0.267827 -16.4027 -0.169565 0.243956 -0.188319 
26.982 1 218 18.0188 4.64011 4.62979 0.286797 -5.80971 0.271413 0.378314 -0.90605 0.158215 0 0 0 0 0 0 0.0356212 -0.0778671 -0.0593231 -10.02 4.99281 3.40848 -0.757698 -1.16877 0.501513 0.402887 -0.934102 0.165412 46.901 1.94841 4.31025 1.3871 -10.4586 0.0751337 0.353893 -0.87812 0.151058 
26.982 1 24 21.8686 4.70414 4.23418 -1.50891 -3.45377 -3.05762 0.0914875 0.0732532 0.0778545 0 0 0 0 0 0 0.0011946 -0.0542778 -0.127156 -12.3675 37.854 24.1568 -16.2273 5.81986 0.637857 0.0764915 0.0843286 0.084198 56.0339 -30.7538 -17.408 13.2706 -12.7934 -6.76575 0.106638 0.062066 0.0714639 
26.982 1 221 20.1403 2.57922 4.70699 -1.99652 5.43912 2.32725 -0.418589 0.253083 0.0897133 0 0 0 0 0 0 0.00624975 -0.169627 -0.134923 -9.1535 66.023 -8.65448 -7.4911 25.5845 5.8305 -0.433375 0.268223 0.090532 49.4408 17.6262 16.4104 3.53924 -14.8113 -1.1917 -0.40365 0.23783 0.0888857 
26.982 1 23 22.2882 2.31392 2.81454 1.36691 1.34016 2.18797 -0.0831814 -0.0939007 0.210694 0 0 0 0 0 0 -0.0202419 -0.173059 -0.191835 7.72891 95.917 39.6246 -5.30322 23.6594 19.6262 -0.113973 -0.0759526 0.236042 36.127 -12.9093 -35.7856 8.07723 -21.1022 -15.3468 -0.0521742 -0.111945 0.185199 
26.982 1 18 19.3361 4.87806 2.11032 -5.01893 0.372153 -1.33529 0.146239 -0.452152 0.00278875 0 0 0 0 0 0 0.0479916 -0.0991674 -0.238563 34.2151 12.4928 10.2935 -4.89358 0.578103 5.28576 0.139058 -0.469027 0.0186401 5.31412 -5.04277 -7.84837 -5.02865 0.150985 -7.99401 0.153532 -0.435302 -0.0132275 
26.982 1 130 7.09741 15.175 1.13886 -4.84774 -2.97817 -6.39091 -0.456561 -0.375227 -0.179823 0 0 0 0 0 0 0.0555575 -0.00990317 -0.282228 0.439249 40.7866 46.7747 -10.5608 -0.525814 9.19518 -0.474663 -0.383294 -0.164997 17.6324 -10.6432 -46.5025 0.935251 -5.32618 -22.008 -0.438399 -0.36718 -0.194738 
26.982 1 63 24.1464 4.46898 2.57772 0.634664 3.6971 -1.577 0.489144 0.482342 0.360908 0 0 0 0 0 0 -0.0184636 -0.0324469 -0.256178 20.1987 53.0192 24.8803 -5.66772 21.2962 6.73268 0.485228 0.529675 0.379141 27.411 -46.3991 -21.497 7.0442 -14.023 -9.93439 0.493159 0.434822 0.342593 
26.982 1 222 24.3741 2.69661 4.57661 -5.32697 -0.419888 -2.87877 0.0240724 0.0809293 0.515178 0 0 0 0 0 0 0.000400621 -0.181501 -0.127544 28.9444 25.579 26.8681 -4.30277 5.7085 11.5618 0.0124466 0.0910439 0.543166 18.9531 -22.6654 -19.3572 -6.2997 -6.61782 -17.3732 0.0358889 0.0707045 0.487143 
26.982 1 28 26.4779 3.0144 2.63516 -0.793034 0.917637 0.0737194 -0.276874 -0.566149 0.123586 0 0 0 0 0 0 0.0026594 -0.180121 -0.215458 28.6925 13.641 39.4564 -4.04039 5.68919 9.2597 -0.279555 -0.559346 0.127125 22.8312 -9.94162 -36.3149 2.53175 -3.85571 -9.19309 -0.274184 -0.573101 0.120042 
26.982 1 265 26.3395 5.06488 4.71664 0.766102 -1.51246 4.02323 -0.0610631 -0.0329353 -0.365353 0 0 0 0 0 0 -0.0132849 -0.0427415 -0.100935 19.6095 -31.7214 10.3165 -7.92301 -5.19216 6.70578 -0.0707814 -0.0216812 -0.376535 31.8509 39.8127 -2.49505 9.67159 2.17882 1.37133 -0.0511649 -0.0444183 -0.354101 
26.982 1 67 28.3601 4.74385 2.60232 5.17184 -0.530335 5.21184 0.452569 0.820417 -0.107039 0 0 0 0 0 0 0.00771015 -0.0614694 -0.264044 21.223 -16.0312 7.54526 0.343039 -3.34134 1.82336 0.447927 0.857679 -0.12026 33.4515 23.4557 -4.02696 10.1473 2.2842 8.70075 0.457257 0.783018 -0.0936916 
26.982 1 226 28.5502 3.16687 4.80659 1.84858 3.31166 2.57705 0.319552 0.133714 -0.458673 0 0 0 0 0 0 0.0137995 -0.180487 -0.153277 16.3154 -18.3723 25.425 -6.08195 -0.603686 5.5848 0.331842 0.125018 -0.484875 38.8114 22.6962 -17.5008 9.93931 7.32125 -0.417031 0.307321 0.142349 -0.432398 
26.982 1 32 30.8351 3.15093 2.67073 4.97386 0.199333 -1.77039 -0.408993 -0.695582 0.337871 0 0 0 0 0 0 -0.00414384 -0.187414 -0.214621 5.76657 15.2556 26.721 1.22485 0.709101 -3.92281 -0.414524 -0.715801 0.340524 53.0369 -11.0957 -23.1251 8.81441 -0.241023 0.450358 -0.403404 -0.675429 0.335328 
26.982 1 269 30.675 5.05553 4.74607 -3.2795 -1.04146 -4.21899 0.0143763 0.0136336 -0.133749 0 0 0 0 0 0 0.00391355 -0.0614173 -0.096159 23.7009 8.5488 28.3426 -5.52745 -5.17922 -5.91993 0.0154971 0.00968268 -0.145656 34.8808 -0.443007 -20.2069 -0.919045 3.15808 -2.42884 0.0133377 0.0175369 -0.121719 
26.982 1 71 32.7172 5.03903 2.56441 -4.23553 -0.0311001 3.07297 0.115417 0.358803 0.424382 0 0 0 0 0 0 6.91466e-05 -0.0532274 -0.26584 32.3246 18.6826 0.964108 -3.96473 -0.854816 2.00162 0.105515 0.367474 0.428915 29.2692 -10.5797 2.72639 -4.46531 0.870007 4.26543 0.12541 0.35014 0.419923 
26.982 1 230 32.8531 3.15376 4.74499 2.51787 -0.562145 -3.53539 -0.388427 -0.0156825 -0.166953 0 0 0 0 0 0 -0.005176 -0.184733 -0.135783 12.0588 -13.5821 -19.7583 1.51207 -3.81107 -10.2086 -0.405851 -0.0286663 -0.164128 49.9102 17.8253 27.9634 3.55941 2.77866 3.21489 -0.371003 -0.00270458 -0.1697 
26.982 1 273 34.8364 5.13934 4.61557 -2.67891 -1.39332 6.88418 0.187325 0.202883 0.4528 0 0 0 0 0 0 0.00848922 -0.0546592 -0.0857536 52.2572 21.1599 -20.1785 0.493146 -0.760596 3.16124 0.194989 0.210174 0.469717 12.5579 -12.9505 27.9928 -5.90985 -1.9576 10.6751 0.179615 0.19561 0.435957 
26.982 1 36 35.0547 3.13126 2.87188 -3.19474 0.225655 3.76305 0.232908 0.382594 -0.454288 0 0 0 0 0 0 -0.0169582 -0.189005 -0.17856 52.1723 -8.72275 -23.7626 1.27449 -0.878542 -0.0466053 0.242349 0.384046 -0.457968 13.13 12.7728 28.0053 -7.70605 1.41636 7.64246 0.223441 0.381148 -0.450589 
26.982 1 75 37.0331 5.2927 2.83073 -2.82166 -1.4335 2.13874 0.350677 -0.548951 0.0891276 0 0 0 0 0 0 0.0197257 -0.0388913 -0.219874 51.4446 31.3675 7.93738 2.11728 1.69597 2.16436 0.362953 -0.575808 0.110737 16.8852 -22.964 -3.75482 -7.85349 -4.49403 2.16995 0.338393 -0.522091 0.0674951 
26.982 1 234 37.3416 3.0796 4.9769 6.79852 -5.04604 3.70982 -0.213754 1.19051 -1.17738 0 0 0 0 0 0 0.00683052 -0.150488 -0.161788 75.4531 -2.51175 -8.02523 16.5943 -4.46778 0.653242 -0.207462 1.23132 -1.21138 -6.60175 6.44173 16.6252 -3.15242 -5.51532 6.78841 -0.220039 1.14973 -1.14333 
26.982 1 40 39.5942 3.42278 3.00806 -1.96405 -3.94118 3.91943 -0.773927 -0.368425 -0.22434 0 0 0 0 0 0 -0.00749613 -0.169207 -0.2025 72.3674 28.7964 3.86397 7.43751 0.47615 9.82538 -0.805704 -0.381924 -0.234332 0.369266 -24.3048 0.42631 -11.4679 -8.26925 -2.02531 -0.742117 -0.354908 -0.214338 
26.982 1 277 39.2962 5.45378 4.9966 8.06712 1.84687 3.51883 -0.371602 0.0318211 -0.270633 0 0 0 0 0 0 -0.0290106 -0.0539504 -0.100978 58.3524 23.5616 -10.8624 17.5742 -1.63604 0.676625 -0.396337 0.0269317 -0.295043 13.7259 -14.5258 19.5725 -1.57214 5.46221 6.38995 -0.346853 0.0367089 -0.246217 
26.982 1 241 43.3581 5.60932 5.2794 0.144647 -5.77589 -3.26 -1.02562 0.0580812 -0.466158 0 0 0 0 0 0 0.0424141 -0.0805536 -0.0647499 18.3663 11.6056 -11.8378 6.57254 -7.26422 -0.536111 -1.03821 0.0571824 -0.466491 -20.9726 -2.25968 20.7544 -6.44133 -4.18835 -6.06184 -1.01318 0.0589068 -0.465973 
26.982 1 4 43.503 3.65006 3.19128 -2.2319 2.3084 -0.612261 -0.0420701 -0.286071 -0.198848 0 0 0 0 0 0 -0.0775722 -0.141056 -0.186091 27.7527 20.6839 37.025 -2.27466 10.0925 11.1794 -0.0431763 -0.298049 -0.201905 51.3876 -15.7855 -32.5089 -2.29641 -5.40838 -12.4916 -0.041044 -0.274053 -0.195828 
26.982 1 79 41.3499 5.46723 3.16448 -1.68088 1.055 2.20903 0.145814 0.038693 -0.519315 0 0 0 0 0 0 -0.0384184 -0.0360049 -0.219677 41.0337 43.7179 -22.3574 2.04829 5.13699 1.51805 0.139619 0.0412633 -0.53438 34.47 -34.8852 27.0049 -5.52684 -2.96184 2.88112 0.152046 0.0361122 -0.504255 
26.982 1 238 41.465 3.37173 5.04082 -2.09521 -5.21859 -0.225258 0.096888 0.407521 0.55585 0 0 0 0 0 0 -0.0424773 -0.119896 -0.120453 61.6448 -11.3284 -3.5137 2.00806 -9.79918 1.88747 0.0956771 0.425875 0.557939 14.0334 15.8915 11.9851 -6.32942 -0.500165 -2.44259 0.0980713 0.389234 0.553699 
26.982 1 83 -2.95693 9.76984 3.04529 -1.04935 2.16553 7.47462 -0.286237 -0.321238 0.678683 0 0 0 0 0 0 -0.114516 -0.0731859 -0.199229 -8.50712 40.5408 18.3444 -2.37059 7.96935 12.2724 -0.280329 -0.314604 0.69579 9.48245 -22.6422 -13.9472 0.216066 -3.68109 2.66055 -0.292274 -0.327979 0.661436 
26.982 1 242 -3.20688 7.76863 5.31268 4.00017 5.02968 -3.49984 0.29023 0.134739 -0.409017 0 0 0 0 0 0 -0.148339 -0.00718126 -0.126477 -3.04239 31.94 34.9537 6.81291 12.1793 2.20397 0.320153 0.154601 -0.414794 3.28181 -18.289 -25.708 1.03263 -2.13837 -9.2487 0.260085 0.114684 -0.403424 
26.982 1 48 -0.853092 8.0125 3.22152 -3.78132 1.78708 -6.06478 -0.197827 0.0968855 0.531721 0 0 0 0 0 0 -0.0636439 0.0248516 -0.169331 -44.3388 59.8873 -16.5333 -8.15784 10.607 -4.2368 -0.211025 0.0995493 0.550876 49.1316 -45.6227 20.7784 0.642198 -6.99574 -8.04213 -0.184679 0.0941541 0.51242 
26.982 1 88 -0.211554 10.9189 2.68084 0.401141 1.51744 3.21232 -0.688446 -0.652355 0.328661 0 0 0 0 0 0 -0.0613237 -0.0502254 -0.21668 -41.8729 35.1829 45.2373 -6.83456 5.41756 17.0736 -0.705895 -0.662423 0.363089 48.1661 -14.6603 -41.8112 7.77919 -2.38452 -10.731 -0.670863 -0.642359 0.294041 
26.982 1 285 -1.32707 9.86796 5.49461 -1.16039 -0.793052 2.84275 0.430265 -0.0746651 0.16432 0 0 0 0 0 0 -0.0734621 0.00493923 -0.0214858 -33.9895 50.7073 46.3953 -6.14342 8.02478 19.1187 0.448285 -0.0615188 0.184035 37.809 -32.6329 -37.1973 3.8668 -9.62494 -13.5686 0.412269 -0.0878789 0.144471 
26.982 1 2227 25.9286 20.0408 4.87376 2.80009 -4.08551 1.24743 -0.211236 0.098655 0.375823 0 0 0 0 0 0 -0.0066138 0.041682 -0.082075 24.7405 59.4034 17.0764 0.354763 -2.73843 22.0406 -0.195335 0.0945387 0.429391 25.0516 -18.7692 -8.51766 5.3853 -5.35521 -19.5899 -0.22719 0.102806 0.321952 
26.982 1 47 1.40217 6.33007 3.52196 -2.44037 3.00148 -0.731204 0.0470632 -0.567263 0.271426 0 0 0 0 0 0 0.00352575 0.0191492 -0.139128 -21.7176 26.3369 -8.58738 -6.64859 4.74471 -0.507909 0.0423116 -0.580845 0.274922 30.0084 -15.1703 13.4911 1.75549 1.46001 -1.10506 0.0518149 -0.553633 0.267763 
26.982 1 249 3.74275 6.548 5.63741 2.90102 5.85728 3.61283 -0.825915 -0.24171 0.374265 0 0 0 0 0 0 -0.0251815 -0.0141237 -0.0108461 -13.8141 -34.0914 31.3326 -3.92617 -4.32149 10.4784 -0.85054 -0.253142 0.382992 25.8597 45.6008 -21.6911 9.69287 16.2557 -3.3404 -0.801382 -0.230148 0.365407 
26.982 1 87 1.93635 8.96698 2.83369 2.99959 1.33887 0.654539 -0.120812 0.387124 0.370082 0 0 0 0 0 0 -0.0278205 -0.0134019 -0.222655 -30.3264 21.1023 43.3628 -5.4792 2.56814 13.2561 -0.125584 0.392 0.387219 40.0263 -4.54092 -39.6356 11.5779 0.193668 -12.0271 -0.11593 0.382304 0.352763 
26.982 1 289 4.10704 9.22533 5.06097 -4.41945 0.421772 3.14846 0.181163 0.26377 -0.322694 0 0 0 0 0 0 -0.00887929 0.00993278 -0.032744 5.71298 17.25 72.0482 -10.3703 1.35605 15.5001 0.180785 0.279275 -0.315487 7.29988 -0.18609 -63.8718 1.56961 -0.406412 -9.31482 0.181532 0.248295 -0.330054 
26.982 1 52 4.18545 7.23654 3.11801 -0.525855 1.60933 0.416114 -0.19574 -0.319263 -0.542588 0 0 0 0 0 0 -0.0162642 -0.000705653 -0.180998 8.48972 -16.1114 35.7922 -2.66889 -7.16229 9.10118 -0.190613 -0.336581 -0.551077 4.29855 29.2202 -31.1892 1.51115 10.591 -8.26102 -0.200992 -0.301763 -0.534117 
26.982 1 89 4.56532 9.90089 2.41074 -1.00304 7.15427 4.42981 0.0658917 0.0395612 -0.710228 0 0 0 0 0 0 -0.0266788 -0.0237712 -0.235651 16.6307 11.6693 -22.2718 -0.98232 4.71485 5.97395 0.0666404 0.0447815 -0.713901 -2.96153 6.8992 25.1749 -1.06137 9.69121 2.87285 0.0649982 0.0343774 -0.706628 
26.982 1 246 1.2559 8.30133 5.48294 -3.43643 -1.37065 2.97104 -0.290164 0.163297 0.213861 0 0 0 0 0 0 -0.024718 0.0145241 -0.0369421 -4.65838 20.8456 50.506 -11.6693 4.11374 12.6784 -0.315922 0.178354 0.207245 12.9752 -5.93914 -41.417 4.89184 -6.78803 -6.88986 -0.264317 0.148238 0.22025 
26.982 1 91 6.8708 10.1657 3.95456 -2.39748 2.53733 -2.86107 -0.206645 0.0163769 0.202688 0 0 0 0 0 0 0.00212667 0.00892169 -0.0645702 20.0898 -2.9142 27.9826 0.409815 2.54947 4.08048 -0.20406 0.0244475 0.215157 -2.69008 22.0628 -21.7654 -5.28438 2.66565 -9.8055 -0.209351 0.00837021 0.190146 
26.982 1 250 6.28295 7.22901 4.95161 0.39698 -1.54462 1.49 0.58138 0.370993 -0.194615 0 0 0 0 0 0 0.0234144 -0.00946429 -0.0256464 14.0051 -10.1266 51.0781 3.4396 -14.6665 7.39457 0.608665 0.362248 -0.184195 2.16354 23.4578 -43.1683 -2.76526 11.8302 -4.45235 0.553902 0.379943 -0.205092 
26.982 1 50 6.72988 7.97949 2.31993 1.77238 0.582842 1.81759 -0.216777 0.182856 -0.470601 0 0 0 0 0 0 0.0118818 -0.0523726 -0.242239 61.2804 -14.1539 -6.1959 24.188 -18.8931 -2.62289 -0.193869 0.150735 -0.472228 -44.2626 28.7797 9.31496 -20.7933 20.2993 6.37378 -0.239872 0.215207 -0.468885 
26.982 1 293 9.23855 10.2591 5.37443 -1.0829 4.90877 -2.32481 -0.0634056 0.101132 0.552016 0 0 0 0 0 0 -0.000460608 0.00500411 -0.0166923 15.1652 27.392 69.4842 1.10551 5.38545 4.08864 -0.0676143 0.0996429 0.552128 6.37461 -8.20255 -60.4529 -3.30862 4.59032 -8.77419 -0.0592499 0.102779 0.551827 
26.982 1 56 8.85576 7.96479 3.78019 -7.77483 -0.226073 2.34846 0.103096 0.271357 0.550864 0 0 0 0 0 0 0.00605395 -0.0405858 -0.0961053 16.0105 -30.3708 15.9896 -6.81477 -22.4129 -2.50317 0.102165 0.233001 0.555139 4.84239 45.0039 -9.93773 -8.77795 22.1807 7.27987 0.103947 0.309865 0.546564 
26.982 1 90 7.31956 10.6498 1.29109 -1.67835 2.43736 -0.652002 -0.360911 0.435307 -0.0491294 0 0 0 0 0 0 0.00496945 0.0208704 -0.279461 24.2862 -17.2379 45.8279 1.60226 -2.64361 3.88961 -0.369182 0.438511 -0.0413438 -5.98637 37.9295 36.3643 -5.03152 7.7674 -5.10912 -0.352732 0.43224 -0.0569178 
26.982 1 95 11.8428 9.11525 2.81809 2.73884 2.34851 2.99173 0.0992117 0.166017 -0.93145 0 0 0 0 0 0 0.0200687 0.0114692 -0.23127 7.54734 -13.3941 -10.9984 1.94004 -9.77897 2.1069 0.1031 0.169974 -0.936998 18.6219 30.2791 15.1219 3.60677 14.685 3.92453 0.0953694 0.162255 -0.926008 
26.982 1 254 11.1849 8.38878 5.21643 -5.54879 -1.09365 4.5789 0.193558 -0.267236 0.842305 0 0 0 0 0 0 -0.0113213 -0.00671525 -0.0146386 -15.1509 -21.2193 85.5953 -11.6417 -8.34886 17.006 0.177975 -0.273334 0.859607 40.125 36.5586 -76.8021 0.58194 6.32714 -7.84744 0.209128 -0.261001 0.824948 
26.982 1 53 11.0325 6.54841 2.97628 1.02142 0.258543 -1.92924 -0.0298319 -0.540252 0.5565 0 0 0 0 0 0 -0.0231257 -0.054738 -0.215924 -37.7591 23.7817 -42.5756 -16.4404 -8.33563 -11.6985 -0.0589424 -0.571257 0.55331 63.1434 -12.3016 46.7183 18.5743 9.08903 7.92777 -0.000641855 -0.509067 0.559686 
26.982 1 55 13.4968 6.71381 4.90553 -0.811238 0.842941 -1.41405 -0.101704 0.202056 -0.323895 0 0 0 0 0 0 0.0201035 0.0065897 -0.0435301 -14.1632 17.5359 42.4591 -4.87555 5.33459 10.0179 -0.0754022 0.212174 -0.318608 43.8129 -5.743 -34.2049 3.33035 -3.47187 -12.8147 -0.12797 0.192015 -0.329202 
26.982 1 97 15.9937 9.24593 2.26502 -3.68014 2.06742 0.45722 -0.118314 -0.0103925 -0.266128 0 0 0 0 0 0 -0.0351525 -0.00438919 -0.240083 34.4855 20.8462 20.5402 5.27658 3.60444 2.16317 -0.120323 -0.0110687 -0.254875 -1.0886 -3.75117 -17.9225 -12.7283 0.654488 -1.25356 -0.116406 -0.00962903 -0.27751 
26.982 1 60 16.9509 7.30204 4.30961 -7.88214 -3.00687 -1.9771 -0.42053 0.223977 0.0860471 0 0 0 0 0 0 -0.0205088 0.00640098 -0.0458991 36.1975 18.3791 -0.418263 -3.05517 -4.93614 1.33208 -0.432549 0.228018 0.0997855 -0.799542 -5.58401 7.33749 -12.7535 -0.973777 -5.31602 -0.408516 0.219995 0.0722237 
26.982 1 297 14.2032 9.24383 4.49609 -2.75034 -0.235325 -0.424793 0.514635 0.207181 -0.882957 0 0 0 0 0 0 0.015128 -0.0089398 -0.0686518 38.8298 49.5741 5.66846 4.43852 -3.64417 4.95306 0.535804 0.196982 -0.883088 -8.7966 -32.4569 1.65685 -9.96266 3.32223 -5.86457 0.493381 0.217503 -0.88295 
26.982 1 54 14.0336 7.14393 2.19839 -4.04133 -3.93344 -2.49704 -0.0817632 0.543006 0.267875 0 0 0 0 0 0 -0.0249963 0.0199753 -0.265369 -12.4398 19.9754 -48.2909 -10.8746 -8.09698 -9.9829 -0.0772546 0.55907 0.267144 43.0891 -7.32908 50.6207 2.86677 0.424636 4.94547 -0.0862797 0.527118 0.268444 
26.982 1 59 19.7575 6.59597 4.32848 0.172233 -2.47286 1.17539 0.0647698 0.397417 0.146738 0 0 0 0 0 0 0.0217843 -0.0187258 -0.0671741 41.0431 -20.1969 18.6292 4.24898 -12.5781 1.50462 0.0739324 0.387369 0.151428 -0.869935 31.1214 -11.5548 -3.90442 7.58922 0.858659 0.0557199 0.407438 0.142025 
26.982 1 61 21.2349 7.14333 1.99814 4.1943 -1.34222 2.96276 0.250576 -0.335237 0.108192 0 0 0 0 0 0 0.076384 -0.0421028 -0.2487 39.8793 6.41556 -4.92087 7.25138 5.11951 9.0302 0.260769 -0.339029 0.135152 2.56209 5.38338 7.13402 1.14743 -7.92712 -3.1144 0.240399 -0.331582 0.0811266 
26.982 1 58 18.3372 7.42294 1.90108 -3.85833 5.25915 -0.19784 -0.471852 -0.071564 -0.285106 0 0 0 0 0 0 -0.0144743 -0.0111867 -0.2558 13.9672 82.0303 30.2738 5.82308 8.40462 2.02373 -0.478841 -0.0731411 -0.280481 23.2602 -69.1153 -27.9981 -13.6425 2.12793 -2.39959 -0.464879 -0.0699511 -0.289939 
26.982 1 99 18.2676 9.4592 3.80068 -0.49671 0.422611 -5.4099 0.521885 0.467131 0.295834 0 0 0 0 0 0 -0.0107988 -0.000719731 -0.0684611 50.4224 55.9745 23.1018 10.9424 7.72171 -1.84234 0.5206 0.469549 0.308746 -13.3731 -38.6466 -17.0452 -12.0817 -6.79161 -8.93845 0.523138 0.464816 0.282889 
26.982 1 64 21.4219 8.73993 4.32796 -5.84752 0.18761 -1.91999 0.25378 0.41289 -0.0438959 0 0 0 0 0 0 0.0154392 -0.00516335 -0.0834435 37.7346 28.6799 -4.49411 4.683 9.19281 -10.5595 0.259508 0.419578 -0.0633366 5.00449 -13.129 11.5331 -16.3863 -8.84385 6.76236 0.24804 0.406203 -0.0244553 
26.982 1 101 19.9636 9.61812 1.60143 2.82369 -0.629862 3.09134 0.0326142 0.684456 0.19078 0 0 0 0 0 0 0.0289248 -0.0140912 -0.256998 32.967 5.58841 23.2711 16.894 1.32936 -6.56685 0.0520152 0.713039 0.18756 6.82602 12.019 59.1887 -11.3562 -2.59608 12.7526 0.0131409 0.655876 0.193879 
26.982 1 103 23.814 8.77897 2.70859 2.53796 3.05374 -1.89605 -0.174422 0.119809 0.146852 0 0 0 0 0 0 0.0124002 -0.00931331 -0.249407 -14.9476 56.5677 -14.8718 -7.22592 26.5871 -11.0691 -0.189904 0.137881 0.1404 61.959 -40.6607 18.6801 12.3998 -20.5501 7.31971 -0.158959 0.101678 0.153277 
26.982 1 262 24.0063 6.69457 4.36074 3.05172 -1.17879 1.78256 0.0696522 0.051012 0.204812 0 0 0 0 0 0 -0.0169033 -0.000418582 -0.106211 -12.6191 26.0479 -10.8544 -14.0401 11.5646 -6.64925 0.0502627 0.0751632 0.204478 60.0888 -14.7309 18.035 20.3213 -14.0381 10.2344 0.0891101 0.026746 0.2052 
26.982 1 305 26.1719 8.79002 4.60422 -0.663861 -0.41043 0.90351 -0.262839 -0.520384 0.529391 0 0 0 0 0 0 -0.0294041 -0.000805196 -0.0730893 -16.7467 77.17 -36.2894 -28.742 15.0618 -10.8269 -0.290092 -0.525558 0.544996 68.0742 -61.2361 44.2129 27.7087 -15.9704 12.7995 -0.235409 -0.515325 0.513951 
26.982 1 68 26.3612 6.99027 2.51179 -1.24357 -3.78642 -0.888864 -0.379981 -0.346737 -0.358604 0 0 0 0 0 0 -0.0228578 -0.00255648 -0.271296 13.1791 31.7999 -6.31571 -11.1758 7.28308 -7.51615 -0.380128 -0.337402 -0.372143 38.337 -19.841 9.7273 8.91751 -14.9753 5.8467 -0.379705 -0.356247 -0.344991 
26.982 1 107 28.2352 8.99621 2.77667 -3.0017 4.63628 0.130602 0.152908 -0.264378 0.143128 0 0 0 0 0 0 -0.00479978 0.00680192 -0.274557 3.27707 46.4591 -6.09076 -23.5992 11.0533 -9.72351 0.128629 -0.273463 0.121924 51.3067 -30.2862 10.2684 17.883 -1.80358 10.1533 0.177399 -0.255303 0.164422 
26.982 1 266 28.4259 6.87279 4.56801 2.07162 -5.28791 1.01567 -0.113253 0.0946321 0.252319 0 0 0 0 0 0 -0.00886885 -0.00467384 -0.0829378 29.1208 7.51913 -6.75867 -4.48465 -7.83864 -4.05143 -0.122278 0.106218 0.253814 25.8383 4.46227 14.5845 8.8574 -2.7389 6.21066 -0.104022 0.0829225 0.250978 
26.982 1 72 30.3221 6.77697 2.6085 0.818103 -1.99914 3.38275 0.357922 0.114384 -0.000222244 0 0 0 0 0 0 0.00296 -0.00745674 -0.276629 19.3212 27.1704 18.435 -3.37748 -1.52961 0.535921 0.33725 0.106596 -0.00445904 38.4361 -15.4174 -14.5823 5.15669 -2.42852 6.38883 0.378756 0.1221 0.00419859 
26.982 1 309 30.4025 8.85865 4.58682 3.08293 -4.9535 3.54617 -0.148637 -0.0349477 0.445028 0 0 0 0 0 0 -0.0135461 0.0012279 -0.0807783 28.9688 9.43453 -13.101 0.682027 -4.95883 2.20153 -0.170449 -0.0333905 0.453923 28.9869 6.67102 21.0257 5.63224 -4.91476 5.01597 -0.126645 -0.0365159 0.436257 
26.982 1 306 28.0757 10.937 4.88056 0.597723 4.35938 -4.05111 0.308457 -0.694022 -1.10608 0 0 0 0 0 0 -0.0250254 0.00373773 -0.0840819 3.47131 28.3405 1.97219 -22.2371 10.8306 -9.48219 0.286154 -0.691954 -1.1234 50.9127 -7.53858 6.56779 23.7617 -2.06063 1.51296 0.331025 -0.69607 -1.08873 
26.982 1 111 32.534 8.96021 2.86413 0.639707 -3.95719 5.30222 0.23785 0.475048 -1.03554 0 0 0 0 0 0 0.00280324 0.00231712 -0.28403 38.981 7.48563 -27.0423 2.13624 -4.56688 0.891014 0.230349 0.494442 -1.06103 22.2923 8.99406 31.1706 -0.805679 -3.27797 9.80358 0.245477 0.455688 -1.00999 
26.982 1 270 32.7162 7.11139 4.56061 0.334299 -0.818023 0.471513 -0.151625 -0.987784 0.583657 0 0 0 0 0 0 -0.00197891 -0.023654 -0.0899675 43.4421 57.5448 16.7138 1.67757 3.02318 0.874002 -0.158674 -1.00578 0.600926 18.1691 -44.9754 -8.8585 -0.982292 -4.5944 0.155367 -0.144522 -0.969794 0.566493 