ITEM: TIMESTEP
12850
ITEM: NUMBER OF ATOMS
4000
ITEM: BOX BOUNDS pp pp pp
-2.68586 43.1859
0.707348 39.7927
0.732497 39.7675
ITEM: ATOMS mass type id x y z vx vy vz fx fy fz xrad yrad zrad vxrad vyrad vzrad fxrad fyrad fzrad xub yub zub vxub vyub vzub fxub fyub fzub xlb ylb zlb vxlb vylb vzlb fxlb fylb fzlb 
26.982 1 43 -0.0620771 4.59116 2.78202 4.61899 1.32978 -3.40626 -0.692181 -0.17989 -0.141731 0 0 0 0 0 0 -0.0852227 -0.0350545 -0.215809 -14.7832 0.704874 14.0234 3.22923 1.87756 -1.55207 -0.70715 -0.183417 -0.13956 19.4343 7.38385 -9.76592 6.01298 0.811442 -5.23435 -0.677284 -0.176416 -0.143963 
26.982 1 202 -0.351553 2.57348 4.85464 -0.699706 -4.66838 2.31894 0.205581 0.371899 -0.324992 0 0 0 0 0 0 -0.0215452 -0.101656 -0.114428 1.25713 -11.6344 5.95017 -0.288117 -7.43452 2.05667 0.219465 0.387085 -0.344212 2.81986 15.5732 2.71754 -1.10752 -1.86044 2.61867 0.19166 0.356666 -0.305808 
26.982 1 3 -0.558375 0.700645 2.76894 3.12391 0.719626 -3.22968 0.254476 -0.278164 -0.247896 0 0 0 0 0 0 -0.0179591 -0.156678 -0.161936 -3.93177 7.4853 16.8617 2.51311 1.14427 -0.931763 0.250965 -0.277421 -0.274633 7.5721 -7.56562 -12.6035 3.74327 0.313358 -5.5077 0.257942 -0.278983 -0.221212 
26.982 1 4 -2.54499 2.74736 2.93497 -0.461066 1.34014 -2.09298 0.022303 0.0066806 -0.414768 0 0 0 0 0 0 -0.135952 -0.100104 -0.192562 26.6765 0.385755 5.53915 -2.30241 0.651074 -2.1097 0.0338993 0.000598793 -0.436357 54.789 3.88987 -0.858325 1.3839 2.06537 -2.03308 0.0106894 0.0126655 -0.3932 
26.982 1 241 -2.81576 4.74994 4.71718 2.27211 0.108938 0.963762 0.375503 0.123014 -0.0786948 0 0 0 0 0 0 -0.0913894 -0.08024 -0.160352 -6.85731 10.5493 -6.95334 1.87435 1.5605 -1.58935 0.397755 0.117556 -0.0981563 6.44579 -2.08115 15.3361 2.66789 -1.29924 3.54695 0.353204 0.128402 -0.0591465 
26.982 1 245 1.87977 4.42801 4.69736 1.24959 -3.05833 -4.64703 0.199444 0.126578 0.157293 0 0 0 0 0 0 0.00541224 -0.0326637 -0.0740136 -0.617768 6.87387 4.46364 0.0527313 -3.28054 -4.5887 0.205697 0.146955 0.154531 8.63966 0.936089 3.83581 2.44725 -2.80092 -4.67182 0.193186 0.106185 0.160058 
26.982 1 8 2.08206 2.63414 2.84067 1.04416 -0.593676 2.28481 0.0681695 0.244495 -0.453377 0 0 0 0 0 0 0.0321165 -0.193468 -0.184804 -2.99926 15.6342 2.84176 0.734376 0.469321 2.96722 0.070022 0.247877 -0.480417 11.4066 -11.6149 1.58909 1.35767 -1.63457 1.63773 0.0663303 0.240996 -0.426435 
26.982 1 47 4.38606 4.69217 2.8651 0.646755 1.07316 -4.81752 -0.06752 -0.497962 -0.0944415 0 0 0 0 0 0 0.0298742 -0.0926574 -0.180901 -1.7967 15.9447 -2.35887 0.0824384 2.64891 -6.55328 -0.0720072 -0.51387 -0.103248 14.2405 -7.5021 6.84368 1.21168 -0.451505 -3.05334 -0.0629657 -0.482168 -0.0857225 
26.982 1 206 4.27991 2.34034 4.76116 4.0649 1.97446 -1.04889 0.0954706 0.570222 -0.383949 0 0 0 0 0 0 0.0155564 -0.153683 -0.160397 9.2476 -10.2449 19.1344 4.41821 0.0973269 0.951882 0.101896 0.6011 -0.406056 2.97949 13.7259 -10.6257 3.71226 3.89599 -3.01327 0.0891302 0.539303 -0.361893 
26.982 1 45 1.99128 4.49812 0.736248 2.32933 3.92581 3.84948 0.0699183 0.0265052 0.130127 0 0 0 0 0 0 -0.0300431 -0.0612492 -0.255209 2.28877 3.21488 44.328 1.34824 4.6805 5.00675 0.074711 0.0268722 0.141251 5.93744 4.76266 37.0481 3.31459 3.21047 2.73057 0.0650845 0.026128 0.118948 
26.982 1 249 6.71455 4.71445 4.72298 -2.00215 -5.26246 -3.07645 -0.0830853 -0.277015 -0.238044 0 0 0 0 0 0 -0.00299861 -0.0530982 -0.0862988 8.33254 -7.28793 10.8328 -2.16439 -6.96294 -3.19685 -0.0941218 -0.292779 -0.238378 8.16042 15.7389 -2.46875 -1.84471 -3.51528 -2.91856 -0.0718988 -0.26139 -0.237722 
26.982 1 12 6.6917 2.50174 2.99747 6.87216 -4.53157 2.05809 -0.435673 0.245082 -0.299153 0 0 0 0 0 0 -0.041989 -0.141834 -0.207334 8.48669 5.45204 -4.5633 6.82108 -3.30481 1.40189 -0.457051 0.261518 -0.310025 7.9682 -1.60813 9.35522 6.91523 -5.71614 2.74912 -0.414198 0.228642 -0.2883 
26.982 1 51 8.81575 4.59108 2.53918 -3.7361 1.05129 -0.00601784 0.0250327 -0.163158 0.249801 0 0 0 0 0 0 -0.0371052 -0.0399072 -0.246843 -4.26689 12.5558 -16.2324 -4.94894 2.72707 -2.94407 0.00994745 -0.16725 0.261184 24.4217 -4.33667 20.0901 -2.53592 -0.575436 2.97429 0.0402325 -0.159115 0.23843 
26.982 1 210 8.91222 2.73431 4.73839 0.367273 2.48965 -3.63458 0.0892424 0.147171 -0.403662 0 0 0 0 0 0 -0.0050627 -0.113375 -0.105498 3.97747 3.6041 8.6973 -0.366427 4.12136 -2.13141 0.0864756 0.151036 -0.415277 16.3761 0.641531 -0.387015 1.09302 0.891549 -5.10336 0.0920843 0.143313 -0.392084 
26.982 1 11 8.8093 0.512192 2.88195 -0.598269 2.47494 -3.80567 -0.0861289 0.0843546 -0.0306624 0 0 0 0 0 0 -0.0260077 -0.184078 -0.14683 4.33893 52.3062 -18.4166 -1.55499 5.54247 -5.78364 -0.0833125 0.0819508 -0.0392608 15.8696 28.649 22.911 0.357416 -0.564417 -1.8034 -0.088883 0.0868238 -0.0220854 
26.982 1 253 11.1724 4.49114 4.51045 -4.95994 0.225029 3.23169 -0.372967 0.0442253 0.218849 0 0 0 0 0 0 -0.0251071 -0.0384635 -0.054753 9.97958 -0.337999 31.234 -6.05177 0.134357 7.89208 -0.383699 0.0580901 0.240526 14.4722 8.40471 -23.3246 -3.8684 0.36481 -1.39344 -0.362267 0.0303526 0.197139 
26.982 1 16 10.7764 2.55785 2.52067 -1.48915 5.33128 1.64601 0.481141 0.0734984 0.442338 0 0 0 0 0 0 -0.0416203 -0.128081 -0.171225 11.9139 16.8673 -6.41085 -2.64779 9.6178 1.2728 0.483152 0.0668365 0.459448 11.7739 -12.9474 10.1432 -0.321427 1.06466 2.045 0.479116 0.0802196 0.425265 
26.982 1 55 13.2469 4.56713 2.44163 -0.473806 -2.912 1.41281 0.346622 -0.0917183 0.0920676 0 0 0 0 0 0 -0.0373141 -0.0593447 -0.150106 13.8834 4.3403 9.62299 -0.857675 -1.71989 2.82716 0.359801 -0.0877747 0.10599 14.2306 3.81904 -5.92713 -0.0761504 -4.06737 0.0371798 0.333327 -0.0956429 0.0781487 
26.982 1 214 13.4409 2.81128 4.42448 0.229606 0.0280722 -0.944534 0.00851537 -0.577332 0.405843 0 0 0 0 0 0 0.0165598 -0.159046 -0.0488065 24.5656 4.30012 9.73188 1.34499 0.738192 -0.367891 0.0270013 -0.606815 0.418884 3.93091 0.156948 -2.05311 -0.876762 -0.645861 -1.50169 -0.0100301 -0.547904 0.392798 
26.982 1 14 13.0605 2.56648 0.763312 0.815951 -6.85875 5.26738 0.591037 -0.452335 0.0923056 0 0 0 0 0 0 -0.0361839 -0.105382 -0.239413 9.87136 21.402 33.1404 0.125833 -1.97577 5.42539 0.60467 -0.462562 0.0880466 17.8752 -17.5047 48.3091 1.52044 -11.7126 5.15276 0.577314 -0.442038 0.096649 
26.982 1 15 13.3856 0.611178 2.62623 0.674779 2.02915 -4.40899 -0.184587 0.565245 -0.130437 0 0 0 0 0 0 0.0151794 -0.220344 -0.0964376 11.3947 38.1777 11.3462 0.869241 2.71233 -4.0599 -0.185883 0.576001 -0.140491 16.9462 42.9023 -7.32396 0.488033 1.36538 -4.72034 -0.183316 0.554454 -0.120372 
26.982 1 57 15.6301 4.46892 0.599388 2.32794 -5.99206 0.510782 0.395758 0.0796027 0.0692162 0 0 0 0 0 0 0.0449035 -0.0878889 -0.261219 22.8594 17.6389 -9.2059 3.68589 -2.60707 -0.727086 0.417154 0.0831487 0.0702289 9.43455 -9.73003 9.12196 0.968478 -9.33966 1.7963 0.374295 0.0761074 0.0682213 
26.982 1 20 15.623 2.61493 2.51132 7.04776 -3.4065 -3.63617 -0.13766 0.0909019 0.762274 0 0 0 0 0 0 0.0753445 -0.210059 -0.123939 26.0908 -12.9293 7.0017 9.16775 -4.39594 -4.29337 -0.133737 0.0925406 0.775206 6.17638 17.0213 -3.21214 4.9267 -2.3812 -2.94198 -0.141652 0.0892284 0.749394 
26.982 1 257 15.4772 4.76298 4.49846 2.58733 -4.30726 -2.26687 0.556077 -0.419471 0.554487 0 0 0 0 0 0 0.0189271 -0.0590544 -0.0163397 22.3216 -13.3684 8.77136 3.20807 -6.03649 -0.61264 0.567869 -0.426881 0.575537 9.68597 21.8745 -0.909953 1.96857 -2.54517 -3.89237 0.544217 -0.412112 0.533443 
26.982 1 218 17.8213 2.85799 4.58926 0.221054 0.555954 3.7101 -0.00229231 -0.822322 0.764339 0 0 0 0 0 0 -0.00892608 -0.179503 -0.103122 10.4501 -3.85455 3.24257 -0.954009 -0.309018 3.2011 -0.0176053 -0.83287 0.762381 25.6628 8.45357 4.82951 1.38849 1.45168 4.25141 0.0130515 -0.811851 0.766313 
26.982 1 59 17.8411 4.45545 2.73087 0.142214 2.81467 -2.33722 0.193791 0.669627 -1.17604 0 0 0 0 0 0 0.0418989 -0.101342 -0.177656 27.8071 -6.97989 9.84831 1.08648 1.54728 -1.02947 0.200641 0.688752 -1.20945 8.32717 14.879 -5.57884 -0.814399 4.11375 -3.60525 0.186972 0.650506 -1.14268 
26.982 1 24 20.3338 2.50099 2.67307 -1.17766 -2.99298 0.0758566 -0.7531 0.710424 -0.212634 0 0 0 0 0 0 -0.101818 -0.150129 -0.181234 13.7708 8.27049 10.5075 -2.58053 -0.58555 1.35126 -0.772826 0.739492 -0.232501 26.8462 -4.36984 -6.41412 0.219753 -5.35212 -1.16248 -0.733328 0.681396 -0.192759 
26.982 1 261 20.1698 4.4685 4.59723 2.90363 -2.33465 1.22919 -0.20491 0.567715 -0.391067 0 0 0 0 0 0 -0.0196928 -0.0310057 -0.0742308 19.1199 4.75229 3.83922 3.31757 -1.65369 0.566755 -0.214378 0.597457 -0.410385 21.1686 3.16868 4.25513 2.48636 -2.98495 1.92581 -0.195376 0.537951 -0.371725 
26.982 1 63 22.3902 4.57013 2.6813 -1.30892 -6.65413 0.0164055 0.105245 0.246102 -0.0570244 0 0 0 0 0 0 -0.00885282 -0.0297339 -0.182631 28.3145 17.0178 6.10268 -1.11076 -4.38615 1.72006 0.100382 0.264069 -0.0607959 15.9603 -8.90748 -1.93415 -1.50003 -8.89027 -1.64674 0.110086 0.228087 -0.0532461 
26.982 1 222 22.2463 2.55186 4.56213 -1.7651 0.483871 -0.992508 0.812108 0.244728 0.404364 0 0 0 0 0 0 -0.0290861 -0.109036 -0.0752236 19.3125 11.197 6.58904 -2.04824 3.01193 -0.962317 0.836426 0.244058 0.401506 24.6509 -7.24932 1.44196 -1.47974 -2.01382 -0.991427 0.787768 0.245408 0.407242 
26.982 1 28 24.703 2.62087 2.55151 -9.41325 -5.82932 0.4412 0.146838 0.0890625 0.313989 0 0 0 0 0 0 0.045662 -0.0889873 -0.21108 26.4475 9.39572 12.4792 -9.13254 -5.234 1.72933 0.158111 0.0810279 0.330147 21.9985 -5.27918 -8.70394 -9.68532 -6.3798 -0.83487 0.135558 0.0970526 0.297837 
26.982 1 265 24.5897 4.49702 4.61905 0.0355834 0.96327 -5.11168 0.104497 -0.170676 0.142995 0 0 0 0 0 0 0.00761958 -0.010778 -0.0560077 26.8817 -15.1992 3.50725 -0.155144 -0.410747 -5.82247 0.105474 -0.161042 0.150892 21.3071 23.1435 4.58694 0.23402 2.37082 -4.37587 0.103415 -0.180369 0.135069 
26.982 1 225 24.966 0.715703 4.53689 -5.03852 3.18283 2.04228 -0.413031 -0.0429225 -0.398321 0 0 0 0 0 0 -0.0138649 -0.174943 -0.145199 30.6555 14.7286 9.77886 -4.19182 5.17324 3.7498 -0.418843 -0.0401096 -0.394129 18.2265 -14.6811 -1.81166 -5.89134 1.21924 0.372012 -0.407219 -0.0457058 -0.402501 
26.982 1 23 22.4644 0.771707 2.76271 -3.71843 1.31978 1.80552 0.398926 -1.01453 -0.515724 0 0 0 0 0 0 -0.0422082 -0.236888 -0.155339 14.0027 55.0893 11.0946 -4.76082 4.09912 2.86647 0.413289 -1.04092 -0.533931 30.4428 26.3967 -6.75319 -2.6723 -1.426 0.790631 0.384565 -0.988103 -0.497558 
26.982 1 22 22.5348 2.68417 0.723623 -0.512232 2.72284 -3.66088 -0.0399705 -0.188107 -0.272819 0 0 0 0 0 0 -0.00822225 -0.0635746 -0.265177 32.794 14.7018 -2.02474 -0.0390647 3.6513 -5.01588 -0.040282 -0.184027 -0.2856 11.8251 -10.4837 2.10913 -0.970355 1.83143 -2.26395 -0.0396568 -0.192184 -0.260085 
26.982 1 67 26.9159 4.37578 2.5343 2.14162 -0.6605 -1.41942 0.199804 0.202866 -0.424774 0 0 0 0 0 0 0.0386859 -0.00716645 -0.253252 26.9819 -3.6845 8.04756 2.05946 -1.11484 -1.1091 0.204266 0.20974 -0.408974 25.3647 11.3533 -4.24102 2.22765 -0.173136 -1.70136 0.195325 0.195914 -0.440582 
26.982 1 226 27.1008 2.77365 4.65242 -0.588783 -2.63463 0.57873 -0.114171 -0.360548 0.0573299 0 0 0 0 0 0 0.0073123 -0.0435135 -0.0916401 26.7682 -5.13757 12.4406 -0.193002 -3.9105 1.03828 -0.11079 -0.359488 0.0528328 25.9659 9.63997 -4.32672 -0.978704 -1.30902 0.141597 -0.117559 -0.361689 0.0617689 
26.982 1 32 29.2142 2.51753 2.43354 1.6684 2.39921 -1.91241 0.325153 0.427372 0.415528 0 0 0 0 0 0 0.0261783 -0.0498943 -0.253876 15.7697 6.2567 16.7107 0.436726 3.05405 0.593168 0.336007 0.448225 0.441331 40.6198 -2.33022 -13.1218 2.90373 1.79003 -4.39613 0.314316 0.406504 0.389717 
26.982 1 269 29.5051 4.39719 4.63404 -3.39341 0.712663 -2.03267 -0.317423 0.471583 -0.447326 0 0 0 0 0 0 -0.00117847 0.013163 -0.116602 26.9522 12.6651 19.9704 -3.41745 1.03735 -1.59327 -0.329397 0.495406 -0.463974 30.067 -4.93229 -11.7616 -3.36108 0.416963 -2.43997 -0.305392 0.447747 -0.430718 
26.982 1 229 29.2204 0.92917 4.60348 4.03026 1.20637 1.212 0.463396 -0.344781 0.187101 0 0 0 0 0 0 0.0273485 -0.166622 -0.132859 20.5702 36.1 22.4778 3.21581 1.84463 3.22765 0.476748 -0.360136 0.199228 35.8615 45.8473 -14.3556 4.85493 0.620476 -0.765984 0.450054 -0.32949 0.174973 
26.982 1 27 27.1559 0.524598 2.70959 -1.17878 0.300648 -3.35064 -0.127161 0.532385 0.041242 0 0 0 0 0 0 0.00210964 -0.184872 -0.212026 32.2897 13.7841 -1.87653 -0.21718 1.76149 -3.3537 -0.127526 0.537008 0.0504307 20.5139 -14.0968 5.94934 -2.1382 -1.13721 -3.32819 -0.126776 0.527755 0.0320167 
26.982 1 71 31.6261 4.5376 2.76231 -2.43038 0.156296 -0.902295 -0.0418084 -0.313804 0.0571923 0 0 0 0 0 0 -0.0117534 -0.0165755 -0.263294 30.1722 12.8435 0.39342 -2.54739 1.64519 -1.81147 -0.0533348 -0.309259 0.0598596 30.4467 -4.83867 3.96069 -2.31548 -1.29513 0.0437941 -0.0302587 -0.31835 0.054461 
26.982 1 230 31.7647 2.54456 4.8205 3.13067 4.46245 -2.41516 0.130737 0.226789 -0.565871 0 0 0 0 0 0 0.0491229 -0.101785 -0.123859 19.1891 -3.9416 1.45736 2.05955 4.66294 -4.64743 0.127251 0.217135 -0.599936 41.7516 7.96785 7.15835 4.20495 4.31893 -0.144441 0.134208 0.236446 -0.53186 
26.982 1 273 33.9419 4.73827 4.65904 3.21711 -2.53202 3.81534 0.109779 -0.67003 0.223461 0 0 0 0 0 0 0.00253049 -0.0646168 -0.0810626 41.3337 19.5526 -2.28614 3.35594 -1.14022 1.39552 0.11745 -0.694154 0.226682 23.3472 -11.1592 10.5136 3.0731 -3.89107 6.2659 0.102076 -0.645948 0.220238 
26.982 1 36 33.9803 2.69431 2.7694 2.32522 -0.035394 -0.538144 -0.00314459 0.19731 -0.0118013 0 0 0 0 0 0 -0.00110409 -0.153993 -0.175737 35.1658 -0.379261 -6.19589 2.71042 -0.903232 -2.4538 0.000413384 0.191584 -0.0120213 29.6107 4.63584 10.5877 1.93169 0.87481 1.41933 -0.00678256 0.203103 -0.0116234 
26.982 1 31 31.6526 0.769488 2.75358 2.02671 -3.865 -5.22786 -0.0558823 0.0713414 -0.0677413 0 0 0 0 0 0 0.050498 -0.177451 -0.183149 29.6036 21.1315 4.8601 1.99314 -5.58878 -5.31929 -0.0544453 0.0631864 -0.0660477 31.0565 60.5009 -0.581915 2.05489 -2.09644 -5.10522 -0.0573877 0.0795158 -0.0694925 
26.982 1 75 36.3457 4.70046 2.81723 -0.935085 0.238773 -2.53516 -0.370048 -0.553093 -0.00982826 0 0 0 0 0 0 -0.0239089 -0.0677123 -0.13455 39.3828 15.3514 5.58888 -0.920962 2.44381 -2.60439 -0.36582 -0.565814 -0.0121795 29.5592 -7.0974 -1.11147 -0.964515 -1.93914 -2.41285 -0.374376 -0.540365 -0.00744851 
26.982 1 234 36.3116 2.48662 4.66806 2.13193 -0.578863 -2.13412 0.100528 0.454351 0.0440784 0 0 0 0 0 0 -0.00270879 -0.174465 -0.115636 47.1418 0.327187 1.19998 3.52813 -0.95463 -3.60247 0.103869 0.476397 0.0478382 21.7517 3.46476 7.1345 0.728468 -0.162498 -0.621141 0.0971564 0.432425 0.0403662 
26.982 1 40 38.7769 2.67595 2.79009 0.976574 -0.897481 5.09733 -0.466315 -0.047559 -0.0601397 0 0 0 0 0 0 0.0291462 -0.218309 -0.152297 45.8694 18.2515 -5.08658 1.88481 0.759917 3.88155 -0.478385 -0.0591002 -0.0784748 27.4318 -14.1166 9.50175 0.0609527 -2.52039 6.36447 -0.454226 -0.0360677 -0.0417689 
26.982 1 277 38.5143 4.59695 4.79764 -0.259202 -2.37119 1.44772 0.193253 0.392294 -0.472044 0 0 0 0 0 0 0.00543166 -0.0549146 -0.0653283 37.4568 24.2429 -4.9886 -0.295687 -0.0363139 1.03458 0.192436 0.392625 -0.488829 35.3143 -16.1287 13.5852 -0.230238 -4.67163 1.91799 0.194091 0.391948 -0.455221 
26.982 1 34 36.1707 2.78056 0.815329 -2.23171 -0.965532 -3.63541 -0.0454138 -0.338376 0.0381167 0 0 0 0 0 0 -0.0348054 -0.145434 -0.190013 39.8215 20.415 52.4433 -1.61682 -0.0308263 -3.16304 -0.0364796 -0.368924 0.0448475 28.8266 -16.192 29.1055 -2.85786 -1.89187 -4.07401 -0.0544801 -0.307839 0.0313891 
26.982 1 77 38.2846 4.55055 0.818772 2.1691 0.458215 -1.56218 0.586719 0.271089 -0.204791 0 0 0 0 0 0 0.0722341 -0.0277075 -0.253315 38.0758 12.8236 21.681 2.34357 1.02871 -5.13249 0.601915 0.277474 -0.216716 34.2853 -4.81727 59.79 1.9928 -0.0880334 2.02884 0.571457 0.264713 -0.19286 
26.982 1 79 40.9996 4.7562 2.81142 -0.563482 2.53066 4.253 -0.219443 0.0765225 -0.222673 0 0 0 0 0 0 -0.00399821 -0.0387987 -0.214135 33.7635 24.5321 -12.5804 -1.69221 4.6427 1.62148 -0.231619 0.0837406 -0.245018 43.5094 -16.1055 17.0708 0.566249 0.44739 6.93904 -0.20726 0.0692388 -0.200276 
26.982 1 238 40.8539 2.71743 4.54228 -2.65876 -1.30225 2.91602 0.233825 -0.301557 0.199427 0 0 0 0 0 0 0.0030662 -0.185608 -0.126381 47.4058 -1.84687 -3.40292 -2.3359 -2.59545 0.890401 0.234443 -0.316414 0.207115 29.5524 6.09993 11.4699 -2.98706 0.0326371 4.99203 0.233256 -0.286742 0.191843 
26.982 1 41 43.3193 4.58122 0.766027 -4.24056 4.57644 -0.764727 -0.126363 0.029455 0.41486 0 0 0 0 0 0 -0.00382713 -0.0265997 -0.245991 -10.8512 9.57373 9.34184 -5.47991 6.9117 -1.45117 -0.130099 0.0268588 0.425694 11.0077 -1.45074 -9.21775 -2.99014 2.27663 -0.0464901 -0.122582 0.0319978 0.403991 
26.982 1 83 -0.331725 8.60509 2.58647 0.314502 6.43853 -4.14338 -0.142937 -0.300531 0.976192 0 0 0 0 0 0 -0.102134 -0.0570627 -0.220783 -3.9082 25.0166 10.117 -0.255199 9.25383 -2.69904 -0.144165 -0.314281 1.00526 7.98697 -8.62526 -6.19935 0.886758 3.65599 -5.53849 -0.14171 -0.286818 0.947087 
26.982 1 242 -0.416947 6.53128 4.72659 -3.87864 5.3624 -3.5794 -0.0430082 0.0584806 -0.51001 0 0 0 0 0 0 -0.105289 0.0330578 -0.13844 -8.22052 17.4693 13.3639 -4.66689 8.17834 -2.55525 -0.0315874 0.061148 -0.525901 12.1292 -5.34476 -4.9192 -3.0938 2.5769 -4.55418 -0.0544905 0.055804 -0.494095 
26.982 1 282 -0.240797 10.4858 4.58719 1.14972 -0.362411 5.15084 -0.158392 0.1405 0.168841 0 0 0 0 0 0 -0.101595 -0.0486052 -0.119619 -1.70841 34.4185 -1.39717 1.77344 2.62782 5.23404 -0.154235 0.137521 0.182813 5.89951 -14.1437 9.39493 0.515798 -3.33173 5.10418 -0.162545 0.143445 0.154904 
26.982 1 48 2.04146 6.51851 2.73199 2.02079 3.66543 3.02685 0.142651 -0.0361917 0.308022 0 0 0 0 0 0 -0.0524144 0.0353239 -0.185179 -16.3908 24.3428 -11.6671 -0.907342 7.87133 0.465576 0.155015 -0.0320308 0.315706 24.7563 -12.2768 15.8501 4.95919 -0.51749 5.61028 0.130287 -0.0403288 0.300237 
26.982 1 285 1.97628 8.57919 4.60382 1.58708 -0.748787 3.32455 -0.265919 -0.175478 0.242814 0 0 0 0 0 0 -0.0322289 -0.00743169 -0.0753229 -15.8469 21.7972 3.31765 -0.639896 3.66754 3.86069 -0.268864 -0.187202 0.257526 24.1003 -5.51075 4.74698 3.82467 -5.15422 2.81227 -0.262988 -0.163732 0.228111 
26.982 1 87 4.30601 8.5061 2.6411 2.0729 8.31318 -0.953688 -0.147947 -0.454421 0.131739 0 0 0 0 0 0 0.0120369 0.0249648 -0.218148 -3.70417 14.5562 9.92691 0.698329 9.06567 -0.657879 -0.147653 -0.475503 0.145474 16.0644 1.68292 -5.90373 3.45929 7.5969 -1.21662 -0.148193 -0.433315 0.117956 
26.982 1 246 4.61644 6.55482 4.87677 -3.27824 3.67883 0.329668 -0.481492 0.597163 -0.557795 0 0 0 0 0 0 -0.000940245 0.00440192 -0.0685476 10.7511 10.6752 14.7593 -3.16544 3.94342 1.65447 -0.491247 0.59851 -0.580941 2.2157 1.51318 -6.17388 -3.37902 3.44514 -0.970741 -0.47166 0.595775 -0.534739 
26.982 1 46 4.14504 6.46431 0.669191 4.92923 -0.867606 2.06535 0.132046 -0.00806166 0.340361 0 0 0 0 0 0 0.0363026 0.0208254 -0.25815 -5.29301 -2.00295 11.8735 3.29733 -0.870693 4.35836 0.133071 -0.000704071 0.356323 17.2404 14.0458 -11.8174 6.55992 -0.826575 -0.178607 0.131045 -0.0153835 0.324389 
26.982 1 289 6.60514 8.66743 4.7344 4.10226 1.85886 1.96878 -0.336544 -0.743556 -0.176465 0 0 0 0 0 0 -0.00930094 -0.0310289 -0.0789812 16.7895 11.246 25.7509 5.50445 2.85702 5.66782 -0.346248 -0.777736 -0.181967 -0.463444 5.28146 -17.447 2.70301 0.888055 -1.70258 -0.326775 -0.709442 -0.17103 
26.982 1 52 6.68809 6.599 2.61889 -4.0135 -2.04884 0.818172 -0.119638 0.157826 0.248164 0 0 0 0 0 0 0.0202836 -0.00373138 -0.226507 11.2718 5.61488 12.1888 -2.95828 -1.96012 1.2774 -0.129616 0.156879 0.267557 5.17405 6.6955 -8.10839 -5.07636 -2.09858 0.409735 -0.109523 0.158722 0.228795 
26.982 1 91 8.94826 8.58784 2.61504 -5.36233 -1.52676 2.64242 -0.310658 -0.138212 0.218869 0 0 0 0 0 0 -0.0584444 -0.00519299 -0.22519 13.8745 6.29958 7.83683 -5.08861 -2.95863 3.57606 -0.317658 -0.142563 0.225479 6.54397 10.082 -3.77709 -5.64967 -0.0642297 1.75175 -0.303575 -0.133963 0.212222 
26.982 1 250 8.90137 6.50127 4.60054 -0.954632 -0.11594 3.38027 -0.154271 0.105657 0.10709 0 0 0 0 0 0 -0.0176916 -0.0102088 -0.0636854 10.1245 14.4858 30.6742 -0.251467 0.300085 5.84773 -0.165906 0.105375 0.122974 10.2058 -2.2573 -22.7657 -1.67028 -0.478237 0.916765 -0.142538 0.105824 0.0911701 
26.982 1 293 10.9383 8.43345 4.68352 7.49744 -1.29726 -2.54527 0.427072 0.204737 -0.0419767 0 0 0 0 0 0 -0.00892019 0.01098 -0.029485 10.7418 26.5638 33.9792 8.36029 1.24953 1.61859 0.434019 0.22093 -0.0263084 13.2042 -10.5885 -25.7548 6.62565 -3.83114 -6.68826 0.420133 0.188468 -0.0576698 
26.982 1 56 11.0442 6.47111 2.71958 3.93823 1.91825 -4.65653 0.0924988 0.263705 -0.0871565 0 0 0 0 0 0 -0.0667113 -0.0335431 -0.181424 17.3789 13.4142 13.2851 4.0606 2.50663 -2.89566 0.087287 0.279823 -0.0786064 6.82782 -1.35462 -9.02309 3.81874 1.36971 -6.36747 0.0977127 0.247503 -0.0957509 
26.982 1 95 13.2587 8.55385 2.87248 2.75465 0.713902 0.662753 0.340638 0.0680081 -0.15812 0 0 0 0 0 0 -0.0148674 0.00124519 -0.0886108 10.7832 18.7192 -7.33127 1.86899 1.55452 0.207909 0.346962 0.0761792 -0.155297 17.3054 -2.47469 11.9177 3.64281 -0.115499 1.16287 0.334288 0.0597795 -0.161026 
26.982 1 254 13.3002 6.33948 4.41706 -0.900277 -4.06957 4.97667 -0.0686638 0.728293 0.438996 0 0 0 0 0 0 -0.00248657 0.00994555 -0.00430709 8.65263 2.3837 30.5821 -1.74277 -4.66271 10.7527 -0.0589118 0.754219 0.472401 19.5668 9.43407 -22.9479 -0.0489131 -3.43951 -0.776316 -0.078494 0.702316 0.405578 
26.982 1 54 13.4483 6.62051 0.792941 -4.88817 -2.59614 0.0915729 -0.10219 0.400022 -0.26079 0 0 0 0 0 0 -0.051437 -0.0339451 -0.271464 8.02764 19.7974 -19.0081 -5.53985 -0.900182 -1.94408 -0.0944798 0.413071 -0.258897 20.4761 -7.53315 19.1992 -4.2215 -4.27113 2.15027 -0.109979 0.38696 -0.262689 
26.982 1 294 13.5809 10.4382 4.91976 0.561374 -0.563211 -2.16501 -0.0673784 0.241278 -1.23423 0 0 0 0 0 0 -0.00164621 0.00412763 -0.0324852 16.4232 36.1529 -0.712132 0.414379 2.70811 -2.14743 -0.0652188 0.240485 -1.25828 12.3137 -16.0754 9.45945 0.704405 -3.8333 -2.15319 -0.0694665 0.242087 -1.21028 
26.982 1 93 11.1657 8.38324 0.781306 -4.31592 3.65547 -1.86747 0.11443 0.41541 -0.0685387 0 0 0 0 0 0 -0.0989139 -0.0128113 -0.280969 10.687 5.3028 41.6391 -4.57859 2.60531 -1.84578 0.122424 0.434937 -0.0762976 13.7445 10.7277 39.9485 -4.04881 4.74248 -1.83692 0.106487 0.395827 -0.0608424 
26.982 1 60 15.6319 6.52702 2.52991 0.988212 3.01957 2.11998 0.220885 0.329798 -0.0847291 0 0 0 0 0 0 0.0156983 -0.0249543 -0.104421 26.8903 8.2511 -5.0911 2.41889 1.79201 2.77813 0.232932 0.331194 -0.0743125 5.39419 3.83414 8.93911 -0.442237 4.26811 1.4981 0.208754 0.328394 -0.0951487 
26.982 1 297 15.6697 8.38033 4.71034 1.59758 -3.79761 -3.42448 -0.222478 -0.0211177 -0.511348 0 0 0 0 0 0 -0.00449153 0.00811233 -0.014151 23.7473 29.4129 0.443156 2.46035 -0.0619041 -3.55629 -0.226987 -0.0114245 -0.520722 8.65819 -13.4712 7.86821 0.740293 -7.51056 -3.26736 -0.217952 -0.0307311 -0.502014 
26.982 1 99 18.0554 8.40775 2.59672 -3.6283 4.80682 -1.19452 -0.0476255 0.171012 -0.171412 0 0 0 0 0 0 0.0168553 -0.0107321 -0.105203 22.9809 15.3658 2.07892 -2.14881 5.85209 1.07368 -0.0392416 0.16465 -0.170544 13.6469 0.585604 1.91745 -5.10904 3.7911 -3.41903 -0.055993 0.177452 -0.172265 
26.982 1 258 17.8971 6.53729 4.46557 -1.52794 0.0484009 -3.3445 0.144226 -0.342845 0.559005 0 0 0 0 0 0 0.00135097 -0.0263892 -0.0248411 16.7061 9.17053 4.55958 -1.84834 -0.696518 -3.11784 0.14152 -0.353502 0.566423 19.5494 2.98659 3.25735 -1.21722 0.818701 -3.54253 0.146965 -0.332211 0.551638 
26.982 1 298 17.9168 10.5974 4.46803 2.8309 1.17563 1.94267 0.211957 -0.748214 0.207152 0 0 0 0 0 0 0.00746338 -0.0272413 -0.0124513 15.7927 12.5153 -14.834 2.66648 1.53776 1.37893 0.215885 -0.779629 0.219809 20.5907 7.97518 22.6769 3.00093 0.832527 2.53391 0.208026 -0.716769 0.194492 
26.982 1 97 15.5917 8.53095 0.601744 -0.128406 -1.90755 1.93148 0.244072 -0.372334 -0.0474594 0 0 0 0 0 0 0.00758096 -0.01518 -0.272058 20.7801 10.5949 12.8275 0.469444 -3.3459 4.37314 0.249881 -0.385628 -0.0409974 11.4528 5.67941 -13.0316 -0.722824 -0.440311 -0.476687 0.2382 -0.35903 -0.0539797 
26.982 1 58 17.9929 6.39945 0.594142 0.275643 2.79596 5.64893 -0.0929421 0.35949 0.699565 0 0 0 0 0 0 0.0442222 -0.06586 -0.263023 4.07585 40.3342 14.9969 -0.158627 7.47931 7.66382 -0.0882579 0.371321 0.713804 32.379 -28.4812 -15.0842 0.70049 -1.85967 3.69643 -0.097615 0.347718 0.685278 
26.982 1 64 20.3522 6.52738 2.71864 0.169617 -4.70007 -1.59665 -0.437043 0.0613195 -0.277987 0 0 0 0 0 0 -0.00932714 -0.0495988 -0.153521 22.0224 3.12054 -1.16277 0.489852 -5.83153 -1.09876 -0.444713 0.0707949 -0.293756 18.6399 9.04875 5.37215 -0.156036 -3.53363 -2.0536 -0.429326 0.0518289 -0.262232 
26.982 1 301 20.2448 8.53022 4.66903 -3.92005 -4.89731 -4.3582 -0.0734484 -0.130725 -0.336257 0 0 0 0 0 0 0.00290168 -0.00475866 -0.0282626 14.8934 -2.52361 0.909334 -4.38897 -6.73612 -4.65457 -0.0704486 -0.135267 -0.353456 25.5463 18.7755 7.35241 -3.45215 -3.03602 -4.02506 -0.0764732 -0.126178 -0.319082 
26.982 1 101 20.2615 8.70812 0.651558 -6.85053 0.715245 -3.27257 -0.274711 -0.404396 -0.23901 0 0 0 0 0 0 -0.0020376 -0.0133123 -0.273013 17.8905 4.5034 38.6981 -6.4047 -1.41146 -3.53184 -0.286747 -0.426356 -0.24595 22.6082 12.1457 42.4326 -7.29859 2.8809 -2.98484 -0.262677 -0.382448 -0.232153 
26.982 1 103 22.4813 8.4276 2.62731 -5.67242 -2.91724 2.47026 0.329383 0.445965 0.381557 0 0 0 0 0 0 0.025317 0.00710483 -0.0972137 17.0956 19.3909 0.231459 -6.07858 -1.87989 1.81054 0.340983 0.458818 0.394338 27.2995 -3.26504 3.82968 -5.26812 -3.91479 3.17313 0.31776 0.433132 0.368759 
26.982 1 262 22.4726 6.63815 4.64149 2.22094 0.513964 0.970709 0.135866 -0.262144 -0.139928 0 0 0 0 0 0 0.0143551 0.00475832 -0.025398 19.8778 4.10441 3.12228 1.85221 -0.398372 0.915765 0.145949 -0.249916 -0.138706 24.5248 8.23965 5.08203 2.59453 1.45506 1.06115 0.125733 -0.274443 -0.141144 
26.982 1 305 25.0134 8.47862 4.56604 -0.700747 -3.88979 -0.377472 -0.446105 -0.263124 -0.347713 0 0 0 0 0 0 0.0121316 -0.0096657 -0.0428144 26.1167 39.9424 -14.0113 -0.474303 -0.299016 -1.94704 -0.451124 -0.267517 -0.342962 22.889 -23.7282 22.0497 -0.924399 -7.45231 1.22457 -0.441126 -0.258716 -0.352439 
26.982 1 68 24.7586 6.27892 2.64006 -3.4655 -4.10384 -5.24251 -0.26256 0.925003 -0.222658 0 0 0 0 0 0 0.0474357 -0.0136624 -0.193746 28.429 14.6185 4.48111 -3.13637 -2.77942 -6.07602 -0.268296 0.953814 -0.21909 20.063 -3.03347 -0.442983 -3.79259 -5.39711 -4.37537 -0.256903 0.896165 -0.226246 
26.982 1 62 22.45 6.75134 0.586012 1.28274 -1.42752 -0.329815 -0.0288093 -0.573959 0.0219815 0 0 0 0 0 0 0.021946 -0.075935 -0.267733 24.8738 14.7919 14.0267 1.28678 0.239274 1.20125 -0.0281958 -0.589867 0.0374742 19.5119 -2.26164 -14.2041 1.28588 -3.07255 -1.82333 -0.0294327 -0.558116 0.00645491 
26.982 1 105 24.8388 8.64966 0.813121 0.998259 1.39231 4.97928 -0.255521 -0.557284 0.452401 0 0 0 0 0 0 0.0967685 -0.0222824 -0.256841 23.322 18.3863 55.0421 0.830351 2.7529 5.76667 -0.251074 -0.578017 0.463228 25.324 -1.93895 26.3897 1.16801 0.0450113 4.21183 -0.26 -0.536566 0.441485 
26.982 1 107 27.175 8.42152 2.78939 1.53468 -2.19718 1.97191 -0.249822 0.505289 0.10143 0 0 0 0 0 0 0.0511668 0.00597568 -0.22096 23.7635 29.7065 5.66597 1.29364 0.714189 1.52661 -0.253629 0.522783 0.108126 29.0332 -13.7802 -1.27257 1.77402 -5.09821 2.45909 -0.24604 0.487838 0.094677 
26.982 1 266 26.8374 6.28229 4.45435 -3.70499 3.23759 1.92039 0.38368 0.0525349 0.485211 0 0 0 0 0 0 0.0310097 0.0160706 -0.0673234 32.1628 13.5733 -0.2921 -3.30692 4.07133 1.62174 0.401543 0.0701721 0.508356 20.0242 -1.9465 8.12917 -4.09658 2.43639 2.25546 0.365831 0.0348914 0.462082 
26.982 1 72 29.1739 6.51015 2.72487 -1.53873 -1.11741 -3.8944 0.371236 -0.437884 0.847658 0 0 0 0 0 0 0.014756 0.00488568 -0.249581 25.4044 18.5877 15.301 -1.42982 1.07423 -3.69583 0.370189 -0.435731 0.885058 30.8821 -6.5513 -10.9887 -1.64585 -3.28346 -4.04885 0.372317 -0.440087 0.810241 
26.982 1 309 29.5971 8.57815 4.80028 -0.234333 -5.83945 6.08006 -0.0898213 -0.0574627 -0.315177 0 0 0 0 0 0 0.00533578 -0.00988193 -0.0983571 29.7021 13.9601 -10.6679 -0.0430118 -6.12325 5.68382 -0.0865724 -0.0659778 -0.335066 27.4513 2.34333 19.2337 -0.420516 -5.54106 6.51718 -0.0930401 -0.0489935 -0.295334 
26.982 1 111 31.5392 8.38799 2.59652 2.15171 1.15162 -1.05504 0.025692 0.425921 0.643926 0 0 0 0 0 0 -0.0198382 0.00447776 -0.253681 33.0087 8.38137 -12.9379 2.43928 1.89801 -1.88213 0.0186716 0.445224 0.668531 27.4915 7.61864 16.9141 1.86864 0.436268 -0.195537 0.0327142 0.40655 0.619331 
26.982 1 270 31.7348 6.52747 4.77781 0.66866 -3.04155 -3.01773 -0.290077 0.173144 -0.46223 0 0 0 0 0 0 -0.0173616 0.00894733 -0.103584 38.1342 33.674 9.61852 1.62643 -0.302311 -2.02584 -0.304767 0.188343 -0.47993 22.7256 -21.4746 -1.08513 -0.285549 -5.74485 -3.96152 -0.275328 0.157866 -0.44454 
26.982 1 76 33.9889 6.4796 2.72814 4.84656 3.602 3.15985 -0.309787 0.172393 -0.144611 0 0 0 0 0 0 -0.0675438 0.0098256 -0.229114 40.6712 31.3399 -27.3716 6.34382 7.2442 -0.445682 -0.319734 0.185669 -0.141385 24.1187 -19.2346 31.625 3.34349 -0.000313465 6.80222 -0.299878 0.159051 -0.14785 
26.982 1 313 33.9898 8.33939 4.85766 -5.83413 1.50599 -1.50765 0.0612836 0.324269 -0.340842 0 0 0 0 0 0 -0.00489657 0.0237775 -0.0765485 29.7728 18.2815 7.9583 -5.99061 3.85633 -1.5855 0.0625027 0.349317 -0.352543 35.0011 -2.36985 0.727924 -5.68417 -0.812072 -1.3851 0.0600847 0.299169 -0.329159 
26.982 1 116 34.027 10.3925 2.86433 -3.23485 0.0635587 -0.0382023 -0.411808 0.118587 -0.323442 0 0 0 0 0 0 -0.0133482 -0.0157817 -0.219253 31.6155 20.23 7.81099 -2.67982 0.857088 0.286043 -0.420388 0.123006 -0.336366 33.3002 0.00598588 -3.28874 -3.79419 -0.699647 -0.325655 -0.403224 0.114154 -0.310554 
26.982 1 115 35.9031 8.50046 2.50733 -2.36167 5.189 4.35518 0.484302 0.164874 0.644059 0 0 0 0 0 0 0.0218365 0.0632501 -0.211362 43.7385 2.53832 -25.3429 -1.50985 5.71853 1.26364 0.499177 0.180015 0.664833 24.3283 13.7635 29.0801 -3.22563 4.69997 7.48418 0.469406 0.149682 0.623353 