ITEM: TIMESTEP
1875
ITEM: NUMBER OF ATOMS
4000
ITEM: BOX BOUNDS pp pp pp
-0.455275 40.9553
0.0594347 40.4406
0.0576057 40.4424
ITEM: ATOMS mass type id x y z vx vy vz fx fy fz xrad yrad zrad vxrad vyrad vzrad fxrad fyrad fzrad xub yub zub vxub vyub vzub fxub fyub fzub xlb ylb zlb vxlb vylb vzlb fxlb fylb fzlb 
26.982 1 811 9.75643 0.0492453 18.1686 2.12527 -2.02267 -1.51159 0.112158 -0.491838 0.148901 0 0 0 0 0 0 -0.0499837 -0.256953 0.000192394 10.127 40.8631 18.6399 1.99744 -1.67108 -1.39989 0.111624 -0.502006 0.156731 9.75864 40.2672 17.6791 2.25509 -2.37303 -1.61654 0.112655 -0.481712 0.141061 
26.982 1 3 1.70636 0.145493 2.31271 0.86318 -0.210383 1.27283 -0.316714 -0.0329488 -0.695032 0 0 0 0 0 0 -0.0930286 -0.158024 -0.116593 1.84296 -0.317109 2.13036 0.88268 -0.222572 1.42751 -0.316342 -0.0374746 -0.719564 2.23651 0.339859 2.26379 0.843874 -0.198693 1.11915 -0.317059 -0.0283778 -0.670464 
26.982 1 8 3.63064 2.12109 2.15235 7.94546 -0.506984 -1.86456 0.304065 0.0185319 -0.0715225 0 0 0 0 0 0 0.00388148 -0.145391 -0.12942 3.66171 2.61288 2.10133 7.66092 0.110114 -1.71368 0.312095 0.020611 -0.0776407 4.19522 1.39206 1.97069 8.23018 -1.12016 -2.01395 0.296022 0.0164813 -0.065341 
26.982 1 807 5.60892 -0.125003 18.2688 0.767279 3.79049 -1.97799 0.376882 0.490143 -0.398697 0 0 0 0 0 0 -0.00992178 -0.246152 0.00623032 5.87 40.2561 18.1098 0.756595 3.93974 -2.21803 0.385656 0.515176 -0.41374 5.86846 40.5296 18.4072 0.776883 3.64683 -1.73289 0.368046 0.465072 -0.383702 
26.982 1 43 1.58856 4.00924 2.04462 -3.35965 2.79021 0.957042 -0.254052 0.420793 0.263989 0 0 0 0 0 0 -0.135501 -0.0530124 -0.21563 0.847629 3.81228 2.17456 -4.21636 2.77285 1.43443 -0.264769 0.43663 0.258747 3.00176 3.99238 1.68271 -2.4995 2.81059 0.482162 -0.243327 0.40496 0.269279 
26.982 1 202 1.6728 2.20884 4.16097 3.99122 -3.17031 0.2632 -0.208244 -0.520949 -0.172639 0 0 0 0 0 0 -0.078205 -0.133239 -0.126242 1.70474 2.01224 4.37677 3.73215 -3.49739 0.654978 -0.210733 -0.529925 -0.184074 2.31041 2.16534 3.74245 4.25216 -2.83879 -0.124293 -0.205732 -0.511944 -0.161208 
26.982 1 241 -0.417871 4.05159 4.12635 -1.75047 -0.318806 0.463382 -0.210154 0.356712 -0.151072 0 0 0 0 0 0 -0.121718 -0.102388 -0.161308 -0.867364 4.47184 3.94994 -2.52331 -0.258494 0.370297 -0.21196 0.375227 -0.152304 0.775715 3.41462 4.10226 -0.976118 -0.377039 0.564277 -0.20833 0.338203 -0.149847 
26.982 1 245 3.66395 4.03773 4.1557 3.44775 -0.232876 -1.14349 0.0810062 0.187746 0.148861 0 0 0 0 0 0 -0.0161459 -0.0393423 -0.0349175 3.84815 3.72338 4.24486 3.30789 -0.677369 -0.650297 0.0824338 0.188813 0.160603 4.0766 4.14278 3.86169 3.58889 0.219783 -1.63212 0.0795641 0.186673 0.137111 
26.982 1 2825 24.4673 20.2027 16.2037 -2.12652 2.42592 0.0862165 -0.447462 0.181647 0.569415 0 0 0 0 0 0 -0.068151 0.127075 -0.107293 25.3358 20.6744 15.8212 -1.71493 3.04698 -0.284634 -0.459456 0.18688 0.577671 23.4491 19.7379 16.5333 -2.53828 1.81124 0.457436 -0.435444 0.176388 0.561168 
26.982 1 2819 18.0824 20.1161 18.2866 -0.579956 2.04996 0.644617 0.431967 0.515558 -0.111255 0 0 0 0 0 0 -0.111879 0.140028 -0.0933487 17.2167 19.7587 19.481 -1.06753 1.65596 1.91863 0.438593 0.552095 -0.118725 19.0221 20.4795 17.0649 -0.0925166 2.45164 -0.627408 0.425322 0.47896 -0.103768 
26.982 1 12 7.87872 2.01788 2.27452 -5.30256 0.323825 1.43537 -0.173109 0.205009 -0.300772 0 0 0 0 0 0 -0.0346795 -0.171651 -0.152381 7.54766 1.78646 2.1157 -5.80942 0.404477 1.48696 -0.174408 0.221788 -0.304134 8.65415 2.01001 2.20245 -4.79792 0.245557 1.38687 -0.171834 0.188184 -0.297372 
26.982 1 47 5.667 4.06976 2.17848 -3.79065 1.49959 1.5667 0.248083 -0.207196 -0.562145 0 0 0 0 0 0 0.00388032 -0.0687263 -0.153761 5.3743 4.01183 1.65643 -4.07932 1.71449 1.51708 0.250226 -0.214322 -0.57599 6.47932 3.92073 2.4683 -3.50312 1.29275 1.619 0.24589 -0.200061 -0.548239 
26.982 1 49 7.84141 4.19067 0.148617 1.03784 2.8373 -3.7666 0.0139611 -0.331273 0.0398144 0 0 0 0 0 0 0.00895329 -0.00658485 -0.254777 8.23161 4.06593 0.23367 1.24278 2.76512 -3.9304 0.0187284 -0.329599 0.0356213 7.89424 4.10796 -0.193944 0.829383 2.91583 -3.59851 0.0091595 -0.332952 0.044049 
26.982 1 206 5.81102 2.02151 4.18823 -3.68998 0.495868 6.00262 -0.201641 0.125645 -0.0227745 0 0 0 0 0 0 -0.0276964 -0.139172 -0.101437 6.33528 2.55119 4.82594 -3.57153 0.76744 7.14185 -0.201573 0.135551 -0.024183 5.80713 1.25459 3.34404 -3.8096 0.228116 4.86656 -0.201737 0.115733 -0.0213587 
26.982 1 209 7.75483 0.0460206 4.24378 3.33835 -6.66654 4.45097 0.440635 0.0130384 -0.309896 0 0 0 0 0 0 -0.00496821 -0.18407 -0.201745 8.24903 0.128146 3.59867 3.5701 -6.39769 4.3685 0.441914 0.016695 -0.325766 7.70767 -0.302765 4.68158 3.10699 -6.93424 4.53458 0.439375 0.00935028 -0.294023 
26.982 1 249 7.79408 4.21782 3.95923 -2.26496 -1.58976 -2.22048 0.442747 -0.226998 0.395586 0 0 0 0 0 0 0.0123502 -0.0410713 -0.041145 8.41942 3.71619 3.69667 -1.93464 -2.28734 -2.58748 0.455364 -0.241093 0.40949 7.61069 4.50919 4.015 -2.59892 -0.88488 -1.85266 0.430071 -0.212893 0.381718 
26.982 1 10 9.6321 1.99463 0.211163 4.79729 -0.578073 -1.38678 0.516654 0.147003 -0.192741 0 0 0 0 0 0 -0.0382637 -0.122354 -0.201238 10.238 1.52998 0.0418727 5.0713 -0.591033 -1.83033 0.512587 0.17443 -0.198777 9.39793 2.22202 0.124187 4.52236 -0.561361 -0.936799 0.520731 0.119505 -0.186701 
26.982 1 16 11.8552 1.83754 2.15182 2.40178 -0.85318 -1.64055 0.309821 0.00232988 -0.164397 0 0 0 0 0 0 0.0278977 -0.192883 -0.0766918 12.6201 2.24388 1.478 2.79028 -0.464311 -2.02094 0.311917 0.0108514 -0.161326 11.3872 1.19184 2.59264 2.01428 -1.23923 -1.25692 0.307763 -0.00629527 -0.167468 
26.982 1 51 10.1472 4.05723 2.24218 0.677746 -1.81885 0.132933 -0.510985 0.301631 -0.599004 0 0 0 0 0 0 -0.00490605 -0.0023505 -0.149619 9.82602 3.96082 1.98045 0.00333918 -2.03342 -0.0108796 -0.509251 0.317358 -0.617891 10.8373 3.94485 2.26897 1.34924 -1.59701 0.2789 -0.512763 0.285875 -0.580098 
26.982 1 53 12.0775 3.68667 0.0526383 3.08215 2.48289 -3.67125 -0.70225 1.57727 0.784646 0 0 0 0 0 0 -0.00249335 -0.0109356 -0.240816 12.5052 3.67438 -0.579289 2.91679 2.72912 -4.4356 -0.718385 1.62391 0.812737 11.9477 3.4893 0.425865 3.24947 2.24203 -2.90219 -0.686022 1.53059 0.756513 
26.982 1 210 9.93217 2.17139 4.16808 -1.5499 1.34003 2.17984 -0.357116 -0.646397 0.240516 0 0 0 0 0 0 0.0202884 -0.145341 -0.0767177 10.0824 2.42884 4.15513 -1.94995 1.92195 2.7238 -0.364365 -0.657655 0.241011 10.1505 1.67205 3.97423 -1.15129 0.758778 1.63756 -0.349891 -0.635229 0.240035 
26.982 1 1197 36.9265 16.0593 20.2764 3.49618 4.97085 -1.19047 -0.436483 0.332293 -0.0152916 0 0 0 0 0 0 -0.103247 -0.0577571 0.0383658 37.0257 15.3873 20.5617 3.63954 4.48634 -0.506547 -0.440226 0.343541 -0.0130226 36.2262 16.6767 19.9911 3.3461 5.45692 -1.87203 -0.432762 0.321011 -0.0176227 
26.982 1 253 12.0859 3.78421 4.15091 1.26057 -0.522756 4.9534 0.191522 0.586077 -0.0587667 0 0 0 0 0 0 0.00759163 -0.0380489 -0.04464 12.349 4.10617 5.16524 1.15784 -0.153418 6.55535 0.194638 0.613559 -0.0637916 12.1194 3.255 2.92839 1.3646 -0.883917 3.35612 0.188418 0.558561 -0.0537152 
26.982 1 20 16.1231 1.9032 2.07892 -1.20386 -4.76237 6.9771 0.291167 -0.0673657 -0.27249 0 0 0 0 0 0 -0.0264741 -0.200646 -0.0873222 16.2571 0.750381 2.46481 -1.22224 -6.0963 7.84578 0.304741 -0.0695427 -0.280909 16.1392 2.82267 1.45787 -1.18397 -3.41817 6.1082 0.277587 -0.0652247 -0.264116 
26.982 1 55 14.1548 3.8099 2.14288 0.282707 2.28807 -2.76999 -0.722122 0.55171 -0.32486 0 0 0 0 0 0 -0.034695 -0.0682312 -0.125451 14.3542 3.60287 1.97419 0.38651 2.34584 -2.43603 -0.742552 0.586391 -0.329275 14.18 3.81025 2.07688 0.182564 2.23764 -3.10101 -0.701628 0.516952 -0.320492 
26.982 1 57 16.1237 3.92491 0.0390925 -0.199952 -0.408433 -2.37124 -0.0844152 0.222952 0.362441 0 0 0 0 0 0 -0.02989 -0.0507953 -0.249722 16.2159 4.00031 -1.17712 -0.11083 -0.00984172 -3.205 -0.0827252 0.23863 0.3763 16.182 3.64233 0.995968 -0.285994 -0.801003 -1.53235 -0.0860786 0.207243 0.348452 
26.982 1 214 14.1803 1.76916 4.13304 4.99323 2.67967 0.0994878 -0.712285 0.260331 0.187124 0 0 0 0 0 0 -0.0138511 -0.187033 -0.085378 14.9008 1.71831 4.63859 5.91448 2.48656 0.938371 -0.726941 0.271482 0.19794 13.6827 1.58155 3.41634 4.07335 2.87764 -0.73888 -0.697599 0.24911 0.176303 
26.982 1 257 15.9633 3.865 4.04973 -5.15173 -2.95326 -0.232523 0.534589 0.729726 0.366214 0 0 0 0 0 0 0.00368666 -0.0341203 -0.0200092 16.1879 3.69636 4.17384 -5.41146 -3.53883 0.214883 0.547044 0.76066 0.373713 15.8931 3.82846 3.71598 -4.887 -2.35732 -0.680113 0.522163 0.698734 0.358713 
26.982 1 218 18.0526 1.98222 4.12283 -1.23529 -0.922263 -1.67797 0.699203 0.120673 0.0313073 0 0 0 0 0 0 -0.021139 -0.145935 -0.0799243 17.3568 1.08456 4.24668 -2.12878 -2.25129 -1.16187 0.717483 0.12361 0.0278303 18.8258 2.64909 3.79155 -0.340266 0.420927 -2.19233 0.680919 0.117677 0.0348049 
26.982 1 18 18.2141 2.04138 0.163091 2.86381 0.89265 -3.5344 0.0157768 0.106849 -0.074424 0 0 0 0 0 0 0.0297419 -0.134738 -0.202604 18.4542 1.55113 0.15642 2.92186 0.491275 -3.31577 0.025445 0.109642 -0.0733956 18.0498 2.29886 -0.0892299 2.8056 1.30404 -3.74988 0.00605052 0.10407 -0.0755316 
26.982 1 819 18.1583 0.0825383 18.3151 -3.47426 -5.42448 -7.0819 0.0789831 -0.39229 -0.187267 0 0 0 0 0 0 -0.0897884 -0.259604 -0.0151103 18.751 40.1799 18.106 -2.89495 -5.65571 -7.60613 0.0893787 -0.404978 -0.198932 17.6381 41.0177 18.5029 -4.05516 -5.18986 -6.55241 0.068603 -0.379648 -0.175598 
26.982 1 2813 12.0454 20.1996 16.3146 2.42004 -0.806858 -0.0135342 -0.16757 -0.118713 0.139142 0 0 0 0 0 0 -0.0648948 0.0887669 -0.0968285 11.9701 20.205 16.605 2.40713 -0.730874 0.296457 -0.163955 -0.124072 0.1411 12.4187 20.1954 15.9733 2.43351 -0.881251 -0.321708 -0.1712 -0.113309 0.137208 
26.982 1 22 22.283 2.28521 0.15719 -1.585 -1.0617 -4.23235 0.274557 -0.428928 0.167101 0 0 0 0 0 0 -0.0210095 -0.0823499 -0.244413 22.9539 2.20424 -0.459762 -0.738137 -1.28382 -4.44567 0.275986 -0.448849 0.169604 21.5425 2.13384 0.517655 -2.42881 -0.828473 -4.01218 0.273155 -0.409013 0.164587 
26.982 1 24 20.3424 2.1205 2.09581 -1.77669 1.81666 -2.48007 -0.0539259 0.320979 0.388035 0 0 0 0 0 0 -0.0353853 -0.138235 -0.114577 20.073 1.79741 2.2704 -2.03908 1.67763 -2.24804 -0.0478086 0.328283 0.393523 20.6134 2.21266 1.68921 -1.51427 1.96787 -2.70832 -0.0600329 0.313655 0.382553 
26.982 1 59 18.0629 4.09698 2.16469 -0.891841 2.37394 -0.253446 0.343241 -0.141934 0.0361509 0 0 0 0 0 0 0.00521347 -0.0477136 -0.0888082 18.4822 3.93591 1.87795 -0.304664 2.55333 0.27749 0.349371 -0.14427 0.0383491 17.7211 4.05092 2.21834 -1.47604 2.20317 -0.780974 0.337106 -0.139617 0.0338827 
26.982 1 61 20.2077 4.29418 0.17366 -2.9171 -4.58327 3.23664 0.328639 -0.795769 0.284469 0 0 0 0 0 0 0.0469816 -0.0153274 -0.259053 20.5996 3.7158 -0.0776091 -2.47489 -5.19879 3.02795 0.336868 -0.831257 0.291283 19.8173 4.66528 0.167876 -3.35938 -3.95983 3.44979 0.320401 -0.760217 0.277581 
26.982 1 63 22.443 4.33115 2.34417 -1.73023 4.33251 5.29557 -0.601724 -0.78381 -0.296996 0 0 0 0 0 0 -0.00529102 -0.00479603 -0.137094 22.3521 4.79249 1.39254 -1.44024 4.72768 4.85815 -0.612092 -0.816034 -0.301161 22.4631 3.66394 3.06566 -2.01867 3.94801 5.73805 -0.591289 -0.75153 -0.292831 
26.982 1 222 22.3136 2.04709 4.30737 -3.56431 -2.15873 2.90278 -0.0833687 -0.0378266 -0.655922 0 0 0 0 0 0 -0.0180165 -0.0567632 -0.0705152 21.8285 1.37163 4.2931 -3.79839 -3.03969 3.49864 -0.0919436 -0.0269508 -0.682407 22.7256 2.49337 4.11382 -3.32895 -1.26656 2.30904 -0.0747472 -0.0487298 -0.629418 
26.982 1 261 20.3655 4.04738 4.26615 -3.39185 0.436309 2.1228 -0.426839 0.0700307 -0.887187 0 0 0 0 0 0 -0.0110532 -0.0206893 -0.049953 19.8557 3.79707 4.32054 -3.89274 0.0663115 2.67857 -0.434855 0.0736857 -0.914763 20.8778 4.09083 4.00383 -2.89045 0.817194 1.56856 -0.418776 0.0663898 -0.859605 
26.982 1 25 24.4018 0.0242243 0.0630126 2.33621 -2.8768 2.14543 -0.218183 0.298911 -0.0477914 0 0 0 0 0 0 0.0245147 -0.146389 -0.178479 23.896 0.132109 0.379471 1.98446 -2.73801 2.70898 -0.232808 0.31603 -0.0546267 24.7644 -0.34397 -0.512247 2.69403 -3.00744 1.58804 -0.203545 0.281781 -0.0409293 
26.982 1 635 35.0121 0.214353 14.1177 -3.44019 1.52591 -1.55088 -0.572782 -0.167519 0.109946 0 0 0 0 0 0 0.0861544 -0.275313 -0.061943 34.7154 40.7903 14.4581 -3.47619 1.25802 -1.43452 -0.583973 -0.183732 0.112961 34.7902 40.6716 13.6988 -3.40375 1.79933 -1.66538 -0.561561 -0.151329 0.106894 
26.982 1 27 26.382 0.210599 2.12991 2.97652 -1.55249 -1.30416 0.0646619 -0.748802 -0.337474 0 0 0 0 0 0 0.0727741 -0.217543 -0.140052 26.5497 -0.0323277 1.57601 3.20715 -1.60429 -1.44575 0.0648119 -0.777112 -0.354646 25.9928 0.195266 2.44689 2.74796 -1.49136 -1.16189 0.0644825 -0.720447 -0.320314 
26.982 1 28 24.4507 2.14438 2.09619 -4.34282 2.22529 -1.99548 -0.632069 0.0485122 0.0988921 0 0 0 0 0 0 0.021966 -0.073078 -0.139271 23.9577 2.52057 1.94567 -4.57126 2.77675 -1.78423 -0.660376 0.0442431 0.0981891 24.7992 1.53716 2.01389 -4.10986 1.68621 -2.20387 -0.603698 0.0527921 0.0996238 
26.982 1 65 24.4438 4.13622 0.0468622 -1.51826 4.85765 0.619108 -0.196586 -0.065326 0.138503 0 0 0 0 0 0 0.0322908 0.0227057 -0.274067 24.7957 4.51813 0.227255 -1.34079 5.8143 1.38705 -0.208745 -0.0738759 0.12976 23.9472 3.54582 -0.387737 -1.69275 3.90905 -0.141541 -0.18437 -0.0567183 0.147272 
26.982 1 67 26.3831 4.11858 2.02721 -2.20616 0.00888546 -5.47918 0.408409 0.229826 0.389879 0 0 0 0 0 0 0.018434 -0.00166752 -0.173439 27.2306 3.56305 1.84962 -1.83287 -0.873313 -5.39099 0.411167 0.236246 0.409093 25.3124 4.46756 1.97298 -2.57876 0.899347 -5.56305 0.405664 0.223434 0.370654 
26.982 1 225 24.4566 0.120072 4.0482 0.613249 0.0913245 1.77357 0.136714 -0.00808853 0.425132 0 0 0 0 0 0 0.0286451 -0.194029 -0.0987636 24.6772 -0.873267 3.76948 0.994443 -0.338822 2.31898 0.145504 -0.020007 0.432591 24.0896 0.856222 4.11736 0.235415 0.530265 1.22966 0.127911 0.00383315 0.41767 
26.982 1 226 26.5371 2.12566 4.13597 -1.14895 -3.97884 0.986431 -0.246687 0.157611 0.117914 0 0 0 0 0 0 0.0444881 -0.091407 -0.0478138 26.5855 1.67302 4.03597 -1.01032 -4.37082 1.07716 -0.244278 0.159961 0.130431 26.2667 2.34904 4.02659 -1.28582 -3.57516 0.895516 -0.249124 0.155288 0.10535 
26.982 1 265 24.4633 4.1142 4.15193 -1.09861 -5.74518 3.18507 -0.22048 -0.14718 0.0931543 0 0 0 0 0 0 0.00582068 -0.001543 -0.0244483 24.4782 3.57505 3.82728 -0.772124 -6.36304 3.33714 -0.222794 -0.144613 0.103258 24.3021 4.44757 4.26782 -1.42301 -5.11816 3.03351 -0.218127 -0.149734 0.0830126 
26.982 1 30 30.543 1.89816 0.0118214 -1.05325 2.32936 4.32528 0.25097 0.234159 0.510331 0 0 0 0 0 0 -0.0287421 -0.130673 -0.242889 30.2862 1.17366 -0.197242 -1.00594 2.00134 4.79481 0.258759 0.233163 0.526506 30.424 2.38799 -0.0366057 -1.10543 2.66502 3.86016 0.243174 0.2352 0.494162 
26.982 1 32 28.3447 2.0168 2.05694 -3.70407 1.68475 0.880429 0.871741 0.420092 -0.0620201 0 0 0 0 0 0 -0.0127126 -0.13493 -0.13765 28.2561 1.68831 2.00398 -3.88938 1.74224 1.09803 0.894154 0.423195 -0.0628857 28.132 2.11447 1.87607 -3.52227 1.63834 0.665032 0.849289 0.417043 -0.061187 
26.982 1 69 28.6087 3.99013 0.0459652 -0.0652119 -0.216462 -1.23175 0.19719 0.375947 0.35643 0 0 0 0 0 0 -0.0653535 -0.0076953 -0.260884 28.4982 4.23743 -0.168753 -0.184883 0.00393527 -1.38666 0.208582 0.382092 0.365975 28.4173 3.53143 0.0034618 0.0504858 -0.433688 -1.07168 0.185789 0.369852 0.346904 
26.982 1 71 30.5911 4.12113 2.03008 3.46627 -2.17728 -1.14583 -0.230216 -0.225566 0.302408 0 0 0 0 0 0 -0.0363971 -0.0324961 -0.10059 30.4794 4.22167 1.91455 3.69805 -1.97145 -1.02322 -0.235407 -0.238224 0.323759 30.3269 3.80893 1.91634 3.22968 -2.37836 -1.26248 -0.225047 -0.21284 0.28103 
26.982 1 230 30.6766 2.03991 3.9405 -0.326104 2.33483 -2.01838 -0.472521 0.432637 0.446124 0 0 0 0 0 0 -0.048476 -0.0920075 -0.032183 30.071 1.10882 3.75115 -0.803266 2.00578 -2.17182 -0.47554 0.437789 0.461536 30.9086 2.73854 3.92714 0.148875 2.67304 -1.85792 -0.469501 0.427508 0.430682 
26.982 1 269 28.6273 4.14356 4.08146 -2.64821 0.586644 2.12704 -0.0984836 -0.33464 -0.14425 0 0 0 0 0 0 -0.000456075 -0.0401612 -0.0319414 28.5445 4.60138 4.43665 -2.78745 1.34592 3.13271 -0.087215 -0.352238 -0.130497 28.4109 3.47832 3.51913 -2.50949 -0.165198 1.12456 -0.10977 -0.317006 -0.158059 
26.982 1 35 34.6133 0.183626 2.04672 0.259392 -2.56223 -1.83251 0.338047 -0.883928 0.308689 0 0 0 0 0 0 0.0777911 -0.238276 -0.125186 34.2842 0.644531 1.81448 0.113926 -1.97168 -2.05079 0.348856 -0.899068 0.325997 34.425 -0.541025 2.05123 0.406781 -3.14739 -1.6069 0.327186 -0.868779 0.291402 
26.982 1 36 32.6516 2.01934 2.08323 8.19879 -0.829772 7.50376 -0.160022 0.203679 -0.028551 0 0 0 0 0 0 0.00721514 -0.117266 -0.124043 32.4874 2.04774 2.00492 8.43746 -0.347131 8.00024 -0.161264 0.204264 -0.0216812 32.3694 1.75836 1.93486 7.95879 -1.30454 7.01551 -0.158786 0.203124 -0.0354434 
26.982 1 73 32.5481 4.06208 0.19823 -1.07927 -4.62739 -4.06677 0.582948 -0.172738 -0.272174 0 0 0 0 0 0 0.0179659 -0.0361454 -0.289495 31.6011 4.37469 0.423588 -1.42497 -4.09904 -3.59989 0.599851 -0.18261 -0.284315 33.0461 3.54022 -0.284087 -0.738344 -5.14984 -4.52713 0.566025 -0.162812 -0.260036 
26.982 1 75 34.6817 4.19453 1.95592 -0.676521 5.49137 -0.634793 0.347287 -0.270371 0.307895 0 0 0 0 0 0 0.0705258 -0.0448007 -0.137578 35.4471 3.90219 1.74141 -0.112528 5.41548 -0.75631 0.355374 -0.282838 0.319174 33.3927 4.27156 1.94125 -1.24437 5.56631 -0.506529 0.339178 -0.257847 0.29662 
26.982 1 234 34.7483 2.12601 4.12026 1.16924 -4.53882 1.12753 -0.160139 0.323231 -0.442757 0 0 0 0 0 0 0.0566887 -0.0924564 -0.0585581 35.3231 1.6064 4.25265 1.85734 -4.96516 1.51576 -0.158407 0.330595 -0.452695 33.6514 2.406 3.78564 0.47853 -4.10953 0.745233 -0.161881 0.315888 -0.432831 
26.982 1 273 32.7185 4.26236 4.02842 0.321351 -3.57337 -7.8482 -0.298557 -0.509087 0.208454 0 0 0 0 0 0 -0.000237327 -0.044202 -0.00418612 33.2031 3.68367 4.08861 1.14095 -3.73709 -7.99858 -0.303632 -0.540923 0.228686 31.7839 4.6273 3.76262 -0.50278 -3.40741 -7.69471 -0.293477 -0.47719 0.188197 
26.982 1 4 40.7655 2.01369 2.09264 2.70428 -1.03423 0.749394 0.43123 0.726083 0.122241 0 0 0 0 0 0 -0.0639286 -0.0557403 -0.208569 39.6718 2.3098 1.95729 1.96384 -0.907896 0.888824 0.428354 0.733464 0.114574 41.1166 1.4737 2.0002 3.44503 -1.1605 0.615454 0.434119 0.718772 0.129949 
26.982 1 40 36.723 2.08814 2.07502 -3.34408 1.41992 -0.108512 0.186199 0.0172327 0.102723 0 0 0 0 0 0 0.0840466 -0.139419 -0.176294 37.1435 2.85845 2.258 -2.98989 2.0741 -0.0432367 0.188611 0.00501821 0.100769 35.7069 1.07426 1.66581 -3.70026 0.764051 -0.166608 0.183748 0.0295068 0.104686 
26.982 1 79 38.8384 4.18095 2.02416 -0.520298 2.94502 -5.84162 0.373064 0.0279422 0.354594 0 0 0 0 0 0 0.0272894 -0.0264681 -0.256517 38.4696 4.62131 1.92789 -0.67472 3.48309 -6.2089 0.383152 0.0317682 0.355058 38.5377 3.52541 1.89134 -0.366443 2.40961 -5.46836 0.362949 0.024151 0.354136 
26.982 1 961 -0.499538 16.0343 16.1374 -4.3852 -1.52456 1.587 -0.196771 0.5208 0.34813 0 0 0 0 0 0 -0.14972 -0.043225 -0.0873357 40.4279 15.7868 16.2292 -4.69262 -1.88889 1.73981 -0.204625 0.536756 0.349731 40.6544 16.2298 15.9892 -4.07508 -1.157 1.43111 -0.188965 0.504848 0.34658 
26.982 1 238 38.764 2.2147 4.09246 2.55473 -0.885078 -2.30699 0.117579 -0.543622 -0.146931 0 0 0 0 0 0 -0.0364264 -0.127474 -0.106575 38.716 2.57398 3.83123 3.10893 -0.723405 -2.30131 0.111233 -0.559051 -0.14852 38.1432 1.61356 4.15049 1.99897 -1.04378 -2.30892 0.123915 -0.528152 -0.145339 
26.982 1 277 36.8925 4.26453 3.9611 -4.40682 3.31436 1.23273 -0.569358 -0.334339 0.286658 0 0 0 0 0 0 0.0159439 -0.0512096 -0.0635311 36.5918 3.7999 3.86871 -4.61233 3.37007 1.36234 -0.572223 -0.351 0.287123 36.5963 4.51268 3.8494 -4.20362 3.25923 1.10804 -0.566522 -0.317644 0.286172 
26.982 1 631 30.7844 0.143221 14.0573 0.546728 -5.84591 -7.05781 -0.256053 0.0750379 0.210206 0 0 0 0 0 0 -0.033061 -0.261834 -0.0787398 31.2651 41.5825 13.8402 1.12763 -5.44449 -7.64744 -0.26485 0.073539 0.230784 29.9339 39.7359 14.1963 -0.035622 -6.24458 -6.46551 -0.247222 0.0764908 0.189588 
26.982 1 48 3.61949 6.13065 2.21196 2.7453 1.82837 2.53085 0.0890934 -0.104919 -0.556407 0 0 0 0 0 0 -0.0864919 0.0319378 -0.193364 2.73603 5.7886 1.54723 1.72447 1.39408 2.20386 0.0862043 -0.104933 -0.578226 5.10275 6.29084 2.64082 3.76952 2.26896 2.86022 0.0919986 -0.104886 -0.534528 
26.982 1 627 26.4709 0.137459 14.2007 -2.57739 0.307528 -0.0184803 0.0957765 -0.115006 0.0212267 0 0 0 0 0 0 -0.0145233 -0.247987 -0.134393 25.6957 40.7447 14.3398 -3.16835 0.183911 -0.0127167 0.0998371 -0.10651 0.00718938 27.0297 40.5627 13.9844 -1.98106 0.432495 -0.0207945 0.0916863 -0.12355 0.0352196 
26.982 1 83 1.70556 8.21098 2.09701 0.370597 -0.492791 1.17608 -0.352837 -0.117514 -0.277552 0 0 0 0 0 0 -0.142226 -0.0435291 -0.213756 1.19458 8.49323 2.02399 -0.0229061 -0.0105241 1.13202 -0.362389 -0.120059 -0.294116 2.8911 7.76947 1.93583 0.768168 -0.972302 1.22296 -0.343229 -0.114967 -0.260961 
26.982 1 403 1.41346 0.143833 10.0415 -2.4098 -1.73156 0.815052 0.354742 -0.0845604 0.156714 0 0 0 0 0 0 -0.146731 -0.178762 0.00535599 1.54764 40.8531 9.48732 -2.44783 -1.52185 0.327147 0.356721 -0.0854196 0.161221 1.9463 40.4665 10.4675 -2.37265 -1.93791 1.30619 0.35274 -0.0837352 0.152233 
26.982 1 242 1.66078 6.22144 4.11806 -7.28635 2.9775 1.77256 -0.299449 -0.436017 0.18373 0 0 0 0 0 0 -0.149154 0.0189922 -0.111012 1.01198 6.57168 4.38725 -7.99941 3.24106 2.18116 -0.311371 -0.447206 0.190346 2.98186 5.68777 3.64551 -6.57065 2.7191 1.37089 -0.287488 -0.424855 0.177103 
26.982 1 285 3.73339 8.09921 4.1453 -2.11514 -2.51915 6.87017 -0.00203059 0.262894 0.0162116 0 0 0 0 0 0 -0.038153 0.00360066 -0.0531985 2.50794 8.37725 3.59965 -3.30325 -2.06972 6.64664 0.000315964 0.263692 0.027219 5.55881 7.66178 4.48513 -0.92276 -2.96676 7.09723 -0.00432703 0.262119 0.0051757 
26.982 1 46 5.71865 6.13159 0.0756486 -1.35402 6.94429 -2.134 0.118177 0.0656999 0.112153 0 0 0 0 0 0 -0.0118841 0.0514399 -0.263867 5.57046 5.72708 0.932607 -1.74684 6.83339 -1.37479 0.11632 0.0728233 0.104994 6.38693 6.35562 -1.03927 -0.961615 7.06286 -2.88706 0.12003 0.0586501 0.1194 
26.982 1 52 7.91376 6.14258 2.07683 -5.34061 -0.946882 -3.72544 -0.374697 -0.0191179 0.0397322 0 0 0 0 0 0 0.0306911 0.0201066 -0.186512 8.13992 6.04242 3.06282 -5.58221 -1.32285 -3.00164 -0.377578 -0.0351465 0.0340285 8.13022 6.06248 0.856487 -5.10228 -0.562815 -4.4462 -0.371888 -0.00300096 0.045494 
26.982 1 87 5.77091 8.22576 2.1053 0.859179 -1.00238 -4.40501 0.114243 -0.505995 -0.0637034 0 0 0 0 0 0 -0.0122076 -0.0121653 -0.17792 5.56782 8.25301 2.47092 0.520937 -1.08017 -3.8904 0.115032 -0.519201 -0.068281 6.49629 8.03862 1.50466 1.19954 -0.922635 -4.91724 0.113477 -0.492717 -0.0590695 
26.982 1 603 1.58462 0.124147 14.1663 -4.14336 2.91569 -3.69109 -0.185184 -0.113679 -0.033723 0 0 0 0 0 0 -0.0782087 -0.189882 -0.0579391 1.83277 40.5899 13.8981 -4.48638 2.91963 -3.86206 -0.180416 -0.108925 -0.050187 2.00015 40.6923 14.3602 -3.80147 2.91892 -3.51197 -0.189971 -0.118461 -0.01716 
26.982 1 246 5.70931 6.03835 3.92773 -3.64398 1.89534 -0.460601 0.236542 0.53206 0.653925 0 0 0 0 0 0 0.00172802 0.00981849 -0.0356312 6.33998 5.5466 2.99783 -3.34626 1.51642 -1.19952 0.239507 0.543259 0.667171 5.59982 6.34816 4.64884 -3.9415 2.28112 0.278353 0.233556 0.520914 0.640675 
26.982 1 289 7.89902 8.0604 4.16769 -0.967604 0.0918531 4.0006 -0.527682 0.250661 -0.325636 0 0 0 0 0 0 -0.00768521 0.000194312 -0.0440719 8.63091 7.3606 4.03953 -0.666745 -0.587911 4.28528 -0.538671 0.25526 -0.329113 7.61068 8.60246 4.088 -1.27105 0.775432 3.71644 -0.516721 0.246145 -0.322172 
26.982 1 92 7.84224 10.1702 2.12192 -9.35054 1.58973 -3.35655 -0.062809 -0.25492 -0.318317 0 0 0 0 0 0 -0.00871889 -0.0342609 -0.162599 7.87262 9.79627 1.60967 -9.70201 1.82681 -3.67492 -0.064364 -0.257094 -0.336532 8.25594 10.41 2.40143 -9.00115 1.35316 -3.03412 -0.0612874 -0.252726 -0.300055 
26.982 1 286 5.8035 10.093 4.07769 -3.2401 -0.955338 -0.503675 -0.183048 -0.151585 0.220451 0 0 0 0 0 0 -0.0162867 -0.00918985 -0.0284888 5.93817 9.85118 4.28472 -3.17834 -0.844862 -0.00137693 -0.188187 -0.160869 0.235841 6.19401 10.1995 3.66582 -3.29707 -1.06774 -1.00303 -0.177886 -0.142273 0.205024 
26.982 1 1021 20.1452 0.0783082 20.2549 1.31171 3.78089 -0.913919 0.245511 -0.261826 -0.186725 0 0 0 0 0 0 -0.00186045 -0.24289 0.0066676 20.5436 40.6959 19.8409 1.73292 4.09045 -1.44073 0.241084 -0.270275 -0.188281 19.7475 40.4945 20.6698 0.891787 3.47522 -0.385348 0.24996 -0.253408 -0.185188 
26.982 1 56 11.9905 6.14808 1.9869 0.333929 -2.39871 1.15877 0.0576941 -0.301239 -0.172217 0 0 0 0 0 0 -0.0370443 0.00893602 -0.183609 12.1924 6.36119 2.39263 0.575255 -2.07721 2.06468 0.0647525 -0.319344 -0.173696 12.0879 5.75634 1.34483 0.0946139 -2.71189 0.255325 0.0506452 -0.283112 -0.170705 
26.982 1 91 9.74239 8.2 1.94733 2.49759 -1.51924 -3.74772 0.667691 -0.0498805 0.166676 0 0 0 0 0 0 0.00714136 -0.0566439 -0.205665 10.2488 8.82175 2.09747 2.64369 -1.18142 -3.62956 0.683543 -0.0639646 0.171172 9.60672 7.42413 1.56514 2.3495 -1.84939 -3.86212 0.651748 -0.0356797 0.162242 
26.982 1 250 9.97253 6.27119 4.05457 -4.61435 -1.14593 3.31808 -0.0182439 -0.714259 -0.147176 0 0 0 0 0 0 0.0094442 -0.0272066 -0.0499029 10.3342 6.34477 5.54084 -4.67502 -0.982111 4.95642 -0.00681405 -0.74908 -0.154667 9.97919 6.02022 2.35748 -4.55731 -1.29856 1.67799 -0.0297446 -0.67936 -0.139634 
26.982 1 293 11.9973 8.21979 3.98687 -5.62931 0.437122 3.46514 -0.0625086 -0.437839 0.0290698 0 0 0 0 0 0 -0.00321053 -0.0216623 -0.0429626 11.8649 7.17285 5.11153 -6.20624 -0.364035 5.15658 -0.0570922 -0.453735 0.0253406 12.4282 9.11142 2.654 -5.0516 1.24291 1.77604 -0.0679771 -0.421844 0.0328576 
26.982 1 54 14.1481 5.91118 -0.0710328 -6.60101 -0.603004 -0.0425033 -0.460646 0.228733 0.645815 0 0 0 0 0 0 -0.0639958 0.0187824 -0.264972 13.7721 6.41767 -0.614053 -7.06589 -0.224079 -0.691729 -0.483015 0.247554 0.684559 14.7478 5.22558 0.211634 -6.13291 -0.975872 0.610558 -0.438179 0.209891 0.606968 
26.982 1 60 15.9413 6.10394 2.22788 0.0232471 -0.804608 -0.722458 0.814752 -0.259493 -0.200269 0 0 0 0 0 0 0.00168906 -0.00109053 -0.0953499 16.5565 6.71661 1.04373 0.479123 -0.147963 -1.29217 0.826229 -0.255959 -0.20778 15.4751 5.30953 3.17892 -0.430231 -1.45453 -0.151269 0.803343 -0.263026 -0.192833 
26.982 1 95 14.0798 8.04058 1.94958 -1.43186 -1.0741 1.87901 -0.333847 0.409583 0.0307969 0 0 0 0 0 0 -0.0471057 -0.00528422 -0.13643 14.5311 8.25154 0.489346 -1.15099 -0.881344 1.3683 -0.339323 0.408723 0.0355143 13.8525 7.67406 3.1789 -1.70981 -1.26186 2.39512 -0.328349 0.410517 0.0260878 
26.982 1 97 16.1869 7.99866 0.170889 1.67918 1.41834 2.96313 -0.0557053 0.122892 -0.0814824 0 0 0 0 0 0 -0.0201448 -0.00193073 -0.270458 15.8288 8.82233 0.854368 1.47591 2.05977 3.50268 -0.0593009 0.124751 -0.0779965 16.6928 7.01685 -0.770126 1.88393 0.780272 2.42976 -0.0520326 0.121016 -0.0850603 
26.982 1 254 13.9866 6.16695 4.04172 -3.53835 -1.53576 -0.4432 0.0206891 -0.356362 0.157918 0 0 0 0 0 0 -0.0141143 -0.0116343 -0.0248826 13.8382 5.91479 4.43275 -3.85955 -1.67754 0.76312 0.0157916 -0.368656 0.15669 14.3616 6.24197 3.44033 -3.21275 -1.38432 -1.6517 0.0255922 -0.344042 0.159198 
26.982 1 297 16.1125 8.34122 4.19521 0.774691 3.95718 0.0440276 -0.0217583 -0.378397 -0.716717 0 0 0 0 0 0 -0.00365726 -0.0223935 -0.0233393 16.4066 8.16187 3.12079 1.0597 4.26497 -0.570386 -0.021319 -0.400529 -0.735735 15.9683 8.36438 5.06365 0.492861 3.65351 0.659135 -0.0221682 -0.356205 -0.697679 
26.982 1 58 18.2433 6.03809 0.228233 -1.46455 0.813033 -1.76345 -0.608642 0.439513 0.14795 0 0 0 0 0 0 0.00721862 0.00550148 -0.260285 17.008 6.97842 0.499639 -2.45388 2.09459 -1.67335 -0.622817 0.452936 0.163013 19.5525 4.91742 -0.301615 -0.474905 -0.462157 -1.84835 -0.594439 0.426114 0.132773 
26.982 1 2639 38.8307 20.2036 14.2136 -3.13713 1.91012 -1.78416 -0.0899644 0.230414 -0.368755 0 0 0 0 0 0 0.0192426 0.0682776 -0.153345 38.7436 21.4433 13.781 -3.26844 2.88253 -2.15453 -0.0958394 0.228885 -0.385691 38.2537 18.9639 14.5693 -3.00166 0.938762 -1.4125 -0.0841314 0.231954 -0.351749 
26.982 1 64 20.2738 6.28188 2.18048 -1.42884 4.79318 1.31488 -0.0243245 -0.882807 0.265684 0 0 0 0 0 0 0.0357918 -0.0311243 -0.120779 19.7347 6.47343 1.3313 -1.56623 5.28887 1.3225 -0.0332756 -0.919291 0.271091 20.8157 5.90469 2.8001 -1.29017 4.30147 1.31227 -0.015307 -0.846256 0.260224 
26.982 1 99 18.2841 8.23862 2.19619 -0.559191 -4.44899 1.0139 -0.455344 -0.546229 -0.120629 0 0 0 0 0 0 -0.00162231 -0.0157414 -0.0985628 17.861 9.07244 0.884517 -1.07952 -3.83873 0.360772 -0.476498 -0.563329 -0.127417 18.7817 7.24593 3.27763 -0.0377859 -5.05812 1.67038 -0.434099 -0.529092 -0.113889 
26.982 1 103 22.4331 8.19347 2.0837 -0.501 -2.16299 -1.66354 -0.087736 -0.0799673 0.225732 0 0 0 0 0 0 0.0143454 0.0052679 -0.17801 21.4083 8.56423 2.88491 -0.918177 -1.75831 -0.96486 -0.078432 -0.0777132 0.223259 23.386 7.66116 1.054 -0.0839366 -2.5659 -2.35691 -0.0970494 -0.0821989 0.228202 
26.982 1 258 18.2267 5.95056 4.20326 -3.00735 6.36295 1.90389 -0.158241 0.466109 -0.371095 0 0 0 0 0 0 -0.00583707 0.0017335 -0.0209136 18.269 6.18992 4.29228 -3.16768 7.26937 2.56497 -0.169351 0.474015 -0.380322 18.2618 5.52805 3.90825 -2.84435 5.46189 1.24556 -0.147074 0.458241 -0.361875 
26.982 1 262 22.3726 6.30537 4.29723 1.63451 -0.0275791 -2.82992 -0.000791236 -0.766106 -0.497714 0 0 0 0 0 0 0.00789763 -0.0211293 -0.0319906 21.0884 6.75367 4.14766 1.12033 0.740636 -2.83946 0.0035873 -0.790914 -0.498208 23.5845 5.6726 4.24118 2.14905 -0.789069 -2.81741 -0.00513886 -0.741246 -0.497265 
26.982 1 301 20.2608 7.99459 4.16111 2.03111 3.13946 -1.60442 -0.321841 0.585484 0.310363 0 0 0 0 0 0 -0.00709366 0.00070945 -0.0108521 19.5537 7.39947 4.29506 1.79536 3.09048 -1.1789 -0.338923 0.586492 0.320051 20.9686 8.42953 3.8232 2.26656 3.1899 -2.02601 -0.304683 0.584542 0.30064 