ITEM: TIMESTEP
1900
ITEM: NUMBER OF ATOMS
4000
ITEM: BOX BOUNDS pp pp pp
-0.460356 40.9604
0.0611597 40.4388
0.0577907 40.4422
ITEM: ATOMS mass type id x y z vx vy vz fx fy fz xrad yrad zrad vxrad vyrad vzrad fxrad fyrad fzrad xub yub zub vxub vyub vzub fxub fyub fzub xlb ylb zlb vxlb vylb vzlb fxlb fylb fzlb 
26.982 1 811 9.80789 -0.0481386 18.1595 1.89456 -5.23025 0.961444 -0.0947827 -0.0538461 0.283262 0 0 0 0 0 0 -0.0516912 -0.256398 -0.000176677 10.1776 40.7719 18.635 1.73734 -4.93021 1.19224 -0.100942 -0.0486991 0.296829 9.81613 40.1603 17.666 2.05346 -5.52979 0.737359 -0.0886422 -0.0590513 0.269693 
26.982 1 3 1.70206 0.13694 2.26619 -0.398598 -0.657947 -4.86014 -0.0298045 -0.0569178 -0.590341 0 0 0 0 0 0 -0.0908567 -0.146166 -0.111228 1.84414 -0.327771 2.08475 -0.336112 -0.678873 -4.92041 -0.0244256 -0.0568924 -0.611055 2.23584 0.329969 2.21606 -0.4606 -0.637255 -4.79837 -0.0351541 -0.0569386 -0.569564 
26.982 1 8 3.82025 2.11249 2.10689 6.02878 -0.353251 -1.51117 -0.678404 -0.00964386 0.11179 0 0 0 0 0 0 -0.00699003 -0.147064 -0.129008 3.84825 2.61826 2.05892 5.70471 0.26308 -1.39712 -0.696618 -0.0103895 0.109689 4.396 1.36648 1.92189 6.353 -0.96568 -1.62307 -0.660187 -0.00886901 0.113984 
26.982 1 807 5.6602 0.000923896 18.1865 3.45648 5.01935 -4.03641 0.247627 -0.248821 -0.0193709 0 0 0 0 0 0 -0.0119349 -0.26466 0.00656244 5.92529 40.3856 18.02 3.49433 5.24077 -4.38587 0.250884 -0.256936 -0.0309366 5.92287 40.6486 18.3324 3.41742 4.80346 -3.68187 0.2444 -0.240706 -0.00780543 
26.982 1 43 1.48947 4.1139 2.10231 -3.38646 4.86162 3.62211 0.281299 0.0156562 0.244967 0 0 0 0 0 0 -0.114708 -0.0663132 -0.217513 0.730753 3.91631 2.24365 -4.30446 4.90505 4.06654 0.280964 0.0109196 0.239621 2.92972 4.09499 1.72875 -2.46503 4.82144 3.18099 0.281627 0.0204322 0.250365 
26.982 1 202 1.75152 2.09614 4.15136 2.87775 -5.08031 -0.828658 -0.0796843 0.0546681 -0.0417657 0 0 0 0 0 0 -0.0742015 -0.127673 -0.126665 1.78166 1.88951 4.37541 2.64244 -5.42565 -0.556683 -0.0781201 0.0530583 -0.0555803 2.40007 2.0597 3.72442 3.11525 -4.73 -1.0963 -0.0812158 0.0563049 -0.027902 
26.982 1 241 -0.479266 4.0815 4.11625 -2.36889 2.33816 -1.35398 0.0408444 0.177814 -0.197428 0 0 0 0 0 0 -0.106346 -0.119091 -0.170413 -0.942812 4.5035 3.93665 -3.11314 2.50594 -1.52006 0.0470346 0.18154 -0.208637 0.73857 3.44006 4.09524 -1.62306 2.17282 -1.18001 0.0346503 0.174144 -0.186201 
26.982 1 245 3.7295 4.05169 4.14506 1.30168 1.12302 0.139681 -0.446293 0.117747 0.0531682 0 0 0 0 0 0 -0.030257 -0.0362013 -0.0500277 3.9137 3.72505 4.2475 1.09134 0.704975 0.705434 -0.460673 0.125495 0.0504164 4.1503 4.16646 3.83758 1.5133 1.54901 -0.421609 -0.431896 0.110012 0.0559545 
26.982 1 2825 24.3864 20.2612 16.243 -3.62928 1.39676 2.00981 0.093278 -0.377541 -0.103991 0 0 0 0 0 0 -0.0508715 0.118078 -0.131702 25.2633 20.7478 15.8514 -3.26892 1.9315 1.61714 0.0937387 -0.393617 -0.118756 23.3577 19.7816 16.5817 -3.98965 0.868766 2.40272 0.0928263 -0.361444 -0.0892114 
26.982 1 2819 18.1168 20.2161 18.292 3.24056 5.32315 -0.0616453 0.337968 0.0930557 -0.0123352 0 0 0 0 0 0 -0.111393 0.117531 -0.0939552 17.2403 19.8526 19.5177 2.82062 5.17699 1.18036 0.343929 0.103912 -0.0070989 19.0684 20.586 17.0391 3.66022 5.47626 -1.3014 0.332 0.0821498 -0.0175633 
26.982 1 12 7.75094 2.04368 2.27599 -3.73147 1.40458 -1.21467 0.44764 0.0652479 -0.235029 0 0 0 0 0 0 -0.0227725 -0.176068 -0.167394 7.41094 1.8147 2.1174 -4.15975 1.6301 -1.24473 0.466982 0.0777702 -0.246174 8.54135 2.0303 2.20345 -3.30572 1.18123 -1.18105 0.428262 0.052701 -0.22382 
26.982 1 47 5.61181 4.09494 2.15178 0.179979 1.03669 -3.41578 0.572157 0.184238 -0.37733 0 0 0 0 0 0 0.0082001 -0.0659172 -0.156557 5.3159 4.04031 1.62659 -0.0717072 1.19602 -3.60524 0.576448 0.179346 -0.39134 6.43448 3.94007 2.44449 0.430023 0.885734 -3.22294 0.567817 0.189164 -0.363238 
26.982 1 49 7.85067 4.20815 0.0671795 -0.446962 -1.92364 -2.51327 -0.22294 -0.560342 0.206013 0 0 0 0 0 0 0.00637342 -0.0166415 -0.247057 8.24941 4.0793 0.14761 -0.214489 -2.10469 -2.69849 -0.220947 -0.576203 0.210243 7.90096 4.12697 -0.271017 -0.683332 -1.73636 -2.32336 -0.224976 -0.544496 0.201811 
26.982 1 206 5.7159 2.0422 4.31989 -2.75616 0.851253 3.80951 0.381327 -0.000239798 -0.496326 0 0 0 0 0 0 -0.0162514 -0.135756 -0.121889 6.2471 2.57801 4.98483 -2.5862 1.17941 4.82112 0.391581 0.00309384 -0.520817 5.71215 1.26615 3.44827 -2.92755 0.527012 2.80225 0.371055 -0.00358421 -0.471753 
26.982 1 209 7.86916 -0.0856438 4.30657 5.16475 -3.07751 0.228325 -0.150865 0.629494 -0.530323 0 0 0 0 0 0 -0.00244824 -0.169891 -0.219127 8.37252 0.0026942 3.65697 5.42744 -2.68249 -0.0474455 -0.145853 0.651053 -0.554359 7.81894 -0.444086 4.74859 4.90236 -3.47186 0.505445 -0.15591 0.607915 -0.506222 
26.982 1 249 7.77919 4.16573 3.95329 0.91453 -2.3034 1.83181 0.181247 0.0201918 0.457064 0 0 0 0 0 0 0.0109373 -0.0349428 -0.0533645 8.41733 3.64395 3.68262 1.36189 -3.09322 1.54512 0.192448 0.0138826 0.460775 7.58901 4.4747 4.0169 0.462833 -1.5057 2.11998 0.169958 0.0265059 0.453451 
26.982 1 10 9.78334 1.99338 0.160173 6.7139 0.159536 -2.61192 -0.016495 0.0228193 -0.118942 0 0 0 0 0 0 -0.0457179 -0.117992 -0.188434 10.3979 1.52976 -0.0201895 6.91875 0.366338 -3.03676 -0.0257822 0.0421015 -0.117739 9.54564 2.2167 0.0840649 6.5084 -0.0440676 -2.18044 -0.00716505 0.00348931 -0.120179 
26.982 1 16 11.9387 1.82967 2.10649 4.02373 0.66469 -1.47168 0.032061 0.366408 0.178746 0 0 0 0 0 0 0.0237153 -0.185527 -0.0674651 12.7155 2.24533 1.4237 4.40703 1.16252 -1.78482 0.0285025 0.386304 0.188838 11.4631 1.17156 2.55603 3.64189 0.16875 -1.15525 0.0356745 0.34646 0.168622 
26.982 1 51 10.1098 4.03639 2.19393 -3.24279 -0.589566 -3.2085 -0.361579 -0.0956776 -0.0903125 0 0 0 0 0 0 -0.0107811 -0.0132849 -0.1424 9.77436 3.93445 1.9268 -3.91409 -0.731162 -3.46139 -0.36414 -0.0963662 -0.0953085 10.819 3.92694 2.22584 -2.57467 -0.440813 -2.9532 -0.359037 -0.0950086 -0.0853019 
26.982 1 53 12.0774 3.88097 0.0314372 -2.45467 10.5562 1.01207 -0.427297 0.0855199 0.214093 0 0 0 0 0 0 -0.0152684 -0.0168449 -0.249013 12.5013 3.87784 -0.617095 -2.74302 11.1069 0.423426 -0.433958 0.101285 0.217641 11.9555 3.67174 0.421015 -2.16346 10.0106 1.60501 -0.420539 0.0697033 0.210466 
26.982 1 210 9.86138 2.14131 4.22707 -3.34849 -3.30577 1.56734 -0.000879252 -0.290992 -0.375616 0 0 0 0 0 0 0.0304656 -0.129631 -0.102268 10.0037 2.41067 4.22669 -3.77098 -2.80038 2.00369 0.00370066 -0.290329 -0.397575 10.0927 1.62697 4.02042 -2.92782 -3.81137 1.13334 -0.00551374 -0.291703 -0.353607 
26.982 1 1197 36.9574 16.1969 20.2567 -1.47595 5.18842 0.0209435 -0.520054 -0.209317 0.239797 0 0 0 0 0 0 -0.0983722 -0.064682 0.0526715 37.0556 15.5132 20.5596 -1.37872 4.7393 0.770567 -0.527071 -0.213831 0.25528 36.2498 16.8252 19.9537 -1.58028 5.63845 -0.727298 -0.513089 -0.204836 0.224264 
26.982 1 253 12.1257 3.82442 4.24884 1.50792 3.00126 2.16964 -0.173997 0.182381 -0.51344 0 0 0 0 0 0 -0.00203673 -0.0458895 -0.0470949 12.3883 4.15659 5.30205 1.39091 3.53439 3.68116 -0.180569 0.192694 -0.525684 12.1637 3.28238 2.98728 1.62632 2.47634 0.664064 -0.167421 0.172056 -0.501179 
26.982 1 20 16.126 1.79198 2.19331 1.33242 -3.61517 1.5462 0.176233 0.351069 -0.664291 0 0 0 0 0 0 -0.024533 -0.199601 -0.0903132 16.2621 0.604757 2.59928 1.43871 -4.87966 2.29048 0.187072 0.364941 -0.681261 16.1419 2.74297 1.55185 1.22751 -2.33972 0.801823 0.16538 0.33718 -0.647373 
26.982 1 55 14.0869 3.91715 2.04822 -4.93072 5.44932 -4.10729 -0.296196 0.0706903 0.12531 0 0 0 0 0 0 -0.0198618 -0.077002 -0.118373 14.2885 3.7137 1.88777 -4.95734 5.76698 -3.75487 -0.304197 0.0906282 0.132211 14.113 3.9113 1.97371 -4.8999 5.13862 -4.4575 -0.288145 0.0507227 0.11835 
26.982 1 57 16.1099 3.94378 0.0237718 -0.70237 1.91194 1.0834 -0.0101202 0.280721 0.341648 0 0 0 0 0 0 -0.0302686 -0.0571106 -0.246856 16.2055 4.02941 -1.21183 -0.599528 2.43824 0.381313 -0.00960507 0.289332 0.356753 16.1668 3.64832 0.999781 -0.801923 1.39178 1.78981 -0.0106116 0.272118 0.326462 
26.982 1 214 14.2031 1.84843 4.15706 -3.29348 3.0041 1.65039 -0.859356 -0.0702705 0.0801351 0 0 0 0 0 0 -0.0209082 -0.182914 -0.0884346 14.9456 1.79233 4.68425 -2.57844 2.90056 2.54135 -0.880183 -0.059498 0.0814602 13.6865 1.66304 3.41844 -4.00688 3.11182 0.760335 -0.838498 -0.0810915 0.0787994 
26.982 1 257 15.9135 3.88375 4.07585 1.61362 4.19606 1.71739 0.770773 0.628604 0.00442718 0 0 0 0 0 0 0.00401377 -0.0399529 -0.026661 16.1342 3.70307 4.21145 1.49146 3.92118 2.17812 0.783371 0.656056 -0.000649554 15.8493 3.85669 3.73032 1.74102 4.48108 1.25664 0.758196 0.601149 0.00948466 
26.982 1 218 18.0965 1.97613 4.09414 4.38354 0.380531 -0.363107 0.431753 0.163161 0.208745 0 0 0 0 0 0 -0.0238159 -0.139969 -0.0720642 17.381 1.0445 4.23075 3.65375 -0.866114 0.164398 0.446192 0.175366 0.212166 18.8905 2.6742 3.74985 5.11482 1.64106 -0.888977 0.417312 0.150912 0.205347 
26.982 1 18 18.2721 2.06517 0.0834551 1.35584 0.451546 -2.35482 -0.292765 -0.175812 0.256493 0 0 0 0 0 0 0.0138138 -0.136008 -0.196161 18.5144 1.56387 0.0839519 1.40043 0.0768912 -1.96707 -0.302773 -0.183836 0.274763 18.1067 2.33084 -0.176335 1.31078 0.836071 -2.7403 -0.282763 -0.167785 0.238149 
26.982 1 819 18.092 -0.0776314 18.1476 -1.41912 -6.76609 -5.28925 0.32201 0.115889 0.49432 0 0 0 0 0 0 -0.0896858 -0.254636 0.00430583 18.701 40.0112 17.9247 -0.754289 -7.05881 -5.82152 0.329512 0.121678 0.509522 17.5567 40.8628 18.3491 -2.0855 -6.47032 -4.75145 0.314507 0.110035 0.479096 
26.982 1 2813 12.0708 20.1746 16.3351 -0.68736 -0.879191 1.59929 -0.45597 0.0915869 0.105038 0 0 0 0 0 0 -0.0649446 0.076277 -0.088729 11.9973 20.1809 16.6334 -0.705644 -0.87587 1.93109 -0.459247 0.0852662 0.105561 12.4463 20.1693 15.9859 -0.668751 -0.880414 1.26989 -0.452727 0.0979754 0.104574 
26.982 1 22 22.2802 2.21625 0.0975129 1.37198 -4.24657 0.188942 0.309798 -0.193696 0.642367 0 0 0 0 0 0 -0.0155683 -0.079729 -0.244963 22.9719 2.12688 -0.523753 2.23889 -4.53719 0.109118 0.313156 -0.191892 0.66648 21.5179 2.07048 0.462093 0.508237 -3.94493 0.275479 0.306433 -0.195551 0.618209 
26.982 1 24 20.2967 2.18092 2.08451 -1.77653 1.78684 1.76634 0.00988754 -0.408629 0.528554 0 0 0 0 0 0 -0.0290918 -0.149278 -0.10448 20.0214 1.85315 2.26575 -1.99837 1.65073 2.09646 0.0138212 -0.418371 0.548663 20.5737 2.27496 1.67103 -1.55452 1.93473 1.43986 0.00597591 -0.398924 0.508424 
26.982 1 59 18.0696 4.13681 2.16928 1.11549 0.495707 0.773589 0.108862 -0.2764 0.142994 0 0 0 0 0 0 -0.00467862 -0.0577498 -0.0858969 18.5044 3.97826 1.89613 1.71711 0.607604 1.35626 0.10627 -0.292317 0.151696 17.7134 4.08568 2.20909 0.51684 0.392646 0.193805 0.111458 -0.260447 0.134232 
26.982 1 61 20.1772 4.12845 0.272316 0.507882 -7.11647 3.81654 0.365256 0.27887 -0.254769 0 0 0 0 0 0 0.0417433 0.000816072 -0.25829 20.5811 3.52997 0.016325 1.02108 -7.95453 3.65814 0.37243 0.275297 -0.250982 19.775 4.51712 0.270989 -0.0055856 -6.26941 3.97858 0.358057 0.282493 -0.258624 
26.982 1 63 22.3336 4.33905 2.42302 -6.57261 -4.03531 0.21407 -0.284302 -0.919762 -0.802698 0 0 0 0 0 0 0.0017448 -0.011719 -0.144161 22.2482 4.80493 1.45871 -6.37497 -3.95841 -0.362034 -0.289953 -0.95255 -0.821123 22.3473 3.66485 3.15698 -6.76833 -4.10101 0.794785 -0.278637 -0.886931 -0.784287 
26.982 1 222 22.2292 1.99898 4.30202 -2.60193 -1.41284 -3.39234 0.305127 0.219438 -0.67275 0 0 0 0 0 0 -0.0172493 -0.0575006 -0.0674953 21.7366 1.30146 4.29927 -2.91973 -2.15985 -3.05169 0.297418 0.236446 -0.696397 22.6476 2.46449 4.09672 -2.28239 -0.654404 -3.73052 0.312887 0.202384 -0.649064 
26.982 1 261 20.2576 4.06517 4.22988 -4.537 0.813231 -4.24328 0.030642 0.0294638 -0.358739 0 0 0 0 0 0 -0.0106739 -0.0291691 -0.034372 19.7346 3.80409 4.29485 -5.10367 0.409984 -3.91556 0.0240382 0.0144757 -0.373953 20.7833 4.11689 3.95671 -3.96942 1.22739 -4.56955 0.0372766 0.0444928 -0.343534 
26.982 1 25 24.4397 -0.0130996 0.111167 0.84851 -0.328024 1.70653 -0.0708204 0.250541 -0.0366139 0 0 0 0 0 0 0.0251004 -0.145298 -0.178043 23.9232 0.0985238 0.441275 0.445056 -0.0309455 2.26679 -0.0692734 0.266075 -0.0319086 24.8112 -0.388293 -0.47795 1.25796 -0.61719 1.15287 -0.0723929 0.235007 -0.0413366 
26.982 1 635 34.8777 0.23523 14.1029 -6.9604 0.0322253 0.594147 -0.147325 -0.154678 0.25706 0 0 0 0 0 0 0.101182 -0.267044 -0.046713 34.5754 40.801 14.4475 -7.07113 -0.368363 0.849948 -0.152175 -0.166504 0.278683 34.6542 40.6994 13.6797 -6.84896 0.437722 0.339857 -0.142446 -0.142914 0.235409 
26.982 1 27 26.4551 0.0998687 2.07518 2.6212 -6.68805 -2.45241 -0.0393767 -0.257625 0.0792078 0 0 0 0 0 0 0.0631277 -0.201879 -0.123812 26.6268 -0.148896 1.51642 2.82446 -6.94515 -2.65201 -0.0424653 -0.271292 0.0805088 26.0589 0.0871798 2.3967 2.41985 -6.42115 -2.25204 -0.0362903 -0.243921 0.0779096 
26.982 1 28 24.2954 2.1999 2.06085 -6.99417 1.91111 -0.724505 0.137202 -0.0767826 0.184952 0 0 0 0 0 0 0.034457 -0.079007 -0.136769 23.7929 2.58772 1.91545 -7.41699 2.40364 -0.50138 0.130634 -0.0838659 0.189379 24.6516 1.57826 1.97315 -6.56635 1.43114 -0.944674 0.143812 -0.0697405 0.180541 
26.982 1 65 24.3961 4.23333 0.0803207 -1.99086 2.2195 2.10487 0.0636013 -0.444391 0.169242 0 0 0 0 0 0 0.0268629 0.0209311 -0.270965 24.7505 4.63654 0.278818 -1.87472 3.0674 2.80755 0.0606495 -0.458602 0.165224 23.895 3.61908 -0.372562 -2.10363 1.38047 1.41015 0.0665738 -0.430194 0.173265 
26.982 1 67 26.3665 4.14559 1.95704 0.345842 1.67897 0.342957 0.142794 -0.00168117 0.721293 0 0 0 0 0 0 0.0064766 -0.00973487 -0.170301 27.2217 3.56727 1.78424 0.68515 0.841979 0.658056 0.13209 -0.00202363 0.747236 25.2852 4.51482 1.8978 0.00753637 2.52383 0.0321852 0.153551 -0.00135244 0.695384 
26.982 1 225 24.4824 0.125863 4.13212 0.956735 0.333586 4.44379 -0.122385 0.0522974 0.109697 0 0 0 0 0 0 0.0248967 -0.180299 -0.124241 24.7124 -0.880894 3.86682 1.41323 -0.148901 4.94503 -0.118606 0.0525323 0.094225 24.1039 0.87221 4.18761 0.503462 0.824706 3.94461 -0.126177 0.0520477 0.125209 
26.982 1 226 26.4841 2.04822 4.16375 -2.99992 -2.32398 0.696603 -0.109438 0.176657 -0.218511 0 0 0 0 0 0 0.0372285 -0.0919296 -0.0652625 26.5344 1.58435 4.06647 -2.87135 -2.70763 0.800566 -0.113277 0.17764 -0.224809 26.2087 2.28 4.05136 -3.12679 -1.92824 0.59235 -0.105576 0.175676 -0.212209 
26.982 1 265 24.4295 3.97662 4.23243 -1.21663 -4.57193 2.73804 0.0911171 0.383431 -0.230548 0 0 0 0 0 0 0.0156644 1.0985e-06 -0.0306177 24.4517 3.42136 3.91211 -0.86528 -5.10647 2.92561 0.0963921 0.399119 -0.232326 24.259 4.32357 4.34371 -1.56554 -4.02769 2.55105 0.0858797 0.367753 -0.228758 
26.982 1 30 30.5416 1.97904 0.158088 0.484585 3.87533 6.30065 0.10313 0.137307 -0.167636 0 0 0 0 0 0 -0.0267486 -0.134345 -0.255244 30.2841 1.24444 -0.0383958 0.569675 3.51222 6.81418 0.101941 0.13009 -0.17641 30.4181 2.47602 0.0968289 0.394591 4.24631 5.79189 0.104311 0.144581 -0.158863 
26.982 1 32 28.3554 2.09976 2.08183 3.94837 4.24838 1.41128 0.579969 0.0511224 0.11933 0 0 0 0 0 0 -0.0304899 -0.135269 -0.135946 28.2622 1.77145 2.03441 3.89957 4.3194 1.64903 0.58293 0.0439694 0.120174 28.1431 2.19442 1.89515 3.99356 4.18892 1.17575 0.577024 0.058315 0.118487 
26.982 1 69 28.6295 4.02824 0.0569277 1.28193 2.96103 1.85002 0.0229317 0.250798 0.207203 0 0 0 0 0 0 -0.0691248 -0.00235661 -0.271055 28.5151 4.28037 -0.160438 1.25454 3.22884 1.80897 0.0268114 0.251746 0.21322 28.4376 3.56201 0.0168325 1.30549 2.69667 1.8964 0.0190889 0.249828 0.201207 
26.982 1 71 30.6464 4.05036 2.03024 0.732281 -3.13413 0.747747 -0.251233 0.0804329 0.0567969 0 0 0 0 0 0 -0.0333404 -0.0197378 -0.111788 30.5372 4.15348 1.91966 0.909413 -2.99746 1.01639 -0.255234 0.0831204 0.0663814 30.3744 3.73292 1.91136 0.550271 -3.26583 0.484933 -0.247234 0.077753 0.0472066 
26.982 1 230 30.6196 2.12817 3.93248 -4.13615 3.5971 1.02884 -0.272007 -0.226261 0.226192 0 0 0 0 0 0 -0.0445674 -0.112248 -0.037117 29.9991 1.18742 3.74083 -4.63554 3.25392 1.01114 -0.272188 -0.237206 0.240286 30.8612 2.83358 3.9213 -3.63907 3.94953 1.0533 -0.271858 -0.215263 0.212064 
26.982 1 269 28.5565 4.124 4.10518 -3.1087 -1.97736 -0.572014 -0.0499688 -0.150926 -0.353885 0 0 0 0 0 0 -0.0129388 -0.0239144 -0.0430128 28.469 4.59773 4.48561 -3.19679 -1.32809 0.409602 -0.0524995 -0.153761 -0.365375 28.3406 3.44028 3.5174 -3.0211 -2.61934 -1.55035 -0.0474152 -0.148107 -0.342418 
26.982 1 35 34.668 0.0378025 2.02213 3.87541 -8.13941 -0.621934 0.367148 -0.177229 0.00919335 0 0 0 0 0 0 0.0744909 -0.232626 -0.128131 34.333 0.510213 1.7859 3.82453 -7.66985 -0.726671 0.376344 -0.189961 0.018052 34.4787 -0.701664 2.0305 3.92777 -8.6038 -0.509813 0.357915 -0.164477 0.000299962 
26.982 1 36 32.8244 2.02282 2.24649 4.89364 0.720324 4.5799 -0.496501 0.0227549 -0.691138 0 0 0 0 0 0 0.00536455 -0.128313 -0.139039 32.663 2.06129 2.18052 5.12137 1.14663 5.04159 -0.499399 0.00893724 -0.705819 32.5332 1.74884 2.08566 4.66446 0.302354 4.12644 -0.493626 0.0366357 -0.676508 
26.982 1 73 32.5821 3.94341 0.0854069 2.90629 -4.13535 -4.05363 0.173049 0.381814 0.342942 0 0 0 0 0 0 0.0177644 -0.0262755 -0.288504 31.6248 4.26745 0.320994 2.65726 -3.59679 -3.67739 0.176296 0.399555 0.336636 33.0841 3.4075 -0.407349 3.15051 -4.66808 -4.42353 0.169812 0.364084 0.349272 
26.982 1 75 34.7011 4.29309 1.97289 1.61899 2.0252 1.8975 0.134107 -0.445421 0.252055 0 0 0 0 0 0 0.0664975 -0.0510377 -0.140351 35.4778 3.99584 1.7566 2.22481 1.80915 1.89974 0.135288 -0.46102 0.268744 33.3937 4.37226 1.95982 1.00909 2.24062 1.90188 0.132902 -0.429786 0.235336 
26.982 1 234 34.7672 2.0482 4.11096 0.370259 -2.06358 -1.15407 0.0444446 0.170942 0.0250555 0 0 0 0 0 0 0.0682379 -0.106104 -0.0536339 35.3562 1.51702 4.25196 1.11849 -2.4548 -0.821551 0.0558704 0.165963 0.0294237 33.6489 2.33671 3.76758 -0.380773 -1.66887 -1.48106 0.0329884 0.175954 0.0206266 
26.982 1 273 32.7088 4.12717 3.88416 -0.815441 -6.55181 -2.78028 0.0407359 0.0253942 0.830426 0 0 0 0 0 0 0.0132099 -0.0182348 0.00325259 33.2107 3.54071 3.94369 0.0114862 -6.84743 -2.64798 0.0479054 0.0222878 0.866289 31.7507 4.49719 3.61879 -1.647 -6.25329 -2.90991 0.0335361 0.0285319 0.794489 
26.982 1 4 40.8706 2.07185 2.11037 4.73826 4.97269 0.118745 0.0597116 0.359164 -0.225467 0 0 0 0 0 0 -0.061883 -0.0595087 -0.215754 39.7525 2.37039 1.97723 3.92791 5.14928 0.145746 0.049667 0.357183 -0.246226 41.2359 1.52633 2.01553 5.54892 4.79693 0.0976528 0.0697403 0.361215 -0.204682 
26.982 1 40 36.6741 2.12287 2.07774 -0.595513 1.12228 0.0389525 0.381677 -0.0576499 -0.0726674 0 0 0 0 0 0 0.0882557 -0.143946 -0.162973 37.1002 2.90645 2.26248 -0.160912 1.6471 0.143381 0.393535 -0.0764942 -0.0656296 35.6442 1.09259 1.66663 -1.03254 0.596795 -0.0583254 0.369762 -0.0387429 -0.0797372 
26.982 1 79 38.8633 4.23168 1.93478 1.65086 -0.00184807 -0.915816 0.0557553 -0.609079 0.620997 0 0 0 0 0 0 0.0175571 -0.0412286 -0.253145 38.4871 4.6832 1.83089 1.56084 0.428525 -1.12021 0.0583366 -0.630529 0.641712 38.561 3.56233 1.8094 1.74 -0.428758 -0.705138 0.0531349 -0.587564 0.600291 
26.982 1 961 -0.615589 16.0529 16.2162 -3.54886 2.65341 4.48647 0.414744 0.304618 0.20414 0 0 0 0 0 0 -0.138606 -0.0519078 -0.0920409 40.309 15.7978 16.3124 -3.84324 2.42903 4.70045 0.42777 0.31821 0.214998 40.5515 16.2554 16.0635 -3.25242 2.88077 4.26972 0.401628 0.290973 0.193279 
26.982 1 238 38.8324 2.14875 4.01516 2.11204 -3.81961 -3.86455 -0.164886 -0.0917927 -0.133817 0 0 0 0 0 0 -0.0437456 -0.126826 -0.117737 38.7925 2.5091 3.75355 2.57266 -3.75423 -3.89497 -0.174033 -0.0973755 -0.139772 38.1941 1.54355 4.07337 1.64979 -3.88155 -3.83029 -0.155734 -0.0861392 -0.127854 
26.982 1 277 36.7562 4.30382 4.019 -5.42276 -0.389489 3.00703 0.354316 -0.409687 0.0292187 0 0 0 0 0 0 0.0267548 -0.0540379 -0.0585756 36.4464 3.837 3.93024 -5.59628 -0.519623 3.18655 0.363367 -0.432141 0.0361725 36.4608 4.55146 3.90351 -5.25168 -0.258238 2.83225 0.345267 -0.387156 0.0222183 
26.982 1 631 30.7749 0.0209119 13.9174 -1.34898 -3.71244 -3.77054 -0.143402 0.331649 0.461086 0 0 0 0 0 0 -0.0318653 -0.257004 -0.0752257 31.267 41.4688 13.688 -0.787463 -3.25811 -4.15646 -0.13994 0.345055 0.488248 29.9078 39.6016 14.0687 -1.91168 -4.16471 -3.38212 -0.146845 0.318208 0.433862 
26.982 1 48 3.67005 6.16009 2.21909 0.94865 0.22805 -1.47844 -0.35445 -0.244649 -0.223297 0 0 0 0 0 0 -0.0944746 0.0273871 -0.192474 2.7641 5.80558 1.54382 -0.173354 -0.239175 -1.97181 -0.369685 -0.249675 -0.236726 5.18404 6.33048 2.65821 2.0742 0.701548 -0.982142 -0.339195 -0.239583 -0.209811 
26.982 1 627 26.4308 0.129027 14.196 -0.312918 -1.30824 -0.579326 0.376514 -0.232654 -0.126814 0 0 0 0 0 0 -0.0140593 -0.254875 -0.127613 25.6399 40.732 14.3338 -0.842249 -1.39806 -0.682217 0.384923 -0.232934 -0.134487 27.0023 40.555 13.9811 0.221454 -1.21729 -0.473263 0.368066 -0.232381 -0.119162 
26.982 1 83 1.67306 8.19035 2.09933 -2.38588 -1.07243 -0.711758 -0.213815 -0.0117853 -0.0835512 0 0 0 0 0 0 -0.129274 -0.0425351 -0.217667 1.15581 8.48314 2.0235 -2.8508 -0.621667 -0.876797 -0.218349 -0.0118259 -0.0979977 2.87409 7.7363 1.9407 -1.91638 -1.52087 -0.543507 -0.209235 -0.0117668 -0.069062 
26.982 1 403 1.39102 0.0967949 10.0738 1.0021 -2.06539 1.56501 0.365825 -0.0137871 0.0232393 0 0 0 0 0 0 -0.144353 -0.173284 0.00438111 1.52921 40.8097 9.50791 0.989455 -1.83933 1.12684 0.366754 -0.0119679 0.0281294 1.92907 40.4124 10.5114 1.01378 -2.28838 2.0063 0.364903 -0.015606 0.0183688 
26.982 1 242 1.46674 6.23852 4.17583 -6.81876 -1.73242 2.52936 0.390795 -0.44822 -0.0251133 0 0 0 0 0 0 -0.135315 0.0105475 -0.13531 0.803954 6.59212 4.45526 -7.56372 -1.6428 2.92165 0.397175 -0.463359 -0.0345323 2.81105 5.69921 3.69294 -6.0709 -1.81703 2.1442 0.384428 -0.433093 -0.0156995 
26.982 1 285 3.68012 8.06935 4.29438 -1.78312 -0.0703155 4.15461 0.0341306 0.191985 -0.565927 0 0 0 0 0 0 -0.0337969 0.00204744 -0.0729237 2.42956 8.35786 3.74313 -2.92524 0.401139 3.90303 0.0390824 0.193325 -0.58048 5.53887 7.61942 4.63961 -0.636349 -0.54017 4.40919 0.0292124 0.190632 -0.551417 
26.982 1 46 5.7039 6.27678 0.0460177 0.846682 2.92944 0.0901581 0.353534 -1.01657 0.338397 0 0 0 0 0 0 -0.0203908 0.0336664 -0.271522 5.54932 5.86776 0.921104 0.446275 2.70701 0.800149 0.354772 -1.04812 0.333981 6.3857 6.50313 -1.08724 1.24653 3.16005 -0.613307 0.352265 -0.984972 0.3429 
26.982 1 52 7.74947 6.12542 2.00653 -6.77987 -0.404129 -1.45115 0.141372 0.0593634 0.350358 0 0 0 0 0 0 0.0446174 0.028881 -0.169998 7.97292 6.01334 3.01023 -6.9723 -0.857189 -0.729647 0.154814 0.0587822 0.353334 7.97466 6.05507 0.768201 -6.59152 0.0580972 -2.1696 0.127832 0.0600145 0.347439 
26.982 1 87 5.79367 8.1588 2.02046 0.869742 -3.68955 -1.28943 -0.134296 -0.0123499 0.646616 0 0 0 0 0 0 -0.016991 -0.0024894 -0.172324 5.58586 8.18171 2.39965 0.547371 -3.85563 -0.672511 -0.132804 -0.0136774 0.667032 6.53092 7.974 1.40597 1.19423 -3.5209 -1.90392 -0.135812 -0.0109913 0.626246 
26.982 1 603 1.48809 0.163771 14.0747 -1.95961 -0.629382 -3.42788 0.609358 -0.581494 0.120597 0 0 0 0 0 0 -0.0814518 -0.190652 -0.0519626 1.73377 40.6277 13.8005 -2.14377 -0.670683 -3.72611 0.641535 -0.594411 0.109081 1.91527 40.7305 14.2747 -1.77689 -0.581012 -3.1208 0.577135 -0.568575 0.132123 
26.982 1 246 5.65862 6.13721 3.99466 0.223929 5.20492 5.62623 0.458503 0.0800894 0.541259 0 0 0 0 0 0 0.00644276 0.01016 -0.03545 6.301 5.63611 3.04792 0.585637 4.9282 5.03698 0.467001 0.0882666 0.555856 5.54456 6.45411 4.73232 -0.137805 5.48867 6.21523 0.449981 0.0719422 0.526688 
26.982 1 289 7.81898 8.08812 4.2133 -4.62258 1.74465 -0.754009 -0.163529 0.0635902 -0.593359 0 0 0 0 0 0 0.00509492 -0.000404088 -0.0553927 8.56049 7.37102 4.09113 -4.37791 1.12955 -0.57097 -0.160988 0.0676152 -0.609531 7.52701 8.6455 4.12736 -4.87023 2.36366 -0.936408 -0.166122 0.0595803 -0.577169 
26.982 1 92 7.63598 10.1833 2.02679 -5.55432 -0.354397 -3.18605 0.815987 -0.0983706 0.386475 0 0 0 0 0 0 0.00628286 -0.0330168 -0.140689 7.66119 9.81441 1.50583 -5.83905 -0.122315 -3.49652 0.82999 -0.101138 0.402331 8.06093 10.4164 2.31478 -5.27218 -0.585732 -2.87093 0.801914 -0.0955947 0.370653 
26.982 1 286 5.71199 10.0617 4.09233 -3.27047 -1.19036 1.5559 0.162166 0.131012 0.153987 0 0 0 0 0 0 -0.00813969 0.011086 -0.0280187 5.85149 9.82129 4.31384 -3.21851 -1.0791 2.23696 0.16476 0.14456 0.175502 6.10491 10.165 3.66576 -3.31759 -1.30353 0.877632 0.159562 0.117455 0.132442 
26.982 1 1021 20.1953 0.132751 20.2156 2.33136 0.0950139 -1.94193 0.00724881 -0.487677 -0.00332983 0 0 0 0 0 0 -0.00960077 -0.238267 0.0174568 20.6034 40.7555 19.7881 2.67549 0.343506 -2.48186 -0.0030509 -0.493548 0.00364725 19.7879 40.5404 20.644 1.98871 -0.149842 -1.40017 0.0175734 -0.48187 -0.0103429 
26.982 1 56 11.9951 6.06585 2.00478 -0.104247 -3.78223 0.748802 -0.142784 0.0255946 0.150354 0 0 0 0 0 0 -0.0470998 0.0232243 -0.166747 12.2054 6.28467 2.43286 0.146679 -3.52176 1.65917 -0.145325 0.0250642 0.159139 12.0883 5.66618 1.3401 -0.353006 -4.03437 -0.158435 -0.140213 0.0261306 0.141582 
26.982 1 91 9.85536 8.14255 1.89128 5.86383 -3.86195 -0.0953183 0.0819429 -0.469402 0.584901 0 0 0 0 0 0 -0.00147968 -0.0539901 -0.195286 10.3695 8.77027 2.04506 6.11942 -3.64208 0.111422 0.0901432 -0.484066 0.600983 9.71703 7.35884 1.50521 5.60545 -4.07355 -0.297818 0.0736698 -0.454699 0.568888 
26.982 1 250 9.84556 6.16798 4.10074 -5.55157 -6.69249 -0.0646063 -0.135628 -0.378215 -0.430559 0 0 0 0 0 0 0.00226676 -0.0185308 -0.0576501 10.2093 6.24073 5.62647 -5.53851 -6.80895 1.45162 -0.13248 -0.403682 -0.446683 9.85512 5.91573 2.36388 -5.56887 -6.56433 -1.58112 -0.138846 -0.352719 -0.414366 
26.982 1 293 11.863 8.18163 4.06452 -4.44309 -3.49755 2.33317 0.270366 -0.381952 -0.237167 0 0 0 0 0 0 -0.00774436 -0.0131387 -0.0464283 11.7189 7.11182 5.23005 -4.97117 -4.42622 3.91269 0.272103 -0.389147 -0.25084 12.3097 9.0942 2.69057 -3.91461 -2.56302 0.757723 0.268596 -0.374695 -0.223425 
26.982 1 54 13.966 5.93321 -0.0116732 -6.43815 2.57927 4.13187 0.471086 0.43569 0.213753 0 0 0 0 0 0 -0.0452622 0.0301379 -0.272034 13.5785 6.44989 -0.567099 -6.96741 3.12534 3.75798 0.477268 0.458288 0.228344 14.5802 5.2351 0.283109 -5.90478 2.03914 4.50846 0.464993 0.413063 0.199091 
26.982 1 60 16.0122 6.06367 2.19356 4.66032 -2.13619 -1.78713 0.123032 -0.0244248 -0.0394693 0 0 0 0 0 0 -0.0156534 -0.00228407 -0.0920481 16.6405 6.69173 0.994546 5.13601 -1.47047 -2.37268 0.116659 -0.0220244 -0.034103 15.5351 5.2516 3.15916 4.18765 -2.79554 -1.20032 0.129481 -0.0267985 -0.0448897 
26.982 1 95 14.0112 8.05387 1.99821 -3.55122 1.5905 1.98468 -0.0903603 0.121765 0.0205462 0 0 0 0 0 0 -0.0455236 -0.00405339 -0.130319 14.4703 8.26859 0.525581 -3.32806 1.78637 1.51926 -0.0969113 0.123366 0.0269363 13.7792 7.68162 3.23973 -3.77109 1.4001 2.45532 -0.0837486 0.120177 0.0141842 
26.982 1 97 16.203 8.03314 0.222062 -0.994849 0.788821 0.593084 -0.500358 -0.175519 -0.416978 0 0 0 0 0 0 -0.0325596 -0.00179004 -0.278425 15.8397 8.8718 0.918609 -1.30837 1.42504 1.09996 -0.521444 -0.176765 -0.425427 16.7161 7.03434 -0.73224 -0.678957 0.156153 0.0920948 -0.47916 -0.174313 -0.408572 
26.982 1 254 13.9136 6.09892 4.04418 -1.67456 -3.56859 0.392402 0.345898 -0.0684892 0.0168006 0 0 0 0 0 0 -0.00778569 0.00531776 -0.0263805 13.7584 5.84151 4.46485 -2.00987 -3.71583 1.55441 0.347421 -0.0618552 0.00960874 14.2986 6.17703 3.4128 -1.33473 -3.41126 -0.771457 0.3444 -0.0750912 0.0239963 
26.982 1 297 16.1292 8.38646 4.13714 0.529649 -0.874047 -3.71158 -0.100657 -0.679689 -0.0737754 0 0 0 0 0 0 -0.0154121 -0.0262459 -0.00785319 16.431 8.21112 3.04571 0.770106 -0.788424 -4.41108 -0.112013 -0.706904 -0.0723659 15.9793 8.40369 5.02232 0.292911 -0.954852 -3.01078 -0.0892158 -0.652417 -0.075174 
26.982 1 58 18.1487 6.08387 0.203601 -5.33646 1.63242 -0.275182 -0.141307 -0.267889 0.108553 0 0 0 0 0 0 0.012722 -0.00784307 -0.275792 16.8876 7.05527 0.478509 -6.45352 2.89678 -0.0927672 -0.152632 -0.278825 0.110973 19.4848 4.92989 -0.33 -4.21882 0.375632 -0.453391 -0.129949 -0.256907 0.106064 
26.982 1 2639 38.7582 20.2676 14.1414 -2.39622 2.85645 -3.23401 0.312089 -0.00744581 0.121019 0 0 0 0 0 0 0.0336441 0.0693546 -0.147257 38.663 21.531 13.6977 -2.51789 3.76646 -3.74003 0.324535 -0.0135039 0.115635 38.1803 19.0044 14.5082 -2.27093 1.94827 -2.72569 0.299575 -0.00136185 0.126486 
26.982 1 64 20.2387 6.28769 2.23698 -1.24663 -4.38442 2.8184 0.053425 -0.857042 0.01978 0 0 0 0 0 0 0.0384694 -0.030205 -0.123707 19.6953 6.4861 1.38822 -1.44264 -4.23346 2.84328 0.0515052 -0.892155 0.0164415 20.785 5.90136 2.85599 -1.04897 -4.53052 2.79818 0.0553538 -0.821832 0.0230896 
26.982 1 99 18.2253 8.09633 2.21548 -3.6484 -5.88619 0.602956 -0.147686 0.189521 -0.0698701 0 0 0 0 0 0 0.0068586 0.00371065 -0.0961784 17.7875 8.94318 0.886585 -4.32647 -5.3473 -0.110661 -0.159551 0.195461 -0.0766277 18.7386 7.08857 3.3139 -2.9684 -6.42396 1.31918 -0.135735 0.183619 -0.0631269 
26.982 1 103 22.4017 8.14786 2.06165 -2.43969 -1.11809 -0.341805 -0.328922 0.206906 0.0816759 0 0 0 0 0 0 0.00828662 0.0150784 -0.184121 21.3666 8.52852 2.87937 -2.8162 -0.626879 0.285284 -0.330493 0.222253 0.0764865 23.3638 7.60362 1.01524 -2.06367 -1.60769 -0.963848 -0.327413 0.19157 0.0868997 
26.982 1 258 18.1373 6.146 4.20421 -3.91538 8.34288 -1.67491 -0.0361541 -0.0860811 -0.269252 0 0 0 0 0 0 -0.00991944 -0.012099 -0.0115499 18.1747 6.40677 4.30827 -4.19946 9.21062 -1.10525 -0.0509823 -0.0995511 -0.271144 18.1786 5.69979 3.89395 -3.62807 7.4817 -2.24199 -0.0212688 -0.0725296 -0.267398 
26.982 1 262 22.3905 6.23279 4.20933 -0.984748 -5.07346 -2.71215 -0.455432 -0.258584 0.452061 0 0 0 0 0 0 0.00194312 -0.0163879 -0.0199798 21.0932 6.69614 4.05992 -1.48331 -4.54037 -2.65916 -0.457381 -0.279413 0.463674 23.6145 5.58276 4.1529 -0.485724 -5.59965 -2.76247 -0.45349 -0.237687 0.440419 
26.982 1 301 20.2759 8.13538 4.15471 -0.632815 7.54279 0.71941 -0.205144 0.258144 0.0816508 0 0 0 0 0 0 0.00380659 -0.0071429 -0.0203833 19.5614 7.53839 4.30026 -0.974104 7.52424 1.22155 -0.211128 0.251621 0.0809657 20.9911 8.57014 3.80498 -0.291386 7.56342 0.220785 -0.199144 0.264727 0.0822915 