ITEM: TIMESTEP
7250
ITEM: NUMBER OF ATOMS
4000
ITEM: BOX BOUNDS pp pp pp
-1.5477 42.0477
0.418668 40.0813
0.407018 40.093
ITEM: ATOMS mass type id x y z vx vy vz fx fy fz xrad yrad zrad vxrad vyrad vzrad fxrad fyrad fzrad xub yub zub vxub vyub vzub fxub fyub fzub xlb ylb zlb vxlb vylb vzlb fxlb fylb fzlb 
26.982 1 43 0.46535 4.45612 2.31491 2.45063 -1.3725 -1.92174 0.46453 -0.296043 0.112053 0 0 0 0 0 0 -0.0683551 -0.0223651 -0.186789 -6.63468 -0.495899 4.43755 0.880374 -2.27307 -0.6221 0.470895 -0.316947 0.124753 10.2567 8.66702 -0.635772 4.03068 -0.463177 -3.2105 0.458109 -0.275111 0.0994265 
26.982 1 202 0.672006 2.40973 4.3977 4.12492 -4.71507 0.749231 -0.285604 0.240347 -0.0781072 0 0 0 0 0 0 -0.0395213 -0.103177 -0.117926 1.3912 -1.42322 5.92117 4.04934 -6.11882 1.5448 -0.291718 0.23769 -0.0830816 2.64049 5.40126 2.18444 4.21069 -3.30207 -0.0253992 -0.279545 0.243031 -0.0731034 
26.982 1 201 -1.57767 0.634493 4.43157 -2.90634 -0.690144 -1.1526 0.258546 -0.538475 -0.0622067 0 0 0 0 0 0 -0.0781065 -0.123078 -0.205976 43.0609 45.0542 7.70612 -2.59452 -0.334447 0.776176 0.265193 -0.550075 -0.0635578 38.0573 36.5457 0.45242 -3.21668 -1.03486 -3.05605 0.251862 -0.526911 -0.0608641 
26.982 1 241 -1.33721 4.40206 4.51641 1.78687 4.87942 0.38554 -0.334459 -0.0225501 -0.271084 0 0 0 0 0 0 -0.107032 -0.0537629 -0.114416 -4.05942 5.2592 2.82783 1.13513 5.78455 -0.728557 -0.33567 -0.0207711 -0.280196 4.33245 2.80413 5.52507 2.44009 3.988 1.51623 -0.333267 -0.0243018 -0.261993 
26.982 1 4 -1.52798 2.37299 2.23499 -0.724086 0.182141 2.48202 -0.126544 0.241259 0.110022 0 0 0 0 0 0 -0.152993 -0.0884563 -0.164624 34.3613 1.91415 3.89387 -1.88845 -0.459954 3.17227 -0.125619 0.251162 0.117055 46.8508 1.98119 -0.217846 0.441737 0.840704 1.81378 -0.12752 0.231358 0.103037 
26.982 1 2 0.606981 2.29359 0.301322 1.82474 -0.215767 0.876735 -0.0264152 0.446212 0.164099 0 0 0 0 0 0 -0.0395419 -0.103415 -0.184384 2.11803 6.98459 9.81547 1.83676 1.12491 2.87722 -0.0337971 0.465499 0.172119 1.75883 -3.22986 -10.1627 1.81759 -1.53678 -1.12138 -0.0190807 0.426942 0.156099 
26.982 1 45 2.67333 4.45819 0.472524 3.70017 3.23653 0.224743 0.264158 -0.0186478 -0.025879 0 0 0 0 0 0 0.013703 -0.00778082 -0.264742 2.81267 3.71383 41.6163 3.91089 2.80751 0.219794 0.269044 -0.0255667 -0.0233263 4.92113 4.48269 39.7188 3.49738 3.68326 0.244466 0.259238 -0.0117134 -0.0284106 
26.982 1 8 2.86023 2.46945 2.34163 6.19451 -0.508859 -0.178338 0.104165 0.380619 0.191627 0 0 0 0 0 0 0.0256806 -0.158746 -0.188729 -0.903319 7.32887 2.12473 5.81213 0.881575 -0.444096 0.113402 0.37924 0.197024 9.00973 -3.2268 1.745 6.58387 -1.88396 0.103681 0.0949178 0.381979 0.186258 
26.982 1 245 2.71146 4.45401 4.30282 -1.52408 1.45425 -3.82995 0.222763 0.0720384 -0.0456772 0 0 0 0 0 0 0.00240975 -0.0330294 -0.0646806 2.39142 4.25168 4.30707 -1.61945 1.73155 -3.65471 0.227017 0.0575803 -0.0485662 5.42394 3.93759 3.58268 -1.41724 1.19304 -3.99064 0.218484 0.08651 -0.042723 
26.982 1 205 2.75691 0.544154 4.22082 0.40422 -4.26905 -0.342892 0.306554 -0.809051 0.102627 0 0 0 0 0 0 -0.00210133 -0.20061 -0.182779 0.735495 39.0973 3.52123 -0.135361 -4.6195 -0.369741 0.313819 -0.829589 0.112536 7.14548 42.353 4.20294 0.947704 -3.9035 -0.296792 0.299292 -0.788581 0.0927763 
26.982 1 47 5.0362 4.50733 2.56932 -2.30483 -5.73096 -0.653178 -0.222122 -0.493677 -0.663715 0 0 0 0 0 0 -0.0114248 -0.0499226 -0.189786 2.55036 7.0222 2.19436 -2.64932 -4.85979 -0.359812 -0.226302 -0.519042 -0.6903 9.57553 1.29814 2.13231 -1.95865 -6.57797 -0.93082 -0.217919 -0.468327 -0.637131 
26.982 1 206 5.02381 2.56744 4.51117 -2.87683 0.549287 0.578913 -0.0337594 -0.580551 -0.226339 0 0 0 0 0 0 -0.0126077 -0.100855 -0.103835 7.93164 0.873781 9.78212 -2.43573 -0.23663 1.55905 -0.0327285 -0.601984 -0.239871 4.16983 3.43633 -1.44373 -3.31682 1.34997 -0.374143 -0.0347362 -0.559144 -0.212759 
26.982 1 12 7.22141 2.26112 2.51367 -0.818987 3.40177 -3.0028 -0.333936 0.667605 0.0808977 0 0 0 0 0 0 -0.073389 -0.0862009 -0.147955 7.42957 2.28475 1.1824 -0.507077 3.80848 -3.55178 -0.34395 0.689338 0.0710486 8.74138 1.40902 3.04149 -1.13478 3.01622 -2.43449 -0.323872 0.64586 0.0907376 
26.982 1 9 7.1864 0.380996 0.58406 -1.84278 3.31185 -2.95719 0.164815 -0.0569251 -0.770022 0 0 0 0 0 0 -0.0687058 -0.150825 -0.171741 3.79114 9.33874 1.81243 -3.00728 5.33109 -3.10646 0.170879 -0.0496649 -0.791111 12.3256 -9.49232 -1.5245 -0.678574 1.30773 -2.78388 0.158772 -0.0642409 -0.748965 
26.982 1 249 7.1926 4.40866 4.45494 0.197555 1.60151 -0.930591 -0.0191981 -0.0386919 -0.00326808 0 0 0 0 0 0 -0.00794404 -0.0164446 -0.0586734 9.41035 -2.75867 5.85467 0.0599822 0.778632 -0.442395 -0.0215977 -0.0464772 -0.0159285 6.69814 10.8723 2.33319 0.332048 2.44582 -1.39802 -0.0167307 -0.0308788 0.00946539 
26.982 1 209 7.01057 0.222348 4.44336 2.70853 2.03667 4.10699 0.145317 0.340185 -0.026199 0 0 0 0 0 0 -0.0337006 -0.159666 -0.15782 9.79534 -2.07041 1.88309 3.11146 2.00408 3.58362 0.134835 0.369156 -0.0306437 5.9602 1.57424 6.27163 2.29928 2.0878 4.64365 0.155828 0.311177 -0.0217305 
26.982 1 49 7.21684 4.57768 0.42706 1.28882 1.33145 0.454874 0.118699 -0.636161 0.371473 0 0 0 0 0 0 -0.0358892 -0.00273449 -0.262242 10.991 -1.07637 -3.58127 1.98782 0.160203 -0.717008 0.118827 -0.658134 0.391365 5.16766 9.50594 3.55234 0.584038 2.51702 1.64977 0.118634 -0.614227 0.351566 
26.982 1 51 9.45053 4.27318 2.71302 -3.55036 -0.685854 1.73859 -0.407449 0.429108 -0.514943 0 0 0 0 0 0 -0.00932775 0.0146913 -0.138933 3.11449 4.55909 -2.73569 -5.12259 -0.0624413 0.38737 -0.415675 0.438975 -0.536274 17.2197 3.2871 7.35514 -1.98178 -1.28309 3.11154 -0.399203 0.419281 -0.49359 
26.982 1 210 9.30397 2.23826 4.54684 -2.69593 -1.89467 2.15957 -0.0282112 0.202477 0.00218938 0 0 0 0 0 0 0.0298676 -0.096899 -0.0632681 7.25809 3.07527 7.17497 -3.49725 -2.62502 2.03403 -0.0312134 0.200595 -0.0135094 12.7847 0.559908 1.16786 -1.89888 -1.14539 2.29375 -0.0252197 0.204373 0.0178991 
26.982 1 11 9.2669 0.421526 2.48638 -0.562012 2.33561 0.530961 0.301929 -0.236993 -0.0865932 0 0 0 0 0 0 0.062197 -0.228609 -0.113982 6.94353 41.7932 -6.22358 -0.860319 3.42574 -1.76269 0.310498 -0.232415 -0.0967032 13.0455 39.4097 10.3963 -0.264927 1.26401 2.83573 0.293325 -0.24161 -0.0764781 
26.982 1 16 11.4696 2.4756 2.41646 1.75418 -1.96482 1.11519 0.367531 0.0994878 0.28631 0 0 0 0 0 0 0.0227685 -0.143186 -0.110155 12.5939 3.89323 -2.88785 1.55751 -1.15196 -0.4773 0.375202 0.104845 0.279736 11.5346 0.238432 6.89251 1.95724 -2.7542 2.71519 0.359863 0.0941732 0.292876 
26.982 1 253 11.4422 4.55646 4.62329 -0.428026 -2.49317 3.11754 0.204553 -0.57594 -0.382515 0 0 0 0 0 0 0.00461483 -0.0373678 -0.0464937 11.4707 2.76733 15.346 -0.765771 -3.42199 4.99138 0.208765 -0.598575 -0.402785 12.5978 5.66219 -6.82982 -0.0863923 -1.53306 1.26412 0.200313 -0.553271 -0.362239 
26.982 1 10 9.29492 2.59978 0.487931 6.15696 -0.445731 -3.15125 0.119294 -0.274286 -0.00643668 0 0 0 0 0 0 0.00177974 -0.0751363 -0.247155 12.3316 1.13752 -3.48674 6.64103 -0.303681 -4.23377 0.117471 -0.291902 -0.012392 7.71013 3.23857 3.57644 5.67208 -0.57069 -2.04577 0.121092 -0.256697 -0.000501827 
26.982 1 53 11.4373 4.49682 0.470428 -5.01565 -0.608564 1.27989 0.573734 -0.242072 0.023772 0 0 0 0 0 0 -0.0117504 0.0270937 -0.269472 11.3696 8.44358 -6.40234 -5.64087 0.378396 -0.0626904 0.572791 -0.256475 0.0149909 12.6931 -0.187642 6.45375 -4.38609 -1.57916 2.64219 0.574704 -0.227644 0.0325391 
26.982 1 55 13.7271 4.45798 2.39542 -2.78412 3.58899 -0.190576 -0.326449 -0.259405 -0.126458 0 0 0 0 0 0 0.0272942 -0.0228633 -0.153982 14.4862 3.66771 4.06347 -2.76488 4.02092 -0.033807 -0.343735 -0.269134 -0.131332 13.8688 4.55298 -0.0724378 -2.80008 3.18209 -0.323353 -0.309133 -0.249608 -0.12162 
26.982 1 214 13.6384 2.51959 4.6151 1.01877 -2.76889 -3.96985 -0.0668612 -0.733676 -1.05349 0 0 0 0 0 0 -0.0219798 -0.110229 -0.0788818 18.3796 1.98557 10.2722 1.84036 -2.84824 -3.6035 -0.0717646 -0.750538 -1.07779 9.7929 2.24268 -1.79143 0.203028 -2.664 -4.3236 -0.0619715 -0.716802 -1.02925 
26.982 1 20 15.7473 2.34544 2.38866 0.967769 0.519747 -6.6004 0.229757 -0.102068 -0.181481 0 0 0 0 0 0 0.064929 -0.108777 -0.201278 18.7646 -4.65486 6.17195 1.78769 -0.72494 -6.47253 0.218786 -0.0959544 -0.177922 13.3154 8.57447 -2.21399 0.145929 1.7902 -6.70999 0.24073 -0.108138 -0.18511 
26.982 1 15 13.7246 0.479257 2.25702 0.731046 0.0615841 2.61873 -0.00877706 -0.377557 0.282155 0 0 0 0 0 0 -0.0091349 -0.230393 -0.119208 12.5068 35.9798 4.28402 0.239119 -0.129074 3.83445 -0.00764815 -0.393951 0.300384 15.8169 45.3251 -0.586829 1.22387 0.267694 1.41908 -0.00985767 -0.361184 0.263925 
26.982 1 14 13.703 2.48336 0.463104 -3.14252 1.4667 -2.10699 -0.222519 -0.104458 0.0172559 0 0 0 0 0 0 0.0457345 -0.0899237 -0.24541 12.0857 5.60703 33.9011 -3.38675 2.82254 -3.35456 -0.236393 -0.11954 0.0136993 16.2221 -1.47078 47.4114 -2.89259 0.128208 -0.841246 -0.208583 -0.0893564 0.0207822 
26.982 1 257 15.8379 4.4185 4.08313 0.847873 2.48385 -0.336276 0.237693 0.11427 0.550149 0 0 0 0 0 0 0.0234268 -0.0242188 -0.0735038 17.8415 -1.99811 6.65542 1.69184 1.09802 -0.193426 0.242069 0.110293 0.570318 14.4376 10.1161 0.766407 0.00352655 3.89121 -0.465106 0.233303 0.11833 0.52995 
26.982 1 218 17.9023 2.54358 4.09054 7.81746 4.0405 1.22803 0.459393 -0.379114 0.450676 0 0 0 0 0 0 0.0233138 -0.11345 -0.113727 14.7302 -1.83717 4.81581 7.33156 4.19891 1.03859 0.470754 -0.392693 0.4825 21.358 6.14959 2.63132 8.29837 3.91013 1.4331 0.448027 -0.365549 0.418847 
26.982 1 59 18.2458 4.39711 2.04843 2.11561 -3.23757 1.28074 -0.655626 0.331621 0.661634 0 0 0 0 0 0 0.00192676 -0.0373638 -0.254645 23.1092 1.33087 4.38745 2.9124 -3.92919 1.6602 -0.657211 0.336036 0.684345 13.671 6.76964 -1.09347 1.3135 -2.52352 0.924494 -0.654072 0.327241 0.638898 
26.982 1 217 15.8273 0.391542 4.398 -1.78916 -0.504645 -2.52222 -0.391468 0.109055 0.0440237 0 0 0 0 0 0 0.0101751 -0.165545 -0.170307 20.9545 35.1823 8.11393 -0.933345 -1.04975 -1.63688 -0.4016 0.117207 0.0409887 11.2702 45.9702 -0.0452901 -2.64797 0.0619923 -3.39189 -0.381313 0.100878 0.0470309 
26.982 1 21 20.206 0.365724 0.543939 -5.86702 0.0712713 1.46566 0.306199 -0.123019 -0.326798 0 0 0 0 0 0 0.00360293 -0.1 -0.138721 24.1085 -10.7742 2.99471 -5.28629 -1.97797 1.98609 0.312648 -0.115079 -0.346545 16.298 10.5884 -2.79893 -6.44727 2.13083 0.966633 0.299716 -0.13102 -0.307121 
26.982 1 221 20.2757 0.234731 4.15975 -3.85772 1.10079 -2.50222 -0.408039 0.863791 0.573994 0 0 0 0 0 0 0.0150101 -0.155908 -0.176267 18.145 39.0528 -0.0677625 -4.68196 0.307932 -2.90123 -0.418578 0.892513 0.607743 22.402 41.8072 7.66604 -3.03627 1.91245 -2.08825 -0.397524 0.835049 0.540217 
26.982 1 261 20.2921 4.20353 4.34162 1.0149 3.67765 6.21831 -0.349049 0.147182 -0.0705264 0 0 0 0 0 0 -0.00685691 -0.0310839 -0.08917 18.0635 3.38879 7.8693 0.922306 3.88936 7.14326 -0.361399 0.150715 -0.070323 22.5064 4.32159 0.0852553 1.09992 3.48707 5.31206 -0.336717 0.143696 -0.0707635 
26.982 1 24 20.2859 2.44014 2.20669 1.24074 -5.61094 -1.66411 0.173208 -0.0250708 0.696846 0 0 0 0 0 0 0.0119962 -0.0899129 -0.201242 18.2563 1.19761 5.3604 0.781363 -5.40355 -0.535834 0.179901 -0.0291925 0.724173 22.2958 2.90876 -1.75911 1.69468 -5.79501 -2.77908 0.166495 -0.0209966 0.66948 
26.982 1 63 22.494 4.30596 2.38341 3.70329 -3.71867 1.52293 -0.00576009 0.312612 -0.427736 0 0 0 0 0 0 0.00890846 -0.0323578 -0.260948 25.8733 6.86533 1.70535 4.71035 -2.66941 1.79938 -0.000460079 0.326379 -0.448037 18.8173 1.05874 2.26979 2.69303 -4.74947 1.26845 -0.0110764 0.298826 -0.407456 
26.982 1 222 22.4731 2.47057 4.28498 2.44227 1.77597 -0.7976 -0.0238141 -0.280944 0.221434 0 0 0 0 0 0 0.0318301 -0.146079 -0.123505 20.9752 2.23425 5.82364 2.45793 2.52688 -0.0988478 -0.0296046 -0.290221 0.227874 23.6724 1.92654 2.02818 2.42233 1.04841 -1.47913 -0.0180024 -0.271681 0.214966 
26.982 1 28 24.7644 2.39553 2.43845 0.376296 -3.75123 -0.562494 -0.220772 0.190925 -0.341904 0 0 0 0 0 0 -0.0404302 -0.129988 -0.207668 25.0535 6.02477 5.70217 1.01525 -3.58058 0.988303 -0.22061 0.211404 -0.356575 23.9183 -2.01348 -1.64858 -0.256206 -3.90305 -2.10279 -0.22086 0.170427 -0.327278 
26.982 1 265 24.6884 4.48438 4.23185 -3.21528 1.46757 1.72474 0.0233629 -0.175721 0.367682 0 0 0 0 0 0 -0.00244393 -0.0536217 -0.0836714 27.0969 -4.18144 4.64615 -2.71893 -0.617661 2.23304 0.0303571 -0.186372 0.376924 21.7055 12.4335 3.08014 -3.70908 3.55835 1.22644 0.0164215 -0.165109 0.358485 
26.982 1 67 26.9479 4.29321 2.33491 -0.135067 -7.28816 1.39348 -0.227581 0.406235 0.222026 0 0 0 0 0 0 -0.0199109 -0.0538742 -0.208924 28.5341 -0.210771 4.62003 -0.404914 -8.23474 2.31695 -0.23439 0.434311 0.236032 24.5092 8.06725 -0.749558 0.145682 -6.33175 0.48443 -0.220692 0.378148 0.208008 
26.982 1 226 27.0759 2.31768 4.54444 -0.234441 -3.24517 7.38701 -0.696109 0.269084 -0.37938 0 0 0 0 0 0 -0.0466124 -0.0834083 -0.0945803 26.7044 1.67426 6.30532 -0.382198 -4.45406 8.90471 -0.700655 0.290187 -0.390729 26.6098 2.19894 2.03764 -0.0737884 -2.00658 5.87511 -0.691493 0.24798 -0.368062 
26.982 1 269 29.0522 4.46574 4.39188 -3.72229 -0.505419 -0.98772 -0.175483 -0.395101 0.00164819 0 0 0 0 0 0 0.00574517 -0.0393433 -0.0688933 26.8627 10.0945 11.3564 -3.97397 0.252455 0.753577 -0.175411 -0.406105 -0.00735533 30.1016 -1.88331 -3.27933 -3.4571 -1.24519 -2.7104 -0.175552 -0.384122 0.0106423 
26.982 1 27 26.7917 0.472068 2.45986 -0.603424 -2.28763 2.75962 0.136546 -0.0611795 -0.204813 0 0 0 0 0 0 -0.0765869 -0.181695 -0.138194 28.2921 4.11941 -0.951078 -0.0875437 -0.759862 3.25038 0.132814 -0.0541838 -0.195551 24.4404 -4.08182 5.04041 -1.11274 -3.79617 2.2767 0.140339 -0.0681943 -0.214104 
26.982 1 29 28.9341 0.385986 0.384916 0.545554 -0.777897 -3.08525 0.0929097 0.376825 -0.0431993 0 0 0 0 0 0 0.0318361 -0.0900864 -0.136955 27.3605 -7.1822 43.8896 0.284589 -2.62718 -2.01513 0.101331 0.386597 -0.0290593 29.3194 7.03033 37.2649 0.806158 1.08738 -4.14402 0.084461 0.367074 -0.0573233 
26.982 1 32 28.9266 2.39547 2.4408 -0.699958 -0.406718 3.59931 0.415212 -0.165869 -0.237128 0 0 0 0 0 0 0.0374933 -0.0792842 -0.204225 23.976 3.96708 5.91909 -2.13844 0.159847 5.21531 0.423428 -0.156509 -0.244389 32.7117 0.0441541 -1.83774 0.747224 -0.947107 1.99961 0.406999 -0.175268 -0.229914 
26.982 1 71 31.2229 4.19531 2.29496 0.587901 2.13052 -1.61935 -0.147594 0.40172 0.316615 0 0 0 0 0 0 -0.0175079 -0.0592895 -0.208773 31.132 5.42489 1.25439 0.378046 3.28524 -1.77367 -0.146474 0.418009 0.331283 29.8274 2.22856 2.57145 0.796617 0.987574 -1.43985 -0.148777 0.385412 0.301946 
26.982 1 230 31.0134 2.39784 4.38817 4.82963 -3.94005 -2.45046 0.300326 0.249422 0.0284796 0 0 0 0 0 0 0.043329 -0.130257 -0.117844 25.1266 -1.93427 5.45217 3.69798 -5.4447 -2.44497 0.303085 0.257251 0.032295 35.4282 5.95196 2.64392 5.96379 -2.40851 -2.43586 0.29753 0.241536 0.0246666 
26.982 1 273 33.3072 4.47744 4.3164 0.205334 2.65205 3.56931 -0.0463515 -0.782399 0.694202 0 0 0 0 0 0 -0.00930928 -0.0589773 -0.0549521 38.5801 6.69245 3.5337 1.19408 4.34609 4.12478 -0.0503742 -0.79928 0.701676 26.2335 1.51654 4.39468 -0.793543 0.97322 3.02909 -0.0423534 -0.765552 0.68675 
26.982 1 229 29.0186 0.343083 4.42352 0.897091 0.0548393 2.46693 0.134275 0.027453 0.00420184 0 0 0 0 0 0 0.0455073 -0.176123 -0.159899 26.6862 33.3705 11.3817 -0.0634088 -1.00079 4.31169 0.143683 0.033024 0.0096621 30.198 47.7352 -3.23462 1.86747 1.14241 0.636509 0.12489 0.0218893 -0.0012901 
26.982 1 36 33.5338 2.28382 2.4216 1.54016 1.2964 -4.58663 -0.39958 0.450702 0.352599 0 0 0 0 0 0 -0.0356809 -0.164526 -0.167997 33.44 0.623284 -1.08125 2.03736 0.573263 -5.32873 -0.398198 0.475473 0.367214 31.8454 3.14902 5.169 1.03382 2.04381 -3.81844 -0.400981 0.425927 0.337997 
26.982 1 73 33.3631 4.33004 0.313346 2.11998 -2.74981 2.65755 0.0314604 -0.0324748 0.0783291 0 0 0 0 0 0 0.00344284 -0.0480073 -0.254021 30.4848 10.9822 2.77774 2.43088 -1.58819 3.26192 0.0402342 -0.0161574 0.0826097 34.4487 -3.0488 -3.01674 1.79842 -3.89889 2.08096 0.022642 -0.0488451 0.0740558 
26.982 1 75 35.476 4.29861 2.41844 -5.24611 -0.169023 -3.06692 0.313567 0.420777 -0.320777 0 0 0 0 0 0 0.0219959 -0.0319458 -0.211507 39.1014 3.30864 4.34959 -4.93666 0.862798 -2.34681 0.317087 0.438351 -0.325266 29.76 4.51924 -0.291049 -5.56733 -1.19032 -3.76323 0.310057 0.403175 -0.316265 
26.982 1 234 35.6555 2.47929 4.40008 0.0261045 -1.24889 0.419321 -0.378699 -0.00393474 0.129278 0 0 0 0 0 0 -0.0456082 -0.0823517 -0.084145 40.0845 1.39167 4.94195 1.1288 -1.40229 -0.0321693 -0.380993 -0.00152889 0.132813 29.1393 2.74015 3.18602 -1.08685 -1.07458 0.894446 -0.376408 -0.00635935 0.125736 
26.982 1 40 37.7561 2.39323 2.30734 0.486865 -3.09073 -3.52054 -0.107205 -0.223806 0.491906 0 0 0 0 0 0 -0.0396699 -0.0617482 -0.20983 40.3533 8.29707 0.936793 1.08776 -2.22962 -5.2805 -0.106738 -0.231958 0.509632 32.7861 -4.36984 2.89564 -0.121473 -3.93331 -1.73706 -0.107677 -0.215688 0.474179 
26.982 1 277 37.7467 4.42019 4.35839 -0.0959206 0.953584 -2.21962 -0.0417167 -0.216244 0.232207 0 0 0 0 0 0 -0.00509967 -0.00475428 -0.0626953 37.3335 9.23917 -0.675698 -0.0699585 3.51412 -3.45125 -0.0441837 -0.216511 0.237556 35.7774 -1.15202 8.70222 -0.132171 -1.5969 -0.967133 -0.0392543 -0.215988 0.22686 
26.982 1 35 35.6504 0.292596 2.5531 1.96962 0.113203 -1.10863 -0.132255 0.310416 -0.469299 0 0 0 0 0 0 -0.0645224 -0.185414 -0.172036 32.752 3.16836 2.22715 1.48104 0.837292 -0.937741 -0.126154 0.31639 -0.480014 36.507 -3.47109 2.11162 2.45352 -0.580117 -1.25288 -0.138364 0.304462 -0.458592 
26.982 1 79 39.8482 4.42468 2.46791 -4.2879 -3.07422 1.9329 0.228483 0.0643485 -0.409532 0 0 0 0 0 0 0.0059434 0.0183346 -0.224644 36.806 11.8915 -2.32119 -4.40273 -0.674123 0.809305 0.239714 0.0540751 -0.411157 40.236 -3.78441 6.47679 -4.17711 -5.46273 3.07982 0.217256 0.0746079 -0.407897 
26.982 1 238 40.0201 2.42635 4.22907 -0.852353 2.2512 -1.56525 -0.405238 0.103729 0.432229 0 0 0 0 0 0 0.00435821 -0.063977 -0.0757737 43.5892 3.74175 3.51889 0.214376 1.95313 -1.88525 -0.406277 0.102625 0.441254 33.7908 0.276526 4.25187 -1.92401 2.56551 -1.22132 -0.404212 0.104828 0.423205 
26.982 1 39 39.8409 0.355104 2.42622 -1.74076 -3.79279 5.61457 -0.157101 0.291285 0.341099 0 0 0 0 0 0 0.0117331 -0.216554 -0.161377 38.2242 39.848 5.41981 -1.99321 -4.65198 7.06066 -0.16076 0.313954 0.355374 38.807 41.2091 -1.34786 -1.48982 -2.91504 4.20431 -0.153462 0.268619 0.326803 
26.982 1 38 39.7498 2.23915 0.356265 -0.805298 -3.76743 1.77084 0.529941 0.167021 0.201992 0 0 0 0 0 0 -0.0102049 -0.0281375 -0.24546 38.436 6.08931 47.1578 -1.15009 -3.957 3.50021 0.546585 0.189331 0.203105 38.4159 -2.44841 33.9344 -0.462179 -3.5523 0.0596784 0.513252 0.144682 0.20091 
26.982 1 237 37.5395 0.428007 4.48447 0.599243 -2.03004 -1.81303 0.697818 0.120274 -0.350059 0 0 0 0 0 0 -0.0119901 -0.165427 -0.132732 37.3296 3.62239 8.52848 0.664439 -1.53744 -0.919549 0.71175 0.116862 -0.360355 35.376 -3.70311 -0.249156 0.527848 -2.50422 -2.68054 0.683878 0.123666 -0.339794 
26.982 1 83 0.649504 8.38359 2.46921 1.56354 -5.52833 -1.5417 -0.0967823 0.359285 -0.300918 0 0 0 0 0 0 -0.118771 -0.079424 -0.177034 -1.03547 16.0706 5.36692 0.827801 -4.49153 -0.604053 -0.0910117 0.365679 -0.305551 5.01479 0.11452 -1.2607 2.30673 -6.55716 -2.46938 -0.102605 0.352882 -0.296327 
26.982 1 242 0.731175 6.52778 4.28436 -2.51392 -1.74285 5.91073 -0.222783 -0.422533 0.499746 0 0 0 0 0 0 -0.0902624 -0.0196326 -0.0896141 -2.96196 7.84361 9.12773 -3.54192 -0.756907 7.68106 -0.220931 -0.43407 0.520987 7.1064 4.57567 -1.24999 -1.47767 -2.7162 4.16408 -0.224648 -0.411024 0.478521 
26.982 1 281 -1.56623 8.34293 4.42705 -5.40879 -1.55094 -2.79477 0.407344 0.424789 -0.132878 0 0 0 0 0 0 -0.118278 -0.0820902 -0.151813 42.6592 16.3468 6.27383 -5.39928 0.685263 -2.5669 0.418928 0.449289 -0.121817 38.4762 -0.203839 1.87617 -5.42156 -3.77116 -3.00882 0.395782 0.40028 -0.144012 
26.982 1 88 2.70956 10.4078 2.62644 1.9169 -1.36156 6.58961 0.179468 -0.350894 -0.224804 0 0 0 0 0 0 -0.0459677 -0.0250245 -0.0981461 -2.12911 13.8698 4.93389 0.533465 -0.0903673 7.52912 0.187052 -0.362926 -0.236463 9.95903 6.45885 -0.519893 3.31367 -2.62479 5.6571 0.171834 -0.338919 -0.213172 
26.982 1 285 2.95375 8.23837 4.42947 -1.42079 -0.271438 1.34857 -0.290841 0.52743 0.140993 0 0 0 0 0 0 -0.0134653 0.0112082 -0.0267933 -4.61006 10.0331 2.43051 -2.99159 0.975501 1.50196 -0.292587 0.552016 0.150538 12.9199 5.86387 5.69329 0.16474 -1.51279 1.20429 -0.289097 0.502841 0.131474 
26.982 1 48 2.89638 6.51672 2.22436 3.06783 -4.86378 6.16097 -0.272538 -0.247511 0.309748 0 0 0 0 0 0 -0.0261582 -0.0302342 -0.177937 -3.82253 8.44664 -0.632685 1.7016 -3.5117 5.35328 -0.270582 -0.259347 0.32077 12.0099 3.9484 4.26048 4.44502 -6.20321 6.98235 -0.274539 -0.235657 0.298789 
26.982 1 87 4.92156 8.35017 2.42037 2.92668 2.47567 7.07106 0.262931 0.0154266 0.0847127 0 0 0 0 0 0 0.00186339 -0.0460756 -0.130468 2.03581 11.3364 7.20708 2.1821 3.30109 8.76641 0.26407 0.0162147 0.0854978 9.88604 4.80319 -3.1833 3.67998 1.66119 5.39372 0.261802 0.0146288 0.0839629 
26.982 1 246 4.97643 6.3501 4.56903 -1.1496 -3.65212 -4.32244 0.205636 0.0578457 -0.227185 0 0 0 0 0 0 0.0036508 -0.00998199 -0.0471933 8.63657 8.30855 6.16182 -0.415305 -3.05392 -2.95776 0.209533 0.0523657 -0.24239 3.38533 3.7593 2.23727 -1.87359 -4.23811 -5.67508 0.201768 0.0633253 -0.211931 
26.982 1 289 7.22963 8.50443 4.36895 0.0607338 -0.0822681 1.22746 -0.287767 -0.49986 0.158103 0 0 0 0 0 0 -0.00446246 -0.0295635 -0.0332429 11.6187 7.52453 8.12481 0.818046 0.0565516 2.89918 -0.295475 -0.518262 0.15615 4.58846 8.9294 -0.135062 -0.694108 -0.212048 -0.431832 -0.280007 -0.481537 0.160099 
26.982 1 286 4.98607 10.3441 4.50677 -3.26572 -2.93499 1.37162 0.0202677 -0.291827 -0.261835 0 0 0 0 0 0 0.00264511 -0.00396004 -0.0187564 6.88261 14.5047 14.6885 -3.50565 -1.03312 4.21091 0.0229486 -0.290964 -0.275566 5.19773 5.67997 -6.43295 -3.00881 -4.83404 -1.46026 0.0176069 -0.292751 -0.248152 
26.982 1 85 2.73607 8.56309 0.264624 0.520396 -0.895804 0.230628 0.150814 -0.184499 0.719123 0 0 0 0 0 0 -0.0331315 -0.0686158 -0.263963 -4.01467 12.5202 8.26919 -0.78166 0.035359 2.24618 0.159964 -0.183199 0.732487 11.8626 4.05944 -8.65849 1.82857 -1.80883 -1.78102 0.141589 -0.185801 0.705803 
26.982 1 52 7.08283 6.30818 2.4 0.0816352 -1.07895 -2.57869 0.472527 0.661619 0.330726 0 0 0 0 0 0 0.00166812 0.00825719 -0.164059 8.76697 6.36369 7.32063 0.48253 -1.3793 -1.47869 0.474046 0.675636 0.332136 7.12719 5.62939 -3.32043 -0.322567 -0.762576 -3.6531 0.471055 0.647648 0.329364 
26.982 1 92 7.19885 10.3103 2.44569 1.45445 1.83404 2.6647 0.0441493 0.550163 -0.0428714 0 0 0 0 0 0 0.0138195 0.000222774 -0.0956476 6.76413 11.5948 7.30519 1.25609 2.56773 4.42778 0.0439751 0.564798 -0.0438089 9.37933 8.5757 -3.21202 1.65084 1.11808 0.927143 0.0443963 0.535512 -0.0419312 
26.982 1 91 9.40821 8.38293 2.42172 -3.79017 -0.178635 -0.426477 0.110926 -0.260166 0.0795772 0 0 0 0 0 0 0.0402957 -0.0466972 -0.161144 11.2339 6.43092 4.80063 -3.54576 -0.702382 -0.104538 0.112449 -0.268461 0.0862856 9.02397 9.78472 -0.746542 -4.04038 0.350677 -0.720364 0.109453 -0.251863 0.0728885 
26.982 1 250 9.35301 6.44123 4.39489 -1.16041 -1.31208 -2.24293 -0.0862399 0.268252 -0.188169 0 0 0 0 0 0 -0.00609308 0.0116948 -0.0634901 8.83999 8.02109 15.4344 -1.77065 -0.697661 -0.460248 -0.0924484 0.274395 -0.204606 11.3021 4.275 -7.42593 -0.553458 -1.90002 -4.02704 -0.0800098 0.262118 -0.171667 
26.982 1 290 9.34103 10.3815 4.35112 -3.4624 -1.15852 0.761539 0.105253 0.347987 0.10545 0 0 0 0 0 0 0.00789494 0.00990361 -0.0255467 8.49696 16.2021 16.7092 -3.16596 1.035 3.92686 0.102997 0.362634 0.114302 11.6293 4.09218 -8.71369 -3.76319 -3.35086 -2.3864 0.107568 0.333313 0.0966149 
26.982 1 293 11.6287 8.49015 4.52038 -4.38391 3.30295 -0.821847 -0.10671 -0.0558223 -0.875495 0 0 0 0 0 0 0.0064335 -0.0131187 -0.0732592 10.3316 11.0727 15.4268 -4.62311 5.55273 1.67098 -0.103748 -0.068126 -0.906333 14.0993 5.33868 -7.11566 -4.14379 1.05378 -3.29269 -0.109647 -0.043554 -0.84467 
26.982 1 89 7.27162 8.46494 0.479846 0.312662 -4.67381 -3.34605 -0.181405 -0.38001 -0.0482723 0 0 0 0 0 0 0.0129518 -0.08092 -0.270762 9.50687 10.2565 0.0768657 1.19137 -4.525 -3.78392 -0.190056 -0.385597 -0.0510702 6.76372 6.12235 0.0280871 -0.574622 -4.80918 -2.87955 -0.172677 -0.374421 -0.0455043 
26.982 1 56 11.6654 6.3708 2.50978 -1.80606 1.08961 -5.74894 -0.294662 0.408176 -0.301923 0 0 0 0 0 0 -0.0211971 0.0514441 -0.180321 14.3598 7.11381 5.86659 -1.41315 1.54632 -5.21299 -0.298533 0.426691 -0.317931 10.1597 5.00294 -1.64849 -2.19458 0.645241 -6.25632 -0.290747 0.389729 -0.285925 
26.982 1 95 13.8057 8.4414 2.29399 -2.06135 -0.476 2.85145 -0.381976 0.245552 0.117094 0 0 0 0 0 0 -0.011979 0.0176195 -0.203853 15.4764 11.173 -2.63446 -2.4037 0.234265 2.19923 -0.394023 0.248868 0.133607 13.0181 5.14244 6.4348 -1.71789 -1.18051 3.53507 -0.36988 0.242225 0.100602 
26.982 1 254 13.7525 6.41185 4.28819 1.79755 1.75895 1.83325 0.00550431 0.161183 0.241513 0 0 0 0 0 0 0.00757208 0.00355157 -0.04092 12.4032 6.48207 12.5063 1.60572 1.61516 3.77244 0.00968289 0.155364 0.260314 16.002 5.73647 -4.68446 1.99317 1.92028 -0.100639 0.00135157 0.167041 0.222713 
26.982 1 54 13.9178 6.41874 0.393703 0.0971289 0.501703 3.88182 -0.448275 -0.167842 0.139612 0 0 0 0 0 0 0.0276941 0.041006 -0.283972 11.0268 12.2475 -6.3389 -0.0576445 2.62033 2.019 -0.46328 -0.166485 0.136376 17.7006 -0.0496614 6.22622 0.253518 -1.60971 5.76956 -0.433213 -0.169157 0.142843 
26.982 1 297 15.8461 8.34928 4.25397 0.506979 3.09941 -2.45847 0.231916 0.235663 0.158415 0 0 0 0 0 0 -0.00179205 0.00728426 -0.0549142 19.3891 14.0849 -0.335416 1.06294 4.78849 -2.47903 0.235797 0.247137 0.167175 12.9026 2.05261 8.11851 -0.0461329 1.41746 -2.41863 0.228053 0.224227 0.149636 
26.982 1 60 15.9804 6.49229 2.25105 -2.12055 -4.12616 -2.67449 -0.0489314 -0.202028 0.276327 0 0 0 0 0 0 0.0396167 -0.0214495 -0.21747 20.7206 10.6217 -1.92887 -1.1059 -3.57178 -3.79158 -0.0438286 -0.219613 0.295627 11.8267 1.7106 5.62989 -3.13795 -4.67206 -1.53241 -0.0540392 -0.18441 0.257015 
26.982 1 99 17.9566 8.50028 2.18731 2.68518 -1.11432 -0.0451646 0.408181 -0.388296 0.890156 0 0 0 0 0 0 -0.0117864 -0.071481 -0.185121 17.072 11.044 -2.06144 3.20099 -1.62746 -0.788605 0.418295 -0.405452 0.916898 19.1477 5.35734 5.63442 2.17193 -0.598197 0.723919 0.398001 -0.371132 0.86344 
26.982 1 258 17.944 6.31858 4.29474 3.96928 -2.14122 -0.983439 0.402537 0.0221281 -0.303663 0 0 0 0 0 0 0.00899281 -0.00866355 -0.0797186 16.79 10.3643 4.86388 3.81985 -2.59475 -1.23032 0.41093 0.0241494 -0.315171 19.392 1.64182 2.9946 4.11318 -1.67157 -0.719986 0.394099 0.0201798 -0.292193 
26.982 1 298 18.0256 10.4392 4.36774 -0.862928 3.18796 0.360212 -0.0342561 -0.245663 -0.111809 0 0 0 0 0 0 -0.00143214 -0.0126624 -0.0434248 17.6125 11.6011 -7.43639 -1.04139 3.42709 -1.27996 -0.0376725 -0.254556 -0.117707 18.744 8.80834 15.4681 -0.681843 2.95712 2.01758 -0.030878 -0.236773 -0.105916 
26.982 1 100 16.0127 10.4584 2.32687 -0.279446 -5.54581 1.06585 -0.548942 -0.370417 0.338057 0 0 0 0 0 0 -0.0417891 -0.0609209 -0.159729 18.2241 22.0768 -4.31447 0.0118005 -3.04437 -0.635733 -0.564909 -0.383342 0.345787 14.3926 -1.62042 8.17009 -0.564931 -8.0366 2.79722 -0.532969 -0.357516 0.330345 
26.982 1 98 18.1188 10.379 0.362869 -5.05332 -3.20722 1.16103 0.0738217 0.155967 -0.45284 0 0 0 0 0 0 0.0209066 -0.016716 -0.284503 14.335 13.4949 45.4917 -5.73786 -3.18757 1.69912 0.0783197 0.171935 -0.459352 22.2129 6.81186 35.593 -4.3603 -3.21505 0.643457 0.0692787 0.140004 -0.446273 
26.982 1 301 20.0684 8.3113 4.37642 1.26738 -0.659681 -3.3554 0.108453 0.159734 -0.224296 0 0 0 0 0 0 0.00280996 -0.00530824 -0.0577875 17.2609 5.24075 3.90458 0.989204 -2.0748 -3.91469 0.104877 0.158178 -0.224407 22.8665 10.8108 4.13624 1.5376 0.766329 -2.78098 0.11193 0.16134 -0.224172 
26.982 1 64 20.2059 6.24438 2.39644 -3.68891 -1.33038 -4.01644 0.179172 0.527235 0.238437 0 0 0 0 0 0 0.011616 -0.0295798 -0.230795 19.4466 5.73856 -0.457411 -3.57896 -1.73519 -5.09964 0.179268 0.537716 0.239605 20.9617 6.11786 4.44023 -3.80284 -0.905102 -2.91472 0.178995 0.516784 0.237254 
26.982 1 103 22.3554 8.4172 2.51992 0.761596 3.81769 -1.13025 0.336128 -0.498891 -0.0144361 0 0 0 0 0 0 0.0410922 -0.0178823 -0.222614 19.9256 15.8086 3.0456 0.627329 5.2647 -1.30961 0.341201 -0.523657 -0.025517 24.4692 0.474296 1.20268 0.885293 2.39448 -0.930927 0.331019 -0.474105 -0.00338525 
26.982 1 262 22.4136 6.3333 4.39586 -3.39944 -2.45116 1.94647 0.155518 0.355508 -0.577281 0 0 0 0 0 0 0.00701612 -0.00442899 -0.0885489 20.4901 6.73792 3.60216 -3.05026 -2.45069 2.0323 0.15998 0.362144 -0.593747 24.0271 5.29429 4.46901 -3.75704 -2.43691 1.87728 0.151037 0.348862 -0.560818 
26.982 1 305 24.8715 8.26378 4.24533 0.311712 1.31933 1.0443 -0.629985 -0.0824588 0.487408 0 0 0 0 0 0 -0.0197882 -0.00343618 -0.0631228 26.1023 19.8554 -2.24121 0.495796 4.27501 -0.371598 -0.640701 -0.0917885 0.505165 23.0515 -3.87215 10.013 0.125475 -1.61635 2.4784 -0.619185 -0.0730817 0.46969 
26.982 1 101 20.437 8.41316 0.527019 -1.12707 0.156645 -0.826484 -0.453611 -0.156078 -0.206818 0 0 0 0 0 0 0.0542112 -0.0414537 -0.284273 16.6372 11.524 41.822 -1.77851 0.0657951 -1.11682 -0.448854 -0.170802 -0.220016 24.2335 4.73397 39.6005 -0.476182 0.260435 -0.522286 -0.458431 -0.141336 -0.193622 
26.982 1 68 24.6559 6.40868 2.32497 3.29175 2.96868 3.27522 -0.0336286 -0.0403032 -0.296769 0 0 0 0 0 0 -0.0423848 -0.00622938 -0.239771 28.0599 8.86425 5.11082 3.68848 4.24814 4.16985 -0.0377809 -0.0371529 -0.305594 20.6593 3.29382 -1.26863 2.89275 1.697 2.3983 -0.0294282 -0.0434408 -0.287936 
26.982 1 107 26.9203 8.47064 2.36639 0.530455 7.71209 2.19608 -0.0712603 -0.577516 -0.590268 0 0 0 0 0 0 -0.0515194 0.0167296 -0.207187 26.3739 17.4271 4.12237 0.190184 10.1652 2.97286 -0.0715982 -0.604998 -0.60652 26.5877 -1.07778 -0.177423 0.871689 5.25988 1.44105 -0.0708517 -0.550014 -0.573998 