ITEM: TIMESTEP
15500
ITEM: NUMBER OF ATOMS
4000
ITEM: BOX BOUNDS pp pp pp
-3.22445 43.7244
0.833908 39.6661
0.866702 39.6333
ITEM: ATOMS mass type id x y z vx vy vz fx fy fz xrad yrad zrad vxrad vyrad vzrad fxrad fyrad fzrad xub yub zub vxub vyub vzub fxub fyub fzub xlb ylb zlb vxlb vylb vzlb fxlb fylb fzlb 
26.982 1 43 -1.41284 4.94484 2.86781 -2.03571 -2.34557 -4.33188 0.0816254 0.195864 0.22838 0 0 0 0 0 0 -0.13935 -0.0565888 -0.109978 -18.6728 4.38656 19.8033 -1.10822 0.947472 -1.52269 0.074741 0.207884 0.231527 21.5869 4.29212 -15.5407 -2.9931 -5.6023 -7.10469 0.0885046 0.183765 0.225164 
26.982 1 202 -1.062 3.0416 5.04539 -0.15912 -5.30166 1.99259 -0.721773 0.0245548 0.230349 0 0 0 0 0 0 -0.122768 -0.00459098 -0.0869027 4.05848 -15.9775 5.42358 3.11014 -6.76169 2.90705 -0.741249 0.032113 0.230985 -0.437429 20.7091 3.52161 -3.45744 -3.81707 1.12003 -0.702346 0.0169098 0.229731 
26.982 1 241 43.3689 4.71939 5.0316 -4.29591 0.457699 -0.339372 -0.0614688 0.0628014 0.00188911 0 0 0 0 0 0 0.00701582 -0.00404491 -0.00739976 -4.44419 12.6506 -14.4271 -1.20974 1.37152 -3.20132 -0.0538987 0.0686481 0.00146571 3.55596 -4.33059 23.3077 -7.41854 -0.407272 2.54572 -0.0690896 0.0569113 0.00234196 
26.982 1 3 -1.41911 0.955831 3.288 -4.16435 5.52083 1.98482 0.00558655 -0.217703 0.0137884 0 0 0 0 0 0 -0.103561 -0.119362 -0.171999 -4.27804 8.62544 23.8294 -1.75247 5.97953 5.50572 0.00338309 -0.207784 0.0317905 7.17263 -8.41452 -18.7222 -6.59911 5.06978 -1.51531 0.00777036 -0.227575 -0.00422376 
26.982 1 245 0.974272 4.8144 4.80247 -0.3877 1.10149 -0.212167 0.0623884 0.320524 -0.304264 0 0 0 0 0 0 -0.0232671 0.00270267 -0.0376837 -4.35767 9.66793 2.66297 -1.20556 3.73943 -0.0162253 0.0602589 0.336478 -0.295843 11.4426 -1.17416 5.72822 0.420228 -1.48694 -0.369367 0.0645182 0.304564 -0.312701 
26.982 1 8 0.613691 2.69327 2.62212 -0.398375 2.32023 -0.575323 0.328556 0.515488 0.159438 0 0 0 0 0 0 -0.0154966 -0.0834008 -0.171833 -5.31502 18.151 4.18462 0.0391476 4.13465 1.84846 0.333957 0.530235 0.15681 11.6584 -14.1915 -0.337701 -0.849789 0.519169 -2.96249 0.323132 0.500768 0.161924 
26.982 1 47 3.48554 5.58819 3.43015 -1.66437 -2.61539 -0.160338 -0.0777285 -0.13906 0.345183 0 0 0 0 0 0 0.00182893 0.013813 -0.13035 -5.52021 20.4318 -8.51306 -5.35478 -1.61978 -4.06254 -0.0927158 -0.135606 0.36161 16.929 -10.2446 13.9542 2.03464 -3.54274 3.73895 -0.0626464 -0.142471 0.328562 
26.982 1 206 3.20978 2.61879 4.36579 -2.00467 -4.83079 3.42223 0.0676904 0.029427 0.235951 0 0 0 0 0 0 -0.00181439 -0.0879938 -0.0608071 8.88435 -10.7893 25.446 -2.36021 -3.55807 7.48713 0.0680029 0.031073 0.245709 1.95866 14.7387 -17.8452 -1.65189 -6.03318 -0.615865 0.0672738 0.0279359 0.226081 
26.982 1 7 3.00511 1.08589 2.2492 1.01649 1.30332 4.03293 -0.219764 -0.519869 -0.0236434 0 0 0 0 0 0 -0.0179212 -0.197544 -0.158056 2.46624 36.1759 -0.603638 1.35248 0.256198 6.71354 -0.221963 -0.538829 -0.0110328 7.90447 45.782 3.77307 0.657592 2.39534 1.39506 -0.217677 -0.50079 -0.0364682 
26.982 1 45 1.17293 5.43713 1.68144 -3.51257 7.05527 2.7959 0.385812 -0.491476 -0.179954 0 0 0 0 0 0 0.011307 0.0176626 -0.239443 -0.782192 6.60546 48.8065 -4.11143 8.47764 4.98622 0.387394 -0.506725 -0.173818 8.25063 3.16146 34.2929 -2.91357 5.67737 0.656742 0.384383 -0.47632 -0.186196 
26.982 1 205 0.921772 1.01588 5.20872 -7.27522 2.49428 3.87321 -0.213449 0.163427 -0.491876 0 0 0 0 0 0 0.0316099 -0.126891 -0.134083 -5.94538 35.7359 4.02334 -7.14646 1.67794 6.27331 -0.204706 0.167121 -0.50084 12.8366 46.0179 5.19057 -7.42966 3.32976 1.51914 -0.222331 0.159771 -0.482939 
26.982 1 249 6.02961 5.83313 5.02951 -2.52289 -2.02501 3.35643 0.201557 -0.23999 0.534498 0 0 0 0 0 0 -0.0215224 0.00203702 -0.0198882 6.60413 -11.8331 13.4718 -5.36133 -6.2864 4.91375 0.182359 -0.224251 0.551247 9.15083 22.4482 -4.60478 0.319613 2.26699 1.83097 0.220747 -0.255641 0.51756 
26.982 1 12 6.17527 3.80546 3.33217 -4.71163 -2.66381 1.1902 -0.679016 -0.216387 -0.232038 0 0 0 0 0 0 -0.0128908 -0.0305213 -0.143129 7.26346 9.025 -6.82289 -5.90572 -2.86609 -1.09494 -0.690776 -0.233152 -0.225798 8.78329 -2.66056 12.1375 -3.51629 -2.38462 3.4948 -0.667253 -0.199454 -0.238469 
26.982 1 51 8.58879 4.76009 2.48845 -3.80425 3.34008 3.39608 -0.0397853 -0.267472 -1.26204 0 0 0 0 0 0 -0.00605002 -0.0323731 -0.23581 -6.66462 13.6881 -20.4214 -6.19753 2.42424 3.97822 -0.0206244 -0.260913 -1.28499 26.8675 -5.18294 24.043 -1.41265 4.3344 2.85682 -0.0590728 -0.273931 -1.23912 
26.982 1 210 8.3291 3.70407 4.9281 0.0981681 0.22463 -2.65099 0.0686374 0.318944 0.44397 0 0 0 0 0 0 -0.00629171 -0.062198 -0.0182777 1.08669 7.31785 14.0668 -2.42278 -0.0566159 -0.477752 0.0714622 0.316753 0.45206 18.6185 -1.25909 -5.49111 2.62305 0.557357 -4.79072 0.0658232 0.321267 0.435795 
26.982 1 11 8.80956 1.88088 2.91406 1.01142 -6.33914 -3.48737 -0.402945 -0.234539 0.507763 0 0 0 0 0 0 0.00563939 -0.173226 -0.191926 1.40026 64.3523 -22.8848 -1.61435 -3.17803 -6.19672 -0.405473 -0.265847 0.502327 19.3518 19.1962 27.2763 3.65558 -9.42035 -0.748164 -0.400487 -0.203106 0.513173 
26.982 1 253 10.931 4.51995 3.88681 0.955445 3.73761 -3.05452 0.440914 0.0494342 0.300753 0 0 0 0 0 0 0.0122467 -0.0161631 -0.0754077 7.90953 1.54051 46.7327 -0.473559 4.8044 5.54882 0.465502 0.0612391 0.291322 16.4916 6.53927 -40.181 2.39974 2.75266 -11.6435 0.416422 0.0377468 0.31015 
26.982 1 16 11.2581 2.43155 2.0375 0.896066 2.87277 4.71694 0.512519 -0.0918919 -0.198261 0 0 0 0 0 0 -0.0287336 -0.152146 -0.203009 7.96824 27.17 -6.15939 -3.02049 5.82805 7.1905 0.511365 -0.101511 -0.195803 17.1454 -23.6592 8.75402 4.85001 -0.0451771 2.26158 0.513723 -0.0821804 -0.200695 
26.982 1 55 13.8711 5.01994 2.97768 5.82437 -1.29832 3.9689 -0.00586576 -0.385184 0.775119 0 0 0 0 0 0 -0.0332604 -0.0195794 -0.0853088 12.6445 10.3516 17.6597 3.30221 1.75264 8.67588 -0.0311767 -0.386142 0.787032 17.0884 -1.35593 -13.0235 8.3882 -4.27883 -0.708828 0.0197146 -0.384163 0.763204 
26.982 1 214 13.7613 2.85068 4.72462 -3.67717 -2.72527 2.19648 -0.0956287 0.0628788 0.000985465 0 0 0 0 0 0 -0.0314357 -0.0799623 -0.0542787 27.1131 7.88769 12.4271 -5.67592 -0.543615 3.96429 -0.129039 0.0696015 -0.00681638 2.39476 -3.48337 -4.29384 -1.63269 -4.85987 0.447862 -0.0620177 0.056253 0.00880651 
26.982 1 213 11.2902 1.68821 4.78173 2.92317 -5.93093 3.65907 -0.126221 -0.124352 -0.493734 0 0 0 0 0 0 0.0161677 -0.130404 -0.108056 10.4475 4.64049 16.083 1.74599 -4.65556 5.24886 -0.123216 -0.12362 -0.509227 14.6902 -2.83344 -7.84902 4.13702 -7.16346 2.09611 -0.129114 -0.124981 -0.478207 
26.982 1 3013 11.439 20.084 19.9478 3.95971 -0.268235 -4.32803 -0.259751 0.109563 -0.226866 0 0 0 0 0 0 -0.079353 0.0447858 -0.0934279 13.943 2.66188 19.7501 2.37123 -3.50412 -3.59465 -0.284971 0.10654 -0.234538 11.4449 37.7982 20.382 5.57425 3.01743 -5.04171 -0.234427 0.112777 -0.219191 
26.982 1 15 13.9263 1.19886 2.52285 -8.75133 -4.34356 -1.05327 -0.238152 -0.339624 -0.25437 0 0 0 0 0 0 -0.0237252 -0.218632 -0.151783 11.3061 42.4484 12.0127 -12.2985 -2.74085 1.91655 -0.280939 -0.353313 -0.250835 18.4774 39.6032 -8.32164 -5.15838 -5.91155 -3.98106 -0.195068 -0.325858 -0.257911 
26.982 1 20 16.1218 3.29302 2.74685 6.074 3.77232 -5.34901 -0.105307 0.202453 0.125033 0 0 0 0 0 0 -0.0145467 -0.108733 -0.135608 31.0199 -14.0634 7.64737 6.74054 2.67421 -3.40925 -0.12185 0.20898 0.135666 2.4701 19.3766 -3.50456 5.43634 4.9058 -7.24862 -0.0884176 0.195934 0.114318 
26.982 1 257 16.0565 4.91141 4.97259 2.54142 1.46886 -5.50724 0.376832 -0.02512 -0.424199 0 0 0 0 0 0 0.00816022 0.00468558 -0.0176025 23.5684 -16.4014 16.7666 1.92184 1.90847 -1.37467 0.385048 -0.00403337 -0.434581 9.83484 25.1094 -8.06802 3.19369 1.07699 -9.60111 0.368856 -0.0462006 -0.413889 
26.982 1 218 18.0169 2.88724 4.64911 0.476965 4.10263 -1.17484 0.529836 0.0193592 -0.0178486 0 0 0 0 0 0 -0.00197505 -0.0737826 -0.0506197 6.51548 -3.27331 2.29 -1.66525 5.20455 0.301104 0.528289 0.0284298 -0.0111746 30.0801 7.80164 5.78356 2.62929 3.04396 -2.61921 0.531492 0.0102838 -0.0246759 
26.982 1 2003 -0.21273 19.2901 3.09593 2.84428 -1.6845 -3.22115 0.308546 -0.147605 -0.46876 0 0 0 0 0 0 -0.0800916 0.0587271 -0.133835 19.6968 54.4904 -3.90491 1.92237 2.24692 -1.9398 0.307521 -0.152054 -0.490698 -14.5508 -15.8145 8.56921 3.77676 -5.59463 -4.46833 0.309792 -0.143019 -0.446808 
26.982 1 403 -0.504241 0.83379 11.2802 -5.63945 -2.26086 3.63192 -0.125993 -0.302382 0.905934 0 0 0 0 0 0 -0.116698 -0.204817 -0.0298037 9.64133 61.1854 15.7493 -2.76736 0.345519 5.05014 -0.130599 -0.296736 0.949803 -4.98589 20.1557 6.12707 -8.53022 -4.84192 2.23484 -0.121436 -0.308051 0.861881 
26.982 1 118 40.994 10.5717 0.933476 1.85913 4.21803 -5.16796 -0.022988 -0.0766464 -0.247458 0 0 0 0 0 0 -1.13039e-05 0.0310643 -0.265353 40.5429 13.4227 30.1286 4.07832 4.72312 -9.93478 0.00472152 -0.0747372 -0.256366 35.7995 7.22901 51.4586 -0.392663 3.75235 -0.356909 -0.051025 -0.0786558 -0.238507 
26.982 1 59 18.5203 4.92567 2.73724 -0.567596 1.61345 -4.37219 -0.0378521 0.266822 0.164256 0 0 0 0 0 0 -0.00317886 -0.0101566 -0.08619 31.4684 -10.9981 14.5759 0.0516168 -0.113569 -1.25031 -0.0369477 0.284086 0.183519 6.10844 19.7038 -10.4037 -1.18334 3.35266 -7.44589 -0.0386274 0.249496 0.144832 
26.982 1 21 20.6777 0.888423 0.81274 0.482656 1.48172 -4.83334 0.168829 -0.262098 0.0856911 0 0 0 0 0 0 0.0460437 -0.189621 -0.16275 31.1437 -17.1309 1.16669 1.36657 0.253535 -5.79974 0.187711 -0.266022 0.0812771 10.2249 17.2771 -0.994597 -0.396917 2.74453 -3.81338 0.14989 -0.258174 0.0900295 
26.982 1 24 20.6323 2.91557 2.87717 -0.238517 -6.2322 1.1579 -0.331053 -0.543286 -0.310657 0 0 0 0 0 0 0.0374883 -0.132647 -0.0895381 10.2394 15.1424 15.2359 -1.97364 -4.30108 3.45852 -0.337992 -0.554317 -0.30462 30.9549 -10.5004 -10.8511 1.48877 -8.10253 -1.09789 -0.324126 -0.532277 -0.316861 
26.982 1 261 20.4369 4.70835 4.78828 -0.522191 -4.87679 -9.28259 0.400901 0.369624 0.168608 0 0 0 0 0 0 0.0108653 -0.00842412 -0.0186286 20.2841 8.84216 3.05973 -0.872818 -2.58804 -9.17812 0.399293 0.391274 0.17003 20.5212 -0.547973 5.29524 -0.177775 -7.13233 -9.35677 0.402572 0.34798 0.167027 
26.982 1 2023 22.7173 19.9994 2.44721 3.63412 4.02078 -2.42141 0.0905581 0.266706 0.056277 0 0 0 0 0 0 -0.0684921 0.0431653 -0.246696 16.1549 41.5454 9.28464 -0.0235922 7.64103 -0.689186 0.0756653 0.271903 0.0644274 28.6849 -1.14449 -5.73181 7.33527 0.458888 -4.10393 0.105717 0.26171 0.0481123 
26.982 1 18 18.5508 3.05507 0.766376 1.29393 4.46448 -0.167419 0.00738864 0.616258 0.142577 0 0 0 0 0 0 -0.0354356 -0.0982649 -0.25934 31.5248 7.9106 3.35184 2.27069 6.27308 -0.32615 0.0143115 0.628608 0.149511 6.08904 -3.04095 -3.25045 0.310033 2.70901 0.0592383 0.000602405 0.603889 0.135556 
26.982 1 203 -0.974621 1.1301 7.3223 -2.38742 5.53543 -5.67716 -0.287615 -0.157028 -0.197559 0 0 0 0 0 0 -0.121335 -0.18254 -0.0065641 2.20377 67.2581 9.4405 0.614643 10.4675 -4.64129 -0.296724 -0.161477 -0.200175 1.50638 14.7685 4.11825 -5.41557 0.625715 -6.68781 -0.278516 -0.152605 -0.19499 
26.982 1 63 22.7505 4.45648 2.72079 -4.45558 -1.41888 -1.46428 0.466043 1.45117 0.24955 0 0 0 0 0 0 0.0728416 -0.0457315 -0.12154 29.1448 24.7233 10.7577 -4.03788 1.45086 0.952003 0.465426 1.47914 0.258474 15.7479 -16.9479 -6.64381 -4.87718 -4.25351 -3.8461 0.466726 1.42325 0.240555 
26.982 1 222 22.984 2.86835 4.68718 0.692663 -5.43094 -1.289 -0.520788 -0.632486 0.433873 0 0 0 0 0 0 0.0386022 -0.163378 -0.0731483 19.2292 17.9248 8.00586 0.547711 -3.42864 0.123187 -0.537028 -0.64795 0.457153 26.0828 -13.4697 0.14015 0.819405 -7.386 -2.67587 -0.504445 -0.616959 0.410509 
26.982 1 28 25.1725 2.60246 2.65445 -6.72643 0.252928 -1.727 -0.200923 -0.197603 0.333583 0 0 0 0 0 0 0.0415294 -0.196481 -0.177332 29.2263 9.72962 17.7863 -5.20964 0.243494 1.7532 -0.202345 -0.210801 0.331178 19.9493 -5.74837 -14.0181 -8.25188 0.317565 -5.20634 -0.199418 -0.184293 0.335982 
26.982 1 265 25.0464 4.63544 4.5988 3.62863 -0.376708 3.9261 -0.182696 -0.0437801 0.0678561 0 0 0 0 0 0 -0.00182632 -0.0727628 -0.0935269 28.4281 -17.9646 3.90179 4.87711 -1.82022 5.56304 -0.200988 -0.0545087 0.0601594 20.4666 26.0919 4.00406 2.37593 1.11878 2.30972 -0.164225 -0.0329817 0.0755534 
26.982 1 807 4.96678 1.04698 17.9163 6.72412 4.34758 -3.33486 0.117749 0.285429 -0.125236 0 0 0 0 0 0 -0.0804119 -0.150482 -0.133859 5.98487 57.9973 14.33 2.55553 3.57461 -4.5861 0.103339 0.27713 -0.151401 8.34657 24.2023 21.5424 10.9414 5.20195 -2.04438 0.132381 0.293848 -0.0988369 
26.982 1 417 15.533 0.753704 8.66372 5.6941 -2.01391 2.2579 0.206545 0.44241 0.182561 0 0 0 0 0 0 -0.0154357 -0.170015 -0.103555 9.12004 53.8349 32.7794 3.20011 0.334538 3.22614 0.191698 0.458392 0.179455 23.2893 27.4011 -16.3765 8.21988 -4.31851 1.3133 0.221543 0.426467 0.185584 
26.982 1 67 27.246 4.58149 2.8831 1.60941 -1.35801 2.34372 -0.134103 -0.243908 -0.227224 0 0 0 0 0 0 -0.0302891 -0.0626284 -0.231902 26.4538 -5.35863 9.03215 1.17953 -2.80735 2.86727 -0.144703 -0.248489 -0.249641 26.2383 13.3383 -4.69233 2.03939 0.147198 1.8442 -0.123495 -0.239264 -0.20474 
26.982 1 226 27.2926 2.62353 4.87977 6.6726 1.3785 -0.0388864 0.0454173 0.334377 -0.665488 0 0 0 0 0 0 -0.00930881 -0.184331 -0.147199 27.6386 -9.01392 16.7243 6.52416 0.0796412 2.2839 0.049439 0.316722 -0.691709 25.174 13.138 -8.3125 6.82738 2.7418 -2.3376 0.0414378 0.352194 -0.639275 
26.982 1 32 29.4691 2.76643 2.89251 -0.129978 -0.0804395 -2.67811 0.0559836 -0.18316 0.530472 0 0 0 0 0 0 -0.0326874 -0.180682 -0.110112 12.4119 11.126 24.3797 -1.79838 2.26965 0.098686 0.0576379 -0.200835 0.527872 44.0814 -6.79099 -20.0364 1.55096 -2.36549 -5.42584 0.0542212 -0.165425 0.533103 
26.982 1 269 29.3336 4.78753 4.76239 5.61598 4.98724 0.0899386 0.121049 -0.532199 0.0751966 0 0 0 0 0 0 0.00368914 -0.0577481 -0.0705172 25.961 15.1348 26.0458 4.96519 5.61774 3.49 0.133548 -0.552802 0.0766219 30.3219 -6.72658 -17.6923 6.28659 4.40517 -3.27016 0.108385 -0.511554 0.07376 
26.982 1 964 43.2623 17.4557 17.8263 -3.07756 0.261747 -0.586622 -0.038682 -0.0589028 0.0483986 0 0 0 0 0 0 0.0146687 -0.0448155 0.00400695 31.0526 14.481 16.9135 -2.77242 -1.90563 -0.239727 -0.0363889 -0.0811349 0.066762 49.2766 20.3637 18.7317 -3.3858 2.48836 -0.896768 -0.0409499 -0.0365013 0.0299861 
26.982 1 19 18.4906 1.03554 2.42789 7.77306 -2.63247 0.571987 0.47933 -0.175382 1.1932 0 0 0 0 0 0 -0.0523793 -0.230642 -0.113115 37.6732 -1.41267 11.9445 8.92543 -1.24946 3.1156 0.484156 -0.169766 1.23403 -0.161165 1.963 -8.44881 6.62114 -3.95861 -1.93243 0.47467 -0.180973 1.15224 
26.982 1 153 34.1317 12.5338 0.609715 7.51555 0.753995 -0.0559368 0.0798883 -0.116833 0.287438 0 0 0 0 0 0 0.0187024 0.0442379 -0.282879 38.0003 34.3758 2.64074 10.6179 5.74031 -0.914775 0.0834839 -0.143256 0.279097 26.4249 -9.74568 -3.003 4.38383 -4.20499 0.839016 0.0762381 -0.0903828 0.295879 
26.982 1 2831 31.519 20.1503 18.0989 0.692607 -1.46063 -6.03512 0.048885 -0.0102842 0.534947 0 0 0 0 0 0 -0.0638474 0.103382 -0.0161896 28.2812 30.225 18.7925 1.98955 -0.892965 -7.13165 0.0670868 -0.0238922 0.541189 31.5453 10.3315 17.5127 -0.613894 -1.97881 -4.90497 0.0306214 0.00339524 0.528669 
26.982 1 71 31.5381 4.70866 3.07217 -0.242095 -0.873896 2.24744 0.456933 -0.0242387 -0.105682 0 0 0 0 0 0 0.060406 -0.0144584 -0.176853 29.6948 18.3789 1.65434 0.0115884 1.03421 3.22902 0.484482 -0.0224611 -0.117478 30.2121 -10.1166 3.20697 -0.498034 -2.72458 1.32171 0.429182 -0.0259978 -0.0938807 
26.982 1 230 31.7967 2.44997 4.56458 -2.78932 3.38518 6.95623 0.550861 0.828806 0.204979 0 0 0 0 0 0 0.024213 -0.176552 -0.115353 14.607 -6.64825 -5.56943 -4.34936 1.99053 4.18884 0.563758 0.850172 0.208753 45.8829 10.4082 13.573 -1.21832 4.84765 9.77152 0.537779 0.807452 0.20118 
26.982 1 273 34.1125 4.52416 4.7358 -4.58489 0.638877 -1.53823 -0.309847 -0.371568 -0.0254314 0 0 0 0 0 0 0.00282596 -0.0538889 -0.0953215 43.7167 20.8753 -8.80946 -3.34755 0.528594 -4.1668 -0.310749 -0.362972 -0.0186236 20.6409 -13.026 17.0699 -5.84148 0.79107 1.1309 -0.309145 -0.380119 -0.0322266 
26.982 1 36 34.1289 2.40208 2.72104 -1.18112 -4.14524 1.52799 -0.0123365 0.44374 0.142271 0 0 0 0 0 0 0.0556974 -0.164628 -0.157722 38.4392 -3.16168 -12.5865 1.57353 -5.70723 -1.16289 -0.00579452 0.467772 0.151628 25.9647 6.72419 16.7604 -3.95463 -2.52762 4.26209 -0.0190393 0.419695 0.132895 
26.982 1 105 25.2961 8.44465 0.891257 -3.55763 5.18135 -1.17286 -0.33425 0.0706885 0.11509 0 0 0 0 0 0 0.0982833 -0.00961968 -0.294754 23.4087 21.9595 56.1192 -3.505 7.25094 -1.14637 -0.339715 0.0871015 0.108242 25.9423 -6.03731 25.2662 -3.60444 3.1254 -1.16941 -0.328693 0.0542424 0.121969 
26.982 1 75 36.1976 4.5778 2.68969 -2.50536 -0.69619 1.47385 0.315342 0.188624 0.379802 0 0 0 0 0 0 -0.0133055 -0.0538596 -0.244828 39.3867 22.4767 5.56101 -1.51792 1.88182 2.50147 0.334777 0.203536 0.39134 28.4642 -14.6027 -1.41779 -3.5171 -3.24691 0.512912 0.295775 0.173721 0.368231 
26.982 1 234 36.5538 2.79068 4.83096 -3.90963 1.23448 8.36156 -0.131923 0.0882948 -0.638788 0 0 0 0 0 0 -0.0364783 -0.11993 -0.136992 50.6838 -0.250075 -2.37384 -1.29184 0.122233 7.69657 -0.116595 0.0993439 -0.646101 17.9109 4.5431 10.9484 -6.5519 2.40061 9.07716 -0.147403 0.0772738 -0.631582 
26.982 1 40 38.7549 2.82749 2.84682 1.68769 -5.34114 -0.593407 -0.257825 0.841799 -0.0884024 0 0 0 0 0 0 -0.0844516 -0.0965537 -0.204643 46.9815 21.5621 -8.64001 3.15866 -4.9527 -1.00539 -0.238075 0.855271 -0.0867809 25.4022 -17.256 13.074 0.211782 -5.68962 -0.132019 -0.277693 0.828277 -0.0900884 
26.982 1 277 38.7245 4.54234 5.22943 3.7371 1.95547 1.05154 0.140487 -0.0246496 -0.297264 0 0 0 0 0 0 -0.0108057 -0.0674324 -0.0422311 36.2179 30.3492 -4.57343 3.16723 4.97193 0.41433 0.146025 -0.0267298 -0.314852 36.0978 -22.4376 13.9835 4.29462 -1.00222 1.74798 0.134788 -0.0225053 -0.279724 
26.982 1 217 15.9497 1.0394 4.4249 0.765751 2.70072 -1.62324 -0.135327 -0.216628 -0.0846247 0 0 0 0 0 0 -0.0172203 -0.191804 -0.119105 33.0216 42.3289 10.2273 1.05897 3.61568 -0.503185 -0.170517 -0.230209 -0.069671 0.0970708 39.5148 -2.67807 0.499851 1.82237 -2.73112 -0.099841 -0.203 -0.0996041 
26.982 1 4 43.4965 2.81284 3.03511 -0.443687 -0.0332751 -1.98673 -0.273058 0.294918 0.57378 0 0 0 0 0 0 -0.0119941 -0.079996 -0.0728785 23.5932 -0.38063 6.94584 0.65416 1.37689 -0.483754 -0.283788 0.301156 0.589774 57.1267 4.64765 -2.1867 -1.56657 -1.40699 -3.44795 -0.262371 0.288631 0.557758 
26.982 1 79 41.0906 4.58433 3.15414 1.96749 -2.56316 4.10729 0.00998913 -0.181659 -0.248816 0 0 0 0 0 0 -0.0417365 -0.0300893 -0.10937 30.4707 31.3358 -20.3687 1.59972 1.17728 0.698381 0.00887716 -0.182063 -0.265904 46.0135 -23.3793 25.4402 2.32373 -6.27471 7.55318 0.0109423 -0.181261 -0.23185 
26.982 1 238 41.3054 2.4414 5.04462 -0.973983 -4.30736 1.15255 0.0378523 -0.130012 -0.0369205 0 0 0 0 0 0 -0.00632193 -0.0869646 -0.0518569 48.2231 -5.88094 -7.1202 -0.122497 -4.64162 0.377425 0.0559132 -0.124912 -0.0437285 28.6503 9.46461 16.1017 -1.83996 -3.91529 1.96695 0.0197492 -0.135086 -0.0301579 
26.982 1 2827 27.1375 20.405 18.0642 -4.42315 2.70202 -5.25787 -0.0609547 -0.305611 0.184654 0 0 0 0 0 0 -0.06284 0.148266 -0.0112868 33.9992 -3.88223 42.4945 -3.80048 1.2659 -2.06249 -0.0630652 -0.308127 0.197081 18.4274 44.9306 -6.41783 -5.04926 4.16773 -8.45096 -0.0588877 -0.303088 0.172224 
26.982 1 2005 1.80402 20.2773 0.961027 2.09492 1.84131 4.39174 0.0243258 -0.0185075 0.155522 0 0 0 0 0 0 -0.0471223 0.0529293 -0.239396 -1.03539 25.6741 76.1898 0.992707 0.0507252 9.58375 0.00753562 -0.0455069 0.150726 9.67837 14.9285 5.34119 3.22226 3.64061 -0.778146 0.0412791 0.00866734 0.160317 
26.982 1 83 -1.68843 8.72692 3.26858 2.89615 -0.143599 -1.89511 0.356494 0.321591 0.386447 0 0 0 0 0 0 -0.113726 -0.0525167 -0.133913 -4.91929 28.0164 12.0202 5.90582 0.250697 -2.48083 0.368551 0.324632 0.379474 7.25234 -11.4426 -6.82832 -0.131436 -0.518601 -1.24407 0.344476 0.318437 0.393373 
26.982 1 242 -1.60771 6.61403 5.4381 -0.966233 5.1515 1.85702 0.0844691 0.0311699 -0.320136 0 0 0 0 0 0 -0.226074 -0.0187777 -0.0371726 -10.7165 22.7628 16.7785 -0.022477 7.90745 3.42986 0.0891758 0.0299621 -0.32684 13.1854 -10.5588 -6.96251 -1.95273 2.41846 0.361456 0.0797434 0.0322923 -0.313425 
26.982 1 281 43.0272 8.89164 5.11687 0.860977 4.76018 1.82286 -0.506344 -0.135388 0.062432 0 0 0 0 0 0 0.0154892 -0.000805425 -0.0061418 44.2264 38.9906 4.70154 4.14328 6.83243 2.14025 -0.500949 -0.132248 0.0719119 35.4658 -22.1158 4.38559 -2.4702 2.69085 1.56619 -0.511924 -0.138606 0.0529972 
26.982 1 29 29.4595 0.906844 1.06703 1.42723 1.2189 3.48707 0.211433 -0.305035 -0.601377 0 0 0 0 0 0 -0.0354765 -0.160054 -0.118671 23.6228 -24.1534 60.6247 0.751398 -0.453109 7.30746 0.21068 -0.323783 -0.619072 32.7525 24.4492 21.0936 2.09942 2.93073 -0.321085 0.212124 -0.286256 -0.583677 
26.982 1 48 0.770604 7.29023 3.59357 3.24932 0.45215 8.152 0.0444024 0.0632207 -0.0155428 0 0 0 0 0 0 -0.0298328 0.0179589 -0.109879 -25.7665 37.5086 -19.594 -0.493399 5.25846 4.58297 0.0414401 0.0704777 -0.00454704 32.4924 -23.9882 25.3088 7.0051 -4.30707 11.7161 0.0474656 0.055901 -0.026649 
26.982 1 285 0.627153 9.25161 5.43955 0.626866 2.40393 4.71037 -0.14277 0.0312419 -0.218909 0 0 0 0 0 0 -0.0215645 -0.00308554 -0.0295655 -23.1742 32.117 5.26219 -0.492531 6.17246 6.51124 -0.138992 0.0375274 -0.222438 29.6254 -14.5864 4.34782 1.75609 -1.33502 2.94325 -0.146484 0.0249074 -0.215494 
26.982 1 87 3.79359 8.19936 2.61463 3.1428 -0.948133 0.719806 -0.108239 0.388348 0.348436 0 0 0 0 0 0 -0.0409044 -0.0251115 -0.19394 -8.80641 15.0053 11.7912 -0.87309 -1.03606 4.07892 -0.132568 0.402578 0.381605 20.9463 0.589786 -7.97522 7.2047 -0.797254 -2.60845 -0.0838077 0.374106 0.315146 
26.982 1 246 2.97177 7.41822 5.63223 -3.10397 3.93974 -0.836505 0.42795 0.00674329 -0.231907 0 0 0 0 0 0 0.0176627 0.0199671 -0.0134675 10.0354 10.8728 19.3724 -4.18747 4.15252 2.94797 0.445025 0.026553 -0.221247 0.439075 2.95823 -9.41362 -1.99494 3.76162 -4.58597 0.411016 -0.0130606 -0.24264 
26.982 1 88 1.69001 9.98718 2.53162 -7.96716 -1.34029 -0.558248 -0.239982 -0.0146675 0.321339 0 0 0 0 0 0 -0.0531297 -0.039251 -0.203882 -20.8777 21.2106 13.5518 -12.8363 -0.242006 3.56129 -0.260507 -0.0137022 0.343146 29.4925 -1.94214 -9.93206 -3.05657 -2.39748 -4.63253 -0.219289 -0.0156936 0.299493 
26.982 1 286 3.85994 10.1105 4.77409 -5.74242 -1.24487 2.28578 0.150134 -0.810505 -0.475627 0 0 0 0 0 0 0.00103673 -0.0218341 -0.0217815 -0.646056 31.8278 47.6028 -8.79636 0.874224 11.9641 0.159721 -0.828526 -0.452352 12.9884 -12.4597 -39.4994 -2.63862 -3.35598 -7.40173 0.140762 -0.79253 -0.499028 
26.982 1 289 6.17517 8.47888 4.32583 2.21789 -2.8709 1.02655 -0.0799604 -0.17298 0.582456 0 0 0 0 0 0 -0.0386481 -0.0156654 -0.0381226 20.5379 13.4108 36.0303 2.06584 -1.43752 7.2266 -0.107042 -0.176146 0.600026 -4.41184 2.67837 -28.7066 2.39914 -4.25075 -5.18497 -0.0528804 -0.169843 0.564662 
26.982 1 52 6.16536 6.49245 2.39762 -5.80942 0.463922 3.08241 0.502296 0.246263 0.311668 0 0 0 0 0 0 -0.0259482 -0.023283 -0.233879 13.6447 3.66652 15.4892 -6.27344 -1.59579 6.7651 0.516267 0.254997 0.319315 2.38795 8.38312 -11.9676 -5.33228 2.5967 -0.562614 0.488291 0.237571 0.303901 
26.982 1 91 8.94422 9.26236 3.38263 -0.256237 -0.848518 4.1172 0.161039 0.15143 -0.209976 0 0 0 0 0 0 0.0268817 -0.00688331 -0.10331 15.6889 4.20549 12.3722 0.0929087 -2.50897 5.82761 0.173746 0.140483 -0.215894 5.22292 13.4864 -6.9205 -0.607568 0.874939 2.43454 0.148377 0.162465 -0.204152 
26.982 1 250 8.83976 6.64207 4.22227 -4.52913 1.59623 -1.74944 0.0318178 0.0471835 0.14515 0 0 0 0 0 0 0.00210385 -0.00106404 -0.0506072 11.9788 14.7794 38.1164 -5.04116 1.16185 2.41265 0.0410141 0.0519976 0.153949 8.73099 -2.27878 -31.1819 -4.01842 2.11431 -5.93322 0.0225702 0.0424255 0.136296 
26.982 1 92 6.76985 11.1694 3.70219 -2.74799 -0.983089 0.465453 -0.33124 0.221181 0.0836883 0 0 0 0 0 0 -0.00737208 0.0137231 -0.0593918 5.24898 9.96533 16.8457 -4.15878 -1.6247 1.25178 -0.342103 0.223276 0.100011 12.0485 11.7393 -10.7322 -1.30758 -0.284282 -0.293275 -0.320281 0.219096 0.0672397 
26.982 1 290 9.21586 11.1193 5.25718 9.25671 -0.0516434 -1.80093 -0.0236519 -0.130361 -0.151664 0 0 0 0 0 0 0.000339456 0.00459645 -0.0195965 15.108 30.9231 55.8696 8.66867 0.417814 4.13791 -0.0283888 -0.131693 -0.150207 6.37575 -9.46013 -46.6311 9.8598 -0.474971 -7.72825 -0.0187243 -0.128942 -0.153179 
26.982 1 14 14.1175 3.43628 0.772902 -3.4893 -1.59361 0.638655 0.072268 -0.457203 0.367553 0 0 0 0 0 0 -0.0275353 -0.102735 -0.256818 7.66651 35.6819 36.3979 -6.4667 2.28209 5.18581 0.0401995 -0.47917 0.37962 22.5676 -30.1769 44.9282 -0.461102 -5.41119 -3.86713 0.104679 -0.435243 0.355449 
26.982 1 89 6.41534 9.29344 1.85844 1.83376 2.76003 -1.96261 0.213239 -0.0195813 -0.945306 0 0 0 0 0 0 -0.0256253 -0.0363538 -0.242845 18.1144 19.0652 -19.4058 2.49651 1.19803 -5.41151 0.22346 -0.026864 -0.95337 -1.60672 -1.26375 21.6688 1.18873 4.38403 1.49615 0.203053 -0.0123436 -0.937336 
26.982 1 293 11.479 9.225 4.81002 4.51019 0.513323 6.42975 0.151224 0.469892 -0.596678 0 0 0 0 0 0 -0.0102487 -0.0107204 -0.0565753 13.6142 31.3054 47.956 4.67662 0.958289 12.7061 0.137649 0.452992 -0.612364 11.8228 -13.8337 -39.6563 4.34511 0.116351 0.158281 0.164876 0.486971 -0.581002 
26.982 1 56 11.5032 7.51962 2.60574 -6.29772 4.73869 3.43167 0.11023 -0.356003 0.433071 0 0 0 0 0 0 -0.0173705 0.0229184 -0.169132 18.029 13.145 19.5727 -7.34637 3.62059 7.05289 0.101041 -0.365735 0.433414 7.52838 0.963625 -15.6589 -5.23882 5.91512 -0.158538 0.119502 -0.346091 0.432729 
26.982 1 95 13.5334 9.41855 2.09361 -7.26414 -0.65636 0.564945 0.17166 -0.428916 0.193871 0 0 0 0 0 0 -0.0542803 0.0230318 -0.225915 10.0806 18.3311 -10.0052 -7.29692 -3.42943 0.695254 0.16879 -0.45333 0.196819 18.8825 -0.470503 12.9146 -7.22883 2.12421 0.488054 0.174639 -0.404373 0.19099 
26.982 1 254 14.0469 7.40982 4.24331 1.77348 10.4365 -4.10349 -0.665851 -0.0451544 -0.0948736 0 0 0 0 0 0 -0.0308283 -0.00608314 -0.0334709 7.63009 0.778742 48.8148 -0.0468948 8.16155 5.49053 -0.688403 -0.0592025 -0.0868435 22.4331 13.1124 -41.6702 3.61615 12.7515 -13.6796 -0.643162 -0.031045 -0.10288 
26.982 1 294 13.704 11.2013 4.17435 -1.59165 4.22695 -1.65642 -0.301471 -0.371353 0.167578 0 0 0 0 0 0 -0.0145188 -0.024242 -0.0802115 18.0008 43.5702 -1.82949 -0.943509 5.84857 -2.83396 -0.30439 -0.402159 0.157353 11.2868 -22.0764 8.94141 -2.25158 2.63867 -0.446905 -0.298506 -0.340437 0.177791 
26.982 1 30 31.8436 2.81859 1.08479 4.52414 0.63062 3.37743 -0.238398 -0.341525 0.049854 0 0 0 0 0 0 0.0799755 -0.0801189 -0.211442 43.2084 -18.2165 13.6934 6.5362 0.38044 6.54189 -0.232797 -0.343987 0.0337244 17.2368 22.4761 -13.0741 2.50166 0.926473 0.256296 -0.244124 -0.33909 0.0660015 
26.982 1 60 16.5304 6.98124 3.0161 -1.27079 2.99367 -6.31801 0.0890093 -0.667908 -0.0646163 0 0 0 0 0 0 0.000905703 0.0065015 -0.0657747 31.9388 7.31256 -1.9317 -0.646917 4.7642 -5.54809 0.100695 -0.662678 -0.0495444 2.36609 5.57205 6.62459 -1.87657 1.24727 -7.05207 0.0775566 -0.673178 -0.0797989 
26.982 1 297 15.814 9.41414 3.79952 5.2608 0.899575 -1.82293 0.404977 0.15795 0.61065 0 0 0 0 0 0 0.00270511 -0.000771701 -0.0418574 27.23 42.581 0.749386 6.63745 5.14227 -0.702905 0.421197 0.148785 0.62261 5.69299 -24.6504 5.59147 3.88937 -3.29819 -2.92132 0.388778 0.167173 0.598624 
26.982 1 99 18.8537 8.81386 2.79773 1.06903 -5.67805 -5.04491 -0.53283 -0.415412 0.367594 0 0 0 0 0 0 -3.1289e-06 0.0200274 -0.0666997 27.6564 21.3229 10.4401 2.4514 -0.5274 -1.7317 -0.533075 -0.404381 0.395996 10.6742 -4.62738 -6.15714 -0.302491 -10.7988 -8.31894 -0.532493 -0.426506 0.339058 
26.982 1 258 18.5121 6.75828 5.0337 -3.1351 1.57786 -0.834451 -0.220946 0.40396 -0.516128 0 0 0 0 0 0 -0.00711742 0.0205452 -0.0113825 17.1598 8.47451 5.24311 -3.12654 3.25777 -1.30431 -0.227975 0.424505 -0.52751 20.4152 4.00507 3.57026 -3.13671 -0.0910878 -0.348767 -0.213829 0.383317 -0.504861 
26.982 1 100 15.6397 11.3223 1.8989 0.730856 5.2929 0.73106 -0.402729 0.403459 -0.104969 0 0 0 0 0 0 -0.053899 0.0383139 -0.241654 19.7394 48.8728 -18.2544 1.65596 7.454 -1.63341 -0.407141 0.399098 -0.12004 12.8329 -27.0059 20.6847 -0.199623 3.15665 3.14883 -0.398343 0.407839 -0.0898396 
26.982 1 97 16.3382 8.79213 0.996189 -4.2095 -5.57573 -2.83568 -0.153371 0.0797842 -0.28774 0 0 0 0 0 0 -0.0409012 0.0408481 -0.271977 23.4608 7.37928 18.7895 -3.70015 -4.83527 -2.22221 -0.166345 0.0971742 -0.307073 10.4824 9.35424 -18.3707 -4.7079 -6.2875 -3.40743 -0.140223 0.0623492 -0.268406 
26.982 1 64 20.8583 6.73688 2.68456 3.95766 0.00124376 -3.91556 -0.204595 0.170633 0.523532 0 0 0 0 0 0 0.00413657 0.00567811 -0.0853263 22.2246 3.01993 0.679387 3.32071 0.880022 -2.80665 -0.208076 0.185911 0.546264 19.431 9.48681 3.34347 4.59223 -0.848337 -4.98186 -0.201033 0.155258 0.50067 
26.982 1 301 20.8241 8.77328 4.69584 -1.56217 0.844776 5.80165 0.00769254 -0.321274 0.291118 0 0 0 0 0 0 -0.0171922 0.0123799 -0.0014186 14.539 -3.61483 1.50578 -3.09704 2.50029 6.82918 -0.0107432 -0.312258 0.304479 27.0598 20.2615 6.7019 -0.0148961 -0.794649 4.80682 0.0262563 -0.330384 0.277678 
26.982 1 104 20.7508 10.8082 2.75851 -2.35516 1.80773 -3.91727 -0.114174 -0.512183 -0.114914 0 0 0 0 0 0 -0.000626682 0.0506065 -0.127995 24.2815 39.7702 17.8827 -3.63081 8.46819 -1.46169 -0.118894 -0.508457 -0.109923 17.2077 -18.9826 -13.6698 -1.0726 -4.84151 -6.33391 -0.109391 -0.516043 -0.119991 
26.982 1 2811 9.11744 19.8194 18.0639 -1.50366 0.00731184 -2.08629 0.309834 0.310844 -0.105175 0 0 0 0 0 0 -0.0742677 0.050529 -0.0790367 9.74371 22.2267 38.537 -6.05644 -0.98602 -0.203626 0.287682 0.305691 -0.112565 11.6298 17.6675 -2.35822 3.09406 1.05796 -3.93765 0.332108 0.316117 -0.0976312 
26.982 1 103 23.1558 8.51626 2.66374 2.16708 -5.49056 1.34432 -0.67176 0.534828 0.345064 0 0 0 0 0 0 0.00838439 0.0179914 -0.121065 16.2109 23.203 -3.48046 0.641871 -4.00902 -0.492664 -0.688102 0.553856 0.343866 29.4234 -6.93589 7.48668 3.70085 -6.93589 3.22408 -0.655253 0.515712 0.346206 