ITEM: TIMESTEP
575
ITEM: NUMBER OF ATOMS
4000
ITEM: BOX BOUNDS pp pp pp
-0.19106 40.6911
-0.029687 40.5297
-0.0385807 40.5386
ITEM: ATOMS mass type id x y z vx vy vz fx fy fz xrad yrad zrad vxrad vyrad vzrad fxrad fyrad fzrad xub yub zub vxub vyub vzub fxub fyub fzub xlb ylb zlb vxlb vylb vzlb fxlb fylb fzlb 
26.982 1 2 1.88059 2.23067 -0.128959 4.58717 -1.40201 3.21162 0.129772 -0.470109 -0.111019 0 0 0 0 0 0 -0.0216608 -0.11045 -0.187773 1.98967 2.38699 -0.0182798 4.83429 -1.10208 3.84503 0.142807 -0.475626 -0.117454 1.96487 1.9941 -0.309118 4.33941 -1.69966 2.57935 0.116707 -0.464633 -0.104525 
26.982 1 3 1.83667 0.0560929 1.86417 -4.28268 4.03513 0.418845 0.141939 0.0782984 0.23387 0 0 0 0 0 0 -0.0679981 -0.184015 -0.097692 1.84704 -0.0280406 1.89205 -4.54755 3.72878 0.521701 0.132824 0.0835518 0.220198 2.01918 0.0509823 1.77478 -4.01958 4.34232 0.318756 0.151048 0.0730252 0.247602 
26.982 1 8 3.83794 1.89996 1.99909 5.23152 -1.8766 2.05901 0.230814 0.599896 -0.468099 0 0 0 0 0 0 0.00325764 -0.146886 -0.127782 3.87289 1.89863 1.99231 5.15358 -2.03409 2.15048 0.234125 0.626105 -0.48515 3.97526 1.82129 1.94389 5.30966 -1.7162 1.96994 0.227468 0.573616 -0.450998 
26.982 1 41 -0.189583 4.10056 -0.0650648 1.34531 2.42627 -0.837031 -0.116917 -0.0984146 -0.0610987 0 0 0 0 0 0 -0.113151 -0.127695 -0.171869 -0.192193 4.19514 0.0451161 1.02556 2.56577 -0.294641 -0.117114 -0.112782 -0.0630866 0.0280132 3.93456 -0.245055 1.66568 2.28682 -1.38009 -0.11676 -0.0840263 -0.0590705 
26.982 1 43 1.67278 4.10201 1.97656 0.0677367 -0.893245 -1.62565 0.61463 -0.14481 0.189885 0 0 0 0 0 0 -0.0357092 -0.106175 -0.105195 1.58302 4.03593 1.94794 -0.314095 -1.15538 -1.63348 0.629753 -0.145708 0.195718 1.95665 4.09631 1.94347 0.451359 -0.631523 -1.61533 0.599438 -0.143951 0.184111 
26.982 1 202 1.93513 1.89216 4.02882 -1.29074 -0.299797 -1.27835 -0.520988 0.351682 -0.530499 0 0 0 0 0 0 -0.0746542 -0.131094 -0.120355 2.00243 1.88066 3.96419 -1.35618 -0.429821 -1.22111 -0.529791 0.372311 -0.54517 2.06123 1.82286 4.03887 -1.22456 -0.168668 -1.33199 -0.512235 0.331002 -0.515775 
26.982 1 241 -0.0842366 3.96439 4.11971 -1.64109 -1.71658 -1.32104 -0.870177 0.212346 -0.558992 0 0 0 0 0 0 -0.128116 -0.111279 -0.128945 -0.019215 4.10141 4.06867 -1.94838 -1.477 -1.20694 -0.888893 0.232633 -0.572521 0.065941 3.75488 4.11604 -1.33214 -1.95808 -1.43177 -0.851492 0.192008 -0.545407 
26.982 1 245 3.84392 4.0541 3.88483 -7.50218 -5.51242 2.61166 0.102204 0.0611914 0.2285 0 0 0 0 0 0 -0.00485256 -0.0284371 -0.0451554 3.84956 3.91292 3.84593 -7.74154 -5.99819 2.83919 0.108972 0.0878983 0.222305 4.01034 4.12389 3.86847 -7.26112 -5.02546 2.38669 0.0953715 0.0344474 0.234732 
26.982 1 6 6.02551 2.03104 0.0022673 -0.810171 2.43463 -1.61416 -0.152376 -0.0114666 0.057757 0 0 0 0 0 0 -0.0805907 -0.104802 -0.2033 5.93778 1.93705 0.0608741 -1.29709 2.20942 -1.12716 -0.161681 -0.0037469 0.0570913 6.2635 2.04512 -0.124629 -0.32322 2.66183 -2.09702 -0.143034 -0.0192204 0.0584244 
26.982 1 9 7.9486 -0.118901 -0.189438 -3.42202 -0.728209 -0.137947 0.293308 0.000613717 0.458724 0 0 0 0 0 0 -0.015024 -0.176689 -0.104839 7.99291 -0.02934 -0.219725 -3.60721 -0.511844 -0.0975516 0.303397 0.00126218 0.457869 8.03348 -0.297578 -0.228456 -3.23429 -0.944739 -0.176755 0.283193 -4.08209e-05 0.459575 
26.982 1 12 7.86763 1.88806 2.05467 3.60353 -1.70141 1.48725 0.446215 0.433504 -0.547251 0 0 0 0 0 0 -0.0210572 -0.154775 -0.0933621 7.85857 1.86297 1.95916 3.38575 -2.07733 1.40753 0.45261 0.438809 -0.551203 8.00544 1.83275 2.0882 3.82194 -1.32403 1.56984 0.439817 0.428172 -0.543331 
26.982 1 47 6.08713 4.18829 1.97673 -0.319482 -3.30429 4.43724 -0.46469 -0.72938 -0.0720226 0 0 0 0 0 0 -0.0505111 -0.0554097 -0.112636 5.96108 4.14031 1.84879 -1.03475 -3.43711 4.28833 -0.476218 -0.742453 -0.0685173 6.36321 4.16555 2.04307 0.3956 -3.16846 4.58949 -0.453136 -0.71634 -0.0755498 
26.982 1 49 8.08097 3.96916 -0.128224 -0.86416 -1.98683 1.12488 -0.260609 -0.179125 0.0475199 0 0 0 0 0 0 -0.0161162 -0.0270903 -0.264588 8.074 3.94146 -0.0572209 -0.900661 -1.83578 1.50691 -0.262484 -0.192118 0.05406 8.21664 3.92594 -0.268311 -0.827816 -2.13526 0.745285 -0.258683 -0.166103 0.0409197 
26.982 1 206 5.79655 1.99621 3.90253 -1.34456 -2.47912 -2.92329 0.602776 0.281123 0.268254 0 0 0 0 0 0 -0.0233461 -0.128252 -0.0701695 5.81668 2.06251 3.90675 -1.47115 -2.4943 -2.85629 0.623704 0.296148 0.28174 5.92662 1.85008 3.84301 -1.2173 -2.46088 -2.98809 0.581799 0.266033 0.254785 
26.982 1 209 8.11685 0.0972923 4.00429 1.50238 -0.432967 4.35078 -0.310905 -0.550794 0.36111 0 0 0 0 0 0 -0.0220795 -0.196798 -0.145666 8.20629 0.030999 3.85799 1.49414 -0.486243 3.84183 -0.316064 -0.556708 0.375237 8.15632 0.0744449 4.09474 1.51249 -0.379311 4.86143 -0.305764 -0.544912 0.346974 
26.982 1 249 8.06451 3.95965 4.1209 -4.25946 1.59922 2.2551 -0.0655857 0.0448642 -0.19512 0 0 0 0 0 0 -0.00647447 -0.0280414 -0.0154606 8.16302 3.91629 4.02195 -4.34006 1.47505 2.35158 -0.0626442 0.0392232 -0.196576 8.09395 3.93184 4.16482 -4.18007 1.72547 2.16028 -0.0685148 0.0504913 -0.19368 
26.982 1 10 10.0083 1.87307 -0.213085 0.936882 -3.22529 -3.97115 0.0656987 0.104317 0.226387 0 0 0 0 0 0 0.0603199 -0.136586 -0.203402 10.1401 1.80959 -0.253147 1.27117 -3.35923 -4.37178 0.0692358 0.0989591 0.241483 9.98381 1.8562 -0.242306 0.603578 -3.09008 -3.56767 0.0621552 0.109716 0.211285 
26.982 1 16 11.9612 1.93998 1.91483 -4.31056 -0.547482 -2.20778 0.324673 0.334591 -0.202215 0 0 0 0 0 0 0.0598628 -0.182139 -0.161094 12.1335 1.9738 1.76775 -4.17023 -0.328674 -2.68476 0.330029 0.348502 -0.209971 11.8744 1.82505 1.99912 -4.45214 -0.767018 -1.72938 0.319353 0.320687 -0.194445 
26.982 1 51 9.86042 4.0198 1.86582 3.72675 -3.86382 3.07623 0.416159 -0.308269 0.453603 0 0 0 0 0 0 0.0212683 -0.0486088 -0.089167 9.96755 4.0983 1.80116 3.73005 -3.61309 2.96058 0.416878 -0.326823 0.47178 9.86008 3.87031 1.86746 3.72235 -4.11266 3.19253 0.415454 -0.28971 0.435365 
26.982 1 53 12.0309 3.99123 -0.0110875 -1.08247 1.21619 -0.0423825 0.398825 -0.0248019 0.116491 0 0 0 0 0 0 0.0546388 -0.0530535 -0.264213 12.2812 3.97842 -0.0616481 -0.846203 1.18552 -0.244766 0.410112 -0.0348542 0.124722 11.8661 3.93285 -0.029807 -1.31881 1.24848 0.161039 0.387543 -0.0147008 0.108225 
26.982 1 210 10.0539 1.95621 3.82874 3.22857 -0.379361 3.83893 0.043143 0.332872 0.530485 0 0 0 0 0 0 0.00757614 -0.10476 -0.0712261 10.1611 1.9249 3.64365 3.35376 -0.460585 3.55369 0.03896 0.341903 0.54009 10.0534 1.9067 3.95815 3.10213 -0.298292 4.12517 0.0473679 0.323813 0.520858 
26.982 1 213 12.0977 -0.0652534 3.92531 -0.727479 -3.20935 -0.157445 -0.145532 0.178391 0.137693 0 0 0 0 0 0 0.0253236 -0.186028 -0.190876 12.1629 -0.0274482 3.69728 -0.711846 -2.94785 -0.713279 -0.154357 0.177179 0.140941 12.1178 -0.193472 4.09722 -0.744739 -3.47189 0.398826 -0.136673 0.179612 0.134463 
26.982 1 253 12.1401 4.04434 3.9711 0.168565 -4.79593 -3.94969 -0.187227 0.213643 -0.303712 0 0 0 0 0 0 -0.00348333 -0.0127607 -0.0406877 12.2804 4.12825 4.05035 0.271718 -4.59406 -3.69181 -0.199204 0.228179 -0.305737 12.085 3.88987 3.83549 0.0634657 -4.99551 -4.20793 -0.175202 0.199113 -0.301708 
26.982 1 20 16.2681 2.23577 1.89127 4.09592 0.888414 -2.48167 -0.00552427 -0.515679 0.200648 0 0 0 0 0 0 -0.0756146 -0.203604 -0.130399 16.2756 2.13944 1.84289 4.21274 0.681192 -2.66826 -0.00615622 -0.537311 0.200419 16.3037 2.25219 1.87678 3.97921 1.09743 -2.29514 -0.00487916 -0.49401 0.200867 
26.982 1 55 14.2151 4.07179 1.93819 2.85476 -1.52897 -4.73169 -0.505522 0.0940127 -0.137265 0 0 0 0 0 0 -0.0264164 -0.0807714 -0.145931 14.268 4.07428 1.82585 3.01561 -1.46907 -5.15367 -0.524774 0.0918284 -0.150467 14.2265 3.99873 1.98744 2.69357 -1.58628 -4.30946 -0.486235 0.096208 -0.124079 
26.982 1 57 16.2528 4.21132 0.00944686 -1.38145 -1.79827 -0.558645 -0.04468 -0.26053 -0.551141 0 0 0 0 0 0 -0.0490894 -0.0633097 -0.271985 16.1566 4.29761 -0.154937 -1.44388 -1.60913 -0.940243 -0.043166 -0.271665 -0.565326 16.3921 4.05426 0.103876 -1.31863 -1.98431 -0.177504 -0.0461497 -0.249371 -0.536946 
26.982 1 214 14.0948 2.03179 3.74901 -0.0913642 -2.0698 -5.55678 0.157581 0.037407 0.347674 0 0 0 0 0 0 0.0222439 -0.157405 -0.113952 14.1464 2.05667 3.80424 0.151899 -2.02025 -5.64278 0.15302 0.0365698 0.352359 14.1072 1.92605 3.63726 -0.336168 -2.11957 -5.47159 0.162154 0.0382329 0.34298 
26.982 1 257 16.3069 3.96977 3.97175 0.458493 -1.18311 -0.348276 0.166108 0.245624 0.110214 0 0 0 0 0 0 0.00227115 -0.0405378 -0.013138 16.3814 3.96128 3.93953 0.738602 -1.16345 -0.47604 0.172933 0.256434 0.117806 16.276 3.90747 3.94796 0.180465 -1.20042 -0.220732 0.159278 0.234836 0.102557 
26.982 1 218 18.3268 1.97949 3.8352 -5.14252 -0.369723 5.55849 -0.025174 0.23777 0.364423 0 0 0 0 0 0 -0.000381534 -0.147755 -0.0339009 18.2842 1.87658 3.86297 -5.35942 -0.614803 5.60477 -0.0217705 0.237405 0.375008 18.3909 2.00264 3.75171 -4.92391 -0.121712 5.51312 -0.0285793 0.238172 0.353775 
26.982 1 18 18.1313 1.98558 -0.118927 1.90366 -4.47357 -3.2938 0.0877244 0.63724 0.302274 0 0 0 0 0 0 -0.0667452 -0.116664 -0.235311 18.1544 1.96931 -0.137491 2.11316 -4.60948 -3.27533 0.0792264 0.641363 0.301504 18.1299 1.92193 -0.169895 1.69492 -4.33444 -3.31132 0.0962585 0.633173 0.303044 
26.982 1 19 18.084 0.014191 2.01573 -2.31884 -1.25895 4.79369 0.586792 -0.240698 -0.500547 0 0 0 0 0 0 -0.0447345 -0.239119 -0.058335 18.1265 -0.0603913 1.99309 -2.20586 -1.29245 4.96072 0.60163 -0.252035 -0.510663 18.063 -0.000356198 1.97584 -2.43196 -1.22377 4.62759 0.571969 -0.229305 -0.490467 
26.982 1 21 20.271 0.0197238 0.0405366 4.93201 -3.25853 4.40886 -0.520194 -0.35389 -0.187122 0 0 0 0 0 0 0.00785745 -0.200385 -0.116883 20.297 -0.105039 0.08472 5.22113 -3.86863 4.88653 -0.535105 -0.365774 -0.179792 20.2453 0.0554537 -0.0732607 4.64398 -2.64572 3.93186 -0.505252 -0.341949 -0.194455 
26.982 1 22 22.3738 1.93223 -0.113509 0.721675 0.803166 -2.66923 -0.0357163 0.180817 0.0843416 0 0 0 0 0 0 0.00168823 -0.110763 -0.218616 22.3888 1.91297 -0.258235 0.886315 0.927049 -3.06878 -0.0241861 0.186611 0.0844973 22.3375 1.87146 -0.0383113 0.558992 0.681413 -2.26814 -0.0472266 0.175069 0.0842026 
26.982 1 24 20.2722 2.12248 1.73752 3.90166 0.289836 0.247134 -0.307239 -0.742819 0.887356 0 0 0 0 0 0 0.0104538 -0.159888 -0.0439929 20.2383 2.02557 1.77792 3.75595 0.224029 0.47293 -0.311677 -0.759053 0.911868 20.3063 2.13986 1.63431 4.04827 0.359514 0.0223018 -0.302759 -0.726539 0.862798 
26.982 1 59 18.4262 4.19472 1.98394 -0.953182 4.4592 -0.559483 -0.588447 -0.21625 0.0359632 0 0 0 0 0 0 -0.0260948 -0.0351593 -0.077675 18.474 4.11741 1.88174 -0.673179 4.50109 -0.782515 -0.605003 -0.221488 0.0436857 18.4001 4.20101 2.02333 -1.23178 4.41852 -0.336285 -0.571872 -0.210979 0.0281937 
26.982 1 61 20.2828 3.97319 -0.0869045 -4.10901 1.779 3.4908 0.0622545 0.628022 -0.422456 0 0 0 0 0 0 0.00225586 0.0109464 -0.273458 20.2657 3.93158 -0.162714 -4.16937 1.81539 3.52826 0.064522 0.641322 -0.427427 20.2998 3.94411 -0.0806897 -4.04834 1.74463 3.45495 0.0600101 0.614758 -0.417492 
26.982 1 63 22.2574 3.86831 1.84264 -2.22718 0.245038 -4.26475 0.069516 0.591584 0.778609 0 0 0 0 0 0 -0.00139003 -0.0104605 -0.0747617 22.2209 3.99307 1.65642 -2.39794 0.687965 -4.71505 0.0726953 0.612245 0.796425 22.2729 3.67231 1.96636 -2.05528 -0.195758 -3.81245 0.0663428 0.570926 0.760744 
26.982 1 222 22.2097 1.93835 4.02428 6.14227 0.965694 -0.029633 0.201851 -0.0362497 -0.228103 0 0 0 0 0 0 -0.044384 -0.145417 -0.0620024 22.1137 1.85347 3.95393 6.3113 0.891243 -0.250914 0.195793 -0.0379551 -0.233782 22.2844 1.94345 4.03899 5.97382 1.0435 0.192238 0.207969 -0.0345302 -0.222471 
26.982 1 261 20.3852 4.06061 4.05477 -4.23826 0.519462 0.199959 -0.302492 -0.117435 -0.329153 0 0 0 0 0 0 -0.00969655 -0.0350728 -0.00751879 20.3666 4.14391 4.06892 -4.51549 0.834099 0.134734 -0.311574 -0.121497 -0.326335 20.4041 3.90625 3.98507 -3.95965 0.206519 0.265648 -0.29337 -0.113348 -0.332037 
26.982 1 25 24.3602 -0.0279248 0.0694433 1.67403 4.63298 2.10744 -0.285082 0.292782 -0.400386 0 0 0 0 0 0 -0.0165064 -0.197518 -0.151452 24.2748 -0.0156567 0.116134 1.4545 4.97127 2.21629 -0.291866 0.292627 -0.424859 24.4031 -0.129369 -0.0474442 1.89596 4.29597 1.99876 -0.278274 0.293019 -0.375857 
26.982 1 26 26.3956 1.98228 0.0107324 -2.55112 -0.84392 -2.89386 -0.274846 -0.0958775 -0.0891816 0 0 0 0 0 0 0.0420556 -0.110907 -0.250082 26.402 2.0922 -0.0774293 -2.51661 -0.31043 -3.16913 -0.282819 -0.0895451 -0.103866 26.325 1.79239 0.0291508 -2.58542 -1.37614 -2.61779 -0.266881 -0.102234 -0.0744551 
26.982 1 27 26.3467 0.0771136 2.08678 1.98031 0.848557 -2.80169 0.237673 -0.336479 -0.15174 0 0 0 0 0 0 0.0788526 -0.253795 -0.0864714 26.3106 0.0994835 1.97676 2.05358 1.09468 -3.23305 0.242403 -0.344451 -0.152954 26.3183 -0.0337665 2.13372 1.90727 0.605506 -2.37205 0.232952 -0.328466 -0.150511 
26.982 1 28 24.4221 2.04728 2.08836 3.10155 3.93933 -2.47999 -0.579964 -0.384596 -0.308112 0 0 0 0 0 0 -0.0443158 -0.135315 -0.0812059 24.3023 2.099 1.93548 3.03782 4.35465 -2.72418 -0.601355 -0.389535 -0.313496 24.4993 1.91561 2.17884 3.16646 3.52674 -2.23551 -0.558555 -0.379687 -0.302756 
26.982 1 65 24.2314 3.99607 0.112387 -0.867002 -0.433371 -1.08106 0.473439 -0.026914 -0.741533 0 0 0 0 0 0 0.0211499 0.0151978 -0.273643 24.2899 3.96162 -0.0158637 -0.647606 -0.378326 -1.23744 0.487331 -0.0159552 -0.759957 24.1305 3.9595 0.171286 -1.08532 -0.487065 -0.923003 0.459522 -0.0378994 -0.723114 
26.982 1 67 26.4089 3.97659 1.87644 -0.40182 3.28948 -4.85766 0.036779 0.401355 0.459276 0 0 0 0 0 0 0.018896 0.00537988 -0.0902894 26.6206 3.96845 1.78418 0.324467 3.63349 -5.09593 0.0458438 0.423978 0.480265 26.1331 3.91406 1.90596 -1.12809 2.94862 -4.61727 0.0276909 0.378658 0.438264 
26.982 1 225 24.4392 -0.0437417 4.12295 -4.04605 6.52486 -1.84617 -0.670945 0.110214 -0.441715 0 0 0 0 0 0 -0.0365427 -0.188765 -0.128837 24.4464 -0.193764 3.99161 -4.06671 6.72113 -2.10377 -0.685625 0.114691 -0.441633 24.389 0.0176223 4.19882 -4.02496 6.33122 -1.58866 -0.656229 0.105758 -0.441845 
26.982 1 226 26.3041 1.98335 4.01141 -0.0178885 -1.7757 0.105122 0.497157 0.656313 0.341285 0 0 0 0 0 0 0.0594863 -0.0886355 -0.0229678 26.3059 1.99108 3.97297 0.116457 -1.63819 0.142621 0.513508 0.684535 0.358431 26.2379 1.89639 3.99412 -0.15201 -1.90939 0.0674657 0.480804 0.628043 0.324078 
26.982 1 265 24.2345 3.95127 3.99273 0.577465 -0.47062 0.364996 0.104255 0.445635 0.112652 0 0 0 0 0 0 0.0107063 0.00239721 -0.00769191 24.1584 3.93995 3.95583 0.482732 -0.600862 0.277257 0.120262 0.473833 0.121018 24.268 3.89134 3.97399 0.673062 -0.337261 0.454148 0.0882379 0.417411 0.104254 
26.982 1 30 30.468 1.89408 0.103562 -5.70306 1.88585 2.51617 0.280099 0.346448 -0.191888 0 0 0 0 0 0 0.0377752 -0.17311 -0.193773 30.4579 1.74938 0.0486014 -5.71406 1.75587 2.62766 0.298363 0.369592 -0.197559 30.3706 1.95901 0.0889443 -5.69279 2.01735 2.40527 0.26176 0.323251 -0.186185 
26.982 1 32 28.4451 1.98073 1.98158 -1.03165 0.0482016 1.20802 -0.169776 0.173004 0.428449 0 0 0 0 0 0 0.0574757 -0.192577 -0.0772395 28.4096 1.87185 1.97907 -0.998465 0.0439626 1.45004 -0.166143 0.190214 0.435007 28.3944 2.01008 1.92136 -1.06617 0.0545518 0.966035 -0.173448 0.155732 0.421901 
26.982 1 69 28.4337 3.98044 -0.0151805 -0.99044 5.68373 -1.11196 0.0479599 0.0139976 -0.183937 0 0 0 0 0 0 0.0157384 -0.0143221 -0.260755 28.4496 3.93335 -0.0357093 -0.968212 6.08879 -1.01871 0.0591094 0.0367807 -0.190955 28.3319 3.95644 -0.0644823 -1.01391 5.27969 -1.20487 0.0367547 -0.00884218 -0.176914 
26.982 1 71 30.3135 4.0754 2.1836 -0.888425 -1.97268 1.65638 0.52842 0.0205562 -0.489585 0 0 0 0 0 0 0.0318333 -0.0400945 -0.105646 30.3026 4.01737 2.1742 -0.907125 -2.13668 1.95842 0.541531 0.0226079 -0.503579 30.2172 4.06208 2.13089 -0.870748 -1.80847 1.35681 0.515272 0.0184436 -0.475552 
26.982 1 230 30.3935 2.09652 3.98921 -2.49283 -2.55555 3.26646 0.0311066 -0.155053 0.417217 0 0 0 0 0 0 0.00559592 -0.191978 -0.0746376 30.2946 1.89945 4.01026 -2.63438 -3.15 3.55315 0.0339228 -0.157906 0.420298 30.3853 2.21384 3.91307 -2.35166 -1.95986 2.98248 0.0282639 -0.152248 0.414134 
26.982 1 269 28.3142 4.07775 4.18508 2.3541 3.43731 -0.327135 -0.0257657 -0.0451158 -0.716443 0 0 0 0 0 0 -0.00446948 -0.0343175 -0.0345966 28.3179 4.05047 4.13674 2.51808 3.54237 -0.276438 -0.0407315 -0.0428442 -0.736376 28.2247 4.03432 4.17791 2.18938 3.33576 -0.376597 -0.0107906 -0.0474403 -0.696519 
26.982 1 35 34.5157 -0.144511 2.06708 0.486119 -0.864403 2.26551 -0.18339 0.184084 -0.159007 0 0 0 0 0 0 -0.0325504 -0.185605 -0.173345 34.4302 -0.121719 1.98601 0.704226 -0.523786 2.27231 -0.186656 0.196232 -0.16916 34.4517 -0.256534 2.08626 0.26918 -1.2057 2.26097 -0.180133 0.1719 -0.148793 
26.982 1 36 32.5392 1.92928 2.21496 3.10166 5.1673 0.315917 0.024433 0.331514 -0.625662 0 0 0 0 0 0 -0.000364025 -0.176962 -0.148761 32.5182 1.81035 2.18233 3.11404 5.4034 0.63015 0.0354424 0.356564 -0.652082 32.4319 1.96866 2.18591 3.08919 4.93403 0.00435317 0.0133857 0.306416 -0.599185 
26.982 1 73 32.4385 3.98348 0.0889295 -0.162161 -4.26349 2.37009 0.0387737 -0.0168999 -0.0922496 0 0 0 0 0 0 0.0775492 -0.0239264 -0.250266 32.3004 3.82841 0.0367721 -0.478315 -4.33509 2.43237 0.0387746 -0.0161875 -0.0894867 32.4481 4.06737 0.0714823 0.153685 -4.19084 2.30732 0.0387283 -0.0176265 -0.0949577 
26.982 1 75 34.5938 4.01338 1.93942 -3.08594 -0.242595 -3.31851 -0.334614 -0.190669 0.469841 0 0 0 0 0 0 0.0313014 -0.0372806 -0.214877 34.6504 3.91258 1.87788 -2.63958 -0.575553 -3.35096 -0.343995 -0.197499 0.468584 34.3871 4.04246 1.93863 -3.53368 0.0896833 -3.28466 -0.325218 -0.183847 0.47116 
26.982 1 234 34.5232 2.03451 4.07721 -0.777327 0.227289 3.03249 0.2205 0.0503103 -0.105157 0 0 0 0 0 0 -0.0221516 -0.0929823 -0.0873667 34.6224 1.93617 4.01598 -0.439899 0.265991 3.10612 0.222882 0.0590832 -0.107072 34.2739 2.0526 4.08365 -1.11543 0.188662 2.96217 0.218121 0.0415044 -0.103214 
26.982 1 273 32.4429 3.99973 4.11482 2.63946 -5.84488 0.55002 0.346033 0.314085 -0.242688 0 0 0 0 0 0 0.0155781 -0.0319222 -0.0582585 32.4275 3.89712 4.15169 2.81413 -6.43189 0.733824 0.358115 0.319412 -0.262368 32.3296 4.03039 4.02258 2.46357 -5.25826 0.368573 0.333925 0.308723 -0.22298 
26.982 1 4 40.6935 2.08371 2.03953 -0.0304919 -3.71251 5.21697 0.113541 -0.294 -0.294063 0 0 0 0 0 0 -0.062905 -0.194681 -0.14056 40.5829 2.13661 1.95864 -0.14001 -3.77918 5.33761 0.11189 -0.301936 -0.306403 40.5903 1.94992 2.05906 0.078866 -3.64676 5.0995 0.115175 -0.286088 -0.281638 
26.982 1 40 36.6149 1.93553 2.07716 0.163344 0.212025 4.10852 -0.0808178 0.467397 -0.485227 0 0 0 0 0 0 0.0295897 -0.106811 -0.249102 36.6358 2.04134 2.0664 0.52453 0.690362 4.43472 -0.0827443 0.48383 -0.504422 36.4226 1.74906 2.02639 -0.198489 -0.267971 3.78547 -0.0788711 0.45094 -0.465959 
26.982 1 79 38.7322 4.01306 1.95517 2.41777 -0.614895 2.52281 -0.170118 0.238617 0.533038 0 0 0 0 0 0 -0.0518384 -0.0851032 -0.159627 38.6932 4.00233 1.90765 2.49249 -0.568654 2.77498 -0.165528 0.244236 0.545953 38.5785 3.95158 1.94036 2.34214 -0.662466 2.27186 -0.17469 0.232993 0.520166 
26.982 1 237 36.4857 0.0497335 3.88234 0.891614 1.18124 4.56001 0.531184 -0.260829 0.713788 0 0 0 0 0 0 0.0382634 -0.187892 -0.162761 36.423 0.0229304 3.81309 1.10358 1.18913 4.81506 0.538056 -0.265254 0.717744 36.3768 -0.0126051 3.89666 0.678246 1.17346 4.30704 0.524322 -0.256419 0.709855 
26.982 1 238 38.6831 1.94016 3.94478 5.12193 -0.891699 6.6764 -0.205482 0.335186 0.210087 0 0 0 0 0 0 0.026054 -0.138466 -0.117297 38.6015 1.97887 3.85745 5.34246 -0.700863 6.70454 -0.209729 0.350143 0.209644 38.5723 1.82025 3.97738 4.90085 -1.08381 6.65078 -0.201214 0.320213 0.210589 
26.982 1 277 36.593 4.10808 4.02792 7.57456 -3.54317 2.02424 0.101012 -0.497676 -0.130718 0 0 0 0 0 0 0.000983915 -0.0352191 -0.0667867 36.5949 4.00863 3.90633 7.94398 -3.89679 1.96129 0.10257 -0.505902 -0.13146 36.4195 4.13528 4.09381 7.20355 -3.19237 2.08855 0.0994838 -0.489486 -0.129936 
26.982 1 42 1.74701 6.03394 -0.0991422 -3.52523 5.07518 5.69959 0.292279 0.268699 -0.0330086 0 0 0 0 0 0 -0.0482183 0.00103474 -0.202624 1.73099 5.92396 -0.119209 -3.79172 4.99498 6.00994 0.31182 0.278707 -0.0368321 1.95729 6.08195 -0.148984 -3.256 5.15677 5.38918 0.272668 0.258723 -0.0291778 
26.982 1 48 3.82376 5.98829 1.95464 2.46253 1.32365 0.6818 -0.0904936 0.454608 0.0453519 0 0 0 0 0 0 -0.0382907 -0.0103055 -0.122658 3.72455 5.93835 1.83167 2.03854 1.30146 0.390681 -0.0922502 0.464431 0.0454097 4.09565 5.97606 2.01516 2.88929 1.34754 0.973632 -0.0887723 0.444793 0.0453033 
26.982 1 81 -0.390024 8.01642 0.0859505 3.94431 2.44721 1.52643 0.589006 -0.0991371 -0.43463 0 0 0 0 0 0 -0.137373 -0.0037914 -0.13614 -0.364121 7.86923 0.186983 3.71743 2.36038 2.04349 0.594924 -0.0988529 -0.437871 -0.200823 8.11007 -0.0848928 4.17238 2.53397 1.00998 0.583029 -0.0993906 -0.431397 
26.982 1 83 1.77192 8.25686 1.88935 -7.77603 -2.86066 1.08117 0.681059 -1.03584 0.551487 0 0 0 0 0 0 -0.0988374 -0.0158342 -0.105727 1.6574 8.22671 1.82397 -8.46291 -2.72746 0.940713 0.705279 -1.0525 0.553455 2.08064 8.23329 1.89217 -7.08624 -2.99385 1.22215 0.656769 -1.01916 0.549507 
26.982 1 85 3.84099 8.20775 -0.0984755 4.37726 -0.0650691 -0.367865 -0.00968473 -0.334532 -0.0245378 0 0 0 0 0 0 -0.0190507 0.0397607 -0.255403 3.76125 8.16824 -0.238156 3.89772 0.131593 -0.487657 -0.00431124 -0.347099 -0.0252932 4.09332 8.19337 -0.0283777 4.859 -0.262004 -0.247837 -0.0150726 -0.321964 -0.0238058 
26.982 1 242 1.64366 6.21321 4.04754 -3.74378 1.72399 0.887774 0.696273 -0.354688 -0.347734 0 0 0 0 0 0 -0.124596 0.0337283 -0.0883912 1.52658 6.15353 4.05525 -4.24279 2.03389 1.19965 0.717017 -0.352706 -0.356062 1.95483 6.21028 3.98447 -3.24136 1.41462 0.578569 0.675473 -0.356693 -0.33937 
26.982 1 285 3.96899 8.01729 4.02049 4.80869 2.74505 -2.07187 -0.264175 0.0181471 -0.167535 0 0 0 0 0 0 -0.037033 -0.00918624 -0.0399964 3.78144 7.99902 3.89738 4.08274 3.17858 -2.27983 -0.269403 0.00868366 -0.180127 4.32912 7.98143 4.08832 5.53835 2.31151 -1.86181 -0.258978 0.0276125 -0.154904 
26.982 1 46 5.90354 5.94877 -0.163011 0.340315 -0.488668 -1.09126 -0.163988 0.386973 0.285045 0 0 0 0 0 0 -0.0489216 -0.00165355 -0.269488 5.88435 5.87197 -0.0254199 0.0244744 -0.42651 -0.512879 -0.180114 0.397311 0.288775 6.07331 5.96371 -0.369648 0.65679 -0.547768 -1.66784 -0.147779 0.376646 0.281261 
26.982 1 52 7.96432 6.07411 1.80299 1.37185 0.67103 -2.34637 0.048662 0.262701 0.69647 0 0 0 0 0 0 -0.00493303 0.0244059 -0.0935348 8.05613 6.05409 1.91329 1.56495 0.757667 -1.79552 0.0419382 0.268101 0.729725 8.00101 6.03247 1.62997 1.17851 0.587636 -2.89586 0.0554413 0.257311 0.66316 
26.982 1 87 5.79617 7.99982 1.96297 -4.36932 3.2663 -3.66644 0.336572 0.0257312 -0.112692 0 0 0 0 0 0 -0.00522721 0.0323045 -0.128314 5.73724 7.99514 1.9144 -4.83283 3.57164 -3.70089 0.338107 0.0274724 -0.113961 6.00574 7.95059 1.94925 -3.90385 2.96146 -3.63042 0.335073 0.0239922 -0.111444 
26.982 1 89 8.05156 8.03737 -0.114474 -5.17153 2.19286 0.596702 -0.267006 0.0519769 0.105353 0 0 0 0 0 0 0.012548 0.0749578 -0.269957 8.19453 8.02238 -0.0903381 -5.02244 2.2471 0.91323 -0.280181 0.0553064 0.112232 8.03768 7.99927 -0.207746 -5.32002 2.14011 0.282394 -0.253762 0.0486061 0.0984188 
26.982 1 246 6.08459 5.9006 4.09148 0.43076 5.16643 1.48388 -0.301442 0.423148 -0.219094 0 0 0 0 0 0 -0.00711975 0.00691317 -0.0298541 6.10992 5.94735 3.91165 0.370348 5.41958 1.10056 -0.303545 0.429813 -0.235655 6.20951 5.79159 4.21627 0.492163 4.91539 1.8679 -0.299334 0.416504 -0.202516 
26.982 1 289 8.00775 7.9957 3.9736 0.0882634 0.837012 4.27218 -0.148362 -0.303385 -0.0587032 0 0 0 0 0 0 0.00254901 2.74927e-05 -0.0308628 8.14041 7.88433 3.90712 0.219117 0.615382 4.33051 -0.151243 -0.312869 -0.0664927 8.00389 8.05361 3.98441 -0.042395 1.06037 4.21555 -0.145472 -0.29392 -0.0509147 
26.982 1 92 7.86175 9.92756 1.95344 -5.37403 -1.961 -1.43142 0.161283 0.322859 0.130066 0 0 0 0 0 0 0.00859916 0.015606 -0.156711 7.8512 9.72765 1.77379 -5.7588 -2.39475 -1.79635 0.156761 0.335903 0.137854 8.00152 10.082 2.07089 -4.988 -1.52741 -1.06406 0.165826 0.309806 0.122251 
26.982 1 286 5.93827 10.0378 4.13197 -6.21123 -0.313136 -1.4176 0.112449 0.129468 -0.529919 0 0 0 0 0 0 0.00427786 0.00793839 -0.042581 5.90745 9.95165 4.0671 -6.68184 -0.360441 -1.37442 0.116622 0.137034 -0.545283 6.12012 10.0788 4.14207 -5.73738 -0.26593 -1.45752 0.108263 0.121937 -0.51452 
26.982 1 50 10.0373 6.08768 0.102174 -1.83718 1.2093 8.85089 0.361662 -0.0445419 -0.453081 0 0 0 0 0 0 0.0562934 0.0631008 -0.26934 10.1859 6.03784 -0.0147879 -1.70922 1.20629 8.91615 0.36862 -0.0460424 -0.449503 9.99576 6.07588 0.150042 -1.96488 1.21558 8.78756 0.354722 -0.0430238 -0.456731 
26.982 1 56 12.1423 6.03104 2.03188 -1.56221 3.4401 3.81861 0.177322 -0.0207077 -0.114348 0 0 0 0 0 0 0.00896744 0.0376415 -0.126468 12.1793 5.92575 2.09583 -1.5794 3.23164 4.01327 0.183351 -0.0294891 -0.103403 12.1908 6.07522 1.90512 -1.54542 3.65295 3.62442 0.171324 -0.0119077 -0.125342 
26.982 1 91 10.1751 8.11109 1.97058 -0.572155 1.5238 5.55673 -0.570884 -0.401606 -0.0178873 0 0 0 0 0 0 0.0293026 0.0476481 -0.168089 10.2944 8.08294 1.96962 -0.425888 1.57538 5.84819 -0.58178 -0.401181 0.000570044 10.1631 8.08623 1.90932 -0.718043 1.47509 5.26779 -0.559956 -0.402063 -0.0364142 
26.982 1 250 10.1769 6.03039 3.94093 -1.20978 -2.26415 -5.57191 -0.405893 -0.108358 0.233473 0 0 0 0 0 0 -0.0028263 0.00541437 -0.0115975 10.3057 5.92353 4.01981 -1.0443 -2.47212 -5.2245 -0.414889 -0.113094 0.251567 10.155 6.07604 3.80585 -1.37647 -2.0519 -5.91902 -0.396863 -0.103597 0.215367 
26.982 1 293 12.1399 8.08741 4.0685 3.29671 0.405174 -4.55744 0.191812 -0.309655 -0.248946 0 0 0 0 0 0 0.00550674 0.00615344 -0.0465117 12.2959 7.95537 4.10679 3.31857 -0.0290832 -4.47611 0.197019 -0.313043 -0.254833 12.0696 8.16652 3.9744 3.27406 0.84188 -4.63816 0.186653 -0.306296 -0.243093 
26.982 1 54 14.1724 6.32473 -0.0469053 2.66215 -4.81835 -2.17469 0.0478745 -0.595666 -0.046826 0 0 0 0 0 0 -0.0543226 0.0391863 -0.281977 14.1201 6.46146 -0.0621588 2.49055 -4.6959 -2.00068 0.044717 -0.620462 -0.0501508 14.2888 6.12686 -0.101503 2.83314 -4.93695 -2.34873 0.0510353 -0.570877 -0.0435113 
26.982 1 60 16.1026 6.04812 1.94951 2.39479 0.322922 -1.33582 0.839981 0.104587 0.0453146 0 0 0 0 0 0 0.0112399 0.0150689 -0.107565 16.1436 6.15581 1.76713 2.65578 0.873811 -1.98901 0.85828 0.105792 0.0453085 16.1044 5.87856 2.06896 2.13288 -0.226295 -0.682228 0.821723 0.103389 0.0452964 
26.982 1 95 14.2367 7.97225 2.09749 4.13088 -6.95373 -3.77367 -0.405562 0.522064 -0.0216153 0 0 0 0 0 0 -0.0436228 0.073516 -0.168076 14.3461 7.98955 1.86151 4.43359 -7.05497 -4.45721 -0.414314 0.538436 -0.0282881 14.1912 7.90207 2.27118 3.82592 -6.85022 -3.08893 -0.396781 0.505657 -0.0149706 
26.982 1 97 16.3308 8.18528 -0.0356745 3.9577 -6.40364 -5.80123 -0.401785 -0.140822 -0.301593 0 0 0 0 0 0 0.00294689 0.109545 -0.272672 16.2681 8.24355 0.0239669 3.87391 -6.30488 -5.57136 -0.416664 -0.134441 -0.308499 16.4361 8.0735 -0.165246 4.0393 -6.50217 -6.0313 -0.386851 -0.147236 -0.294676 
26.982 1 254 14.4752 5.97754 4.09012 0.871971 1.77127 -1.0306 -1.10108 0.19824 -0.242892 0 0 0 0 0 0 -0.0355164 0.00441351 -0.0183239 14.578 5.85505 4.09586 0.928955 1.52526 -1.15387 -1.13121 0.198482 -0.242954 14.4368 6.03886 4.02841 0.813951 2.02201 -0.908024 -1.07093 0.19801 -0.242868 
26.982 1 297 16.2664 8.10887 4.00317 2.56568 -0.209641 -1.80352 0.0620433 0.228782 -0.0412048 0 0 0 0 0 0 -0.00124682 0.0335257 -0.0355184 16.3311 8.04644 3.83249 2.79619 -0.403423 -2.36433 0.0617628 0.248108 -0.0425264 16.2446 8.11828 4.11841 2.33319 -0.0139011 -1.24118 0.0623514 0.209458 -0.0399149 
26.982 1 58 18.3386 6.06974 -0.172526 1.93185 4.45702 -1.77979 -0.190176 0.0132813 0.377481 0 0 0 0 0 0 0.0284513 0.0655955 -0.277669 18.154 6.09019 -0.146483 1.55242 4.85907 -1.58124 -0.206204 0.0149786 0.391004 18.5446 5.98735 -0.268792 2.31061 4.05601 -1.97958 -0.174096 0.0115928 0.363966 
26.982 1 62 22.3157 6.04646 -0.0308556 -0.141781 -0.608573 4.44785 -0.299689 -0.0589084 -0.00573471 0 0 0 0 0 0 -0.00868454 0.104631 -0.272546 22.3285 5.97961 -0.0765817 -0.209941 -0.568316 4.45128 -0.306869 -0.0629827 0.00188783 22.2821 6.05097 -0.0547525 -0.0718332 -0.648343 4.44531 -0.29254 -0.0548302 -0.0133694 
26.982 1 64 20.2981 6.08812 2.00801 0.215044 0.531273 -1.00395 0.350449 0.0759383 -0.28486 0 0 0 0 0 0 0.0223177 0.0590142 -0.133421 20.1436 6.1699 1.82699 -0.385885 0.71462 -1.68256 0.364957 0.0751136 -0.287643 20.4528 5.94397 2.12681 0.817353 0.348129 -0.323812 0.335958 0.0767788 -0.282129 
26.982 1 99 18.2232 7.98659 1.84766 -3.45738 1.48515 -3.05812 0.161087 0.368803 0.257405 0 0 0 0 0 0 0.0399119 0.081042 -0.176901 18.2347 8.06039 1.66302 -3.4931 1.94728 -3.62366 0.159533 0.379401 0.262057 18.2331 7.8592 1.96983 -3.42182 1.02212 -2.4899 0.162685 0.358198 0.252725 
26.982 1 103 22.3756 8.07533 1.97749 2.56668 -0.172261 -2.4439 -0.32281 -0.197624 -0.427224 0 0 0 0 0 0 -0.0112186 0.0563384 -0.214746 22.102 8.05888 2.10199 1.92524 -0.12503 -2.08276 -0.32296 -0.205613 -0.428757 22.6281 8.03801 1.79065 3.21013 -0.220578 -2.80152 -0.322703 -0.189627 -0.425742 
26.982 1 258 18.3223 6.25982 3.99573 3.09701 1.2358 -1.08907 -0.233528 -0.668513 0.0742328 0 0 0 0 0 0 -0.00140395 -0.00350668 -0.00574629 18.3795 6.23153 3.88835 3.21358 1.3285 -1.41283 -0.239451 -0.681877 0.0840347 18.2869 6.22607 4.04749 2.98187 1.1437 -0.763636 -0.227593 -0.655121 0.0643601 
26.982 1 262 22.2854 6.11981 4.04881 -1.40662 -2.92104 6.24788 0.210323 -0.437897 -0.205134 0 0 0 0 0 0 0.00784987 0.00121538 -0.0220029 22.0396 6.12582 3.99171 -2.2667 -2.87479 6.26451 0.218845 -0.452276 -0.199088 22.5097 6.05138 4.0502 -0.545254 -2.96617 6.23321 0.201788 -0.423525 -0.21123 
26.982 1 301 20.3391 8.15415 3.87727 -3.24103 2.67612 2.10054 -0.107733 -0.122681 0.307924 0 0 0 0 0 0 -0.00100116 0.0180759 -0.0504943 20.2564 8.02743 3.87539 -3.87473 2.37537 2.11729 -0.115124 -0.120951 0.317896 20.4218 8.22764 3.82396 -2.60618 2.97668 2.08694 -0.100337 -0.124398 0.297883 