
# ----------------------- ATOM DEFINITION ----------------------------
lattice		fcc ${latparam}
lattice		fcc 4.05
Lattice spacing in x,y,z = 4.05 4.05 4.05
region		whole block 0 10 0 10 0 10
create_box	1 whole
Created orthogonal box = (0 0 0) to (40.5 40.5 40.5)
  1 by 2 by 2 MPI processor grid
lattice 	fcc ${latparam} orient x 1 0 0 orient y 0 1 0 orient z 0 0 1
lattice 	fcc 4.05 orient x 1 0 0 orient y 0 1 0 orient z 0 0 1
Lattice spacing in x,y,z = 4.05 4.05 4.05
create_atoms	1 region whole
Created 4000 atoms

# ------------------------ FORCE FIELDS ------------------------------

#****************USE THIS TO TEST******************
pair_style	eam/rad
pair_coeff 			* * Al99.PC5.eam.alloy.rad.txt Al # pc = 0.5

# ------------------------- SETTINGS ---------------------------------
compute csym all centro/atom fcc
compute peratom all pe/atom

######################################
# EQUILIBRATION
reset_timestep	0
timestep	0.001 # default
# timestep	0.0001 # tiny time step
velocity all create 300 12345 mom yes rot no
fix 1 all npt temp 300 300 1 iso 0 0 1 drag 1

# Set thermo output
thermo 50
# thermo 1 # debug mode

# thermo_style custom step lx ly lz press pxx pyy pzz pe temp
# IMPLEMENTATION HERE

# VERSION add rad variables .v1 .v2
# thermo_style custom step lx ly lz press pxx pyy pzz pxxrad pyyrad pzzrad pe temp

# VERSION ublb separation .v3
thermo_style custom step lx ly lz press pxx pxxub pxxlb pyy pyyub pyylb pzz pzzub pzzlb pe temp

# Run for at least 10 picosecond (assuming 1 fs timestep)
run 	20000 # default
Memory usage per processor = 7.82687 Mbytes
Step Lx Ly Lz Press Pxx Pxxub Pxxlb Pyy Pyyub Pyylb Pzz Pzzub Pzzlb PotEng Temp 
       0         40.5         40.5         40.5    2496.1233    2446.9902    76376.097   -61374.714    2534.6541    76254.584   -61496.227    2506.7256    76422.888   -61327.923       -13440          300 
      50      40.5611      40.5611      40.5611    907.43706    837.10986    70844.843   -69147.136    946.43161    71004.687   -69088.344    938.76971    71002.472   -69101.427   -13338.819    103.27149 
     100    40.636867    40.636867    40.636867   -4611.4186   -4606.0751    63935.468   -73114.618   -4633.2987    63887.745    -73120.91   -4594.8821    63937.481   -73093.942   -13373.529    171.80729 
     150    40.566371    40.566371    40.566371    544.64066    509.57779    69980.681   -68932.619    622.24374    70050.863   -68776.702    502.10046    70001.043   -68967.514   -13348.908    124.16109 
     200    40.511722    40.511722    40.511722    3547.2897    3643.2596    73802.647    -66493.94    3485.9867    73682.853   -66688.914    3512.6228    73687.822   -66641.049   -13355.216     137.9072 
     250    40.565785    40.565785    40.565785    166.93066    90.523527    69566.705   -69353.224    218.10474    69632.615   -69163.478    192.16371    69621.385    -69204.55   -13359.502    146.72328 
     300    40.611235    40.611235    40.611235   -2466.5664   -2412.8394    66526.996   -71315.382   -2483.9007    66458.495   -71388.224   -2502.9592    66464.449    -71432.84   -13360.111    149.21075 
     350    40.571353    40.571353    40.571353   -408.34084   -482.42607    68831.512   -69760.778   -346.38838    68996.296   -69652.987   -396.20806    68894.381   -69651.595   -13367.339    163.76556 
     400    40.532306    40.532306    40.532306    2225.5431    2279.8069    72118.818   -67526.846    2296.6157    72182.352   -67556.565    2100.2067     72029.48    -67796.17   -13359.854    150.41108 
     450    40.566044    40.566044    40.566044    2.0377845   -40.092854    69401.356   -69441.661   -31.888362    69398.264   -69421.737     78.09457    69508.057   -69311.711    -13363.08    157.36643 
     500    40.595966    40.595966    40.595966   -1611.3461   -1655.3283    67465.614   -70731.673   -1479.2164    67646.148   -70559.753   -1699.4934    67387.875   -70741.965   -13359.404    151.32857 
     550    40.570848    40.570848    40.570848   -161.85418   -150.03728    69224.244   -69481.092   -167.20465    69217.649   -69507.099   -168.32062    69173.178   -69465.548   -13360.736    154.75593 
     600    40.545092    40.545092    40.545092    1385.8336    1414.2998    71107.775   -68236.425    1433.0694    71165.332   -68255.211    1310.1316    70953.658   -68290.745   -13361.915    158.16074 
     650    40.566235    40.566235    40.566235    212.56633    184.02753    69727.603   -69311.049    245.48283    69800.852   -69260.323    208.18862    69799.379   -69334.408   -13358.104    151.74194 
     700    40.589999    40.589999    40.589999   -1217.4105   -1343.5854    67891.855   -70524.879   -1126.2179    68048.042    -70245.46   -1182.4283    68042.558   -70353.035   -13360.206    156.93263 
     750    40.572933    40.572933    40.572933   -250.38158   -286.45411    69051.695   -69571.582   -263.19279    69127.103   -69600.291   -201.49783    69136.183   -69486.824   -13360.538    158.57849 
     800    40.551356    40.551356    40.551356    1208.6566    1078.2928    70815.419   -68605.633    1322.2307    71096.943   -68396.922    1225.4462    70954.099   -68450.386   -13357.161    153.20685 
     850    40.567647    40.567647    40.567647     35.88215    27.354765    69450.684   -69338.457    95.437303    69512.425   -69261.159   -15.145617    69397.493   -69370.838   -13362.171    163.91834 
     900    40.586566    40.586566    40.586566   -905.95525   -936.83022    68331.456   -70143.258   -840.20578    68394.101   -70010.962   -940.82976    68295.404   -70114.145   -13360.501    161.82509 
     950    40.575685    40.575685    40.575685   -242.27646    -258.0676    69187.829   -69640.573   -191.53537    69238.306    -69555.94    -277.2264    69199.355   -69689.364   -13355.043     152.3172 
    1000    40.557624    40.557624    40.557624    865.78368    854.28577    70406.827   -68635.547     838.0004     70370.16   -68627.756    905.06486    70482.714   -68609.462   -13361.124    165.23426 
    1050    40.567354    40.567354    40.567354    296.20892     232.8234    69844.179   -69311.737     412.4804     70043.24   -69147.402    243.32297    69866.174   -69311.141   -13352.949    150.47937 
    1100    40.584443    40.584443    40.584443   -762.38408   -853.89575    68423.865   -70061.496   -674.30507    68573.851   -69847.391   -758.95143    68452.216   -69898.977   -13360.466    166.16585 
    1150    40.575983    40.575983    40.575983    -142.2806   -201.77341    69296.829   -69627.306   -30.014093    69384.391   -69365.413    -195.0543    69186.117   -69503.307    -13353.75    154.27323 
    1200    40.562401    40.562401    40.562401    595.06575    539.95132    70151.767    -68997.67    625.63845     70147.74   -68820.474    619.60749    70163.346    -68850.21    -13359.83    167.17798 
    1250    40.569413    40.569413    40.569413    166.79261    92.903564    69657.711   -69393.644    250.18713    69822.957   -69242.161    157.28713     69728.15   -69335.618   -13356.017    160.90148 
    1300    40.581899    40.581899    40.581899   -560.61752   -582.11355    68726.003   -69808.316   -449.93781    68949.809   -69763.594   -649.80119    68761.629   -69978.318   -13357.596    165.08945 
    1350    40.575948    40.575948    40.575948    -187.6128   -340.24911     69082.12   -69679.752   -119.43237    69306.191   -69457.637   -103.15693     69332.13   -69453.403   -13356.829    164.72703 
    1400    40.566127    40.566127    40.566127    565.86425    499.12344    70121.067   -69036.942    641.64272    70224.861   -68851.408    556.82658    70197.455   -68998.106   -13354.386    161.14085 
    1450    40.572988    40.572988    40.572988    -8.561472    -54.13345    69414.052   -69433.874   -9.1404528    69484.494   -69409.775    37.589487    69461.402   -69297.288   -13356.765    166.86433 
    1500    40.579794    40.579794    40.579794   -267.41446   -332.77441    69120.884   -69694.347   -176.15609    69244.933   -69500.781   -293.31287    69139.006   -69631.714   -13353.672    162.03422 
    1550    40.576834    40.576834    40.576834   -220.87916   -335.60203    69093.121   -69668.409   -207.98546    69253.404    -69568.78   -119.05001     69287.37   -69428.359    -13357.33    170.23169 
    1600     40.56902     40.56902     40.56902    377.81634    358.40758    69959.818   -69146.101    458.79305    70063.358   -69042.704    316.24838    69920.726   -69190.517   -13352.705    162.42694 
    1650    40.573333    40.573333    40.573333    121.60248    65.830518    69542.318   -69310.285    161.88969    69667.528   -69237.782    137.08722    69648.716   -69274.066     -13355.4    168.76756 
    1700    40.580701    40.580701    40.580701   -351.25931   -404.48696    69088.153   -69792.368   -356.71365    69086.983   -69691.683   -292.57732    69208.641   -69688.744   -13352.169    163.67705 
    1750    40.576849    40.576849    40.576849   -32.167301   -50.678233    69398.633   -69393.883   -63.920617    69359.004   -69376.249    18.096946     69462.07    -69319.72   -13355.552    171.33506 
    1800    40.570697    40.570697    40.570697    303.86959    205.87186    69833.748   -69312.162    337.67696    69914.388   -69123.658    368.05996    69971.108   -69125.667   -13351.254    164.18628 
    1850    40.573832    40.573832    40.573832    241.25661    160.65476    69670.869   -69236.388    291.81867    69844.286   -69142.358    271.29639     69774.26   -69119.604   -13351.989    166.73526 
    1900    40.582525    40.582525    40.582525   -408.49907   -517.11515    68900.978   -69818.814    -372.3218    68996.078   -69616.911   -336.06028    69033.426   -69590.785    -13355.88     175.4205 
    1950    40.579035    40.579035    40.579035   -121.18037    -78.31077    69494.973   -69532.377   -80.564036    69502.194   -69537.078    -204.6663    69329.574   -69620.535   -13350.032    165.23107 
    2000     40.57151     40.57151     40.57151    262.28188    197.36064    69754.358   -69239.341    289.69509    69812.169   -69105.563     299.7899    69794.407   -69073.827   -13356.433    178.77171 
    2050     40.57415     40.57415     40.57415    291.00696    438.91963     69985.14   -68981.698    282.96388    69889.524    -69193.26    151.13737    69765.187   -69337.474   -13349.034    165.59547 
    2100    40.583714    40.583714    40.583714   -349.64824   -571.69905    68901.476   -69916.393   -278.61218    69208.998   -69630.873   -198.63349    69188.386   -69454.752    -13352.82     174.0797 
    2150    40.580896    40.580896    40.580896   -115.46102   -185.78203    69383.691   -69624.525   -83.935203    69476.437   -69504.746   -76.665824    69489.346   -69511.766   -13348.342    166.55152 
    2200    40.573232    40.573232    40.573232    266.96923    327.53375    69900.628   -69109.677    145.53519    69656.619   -69225.138    327.83874    69840.852   -69050.304   -13352.358    175.46306 
    2250    40.574827    40.574827    40.574827    151.21048    253.25725    69852.112   -69204.354    168.12758     69683.81    -69203.05    32.246605    69627.923    -69425.88   -13351.993    175.91954 
    2300    40.582519    40.582519    40.582519   -229.92012   -262.55007      69274.8   -69656.545   -227.80284    69271.457   -69577.322   -199.40745    69256.863   -69513.638   -13351.098    175.32277 
    2350    40.582472    40.582472    40.582472   -261.47493   -230.22332    69212.825   -69525.569   -223.18601    69192.483   -69487.212   -331.01546    69146.833   -69664.465   -13351.015     176.3209 
    2400    40.575117    40.575117    40.575117    304.99838    318.71288    69894.845    -69107.08    230.82389    69907.353   -69290.287    365.45835     69985.41   -69108.067    -13348.88    173.33846 
    2450    40.576041    40.576041    40.576041    115.98281   -49.519186    69572.768   -69518.931    231.81908    69854.771   -69231.946    165.64854    69738.522   -69255.407   -13349.774    176.22576 
    2500    40.581993    40.581993    40.581993    -86.32248   -223.14465    69321.406   -69610.908   -50.962736    69469.721   -69410.138    15.139951    69569.127   -69385.441   -13348.601    175.08643 
    2550    40.583873    40.583873    40.583873   -280.78867    -329.5054    69138.965   -69638.461   -351.60669    69065.122   -69605.686   -161.25393    69341.951   -69508.446   -13350.803    180.51146 
    2600    40.577203    40.577203    40.577203    317.49535    231.68198    69936.627   -69310.529    393.67729    69963.801   -69010.458    327.12677    69952.894   -69139.748    -13345.69    171.77884 
    2650    40.578933    40.578933    40.578933    13.030925    144.96731    69749.668   -69293.884   -44.713472    69565.253   -69483.585   -61.161069    69506.351   -69467.467   -13350.912    183.01571 
    2700    40.583518    40.583518    40.583518   -174.83865   -293.93299    69297.203   -69716.409   -111.84152        69432    -69478.32   -118.74145    69438.435   -69509.672   -13346.798    176.21518 
    2750    40.582481    40.582481    40.582481   -39.748764   -65.184794    69484.169   -69444.041    -87.13603    69430.676   -69424.038    33.074533    69594.914   -69360.093   -13348.669    180.97912 
    2800    40.578705    40.578705    40.578705    108.86451   -19.945463     69611.28   -69476.886    191.66526    69834.179   -69265.019    154.87373    69803.027   -69322.978   -13346.376    177.70923 
    2850    40.579322    40.579322    40.579322    124.53218    81.912131    69688.617   -69346.689    124.60452    69710.965   -69273.155     167.0799    69773.868   -69266.928   -13349.584    185.05983 
    2900    40.584645    40.584645    40.584645   -69.825092    -152.5521    69435.375   -69555.326   -33.708358    69506.364   -69380.794   -23.214815    69560.468   -69427.434   -13345.868     179.0187 
    2950    40.585359    40.585359    40.585359   -182.56258   -154.04171    69354.464   -69474.194   -313.08375    69204.371   -69633.632   -80.562296    69480.116   -69459.392   -13345.484    179.44392 
    3000    40.580393    40.580393    40.580393    103.06038     17.74205    69646.068   -69421.805    199.86076     69775.22   -69177.187    91.578338    69744.744   -69376.724   -13349.988    189.30398 
    3050    40.580507    40.580507    40.580507    62.168107    44.094515    69722.903    -69440.55    20.509683    69709.789   -69465.477    121.90012     69732.07   -69297.461   -13345.218    181.21565 
    3100    40.584708    40.584708    40.584708   -107.42179   -223.08689    69385.129   -69631.957   -59.455111    69581.165   -69490.852   -39.723375    69555.788   -69442.063   -13347.434     186.6605 
    3150    40.585857    40.585857    40.585857   -139.90607   -193.02274    69385.092   -69566.284   -102.84206    69526.167   -69517.542    -123.8534    69452.756   -69501.405   -13344.327    181.78994 
    3200    40.582817    40.582817    40.582817    56.136466   -25.815173    69558.995   -69401.085    83.857537    69662.999   -69281.558    110.36703    69687.552   -69265.101   -13346.758    187.66531 
    3250    40.582883    40.582883    40.582883    202.40337    154.08445    69840.177   -69317.998    136.98617    69752.244   -69260.853    316.13948    70012.136   -69171.873   -13343.925    183.32635 
    3300    40.587578    40.587578    40.587578    -209.4339   -371.94849    69220.948   -69747.621   -87.698913    69414.526   -69368.086   -168.65429    69351.611   -69479.998   -13345.062    186.68197 
    3350    40.586577    40.586577    40.586577   -9.0566859   -69.573038    69531.845   -69451.326   -16.305688     69570.97   -69377.401    58.708669    69637.982   -69307.024    -13343.41    184.64018 
    3400    40.584833    40.584833    40.584833    -4.464904   -169.79656    69442.655   -69560.099    46.672382    69686.978   -69360.909    109.72947    69681.439   -69245.485   -13346.346    191.46455 
    3450    40.585451    40.585451    40.585451    9.8032381   -98.559471    69520.311   -69488.127    71.647379    69706.148   -69328.304    56.321806    69591.421   -69260.385   -13344.024    188.12534 
    3500    40.587697    40.587697    40.587697   -73.255431   -198.59139    69414.802   -69578.047   -60.277768    69479.352   -69362.302    39.102863    69583.574   -69278.607   -13344.644    190.47515 
    3550    40.586958    40.586958    40.586958    -56.96485   -70.538578      69618.2   -69523.766    6.9900731    69603.857     -69347.8   -107.34605    69495.277   -69479.796   -13342.497     187.4769 
    3600    40.585183    40.585183    40.585183    109.67337    96.750394    69786.365   -69355.614    58.529928    69780.559   -69418.371    173.73977    69794.098   -69212.698   -13342.391    188.41229 
    3650    40.586887    40.586887    40.586887   -3.9723187   -11.668849    69647.546   -69425.594   -45.333257    69605.947   -69443.976    45.085149    69631.846   -69304.962   -13342.044    188.88701 
    3700    40.588496    40.588496    40.588496   -27.142131   -83.336603    69476.327   -69395.188   -12.131481    69588.904   -69356.399    14.041689    69572.441   -69303.957   -13342.511    190.95338 
    3750    40.588371    40.588371    40.588371   -6.0911329    43.936973    69580.163   -69241.838   -56.088694    69541.076   -69390.464   -6.1216783    69530.404    -69297.47   -13342.317    191.72699 
    3800    40.587518    40.587518    40.587518    21.179747   -96.321442    69548.236   -69486.967    156.68462    69790.863    -69215.77    3.1760619    69615.747   -69356.447    -13342.31    192.86572 
    3850    40.588168    40.588168    40.588168    103.71552    51.378646    69700.906   -69335.394    75.437151    69746.356   -69326.397    184.33078    69854.891   -69227.373   -13339.435    188.43341 
    3900    40.590071    40.590071    40.590071   -61.991803    41.084916    69664.256   -69315.898   -163.63867    69491.919   -69544.549   -63.421652    69519.039   -69387.498   -13340.244    191.15887 
    3950     40.58905     40.58905     40.58905    26.629811   -116.89505    69527.752   -69493.059    111.68117    69768.134   -69266.905    85.103306    69725.625   -69293.429   -13340.459    192.71663 
    4000     40.58814     40.58814     40.58814    64.030856    18.996702    69715.942   -69404.236    37.882754    69765.415   -69405.771    135.21311    69747.754   -69210.088   -13340.476    193.89746 
    4050     40.58928     40.58928     40.58928    51.730888    26.058107    69650.013   -69321.383    48.279046     69747.83   -69362.293    80.855511    69690.243   -69255.233   -13339.217    192.61086 
    4100    40.591447    40.591447    40.591447    -69.41407   -80.629256    69516.988   -69395.684   -72.506139    69587.856   -69439.573   -55.106814    69520.444   -69353.238   -13342.948    200.98044 
    4150    40.591167    40.591167    40.591167     -59.3496   -170.66274    69559.444   -69611.666   -23.297654    69636.236   -69387.118    15.911595    69625.426   -69313.917    -13338.58    193.66416 
    4200    40.589402    40.589402    40.589402    126.45049    102.31182    69886.687   -69388.422    28.361074    69796.783   -69433.697    248.67858    69919.843   -69139.336   -13337.074    191.89142 
    4250    40.590375    40.590375    40.590375   -5.8786185    -95.14102    69547.983   -69440.834    71.464313    69749.813   -69298.029    6.0408519    69658.536   -69357.144   -13339.822    198.35283 
    4300    40.592312    40.592312    40.592312   -99.932489   -134.35608    69490.832   -69456.035   -92.003546     69586.51   -69458.301   -73.437843    69520.358   -69376.133   -13339.728    199.31371 
    4350    40.591432    40.591432    40.591432    30.669897   -17.453823    69650.535   -69377.969    116.38325    69778.017   -69227.829   -6.9197307    69624.331   -69344.615   -13337.239    195.64072 
    4400    40.590868    40.590868    40.590868    6.1809803   -68.690877    69562.751   -69388.573    32.701826    69673.121    -69285.74    54.531992    69685.504   -69277.313   -13340.043     202.2069 
    4450    40.592123    40.592123    40.592123   -2.7294806    31.335042    69707.637   -69329.401   -35.521345    69644.133   -69391.006   -4.0021387    69670.575   -69371.561   -13337.875    199.15199 
    4500    40.593642    40.593642    40.593642   -65.462705    36.313648    69691.856   -69301.229   -97.154892    69563.056   -69427.132   -135.54687    69485.621   -69445.755    -13337.41     199.3838 
    4550    40.592338    40.592338    40.592338   -64.277171   -161.69941    69501.809   -69500.806   -86.840811     69636.57   -69472.234    55.708711      69714.9   -69286.014   -13338.207    202.07086 
    4600    40.590278    40.590278    40.590278     249.1077    320.61637    70007.598   -69040.025    284.38178    70033.323   -69124.927    142.32493    69918.934    -69312.81   -13335.472    197.91016 
    4650    40.594313    40.594313    40.594313   -36.483052   -43.388388    69575.459   -69333.579     7.304162    69667.025   -69311.802   -73.364929    69542.516   -69363.734   -13336.259    200.57068 
    4700    40.596271    40.596271    40.596271   -162.12355   -160.59482    69434.094   -69422.841   -175.19352    69501.627   -69506.102   -150.58232    69493.199    -69462.09   -13336.155    201.50807 
    4750    40.592916    40.592916    40.592916    73.064448    98.496599    69798.681   -69261.847    218.68878    69920.285   -69132.034   -97.992039    69539.841   -69402.658   -13336.665     203.6226 
    4800    40.592243    40.592243    40.592243    93.558524    177.60258    69810.735   -69112.088   -87.323114    69693.471   -69509.823    190.39611    69831.207   -69113.122   -13336.604    204.63746 
    4850    40.595451    40.595451    40.595451    4.2171739   -108.36622    69557.376   -69426.601    56.758562    69765.319   -69287.537    64.259175    69762.901   -69288.408   -13334.982    202.63372 
    4900     40.59738     40.59738     40.59738   -207.49532   -38.513481    69560.567   -69283.349   -236.77389    69429.231    -69535.07   -347.19859    69360.998   -69704.698   -13335.657    205.06988 
    4950    40.592949    40.592949    40.592949    160.16595    79.901741    69784.113   -69262.528    153.84852    69858.533   -69176.543    246.74758    70020.937   -69175.744   -13333.532    202.08895 
    5000    40.593071    40.593071    40.593071    183.41074     268.5787    69969.668    -69065.64     243.1868    69956.398   -69090.535    38.466717    69820.136   -69384.217   -13334.242    204.58527 
    5050    40.598517    40.598517    40.598517   -115.69735   -166.07939     69428.65   -69388.394     -169.547    69609.599   -69561.611   -11.465649    69615.854   -69276.005   -13334.019    205.27643 
    5100     40.59878     40.59878     40.59878   -111.70343    -8.370906    69686.598   -69323.704   -166.12906    69505.924   -69447.949   -160.61033    69462.147   -69414.939   -13332.452    203.37832 
    5150    40.594255    40.594255    40.594255    96.931121    101.97383    69772.247   -69185.564    87.628943    69782.378   -69210.297    101.19059     69795.27   -69216.357   -13334.964    209.35602 
    5200    40.594043    40.594043    40.594043    196.29774    273.67141    69974.284   -69036.133    221.69784    69890.971   -69046.178    93.523963    69800.323   -69232.351   -13335.021    210.58986 
    5250     40.59947     40.59947     40.59947   -89.380203   -116.97376    69537.419   -69375.791   -109.49403    69649.348   -69459.186    -41.67282    69617.017   -69313.282   -13330.257    202.50162 
    5300    40.599859    40.599859    40.599859   -145.25531   -136.63669    69491.122   -69369.538   -209.45351    69459.439   -69464.996   -89.675735    69579.896   -69364.547   -13332.957    208.84095 
    5350    40.595213    40.595213    40.595213    222.90062    257.82359    69912.931    -68997.66    316.73027    70059.026     -69005.1    94.147998    69823.422   -69235.935   -13332.065    208.23568 
    5400    40.596174    40.596174    40.596174    152.99394    182.46696    69881.771   -69108.175    168.26953    69982.883   -69214.172    108.24535    69835.231   -69213.617   -13331.528    208.31029 
    5450    40.601169    40.601169    40.601169   -137.60144   -286.80303    69419.827   -69578.196   -30.046473    69694.626   -69321.682   -95.954809    69600.846   -69385.234   -13330.969    208.33875 
    5500    40.601195    40.601195    40.601195   -223.23281   -155.64611    69492.719     -69382.3   -294.77355    69348.668   -69506.077   -219.27877    69400.994    -69433.62   -13333.433    214.21786 
    5550    40.595615    40.595615    40.595615    182.19163    236.97313    69997.778   -69095.234    219.29512    69942.053     -69066.2    90.306631    69790.484   -69194.949   -13332.625    213.77091 
    5600     40.59647     40.59647     40.59647    157.71549    95.081188    69845.857   -69222.739    126.56426    69908.289   -69210.148    251.50101    69989.216    -69066.81    -13331.02    211.77575 
    5650    40.602086    40.602086    40.602086   -122.48126   -162.13077    69551.953   -69440.993   -127.35932    69616.538   -69417.612   -77.953682    69682.414    -69412.76   -13328.959    208.89658 
    5700    40.602031    40.602031    40.602031   -129.57349   -144.97713     69476.75   -69325.265    -92.19506    69580.746   -69308.023   -151.54828    69560.292   -69432.081   -13330.973    213.90323 
    5750    40.597351    40.597351    40.597351    249.95841     130.2933    69853.804   -69149.331    256.42866    70025.961   -69054.146    363.15327    70095.799   -68931.038   -13329.355    211.87752 
    5800    40.599001    40.599001    40.599001    81.368288    70.461749     69839.33   -69246.158    220.52608    69931.777   -69026.422   -46.882963     69714.92   -69364.405    -13329.51    213.28364 
    5850    40.603186    40.603186    40.603186   -204.96413   -200.81552    69500.929   -69444.022   -191.63639    69551.402    -69466.08   -222.44049    69480.795   -69476.346   -13330.974    217.21937 
    5900    40.602446    40.602446    40.602446   -126.97389   -248.41884    69510.778   -69545.641   -16.958909    69771.673   -69329.722   -115.54392    69643.839    -69418.01    -13329.54    215.52932 
    5950    40.598403    40.598403    40.598403     257.9828    272.70332    70061.182   -69048.587    348.64877    70084.681   -68908.175    152.59632    69950.514    -69184.17   -13327.614    212.91421 
    6000     40.60021     40.60021     40.60021    86.846298    101.33594    69816.622   -69144.075   -18.435667     69830.79   -69378.047    177.63862    69910.258   -69090.932   -13327.324    213.44455 
    6050     40.60381     40.60381     40.60381     -147.965   -193.76594    69527.967    -69437.25   -73.546053     69631.63   -69282.784   -176.58301    69537.026   -69418.924   -13330.172    220.05867 
    6100    40.602318    40.602318    40.602318    -26.95951    24.115571    69773.033   -69242.291    -126.5007    69659.135   -69412.204    21.506596    69808.684   -69289.363   -13327.624    216.21915 
    6150    40.600005    40.600005    40.600005    91.858136   -57.062472    69703.637   -69328.918     204.7372    69960.727    -69043.66    127.89968    69877.406   -69141.764   -13329.971    221.84627 
    6200    40.601871    40.601871    40.601871     18.81411    18.213485    69795.403   -69261.345    68.835547    69889.348   -69237.487   -30.606703    69800.889   -69375.628   -13326.581     216.3745 
    6250    40.604737    40.604737    40.604737   -124.00793   -72.865587    69651.054   -69290.692   -231.27249    69497.345   -69440.222   -67.885715    69712.727   -69354.346    -13327.32    218.88695 
    6300    40.603226    40.603226    40.603226    38.479186    -71.27144    69659.208   -69294.071     210.4996    69925.012   -68977.182   -23.790601    69695.653   -69244.885   -13327.339     220.0188 
    6350    40.602348    40.602348    40.602348    53.655171    168.57174     69914.22   -69062.457   -65.580559    69708.131   -69307.072    57.974335    69787.223   -69170.626   -13327.803    222.00053 
    6400    40.604389    40.604389    40.604389   -55.165601   -243.02272     69552.02   -69519.769    81.803234    69935.708   -69230.417   -4.2773159    69761.965   -69264.853    -13327.19    221.89227 
    6450    40.605242    40.605242    40.605242   -103.23012   -18.394609    69753.614   -69264.572   -201.09066    69596.735   -69451.116   -90.205083    69795.405   -69461.135   -13326.925    222.45568 
    6500    40.603815    40.603815    40.603815    39.068389   -146.98714    69691.006   -69455.017     -28.4868    69754.095   -69253.594    292.67911    70108.214   -69003.357   -13326.809    223.30103 
    6550     40.60387     40.60387     40.60387    22.403565    29.280286    69813.432   -69227.335    75.786435    69875.904   -69161.714   -37.856025    69753.261   -69306.405   -13324.708    220.30764 
    6600     40.60543     40.60543     40.60543    36.934272   -27.131059    69727.552   -69247.383    31.251669     69894.86   -69263.363     106.6822    69859.384    -69115.69   -13325.152    222.24729 
    6650    40.606492    40.606492    40.606492    27.935899   -38.026677    69764.181   -69296.761    291.58289    70097.262   -68936.412   -169.74852    69656.912   -69458.652   -13323.272    219.68455 
    6700    40.605902    40.605902    40.605902   -2.8302171   -32.479587    69693.581   -69214.971   -15.290284    69784.272   -69230.606    39.279221    69759.514   -69141.573   -13325.483    225.03079 
    6750    40.605041    40.605041    40.605041    116.28823    11.166754    69776.431   -69207.158    118.66357    69984.425   -69159.178    219.03438    70048.754   -69063.876     -13324.7    224.58162 
    6800    40.606317    40.606317    40.606317   -94.135085   -116.06994    69678.245   -69349.441   -53.083775    69798.741    -69314.39   -113.25154    69721.353   -69397.283   -13324.612    225.46738 
    6850    40.606909    40.606909    40.606909   -131.72414   -177.87527    69599.946   -69387.987   -112.67255     69733.79   -69360.432   -104.62461    69688.656   -69340.651   -13327.361    231.83937 
    6900    40.606457    40.606457    40.606457    38.770044   -42.543621    69736.275   -69252.746    139.77117    69989.015   -69104.027    19.082584    69831.365   -69225.992    -13323.81    226.02987 
    6950    40.607088    40.607088    40.607088    -35.87355   -57.864929    69662.811   -69203.814   -99.363756    69722.109   -69312.423    49.608035    69785.784   -69114.343   -13325.976    231.28561 
    7000    40.607798    40.607798    40.607798   -21.517973   -27.074967    69826.172   -69300.212    68.888779    69970.229   -69217.278   -106.36773    69735.239   -69367.863   -13321.758    224.17335 
    7050    40.608361    40.608361    40.608361   -85.333283   -62.294957    69723.825   -69261.682   -78.471956    69778.271   -69309.013   -115.23294    69633.311   -69282.695   -13324.227    229.99186 
    7100    40.607551    40.607551    40.607551  -0.32340728   -15.680349    69762.376   -69198.709    51.728357    69877.344    -69141.84    -37.01823    69789.863   -69268.919   -13323.223    229.10019 
    7150     40.60782     40.60782     40.60782    20.921777    45.317835    69817.055   -69127.099   -55.509065    69807.046   -69277.977    72.956561    69920.716   -69169.951   -13323.207    230.11782 
    7200    40.609482    40.609482    40.609482   -77.821672   -101.91746    69647.975    -69246.07    4.9611119    69848.819   -69188.256   -136.50867     69753.08   -69414.735   -13323.495    231.72021 
    7250    40.609913    40.609913    40.609913    50.433017   0.56460385    69780.656   -69167.267    75.008988    69901.653   -69094.782     75.72546    69909.472   -69138.362   -13321.183    228.29296 
    7300     40.60956     40.60956     40.60956    -69.90714   -13.571925    69728.857   -69143.645   -179.09254     69701.04   -69399.877   -17.056953    69787.831   -69199.267   -13321.826    230.56804 
    7350    40.608273    40.608273    40.608273    147.86894    124.22491     69987.79   -69118.389    181.66507    70101.735   -69073.661    137.71684    69996.821   -69092.453   -13319.822    227.72576 
    7400     40.61072     40.61072     40.61072   -38.902497   -22.541514     69855.16   -69269.019   -63.916036    69852.276   -69304.538   -30.249939    69813.977   -69238.577   -13321.343    231.69891 
    7450      40.6122      40.6122      40.6122   -125.41163   -226.57028    69479.291   -69300.456    -33.61997    69746.062   -69129.939   -116.04465     69621.64   -69215.338   -13322.895    235.72868 
    7500    40.610108    40.610108    40.610108   0.23229987   -85.457416    69741.203   -69272.346    5.8911509    69839.223   -69139.221    80.263165    69847.477   -69046.753   -13321.055    233.20319 
    7550    40.608593    40.608593    40.608593    216.78304    152.03962    69994.684   -69051.205    265.65517     70196.69   -68964.099    232.65434    70139.833   -69023.223   -13319.725    231.64868 
    7600    40.612333    40.612333    40.612333   -46.447022   -71.347699    69732.423   -69223.717    11.081953    69872.252   -69139.718    -79.07532    69722.029   -69220.662    -13319.66    232.54909 
    7650    40.614101    40.614101    40.614101    8.5688691   -63.097679    69707.535   -69172.458    126.74828    69978.475   -69011.966   -37.943999    69801.261   -69215.252   -13317.293     228.9811 
    7700    40.612387    40.612387    40.612387   -98.768505   -57.973541    69712.494   -69157.226   -144.42907    69806.831   -69372.829   -93.902904    69732.883   -69250.483   -13319.588    234.44054 
    7750    40.607968    40.607968    40.607968    199.50031    202.77634    70126.739   -69046.913    254.41477    70216.369   -68982.356    141.30983    69930.408   -68971.305   -13320.441    237.10839 
    7800    40.611213    40.611213    40.611213    10.113906    81.539417    69826.281    -68990.98    -64.43268    69845.203   -69248.512     13.23498    69860.851   -69148.307   -13320.135    237.51591 
    7850    40.615802    40.615802    40.615802    -190.8177   -123.93483    69660.506    -69224.62   -155.49397    69716.454   -69291.548   -293.02431    69621.037   -69509.844   -13316.958    232.37563 
    7900    40.614071    40.614071    40.614071   -62.814506    -179.3342    69590.648   -69256.705   -47.023971    69877.119   -69219.861    37.914647    69930.025    -69155.33   -13319.654    238.59408 
    7950    40.610522    40.610522    40.610522     61.91862    100.38714    70011.605   -69113.639    136.28653    70131.071   -69102.856   -50.917809     69799.86   -69201.858   -13320.447    241.13365 
    8000    40.612416    40.612416    40.612416    54.480615    36.677358    69970.023   -69195.271    96.889371    70041.038   -69091.966    29.875117    69948.214   -69178.216   -13318.108    237.59574 
    8050    40.616739    40.616739    40.616739   -201.42892   -220.49972    69601.654   -69327.212   -266.56184    69603.382   -69372.675   -117.22521    69712.356   -69231.594   -13317.484     237.3978 
    8100    40.613917    40.613917    40.613917   -29.516087   -62.473189    69805.051   -69207.761    8.6103831    69913.158   -69124.877   -34.685456    69777.703   -69128.462   -13318.824    240.98117 
    8150    40.611079    40.611079    40.611079    233.41268     250.2191    70100.434   -68877.469    199.26147    70166.204   -68988.219    250.75748    70167.337   -68945.012   -13316.499    237.46563 
    8200    40.615557    40.615557    40.615557   -73.482497   -143.76325    69704.322   -69253.783    121.83238    70032.332   -68995.719   -198.51662     69576.81   -69251.618   -13318.206    241.75524 
    8250    40.618041    40.618041    40.618041   -99.554299    28.475224    69943.525   -69140.823   -164.46411    69812.669   -69342.004   -162.67401    69682.097   -69270.984    -13314.28    235.13872 
    8300    40.614975    40.614975    40.614975    28.031927   -144.03934    69744.805   -69280.619    205.83186    70134.233   -68917.702    22.303256    69907.729   -69116.372   -13316.211    239.85171 
    8350    40.611951    40.611951    40.611951    171.74974    263.70158     70165.64   -68881.481    140.68604    70091.148   -68999.614    110.86162    70070.876    -69095.62   -13316.616    241.61323 
    8400    40.614453    40.614453    40.614453    143.17086  -0.11537715    69910.472   -69150.348    138.95256    70137.103   -69044.628     290.6754    70191.669   -68852.137   -13313.361    236.28983 
    8450    40.618979    40.618979    40.618979   -283.99859   -222.64095    69637.226   -69308.715   -181.34927    69744.416   -69281.302   -448.00554     69482.39     -69617.2   -13317.732     245.7156 
    8500    40.615661    40.615661    40.615661   -29.771671   -69.689884     69821.14   -69183.595    -99.93417     69893.85   -69256.057    80.309039    69976.568   -69050.754    -13315.56    242.47643 
    8550     40.61192     40.61192     40.61192    275.83701    274.34212    70217.012   -68884.095    321.67168    70348.423    -68863.61    231.49724    70104.117   -68873.347   -13315.123     242.6027 
    8600    40.616597    40.616597    40.616597   -150.21221    -307.5939    69626.572   -69448.411    22.330695    70020.042   -69122.055   -165.37342    69668.851   -69224.649   -13317.089    247.35868 
    8650     40.61938     40.61938     40.61938   -70.949903   -188.44591    69667.144   -69244.934   -23.889919    69893.834   -69085.704  -0.51388247    69884.816   -69103.651   -13313.832    242.01927 
    8700    40.618511    40.618511    40.618511   -118.97868   -41.616921    69887.804   -69163.942   -90.616415    69871.513   -69192.471   -224.70272    69638.407   -69302.416   -13314.804    244.84642 
    8750    40.615356    40.615356    40.615356    184.70792    24.093517    69999.468   -69138.081    267.47839    70288.897   -68880.989    262.55184    70136.629   -68821.507   -13312.664    241.65958 
    8800     40.61578     40.61578     40.61578    49.124551    51.019324    69970.444   -69054.783    85.170428    70182.901   -69128.699    11.183902    69930.934    -69115.48   -13313.827    244.86054 
    8850    40.617841    40.617841    40.617841   -30.004023   -14.969104    69948.446   -69152.285    14.218623    69987.131   -69071.748   -89.261589    69856.235    -69229.37    -13314.23    246.57563 
    8900    40.618905    40.618905    40.618905   -196.67237   -69.287145    69834.713   -69143.244   -267.14581    69667.915   -69312.725   -253.58416    69591.786   -69289.328   -13315.482    249.94202 
    8950    40.616633    40.616633    40.616633    113.56155     17.70615    70024.178   -69150.816    205.62112    70180.612    -68867.79    117.35737    70061.557   -69009.118   -13312.174    244.47327 
    9000    40.617981    40.617981    40.617981   -5.3782871   -96.290796    69849.693   -69194.468    102.10605    70106.813    -68994.17   -21.950111    69902.212   -69121.373   -13315.903    252.62496 
    9050    40.620148    40.620148    40.620148   -48.644761    26.770246    69921.527   -69017.751   -95.187336    69918.305   -69190.053   -77.517195    69852.015   -69179.057   -13311.498    245.02404 
    9100    40.620057    40.620057    40.620057   -49.592958   -174.28861    69756.659   -69247.404   -33.121107    69910.231   -69049.703    58.630846    70003.195   -69043.948   -13312.283    247.47347 
    9150     40.61758     40.61758     40.61758    150.26405    225.47259    70191.019   -68872.373    101.73932    70145.002   -69006.761    123.58025    70085.614   -68994.549   -13310.095    244.16108 
    9200     40.61774     40.61774     40.61774    72.268147    41.329583    70041.569   -69088.188    38.217779    69967.774   -68957.165    137.25708    70127.574    -69001.65   -13311.689    248.16871 
    9250    40.619622    40.619622    40.619622   -84.083887   -149.79255    69732.557   -69160.583    -69.87264    69899.787   -69096.931   -32.586469    69836.281    -69048.98   -13311.349    248.42467 
    9300    40.619538    40.619538    40.619538    119.50181    125.80622    70023.819   -68893.037     23.83651    70090.302   -69088.152    208.86271    70109.015     -68831.1   -13311.853    250.31265 
    9350    40.620623    40.620623    40.620623   -23.026387   -212.93313    69740.567   -69277.252    47.062092    70168.666    -69108.85    96.791877    70084.469   -69019.193   -13310.946    249.45277 
    9400    40.621651    40.621651    40.621651   -110.30374    55.349363     70043.78   -69032.661   -308.53971    69659.056   -69314.472   -77.720873    69868.621   -69150.838    -13310.94    250.34293 
    9450    40.620796    40.620796    40.620796    119.80518    22.147835    70022.141   -69069.906    168.09362    70204.847    -68903.43    169.17409     70157.95   -68940.706   -13308.678    246.86507 
    9500    40.621436    40.621436    40.621436   -77.654363   -94.095478    69907.979   -69180.701   -169.62014    69852.539   -69211.858    30.752526    69912.585   -68967.484   -13312.361    254.89143 
    9550    40.620956    40.620956    40.620956    80.176844   -81.439503    69875.697   -69120.991    171.10941    70201.303   -68871.544    150.86063    70137.902   -68938.095   -13310.642     252.4677 
    9600    40.623082    40.623082    40.623082   -100.37971   -50.707541    69898.027   -69073.049   -83.798674    69974.076   -69147.091   -166.63292    69823.353   -69250.824   -13311.014    254.06807 
    9650     40.62368     40.62368     40.62368   -96.708169   -111.18675     69850.54   -69140.411   -146.71085    69848.497   -69143.434   -32.226906    69878.846   -69032.608   -13309.976    252.94982 
    9700    40.621786    40.621786    40.621786    25.766695   -101.68196    69843.352   -69107.667    193.85198    70181.954   -68783.461   -14.869939    70014.605   -69123.479   -13311.217    256.23031 
    9750    40.621617    40.621617    40.621617    63.783347    45.223363    70077.566   -69038.178    18.202269    70146.222   -69091.167    127.92441    70078.257   -68895.366   -13309.015    252.84887 
    9800    40.623567    40.623567    40.623567    30.108544   -256.64207     69760.15   -69319.938    218.38384    70224.132    -68765.49    128.58387    70045.008   -68856.757   -13308.817     253.3361 
    9850    40.625018    40.625018    40.625018   -209.09391   -204.87145    69757.865    -69203.83   -333.00963    69756.381    -69387.06   -89.400642    69798.255   -69039.394    -13310.94    258.31262 
    9900    40.622237    40.622237    40.622237    148.31384    127.49748    70174.744   -68947.084    211.31408    70277.202   -68811.464    106.12996    70220.362   -69060.669   -13307.278    252.08567 
    9950    40.623383    40.623383    40.623383     1.582774    69.834119    70027.503   -68910.331   -163.62004    69863.865   -69142.481    98.534248    70020.701    -68873.94   -13310.401     258.9926 
   10000     40.62607     40.62607     40.62607   -49.067764   -32.888182    69936.562   -69010.464    31.781308    70086.592   -68963.856   -146.09642    69801.334   -69137.139   -13306.221    251.76572 
   10050    40.625601    40.625601    40.625601   -111.26613   -260.75667     69730.02   -69251.965   -93.751589    69954.173   -69079.758    20.709871    69950.537   -68940.935   -13309.037    258.07207 
   10100     40.62165     40.62165     40.62165    194.77386    28.814092    70126.122   -69064.091    505.48434    70547.401   -68471.764    50.023147    70056.218    -68983.14   -13308.396    257.68142 
   10150    40.623957    40.623957    40.623957    148.65111    67.804204    70090.719   -68944.332    36.673761    70122.076   -68973.161    341.47535    70352.153    -68687.58   -13305.783    253.47093 
   10200    40.629076    40.629076    40.629076   -266.31898   -507.92354    69473.833   -69467.764   -161.58297    69789.085   -69025.093   -129.45043    69772.418   -69041.759     -13308.7    259.95316 
   10250    40.626239    40.626239    40.626239    139.51768    308.09578     70309.06   -68668.127    15.774635    70134.695   -69002.493    94.682613    70146.708   -68960.324    -13303.86    251.42496 
   10300    40.624167    40.624167    40.624167     -32.4434   -82.799664    70005.109   -69136.983   -62.479318    70040.335    -69061.45    47.948784    70085.072   -68975.268   -13309.107    262.41275 
   10350    40.623612    40.623612    40.623612     175.4361    204.33298    70330.404   -68872.941      258.726    70334.192   -68708.708     63.24931    70071.558   -68926.825   -13305.282     255.8423 
   10400    40.627102    40.627102    40.627102   -209.12009   -222.42107        69742   -69135.153   -245.20351    69819.409   -69184.335   -159.73569    69709.393   -69009.704   -13309.194    264.24465 
   10450    40.626953    40.626953    40.626953   -37.296466   -132.87675    69871.254   -69082.315     82.48944    70119.665   -68818.137   -61.502083    70033.277   -69121.095   -13306.088    259.05202 
   10500    40.625844    40.625844    40.625844     3.606221    -58.26973     69942.42   -69002.966   -86.758565    70031.907   -69067.948    155.84696    70203.791   -68852.246   -13306.912    261.45961 
   10550    40.625595    40.625595    40.625595    111.78184    112.94411    70181.146   -68886.882    309.47861    70542.544    -68768.62   -87.077194    69971.716   -69097.346    -13304.68    257.95671 
   10600    40.628278    40.628278    40.628278   -8.4171661     70.80722    70118.609   -68898.692   -24.293744    70094.271   -68982.337   -71.764974    69907.316   -68989.638    -13304.87    259.13252 
   10650    40.629525    40.629525    40.629525    -76.00165    29.818683    70100.712   -68949.314    -84.45566     69863.79   -68880.669   -173.36797    69793.027    -69070.56   -13304.625    259.46901 
   10700    40.627011    40.627011    40.627011    47.009139   -16.427123     70041.45   -68980.103    162.61651    70179.274   -68691.372   -5.1619706    69996.933   -68934.608   -13306.004    262.94252 
   10750    40.625683    40.625683    40.625683    101.81504    128.92511    70217.698   -68864.553    169.09554    70269.997   -68758.523    7.4244807     70138.51   -69041.312   -13304.619    261.05812 
   10800    40.628883    40.628883    40.628883   -57.759356   -232.59692     69878.05   -69231.279   -42.288746    70108.405   -69004.414     101.6076    70108.367   -68813.301   -13305.472    263.48864 
   10850    40.630171    40.630171    40.630171   -214.60569     -342.753    69648.383   -69219.659   -101.34117    69989.584   -68999.122    -199.7229    69710.675   -69014.918   -13305.818    264.95585 
   10900    40.625775    40.625775    40.625775    151.63751    78.462207    70199.202   -68918.247    158.15176    70333.904   -68810.987    218.29857    70240.164   -68701.758   -13303.888    262.00642 
   10950    40.625825    40.625825    40.625825    156.99311    351.87784    70446.424   -68603.782    28.857647    70185.519   -68915.831    90.243849    70255.622   -68958.882   -13304.334    263.65212 
   11000    40.629465    40.629465    40.629465   -4.6147152   -257.73613    69806.206   -69176.756    122.77483    70177.504   -68714.977    121.11715    70198.136   -68832.756   -13303.002    261.85318 
   11050    40.631044    40.631044    40.631044   -216.10871   -397.60634    69663.353   -69308.767   -158.54736    69978.413   -69064.036   -92.172443    69889.742   -68951.109   -13305.477     267.4096 
   11100    40.628304    40.628304    40.628304   -8.2088922    -27.43093    69973.872   -68877.207   -7.8096948    70088.658   -68872.655    10.613949    70072.533   -68919.366   -13304.539    266.35772 
   11150    40.626833    40.626833    40.626833    47.524497   -24.750529    70089.709   -68972.367    171.35739    70295.272   -68712.156   -4.0333658    70053.964   -68922.105   -13304.416    266.89007 
   11200    40.628827    40.628827    40.628827    66.135866   -26.759252    70096.638   -68973.823    -54.27607     70135.28   -68988.734    279.44292    70307.863   -68599.757   -13302.796     264.5124 
   11250    40.631237    40.631237    40.631237   -205.72997   -313.74178    69696.523   -69143.009   -196.51809    69909.817   -69038.941   -106.93004     69938.79   -68992.966   -13303.694    267.01032 
   11300    40.627988    40.627988    40.627988    145.36804    303.85977    70403.319   -68603.675    46.112924    70274.409   -68906.943    86.131426    70147.844   -68816.889   -13301.625    263.75624 
   11350    40.627598    40.627598    40.627598    123.42655    49.406004    70209.943   -68913.457     151.7312    70331.406   -68745.593    169.14245     70244.58   -68730.424     -13302.5    266.19717 
   11400    40.631013    40.631013    40.631013   -77.358293   -166.48749    69914.028     -69039.1    -50.58186    70122.527    -68927.04   -15.005531    70109.157   -68949.985   -13302.024    266.01716 
   11450    40.632363    40.632363    40.632363   -19.472944    -90.11872    69953.152   -68919.709   -33.678407    70166.721   -68926.079    65.378293    70053.187   -68734.705    -13300.91    264.60553 
   11500    40.630696    40.630696    40.630696   -3.0508462   -160.00149    69900.877   -69004.348    48.513397    70166.033   -68760.778    102.33555    70113.981   -68715.587   -13301.475    266.43476 
   11550    40.628804    40.628804    40.628804    126.34517    150.27522    70196.952   -68668.951    126.02328    70278.613   -68710.942    102.73703    70187.142   -68781.608   -13302.117    268.41079 
   11600    40.630261    40.630261    40.630261    73.233627   -189.57979     69970.94   -69112.442    117.34552    70240.977   -68683.858    291.93515    70376.877   -68583.387   -13300.928    266.82904 
   11650    40.634013    40.634013    40.634013   -181.24677   -102.18677    69925.147   -68879.751   -93.849952    70011.958   -68868.364   -347.70358    69738.919   -69215.003   -13302.663    270.90194 
   11700    40.633111    40.633111    40.633111   -58.957529   -187.11382    69968.964   -69088.646   -111.76711    70103.149   -68991.627    122.00834    70248.841   -68779.758   -13300.459     267.3539 
   11750    40.630416    40.630416    40.630416    24.711564   -45.483729    69979.771    -68822.65    126.59345    70238.712   -68644.584   -6.9750275    70033.382   -68825.147   -13302.282    271.58763 
   11800     40.63046     40.63046     40.63046    26.762155   -93.700409    70011.494    -68931.12     19.32279    70269.429   -68866.591    154.66408    70200.883   -68660.042   -13302.153    272.05155 
   11850    40.633042    40.633042    40.633042   -87.038853   -104.27361    69997.139   -68934.209    -134.4311      70059.6   -68961.071   -22.411855    70106.417   -68908.086   -13300.574    269.69782 
   11900    40.633192    40.633192    40.633192   -79.570443    23.165684     70057.35    -68731.82   -28.753296    70043.496   -68739.274   -233.12372    69876.044   -69094.632   -13299.843    268.98867 
   11950    40.631173    40.631173    40.631173    118.26227     10.00073    70191.494   -68880.107    122.41582    70298.689   -68672.431    222.37025    70362.072   -68659.874   -13301.134    272.18158 
   12000    40.632786    40.632786    40.632786   -78.056303    59.459661    70144.603   -68730.449   -129.93546    70083.698   -68955.546   -163.69311    69875.059   -68944.778   -13301.306    273.20595 
   12050    40.633253    40.633253    40.633253   -112.85073   -227.21485    69867.155   -69017.697   -134.45662    69993.305   -68874.879    23.119281    70035.259   -68721.304   -13301.911    275.06268 
   12100    40.631762    40.631762    40.631762    74.823908    125.98572    70253.384   -68691.397   -51.757588    70155.851   -68861.994     150.2436    70283.475   -68697.807   -13300.219    272.47072 
   12150    40.632564    40.632564    40.632564    51.699905    67.557455     70192.43   -68733.905    36.367176     70192.99   -68713.193    51.175083    70197.662   -68804.766   -13299.354    271.46837 
   12200    40.635215    40.635215    40.635215   -52.400902   -178.48675    70025.541   -69048.977   -65.642467    70058.938   -68780.259    86.926515     70212.69   -68737.009   -13298.614    270.70756 
   12250    40.635432    40.635432    40.635432   -130.77979   -126.65134    69966.575   -68887.935   -32.035334    70189.411   -68829.653   -233.65269    69816.227   -68973.327   -13301.017    276.02303 
   12300    40.632938    40.632938    40.632938    135.49607    51.613656    70190.866   -68751.219    68.905016    70297.927   -68730.702    285.96953    70397.178   -68505.795   -13298.193     271.2239 
   12350      40.6338      40.6338      40.6338    110.79204   -4.0624609    70140.936   -68800.833    156.24311    70236.272   -68496.531    180.19546    70423.873   -68731.587   -13298.862    273.17917 
   12400    40.636491    40.636491    40.636491   -84.226133   -156.34843    69919.098   -68878.286   -53.223318     70054.77    -68724.52   -43.106656    69964.713   -68726.674   -13298.516    273.16508 
   12450     40.63608     40.63608     40.63608   -105.43112   -113.94969    70042.003   -68909.617    31.671273    70226.911   -68714.887   -234.01495    69895.538   -69023.913   -13299.057    274.85802 
   12500     40.63349     40.63349     40.63349    73.301941   -126.24504    69992.656   -68879.205     99.61075    70353.563   -68690.843    246.54011    70297.191   -68458.085   -13299.132    275.65091 
   12550    40.634765    40.634765    40.634765    108.36807    158.23465    70337.222   -68649.356    4.7940989    70239.079   -68757.488    162.07545     70328.54   -68647.703   -13297.624     273.3763 
   12600    40.638009    40.638009    40.638009   -209.13169   -344.18259    69817.033   -69123.341   -95.649934    70084.527   -68796.543   -187.56254    69983.122    -68995.68   -13298.598     275.8979 
   12650    40.635318    40.635318    40.635318    42.289504    47.830192    70274.334   -68784.589   -45.030418    70188.169   -68783.639    124.06874    70288.882   -68673.867   -13299.196    277.68473 
   12700    40.634776    40.634776    40.634776    50.474438   -38.278257    70112.854   -68796.678    52.429299    70350.287   -68738.483    137.27227    70291.791   -68642.283    -13298.83    277.60061 
   12750    40.637413    40.637413    40.637413   -54.674044    116.52329    70264.656   -68629.876   -89.556189    70112.103   -68781.249   -190.98924    69876.327   -68880.995   -13297.222    275.11887 
   12800    40.637637    40.637637    40.637637    17.392318    -212.4068    70029.425    -69042.94    113.15086    70312.783   -68577.629     151.4329    70254.468   -68562.502   -13296.433    274.21775 
   12850    40.636444    40.636444    40.636444   -3.2089293    27.118558    70306.305   -68827.567   -64.830864    70166.775   -68785.018    28.085518    70254.319    -68800.75   -13296.615    275.18459 
   12900    40.635496    40.635496    40.635496    112.85919   -16.130395    70163.904   -68764.731    171.77843     70439.15   -68567.122    182.92953     70399.51   -68631.296   -13296.632    275.83382 
   12950     40.63761     40.63761     40.63761    70.575063    60.800672    70202.854   -68637.872    54.946595    70216.306   -68572.321    95.977923    70306.424   -68700.819   -13296.897    276.95357 
   13000    40.639634    40.639634    40.639634   -170.17992   -259.99103     69898.27   -68960.205   -351.17303    69832.042   -68985.677    100.62431    70194.438   -68573.893   -13298.108    279.90085 
   13050    40.637291    40.637291    40.637291   -3.4885987   -69.042692     70117.48    -68799.93    144.65744    70476.963   -68620.304   -86.080541    70123.451   -68870.017    -13297.37    279.07051 
   13100    40.635236    40.635236    40.635236    285.64911    315.25233    70629.896   -68534.864    260.62272    70587.655   -68504.089    281.07229    70500.931   -68507.509   -13293.252    271.69647 
   13150    40.639057    40.639057    40.639057   -181.74363   -167.99126    69960.982   -68827.097   -151.01727    70086.938   -68822.489   -226.22236    69860.411   -68878.823   -13298.159     281.7789 
   13200     40.63981     40.63981     40.63981    56.183701   -181.40784    70095.684   -68963.159    247.79395     70481.79   -68410.073      102.165    70214.247    -68573.72   -13294.232    274.76961 
   13250    40.638489    40.638489    40.638489   -86.426982   -235.51017    70006.985   -68975.958   -189.17544    70128.773   -68920.525    165.40466    70351.053   -68582.981   -13297.241    281.17201 
   13300    40.635856    40.635856    40.635856    92.943918    58.114107    70308.691   -68691.832    243.30267    70504.411   -68431.167    -22.58502    70210.301   -68807.895   -13296.341    280.00382 
   13350    40.637821    40.637821    40.637821   -11.807637   -71.060899    70177.295   -68813.682   -55.137929     70245.58   -68754.001    90.775916     70239.99   -68594.401   -13297.248    282.32932 
   13400    40.640089    40.640089    40.640089   -244.51189   -222.86359    69985.916   -68920.413   -325.95106    69928.113   -68965.847     -184.721    70110.419   -68999.146   -13296.377    281.21349 
   13450    40.637708    40.637708    40.637708    224.67057    299.08332    70567.485   -68441.242    228.42859    70490.416    -68422.39     146.4998    70331.725   -68559.526   -13293.736    276.66879 
   13500    40.638508    40.638508    40.638508   -35.183139   -224.25489    70093.643   -68994.617   -23.668273    70204.708   -68635.446    142.37375    70298.515   -68528.617    -13294.82     279.3269 
   13550    40.638004    40.638004    40.638004   -29.545736   -110.31045    70150.372   -68814.401    48.517033    70419.109   -68689.575   -26.843796     70074.36   -68648.255   -13296.986    284.07303 
   13600    40.637313    40.637313    40.637313    2.9985382    -20.30025    70231.901   -68708.292   -156.28401    70222.845   -68904.927    185.57988    70396.178   -68521.911   -13296.215    283.12797 
   13650    40.638396    40.638396    40.638396   -14.068008   -114.53994    70135.784   -68792.341    18.101605    70290.465   -68614.879    54.234306    70396.948   -68778.379   -13294.578    280.50422 
   13700     40.63977     40.63977     40.63977   -24.028045   -31.566892    70252.184   -68726.273   -88.182613    70186.931   -68709.931     47.66537    70207.392   -68616.446   -13294.035    279.99381 
   13750     40.63924     40.63924     40.63924    52.050265    -17.10691    70304.803   -68732.381   -89.977532    70328.195   -68839.001    263.23524    70538.115   -68488.514   -13293.941    280.34795 
   13800    40.638391    40.638391    40.638391    110.32958    153.57904    70369.904   -68454.233  -0.92167679    70393.469   -68716.769    178.33139    70438.288   -68557.248   -13292.726    278.53424 
   13850    40.638572    40.638572    40.638572     76.64713   -45.554201    70300.378   -68769.398    116.22915    70402.443   -68487.012    159.26645    70380.308   -68536.844   -13294.325    282.15374 
   13900    40.640473    40.640473    40.640473     9.791836   -57.548615    70246.639   -68733.488    19.475116    70288.027   -68563.822    67.449007    70294.554   -68617.356   -13293.875     281.8037 
   13950    40.642547    40.642547    40.642547   -155.24301   -131.91731    70044.381   -68680.953   -131.80256    70127.851   -68705.944   -202.00915     70013.11   -68867.612   -13295.158    284.80494 
   14000     40.64039     40.64039     40.64039   -35.655012   -332.61646    69990.584    -69018.63     52.87647    70471.153   -68662.878    172.77495    70426.879   -68528.097   -13293.769    282.62806 
   14050    40.638549    40.638549    40.638549    49.507167    87.248983    70380.821   -68564.892    4.9390984    70328.663   -68610.924    56.333419    70334.028   -68654.608   -13295.744    286.96311 
   14100    40.639947    40.639947    40.639947      2.72087    13.003139    70427.718   -68744.629   -31.598315     70234.63   -68587.993    26.757785    70349.884   -68712.956   -13294.216    284.51509 
   14150    40.641101    40.641101    40.641101    30.233658   -3.9348283    70335.541   -68676.629    187.21131    70482.946   -68382.521   -92.575504    70102.626   -68708.329   -13291.686    280.12516 
   14200    40.641083    40.641083    40.641083   -50.158484   -149.02153    70204.729    -68838.72   -41.156181    70277.222   -68628.891    39.702255    70285.488   -68620.827   -13294.162    285.40899 
   14250    40.641189    40.641189    40.641189    22.345014    12.646576    70284.981   -68596.302   -142.41608    70233.137   -68778.857    196.80455    70481.565   -68495.662   -13294.206    285.98202 
   14300    40.641404    40.641404    40.641404    104.07924    43.143855     70327.04   -68567.966    68.220708    70591.409   -68695.969    200.87317    70451.614    -68458.25   -13290.024    278.38251 
   14350    40.641892    40.641892    40.641892    -1.845087   -72.708735    70194.163   -68668.206   -198.09654    70176.391   -68809.816    265.27002    70560.742   -68428.465   -13293.086    284.79306 
   14400    40.641417    40.641417    40.641417   -36.180675   -153.97295    70226.031   -68845.862   -44.451724    70139.944   -68466.953    89.882649    70333.702   -68540.566   -13295.188     289.3449 
   14450    40.640686    40.640686    40.640686    108.74009    143.41713    70653.098   -68662.343    101.92335    70533.597   -68550.812    80.879783    70277.121    -68496.03   -13291.498    282.67855 
   14500    40.643262    40.643262    40.643262   -14.583012    32.320591    70244.114    -68490.17   -48.607513    70449.288   -68753.461   -27.462113     70232.36   -68666.299   -13292.327    284.74998 
   14550    40.642986    40.642986    40.642986   -37.790055   -226.65181     70101.39   -68849.089     65.67136    70338.964   -68423.062     47.61028    70339.386   -68616.288   -13292.161    284.89494 
   14600    40.640718    40.640718    40.640718    64.243243    64.196799    70517.728    -68669.06   -6.1570565    70444.719   -68654.473    134.68999    70444.437   -68536.608   -13292.745    286.48662 
   14650    40.641474    40.641474    40.641474    18.583595    65.058129    70477.807   -68625.866   -126.14258    70379.795   -68816.965    116.83524    70432.696   -68547.072   -13292.072    285.64295 
   14700    40.643283    40.643283    40.643283   -80.770125     20.17634    70425.532   -68654.915   -145.49623    70200.131   -68678.976   -116.99048    70168.273   -68747.695   -13293.395    288.65391 
   14750      40.6432      40.6432      40.6432    18.825638    12.131751    70412.774   -68652.591   -5.8742923    70309.054   -68499.643    50.219456    70344.236   -68577.001    -13291.05    284.57408 
   14800    40.641828    40.641828    40.641828    59.688144     13.38137    70300.145   -68533.676   -6.9829497    70475.131   -68648.955    172.66601    70528.731    -68505.62   -13291.847    286.56654 
   14850    40.641895    40.641895    40.641895    66.260735    -31.36407    70329.683   -68641.068    59.560317      70535.3   -68565.529    170.58596    70532.557   -68507.145   -13291.946     287.1986 
   14900    40.644253    40.644253    40.644253    -137.8918   -28.810621    70290.964   -68592.497   -283.00416    70116.681   -68830.729   -101.86061    70214.552   -68726.195   -13293.074    289.82247 
   14950    40.643903    40.643903    40.643903   -25.902299   -149.35746     70123.82   -68671.084   -19.989706    70265.734    -68447.06     91.64027    70327.398   -68453.952   -13291.409    287.03537 
   15000    40.641649    40.641649    40.641649     121.2001    369.62337    70761.096   -68250.653   -105.35529    70436.691   -68770.509    99.332208    70407.168   -68503.205    -13291.13    286.92694 
   15050    40.640804    40.640804    40.640804    124.25808    130.95532    70537.974   -68498.229    266.91166    70664.246   -68255.324   -25.092751    70431.705   -68761.384   -13290.189    285.52842 
   15100    40.643721    40.643721    40.643721    68.421529    56.283599    70317.229   -68426.508    34.445267    70427.417   -68471.336    114.53572    70436.185   -68486.311    -13289.81    285.21211 
   15150    40.646227    40.646227    40.646227   -260.38134   -424.20211    69912.809   -68962.129   -211.45708    70284.186   -68798.782   -145.48484     70116.47   -68680.157   -13291.683    289.25668 
   15200    40.641762    40.641762    40.641762    130.30459    204.55067    70669.497   -68449.312    116.31639    70555.666    -68420.55    70.046715    70542.535   -68665.274   -13290.562    287.49797 
   15250    40.641099    40.641099    40.641099    98.566659     46.09651    70464.684    -68555.83    79.674937    70496.117   -68430.106    169.92853     70437.19   -68367.176   -13292.078    290.84329 
   15300    40.644544    40.644544    40.644544   -118.84699    75.931577    70414.604   -68439.319   -140.47862    70331.887   -68686.984   -291.99393    70104.558    -68938.84   -13292.477    292.02294 
   15350    40.645904    40.645904    40.645904   -177.19528   -169.86276    70112.366   -68628.372   -274.56886    70177.069   -68789.166   -87.154236    70344.243   -68763.154   -13291.589    290.70199 
   15400    40.643297    40.643297    40.643297    83.933268    152.76898    70539.523   -68401.039      41.9908    70582.966   -68550.442    57.040018    70433.195   -68571.406   -13289.785    287.61095 
   15450    40.643212    40.643212    40.643212   -47.128333    -3.393349    70439.757   -68598.128   -127.31612     70257.74   -68565.582   -10.675524    70327.477   -68578.373   -13293.994    296.15045 
   15500    40.644556    40.644556    40.644556   -10.913815    130.34848    70551.565   -68436.825   -50.513648    70384.295    -68526.56   -112.57628    70325.201   -68776.456   -13289.964    288.73837 
   15550    40.645592    40.645592    40.645592   -114.97909   -134.85099    70228.499    -68641.23   -47.571431    70462.845   -68581.206   -162.51484    70174.024   -68724.397   -13290.329    289.82883 
   15600    40.643746    40.643746    40.643746    55.880874    222.32778    70585.122   -68273.479   -81.345277    70348.743   -68535.387    26.660114    70345.044   -68504.481   -13290.832    291.18802 
   15650    40.643304    40.643304    40.643304    147.72957    187.86622    70620.311   -68374.977    99.284361    70590.419   -68406.177    156.03812    70475.985   -68367.625   -13288.079    286.24089 
   15700    40.645435    40.645435    40.645435   -95.613541    108.29415    70573.578   -68464.917   -140.73087    70360.118   -68641.793    -254.4039    70205.071   -68899.223   -13291.127    292.51058 
   15750    40.645221    40.645221    40.645221   -119.59063   -210.43333    70149.307   -68666.217     -83.1876    70381.219   -68544.313   -65.150955    70327.346   -68647.593    -13290.72    292.09127 
   15800     40.64282     40.64282     40.64282    128.44945    151.43527    70540.771   -68326.381   -10.250141    70481.673   -68499.289    244.16322    70684.671   -68376.685   -13290.004    291.06987 
   15850    40.643562    40.643562    40.643562    255.12946    184.87633    70600.224   -68321.892    204.18276    70779.711   -68363.956    376.32928    70828.015    -68248.74    -13286.28     284.2209 
   15900    40.648933    40.648933    40.648933   -203.49251    -85.01199     70322.84   -68570.396   -224.27456    70187.793   -68623.044   -301.19097    70065.205    -68839.14   -13289.703    291.20079 
   15950    40.647235    40.647235    40.647235   -177.93799   -277.47371    70184.984   -68799.342   -130.23204    70228.733   -68469.754   -126.10822    70182.428   -68600.456   -13291.204    294.46058 
   16000    40.641642    40.641642    40.641642    253.28201    245.03511    70727.304   -68289.497    116.57843     70738.53   -68469.833    398.23248    70781.098   -68137.872   -13290.572    293.59034 
   16050     40.64468     40.64468     40.64468    44.585677   -2.5265583    70402.869   -68450.339    193.21688    70743.905    -68324.52   -56.933291    70393.186   -68649.807   -13289.491    291.84188 
   16100    40.648092    40.648092    40.648092   -96.521565   -56.646929    70335.591   -68481.405   -213.35102    70266.675   -68659.001   -19.566745    70352.695   -68532.805   -13287.606    288.53645 
   16150    40.646183    40.646183    40.646183   -124.85479    -223.7641    70215.243   -68686.814    -140.8099     70316.42    -68563.35   -9.9903647    70422.198   -68566.234   -13291.657    296.70436 
   16200    40.643683    40.643683    40.643683    260.25256    311.88632    70778.913   -68181.625    121.74351    70704.518   -68405.117    347.12785    70762.225    -68188.74   -13286.817    287.67145 
   16250    40.647248    40.647248    40.647248   -64.881933    27.348632    70446.023   -68410.628   -187.98853    70296.965   -68613.127   -34.005901    70269.114     -68457.2   -13289.246    292.70305 
   16300    40.647707    40.647707    40.647707   -300.11993   -413.03993     69983.08   -68813.236   -163.64314    70196.953   -68458.925    -323.6767    70049.541   -68807.298   -13292.628    299.56755 
   16350    40.643982    40.643982    40.643982     184.8353    291.46572    70730.171   -68141.326    92.583257    70672.834   -68402.335    170.45693    70579.567   -68341.202   -13288.662    292.21654 
   16400    40.646359    40.646359    40.646359   -120.05301   -36.129501      70485.7   -68538.593   -117.08587    70450.205   -68588.695   -206.94367    70126.769   -68645.338   -13290.463    296.02097 
   16450    40.646194    40.646194    40.646194     131.3871    117.35014    70498.455   -68249.263    123.33839    70669.779   -68322.024    153.47277     70529.37   -68315.737   -13286.527    288.71751 
   16500    40.645997    40.645997    40.645997    19.115891    199.68744    70598.194   -68186.264   -44.688078    70468.471   -68449.817   -97.651693    70252.424   -68531.868   -13287.923    291.72469 
   16550    40.645018    40.645018    40.645018      139.161    245.82592    70714.451   -68199.251    67.598466    70744.678   -68486.538     104.0586    70624.894   -68493.494   -13286.999    290.23117 
   16600    40.646961    40.646961    40.646961   -47.628543   -26.188985    70426.369   -68445.701   -115.06211    70382.938   -68496.076   -1.6345282     70395.85   -68473.522   -13288.658    293.73898 
   16650    40.647639    40.647639    40.647639   -163.65753   -132.37627    70306.046   -68536.491   -199.92358    70248.651   -68530.192   -158.67272    70251.723   -68634.207   -13289.088    294.86789 
   16700    40.644928    40.644928    40.644928    90.328838    3.7104478    70481.899   -68429.165    156.31857    70625.593   -68187.186     110.9575    70630.263   -68460.402   -13289.441    295.84883 
   16750    40.645008    40.645008    40.645008    66.487621    308.01568    70909.854   -68223.701   -9.2102034    70562.218   -68442.753   -99.342608    70367.849   -68617.585   -13287.397    292.18604 
   16800    40.646982    40.646982    40.646982   -28.647079    -1.732685    70490.363   -68422.179   -113.97574    70548.157   -68613.238    29.767187    70402.039   -68391.829   -13288.147    293.92404 
   16850    40.647575    40.647575    40.647575   -113.98103   -112.42947     70334.38   -68490.267   -158.39772    70341.717   -68503.137   -71.115905    70299.815   -68488.301   -13289.385     296.6021 
   16900     40.64558     40.64558     40.64558    185.06392    171.88758    70712.583   -68294.806    257.47412    70810.645   -68140.997    125.83005     70598.27   -68381.468   -13286.361    291.02729 
   16950    40.646624    40.646624    40.646624   -8.3386466    105.91063     70554.34   -68265.932   -153.59331    70435.852   -68576.085    22.666735    70463.595   -68444.343   -13288.359    295.16891 
   17000    40.647892    40.647892    40.647892     -84.9798   -202.79434    70301.186   -68619.523   -84.437064    70468.174   -68459.487    32.292003    70491.515   -68445.347   -13288.971    296.61817 
   17050    40.647433    40.647433    40.647433   -41.121248    62.970544    70549.885   -68333.434    -258.0537    70364.288   -68699.002    71.719408    70542.837   -68408.145   -13287.587    294.20613 
   17100    40.646208    40.646208    40.646208    51.590538   -157.36983    70427.906   -68644.639    181.58593    70731.278   -68184.258    130.55551    70582.383   -68326.286   -13288.503    296.24409 
   17150     40.64691     40.64691     40.64691   -65.900093    88.764333    70558.008   -68280.569   -136.20971    70466.349   -68549.268    -150.2549    70162.959   -68465.379   -13288.567    296.63092 
   17200    40.647071    40.647071    40.647071   -5.7301942    85.350031    70647.668   -68374.088   -56.817588    70595.458   -68507.176   -45.723026    70472.378   -68544.092   -13287.799    295.40475 
   17250    40.647511    40.647511    40.647511    -25.19417   -189.67004    70367.135    -68633.33    87.685232    70612.861   -68229.625    26.402299    70526.895   -68448.683   -13287.151     294.4074 
   17300    40.646197    40.646197    40.646197    51.128973   -28.626207    70457.103   -68400.176   -66.967949    70623.181   -68534.246    248.98108    70897.427   -68352.079   -13286.795    293.97096 
   17350    40.645704    40.645704    40.645704     25.76403    133.32117    70622.274   -68233.624   -41.976564    70470.883   -68330.908    -14.05252    70496.183   -68485.015   -13287.693    295.95127 
   17400    40.646821    40.646821    40.646821    88.993293   -51.853742    70485.347   -68461.156    109.37425     70757.11   -68300.222    209.45937    70690.307   -68228.872   -13287.471    295.76596 
   17450    40.649304    40.649304    40.649304    -91.48287    7.8513218    70377.297   -68238.051   -111.95574    70560.014   -68531.432   -170.34419    70367.542     -68656.2   -13287.294    295.65469 
   17500     40.64965     40.64965     40.64965   -125.92975   -340.24098    70094.514   -68633.658    26.244848    70546.993   -68247.884   -63.793135    70352.713    -68426.02   -13288.019    297.29323 
   17550    40.646417    40.646417    40.646417    4.3014998   -46.704835    70561.349   -68496.413   -108.84987     70478.82   -68445.057     168.4592    70588.507   -68185.931   -13288.223    297.92335 
   17600    40.644359    40.644359    40.644359    139.68143    106.22348    70648.913   -68281.362    162.31823     70826.07   -68230.745    150.50258    70666.631   -68289.254   -13287.957    297.64168 
   17650    40.647422    40.647422    40.647422    14.878034    216.79361    70845.721   -68235.806   -132.52787    70574.994   -68559.866   -39.631644    70530.296   -68522.312   -13285.756    293.60247 
   17700    40.650624    40.650624    40.650624   -138.79927   -55.326369    70441.836   -68371.281   -197.14582    70390.028   -68509.712   -163.92561    70255.204   -68499.949   -13288.721    299.56013 
   17750    40.649172    40.649172    40.649172   -36.150917    61.241998     70509.74   -68206.924    19.197546    70641.057   -68328.795    -188.8923    70297.221   -68584.253    -13286.87    296.19526 
   17800    40.646619    40.646619    40.646619    134.11957     266.8086     70866.39   -68133.927    61.829198    70719.314   -68316.357    73.720902    70731.029   -68471.875   -13285.681    294.11104 
   17850    40.648224    40.648224    40.648224   -10.097739   -112.46807    70508.758   -68529.862   -4.1572798    70585.427    -68303.75    86.332135    70627.198   -68336.524   -13287.112    297.09284 
   17900    40.649757    40.649757    40.649757   -213.19533    -135.9982    70361.628   -68428.023   -465.20502    70155.802   -68786.372   -38.382757     70411.95   -68368.963   -13288.333    299.66476 
   17950    40.646153    40.646153    40.646153     133.7404    157.47713    70795.137   -68252.609    242.56937     70918.39   -68129.451    1.1747135    70534.033   -68405.266   -13286.412    296.14748 
   18000    40.646559    40.646559    40.646559    169.63043    205.26381    70834.441   -68188.961    36.418296    70651.916   -68277.242    267.20919    70774.672   -68105.961   -13287.075    297.62351 
   18050    40.652159    40.652159    40.652159   -295.84138   -172.97238    70229.282   -68348.153   -283.00239    70306.345   -68564.505   -431.54937    70010.269   -68739.862    -13288.39     300.3592 
   18100    40.650501    40.650501    40.650501    -73.75406   -73.999733    70477.131   -68390.991    -130.0967    70503.861   -68448.583   -17.165743    70441.788   -68331.399   -13285.795    295.52623 
   18150    40.646245    40.646245    40.646245    96.166344    155.87866    70869.806   -68307.464   -60.233594    70592.844   -68388.387    192.85397      70760.3   -68210.947   -13287.652    299.30984 
   18200    40.646927    40.646927    40.646927    175.47057    206.98394    70784.068   -68120.981     341.3466    71042.163   -68024.688   -21.918825    70519.522   -68405.373   -13285.156    294.66771 
   18250    40.652093    40.652093    40.652093   -179.84718   -56.152416    70447.709    -68308.46   -468.95038     70164.33   -68766.693   -14.438737    70470.094   -68336.905   -13286.688    297.81787 
   18300     40.65108     40.65108     40.65108   -146.48119   -204.13115    70430.519   -68569.876   -120.05816    70482.825   -68385.448   -115.25425    70533.618   -68577.534   -13286.354    297.34563 
   18350    40.647339    40.647339    40.647339    152.34576    345.38026    70952.304   -67982.554    116.05076    70750.455    -68179.63   -4.3937254    70437.895   -68274.249   -13287.164    299.08915 
   18400    40.648314    40.648314    40.648314    39.840227    111.98087    70676.419   -68174.708    -97.70683    70679.052   -68519.005    105.24664    70557.867   -68174.907   -13284.387    293.89244 
   18450    40.649518    40.649518    40.649518   -43.171992   -2.8361551     70519.09   -68248.054     129.5971    70820.279   -68197.452   -256.27692    70302.151   -68622.694   -13286.612    298.36329 
   18500    40.648505    40.648505    40.648505    101.24795    218.24174     70878.89   -68152.803    15.561833    70765.409   -68357.641     69.94029    70576.786    -68238.89    -13284.19    293.83806 
   18550    40.648958    40.648958    40.648958   -52.247421   -4.6820598    70596.497   -68318.884   -196.79381    70326.649   -68344.152    44.733607     70611.16   -68317.521   -13288.345    302.03487 
   18600    40.649113    40.649113    40.649113   -56.733612   -3.5033343    70550.594   -68276.687   -90.042583    70573.479   -68365.088    -76.65492    70411.629   -68356.493   -13286.397    298.41916 
   18650    40.648364    40.648364    40.648364    68.655145    224.00438     70900.43   -68145.558   -188.23487    70515.583    -68487.77    170.19593    70805.326    -68239.84   -13286.073    297.94127 
   18700    40.650336    40.650336    40.650336   -80.376999   -141.46978    70506.814   -68473.881   -13.513316    70703.028    -68314.35     -86.1479    70429.791   -68374.693   -13285.705    297.38366 
   18750    40.650298    40.650298    40.650298   -128.58808   -83.145517    70389.153   -68249.541    -205.1903     70458.92   -68456.923   -97.428425    70359.701   -68316.431   -13287.988     301.9554 
   18800    40.646816    40.646816    40.646816    138.77851    312.50042     71047.62   -68090.223    83.938646    70799.951   -68211.322     19.89647    70651.737   -68365.032   -13284.734    295.80138 
   18850    40.648234    40.648234    40.648234    30.728254   -38.662071    70677.128   -68415.687   -7.3471006    70731.239   -68310.688    138.19393    70676.563   -68152.449   -13286.842    300.01921 
   18900    40.650992    40.650992    40.650992    -42.95928    148.55719    70709.841   -68072.111   -127.39375    70491.197    -68314.82   -150.04128     70383.61   -68429.846   -13285.424    297.41421 
   18950    40.650288    40.650288    40.650288   -100.85335    -181.3983    70442.281   -68451.764    62.860203    70731.521   -68162.076   -184.02196    70395.309   -68498.145   -13286.265    299.17496 
   19000    40.647024    40.647024    40.647024    214.95262    284.83887    70899.658   -67971.272    51.056801    70786.811   -68229.597    308.96218     70954.03   -68054.439   -13285.026    296.90714 
   19050    40.649705    40.649705    40.649705   -81.133724   -129.00732    70603.716   -68482.447    75.547217    70684.272   -68072.893   -189.94107    70269.457   -68363.903   -13286.857    300.57186 
[...]
   13800        0.138    291.00261    7.7081202  0.024272743 -0.0045248811   -6.6826337   0.97489906    14.378115    150.42255   -13024.964    -25759.56 
   13850       0.1385    289.48167    7.6931768 -0.019929264  -0.08086121   -6.6803629   0.96150508    14.360784    149.63635     -13022.5   -25307.954 
   13900        0.139    291.70069    7.7764968 -0.020065687  0.036329728   -6.6741643    1.0481681    14.439927    150.78339   -13021.951   -25975.869 
   13950       0.1395    292.40459    7.7633246  0.034195037  0.055360884   -6.6672197    1.0409526    14.419874    151.14724   -13020.605   -26176.268 
   14000         0.14    290.29233    7.7626058 -0.019044665 0.0027132017   -6.6688633    1.0456462    14.413559    150.05539   -13017.814   -25820.915 
   14050       0.1405    292.06281    7.7758053 -0.058294545 0.0016094312   -6.6742614    1.0492734    14.435684    150.97057   -13017.015   -25730.401 
   14100        0.141    291.80496    7.8211659 0.00028761018 -0.017408969   -6.6712291    1.0938279    14.480882    150.83729    -13015.17   -26013.482 
   14150       0.1415    297.26935     7.847889  0.039829398  0.040463454   -6.6670661    1.1229829    14.504296    153.66189   -13016.276   -26427.273 
   14200        0.142    294.94924    7.8306521 -0.022628759 -0.015413473   -6.6634492    1.1133367    14.479025     152.4626   -13013.352   -25975.366 
   14250       0.1425    285.96849    7.7274369 -0.019690775 -0.013715348   -6.6569525    1.0176967    14.367934    147.82035   -13007.005   -25646.769 
   14300        0.143    294.08148     7.854946  0.040805067  0.032335478   -6.6557877    1.1412733    14.498911    152.01404   -13009.485   -26426.955 
   14350       0.1435    290.28478    7.8710878 -0.0011355756  0.010547296   -6.6527687    1.1631905    14.508918    150.05149   -13005.791   -26268.332 
   14400        0.144    292.02666    7.8550118 -0.054338121 -0.010967788   -6.6539052    1.1447137    14.494573    150.95188   -13004.963   -25965.686 
   14450       0.1445    291.36909    7.8812951 -2.5298705e-05 -0.0035149583   -6.6520586    1.1700918    14.520957    150.61198   -13002.891   -26259.183 
   14500        0.145    293.05698    7.9126564  0.024818975 0.0090266216   -6.6438667    1.2171887    14.536449    151.48447   -13002.023    -26488.34 
   14550       0.1455    291.11591    7.8783456  0.041595587 -0.004925422   -6.6424132    1.1793948    14.504168    150.48111   -12999.279   -26383.386 
   14600        0.146    289.72465    7.8605182 0.0018716117 -0.035585746   -6.6394194    1.1599622    14.486224    149.76195   -12996.828   -26089.347 
   14650       0.1465    291.52433    7.8626249  0.020558716 -0.030841571   -6.6393467    1.1636199    14.485961    150.69222   -12996.022   -26174.474 
   14700        0.147    287.28328    7.8480441 -0.0015077067  -0.02289151   -6.6320386    1.1583465    14.461521    148.49998   -12992.095   -26078.816 
   14750       0.1475     287.2113    7.8283047 0.0036588903   0.01924008   -6.6256104    1.1369518    14.441781    148.46277   -12990.327   -26170.679 
   14800        0.148    290.08169    7.8122967  0.013847228  -0.02782856   -6.6243529    1.1231541    14.422295    149.94651   -12990.084   -25994.385 
   14850       0.1485    292.33905    7.7421444 -0.0042803489 -0.0072748583   -6.6218711      1.06244    14.342111    151.11336   -12989.525   -25768.631 
   14900        0.149    294.43287    7.6449516 0.0047456205  0.006668966    -6.614756   0.97683302    14.231699    152.19568   -12988.895   -25521.221 
   14950       0.1495    296.24667    7.5168203   0.01744676  0.010321422   -6.6070624   0.84853722     14.10044    153.13325   -12988.155   -25148.628 
   15000         0.15    296.72472    7.4013875 -0.046167886  0.052676284   -6.6068213   0.73249278     13.98237    153.38037   -12986.745   -24692.986 
   15050       0.1505    304.25068     7.289207  -0.03265575  0.018369654   -6.6017858   0.62881033     13.85757    157.27062   -12989.017   -24249.736 
   15100        0.151    303.02416    7.0944295 -0.051498951 0.0042977033   -6.5882426    0.4412507    13.649124    156.63662   -12986.819   -23490.761 
   15150       0.1515     314.8956    6.9117087  0.021293995  0.039251207   -6.5708787   0.27503445    13.442723     162.7731   -12991.459   -23240.846 
   15200        0.152    315.38381    6.6090598  0.059737802 -0.026761326   -6.5570193 -0.012435969    13.116578    163.02546   -12990.283   -22140.121 
   15250       0.1525    318.88193    6.2813558 -0.013337772 -0.011751581   -6.5445382  -0.32576896    12.763844    164.83368    -12990.77   -20854.222 
   15300        0.153    329.15876    5.9459889 -0.0053411582  0.031617617   -6.5302431  -0.64640317    12.400349    170.14589   -12994.899   -19907.551 
   15350       0.1535    334.15201    5.6073996  -0.02804573 -0.032032207   -6.5203607  -0.98317087    12.042744    172.72695   -12996.433   -18491.072 
   15400        0.154    335.01225    5.1941277   0.05202696 -0.054712672   -6.5010585   -1.3853318     11.59706    173.17162   -12995.982   -17304.806 
   15450       0.1545    339.12061    4.8524245  0.089519224 -0.046115315   -6.4808171   -1.7183896    11.222477    175.29528   -12997.384   -16319.428 
   15500        0.155    343.58505    4.5517803  0.043632239  0.028933698   -6.4715332   -2.0203883    10.895562      177.603   -12999.148   -15414.488 
   15550       0.1555    349.23647    4.2293884 -0.002056156 -0.023993203   -6.4727486   -2.3650119    10.562832    180.52429   -13001.647    -14011.13 
   15600        0.156    345.61369    3.9967499  0.008089561 -0.067938347   -6.4703755   -2.6235384    10.319077    178.65163   -12999.486   -13123.004 
   15650       0.1565    355.10777    3.8298894  0.051691972 0.0024924364   -6.4623995   -2.8134802    10.134453    183.55923   -13004.207   -12946.913 
   15700        0.157    351.42257     3.737719 -0.014077183   0.03788408   -6.4652466   -2.9445359    10.035701     181.6543   -13002.195    -12538.42 
   15750       0.1575    358.45769    3.6579491 -0.0030485794  0.084621272   -6.4738495   -3.0688903    9.9529313    185.29084   -13005.733   -12465.073 
   15800        0.158    355.47998    3.5921901  -0.03839707  -0.01969733   -6.4822265   -3.1732534    9.8756402    183.75163   -13004.129   -11780.319 
   15850       0.1585    351.43079    3.5356221 -0.093812591 -0.018556763   -6.4863586   -3.2677612    9.8027875    181.65855   -13001.971   -11410.843 
   15900        0.159     364.8669    3.5427921  0.098405366 -0.0077872278   -6.4811176   -3.2795621    9.7717166    188.60383   -13008.866   -12111.368 
   15950       0.1595    356.19129    3.3844364  0.085001001  0.026523006   -6.4805395   -3.4549108    9.5698549    184.11931   -13004.367   -11653.201 
   16000         0.16    363.57135    3.2883991 -0.0093785823 0.0022126777   -6.4953759   -3.6019099    9.4601304    187.93414   -13008.194   -10937.444 
   16050       0.1605    365.11109     3.128248 -0.054426062 -0.026985662    -6.497093    -3.789489    9.2602674    188.73005   -13008.979   -10156.121 
   16100        0.161    370.08371    3.0150355 -0.0099875136   0.01871793     -6.49783   -3.9312451    9.1077951    191.30046    -13011.61    -10079.22 
   16150       0.1615    370.83635    2.8453768  0.019332986  0.053176832   -6.4965538    -4.130871    8.8997037    191.68951    -13012.12   -9726.2886 
   16200        0.162    378.03957    2.7892592  0.055630419  0.041186128   -6.5038294   -4.2363453    8.8216378    195.41293   -13016.033   -9620.2524 
   16250       0.1625     373.1588    2.5389907  0.066212881  -0.11165943   -6.5156814   -4.5263411    8.5383313    192.89001   -13013.757   -8311.8137 
   16300        0.163     374.8996    2.3623098  0.074424775  -0.14920376   -6.5168834    -4.744987    8.3323764    193.78985   -13015.001   -7625.1029 
   16350       0.1635    382.63058    2.2940821   0.06315873 -0.026724197   -6.5103454   -4.8352316     8.218195    197.78608    -13019.47   -7768.3888 
   16400        0.164    380.30727    2.1500847    0.0121782  0.041511768   -6.5079503   -5.0067794     8.032619    196.58513   -13018.697   -7345.9156 
   16450       0.1645    378.87379    2.0035787 -0.052340343  0.092383079   -6.5081739   -5.1964614    7.8561642    195.84415   -13018.358   -6812.0716 
   16500        0.165    383.34234    1.8617953  -0.10359716   0.09925781   -6.5140775   -5.4073764    7.7083341      198.154   -13021.126   -6191.5197 
   16550       0.1655    386.85065     1.803676  0.035131414 -0.0061033968   -6.5164902   -5.5378399    7.6462341    199.96748   -13023.506   -6109.0134 
   16600        0.166    387.79546    1.7171409 -0.041273482 -0.051024979   -6.5238465   -5.6982745    7.5599573    200.45586   -13024.545   -5416.1414 
   16650       0.1665    386.74329    1.7093358  0.076839358 -0.042310129   -6.5211493   -5.7044532    7.4845286    199.91199   -13024.593   -5812.8835 
   16700        0.167    388.86679    1.6343085  0.049165309  0.022115554   -6.5233428   -5.7927884     7.357326    201.00965   -13026.333   -5685.2979 
   16750       0.1675    386.10678    1.5964394 -0.039171896 -0.0060042019   -6.5379264   -5.8757216    7.2967998    199.58296    -13025.55   -5170.8777 
   16800        0.168    394.07978    1.5770454 -0.012819212 -0.010615069   -6.5428062    -5.938638    7.2517938     203.7043   -13030.307   -5178.7038 
   16850       0.1685    392.40986    1.5734607 -0.0060250071 -0.0081855909   -6.5429802   -5.9766041    7.2149156     202.8411   -13030.121   -5197.5003 
   16900        0.169    391.79696     1.579787   0.10645107 -0.044236454   -6.5401896   -5.9652954     7.153019    202.52428   -13030.495   -5473.3387 
   16950       0.1695    387.58396    1.5544042  0.047897714  0.025430158   -6.5470849   -6.0220239    7.0935806    200.34653   -13029.029   -5425.7737 
   17000         0.17    391.69935    1.5421989 -0.055575788 -0.019208832   -6.5575766   -6.0525955    7.0320232    202.47383   -13031.852   -4891.3811 
   17050       0.1705    386.92695    1.4884058 -0.041700297 -0.024794695   -6.5521113   -6.1429986    6.9429133    200.00692    -13030.04   -4739.7027 
   17100        0.171    383.67815    1.4558597 -0.0077109956  0.077863311   -6.5422862   -6.2013683    6.8623578    198.32758   -13029.031   -5086.7069 
   17150       0.1715    393.88257    1.4755461  0.045144501  0.063335249   -6.5413391    -6.232852     6.855298    203.60236   -13035.035   -5280.0861 
   17200        0.172    384.79627    1.4208353 -0.050745809 -0.055164584   -6.5540889   -6.3436563    6.7749272    198.90555   -13031.048    -4383.083 
   17250       0.1725    390.80312     1.439334  -0.05529157  -0.05350203   -6.5532837   -6.3854937    6.7702065    202.01056   -13034.845   -4435.1346 
   17300        0.173    389.74777    1.4413677  0.051808789  0.059416454   -6.5381938   -6.4142196    6.7195578    201.46504    -13035.02   -5175.3097 
   17350       0.1735    391.54363     1.494419  0.088326024  0.067063251   -6.5359382   -6.4037247    6.7269965    202.39333   -13036.663   -5499.3609 
   17400        0.174    394.93153     1.386677 -0.016852696 0.0069006943   -6.5569324   -6.5846185    6.6013187    204.14458   -13039.169   -4589.0832 
   17450       0.1745    391.52248    1.3847862  -0.11758415 -0.042135774   -6.5664072   -6.6147203    6.5417251     202.3824   -13038.116   -4083.5544 
   17500        0.175    395.53172    1.3710729 0.0035905558  0.052627406   -6.5549773   -6.6328404    6.4518428    204.45482   -13040.939   -4757.6361 
   17550       0.1755     388.7407    1.3046167  0.083098486  0.040742715   -6.5511586   -6.7506422    6.3492481    200.94447   -13038.174   -4761.5265 
   17600        0.176    387.61423    1.3451975  0.040277587 0.0093846206   -6.5598714   -6.7860573     6.370169    200.36218   -13038.354   -4649.5324 
   17650       0.1765    389.33577    1.1987386 -0.075971553  -0.10111027    -6.574929    -6.971815    6.1665296    201.25206   -13039.979   -3405.5227 
   17700        0.177     390.6426    1.2161529 -0.060889173  0.011740789   -6.5643213   -6.9851189     6.116478    201.92758   -13041.421    -3890.015 
   17750       0.1775    389.95107    1.3590803   0.02600683  0.076207038    -6.551273   -6.8958118     6.213651    201.57012   -13041.822   -4870.9806 
   17800        0.178    388.20934    1.3330116  0.097678474  0.073942531   -6.5515175   -6.9523594    6.1195486     200.6698   -13041.658   -5015.4419 
   17850       0.1785    392.63185    1.2284649   0.10442231 -0.088139339   -6.5631057   -7.1252276    5.9777186    202.95585    -13044.74   -4149.1596 
   17900        0.179    388.21643    1.1191871 -0.040326125  -0.13051576   -6.5834882   -7.3131573    5.8406834    200.67347   -13043.215   -3161.1508 
   17950       0.1795    389.86731     1.185017 -0.043973976 -0.038446781    -6.579749   -7.2904937    5.8483715    201.52683    -13044.86    -3675.321 
   18000         0.18    388.75928      1.24759  0.032638885 -0.0054759418   -6.5665176   -7.3166802    5.8937941    200.95407   -13045.059   -4249.1765 
   18050       0.1805     388.4357    1.3285145  0.073279698  0.078766804   -6.5588569   -7.2991397     5.930263    200.78681   -13045.649   -4935.2034 
   18100        0.181    386.57142    1.2380388  0.062495771   0.10221958   -6.5655523   -7.4458733    5.7908331    199.82314   -13045.462   -4675.8471 
   18150       0.1815     397.9622    1.1262931 -0.059847116  0.016965504   -6.5898624   -7.5831815    5.6023441    205.71116   -13052.142   -3611.3715 
   18200        0.182    386.70589    1.0471937  -0.13752513  -0.12353221   -6.6091932   -7.7278617    5.4899205    199.89265   -13047.077   -2620.4546 
   18250       0.1825     394.8271    1.1209112 -0.032620483   0.01448023   -6.5930085   -7.6639392     5.482034     204.0906   -13052.093   -3675.9033 
   18300        0.183    387.78504    1.1964364  0.048006077   0.07188904   -6.5780767   -7.6680847    5.5401347    200.45047   -13049.239   -4387.7716 
   18350       0.1835    387.08206    1.2137367 -0.0015931206   0.11469475   -6.5763218    -7.644702    5.4546343     200.0871   -13049.668   -4422.7945 
   18400        0.184    391.30638    1.1735967 -0.013364151 -0.0038303574   -6.5926797   -7.7265542    5.3586655     202.2707   -13052.678   -3854.6739 
   18450       0.1845    389.32619    1.1271053 -0.035330389  -0.11533933   -6.6030922   -7.8653234    5.2974773    201.24712   -13052.403   -3254.7854 
   18500        0.185    382.04815    1.1364021  0.019662652 -0.078028957   -6.5957383   -7.9157746    5.2573856    197.48501   -13049.423   -3593.4527 
   18550       0.1855    390.87765    1.2327455  0.072181376  0.086389418   -6.5787023   -7.8930232    5.3172458    202.04908   -13054.743    -4637.721 
   18600        0.186    396.17832    1.2647788  0.058698707   0.06252672   -6.5808106   -7.9277675    5.2982006    204.78906   -13058.285    -4620.014 
   18650       0.1865     384.4525    1.2280297   -0.1118591 -0.023570913    -6.596571   -8.0027556    5.1841821    198.72785   -13052.988   -3641.9989 
   18700        0.187    388.49368    1.2284784 -0.079066864 -0.040343693   -6.6001028    -8.045632    5.1221073    200.81678   -13055.839   -3696.8928 
   18750       0.1875    389.18303    1.3209374 -0.010680474  0.066132952   -6.5837599   -7.9897489     5.151817    201.17312   -13056.965   -4587.9664 
   18800        0.188     386.1058     1.332081   0.11712684  0.083051891   -6.5784636   -8.0058059    5.0913853    199.58246   -13056.117   -5107.5325 
   18850       0.1885      384.702    1.2476339 -0.0073354529 0.0034565014   -6.5898674   -8.1551284    4.9583181    198.85682    -13056.15   -4145.8499 
   18900        0.189    384.66373    1.1687925 -0.092357828 -0.048979653    -6.603679   -8.3715125    4.8908908    198.83704   -13056.857   -3424.8502 
   18950       0.1895    395.51192    1.2350812  0.027767175 -0.020614289   -6.5964609   -8.3610834    4.8972759    204.44459   -13063.229   -4140.7803 
   19000         0.19    378.98918    1.1501441  0.012166513 -0.025531479   -6.5958333   -8.4559609    4.7151132     195.9038   -13055.442   -3789.2638 
   19050       0.1905    387.61941    1.1367401   0.12777482 0.0064263401   -6.5927483   -8.4655071    4.5885427    200.36486   -13060.647   -4236.4709 
   19100        0.191    385.70198    1.1159255 -0.037046316  0.023357423   -6.6062302   -8.5806893     4.537258    199.37372   -13060.427   -3674.1221 
   19150       0.1915    386.53321    1.0857961 -0.016195891 -0.019901586    -6.604079   -8.7332842    4.5004713    199.80339   -13061.579   -3498.9954 
   19200        0.192     385.5587     1.090416 -0.0014207943  -0.00961978    -6.606772   -8.7722002    4.4316288    199.29966   -13061.828   -3597.9182 
   19250       0.1925      381.164    1.1555136 -0.035659554  0.019390482   -6.6029647   -8.6934762    4.3725996    197.02799   -13060.286   -3797.4817 
   19300        0.193    389.03181     1.194345  0.030486506   0.10550442   -6.5982722   -8.7506263    4.3880446    201.09495   -13065.093    -4434.453 
   19350       0.1935    377.66378    1.1810355 -0.036496313 -0.023293605   -6.6049296   -8.8495663    4.3420789    195.21868    -13059.96   -3737.4853 
   19400        0.194    384.98533    1.1240802  0.031507733 -0.054207063   -6.6057614   -9.0128577    4.2752643    199.00328   -13064.441   -3671.2697 
   19450       0.1945    381.38593    1.0808835  0.030384572 -0.038904163   -6.6042313   -9.0772199    4.1377582    197.14271   -13063.304   -3574.5463 
   19500        0.195    380.89279    1.0675193 0.0024422387  0.034502455   -6.6014916   -9.0768028    3.9956441     196.8878   -13063.772   -3681.5467 
   19550       0.1955    380.04329    1.0948515 -0.00095820485 0.0065305545   -6.6030632   -9.0554595    3.9088454    196.44868   -13064.041   -3668.0793 
   19600        0.196    384.71164    1.1750214  0.016750462  0.064105404   -6.5969383    -9.154331    4.0353697     198.8618   -13067.148   -4186.2577 
   19650       0.1965    369.22355     1.016534 -0.095062777 0.0077902741   -6.5962986    -9.344112    3.7829944    190.85583   -13059.869   -3097.5383 
   19700        0.197    375.65019    1.0280438 -0.014181062 0.0037700741   -6.5988208   -9.3426445    3.6863726    194.17784   -13063.927   -3392.1092 
   19750       0.1975    381.40547    1.0404183  0.023180125 -0.016286545   -6.5954984   -9.4529421    3.6942878     197.1528   -13067.595   -3491.0397 
   19800        0.198    380.55633    1.0235517  0.060801435 0.0086847831   -6.5917941   -9.5621539    3.6388413    196.71388   -13067.864   -3643.4596 
   19850       0.1985     380.7584   0.99162643   0.10413245  0.023323468   -6.5959454   -9.6122315    3.4941461    196.81833    -13068.69   -3730.2745 
   19900        0.199    377.58425   0.92544335 -0.0082770011 -0.079140986   -6.6126602   -9.7824612    3.3885752    195.17757    -13067.76   -2793.4179 
   19950       0.1995    376.80436   0.93285653 -0.055522463 -0.054477259   -6.6164611   -9.9413152    3.4167603    194.77444   -13068.075    -2742.856 
   20000          0.2    377.76767    1.0265785 -0.024532225  0.034028566   -6.6038712   -9.8686231    3.4084849    195.27238   -13069.274   -3453.5827 
Loop time of 1937.39 on 4 procs for 20000 steps with 4000 atoms

Pair  time (%) = 1518.69 (78.3887)
Neigh time (%) = 0.522677 (0.0269785)
Comm  time (%) = 162.905 (8.40851)
Outpt time (%) = 38.6375 (1.99431)
Other time (%) = 216.628 (11.1815)

Nlocal:    1000 ave 1005 max 995 min
Histogram: 1 0 0 1 0 0 0 1 0 1
Nghost:    3742.5 ave 3761 max 3726 min
Histogram: 1 0 1 0 0 0 1 0 0 1
Neighs:    68798.5 ave 70658 max 66857 min
Histogram: 2 0 0 0 0 0 0 0 0 2
FullNghs:  0 ave 0 max 0 min
Histogram: 4 0 0 0 0 0 0 0 0 0

Total # of neighbors = 275194
Ave neighs/atom = 68.7985
Neighbor list builds = 82
Dangerous builds = 0

######################################
# SIMULATION DONE
print "All done"
All done
