
# ----------------------- ATOM DEFINITION ----------------------------
lattice		fcc ${latparam}
lattice		fcc 4.05
Lattice spacing in x,y,z = 4.05 4.05 4.05
region		whole block 0 10 0 10 0 10
create_box	1 whole
Created orthogonal box = (0 0 0) to (40.5 40.5 40.5)
  1 by 2 by 2 MPI processor grid
lattice 	fcc ${latparam} orient x 1 0 0 orient y 0 1 0 orient z 0 0 1
lattice 	fcc 4.05 orient x 1 0 0 orient y 0 1 0 orient z 0 0 1
Lattice spacing in x,y,z = 4.05 4.05 4.05
create_atoms	1 region whole
Created 4000 atoms

# ------------------------ FORCE FIELDS ------------------------------

#****************USE THIS TO TEST******************
pair_style	eam/rad
pair_coeff 			* * Al99.PC0.05.eam.alloy.rad.txt Al # pc = 0.5

# ------------------------- SETTINGS ---------------------------------
compute csym all centro/atom fcc
compute peratom all pe/atom

######################################
# EQUILIBRATION
reset_timestep	0
timestep	0.001 # default
# timestep	0.0001 # tiny time step
velocity all create 300 12345 mom yes rot no
fix 1 all npt temp 300 300 1 iso 0 0 1 drag 1

# Set thermo output
thermo 50
# thermo 1 # debug mode

# thermo_style custom step lx ly lz press pxx pyy pzz pe temp
# IMPLEMENTATION HERE

# VERSION add rad variables .v1 .v2
# thermo_style custom step lx ly lz press pxx pyy pzz pxxrad pyyrad pzzrad pe temp

# VERSION ublb separation .v3
thermo_style custom step lx ly lz press pxx pxxub pxxlb pyy pyyub pyylb pzz pzzub pzzlb pe temp

# Run for at least 10 picosecond (assuming 1 fs timestep)
run 	20000 # default
Memory usage per processor = 7.82687 Mbytes
Step Lx Ly Lz Press Pxx Pxxub Pxxlb Pyy Pyyub Pyylb Pzz Pzzub Pzzlb PotEng Temp 
       0         40.5         40.5         40.5    2496.1233    2446.9902    7743.6886    7257.7077    2534.6541    7622.1759     7136.195    2506.7256    7790.4797    7304.4989       -13440          300 
      50      40.5611      40.5611      40.5611    907.43706    837.10986    1081.4006    592.81508    946.43161    1190.7913    702.06773    938.76971    1183.1305    694.40483   -13338.819    103.27149 
     100    40.636867    40.636867    40.636867   -4611.4186   -4606.0751   -4364.8941   -4847.4059   -4633.2987   -4392.1371   -4874.6011   -4594.8821    -4353.688   -4836.2274   -13373.529    171.80729 
     150    40.566371    40.566371    40.566371    544.64066    509.57779     753.3188    265.82709    622.24374    865.95927    378.51596    502.10046     745.8991    258.28579   -13348.908    124.16109 
     200    40.511722    40.511722    40.511722    3547.2897    3643.2596    3888.7773    3397.8202    3485.9867    3731.5047      3240.54    3512.6228    3758.1468    3267.1863   -13355.216     137.9072 
     250    40.565785    40.565785    40.565785    166.93066    90.523527    334.26205   -153.19438    218.10474    461.77384   -25.536655    192.16371    435.82606   -51.481037   -13359.502    146.72328 
     300    40.611235    40.611235    40.611235   -2466.5664   -2412.8394   -2170.7863   -2654.9441   -2483.9007   -2241.8402   -2726.0129   -2502.9592   -2260.8594   -2745.0968   -13360.111    149.21075 
     350    40.571353    40.571353    40.571353   -408.34084   -482.42607   -238.97638   -725.86387   -346.38838   -102.87212   -589.89064   -396.20806   -152.76073   -639.65278   -13367.339    163.76556 
     400    40.532306    40.532306    40.532306    2225.5431    2279.8069     2524.465    2035.1649    2296.6157    2541.2992     2051.928    2100.2067    2344.9597    1855.4548   -13359.854    150.41108 
     450    40.566044    40.566044    40.566044    2.0377845   -40.092854     203.5832   -283.76208   -31.888362    211.80981   -275.57337     78.09457    321.75549    -165.5536    -13363.08    157.36643 
     500    40.595966    40.595966    40.595966   -1611.3461   -1655.3283   -1412.6891    -1897.959   -1479.2164   -1236.5458   -1721.8798   -1699.4934     -1456.88   -1942.1003   -13359.404    151.32857 
     550    40.570848    40.570848    40.570848   -161.85418   -150.03728    93.404829   -393.48455   -167.20465    76.281736   -410.68577   -168.32062    75.113455   -411.75922   -13360.736    154.75593 
     600    40.545092    40.545092    40.545092    1385.8336    1414.2998    1658.6453    1169.9542    1433.0694    1677.4501    1188.6915    1310.1316    1554.4041    1065.8504   -13361.915    158.16074 
     650    40.566235    40.566235    40.566235    212.56633    184.02753    427.75721   -59.702978    245.48283    489.20885    1.7415502    208.18862    451.96909   -35.586727   -13358.104    151.74194 
     700    40.589999    40.589999    40.589999   -1217.4105   -1343.5854   -1100.6172     -1586.53   -1126.2179   -883.27094   -1369.1364   -1182.4283   -939.44113   -1425.3831   -13360.206    156.93263 
     750    40.572933    40.572933    40.572933   -250.38158   -286.45411   -43.104195   -529.80863   -263.19279   -19.795489    -506.5891   -201.49783    41.867604   -444.86223   -13360.538    158.57849 
     800    40.551356    40.551356    40.551356    1208.6566    1078.2928    1322.5536    834.01453    1322.2307      1566.58    1077.8674    1225.4462    1469.7194    981.15179   -13357.161    153.20685 
     850    40.567647    40.567647    40.567647     35.88215    27.354765    270.94116   -216.20877    95.437303    339.02224   -148.13491   -15.145617    228.44477   -258.72203   -13362.171    163.91834 
     900    40.586566    40.586566    40.586566   -905.95525   -936.83022   -693.78953   -1179.8608   -840.20578   -597.19672    -1083.203   -940.82976   -697.81308   -1183.8248   -13360.501    161.82509 
     950    40.575685    40.575685    40.575685   -242.27646    -258.0676   -14.548301   -501.57766   -191.53537    51.952846   -435.01608    -277.2264   -33.696505   -520.75942   -13355.043     152.3172 
    1000    40.557624    40.557624    40.557624    865.78368    854.28577    1098.1836    610.37435     838.0004    1081.8899    594.10647    905.06486    1149.0072    661.11139   -13361.124    165.23426 
    1050    40.567354    40.567354    40.567354    296.20892     232.8234    476.69736   -11.040124     412.4804    656.40591     168.5619    243.32297    487.22187  -0.56214858   -13352.949    150.47937 
    1100    40.584443    40.584443    40.584443   -762.38408   -853.89575   -610.81285   -1096.9662   -674.30507   -431.23647   -917.35965   -758.95143   -515.92961   -1001.9659   -13360.466    166.16585 
    1150    40.575983    40.575983    40.575983    -142.2806   -201.77341    41.786123   -445.32832   -30.014093    213.47134   -273.50269    -195.0543    48.380418   -438.47411    -13353.75    154.27323 
    1200    40.562401    40.562401    40.562401    595.06575    539.95132    783.86855    296.03723    625.63845    869.43229    381.85822    619.60749    863.45513    375.76928    -13359.83    167.17798 
    1250    40.569413    40.569413    40.569413    166.79261    92.903564    336.65884   -150.84528    250.18713    493.95759    6.4188034    157.28713    401.06151   -86.485705   -13356.017    160.90148 
    1300    40.581899    40.581899    40.581899   -560.61752   -582.11355   -338.90174   -825.32444   -449.93781   -206.58774   -693.29102   -649.80119   -406.49293   -893.12487   -13357.596    165.08945 
    1350    40.575948    40.575948    40.575948    -187.6128   -340.24911    -96.82633   -583.68108   -119.43237    124.02133   -362.89158   -103.15693    140.34869   -346.66637   -13356.829    164.72703 
    1400    40.566127    40.566127    40.566127    565.86425    499.12344    743.02871    255.22676    641.64272    885.52709    397.76134    556.82658    800.74487    312.91614   -13354.386    161.14085 
    1450    40.572988    40.572988    40.572988    -8.561472    -54.13345    189.42963   -297.69016   -9.1404528    234.45028     -252.727    37.589487    281.13277   -205.94054   -13356.765    166.86433 
    1500    40.579794    40.579794    40.579794   -267.41446   -332.77441   -89.342741   -576.20054   -176.15609    67.250356   -419.55523   -293.31287   -49.905819    -536.7169   -13353.672    162.03422 
    1550    40.576834    40.576834    40.576834   -220.87916   -335.60203   -92.124345   -579.06177   -207.98546    35.521439   -451.46887   -119.05001    124.41503   -362.48939    -13357.33    170.23169 
    1600     40.56902     40.56902     40.56902    377.81634    358.40758    602.22634    114.58002    458.79305    702.63129    214.94768    316.24838    560.04757    72.444824   -13352.705    162.42694 
    1650    40.573333    40.573333    40.573333    121.60248    65.830518     309.3955   -177.73452    161.88969    405.52726   -81.748182    137.08722     380.7045    -106.5369     -13355.4    168.76756 
    1700    40.580701    40.580701    40.580701   -351.25931   -404.48696   -160.98413   -647.97948   -356.71365   -113.26367    -600.1526   -292.57732   -49.032631   -536.11547   -13352.169    163.67705 
    1750    40.576849    40.576849    40.576849   -32.167301   -50.678233    192.78528   -294.12861   -63.920617    179.48197    -307.3126    18.096946    261.57477   -225.35573   -13355.552    171.33506 
    1800    40.570697    40.570697    40.570697    303.86959    205.87186    449.75433   -38.006784    337.67696    581.50923    93.864246    368.05996    611.89487    124.22711   -13351.254    164.18628 
    1850    40.573832    40.573832    40.573832    241.25661    160.65476    404.28349   -82.983582    291.81867    535.50402    48.112288    271.29639    514.93196    27.657114   -13351.989    166.73526 
    1900    40.582525    40.582525    40.582525   -408.49907   -517.11515   -273.79482   -760.44848    -372.3218   -129.03222   -615.62994   -336.06028    -92.75559   -579.38325    -13355.88     175.4205 
    1950    40.579035    40.579035    40.579035   -121.18037    -78.31077    165.32868   -321.93001   -80.564036    163.08047   -324.17304    -204.6663    38.946725     -448.258   -13350.032    165.23107 
    2000     40.57151     40.57151     40.57151    262.28188    197.36064    441.07534   -46.318216    289.69509    533.38393    46.030317     299.7899    543.45206    56.159267   -13356.433    178.77171 
    2050     40.57415     40.57415     40.57415    291.00696    438.91963    682.66252    195.16991    282.96388    526.72766    39.191366    151.13737    394.88231   -92.618357   -13349.034    165.59547 
    2100    40.583714    40.583714    40.583714   -349.64824   -571.69905   -328.34981    -815.0713   -278.61218   -35.199007   -522.04805   -198.63349    44.737707   -442.04066    -13352.82     174.0797 
    2150    40.580896    40.580896    40.580896   -115.46102   -185.78203    57.814804   -429.38123   -83.935203    159.65503   -327.51876   -76.665824    166.94603   -320.26451   -13348.342    166.55152 
    2200    40.573232    40.573232    40.573232    266.96923    327.53375    571.29366    83.805351    145.53519    389.18717   -98.086854    327.83874    571.52352    84.189904   -13352.358    175.46306 
    2250    40.574827    40.574827    40.574827    151.21048    253.25725    497.04263    9.4765797    168.12758    411.77134   -75.507359    32.246605    275.96129    -211.4677   -13351.993    175.91954 
    2300    40.582519    40.582519    40.582519   -229.92012   -262.55007   -19.047683   -506.06407   -227.80284     15.66197   -471.27296   -199.40745    44.030371   -442.85576   -13351.098    175.32277 
    2350    40.582472    40.582472    40.582472   -261.47493   -230.22332    13.169968   -473.59313   -223.18601    20.243627   -466.61499   -331.01546   -87.543695    -574.4739   -13351.015     176.3209 
    2400    40.575117    40.575117    40.575117    304.99838    318.71288    562.46111    74.981076    230.82389     474.6411   -12.980389    365.45835    609.24437     121.7004    -13348.88    173.33846 
    2450    40.576041    40.576041    40.576041    115.98281   -49.519186     194.2065   -293.24403    231.81908    475.57068    -11.93512    165.64854    409.36126   -78.069026   -13349.774    176.22576 
    2500    40.581993    40.581993    40.581993    -86.32248   -223.14465    20.411341   -466.71139   -50.962736    192.59068   -294.51043    15.139951    258.73984   -228.45983   -13348.601    175.08643 
    2550    40.583873    40.583873    40.583873   -280.78867    -329.5054   -86.115186   -572.89175   -351.60669   -108.26666    -594.9411   -161.25393    82.238704    -404.7507   -13350.803    180.51146 
    2600    40.577203    40.577203    40.577203    317.49535    231.68198    475.52138   -12.159712    393.67729     637.3748    149.97668    327.12677    570.89119    83.367365    -13345.69    171.77884 
    2650    40.578933    40.578933    40.578933    13.030925    144.96731     388.7075   -98.754094   -44.713472    198.96932   -288.38732   -61.161069    182.47639    -304.7814   -13350.912    183.01571 
    2700    40.583518    40.583518    40.583518   -174.83865   -293.93299   -50.361535   -537.49412   -111.84152    131.71889    -355.3945   -118.74145    124.85188   -362.32716   -13346.798    176.21518 
    2750    40.582481    40.582481    40.582481   -39.748764   -65.184794    178.36742   -308.73958    -87.13603     156.3631   -330.62827    33.074533    276.66871   -210.51304   -13348.669    180.97912 
    2800    40.578705    40.578705    40.578705    108.86451   -19.945463    223.80409   -263.70033    191.66526    435.46496   -52.135263    154.87373    398.64421   -88.906302   -13346.376    177.70923 
    2850    40.579322    40.579322    40.579322    124.53218    81.912131    325.58402   -161.75218    124.60452    368.25188   -119.04182     167.0799    410.74537   -76.590743   -13349.584    185.05983 
    2900    40.584645    40.584645    40.584645   -69.825092    -152.5521    91.051423   -396.13467   -33.708358    209.81611   -277.21527   -23.214815    220.39382   -266.80456   -13345.868     179.0187 
    2950    40.585359    40.585359    40.585359   -182.56258   -154.04171    89.429752   -397.50662   -313.08375   -69.610447   -556.54811   -80.562296    162.99276   -324.10747   -13345.484    179.44392 
    3000    40.580393    40.580393    40.580393    103.06038     17.74205    261.39689   -225.92039    199.86076    443.49712   -43.779467    91.578338    335.31699   -152.16673   -13349.988    189.30398 
    3050    40.580507    40.580507    40.580507    62.168107    44.094515    287.86237   -199.67527    20.509683    264.26451   -223.24102    121.90012    365.62317   -121.81859   -13345.218    181.21565 
    3100    40.584708    40.584708    40.584708   -107.42179   -223.08689    20.521553   -466.67066   -59.455111    184.22501   -303.11927   -39.723375    203.85756   -283.29052   -13347.434     186.6605 
    3150    40.585857    40.585857    40.585857   -139.90607   -193.02274    50.531443   -436.56481   -102.84206     140.7884   -346.45731    -123.8534    119.72609   -367.41324   -13344.327    181.78994 
    3200    40.582817    40.582817    40.582817    56.136466   -25.815173    217.76247   -269.40038    83.857537    327.44108   -159.73784    110.36703     353.9704    -133.2439   -13346.758    187.66531 
    3250    40.582883    40.582883    40.582883    202.40337    154.08445    397.86702   -89.694294    136.98617     380.6556   -106.67958    316.13948    559.97104    72.308368   -13343.925    183.32635 
    3300    40.587578    40.587578    40.587578    -209.4339   -371.94849   -128.45029   -615.43394   -87.698913    155.73888   -331.12297   -168.65429    74.771143   -412.06512   -13345.062    186.68197 
    3350    40.586577    40.586577    40.586577   -9.0566859   -69.573038    174.03478   -313.17166   -16.305688    227.30343   -259.90573    58.708669    302.31061   -184.87953    -13343.41    184.64018 
    3400    40.584833    40.584833    40.584833    -4.464904   -169.79656    73.785474   -413.38856    46.672382    290.30168   -196.96723    109.72947    353.30704   -133.84808   -13346.346    191.46455 
    3450    40.585451    40.585451    40.585451    9.8032381   -98.559471    145.07917   -342.20916    71.647379    315.33408   -172.04716    56.321806    299.81341   -187.17434   -13344.024    188.12534 
    3500    40.587697    40.587697    40.587697   -73.255431   -198.59139    44.971986   -442.13351   -60.277768    183.18671   -303.72415    39.102863    282.67136   -204.45158   -13344.644    190.47515 
    3550    40.586958    40.586958    40.586958    -56.96485   -70.538578    173.13161   -314.19031    6.9900731    250.57983   -236.58367   -107.34605    136.28985   -350.96845   -13342.497     187.4769 
    3600    40.585183    40.585183    40.585183    109.67337    96.750394    340.47053   -146.97247    58.529928    302.25189   -185.19113    173.73977    417.37973   -69.900511   -13342.391    188.41229 
    3650    40.586887    40.586887    40.586887   -3.9723187   -11.668849    232.02054   -255.35005   -45.333257     198.3389   -288.99351    45.085149    288.66202   -198.49215   -13342.044    188.88701 
    3700    40.588496    40.588496    40.588496   -27.142131   -83.336603    160.16118   -326.83782   -12.131481    231.43546   -255.69758    14.041689    257.54662   -229.45018   -13342.511    190.95338 
    3750    40.588371    40.588371    40.588371   -6.0911329    43.936973    287.43443   -199.54254   -56.088694     187.4543   -299.62614   -6.1216783    237.35434   -249.59665   -13342.317    191.72699 
    3800    40.587518    40.587518    40.587518    21.179747   -96.321442    147.31287     -339.938    156.68462    400.32461   -86.935633    3.1760619    246.83355   -240.47717    -13342.31    192.86572 
    3850    40.588168    40.588168    40.588168    103.71552    51.378646    294.99593   -192.23765    75.437151    319.05653   -168.19156    184.33078    428.02299   -59.355688   -13339.435    188.43341 
    3900    40.590071    40.590071    40.590071   -61.991803    41.084916    284.65258   -202.49825   -163.63867    79.977124   -407.25663   -63.421652    180.08742   -306.94683   -13340.244    191.15887 
    3950     40.58905     40.58905     40.58905    26.629811   -116.89505    126.70594   -360.48611    111.68117    355.29894   -131.92311    85.103306    328.73787   -158.51184   -13340.459    192.71663 
    4000     40.58814     40.58814     40.58814    64.030856    18.996702    262.67946   -224.65679    37.882754    281.62879   -205.84352    135.21311    378.81136   -108.34237   -13340.476    193.89746 
    4050     40.58928     40.58928     40.58928    51.730888    26.058107    269.64533   -217.52057    48.279046    291.94438   -195.38146    80.855511    324.47475   -162.76593   -13339.217    192.61086 
    4100    40.591447    40.591447    40.591447    -69.41407   -80.629256     162.8549   -324.13313   -72.506139    171.04369   -316.06749   -55.106814    188.35297   -298.58271   -13342.948    200.98044 
    4150    40.591167    40.591167    40.591167     -59.3496   -170.66274    73.020803   -414.34878   -23.297654    220.28321   -266.86534    15.911595    259.48909   -227.64826    -13338.58    193.66416 
    4200    40.589402    40.589402    40.589402    126.45049    102.31182    346.12117   -141.46809    28.361074    272.15493   -215.40568    248.67858    492.36343    5.0165464   -13337.074    191.89142 
    4250    40.590375    40.590375    40.590375   -5.8786185    -95.14102    148.41712    -338.6822    71.464313    315.06983   -172.13265    6.0408519    249.63325   -237.54945   -13339.822    198.35283 
    4300    40.592312    40.592312    40.592312   -99.932489   -134.35608    109.21061   -377.93082   -92.003546      151.602   -335.63089   -73.437843    170.08455   -316.98293   -13339.728    199.31371 
    4350    40.591432    40.591432    40.591432    30.669897   -17.453823    226.13157   -261.05983    116.38325    360.00847   -127.25639   -6.9197307    236.63019   -250.47167   -13337.239    195.64072 
    4400    40.590868    40.590868    40.590868    6.1809803   -68.690877     174.8753   -312.24557    32.701826    276.25606   -210.83248    54.531992    298.18688   -189.10567   -13340.043     202.2069 
    4450    40.592123    40.592123    40.592123   -2.7294806    31.335042    274.95759   -212.26214   -35.521345     208.0674   -279.09258   -4.0021387    239.59033   -247.57951   -13337.875    199.15199 
    4500    40.593642    40.593642    40.593642   -65.462705    36.313648    279.86101   -207.21737   -97.154892    146.45305    -340.7504   -135.54687    107.99809   -379.08731    -13337.41     199.3838 
    4550    40.592338    40.592338    40.592338   -64.277171   -161.69941    81.883171   -405.28797   -86.840811    156.81301   -330.49738    55.708711    299.31443    -187.8973   -13338.207    202.07086 
    4600    40.590278    40.590278    40.590278     249.1077    320.61637    564.29799    76.934406    284.38178    528.10136    40.666385    142.32493    386.09789   -101.44621   -13335.472    197.91016 
    4650    40.594313    40.594313    40.594313   -36.483052   -43.388388    200.14036   -286.90258     7.304162    250.84802   -236.23633   -73.364929    170.15003   -316.87205   -13336.259    200.57068 
    4700    40.596271    40.596271    40.596271   -162.12355   -160.59482    82.837082   -404.01599   -175.19352    68.351781    -418.7174   -150.58232    92.968446   -394.11282   -13336.155    201.50807 
    4750    40.592916    40.592916    40.592916    73.064448    98.496599    342.15999   -145.14721    218.68878    462.33153   -24.939412   -97.992039    145.57629   -341.54727   -13336.665     203.6226 
    4800    40.592243    40.592243    40.592243    93.558524    177.60258    421.18988   -65.990969   -87.323114    156.37974   -331.02137    190.39611     433.9542   -53.158708   -13336.604    204.63746 
    4850    40.595451    40.595451    40.595451    4.2171739   -108.36622    135.15049   -351.87892    56.758562    300.38093   -186.85327    64.259175    307.87926   -179.35824   -13334.982    202.63372 
    4900     40.59738     40.59738     40.59738   -207.49532   -38.513481     204.9761   -281.99903   -236.77389    6.7235132   -480.27069   -347.19859   -103.64489   -590.73396   -13335.657    205.06988 
    4950    40.592949    40.592949    40.592949    160.16595    79.901741    323.50162   -163.70381    153.84852    397.47789   -89.795121    246.74758     490.4897    3.0006306   -13333.532    202.08895 
    5000    40.593071    40.593071    40.593071    183.41074     268.5787    512.26881    24.901068     243.1868    486.84961   -0.4745874    38.466717    282.25018    -205.3298   -13334.242    204.58527 
    5050    40.598517    40.598517    40.598517   -115.69735   -166.07939    77.317441   -409.46591     -169.547    74.063749     -413.144   -11.465649    232.00278   -254.91938   -13334.019    205.27643 
    5100     40.59878     40.59878     40.59878   -111.70343    -8.370906    235.17405   -251.89503   -166.12906    77.377109   -409.60367   -160.61033    82.799322    -403.9918   -13332.452    203.37832 
    5150    40.594255    40.594255    40.594255    96.931121    101.97383    345.54987   -141.59195    87.628943    331.25546   -155.98035    101.19059    344.84518   -142.43822   -13334.964    209.35602 
    5200    40.594043    40.594043    40.594043    196.29774    273.67141    517.27687    30.068941    221.69784    465.22369    -21.83882    93.523963    337.19129   -150.15845   -13335.021    210.58986 
    5250     40.59947     40.59947     40.59947   -89.380203   -116.97376     126.5292   -360.48267   -109.49403    134.14363   -353.13812    -41.67282       201.81   -285.15829   -13330.257    202.50162 
    5300    40.599859    40.599859    40.599859   -145.25531   -136.63669    106.79367    -380.0532   -209.45351    34.045206   -452.92504   -89.675735    153.83498   -333.16513   -13332.957    208.84095 
    5350    40.595213    40.595213    40.595213    222.90062    257.82359    501.40599    14.251353    316.73027    560.35813    73.106159    94.147998    337.74426   -149.44362   -13332.065    208.23568 
    5400    40.596174    40.596174    40.596174    152.99394    182.46696    426.04213   -61.126678    168.26953    412.02273   -75.501261    108.24535    351.87572   -135.39887   -13331.528    208.31029 
    5450    40.601169    40.601169    40.601169   -137.60144   -286.80303   -43.284072   -530.32255   -30.046473    213.46925   -273.56232   -95.954809    147.61258   -339.53095   -13330.969    208.33875 
    5500    40.601195    40.601195    40.601195   -223.23281   -155.64611    87.742051   -399.01118   -294.77355   -51.435698   -538.09256   -219.27877    24.127514   -462.66327   -13333.433    214.21786 
    5550    40.595615    40.595615    40.595615    182.19163    236.97313    480.67297   -6.7102832    219.29512    463.03629   -24.422757    90.306631    333.91917   -153.28818   -13332.625    213.77091 
    5600     40.59647     40.59647     40.59647    157.71549    95.081188    338.76301   -148.60396    126.56426    370.21925   -117.09558    251.50101    495.12991    7.8805193    -13331.02    211.77575 
    5650    40.602086    40.602086    40.602086   -122.48126   -162.13077    81.359053   -405.60864   -127.35932    116.14159   -370.85592   -77.953682    165.62603   -321.52582   -13328.959    208.89658 
    5700    40.602031    40.602031    40.602031   -129.57349   -144.97713    98.422297   -388.35613    -92.19506    151.25139   -335.61969   -151.54828    91.999672   -395.07711   -13330.973    213.90323 
    5750    40.597351    40.597351    40.597351    249.95841     130.2933    373.88027   -113.29263    256.42866    500.13326    12.726347    363.15327    606.73439    119.57028   -13329.355    211.87752 
    5800    40.599001    40.599001    40.599001    81.368288    70.461749    314.12835   -173.20727    220.52608    464.14861   -23.094682   -46.882963    196.71928   -290.47843    -13329.51    213.28364 
    5850    40.603186    40.603186    40.603186   -204.96413   -200.81552    42.633039   -444.25151   -191.63639    51.796838   -435.05672   -222.44049    21.110113   -465.97446   -13330.974    217.21937 
    5900    40.602446    40.602446    40.602446   -126.97389   -248.41884   -4.8792812   -491.94861   -16.958909     226.6722   -260.57484   -115.54392    128.02433   -359.11362    -13329.54    215.52932 
    5950    40.598403    40.598403    40.598403     257.9828    272.70332    516.41768    29.004634    348.64877    592.23944    105.05543    152.59632    396.27595   -91.067986   -13327.614    212.91421 
    6000     40.60021     40.60021     40.60021    86.846298    101.33594    344.88538   -142.20686   -18.435667    225.25868   -262.10209    177.63862    421.22279   -65.934055   -13327.324    213.44455 
    6050     40.60381     40.60381     40.60381     -147.965   -193.76594    49.714949   -437.24851   -73.546053    169.94544   -317.04332   -176.58301    66.943495   -420.11947   -13330.172    220.05867 
    6100    40.602318    40.602318    40.602318    -26.95951    24.115571    267.60992   -219.38597    -126.5007    117.09612   -370.10957    21.506596    265.10846   -222.09548   -13327.624    216.21915 
    6150    40.600005    40.600005    40.600005    91.858136   -57.062472    186.55118   -300.65809     204.7372    448.33584   -38.839582    127.89968    371.47233   -115.65147   -13329.971    221.84627 
    6200    40.601871    40.601871    40.601871     18.81411    18.213485    261.86574   -225.42658    68.835547    312.45251   -174.76765   -30.606703    213.09241   -274.31431   -13326.581     216.3745 
    6250    40.604737    40.604737    40.604737   -124.00793   -72.865587    170.63669    -316.3709   -231.27249     12.19383   -474.74963   -67.885715    175.64643   -311.42319    -13327.32    218.88695 
    6300    40.603226    40.603226    40.603226    38.479186    -71.27144    172.23629   -314.78211     210.4996    454.05918   -33.059058   -23.790601    219.72683     -267.295   -13327.339     220.0188 
    6350    40.602348    40.602348    40.602348    53.655171    168.57174    412.05556   -74.900958   -65.580559    177.94371   -309.07708    57.974335    301.51726   -185.54499   -13327.803    222.00053 
    6400    40.604389    40.604389    40.604389   -55.165601   -243.02272   0.55686918   -486.57783    81.803234    325.46249    -161.8475   -4.2773159    239.30073   -247.84435    -13327.19    221.89227 
    6450    40.605242    40.605242    40.605242   -103.23012   -18.394609    225.14955   -261.94403   -201.09066    42.435092   -444.62501   -90.205083    153.40037   -333.79908   -13326.925    222.45568 
    6500    40.603815    40.603815    40.603815    39.068389   -146.98714    96.694672   -390.66724     -28.4868    215.09154   -272.05417    292.67911    536.38038    48.986622   -13326.809    223.30103 
    6550     40.60387     40.60387     40.60387    22.403565    29.280286    272.81808   -214.25308    75.786435    319.34653   -167.75748   -37.856025    205.70324   -281.40448   -13324.708    220.30764 
    6600     40.60543     40.60543     40.60543    36.934272   -27.131059    216.35908   -270.59607    31.251669    274.89469   -212.37647     106.6822    350.23512   -136.86521   -13325.152    222.24729 
    6650    40.606492    40.606492    40.606492    27.935899   -38.026677    205.56047   -281.58783    291.58289    535.19177    47.986025   -169.74852    73.856346   -413.35104   -13323.272    219.68455 
    6700    40.605902    40.605902    40.605902   -2.8302171   -32.479587    210.91862   -275.88335   -15.290284    228.21189   -258.80272    39.279221    282.67744   -204.11194   -13325.483    225.03079 
    6750    40.605041    40.605041    40.605041    116.28823    11.166754    254.71594   -232.39256    118.66357    362.35993   -125.03641    219.03438    462.73749   -24.664212     -13324.7    224.58162 
    6800    40.606317    40.606317    40.606317   -94.135085   -116.06994    127.50624   -359.63924   -53.083775    190.52014   -296.66427   -113.25154    130.28298   -356.78609   -13324.612    225.46738 
    6850    40.606909    40.606909    40.606909   -131.72414   -177.87527    65.619784   -421.36452   -112.67255    130.87435   -356.19568   -104.62461    138.94857   -348.18797   -13327.361    231.83937 
    6900    40.606457    40.606457    40.606457    38.770044   -42.543621    200.97264   -286.04554    139.77117    383.33486    -103.7822    19.082584     262.6858   -224.49945    -13323.81    226.02987 
    6950    40.607088    40.607088    40.607088    -35.87355   -57.864929    185.56892   -301.26565   -99.363756    144.18455   -342.91666    49.608035    293.08826   -193.86236   -13325.976    231.28561 
    7000    40.607798    40.607798    40.607798   -21.517973   -27.074967    216.58678   -270.73862    68.888779    312.54866   -174.75954   -106.36773     137.2029   -349.93979   -13321.758    224.17335 
    7050    40.608361    40.608361    40.608361   -85.333283   -62.294957    181.18308   -305.76764   -78.471956    165.09767   -322.02288   -115.23294    128.19835   -358.65377   -13324.227    229.99186 
    7100    40.607551    40.607551    40.607551  -0.32340728   -15.680349    227.79318   -259.14669    51.728357    295.30493   -191.84178    -37.01823    206.60935   -280.63304   -13323.223    229.10019 
    7150     40.60782     40.60782     40.60782    20.921777    45.317835     288.8307   -198.18629   -55.509065       188.01     -299.018    72.956561    316.59245   -170.67176   -13323.207    230.11782 
    7200    40.609482    40.609482    40.609482   -77.821672   -101.91746    141.53039   -345.36358    4.9611119    248.55562   -238.63393   -136.50867     107.0504   -380.06097   -13323.495    231.72021 
    7250    40.609913    40.609913    40.609913    50.433017   0.56460385    244.09425   -242.96097    75.008988    318.50064   -168.49861     75.72546     319.2172   -167.77987   -13321.183    228.29296 
    7300     40.60956     40.60956     40.60956    -69.90714   -13.571925    229.85815   -257.01188   -179.09254    64.441266   -422.62398   -17.056953    226.47367   -260.56858   -13321.826    230.56804 
    7350    40.608273    40.608273    40.608273    147.86894    124.22491     367.8208   -119.35582    181.66507    425.37092   -62.019778    137.71684    381.33405   -105.89197   -13319.822    227.72576 
    7400     40.61072     40.61072     40.61072   -38.902497   -22.541514    221.04851   -266.12116   -63.916036    179.69223   -307.50095   -30.249939     213.2805   -273.75617   -13321.343    231.69891 
    7450      40.6122      40.6122      40.6122   -125.41163   -226.57028    16.759183   -469.88162    -33.61997    209.80621   -277.03392   -116.04465    127.29184   -359.37027   -13322.895    235.72868 
    7500    40.610108    40.610108    40.610108   0.23229987   -85.457416    158.05792   -328.95917    5.8911509    249.40036   -237.62364    80.263165    323.79141   -163.25796   -13321.055    233.20319 
    7550    40.608593    40.608593    40.608593    216.78304    152.03962    395.62376   -91.529932    265.65517    509.25711     22.08717    232.65434     476.3211   -11.000086   -13319.725    231.64868 
    7600    40.612333    40.612333    40.612333   -46.447022   -71.347699    172.16175    -314.8457    11.081953    254.64089   -232.47179    -79.07532    164.38922   -322.52675    -13319.66    232.54909 
    7650    40.614101    40.614101    40.614101    8.5688691   -63.097679    180.25725    -306.4575    126.74828    370.22112   -116.72368   -37.943999    205.53479   -281.42053   -13317.293     228.9811 
    7700    40.612387    40.612387    40.612387   -98.768505   -57.973541    185.41494   -301.35543   -144.42907    99.234146   -388.09332   -93.902904    149.50946   -337.31787   -13319.588    234.44054 
    7750    40.607968    40.607968    40.607968    199.50031    202.77634    446.51036   -40.951099    254.41477    498.04433    10.795324    141.30983    384.87574    -102.2631   -13320.441    237.10839 
    7800    40.611213    40.611213    40.611213    10.113906    81.539417    324.99586   -161.90195    -64.43268    179.10463   -307.97045     13.23498    256.75682   -230.28514   -13320.135    237.51591 
    7850    40.615802    40.615802    40.615802    -190.8177   -123.93483    119.44441   -367.31193   -155.49397    88.013874   -398.99103   -293.02431   -49.463916   -536.57052   -13316.958    232.37563 
    7900    40.614071    40.614071    40.614071   -62.814506    -179.3342    64.006916   -422.67693   -47.023971    196.54836   -290.57327    37.914647    281.46235   -205.61571   -13319.654    238.59408 
    7950    40.610522    40.610522    40.610522     61.91862    100.38714    344.00259   -143.21786    136.28653    380.02196   -107.45487   -50.917809    192.55272   -294.39167   -13320.447    241.13365 
    8000    40.612416    40.612416    40.612416    54.480615    36.677358    280.30744   -206.93032    96.889371    340.40855   -146.60623    29.875117    273.52426   -213.74872   -13318.108    237.59574 
    8050    40.616739    40.616739    40.616739   -201.42892   -220.49972    22.959495   -463.93432   -266.56184   -23.132289   -509.96977   -117.22521    126.19172    -360.6189   -13317.484     237.3978 
    8100    40.613917    40.613917    40.613917   -29.516087   -62.473189    181.04044   -305.99884    8.6103831    252.08131   -234.85371   -34.685456    208.78257   -278.14498   -13318.824    240.98117 
    8150    40.611079    40.611079    40.611079    233.41268     250.2191    493.69627    6.7528959    199.26147    442.92195   -44.384755    250.75748    494.38484    7.1479079   -13316.499    237.46563 
    8200    40.615557    40.615557    40.615557   -73.482497   -143.76325     99.75239   -387.25399    121.83238    365.35165   -121.67953   -198.51662    44.850755   -441.87614   -13318.206    241.75524 
    8250    40.618041    40.618041    40.618041   -99.554299    28.475224    271.92333   -214.97943   -164.46411    79.071688   -407.99279   -162.67401    80.722496   -406.06307    -13314.28    235.13872 
    8300    40.614975    40.614975    40.614975    28.031927   -144.03934    99.475094   -387.55245    205.83186    449.37438   -37.708221    22.303256    265.82231   -221.20072   -13316.211    239.85171 
    8350    40.611951    40.611951    40.611951    171.74974    263.70158    507.34683    20.065843    140.68604    384.31046   -102.93945    110.86162    354.49483   -132.77144   -13316.616    241.61323 
    8400    40.614453    40.614453    40.614453    143.17086  -0.11537715    243.39897   -243.62974    138.95256     382.5706   -104.67074     290.6754    534.20147    47.127641   -13313.361    236.28983 
    8450    40.618979    40.618979    40.618979   -283.99859   -222.64095    20.781814   -466.04964   -181.34927    62.078841   -424.76363   -448.00554   -204.45967    -691.5424   -13317.732     245.7156 
    8500    40.615661    40.615661    40.615661   -29.771671   -69.689884    173.79416   -313.15651    -99.93417    143.64331   -343.48203    80.309039     323.8455   -163.20839    -13315.56    242.47643 
    8550     40.61192     40.61192     40.61192    275.83701    274.34212    518.01205    30.680441    321.67168    565.39064    77.947226    231.49724    474.97161    -11.96777   -13315.123     242.6027 
    8600    40.616597    40.616597    40.616597   -150.21221    -307.5939   -64.111499   -551.06927    22.330695    265.96628   -221.27478   -165.37342    78.056506   -408.78563   -13317.089    247.35868 
    8650     40.61938     40.61938     40.61938   -70.949903   -188.44591    54.932442   -431.81011   -23.889919    219.47903   -267.25349  -0.51388247    242.95644   -243.97289   -13313.832    242.01927 
    8700    40.618511    40.618511    40.618511   -118.97868   -41.616921      201.886   -285.12154   -90.616415    152.82876   -334.05929   -224.70272    18.750071   -468.14756   -13314.804    244.84642 
    8750    40.615356    40.615356    40.615356    184.70792    24.093517    267.67463   -219.46928    267.47839    511.21704    23.761541    262.55184     506.0888    19.024774   -13312.664    241.65958 
    8800     40.61578     40.61578     40.61578    49.124551    51.019324    294.55533   -192.50374    85.170428    328.85586   -158.50391    11.183902    254.64343   -232.26725   -13313.827    244.86054 
    8850    40.617841    40.617841    40.617841   -30.004023   -14.969104    228.50907   -258.43871    14.218623    257.77779   -229.32584   -89.261589     154.2227   -332.72415    -13314.23    246.57563 
    8900    40.618905    40.618905    40.618905   -196.67237   -69.287145    174.20033   -312.77583   -267.14581   -23.696984   -510.59241   -253.58416   -10.176076   -496.96854   -13315.482    249.94202 
    8950    40.616633    40.616633    40.616633    113.56155     17.70615    261.32213   -225.90075    205.62112    449.14527   -37.887108    117.35737    360.97125   -126.27427   -13312.174    244.47327 
    9000    40.617981    40.617981    40.617981   -5.3782871   -96.290796    147.22953   -339.79098    102.10605    345.58338   -141.36578   -21.950111    221.50916   -265.42421   -13315.903    252.62496 
    9050    40.620148    40.620148    40.620148   -48.644761    26.770246    270.16643   -216.60899   -95.187336    148.38982   -338.76973   -77.517195    165.95239   -320.94697   -13311.498    245.02404 
    9100    40.620057    40.620057    40.620057   -49.592958   -174.28861    69.116828   -417.69953   -33.121107     210.3524   -276.56022    58.630846    302.16356   -184.87981   -13312.283    247.47347 
    9150     40.61758     40.61758     40.61758    150.26405    225.47259    469.05421   -18.093658    101.73932    345.30636   -141.81977    123.58025    367.14332   -119.97552   -13310.095    244.16108 
    9200     40.61774     40.61774     40.61774    72.268147    41.329583    284.99764   -202.31869    38.217779    281.63187   -205.19158    137.25708      380.798   -106.28069   -13311.689    248.16871 
    9250    40.619622    40.619622    40.619622   -84.083887   -149.79255    93.616574   -393.19855    -69.87264    173.61385   -313.36507   -32.586469    210.82812   -275.99206   -13311.349    248.42467 
    9300    40.619538    40.619538    40.619538    119.50181    125.80622    369.12712   -117.52302     23.83651    267.43554   -219.74563    208.86271    452.31268    -34.59073   -13311.853    250.31265 
    9350    40.620623    40.620623    40.620623   -23.026387   -212.93313    30.588176   -456.44475    47.062092    290.69694    -196.5634    96.791877    340.37168   -146.77036   -13310.946    249.45277 
    9400    40.621651    40.621651    40.621651   -110.30374    55.349363    298.84349   -188.12903   -308.53971   -65.088022   -551.98155   -77.720873    165.70357   -321.14026    -13310.94    250.34293 
    9450    40.620796    40.620796    40.620796    119.80518    22.147835    265.65389   -221.35363    168.09362    411.62518   -75.426065    169.17409    412.75249   -74.401995   -13308.678    246.86507 
    9500    40.621436    40.621436    40.621436   -77.654363   -94.095478    149.44044   -337.61753   -169.62014    73.843826   -413.07428    30.752526    274.11679   -212.59604   -13312.361    254.89143 
    9550    40.620956    40.620956    40.620956    80.176844   -81.439503     162.0022   -324.85933    171.10941    414.63918   -72.410259    150.86063    394.39998   -92.662812   -13310.642     252.4677 
    9600    40.623082    40.623082    40.623082   -100.37971   -50.707541    192.74677   -294.13892   -83.798674    159.79056   -327.36057   -166.63292    76.850668    -410.0982   -13311.014    254.06807 
    9650     40.62368     40.62368     40.62368   -96.708169   -111.18675    132.17854   -354.54503   -146.71085    96.624772   -390.04152   -32.226906    211.15173   -275.59519   -13309.976    252.94982 
    9700    40.621786    40.621786    40.621786    25.766695   -101.68196    141.75294   -345.10897    193.85198    437.33879   -49.642225   -14.869939    228.65782    -258.3893   -13311.217    256.23031 
    9750    40.621617    40.621617    40.621617    63.783347    45.223363    288.84449   -198.39798    18.202269    261.84254   -225.41424    127.92441    371.38549    -115.5285   -13309.015    252.84887 
    9800    40.623567    40.623567    40.623567    30.108544   -256.64207   -13.240504   -500.03101    218.38384    461.78638   -24.994028    128.58387    371.98049   -114.79709   -13308.817     253.3361 
    9850    40.625018    40.625018    40.625018   -209.09391   -204.87145     38.46159   -448.18545   -333.00963   -89.473144   -576.52675   -89.400642    153.91824   -332.70262    -13310.94    258.31262 
    9900    40.622237    40.622237    40.622237    148.31384    127.49748    371.08336   -116.07398    211.31408    454.81934   -32.188037    106.12996    349.84639   -137.58276   -13307.278    252.08567 
    9950    40.623383    40.623383    40.623383     1.582774    69.834119    313.24612   -173.57712   -163.62004    79.854437   -407.07717    98.534248    341.95059   -144.86186   -13310.401     258.9926 
   10000     40.62607     40.62607     40.62607   -49.067764   -32.888182    210.54728   -276.29757    31.781308    275.22043   -211.65793   -146.09642    97.222697   -389.41047   -13306.221    251.76572 
   10050    40.625601    40.625601    40.625601   -111.26613   -260.75667   -17.351334   -504.15707   -93.751589    149.61148   -337.11176    20.709871      264.125    -222.7157   -13309.037    258.07207 
   10100     40.62165     40.62165     40.62165    194.77386    28.814092    272.43472   -214.80886    505.48434    749.10503    261.87331    50.023147    293.50793   -193.44882   -13308.396    257.68142 
   10150    40.623957    40.623957    40.623957    148.65111    67.804204    311.25515   -175.64579    36.673761    280.16233   -206.80055    341.47535    584.97145    97.992363   -13305.783    253.47093 
   10200    40.629076    40.629076    40.629076   -266.31898   -507.92354   -264.57973   -751.24338   -161.58297    81.658936     -404.822   -129.45043    113.83327   -372.72003     -13308.7    259.95316 
   10250    40.626239    40.626239    40.626239    139.51768    308.09578    551.50996    64.696152    15.774635    259.30931   -227.75077    94.682613    338.18366   -148.81647    -13303.86    251.42496 
   10300    40.624167    40.624167    40.624167     -32.4434   -82.799664    160.72009   -326.31629   -62.479318    181.11358   -306.05829    47.948784    291.46356   -195.53624   -13309.107    262.41275 
   10350    40.623612    40.623612    40.623612     175.4361    204.33298    447.91383   -39.234963      258.726    502.26574    15.205643     63.24931    306.68135   -180.17847   -13305.282     255.8423 
   10400    40.627102    40.627102    40.627102   -209.12009   -222.42107    20.946705   -465.77306   -245.20351   -1.8539927   -488.54393   -159.73569    83.535225   -402.98099   -13309.194    264.24465 
   10450    40.626953    40.626953    40.626953   -37.296466   -132.87675    110.54445   -376.28161     82.48944    325.87908   -160.87355   -61.502083    181.99079   -304.99381   -13306.088    259.05202 
   10500    40.625844    40.625844    40.625844     3.606221    -58.26973     185.1106   -301.64058   -86.758565    156.78093   -330.29339    155.84696    399.42959   -87.711102   -13306.912    261.45961 
   10550    40.625595    40.625595    40.625595    111.78184    112.94411    356.40209   -130.49974    309.47861    553.23889    65.738694   -87.077194    156.38743   -330.52691    -13304.68    257.95671 
   10600    40.628278    40.628278    40.628278   -8.4171661     70.80722    314.19458   -172.55598   -24.293744     219.0864   -267.66928   -71.764974    171.57541   -315.09536    -13304.87    259.13252 
   10650    40.629525    40.629525    40.629525    -76.00165    29.818683    273.39043   -213.76203    -84.45566    158.69706   -327.59269   -173.36797    69.913739   -416.63235   -13304.625    259.46901 
   10700    40.627011    40.627011    40.627011    47.009139   -16.427123     227.0215   -259.86184    162.61651    406.09847   -80.847177   -5.1619706    238.20436   -248.52899   -13306.004    262.94252 
   10750    40.625683    40.625683    40.625683    101.81504    128.92511    372.36114   -114.49924    169.09554    412.54337   -74.348219    7.4244807    251.07544   -236.22459   -13304.619    261.05812 
   10800    40.628883    40.628883    40.628883   -57.759356   -232.59692    10.918822   -476.10038   -42.288746    201.20433   -285.77002     101.6076    344.97551   -141.73544   -13305.472    263.48864 
   10850    40.630171    40.630171    40.630171   -214.60569     -342.753   -99.415314   -586.09398   -101.34117    142.03452   -344.70893    -199.7229    43.505194   -442.92662   -13305.818    264.95585 
   10900    40.625775    40.625775    40.625775    151.63751    78.462207    321.96415   -165.02387    158.15176    401.75303   -85.439641    218.29857    461.69532   -25.108581   -13303.888    262.00642 
   10950    40.625825    40.625825    40.625825    156.99311    351.87784     595.3841    108.38694    28.857647    272.41248   -214.69535    90.243849    333.81735   -153.33011   -13304.334    263.65212 
   11000    40.629465    40.629465    40.629465   -4.6147152   -257.73613   -14.343629   -501.12032    122.77483     366.0879   -120.52222    121.11715    364.64986   -122.42561   -13303.002    261.85318 
   11050    40.631044    40.631044    40.631044   -216.10871   -397.60634   -154.17115   -641.02471   -158.54736    84.851152   -401.93314   -92.172443    151.14359   -335.46845   -13305.477     267.4096 
   11100    40.628304    40.628304    40.628304   -8.2088922    -27.43093    215.88413   -270.73196   -7.8096948     235.6118   -251.21403    10.613949    254.04077   -232.77699   -13304.539    266.35772 
   11150    40.626833    40.626833    40.626833    47.524497   -24.750529    218.77154   -268.26794    171.35739    414.89335   -72.153561   -4.0333658    239.47149   -247.51991   -13304.416    266.89007 
   11200    40.628827    40.628827    40.628827    66.135866   -26.759252    216.68398   -270.17989    -54.27607    189.19013     -297.732    279.44292    522.81852    36.101864   -13302.796     264.5124 
   11250    40.631237    40.631237    40.631237   -205.72997   -313.74178   -70.466431   -556.99354   -196.51809    46.833462   -439.86781   -106.93004    136.50269   -350.36311   -13303.694    267.01032 
   11300    40.627988    40.627988    40.627988    145.36804    303.85977    547.39913    60.305554    46.112924    289.73283   -197.49455    86.131426    329.49242   -157.22225   -13301.625    263.75624 
   11350    40.627598    40.627598    40.627598    123.42655    49.406004    292.89774   -194.06899     151.7312    395.17498   -91.710137    169.14245    412.62186   -74.328864     -13302.5    266.19717 
   11400    40.631013    40.631013    40.631013   -77.358293   -166.48749    76.916241   -409.87137    -50.58186    192.96751   -294.11082   -15.005531    228.48249   -258.47903   -13302.024    266.01716 
   11450    40.632363    40.632363    40.632363   -19.472944    -90.11872    153.16999   -333.39708   -33.678407    209.74979   -277.08868    65.378293    308.65984     -177.891    -13300.91    264.60553 
   11500    40.630696    40.630696    40.630696   -3.0508462   -160.00149     83.33857    -403.3276    48.513397    291.88683   -194.83998    102.33555     345.7207   -141.03283   -13301.475    266.43476 
   11550    40.628804    40.628804    40.628804    126.34517    150.27522    393.66948   -93.093639    126.02328    369.48902   -117.43134    102.73703    346.14529   -140.64663   -13302.117    268.41079 
   11600    40.630261    40.630261    40.630261    73.233627   -189.57979    53.917357   -433.05235    117.34552    360.74526   -126.02265    291.93515    535.38142    48.484137   -13300.928    266.82904 
   11650    40.634013    40.634013    40.634013   -181.24677   -102.18677    141.12962   -345.49745   -93.849952    149.42183   -337.11512   -347.70358   -104.35577   -591.03148   -13302.663    270.90194 
   11700    40.633111    40.633111    40.633111   -58.957529   -187.11382    56.277563   -430.50357   -111.76711    131.68474    -355.2144    122.00834    365.48485    -121.4633   -13300.459     267.3539 
   11750    40.630416    40.630416    40.630416    24.711564   -45.483729    197.81118   -288.77578    126.59345    370.00952   -116.82524   -6.9750275    236.30662   -250.23571   -13302.282    271.58763 
   11800     40.63046     40.63046     40.63046    26.762155   -93.700409    149.69731   -337.08359     19.32279    262.92446   -224.25906    154.66408    398.08554   -88.763615   -13302.153    272.05155 
   11850    40.633042    40.633042    40.633042   -87.038853   -104.27361    139.11809   -347.66439    -134.4311    108.92464   -377.76147   -22.411855    221.01241   -265.82149   -13300.574    269.69782 
   11900    40.633192    40.633192    40.633192   -79.570443    23.165684    266.51156   -220.14837   -28.753296    214.49005   -272.00093   -233.12372    10.231914   -476.46843   -13299.843    268.98867 
   11950    40.631173    40.631173    40.631173    118.26227     10.00073    253.41238   -233.39596    122.41582    365.89894   -121.04707    222.37025    465.84684   -21.092812   -13301.134    272.18158 
   12000    40.632786    40.632786    40.632786   -78.056303    59.459661    302.80198   -183.88388   -129.93546    113.49835   -373.34911   -163.69311    79.662801   -407.02958   -13301.306    273.20595 
   12050    40.633253    40.633253    40.633253   -112.85073   -227.21485    16.042997   -470.45474   -134.45662    108.82864   -377.73959    23.119281    266.40768   -220.14477   -13301.911    275.06268 
   12100    40.631762    40.631762    40.631762    74.823908    125.98572    369.44321   -117.45474   -51.757588    191.76026   -295.25449     150.2436    393.65864   -93.168398   -13300.219    272.47072 
   12150    40.632564    40.632564    40.632564    51.699905    67.557455    310.92476   -175.78365    36.367176    279.70821   -206.96584    51.175083    294.60973   -192.24037   -13299.354    271.46837 
   12200    40.635215    40.635215    40.635215   -52.400902   -178.48675    65.108686   -422.08674   -65.642467    177.62712   -308.89656    86.926515     330.3051   -156.43493   -13298.614    270.70756 
   12250    40.635432    40.635432    40.635432   -130.77979   -126.65134    116.53471   -369.82084   -32.035334    211.43672   -275.49549   -233.65269    9.5638601   -476.85883   -13301.017    276.02303 
   12300    40.632938    40.632938    40.632938    135.49607    51.613656      294.926   -191.69215    68.905016     312.3185   -174.49409    285.96953    529.42499    42.533483   -13298.193     271.2239 
   12350      40.6338      40.6338      40.6338    110.79204   -4.0624609    239.45735   -247.57031    156.24311    399.52812   -87.035857    180.19546    423.76256     -63.3622   -13298.862    273.17917 
   12400    40.636491    40.636491    40.636491   -84.226133   -156.34843    86.825501   -399.51763   -53.223318    190.02777   -296.47319   -43.106656    200.02876   -286.24167   -13298.516    273.16508 
   12450     40.63608     40.63608     40.63608   -105.43112   -113.94969    129.48254   -357.37027    31.671273    275.07131   -211.71959   -234.01495    9.3684046   -477.39238   -13299.057    274.85802 
   12500     40.63349     40.63349     40.63349    73.301941   -126.24504    117.05709   -369.52304     99.61075    343.02412   -143.78111    246.54011    489.76951    3.3314645   -13299.132    275.65091 
   12550    40.634765    40.634765    40.634765    108.36807    158.23465    401.61115   -85.124421    4.7940989    248.22731    -238.6136    162.07545    405.50695   -81.357057   -13297.624     273.3763 
   12600    40.638009    40.638009    40.638009   -209.13169   -344.18259   -100.84288   -587.50771   -95.649934    147.71329   -339.00745   -187.56254    55.818597   -430.93061   -13298.598     275.8979 
   12650    40.635318    40.635318    40.635318    42.289504    47.830192    291.27207   -195.59541   -45.030418    198.27459   -288.30444    124.06874    367.40379   -119.24845   -13299.196    277.68473 
   12700    40.634776    40.634776    40.634776    50.474438   -38.278257    205.01064   -281.55001    52.429299    295.92737   -191.04671    137.27227    380.75018   -106.18442    -13298.83    277.60061 
   12750    40.637413    40.637413    40.637413   -54.674044    116.52329    359.87102   -126.80433   -89.556189    153.82227   -332.93043   -190.98924     52.27316   -434.21931   -13297.222    275.11887 
   12800    40.637637    40.637637    40.637637    17.392318    -212.4068    31.010172   -455.82115    113.15086    356.41014   -130.08689     151.4329    394.67392   -91.792085   -13296.433    274.21775 
   12850    40.636444    40.636444    40.636444   -3.2089293    27.118558    270.70284   -216.45486   -64.830864    178.51681   -308.15809    28.085518    271.52552    -215.3414   -13296.615    275.18459 
   12900    40.635496    40.635496    40.635496    112.85919   -16.130395    227.12931   -259.37477    171.77843    415.17648   -71.609357    182.92953    426.36036   -60.489402   -13296.632    275.83382 
   12950     40.63761     40.63761     40.63761    70.575063    60.800672    304.09488   -182.48331    54.946595    298.26702   -188.37629    95.977923    339.39312   -147.43294   -13296.897    276.95357 
   13000    40.639634    40.639634    40.639634   -170.17992   -259.99103   -16.673957   -503.29887   -351.17303   -108.01736   -594.31637    100.62431    343.88824   -142.62963   -13298.108    279.90085 
   13050    40.637291    40.637291    40.637291   -3.4885987   -69.042692     174.2664   -312.33712    144.65744    388.17668   -98.845232   -86.080541    157.18574   -329.34123    -13297.37    279.07051 
   13100    40.635236    40.635236    40.635236    285.64911    315.25233     558.7929    71.732323    260.62272    504.17007     17.07059    281.07229    524.58905     37.57098   -13293.252    271.69647 
   13150    40.639057    40.639057    40.639057   -181.74363   -167.99126    75.097578   -411.07186   -151.01727    92.214449   -394.23543   -226.22236    17.013562   -469.43655   -13298.159     281.7789 
   13200     40.63981     40.63981     40.63981    56.183701   -181.40784     62.08014   -424.88372    247.79395     491.1658    4.4354483      102.165    345.44744   -141.10682   -13294.232    274.76961 
   13250    40.638489    40.638489    40.638489   -86.426982   -235.51017    7.8103214   -478.82753   -189.17544    54.158896   -432.49905    165.40466      408.713   -77.877795   -13297.241    281.17201 
   13300    40.635856    40.635856    40.635856    92.943918    58.114107    301.58807    -185.3262    243.30267    486.79598  -0.15445464    -22.58502    220.84588   -266.01184   -13296.341    280.00382 
   13350    40.637821    40.637821    40.637821   -11.807637   -71.060899    172.37889   -314.49572   -55.137929    188.19025   -298.43797    90.775916    333.99709   -152.42901   -13297.248    282.32932 
   13400    40.640089    40.640089    40.640089   -244.51189   -222.86359    20.401813    -466.1145   -325.95106   -82.711534   -569.17311     -184.721    58.762602   -428.20456   -13296.377    281.21349 
   13450    40.637708    40.637708    40.637708    224.67057    299.08332    542.47329    55.713131    228.42859    471.80478   -14.947385     146.4998    389.93751   -96.910976   -13293.736    276.66879 
   13500    40.638508    40.638508    40.638508   -35.183139   -224.25489    19.150171   -467.64008   -23.668273    219.62244   -266.95301    142.37375    385.70562   -100.92831    -13294.82     279.3269 
   13550    40.638004    40.638004    40.638004   -29.545736   -110.31045    133.02565   -353.62739    48.517033    292.08047   -195.01533   -26.843796    216.28785   -269.97325   -13296.986    284.07303 
   13600    40.637313    40.637313    40.637313    2.9985382    -20.30025    223.13175   -263.73764   -156.28401    87.137751   -399.69905    185.57988    428.82419   -57.651984   -13296.215    283.12797 
   13650    40.638396    40.638396    40.638396   -14.068008   -114.53994    128.84726   -357.89863    18.101605    261.45928   -225.25588    54.234306    297.94191   -189.47237   -13294.578    280.50422 
   13700     40.63977     40.63977     40.63977   -24.028045   -31.566892    211.72953   -274.85496   -88.182613    155.06809   -331.41498     47.66537    290.80377   -195.44651   -13294.035    279.99381 
   13750     40.63924     40.63924     40.63924    52.050265    -17.10691    226.34242   -260.53182   -89.977532    153.54666   -333.47457    263.23524    506.78246    19.712606   -13293.941    280.34795 
   13800    40.638391    40.638391    40.638391    110.32958    153.57904    396.85624   -89.686153  -0.92167679    242.61727   -244.43448    178.33139    421.74581   -65.073681   -13292.726    278.53424 
   13850    40.638572    40.638572    40.638572     76.64713   -45.554201    197.86604   -288.97008    116.22915    359.51584   -127.03877    159.26645    402.48081   -83.936154   -13294.325    282.15374 
   13900    40.640473    40.640473    40.640473     9.791836   -57.548615    185.94734   -301.02349    19.475116    262.78897   -223.83218    67.449007    310.90199   -175.96952   -13293.875     281.8037 
   13950    40.642547    40.642547    40.642547   -155.24301   -131.91731     111.1568   -374.96453   -131.80256    111.32314   -374.92265   -202.00915    41.182835    -445.1893   -13295.158    284.80494 
   14000     40.64039     40.64039     40.64039   -35.655012   -332.61646   -89.261673   -575.96535     52.87647    296.43351     -190.663    172.77495    416.33195   -70.777606   -13293.769    282.62806 
   14050    40.638549    40.638549    40.638549    49.507167    87.248983    330.57623   -156.06645    4.9390984    248.24816   -238.34285    56.333419    299.68121    -187.0087   -13295.744    286.96311 
   14100    40.639947    40.639947    40.639947      2.72087    13.003139     256.5851   -230.57926   -31.598315    211.71962   -274.90463    26.757785    270.14342   -216.60115   -13294.216    284.51509 
   14150    40.641101    40.641101    40.641101    30.233658   -3.9348283    239.51379   -247.37675    187.21131    430.53639    -56.11985   -92.575504    150.65555   -335.80274   -13291.686    280.12516 
   14200    40.641083    40.641083    40.641083   -50.158484   -149.02153    94.342702   -392.37273   -41.156181    202.11839   -284.43156    39.702255    282.99506   -203.59368   -13294.162    285.40899 
   14250    40.641189    40.641189    40.641189    22.345014    12.646576     255.8863   -230.56463   -142.41608    100.95081   -385.77123    196.80455    440.31826   -46.686934   -13294.206    285.98202 
   14300    40.641404    40.641404    40.641404    104.07924    43.143855    286.48673   -200.17374    68.220708     311.7445   -175.27852    200.87317     444.1856   -42.412057   -13290.024    278.38251 
   14350    40.641892    40.641892    40.641892    -1.845087   -72.708735    170.57009   -315.98019   -198.09654    45.297858   -441.44377    265.27002     508.5596    21.989688   -13293.086    284.79306 
   14400    40.641417    40.641417    40.641417   -36.180675   -153.97295     89.39698   -397.31571   -44.451724    198.64144   -287.51235    89.882649    333.27147   -153.49041   -13295.188     289.3449 
   14450    40.640686    40.640686    40.640686    108.74009    143.41713    387.12294   -100.27475    101.92335    345.30031   -141.44163    80.879783    324.14507   -162.33809   -13291.498    282.67855 
   14500    40.643262    40.643262    40.643262   -14.583012    32.320591    275.44051    -210.7616   -48.607513     194.9089   -292.12372   -27.462113    215.78274   -270.71632   -13292.327    284.74998 
   14550    40.642986    40.642986    40.642986   -37.790055   -226.65181    16.642916   -469.94473     65.67136    308.91184   -177.56196     47.61028    290.96876   -195.73052   -13292.161    284.89494 
   14600    40.640718    40.640718    40.640718    64.243243    64.196799    307.69217   -179.28979   -6.1570565    237.13603   -249.43337    134.68999    378.10543   -108.69548   -13292.745    286.48662 
   14650    40.641474    40.641474    40.641474    18.583595    65.058129    308.55924   -178.43085   -126.14258    117.54433   -369.80761    116.83524    360.12543   -126.45134   -13292.072    285.64295 
   14700    40.643283    40.643283    40.643283   -80.770125     20.17634    263.53101   -223.16531   -145.49623    97.715699   -388.69256   -116.99048    126.30028   -360.26215   -13293.395    288.65391 
   14750      40.6432      40.6432      40.6432    18.825638    12.131751    255.61778   -231.33547   -5.8742923    237.36101   -249.09546    50.219456     293.4665   -193.02202    -13291.05    284.57408 
   14800    40.641828    40.641828    40.641828    59.688144     13.38137    256.64132   -229.86031   -6.9829497    236.46014   -250.42148    172.66601    416.18908   -70.835655   -13291.847    286.56654 
   14850    40.641895    40.641895    40.641895    66.260735    -31.36407    211.94679   -274.64648    59.560317    302.88738   -183.74727    170.58596    414.11279   -72.944958   -13291.946     287.1986 
   14900    40.644253    40.644253    40.644253    -137.8918   -28.810621    214.47588   -272.09583   -283.00416   -39.579061   -526.39169   -101.86061    141.30697    -345.0115   -13293.074    289.82247 
   14950    40.643903    40.643903    40.643903   -25.902299   -149.35746    93.925205    -392.6111   -19.989706    223.20465   -263.15831     91.64027    334.83848   -151.53488   -13291.409    287.03537 
   15000    40.641649    40.641649    40.641649     121.2001    369.62337    613.01992     126.2413   -105.35529    138.16421   -348.85748    99.332208     342.6842   -143.99266    -13291.13    286.92694 
   15050    40.640804    40.640804    40.640804    124.25808    130.95532    374.34542   -112.43056    266.91166    510.33746    23.489199   -25.092751    218.47247   -268.63997   -13290.189    285.52842 
   15100    40.643721    40.643721    40.643721    68.421529    56.283599     299.5077   -186.91801    34.445267    277.64148   -208.73776    114.53572    357.94386   -128.85714    -13289.81    285.21211 
   15150    40.646227    40.646227    40.646227   -260.38134   -424.20211   -180.93901    -667.4424   -211.45708    31.843133   -454.74133   -145.48484     97.56841   -388.52054   -13291.683    289.25668 
   15200    40.641762    40.641762    40.641762    130.30459    204.55067    448.07269   -38.965084    116.31639     359.7568     -127.118    70.046715    313.66148   -173.54963   -13290.562    287.49797 
   15250    40.641099    40.641099    40.641099    98.566659     46.09651     289.4537   -197.24632    79.674937    323.07342     -163.702    169.92853    413.19508   -73.338094   -13292.078    290.84329 
   15300    40.644544    40.644544    40.644544   -118.84699    75.931577    319.29149   -167.42962   -140.47862    102.95622   -383.89706   -291.99393   -48.716274   -535.23731   -13292.477    292.02294 
   15350    40.645904    40.645904    40.645904   -177.19528   -169.86276    73.254295   -412.95275   -274.56886   -31.320836   -517.79302   -87.154236    156.42709   -330.73137   -13291.589    290.70199 
   15400    40.643297    40.643297    40.643297    83.933268    152.76898     396.0747   -90.502736      41.9908    285.39009   -201.39526    57.040018    300.32707    -186.2406   -13289.785    287.61095 
   15450    40.643212    40.643212    40.643212   -47.128333    -3.393349    239.99335   -246.76746   -127.31612    115.95246    -370.5711   -10.675524    232.62141   -253.95219   -13293.994    296.15045 
   15500    40.644556    40.644556    40.644556   -10.913815    130.34848    373.79776   -113.07962   -50.513648    192.85559    -293.8666   -112.57628    130.82344   -355.95771   -13289.964    288.73837 
   15550    40.645592    40.645592    40.645592   -114.97909   -134.85099    108.38642   -378.07208   -47.571431    195.74879   -290.85868   -162.51484    80.759144    -405.7594   -13290.329    289.82883 
   15600    40.643746    40.643746    40.643746    55.880874    222.32778    465.63544    -20.95781   -81.345277    161.94658   -324.61616    26.660114    270.02706   -216.70004   -13290.832    291.18802 
   15650    40.643304    40.643304    40.643304    147.72957    187.86622    431.33871   -55.616187    99.284361    342.61086   -144.02819    156.03812     399.2822   -87.176923   -13288.079    286.24089 
   15700    40.645435    40.645435    40.645435   -95.613541    108.29415    351.63257   -135.01263   -140.73087    102.60252   -384.03333    -254.4039   -11.028882   -497.77992   -13291.127    292.51058 
   15750    40.645221    40.645221    40.645221   -119.59063   -210.43333    32.727111   -453.56407     -83.1876    160.16077   -326.52808   -65.150955    178.19187   -308.45633    -13290.72    292.09127 
   15800     40.64282     40.64282     40.64282    128.44945    151.43527    394.85211   -91.971136   -10.250141    233.09686   -253.59423    244.16322    487.66411   0.67692021   -13290.004    291.06987 
   15850    40.643562    40.643562    40.643562    255.12946    184.87633     428.1725   -58.425868    204.18276    447.61206   -39.252558    376.32928    619.85917    132.79191    -13286.28     284.2209 
   15900    40.648933    40.648933    40.648933   -203.49251    -85.01199    158.21767   -328.22968   -224.27456    18.968445   -467.48006   -301.19097   -58.127059   -544.24984   -13289.703    291.20079 
   15950    40.647235    40.647235    40.647235   -177.93799   -277.47371   -34.186329   -520.73281   -130.23204    112.94551   -373.38245   -126.10822    117.17899   -369.36687   -13291.204    294.46058 
   16000    40.641642    40.641642    40.641642    253.28201    245.03511    488.42997    1.6647404    116.57843    360.12894   -126.96555    398.23248    641.69682     154.7973   -13290.572    293.59034 
   16050     40.64468     40.64468     40.64468    44.585677   -2.5265583    240.73721    -245.7762    193.21688    436.70099   -50.242064   -56.933291    186.34372   -300.19038   -13289.491    291.84188 
   16100    40.648092    40.648092    40.648092   -96.521565   -56.646929    186.66181   -299.93368   -213.35102    29.881224     -456.579   -19.566745    223.58951   -262.70245   -13287.606    288.53645 
   16150    40.646183    40.646183    40.646183   -124.85479    -223.7641    19.532289   -467.05546    -140.8099    102.28314   -383.88087   -9.9903647    233.45974   -253.42104   -13291.657    296.70436 
   16200    40.643683    40.643683    40.643683    260.25256    311.88632    555.22096    68.567867    121.74351    365.25382   -121.76393    347.12785    590.55107    103.70683   -13286.817    287.67145 
   16250    40.647248    40.647248    40.647248   -64.881933    27.348632     270.6111   -215.89058   -187.98853     55.39121   -431.34478   -34.005901    209.11678   -277.12616   -13289.246    292.70305 
   16300    40.647707    40.647707    40.647707   -300.11993   -413.03993   -169.93351   -656.13259   -163.64314    79.478522   -406.74582    -323.6767   -80.381693   -566.92415   -13292.628    299.56755 
   16350    40.643982    40.643982    40.643982     184.8353    291.46572    534.86483    48.102049    92.583257    335.91854   -150.72137    170.45693    413.73533   -72.798546   -13288.662    292.21654 
   16400    40.646359    40.646359    40.646359   -120.05301   -36.129501    207.28369   -279.52389   -117.08587        126.3   -360.45089   -206.94367    36.293436    -450.1573   -13290.463    296.02097 
   16450    40.646194    40.646194    40.646194     131.3871    117.35014    360.50126   -125.80153    123.33839    366.80715   -120.10924    153.47277    396.71388   -89.753058   -13286.527    288.71751 
   16500    40.645997    40.645997    40.645997    19.115891    199.68744     442.8855   -43.492936   -44.688078    198.48414   -287.83879   -97.651693    145.56952   -340.86795   -13287.923    291.72469 
   16550    40.645018    40.645018    40.645018      139.161    245.82592    489.16385    2.5033245    67.598466     311.2998   -176.09617     104.0586    347.45994    -139.3335   -13286.999    290.23117 
   16600    40.646961    40.646961    40.646961   -47.628543   -26.188985    217.15813   -269.50989   -115.06211    128.14102   -358.24623   -1.6345282    241.64228   -244.91567   -13288.658    293.73898 
   16650    40.647639    40.647639    40.647639   -163.65753   -132.37627    110.85765    -375.6015   -199.92358    43.177061   -443.01225   -158.67272    84.712936   -402.02265   -13289.088    294.86789 
   16700    40.644928    40.644928    40.644928    90.328838    3.7104478    246.98272   -239.54788    156.31857    399.65288   -86.978489     110.9575    354.46103   -132.53614   -13289.441    295.84883 
   16750    40.645008    40.645008    40.645008    66.487621    308.01568    551.47183    64.589303   -9.2102034    234.19519   -252.61092   -99.342608    143.82081   -342.47631   -13287.397    292.18604 
   16800    40.646982    40.646982    40.646982   -28.647079    -1.732685    241.54812    -244.9706   -113.97574    129.49212   -357.43738    29.767187    273.05031   -213.48151   -13288.147    293.92404 
   16850    40.647575    40.647575    40.647575   -113.98103   -112.42947    130.83002   -355.68448   -158.39772    84.776789   -401.54878   -71.115905    172.11511   -314.33598   -13289.385     296.6021 
   16900     40.64558     40.64558     40.64558    185.06392    171.88758    415.32634   -71.561962    257.47412    500.81943    14.144375    125.83005    369.21687    -117.5542   -13286.361    291.02729 
   16950    40.646624    40.646624    40.646624   -8.3386466    105.91063    349.03249   -137.19517   -153.59331    89.818074   -396.98929    22.666735    265.86319   -220.51077   -13288.359    295.16891 
   17000    40.647892    40.647892    40.647892     -84.9798   -202.79434    40.515017   -446.07501   -84.437064    158.80318   -327.65572    32.292003    275.63913   -211.02758   -13288.971    296.61817 
   17050    40.647433    40.647433    40.647433   -41.121248    62.970544    306.33284   -180.36071    -258.0537   -14.749671   -501.34451    71.719408    315.11833   -171.67969   -13287.587    294.20613 
   17100    40.646208    40.646208    40.646208    51.590538   -157.36983    85.934028   -400.67869    181.58593    424.96846   -61.788152    130.55551    373.93383   -112.79433   -13288.503    296.24409 
   17150     40.64691     40.64691     40.64691   -65.900093    88.764333    331.98169   -154.44066   -136.20971    107.12414   -379.50475    -150.2549    92.656464   -393.14362   -13288.567    296.63092 
   17200    40.647071    40.647071    40.647071   -5.7301942    85.350031    328.82379   -158.08577   -56.817588    186.70431   -300.31779   -45.723026    197.68615   -289.11946   -13287.799    295.40475 
   17250    40.647511    40.647511    40.647511    -25.19417   -189.67004    53.700329   -433.01896    87.685232    330.78502   -155.39072    26.402299    269.67008   -216.83074   -13287.151     294.4074 
   17300    40.646197    40.646197    40.646197    51.128973   -28.626207    214.56675   -271.80795   -66.967949    176.55797   -310.48319    248.98108    492.66839     5.312711   -13286.795    293.97096 
   17350    40.645704    40.645704    40.645704     25.76403    133.32117      376.588   -109.92367   -41.976564    201.21414   -285.14415    -14.05252    229.24892   -257.33613   -13287.693    295.95127 
   17400    40.646821    40.646821    40.646821    88.993293   -51.853742    191.55802   -295.24747    109.37425    352.74602   -133.99181    209.45937    452.79511     -33.8713   -13287.471    295.76596 
   17450    40.649304    40.649304    40.649304    -91.48287    7.8513218    250.90382   -235.17696   -111.95574    131.52027   -355.40683   -170.34419     73.00445   -413.68431   -13287.294    295.65469 
   17500     40.64965     40.64965     40.64965   -125.92975   -340.24098   -97.300764   -583.17118    26.244848    269.34774   -216.82616   -63.793135    179.42782   -306.98223   -13288.019    297.29323 
   17550    40.646417    40.646417    40.646417    4.3014998   -46.704835    196.79111   -290.18264   -108.84987    134.52848   -352.21707     168.4592    411.65489   -74.710873   -13288.223    297.92335 
   17600    40.644359    40.644359    40.644359    139.68143    106.22348    349.71076   -137.23032    162.31823    405.65488   -81.000947    150.50258    393.90671   -92.902165   -13287.957    297.64168 
   17650    40.647422    40.647422    40.647422    14.878034    216.79361    460.19983   -26.592206   -132.52787    110.86718   -375.91484   -39.631644    203.73052   -282.97524   -13285.756    293.60247 
   17700    40.650624    40.650624    40.650624   -138.79927   -55.326369    187.80265   -298.43932   -197.14582     46.14064   -440.39311   -163.92561    79.212649   -407.03518   -13288.721    299.56013 
   17750    40.649172    40.649172    40.649172   -36.150917    61.241998    304.39379   -181.90263    19.197546    262.52198   -224.10601    -188.8923    54.443962   -432.20948    -13286.87    296.19526 
   17800    40.646619    40.646619    40.646619    134.11957     266.8086    510.09533    23.542802    61.829198    305.25472   -181.58944    73.720902    317.13464   -169.68165   -13285.681    294.11104 
   17850    40.648224    40.648224    40.648224   -10.097739   -112.46807    130.93302   -355.83891   -4.1572798    239.11805   -247.42097    86.332135    329.80676   -157.11338   -13287.112    297.09284 
   17900    40.649757    40.649757    40.649757   -213.19533    -135.9982    107.11398   -379.09913   -465.20502   -221.96817   -708.40493   -38.382757    204.60024   -281.33481   -13288.333    299.66476 
   17950    40.646153    40.646153    40.646153     133.7404    157.47713    401.08526    -86.10835    242.56937    485.97251  -0.81750304    1.1747135    244.55106   -242.20841   -13286.412    296.14748 
   18000    40.646559    40.646559    40.646559    169.63043    205.26381    448.52071   -37.983749    36.418296     279.6324   -206.80414    267.20919    510.65954     23.78621   -13287.075    297.62351 
   18050    40.652159    40.652159    40.652159   -295.84138   -172.97238    70.002892   -415.92789   -283.00239   -39.816429   -526.15103   -431.54937   -188.49013   -674.58386    -13288.39     300.3592 
   18100    40.650501    40.650501    40.650501    -73.75406   -73.999733    169.28929   -317.26987    -130.0967    113.34188   -373.51444   -17.165743    225.99491   -260.29528   -13285.795    295.52623 
   18150    40.646245    40.646245    40.646245    96.166344    155.87866    399.41117   -87.632454   -60.233594    183.13576   -303.58453    192.85397    436.25264   -50.533759   -13287.652    299.30984 
   18200    40.646927    40.646927    40.646927    175.47057    206.98394    450.27473   -36.277265     341.3466    584.68009    98.029235   -21.918825    221.42695    -265.2664   -13285.156    294.66771 
   18250    40.652093    40.652093    40.652093   -179.84718   -56.152416    186.98349   -299.27516   -468.95038   -225.80205    -712.0659   -14.438737    228.73498   -257.57784   -13286.688    297.81787 
   18300     40.65108     40.65108     40.65108   -146.48119   -204.13115    39.200763   -447.43375   -120.05816    123.24245   -363.33115   -115.25425    128.05163   -358.56082   -13286.354    297.34563 
   18350    40.647339    40.647339    40.647339    152.34576    345.38026    588.63495    102.12581    116.05076    359.35705    -127.2651   -4.3937254    238.83822   -247.58599   -13287.164    299.08915 
   18400    40.648314    40.648314    40.648314    39.840227    111.98087    355.25461   -131.26159    -97.70683    145.84807   -341.24678    105.24664    348.40619   -137.89187   -13284.387    293.89244 
   18450    40.649518    40.649518    40.649518   -43.171992   -2.8361551    240.35105   -246.00049     129.5971    373.01818   -113.78207   -256.27692   -12.979845   -499.54769   -13286.612    298.36329 
   18500    40.648505    40.648505    40.648505    101.24795    218.24174    461.67031   -25.178325    15.561833     258.7863   -227.64112     69.94029    313.15222   -173.23543    -13284.19    293.83806 
   18550    40.648958    40.648958    40.648958   -52.247421   -4.6820598    238.75674   -248.09137   -196.79381    46.330855   -439.87912    44.733607     288.0334   -198.56432   -13288.345    302.03487 
   18600    40.649113    40.649113    40.649113   -56.733612   -3.5033343    239.58563   -246.58202   -90.042583    153.21232   -333.28295    -76.65492    166.55358   -319.85154   -13286.397    298.41916 
   18650    40.648364    40.648364    40.648364    68.655145    224.00438    467.35609   -19.314211   -188.23487    55.141152   -431.61113    170.19593    413.58345   -73.174317   -13286.073    297.94127 
   18700    40.650336    40.650336    40.650336   -80.376999   -141.46978    101.92609   -384.85433   -13.513316    229.95002   -256.95096     -86.1479    157.10699   -329.36147   -13285.705    297.38366 
   18750    40.650298    40.650298    40.650298   -128.58808   -83.145517    159.77225   -326.04999    -205.1903    37.959775   -448.30957   -97.428425    145.63284   -340.48304   -13287.988     301.9554 
   18800    40.646816    40.646816    40.646816    138.77851    312.50042    556.28424    68.729043    83.938646    327.16869   -159.26664     19.89647    263.37399   -223.57173   -13284.734    295.80138 
   18850    40.648234    40.648234    40.648234    30.728254   -38.662071    204.60602   -281.90568   -7.3471006    236.16888   -250.86292    138.19393    381.34426   -104.92852   -13286.842    300.01921 
   18900    40.650992    40.650992    40.650992    -42.95928    148.55719    391.76513   -94.631168   -127.39375    115.88265   -370.64849   -150.04128    93.058575   -393.14124   -13285.424    297.41421 
   18950    40.650288    40.650288    40.650288   -100.85335    -181.3983    61.866804    -424.6396    62.860203    306.07993   -180.33921   -184.02196    59.259421   -427.28425   -13286.265    299.17496 
   19000    40.647024    40.647024    40.647024    214.95262    284.83887    528.06737    41.634043    51.056801    294.41204   -192.28338    308.96218    552.54473     65.41296   -13285.026    296.90714 
   19050    40.649705    40.649705    40.649705   -81.133724   -129.00732    114.34553   -372.34069    75.547217     318.6386   -167.53262   -189.94107    53.080041   -432.94369   -13286.857    300.57186 
[...]
   13800        0.138    291.00261    7.7081202  0.024272743 -0.0045248811 -0.023099234    7.6849264    7.7313128    150.42255   -13024.964    -25759.56 
   13850       0.1385    289.48167    7.6931768 -0.019929264  -0.08086121 -0.023102664    7.6699801    7.7163723    149.63635     -13022.5   -25307.954 
   13900        0.139    291.70069    7.7764968 -0.020065687  0.036329728 -0.023081446    7.7533146    7.7996778    150.78339   -13021.951   -25975.869 
   13950       0.1395    292.40459    7.7633246  0.034195037  0.055360884 -0.023070277    7.7401403    7.7865077    151.14724   -13020.605   -26176.268 
   14000         0.14    290.29233    7.7626058 -0.019044665 0.0027132017 -0.023078493    7.7394436    7.7857669    150.05539   -13017.814   -25820.915 
   14050       0.1405    292.06281    7.7758053 -0.058294545 0.0016094312 -0.023083456    7.7526219    7.7989875    150.97057   -13017.015   -25730.401 
   14100        0.141    291.80496    7.8211659 0.00028761018 -0.017408969 -0.023073945    7.7979844    7.8443463    150.83729    -13015.17   -26013.482 
   14150       0.1415    297.26935     7.847889  0.039829398  0.040463454 -0.023061825    7.8247191    7.8710578    153.66189   -13016.276   -26427.273 
   14200        0.142    294.94924    7.8306521 -0.022628759 -0.015413473 -0.023058643     7.807496     7.853807     152.4626   -13013.352   -25975.366 
   14250       0.1425    285.96849    7.7274369 -0.019690775 -0.013715348  -0.02305967    7.7042947    7.7505779    147.82035   -13007.005   -25646.769 
   14300        0.143    294.08148     7.854946  0.040805067  0.032335478 -0.023036145    7.8318018    7.8780891    152.01404   -13009.485   -26426.955 
   14350       0.1435    290.28478    7.8710878 -0.0011355756  0.010547296 -0.023037477    7.8479469    7.8942274    150.05149   -13005.791   -26268.332 
   14400        0.144    292.02666    7.8550118 -0.054338121 -0.010967788 -0.023045474    7.8318683    7.8781541    150.95188   -13004.963   -25965.686 
   14450       0.1445    291.36909    7.8812951 -2.5298705e-05 -0.0035149583 -0.023038717    7.8581373    7.9044516    150.61198   -13002.891   -26259.183 
   14500        0.145    293.05698    7.9126564  0.024818975 0.0090266216 -0.023020385    7.8895561    7.9357555    151.48447   -13002.023    -26488.34 
   14550       0.1455    291.11591    7.8783456  0.041595587 -0.004925422 -0.023020062    7.8552359    7.9014539    150.48111   -12999.279   -26383.386 
   14600        0.146    289.72465    7.8605182 0.0018716117 -0.035585746 -0.023019326    7.8373888    7.8836463    149.76195   -12996.828   -26089.347 
   14650       0.1465    291.52433    7.8626249  0.020558716 -0.030841571 -0.023012959    7.8395111    7.8857374    150.69222   -12996.022   -26174.474 
   14700        0.147    287.28328    7.8480441 -0.0015077067  -0.02289151 -0.023004083    7.8249329    7.8711539    148.49998   -12992.095   -26078.816 
   14750       0.1475     287.2113    7.8283047 0.0036588903   0.01924008 -0.022995088    7.8051895    7.8514184    148.46277   -12990.327   -26170.679 
   14800        0.148    290.08169    7.8122967  0.013847228  -0.02782856 -0.022993849     7.789208     7.835384    149.94651   -12990.084   -25994.385 
   14850       0.1485    292.33905    7.7421444 -0.0042803489 -0.0072748583 -0.022991824    7.7190688    7.7652186    151.11336   -12989.525   -25768.631 
   14900        0.149    294.43287    7.6449516 0.0047456205  0.006668966 -0.022979967    7.6218876    7.6680142    152.19568   -12988.895   -25521.221 
   14950       0.1495    296.24667    7.5168203   0.01744676  0.010321422 -0.022973557    7.4937351    7.5399039    153.13325   -12988.155   -25148.628 
   15000         0.15    296.72472    7.4013875 -0.046167886  0.052676284 -0.022976838    7.3783167    7.4244568    153.38037   -12986.745   -24692.986 
   15050       0.1505    304.25068     7.289207  -0.03265575  0.018369654 -0.022969439    7.2661675    7.3122449    157.27062   -12989.017   -24249.736 
   15100        0.151    303.02416    7.0944295 -0.051498951 0.0042977033 -0.022958321    7.0713733     7.117484    156.63662   -12986.819   -23490.761 
   15150       0.1515     314.8956    6.9117087  0.021293995  0.039251207  -0.02292812    6.8886923    6.9347234     162.7731   -12991.459   -23240.846 
   15200        0.152    315.38381    6.6090598  0.059737802 -0.026761326  -0.02291853    6.5860855    6.6320323    163.02546   -12990.283   -22140.121 
   15250       0.1525    318.88193    6.2813558 -0.013337772 -0.011751581 -0.022914028     6.258393    6.3043167    164.83368    -12990.77   -20854.222 
   15300        0.153    329.15876    5.9459889 -0.0053411582  0.031617617 -0.022902831    5.9230625    5.9689132    170.14589   -12994.899   -19907.551 
   15350       0.1535    334.15201    5.6073996  -0.02804573 -0.032032207 -0.022902555    5.5844544    5.6303423    172.72695   -12996.433   -18491.072 
   15400        0.154    335.01225    5.1941277   0.05202696 -0.054712672  -0.02289367    5.1712063    5.2170464    173.17162   -12995.982   -17304.806 
   15450       0.1545    339.12061    4.8524245  0.089519224 -0.046115315  -0.02287296    4.8295253    4.8753208    175.29528   -12997.384   -16319.428 
   15500        0.155    343.58505    4.5517803  0.043632239  0.028933698 -0.022875616    4.5289084     4.574649      177.603   -12999.148   -15414.488 
   15550       0.1555    349.23647    4.2293884 -0.002056156 -0.023993203 -0.022898701    4.2064538    4.2523193    180.52429   -13001.647    -14011.13 
   15600        0.156    345.61369    3.9967499  0.008089561 -0.067938347 -0.022920861    3.9737508    4.0197449    178.65163   -12999.486   -13123.004 
   15650       0.1565    355.10777    3.8298894  0.051691972 0.0024924364 -0.022905004    3.8069142      3.85286    183.55923   -13004.207   -12946.913 
   15700        0.157    351.42257     3.737719 -0.014077183   0.03788408 -0.022915574    3.7146743    3.7607584     181.6543   -13002.195    -12538.42 
   15750       0.1575    358.45769    3.6579491 -0.0030485794  0.084621272 -0.022938024    3.6348287    3.6810636    185.29084   -13005.733   -12465.073 
   15800        0.158    355.47998    3.5921901  -0.03839707  -0.01969733 -0.022964919    3.5690358    3.6153378    183.75163   -13004.129   -11780.319 
   15850       0.1585    351.43079    3.5356221 -0.093812591 -0.018556763 -0.022977524    3.5124464    3.5587907    181.65855   -13001.971   -11410.843 
   15900        0.159     364.8669    3.5427921  0.098405366 -0.0077872278 -0.022953801    3.5196664      3.56591    188.60383   -13008.866   -12111.368 
   15950       0.1595    356.19129    3.3844364  0.085001001  0.026523006 -0.022972483    3.3613445    3.4075197    184.11931   -13004.367   -11653.201 
   16000         0.16    363.57135    3.2883991 -0.0093785823 0.0022126777 -0.023003806    3.2652094    3.3115794    187.93414   -13008.194   -10937.444 
   16050       0.1605    365.11109     3.128248 -0.054426062 -0.026985662 -0.023022154    3.1051116    3.1513741    188.73005   -13008.979   -10156.121 
   16100        0.161    370.08371    3.0150355 -0.0099875136   0.01871793 -0.023030165    2.9918821    3.0381778    191.30046    -13011.61    -10079.22 
   16150       0.1615    370.83635    2.8453768  0.019332986  0.053176832 -0.023038023    2.8222366    2.8685049    191.68951    -13012.12   -9726.2886 
   16200        0.162    378.03957    2.7892592  0.055630419  0.041186128 -0.023057042    2.7660479    2.8124575    195.41293   -13016.033   -9620.2524 
   16250       0.1625     373.1588    2.5389907  0.066212881  -0.11165943  -0.02310867    2.5157946    2.5621729    192.89001   -13013.757   -8311.8137 
   16300        0.163     374.8996    2.3623098  0.074424775  -0.14920376 -0.023130786    2.3390627    2.3855422    193.78985   -13015.001   -7625.1029 
   16350       0.1635    382.63058    2.2940821   0.06315873 -0.026724197 -0.023120847    2.2708513    2.3172972    197.78608    -13019.47   -7768.3888 
   16400        0.164    380.30727    2.1500847    0.0121782  0.041511768 -0.023134114    2.1268479    2.1733049    196.58513   -13018.697   -7345.9156 
   16450       0.1645    378.87379    2.0035787 -0.052340343  0.092383079 -0.023156144    1.9802994    2.0268405    195.84415   -13018.358   -6812.0716 
   16500        0.165    383.34234    1.8617953  -0.10359716   0.09925781 -0.023178986     1.838461     1.885111      198.154   -13021.126   -6191.5197 
   16550       0.1655    386.85065     1.803676  0.035131414 -0.0061033968 -0.023197376    1.7802219    1.8271105    199.96748   -13023.506   -6109.0134 
   16600        0.166    387.79546    1.7171409 -0.041273482 -0.051024979 -0.023218362     1.693539    1.7407222    200.45586   -13024.545   -5416.1414 
   16650       0.1665    386.74329    1.7093358  0.076839358 -0.042310129 -0.023214841    1.6858324    1.7328178    199.91199   -13024.593   -5812.8835 
   16700        0.167    388.86679    1.6343085  0.049165309  0.022115554 -0.023223702    1.6108518    1.6577429    201.00965   -13026.333   -5685.2979 
   16750       0.1675    386.10678    1.5964394 -0.039171896 -0.0060042019 -0.023256877    1.5729452    1.6199105    199.58296    -13025.55   -5170.8777 
   16800        0.168    394.07978    1.5770454 -0.012819212 -0.010615069  -0.02326394    1.5535158    1.6005509     203.7043   -13030.307   -5178.7038 
   16850       0.1685    392.40986    1.5734607 -0.0060250071 -0.0081855909 -0.023265744    1.5499316    1.5969648     202.8411   -13030.121   -5197.5003 
   16900        0.169    391.79696     1.579787   0.10645107 -0.044236454 -0.023254199     1.556452    1.6030963    202.52428   -13030.495   -5473.3387 
   16950       0.1695    387.58396    1.5544042  0.047897714  0.025430158   -0.0232698    1.5310017    1.5777801    200.34653   -13029.029   -5425.7737 
   17000         0.17    391.69935    1.5421989 -0.055575788 -0.019208832  -0.02329492    1.5188608    1.5655096    202.47383   -13031.852   -4891.3811 
   17050       0.1705    386.92695    1.4884058 -0.041700297 -0.024794695 -0.023289598    1.4649962    1.5117869    200.00692    -13030.04   -4739.7027 
   17100        0.171    383.67815    1.4558597 -0.0077109956  0.077863311 -0.023269639    1.4325232    1.4791668    198.32758   -13029.031   -5086.7069 
   17150       0.1715    393.88257    1.4755461  0.045144501  0.063335249 -0.023266793    1.4521135    1.4989482    203.60236   -13035.035   -5280.0861 
   17200        0.172    384.79627    1.4208353 -0.050745809 -0.055164584  -0.02330639     1.397431     1.444208    198.90555   -13031.048    -4383.083 
   17250       0.1725    390.80312     1.439334  -0.05529157  -0.05350203 -0.023301224    1.4158489    1.4627864    202.01056   -13034.845   -4435.1346 
   17300        0.173    389.74777    1.4413677  0.051808789  0.059416454 -0.023266398    1.4179195    1.4647821    201.46504    -13035.02   -5175.3097 
   17350       0.1735    391.54363     1.494419  0.088326024  0.067063251 -0.023252631    1.4710189    1.5177841    202.39333   -13036.663   -5499.3609 
   17400        0.174    394.93153     1.386677 -0.016852696 0.0069006943 -0.023302539     1.363162    1.4101557    204.14458   -13039.169   -4589.0832 
   17450       0.1745    391.52248    1.3847862  -0.11758415 -0.042135774 -0.023332171     1.361367    1.4081681     202.3824   -13038.116   -4083.5544 
   17500        0.175    395.53172    1.3710729 0.0035905558  0.052627406 -0.023300662    1.3477099    1.3943973    204.45482   -13040.939   -4757.6361 
   17550       0.1755     388.7407    1.3046167  0.083098486  0.040742715 -0.023296867     1.281157    1.3280367    200.94447   -13038.174   -4761.5265 
   17600        0.176    387.61423    1.3451975  0.040277587 0.0093846206 -0.023313515    1.3216755    1.3686784    200.36218   -13038.354   -4649.5324 
   17650       0.1765    389.33577    1.1987386 -0.075971553  -0.10111027 -0.023352785     1.175305    1.2221299    201.25206   -13039.979   -3405.5227 
   17700        0.177     390.6426    1.2161529 -0.060889173  0.011740789 -0.023329789    1.1927563    1.2395057    201.92758   -13041.421    -3890.015 
   17750       0.1775    389.95107    1.3590803   0.02600683  0.076207038  -0.02329095    1.3355988    1.3825166    201.57012   -13041.822   -4870.9806 
   17800        0.178    388.20934    1.3330116  0.097678474  0.073942531 -0.023292913    1.3096812    1.3562954     200.6698   -13041.658   -5015.4419 
   17850       0.1785    392.63185    1.2284649   0.10442231 -0.088139339 -0.023329985    1.2050986    1.2517831    202.95585    -13044.74   -4149.1596 
   17900        0.179    388.21643    1.1191871 -0.040326125  -0.13051576  -0.02339094    1.0956827    1.1426419    200.67347   -13043.215   -3161.1508 
   17950       0.1795    389.86731     1.185017 -0.043973976 -0.038446781 -0.023372409    1.1615444    1.2084386    201.52683    -13044.86    -3675.321 
   18000         0.18    388.75928      1.24759  0.032638885 -0.0054759418 -0.023332591    1.2239742    1.2711531    200.95407   -13045.059   -4249.1765 
   18050       0.1805     388.4357    1.3285145  0.073279698  0.078766804 -0.023304823    1.3049205    1.3520543    200.78681   -13045.649   -4935.2034 
   18100        0.181    386.57142    1.2380388  0.062495771   0.10221958 -0.023336022    1.2143878     1.261634    199.82314   -13045.462   -4675.8471 
   18150       0.1815     397.9622    1.1262931 -0.059847116  0.016965504 -0.023399801    1.1027744    1.1497545    205.71116   -13052.142   -3611.3715 
   18200        0.182    386.70589    1.0471937  -0.13752513  -0.12353221 -0.023452737    1.0235238    1.0708049    199.89265   -13047.077   -2620.4546 
   18250       0.1825     394.8271    1.1209112 -0.032620483   0.01448023 -0.023405062    1.0974769    1.1442856     204.0906   -13052.093   -3675.9033 
   18300        0.183    387.78504    1.1964364  0.048006077   0.07188904 -0.023360631     1.172785    1.2200263    200.45047   -13049.239   -4387.7716 
   18350       0.1835    387.08206    1.2137367 -0.0015931206   0.11469475 -0.023354545    1.1903481    1.2370624     200.0871   -13049.668   -4422.7945 
   18400        0.184    391.30638    1.1735967 -0.013364151 -0.0038303574 -0.023386427    1.1501937    1.1969354     202.2707   -13052.678   -3854.6739 
   18450       0.1845    389.32619    1.1271053 -0.035330389  -0.11533933 -0.023416808    1.1035295    1.1506154    201.24712   -13052.403   -3254.7854 
   18500        0.185    382.04815    1.1364021  0.019662652 -0.078028957  -0.02339385    1.1128676    1.1598693    197.48501   -13049.423   -3593.4527 
   18550       0.1855    390.87765    1.2327455  0.072181376  0.086389418 -0.023346058    1.2091562    1.2562659    202.04908   -13054.743    -4637.721 
   18600        0.186    396.17832    1.2647788  0.058698707   0.06252672 -0.023347666    1.2411224    1.2883644    204.78906   -13058.285    -4620.014 
   18650       0.1865     384.4525    1.2280297   -0.1118591 -0.023570913 -0.023396288    1.2044722    1.2515149    198.72785   -13052.988   -3641.9989 
   18700        0.187    388.49368    1.2284784 -0.079066864 -0.040343693 -0.023396731    1.2049744    1.2519086    200.81678   -13055.839   -3696.8928 
   18750       0.1875    389.18303    1.3209374 -0.010680474  0.066132952 -0.023348343    1.2974388    1.3443607    201.17312   -13056.965   -4587.9664 
   18800        0.188     386.1058     1.332081   0.11712684  0.083051891 -0.023332522    1.3086627    1.3554224    199.58246   -13056.117   -5107.5325 
   18850       0.1885      384.702    1.2476339 -0.0073354529 0.0034565014 -0.023370412     1.224244    1.2709453    198.85682    -13056.15   -4145.8499 
   18900        0.189    384.66373    1.1687925 -0.092357828 -0.048979653 -0.023407174    1.1450861    1.1924186    198.83704   -13056.857   -3424.8502 
   18950       0.1895    395.51192    1.2350812  0.027767175 -0.020614289 -0.023387523    1.2114452    1.2586351    204.44459   -13063.229   -4140.7803 
   19000         0.19    378.98918    1.1501441  0.012166513 -0.025531479 -0.023386683    1.1266307    1.1735739     195.9038   -13055.442   -3789.2638 
   19050       0.1905    387.61941    1.1367401   0.12777482 0.0064263401 -0.023380522    1.1133254    1.1600695    200.36486   -13060.647   -4236.4709 
   19100        0.191    385.70198    1.1159255 -0.037046316  0.023357423 -0.023411316    1.0924452    1.1393188    199.37372   -13060.427   -3674.1221 
   19150       0.1915    386.53321    1.0857961 -0.016195891 -0.019901586 -0.023413572    1.0621043     1.109399    199.80339   -13061.579   -3498.9954 
   19200        0.192     385.5587     1.090416 -0.0014207943  -0.00961978 -0.023417352    1.0667157    1.1140258    199.29966   -13061.828   -3597.9182 
   19250       0.1925      381.164    1.1555136 -0.035659554  0.019390482 -0.023406389     1.132139    1.1787961    197.02799   -13060.286   -3797.4817 
   19300        0.193    389.03181     1.194345  0.030486506   0.10550442  -0.02339258    1.1707809    1.2178152    201.09495   -13065.093    -4434.453 
   19350       0.1935    377.66378    1.1810355 -0.036496313 -0.023293605 -0.023418853    1.1575155      1.20446    195.21868    -13059.96   -3737.4853 
   19400        0.194    384.98533    1.1240802  0.031507733 -0.054207063 -0.023424032     1.100283    1.1477801    199.00328   -13064.441   -3671.2697 
   19450       0.1945    381.38593    1.0808835  0.030384572 -0.038904163 -0.023425144    1.0572186    1.1044494    197.14271   -13063.304   -3574.5463 
   19500        0.195    380.89279    1.0675193 0.0024422387  0.034502455 -0.023416438    1.0441187    1.0908194     196.8878   -13063.772   -3681.5467 
   19550       0.1955    380.04329    1.0948515 -0.00095820485 0.0065305545  -0.02341538     1.071657    1.1179437    196.44868   -13064.041   -3668.0793 
   19600        0.196    384.71164    1.1750214  0.016750462  0.064105404 -0.023399384    1.1513598     1.198579     198.8618   -13067.148   -4186.2577 
   19650       0.1965    369.22355     1.016534 -0.095062777 0.0077902741 -0.023418419   0.99292576    1.0400363    190.85583   -13059.869   -3097.5383 
   19700        0.197    375.65019    1.0280438 -0.014181062 0.0037700741 -0.023422373    1.0046987    1.0512811    194.17784   -13063.927   -3392.1092 
   19750       0.1975    381.40547    1.0404183  0.023180125 -0.016286545 -0.023413253     1.016806    1.0639209     197.1528   -13067.595   -3491.0397 
   19800        0.198    380.55633    1.0235517  0.060801435 0.0086847831 -0.023402873   0.99992317    1.0470685    196.71388   -13067.864   -3643.4596 
   19850       0.1985     380.7584   0.99162643   0.10413245  0.023323468 -0.023417564   0.96815663    1.0149826    196.81833    -13068.69   -3730.2745 
   19900        0.199    377.58425   0.92544335 -0.0082770011 -0.079140986 -0.023461574   0.90184626   0.94892465    195.17757    -13067.76   -2793.4179 
   19950       0.1995    376.80436   0.93285653 -0.055522463 -0.054477259 -0.023470661   0.90891399   0.95668109    194.77444   -13068.075    -2742.856 
   20000          0.2    377.76767    1.0265785 -0.024532225  0.034028566  -0.02343262    1.0027289    1.0503082    195.27238   -13069.274   -3453.5827 
Loop time of 1775.43 on 4 procs for 20000 steps with 4000 atoms

Pair  time (%) = 1491.56 (84.0111)
Neigh time (%) = 0.556005 (0.0313166)
Comm  time (%) = 130.262 (7.33693)
Outpt time (%) = 20.1049 (1.13239)
Other time (%) = 132.95 (7.48829)

Nlocal:    1000 ave 1005 max 995 min
Histogram: 1 0 0 1 0 0 0 1 0 1
Nghost:    3742.5 ave 3761 max 3726 min
Histogram: 1 0 1 0 0 0 1 0 0 1
Neighs:    68798.5 ave 70658 max 66857 min
Histogram: 2 0 0 0 0 0 0 0 0 2
FullNghs:  0 ave 0 max 0 min
Histogram: 4 0 0 0 0 0 0 0 0 0

Total # of neighbors = 275194
Ave neighs/atom = 68.7985
Neighbor list builds = 82
Dangerous builds = 0

######################################
# SIMULATION DONE
print "All done"
All done
