
# ----------------------- ATOM DEFINITION ----------------------------
lattice		fcc ${latparam}
lattice		fcc 4.05
Lattice spacing in x,y,z = 4.05 4.05 4.05
region		whole block 0 10 0 10 0 10
create_box	1 whole
Created orthogonal box = (0 0 0) to (40.5 40.5 40.5)
  1 by 2 by 2 MPI processor grid
lattice 	fcc ${latparam} orient x 1 0 0 orient y 0 1 0 orient z 0 0 1
lattice 	fcc 4.05 orient x 1 0 0 orient y 0 1 0 orient z 0 0 1
Lattice spacing in x,y,z = 4.05 4.05 4.05
create_atoms	1 region whole
Created 4000 atoms

# ------------------------ FORCE FIELDS ------------------------------

#****************USE THIS TO TEST******************
pair_style	eam/rad
pair_coeff 			* * Al99.PC0.05.eam.alloy.rad.txt Al # pc = 0.5

# ------------------------- SETTINGS ---------------------------------
compute csym all centro/atom fcc
compute peratom all pe/atom

######################################
# EQUILIBRATION
reset_timestep	0
timestep	0.001 # default
# timestep	0.0001 # tiny time step
velocity all create 300 12345 mom yes rot no
fix 1 all npt temp 300 300 1 iso 0 0 1 drag 1

# Set thermo output
thermo 50
# thermo 1 # debug mode

# thermo_style custom step lx ly lz press pxx pyy pzz pe temp
# IMPLEMENTATION HERE

# VERSION add rad variables .v1 .v2
# thermo_style custom step lx ly lz press pxx pyy pzz pxxrad pyyrad pzzrad pe temp

# VERSION ublb separation .v3
thermo_style custom step lx ly lz press pxx pxxub pxxlb pyy pyyub pyylb pzz pzzub pzzlb pe temp

# Run for at least 10 picosecond (assuming 1 fs timestep)
run 	20000 # default
Memory usage per processor = 7.82687 Mbytes
Step Lx Ly Lz Press Pxx Pxxub Pxxlb Pyy Pyyub Pyylb Pzz Pzzub Pzzlb PotEng Temp 
       0         40.5         40.5         40.5    2496.1233    2446.9902    7349.8781    7651.5181    2534.6541    7228.3654    7530.0054    2506.7256    7396.6693    7698.3093       -13440          300 
      50      40.5611      40.5611      40.5611    907.43706    837.10986    692.16052    982.05525    946.43161    801.89548    1090.9636    938.76971    794.06928    1083.4661   -13338.819    103.27149 
     100    40.636867    40.636867    40.636867   -4611.4186   -4606.0751   -4754.1902   -4458.1098   -4633.2987    -4781.325   -4485.4133   -4594.8821   -4742.9319   -4446.9835   -13373.529    171.80729 
     150    40.566371    40.566371    40.566371    544.64066    509.57779    362.20751    656.93841    622.24374    475.05757     769.4177    502.10046     355.1478    649.03712   -13348.908    124.16109 
     200    40.511722    40.511722    40.511722    3547.2897    3643.2596    3495.3811    3791.2166    3485.9867    3338.1358     3633.909    3512.6228    3364.8416    3660.4916   -13355.216     137.9072 
     250    40.565785    40.565785    40.565785    166.93066    90.523527   -57.128888    238.19668    218.10474    70.196751    366.04058    192.16371    44.427248    339.91791   -13359.502    146.72328 
     300    40.611235    40.611235    40.611235   -2466.5664   -2412.8394   -2559.9841   -2265.7462   -2483.9007   -2630.8787   -2336.9742   -2502.9592   -2649.9971   -2355.9589   -13360.111    149.21075 
     350    40.571353    40.571353    40.571353   -408.34084   -482.42607    -630.2838   -334.55623   -346.38838   -494.35164   -198.41088   -396.20806   -544.21351   -248.19975   -13367.339    163.76556 
     400    40.532306    40.532306    40.532306    2225.5431    2279.8069    2132.0451    2427.5851    2296.6157    2149.1036     2444.124    2100.2067    1952.7702    2247.6446   -13359.854    150.41108 
     450    40.566044    40.566044    40.566044    2.0377845   -40.092854   -187.81728    107.63873   -31.888362   -179.72628    115.96305     78.09457   -69.614539    225.81682    -13363.08    157.36643 
     500    40.595966    40.595966    40.595966   -1611.3461   -1655.3283   -1802.4988   -1508.1489   -1479.2164   -1626.2956   -1332.1295   -1699.4934   -1846.7574   -1552.2224   -13359.404    151.32857 
     550    40.570848    40.570848    40.570848   -161.85418   -150.03728   -297.75249   -2.3267778   -167.20465   -314.68289    -19.72068   -168.32062   -316.07654   -20.568753   -13360.736    154.75593 
     600    40.545092    40.545092    40.545092    1385.8336    1414.2998    1266.5338    1562.0661    1433.0694    1285.2963    1580.8458    1310.1316    1162.3826    1457.8724   -13361.915    158.16074 
     650    40.566235    40.566235    40.566235    212.56633    184.02753    36.933255    331.12153    245.48283     98.32903    392.62196    208.18862    61.157424    355.22553   -13358.104    151.74194 
     700    40.589999    40.589999    40.589999   -1217.4105   -1343.5854   -1490.8399   -1196.3067   -1126.2179   -1273.5539    -978.8528   -1182.4283   -1329.6806   -1035.1431   -13360.206    156.93263 
     750    40.572933    40.572933    40.572933   -250.38158   -286.45411   -433.97672   -138.93543   -263.19279   -410.56726   -115.81663   -201.49783   -349.10318   -53.890735   -13360.538    158.57849 
     800    40.551356    40.551356    40.551356    1208.6566    1078.2928    931.01083     1225.558    1322.2307     1174.766    1469.6821    1225.4462    1078.0779     1372.794   -13357.161    153.20685 
     850    40.567647    40.567647    40.567647     35.88215    27.354765   -120.26398    174.99716    95.437303   -52.090102    242.97823   -15.145617   -162.80627    132.52982   -13362.171    163.91834 
     900    40.586566    40.586566    40.586566   -905.95525   -936.83022   -1084.1809   -789.46863   -840.20578   -987.58029   -692.81859   -940.82976   -1088.0542   -793.58282   -13360.501    161.82509 
     950    40.575685    40.575685    40.575685   -242.27646    -258.0676   -405.24631   -110.87874   -191.53537   -338.60126   -44.461037    -277.2264   -424.14787   -130.30711   -13355.043     152.3172 
    1000    40.557624    40.557624    40.557624    865.78368    854.28577    706.66643    1001.8925     838.0004    690.21273    985.78456    905.06486     757.2835    1052.8361   -13361.124    165.23426 
    1050    40.567354    40.567354    40.567354    296.20892     232.8234    86.086959    379.57132     412.4804    265.59445    559.37439    243.32297     96.61641    390.04435   -13352.949    150.47937 
    1100    40.584443    40.584443    40.584443   -762.38408   -853.89575   -1001.2838   -706.49424   -674.30507   -821.68718   -526.90785   -758.95143   -906.57866   -611.31569   -13360.466    166.16585 
    1150    40.575983    40.575983    40.575983    -142.2806   -201.77341   -348.62295   -54.918072   -30.014093   -177.25029    117.22009    -195.0543    -342.1599   -47.932569    -13353.75    154.27323 
    1200    40.562401    40.562401    40.562401    595.06575    539.95132    392.50298    687.40407    625.63845    477.96925    773.32252    619.60749    472.08031    767.14537    -13359.83    167.17798 
    1250    40.569413    40.569413    40.569413    166.79261    92.903564   -54.137808    239.95269    250.18713    103.17154    397.20614    157.28713    10.358834    304.21832   -13356.017    160.90148 
    1300    40.581899    40.581899    40.581899   -560.61752   -582.11355   -729.49036   -434.73442   -449.93781   -596.97164   -302.90577   -649.80119   -796.82819   -502.78819   -13357.596    165.08945 
    1350    40.575948    40.575948    40.575948    -187.6128   -340.24911    -487.3142   -193.19171   -119.43237   -266.62355    27.754756   -103.15693    -250.5385    44.222296   -13356.829    164.72703 
    1400    40.566127    40.566127    40.566127    565.86425    499.12344    351.98821     646.2688    641.64272    494.43945    788.85044    556.82658    409.88046    703.78213   -13354.386    161.14085 
    1450    40.572988    40.572988    40.572988    -8.561472    -54.13345   -201.21494    92.956035   -9.1404528      -156.16    137.88485    37.589487   -109.78723    184.98108   -13356.765    166.86433 
    1500    40.579794    40.579794    40.579794   -267.41446   -332.77441   -479.77093   -185.77064   -176.15609   -323.31473   -28.988484   -293.31287   -440.39344   -146.22757   -13353.672    162.03422 
    1550    40.576834    40.576834    40.576834   -220.87916   -335.60203   -482.81976   -188.36462   -207.98546   -355.17842   -60.767297   -119.05001   -266.31392    28.241275    -13357.33    170.23169 
    1600     40.56902     40.56902     40.56902    377.81634    358.40758    211.40877    505.39944    458.79305    311.80154    605.77924    316.24838    169.46249    463.03177   -13352.705    162.42694 
    1650    40.573333    40.573333    40.573333    121.60248    65.830518   -81.257566    212.92044    161.88969    14.430429    309.35049    137.08722   -10.253533    284.42304     -13355.4    168.76756 
    1700    40.580701    40.580701    40.580701   -351.25931   -404.48696   -551.35976   -257.60189   -356.71365   -503.55031   -209.86402   -292.57732   -439.22174   -145.92437   -13352.169    163.67705 
    1750    40.576849    40.576849    40.576849   -32.167301   -50.678233   -197.69751    96.356266   -63.920617   -211.12628    83.297654    18.096946   -129.08831    165.30948   -13355.552    171.33506 
    1800    40.570697    40.570697    40.570697    303.86959    205.87186    59.159591    352.59007    337.67696     190.4983    484.87722    368.05996    221.21932    514.90482   -13351.254    164.18628 
    1850    40.573832    40.573832    40.573832    241.25661    160.65476    13.635434    307.66673    291.81867    144.96561    438.65282    271.29639    124.39419    418.19714   -13351.989    166.73526 
    1900    40.582525    40.582525    40.582525   -408.49907   -517.11515   -663.92665   -370.31436    -372.3218   -519.52663   -225.13336   -336.06028     -483.321   -188.81553    -13355.88     175.4205 
    1950    40.579035    40.579035    40.579035   -121.18037    -78.31077   -224.77638    68.177467   -80.564036   -227.06858    65.978336    -204.6663   -351.10399   -58.204898   -13350.032    165.23107 
    2000     40.57151     40.57151     40.57151    262.28188    197.36064     50.26627    344.49341    289.69509    142.45069    436.96596     299.7899    152.41117    447.20262   -13356.433    178.77171 
    2050     40.57415     40.57415     40.57415    291.00696    438.91963    292.14372    585.69134    282.96388     136.3781    429.54339    151.13737    4.6215832    297.64493   -13349.034    165.59547 
    2100    40.583714    40.583714    40.583714   -349.64824   -571.69905   -718.57696   -424.84145   -278.61218   -425.55929   -131.68522   -198.63349   -345.91376   -51.386653    -13352.82     174.0797 
    2150    40.580896    40.580896    40.580896   -115.46102   -185.78203   -332.21194   -39.351634   -83.935203   -230.39015    62.528995   -76.665824   -223.18058    69.864757   -13348.342    166.55152 
    2200    40.573232    40.573232    40.573232    266.96923    327.53375    180.62837    474.47357    145.53519   -1.7789199    292.88195    327.83874    180.80082    474.91533   -13352.358    175.46306 
    2250    40.574827    40.574827    40.574827    151.21048    253.25725    106.49831    400.02393    168.12758    21.182605    315.08413    32.246605   -114.63762    179.13404   -13351.993    175.91954 
    2300    40.582519    40.582519    40.582519   -229.92012   -262.55007   -409.23063   -115.87798   -227.80284   -374.52733   -81.080834   -199.40745   -346.20476   -52.617703   -13351.098    175.32277 
    2350    40.582472    40.582472    40.582472   -261.47493   -230.22332   -377.07971   -83.340299   -223.18601   -370.22568   -76.142714   -331.01546   -477.62847    -184.3861   -13351.015     176.3209 
    2400    40.575117    40.575117    40.575117    304.99838    318.71288    171.90942    465.53606    230.82389    84.392831    377.27092    365.45835    218.74294    512.20497    -13348.88    173.33846 
    2450    40.576041    40.576041    40.576041    115.98281   -49.519186   -195.98697    96.952818    231.81908    85.336142    378.30262    165.64854    18.738615    312.55678   -13349.774    176.22576 
    2500    40.581993    40.581993    40.581993    -86.32248   -223.14465   -370.00459   -76.291901   -50.962736   -197.55257    95.636136    15.139951   -131.47116    161.75445   -13348.601    175.08643 
    2550    40.583873    40.583873    40.583873   -280.78867    -329.5054   -476.08837   -182.91494   -351.60669   -498.27326    -204.9311   -161.25393   -307.86287   -14.645763   -13350.803    180.51146 
    2600    40.577203    40.577203    40.577203    317.49535    231.68198    85.591728    377.77365    393.67729    247.02731     540.3277    327.12677    180.70129    473.56073    -13345.69    171.77884 
    2650    40.578933    40.578933    40.578933    13.030925    144.96731   -1.9601452    291.91736   -44.713472   -191.27162    101.85719   -61.161069   -207.90478    85.603309   -13350.912    183.01571 
    2700    40.583518    40.583518    40.583518   -174.83865   -293.93299   -440.09868   -147.75311   -111.84152   -258.22693    34.555008   -118.74145   -265.16848    27.696825   -13346.798    176.21518 
    2750    40.582481    40.582481    40.582481   -39.748764   -65.184794   -211.73788    81.369701    -87.13603   -233.77434    59.512953    33.074533   -113.53358      179.693   -13348.669    180.97912 
    2800    40.578705    40.578705    40.578705    108.86451   -19.945463   -166.44379    126.55164    191.66526    45.174318    338.15925    154.87373    8.5084375    301.23332   -13346.376    177.70923 
    2850    40.579322    40.579322    40.579322    124.53218    81.912131   -64.820172    228.65627    124.60452   -21.693938    270.90801     167.0799    20.621635    313.53695   -13349.584    185.05983 
    2900    40.584645    40.584645    40.584645   -69.825092    -152.5521   -298.98884   -6.0901309   -33.708358    -180.2911    112.89606   -23.214815   -169.72356    123.31686   -13345.868     179.0187 
    2950    40.585359    40.585359    40.585359   -182.56258   -154.04171   -300.63996   -7.4324182   -313.08375   -459.47041   -166.68397   -80.562296   -226.93485    65.824323   -13345.484    179.44392 
    3000    40.580393    40.580393    40.580393    103.06038     17.74205   -128.72117    164.20226    199.86076    53.107121    346.61482    91.578338   -55.084459    238.23899   -13349.988    189.30398 
    3050    40.580507    40.580507    40.580507    62.168107    44.094515   -102.19482    190.38659    20.509683   -125.51405    166.54199    121.90012   -24.453545    268.26256   -13345.218    181.21565 
    3100    40.584708    40.584708    40.584708   -107.42179   -223.08689   -369.33725   -76.807031   -59.455111   -205.42383     86.53411   -39.723375   -185.97001    106.54158   -13347.434     186.6605 
    3150    40.585857    40.585857    40.585857   -139.90607   -193.02274   -339.16965    -46.85882   -102.84206   -249.03079    43.366554    -123.8534   -270.06629     22.38376   -13344.327    181.78994 
    3200    40.582817    40.582817    40.582817    56.136466   -25.815173   -172.28206    120.64921    83.857537   -62.856817    230.56488    110.36703   -36.139889    256.87111   -13346.758    187.66531 
    3250    40.582883    40.582883    40.582883    202.40337    154.08445     7.870313    300.30758    136.98617    -9.263778     283.2447    316.13948    169.80694    462.47729   -13343.925    183.32635 
    3300    40.587578    40.587578    40.587578    -209.4339   -371.94849   -518.28713   -225.59176   -87.698913   -234.15654    58.777472   -168.65429   -314.91923   -22.369732   -13345.062    186.68197 
    3350    40.586577    40.586577    40.586577   -9.0566859   -69.573038   -215.69055    76.559105   -16.305688   -162.56864    129.97144    58.708669    -87.41133     204.8475    -13343.41    184.64018 
    3400    40.584833    40.584833    40.584833    -4.464904   -169.79656   -316.04917   -23.548332    46.672382   -99.637032    192.97663    109.72947   -36.861908    256.32609   -13346.346    191.46455 
    3450    40.585451    40.585451    40.585451    9.8032381   -98.559471   -244.92483    47.800541    71.647379   -74.585943    217.87816    56.321806   -90.223953    202.86842   -13344.024    188.12534 
    3500    40.587697    40.587697    40.587697   -73.255431   -198.59139   -344.53679    -52.61889   -60.277768   -206.67905    86.147019    39.102863   -107.21566     185.4409   -13344.644    190.47515 
    3550    40.586958    40.586958    40.586958    -56.96485   -70.538578   -216.39136    75.338625    6.9900731   -139.35201    153.35379   -107.34605   -253.40015    38.727158   -13342.497     187.4769 
    3600    40.585183    40.585183    40.585183    109.67337    96.750394   -49.299577    242.80371    58.529928   -87.201439    204.26793    173.73977    27.577296    319.90762   -13342.391    188.41229 
    3650    40.586887    40.586887    40.586887   -3.9723187   -11.668849   -157.82669     134.5034   -45.333257   -191.39597    100.74723    45.085149    -101.0956    191.27125   -13342.044    188.88701 
    3700    40.588496    40.588496    40.588496   -27.142131   -83.336603   -229.59596    62.925669   -12.131481   -158.47554    134.21938    14.041689   -132.27844    160.38077   -13342.511    190.95338 
    3750    40.588371    40.588371    40.588371   -6.0911329    43.936973   -102.28683    190.18522   -56.088694   -202.38541    90.219605   -6.1216783   -152.49632    140.26007   -13342.317    191.72699 
    3800    40.587518    40.587518    40.587518    21.179747   -96.321442   -242.37901    49.760552    156.68462    10.501899    302.89334    3.1760619    -142.8739    149.23638    -13342.31    192.86572 
    3850    40.588168    40.588168    40.588168    103.71552    51.378646   -94.552253    197.31729    75.437151   -70.447818    221.31909    184.33078    38.233225    330.44039   -13339.435    188.43341 
    3900    40.590071    40.590071    40.590071   -61.991803    41.084916   -105.01303    187.17432   -163.63867   -309.58744   -17.685558   -63.421652   -209.57649    82.723503   -13340.244    191.15887 
    3950     40.58905     40.58905     40.58905    26.629811   -116.89505   -262.60399    28.830933    111.68117   -34.094989    257.47742    85.103306   -60.999482    231.23209   -13340.459    192.71663 
    4000     40.58814     40.58814     40.58814    64.030856    18.996702   -127.09294    165.12292    37.882754   -108.01351     183.8055    135.21311    -10.80037    281.27612   -13340.476    193.89746 
    4050     40.58928     40.58928     40.58928    51.730888    26.058107    -119.7988    171.93096    48.279046   -97.993576    194.56343    80.855511   -64.987852    226.70356   -13339.217    192.61086 
    4100    40.591447    40.591447    40.591447    -69.41407   -80.629256   -227.11744     65.84675   -72.506139   -218.23373     73.21691   -55.106814   -201.34219    91.119424   -13342.948    200.98044 
    4150    40.591167    40.591167    40.591167     -59.3496   -170.66274    -316.1629   -25.157374   -23.297654   -168.94852    122.37366    15.911595   -130.05243    161.90042    -13338.58    193.66416 
    4200    40.589402    40.589402    40.589402    126.45049    102.31182   -43.276965    247.93792    28.361074   -117.51287    174.26943    248.67858    102.71714    394.67018   -13337.074    191.89142 
    4250    40.590375    40.590375    40.590375   -5.8786185    -95.14102   -241.15208    50.894996    71.464313   -74.439512    217.38411    6.0408519   -139.85983    151.95102   -13339.822    198.35283 
    4300    40.592312    40.592312    40.592312   -99.932489   -134.35608   -280.35766    11.645527   -92.003546   -238.06793    54.046643   -73.437843   -219.57887    72.688106   -13339.728    199.31371 
    4350    40.591432    40.591432    40.591432    30.669897   -17.453823   -163.22314    128.30318    116.38325     -29.1689    261.92861   -6.9197307   -152.66663     138.8329   -13337.239    195.64072 
    4400    40.590868    40.590868    40.590868    6.1809803   -68.690877   -214.34959    76.987663    32.701826   -113.31012     178.7416    54.531992   -91.575382    200.66446   -13340.043     202.2069 
    4450    40.592123    40.592123    40.592123   -2.7294806    31.335042   -114.32469    177.02868   -35.521345   -181.30741    110.29025   -4.0021387   -149.69423    141.71309   -13337.875    199.15199 
    4500    40.593642    40.593642    40.593642   -65.462705    36.313648   -109.28176    181.93401   -97.154892   -243.02363    48.734462   -135.54687    -281.2873    10.206274    -13337.41     199.3838 
    4550    40.592338    40.592338    40.592338   -64.277171   -161.69941   -307.64831   -15.747683   -86.840811   -232.43964    58.763593    55.708711    -90.28006    201.70551   -13338.207    202.07086 
    4600    40.590278    40.590278    40.590278     249.1077    320.61637     174.7989    466.44249    284.38178    138.63818    430.13814    142.32493   -3.4662337    288.12646   -13335.472    197.91016 
    4650    40.594313    40.594313    40.594313   -36.483052   -43.388388   -189.19593    102.44281     7.304162   -138.33939    152.95991   -73.364929   -219.03812    72.324725   -13336.259    200.57068 
    4700    40.596271    40.596271    40.596271   -162.12355   -160.59482   -306.34131   -14.828326   -175.19352   -320.77387   -29.582784   -150.58232   -296.28974   -4.8458277   -13336.155    201.50807 
    4750    40.592916    40.592916    40.592916    73.064448    98.496599   -47.170543     244.1926    218.68878    72.919201    364.48216   -97.992039   -243.86257    47.900597   -13336.665     203.6226 
    4800    40.592243    40.592243    40.592243    93.558524    177.60258    31.543939    323.66449   -87.323114   -232.41115    57.778855    190.39611    44.519183    336.28553   -13336.604    204.63746 
    4850    40.595451    40.595451    40.595451    4.2171739   -108.36622   -253.93505    37.216277    56.758562   -89.107095    202.64427    64.259175   -81.322688    209.85304   -13334.982    202.63372 
    4900     40.59738     40.59738     40.59738   -207.49532   -38.513481   -184.38857    107.37552   -236.77389   -382.52959   -91.007886   -347.19859    -492.7258   -201.64345   -13335.657    205.06988 
    4950    40.592949    40.592949    40.592949    160.16595    79.901741    -65.68456    225.49236    153.84852    8.1273213    299.56533    246.74758    101.25359    392.24657   -13333.532    202.08895 
    5000    40.593071    40.593071    40.593071    183.41074     268.5787    122.94772    414.23227     243.1868    97.543597    388.84154    38.466717   -107.23372    184.16407   -13334.242    204.58527 
    5050    40.598517    40.598517    40.598517   -115.69735   -166.07939   -312.02851   -20.109622     -169.547   -315.03651    -24.03346   -11.465649    -157.0837    134.17731   -13334.019    205.27643 
    5100     40.59878     40.59878     40.59878   -111.70343    -8.370906   -153.65712    136.94652   -166.12906   -311.68091   -20.535202   -160.61033   -306.18819   -14.993858   -13332.452    203.37832 
    5150    40.594255    40.594255    40.594255    96.931121    101.97383   -43.765555     247.7341    87.628943   -58.063378    233.34911    101.19059   -44.492427    246.91005   -13334.964    209.35602 
    5200    40.594043    40.594043    40.594043    196.29774    273.67141     127.9839    419.37261    221.69784    76.195403    367.20031    93.523963   -52.025589    239.06925   -13335.021    210.58986 
    5250     40.59947     40.59947     40.59947   -89.380203   -116.97376   -262.37301     28.43035   -109.49403   -254.88515    35.901632    -41.67282   -187.12488    103.78768   -13330.257    202.50162 
    5300    40.599859    40.599859    40.599859   -145.25531   -136.63669   -282.47586    9.2274618   -209.45351   -355.08984   -63.778874   -89.675735   -235.35479    56.035814   -13332.957    208.84095 
    5350    40.595213    40.595213    40.595213    222.90062    257.82359    112.25518    403.41347    316.73027    171.36048    462.11512    94.147998   -51.367438    239.67946   -13332.065    208.23568 
    5400    40.596174    40.596174    40.596174    152.99394    182.46696    36.912354     328.0146    168.26953    23.217376    313.31547    108.24535   -37.237829    253.72621   -13331.528    208.31029 
    5450    40.601169    40.601169    40.601169   -137.60144   -286.80303   -432.19632   -141.39856   -30.046473   -175.28136    115.19991   -95.954809   -241.54383    49.637169   -13330.969    208.33875 
    5500    40.601195    40.601195    40.601195   -223.23281   -155.64611    -301.0084   -10.248817   -294.77355   -440.13727   -149.37922   -219.27877   -364.77048   -73.753376   -13333.433    214.21786 
    5550    40.595615    40.595615    40.595615    182.19163    236.97313    91.544441    382.43045    219.29512    73.705875    364.91946    90.306631   -55.216804    235.85997   -13332.625    213.77091 
    5600     40.59647     40.59647     40.59647    157.71549    95.081188   -50.388046    240.55952    126.56426   -19.004206    272.13994    251.50101    106.22074    396.80205    -13331.02    211.77575 
    5650    40.602086    40.602086    40.602086   -122.48126   -162.13077   -307.24623   -16.990696   -127.35932   -272.47746    17.775327   -77.953682   -222.93942    67.052161   -13328.959    208.89658 
    5700    40.602031    40.602031    40.602031   -129.57349   -144.97713   -290.12733   0.20632682    -92.19506   -237.44787    53.092007   -151.54828   -296.72323   -6.3414323   -13330.973    213.90323 
    5750    40.597351    40.597351    40.597351    249.95841     130.2933   -15.023567    275.62425    256.42866    111.07216     401.8001    363.15327    217.92983    508.38784   -13329.355    211.87752 
    5800    40.599001    40.599001    40.599001    81.368288    70.461749   -74.977606    215.91196    220.52608     75.06728    365.99952   -46.882963   -192.10944    98.363568    -13329.51    213.28364 
    5850    40.603186    40.603186    40.603186   -204.96413   -200.81552   -345.78871   -55.816408   -191.63639    -336.6405   -46.606237   -222.44049   -367.85825   -76.992614   -13330.974    217.21937 
    5900    40.602446    40.602446    40.602446   -126.97389   -248.41884   -393.46309   -103.35107   -16.958909   -161.90312    128.01382   -115.54392   -260.81848    29.742914    -13329.54    215.52932 
    5950    40.598403    40.598403    40.598403     257.9828    272.70332    127.80419    417.63192    348.64877    203.16711    494.14137    152.59632    7.2697375    297.95207   -13327.614    212.91421 
    6000     40.60021     40.60021     40.60021    86.846298    101.33594   -44.242033    246.93462   -18.435667    -163.5967    126.76707    177.63862    32.766483    322.53627   -13327.324    213.44455 
    6050     40.60381     40.60381     40.60381     -147.965   -193.76594   -339.07212   -48.447247   -73.546053   -218.67703     71.59308   -176.58301   -321.58441   -31.577453   -13330.172    220.05867 
    6100    40.602318    40.602318    40.602318    -26.95951    24.115571   -120.98804    169.22639    -126.5007   -271.56705    18.567844    21.506596   -123.33751    166.36485   -13327.624    216.21915 
    6150    40.600005    40.600005    40.600005    91.858136   -57.062472   -202.49717    88.404998     204.7372    59.455867    350.05476    127.89968   -17.436044    273.27145   -13329.971    221.84627 
    6200    40.601871    40.601871    40.601871     18.81411    18.213485   -126.77402    163.22799    68.835547    -76.17132    213.87084   -30.606703   -175.25948     114.0523   -13326.581     216.3745 
    6250    40.604737    40.604737    40.604737   -124.00793   -72.865587   -218.19251    72.473397   -231.27249   -376.31482   -86.226099   -67.885715   -212.87148    77.109704    -13327.32    218.88695 
    6300    40.603226    40.603226    40.603226    38.479186    -71.27144   -216.50501    73.974547     210.4996    65.189151    355.82609   -23.790601   -169.16324    121.61038   -13327.339     220.0188 
    6350    40.602348    40.602348    40.602348    53.655171    168.57174    23.317954    313.85226   -65.580559   -210.36905    79.251126    57.974335   -86.981524    202.96914   -13327.803    222.00053 
    6400    40.604389    40.604389    40.604389   -55.165601   -243.02272   -387.89679   -98.108189    81.803234    -63.31558    226.94621   -4.2773159   -149.56059    141.03261    -13327.19    221.89227 
    6450    40.605242    40.605242    40.605242   -103.23012   -18.394609   -163.16629    126.38781   -201.09066   -345.93097   -56.243012   -90.205083   -234.92136    54.538459   -13326.925    222.45568 
    6500    40.603815    40.603815    40.603815    39.068389   -146.98714   -292.03077   -1.9255027     -28.4868   -173.20407    116.25752    292.67911    148.14448    437.23841   -13326.809    223.30103 
    6550     40.60387     40.60387     40.60387    22.403565    29.280286   -115.42238    174.00384    75.786435   -69.244029    220.84943   -37.856025   -182.76544    107.08038   -13324.708    220.30764 
    6600     40.60543     40.60543     40.60543    36.934272   -27.131059   -172.18902    117.96865    31.251669   -114.07413    176.60893     106.6822   -38.511878    251.89806   -13325.152    222.24729 
    6650    40.606492    40.606492    40.606492    27.935899   -38.026677   -182.89331    106.88271    291.58289    146.83357    436.36105   -169.74852   -314.64401   -24.834316   -13323.272    219.68455 
    6700    40.605902    40.605902    40.605902   -2.8302171   -32.479587   -177.73523    112.78751   -15.290284   -159.95429    129.38041    39.279221   -105.84918    184.43145   -13325.483    225.03079 
    6750    40.605041    40.605041    40.605041    116.28823    11.166754   -133.62628    155.96692    118.66357   -26.533619    263.87426    219.03438    73.958542    364.13169     -13324.7    224.58162 
    6800    40.606317    40.606317    40.606317   -94.135085   -116.06994   -260.51595    28.400315   -53.083775   -197.75519    91.628376   -113.25154   -257.90389    31.418059   -13324.612    225.46738 
    6850    40.606909    40.606909    40.606909   -131.72414   -177.87527   -322.94912   -32.777905   -112.67255   -257.63775    32.333915   -104.62461    -249.6044    40.382408   -13327.361    231.83937 
    6900    40.606457    40.606457    40.606457    38.770044   -42.543621   -187.50577    102.45077    139.77117    -5.022164    284.59247    19.082584   -125.87389    164.07798    -13323.81    226.02987 
    6950    40.607088    40.607088    40.607088    -35.87355   -57.864929   -203.03586    87.357237   -99.363756   -244.18638    45.472114    49.608035   -95.330923     194.5747   -13325.976    231.28561 
    7000    40.607798    40.607798    40.607798   -21.517973   -27.074967   -172.00618    117.87277    68.888779   -75.573278    213.38042   -106.36773   -251.02811    38.309528   -13321.758    224.17335 
    7050    40.608361    40.608361    40.608361   -85.333283   -62.294957   -206.88373    82.317779   -78.471956   -223.25479    66.347733   -115.23294   -259.89553    29.458531   -13324.227    229.99186 
    7100    40.607551    40.607551    40.607551  -0.32340728   -15.680349   -160.51877    129.18418    51.728357   -93.163107    196.64459    -37.01823    -181.9787    107.97377   -13323.223    229.10019 
    7150     40.60782     40.60782     40.60782    20.921777    45.317835    -99.78728    190.45076   -55.509065   -200.20457    89.215143    72.956561   -71.872941    217.81252   -13323.207    230.11782 
    7200    40.609482    40.609482    40.609482   -77.821672   -101.91746   -247.18984    43.375968    4.9611119   -140.04675    149.98723   -136.50867   -281.02225    8.0308611   -13323.495    231.72021 
    7250    40.609913    40.609913    40.609913    50.433017   0.56460385    -144.1834    145.33621    75.008988   -69.901462    219.92258     75.72546   -69.026552     220.4834   -13321.183    228.29296 
    7300     40.60956     40.60956     40.60956    -69.90714   -13.571925   -158.64625    131.51234   -179.09254    -323.4076   -34.755839   -17.056953   -161.68389    127.60866   -13321.826    230.56804 
    7350    40.608273    40.608273    40.608273    147.86894    124.22491   -20.675126    269.16032    181.66507    37.307885    326.06267    137.71684   -7.0555018    282.51752   -13319.822    227.72576 
    7400     40.61072     40.61072     40.61072   -38.902497   -22.541514   -166.74212    121.68959   -63.916036   -208.82967    81.040625   -30.249939   -175.06929    114.61373   -13321.343    231.69891 
    7450      40.6122      40.6122      40.6122   -125.41163   -226.57028   -371.64929   -81.452605    -33.61997   -178.30267    111.09471   -116.04465   -261.07663    29.018759   -13322.895    235.72868 
    7500    40.610108    40.610108    40.610108   0.23229987   -85.457416   -230.17612    59.295485    5.8911509   -138.54142    150.33815    80.263165   -64.452805     225.0071   -13321.055    233.20319 
    7550    40.608593    40.608593    40.608593    216.78304    152.03962    7.2773778    296.83737    265.65517    121.25605    410.10844    232.65434    87.729729    377.61236   -13319.725    231.64868 
    7600    40.612333    40.612333    40.612333   -46.447022   -71.347699   -216.16088    73.498069    11.081953   -133.78288    155.97232    -79.07532   -223.81319     65.69693    -13319.66    232.54909 
    7650    40.614101    40.614101    40.614101    8.5688691   -63.097679   -207.30505    81.126075    126.74828   -17.992653    271.51073   -37.943999   -182.16633      106.302   -13317.293     228.9811 
    7700    40.612387    40.612387    40.612387   -98.768505   -57.973541   -203.25169    87.332776   -144.42907    -288.9065  0.068057322   -93.902904   -238.62546    50.838714   -13319.588    234.44054 
    7750    40.607968    40.607968    40.607968    199.50031    202.77634    58.405327     347.1755    254.41477    110.27894    398.58179    141.30983   -3.8364621    286.47096   -13320.441    237.10839 
    7800    40.611213    40.611213    40.611213    10.113906    81.539417   -63.613936    226.72975    -64.43268   -209.10282     80.25847     13.23498   -131.34257    157.83645   -13320.135    237.51591 
    7850    40.615802    40.615802    40.615802    -190.8177   -123.93483   -268.71082    20.865375   -155.49397   -299.83591   -11.119677   -293.02431   -437.08104   -148.93089   -13316.958    232.37563 
    7900    40.614071    40.614071    40.614071   -62.814506    -179.3342   -323.84842   -34.799317   -47.023971    -191.6322    97.629166    37.914647   -106.40901    182.27834   -13319.654    238.59408 
    7950    40.610522    40.610522    40.610522     61.91862    100.38714   -44.063111    244.87044    136.28653   -8.3428188    280.93197   -50.917809   -195.45812     93.64235   -13320.447    241.13365 
    8000    40.612416    40.612416    40.612416    54.480615    36.677358   -107.71651    181.11651    96.889371   -47.376439    241.20127    29.875117   -114.58753    174.38636   -13318.108    237.59574 
    8050    40.616739    40.616739    40.616739   -201.42892   -220.49972   -365.21002   -75.741743   -266.56184   -411.14108   -121.93813   -117.22521    -261.9386    27.535054   -13317.484     237.3978 
    8100    40.613917    40.613917    40.613917   -29.516087   -62.473189   -207.30581    82.370715    8.6103831   -135.70817    152.95885   -34.685456    -179.0266    109.68798   -13318.824    240.98117 
    8150    40.611079    40.611079    40.611079    233.41268     250.2191    105.92755    394.54529    199.26147    54.960496    343.60018    250.75748    106.32331    395.23352   -13316.499    237.46563 
    8200    40.615557    40.615557    40.615557   -73.482497   -143.76325   -288.06079    0.5830006    121.83238    -22.68848    266.38422   -198.51662   -343.23067   -53.770267   -13318.206    241.75524 
    8250    40.618041    40.618041    40.618041   -99.554299    28.475224   -115.67823    172.64627   -164.46411   -308.30791   -20.589305   -162.67401   -306.79369   -18.522351    -13314.28    235.13872 
    8300    40.614975    40.614975    40.614975    28.031927   -144.03934   -288.40235    0.3495045    205.83186    61.343424    350.34688    22.303256   -122.33576    166.98219   -13316.211    239.85171 
    8350    40.611951    40.611951    40.611951    171.74974    263.70158    119.09039    408.34702    140.68604   -3.8417024    285.23693    110.86162   -33.283806    255.03217   -13316.616    241.61323 
    8400    40.614453    40.614453    40.614453    143.17086  -0.11537715   -144.13363    143.92791    138.95256   -5.0639251    282.98823     290.6754     146.6623    434.69202   -13313.361    236.28983 
    8450    40.618979    40.618979    40.618979   -283.99859   -222.64095   -366.75729   -78.485223   -181.34927   -325.05492    -37.60506   -448.00554   -592.07486   -303.90175   -13317.732     245.7156 
    8500    40.615661    40.615661    40.615661   -29.771671   -69.689884   -213.69973    74.363022    -99.93417    -243.7241    43.910242    80.309039   -63.967065    224.63001    -13315.56    242.47643 
    8550     40.61192     40.61192     40.61192    275.83701    274.34212    130.12414    418.59424    321.67168    177.67774    465.68536    231.49724    87.193023    375.83676   -13315.123     242.6027 
    8600    40.616597    40.616597    40.616597   -150.21221    -307.5939   -451.63357   -163.52113    22.330695   -121.58499    166.30177   -165.37342   -309.91019   -20.792821   -13317.089    247.35868 
    8650     40.61938     40.61938     40.61938   -70.949903   -188.44591   -332.51776     -44.3337   -23.889919   -168.01228    120.26345  -0.51388247   -144.80699    143.81708   -13313.832    242.01927 
    8700    40.618511    40.618511    40.618511   -118.97868   -41.616921   -186.11873    102.90968   -90.616415   -234.67409    53.469442   -224.70272   -368.65297   -80.717709   -13314.804    244.84642 
    8750    40.615356    40.615356    40.615356    184.70792    24.093517   -119.57937    167.81139    267.47839    123.39367    411.61116    262.55184     117.8592    407.28161   -13312.664    241.65958 
    8800     40.61578     40.61578     40.61578    49.124551    51.019324   -92.787712    194.86642    85.170428    -58.69811     229.0766    11.183902   -132.73207    155.13567   -13313.827    244.86054 
    8850    40.617841    40.617841    40.617841   -30.004023   -14.969104   -159.03299    129.13049    14.218623   -129.92708    158.40596   -89.261589   -233.28692    54.813091    -13314.23    246.57563 
    8900    40.618905    40.618905    40.618905   -196.67237   -69.287145   -213.62949    75.081354   -267.14581   -411.10597    -123.1563   -253.58416   -397.97074    -109.1458   -13315.482    249.94202 
    8950    40.616633    40.616633    40.616633    113.56155     17.70615   -126.20267    161.65183    205.62112    61.853618    349.43201    117.35737   -26.909712    261.63501   -13312.174    244.47327 
    9000    40.617981    40.617981    40.617981   -5.3782871   -96.290796   -240.55132    48.017901    102.10605    -42.23106    246.47658   -21.950111   -166.15325    122.26678   -13315.903    252.62496 
    9050    40.620148    40.620148    40.620148   -48.644761    26.770246   -117.24776    170.83362   -95.187336   -238.65544    48.303544   -77.517195   -221.42197     66.45632   -13311.498    245.02404 
    9100    40.620057    40.620057    40.620057   -49.592958   -174.28861      -318.02   -30.534061   -33.121107   -177.14005    110.96065    58.630846   -85.389134    202.70207   -13312.283    247.47347 
    9150     40.61758     40.61758     40.61758    150.26405    225.47259    81.190443    369.79912    101.73932   -42.024584    245.53973    123.58025    -20.18286    267.38012   -13310.095    244.16108 
    9200     40.61774     40.61774     40.61774    72.268147    41.329583   -102.72927    185.43742    38.217779   -106.11194    182.58122    137.25708   -6.6552551    281.20226   -13311.689    248.16871 
    9250    40.619622    40.619622    40.619622   -84.083887   -149.79255   -294.06379    -5.488666    -69.87264   -213.77315    74.051007   -32.586469   -176.69336    111.55926   -13311.349    248.42467 
    9300    40.619538    40.619538    40.619538    119.50181    125.80622    -18.51669    270.15067     23.83651   -119.68203    167.40111    208.86271    64.489595    353.26259   -13311.853    250.31265 
    9350    40.620623    40.620623    40.620623   -23.026387   -212.93313   -356.24559    -69.58097    47.062092   -96.537833    190.70076    96.791877     -46.8353     240.4668   -13310.946    249.45277 
    9400    40.621651    40.621651    40.621651   -110.30374    55.349363    -88.20847    198.95331   -308.53971   -452.50151   -164.53814   -77.720873   -221.62196    66.215908    -13310.94    250.34293 
    9450    40.620796    40.620796    40.620796    119.80518    22.147835   -121.91386    166.24482    168.09362    24.489793    311.73958    169.17409     25.42619    312.95495   -13308.678    246.86507 
    9500    40.621436    40.621436    40.621436   -77.654363   -94.095478   -237.67066    49.524445   -169.62014   -313.23238   -25.967694    30.752526   -113.47371     175.0255   -13312.361    254.89143 
    9550    40.620956    40.620956    40.620956    80.176844   -81.439503    -224.9451    62.119229    171.10941    27.324112    314.93548    150.86063    6.5695364    295.19896   -13310.642     252.4677 
    9600    40.623082    40.623082    40.623082   -100.37971   -50.707541   -194.53676    93.175962   -83.798674    -227.3899    59.850758   -166.63292   -310.16956   -23.046481   -13311.014    254.06807 
    9650     40.62368     40.62368     40.62368   -96.708169   -111.18675   -255.02441    32.689594   -146.71085   -290.23855   -3.1469077   -32.226906   -176.02027    111.60861   -13309.976    252.94982 
    9700    40.621786    40.621786    40.621786    25.766695   -101.68196   -245.80762    42.483677    193.85198    49.872346    337.85572   -14.869939   -158.65028    128.95077   -13311.217    256.23031 
    9750    40.621617    40.621617    40.621617    63.783347    45.223363   -98.486874    188.96582    18.202269    -125.2879    161.74804    127.92441   -15.494396    271.38351   -13309.015    252.84887 
    9800    40.623567    40.623567    40.623567    30.108544   -256.64207    -400.2572   -112.98135    218.38384    74.598295    362.22628    128.58387   -15.509096     272.7249   -13308.817     253.3361 
    9850    40.625018    40.625018    40.625018   -209.09391   -204.87145   -348.53142   -61.159235   -333.00963   -476.02067   -189.94681   -89.400642   -233.23864    54.486993    -13310.94    258.31262 
    9900    40.622237    40.622237    40.622237    148.31384    127.49748   -16.019498     271.0624    211.31408    67.980482    354.68352    106.12996   -37.226175    249.52258   -13307.278    252.08567 
    9950    40.623383    40.623383    40.623383     1.582774    69.834119   -73.908166    213.61099   -163.62004   -307.45387   -19.735846    98.534248   -45.626722    242.74865   -13310.401     258.9926 
   10000     40.62607     40.62607     40.62607   -49.067764   -32.888182   -176.69058    110.97441    31.781308   -111.75899     175.3549   -146.09642   -289.43225   -2.7219121   -13306.221    251.76572 
   10050    40.625601    40.625601    40.625601   -111.26613   -260.75667   -404.67796   -116.79603   -93.751589   -237.09063    49.624132    20.709871    -123.2894    164.73263   -13309.037    258.07207 
   10100     40.62165     40.62165     40.62165    194.77386    28.814092   -114.58303    172.24365    505.48434    361.25825    649.75433    50.023147   -93.781353    193.87459   -13308.396    257.68142 
   10150    40.623957    40.623957    40.623957    148.65111    67.804204   -75.587506    211.23218    36.673761   -106.80102    180.19731    341.47535    197.63872     485.3595   -13305.783    253.47093 
   10200    40.629076    40.629076    40.629076   -266.31898   -507.92354    -651.6584   -364.12933   -161.58297   -305.75278   -17.375316   -129.45043   -273.63835    14.786302     -13308.7    259.95316 
   10250    40.626239    40.626239    40.626239    139.51768    308.09578    164.65967    451.58211    15.774635   -127.65415    159.24788    94.682613   -48.485481    237.88761    -13303.86    251.42496 
   10300    40.624167    40.624167    40.624167     -32.4434   -82.799664   -226.33413    60.773948   -62.479318     -205.918    81.008815    47.948784   -95.555274    191.51775   -13309.107    262.41275 
   10350    40.623612    40.623612    40.623612     175.4361    204.33298    60.954381    347.76068      258.726    115.13229    402.37521     63.24931   -80.171342    206.70974   -13305.282     255.8423 
   10400    40.627102    40.627102    40.627102   -209.12009   -222.42107   -366.48832   -78.301431   -245.20351   -388.56983   -101.79179   -159.73569   -303.94121   -15.468514   -13309.194    264.24465 
   10450    40.626953    40.626953    40.626953   -37.296466   -132.87675   -276.55148    10.851415     82.48944    -61.13031    226.17236   -61.502083   -204.74335    81.776527   -13306.088    259.05202 
   10500    40.625844    40.625844    40.625844     3.606221    -58.26973   -201.33998    84.847528   -86.758565   -230.32004    56.844323    155.84696    12.419138    299.33614   -13306.912    261.45961 
   10550    40.625595    40.625595    40.625595    111.78184    112.94411   -30.536151    256.47643    309.47861    165.97565      453.039   -87.077194   -230.22673    56.124509    -13304.68    257.95671 
   10600    40.628278    40.628278    40.628278   -8.4171661     70.80722    -72.74226    214.41926   -24.293744   -166.94156    118.39589   -71.764974   -215.39622    71.913936    -13304.87    259.13252 
   10650    40.629525    40.629525    40.629525    -76.00165    29.818683   -113.42724    173.09416    -84.45566   -227.95707    59.099123   -173.36797    -316.9066   -29.773993   -13304.625    259.46901 
   10700    40.627011    40.627011    40.627011    47.009139   -16.427123   -159.90867    127.10732    162.61651    18.274375    307.01492   -5.1619706   -148.75395     138.4679   -13306.004    262.94252 
   10750    40.625683    40.625683    40.625683    101.81504    128.92511   -14.068127    271.96946    169.09554    25.670869    312.56267    7.4244807    -135.6829    150.57255   -13304.619    261.05812 
   10800    40.628883    40.628883    40.628883   -57.759356   -232.59692   -375.64145   -89.500292   -42.288746   -185.53321    101.00613     101.6076   -42.346342    245.62584   -13305.472    263.48864 
   10850    40.630171    40.630171    40.630171   -214.60569     -342.753   -486.24972   -199.21938   -101.34117   -245.06235     42.42693    -199.7229   -343.74533   -55.636156   -13305.818    264.95585 
   10900    40.625775    40.625775    40.625775    151.63751    78.462207   -64.859524    221.84031    158.15176    14.726705    301.62586    218.29857    74.910971    361.71608   -13303.888    262.00642 
   10950    40.625825    40.625825    40.625825    156.99311    351.87784    208.18503    495.62685    28.857647   -114.82163    172.57824    90.243849   -52.937418    233.46532   -13304.334    263.65212 
   11000    40.629465    40.629465    40.629465   -4.6147152   -257.73613   -400.74649   -114.67644    122.77483   -21.026454    266.63203    121.11715   -22.399687    264.66482   -13303.002    261.85318 
   11050    40.631044    40.631044    40.631044   -216.10871   -397.60634   -541.00453   -254.14987   -158.54736   -301.61385   -15.427927   -92.172443   -235.67663    51.393223   -13305.477     267.4096 
   11100    40.628304    40.628304    40.628304   -8.2088922    -27.43093   -171.14183    116.33583   -7.8096948   -151.19994    135.63856    10.613949   -133.13582    154.44148   -13304.539    266.35772 
   11150    40.626833    40.626833    40.626833    47.524497   -24.750529   -168.25505    118.80068    171.35739     27.86294     314.9179   -4.0333658   -147.02012    139.01365   -13304.416    266.89007 
   11200    40.628827    40.628827    40.628827    66.135866   -26.759252   -170.38853    116.93494    -54.27607   -197.73573    89.235323    279.44292    135.89718    423.06563   -13302.796     264.5124 
   11250    40.631237    40.631237    40.631237   -205.72997   -313.74178    -457.0453   -170.37209   -196.51809   -339.63808   -53.354692   -106.93004   -250.38558     36.56745   -13303.694    267.01032 
   11300    40.627988    40.627988    40.627988    145.36804    303.85977    160.44804    447.29944    46.112924   -97.093731    189.37408    86.131426   -57.077417    229.39041   -13301.625    263.75624 
   11350    40.627598    40.627598    40.627598    123.42655    49.406004   -93.793635    192.66551     151.7312    8.6588627    294.84855    169.14245    25.490151    312.84592     -13302.5    266.19717 
   11400    40.631013    40.631013    40.631013   -77.358293   -166.48749   -310.19805   -22.713783    -50.58186   -193.61091    92.510582   -15.005531   -158.10323    128.15016   -13302.024    266.01716 
   11450    40.632363    40.632363    40.632363   -19.472944    -90.11872   -233.62506    53.441791   -33.678407    -176.8181    109.52281    65.378293   -78.040266    208.85294    -13300.91    264.60553 
   11500    40.630696    40.630696    40.630696   -3.0508462   -160.00149   -303.08587   -16.859059    48.513397   -94.914132    192.00489    102.33555   -41.202242    245.93417   -13301.475    266.43476 
   11550    40.628804    40.628804    40.628804    126.34517    150.27522    6.3335363    294.28669    126.02328    -17.95475    270.05665    102.73703   -40.782524    246.32585   -13302.117    268.41079 
   11600    40.630261    40.630261    40.630261    73.233627   -189.57979   -333.35948   -45.730818    117.34552   -25.850924    260.61805    291.93515    148.84561    435.06483   -13300.928    266.82904 
   11650    40.634013    40.634013    40.634013   -181.24677   -102.18677   -245.51751    41.194506   -93.849952   -236.82429    49.175529   -347.70358   -490.96297   -204.37881   -13302.663    270.90194 
   11700    40.633111    40.633111    40.633111   -58.957529   -187.11382   -329.95694   -44.223673   -111.76711    -254.8823    31.397796    122.00834   -21.504288    265.57158   -13300.459     267.3539 
   11750    40.630416    40.630416    40.630416    24.711564   -45.483729   -188.77286    97.854057    126.59345   -17.227934    270.45764   -6.9750275   -150.53398     136.6513   -13302.282    271.58763 
   11800     40.63046     40.63046     40.63046    26.762155   -93.700409    -237.1191    49.778864     19.32279   -123.93071    162.64181    154.66408    11.406092    297.96234   -13302.153    272.05155 
   11850    40.633042    40.633042    40.633042   -87.038853   -104.27361   -247.97609    39.475996    -134.4311   -277.38904    8.5982582   -22.411855   -165.57303     120.8108   -13300.574    269.69782 
   11900    40.633192    40.633192    40.633192   -79.570443    23.165684   -120.47316    166.88279   -28.753296   -172.49356    115.02924   -233.12372   -376.16131   -90.027922   -13299.843    268.98867 
   11950    40.631173    40.631173    40.631173    118.26227     10.00073   -133.20627     153.2696    122.41582   -20.962756    265.86137    222.37025    79.112908    365.68848   -13301.134    272.18158 
   12000    40.632786    40.632786    40.632786   -78.056303    59.459661   -83.616887    202.58236   -129.93546   -272.31204    12.508248   -163.69311   -307.22739   -20.091474   -13301.306    273.20595 
   12050    40.633253    40.633253    40.633253   -112.85073   -227.21485   -370.89794   -83.465978   -134.45662   -278.10894    9.2456077    23.119281   -120.24663    166.55771   -13301.911    275.06268 
   12100    40.631762    40.631762    40.631762    74.823908    125.98572   -17.503219     269.5399   -51.757588   -195.13889    91.692414     150.2436     6.830241    293.70848   -13300.219    272.47072 
   12150    40.632564    40.632564    40.632564    51.699905    67.557455   -75.419256    210.60887    36.367176    -106.7556    179.54611    51.175083   -91.653342    194.07164   -13299.354    271.46837 
   12200    40.635215    40.635215    40.635215   -52.400902   -178.48675   -321.89708    -35.03208   -65.642467   -209.12039    77.899596    86.926515   -55.778237    229.69773   -13298.614    270.70756 
   12250    40.635432    40.635432    40.635432   -130.77979   -126.65134    -269.7052    16.468453   -32.035334   -175.12663    111.11671   -233.65269   -377.20918   -90.036034   -13301.017    276.02303 
   12300    40.632938    40.632938    40.632938    135.49607    51.613656    -91.55441      194.838    68.905016   -73.767705    211.64135    285.96953    142.43731    429.57106   -13298.193     271.2239 
   12350      40.6338      40.6338      40.6338    110.79204   -4.0624609   -147.52056    139.45755    156.24311    12.145983    300.39617    180.19546    36.517161    323.93334   -13298.862    273.17917 
   12400    40.636491    40.636491    40.636491   -84.226133   -156.34843   -299.76609   -12.875778   -53.223318   -196.55469    90.159183   -43.106656   -185.96954    99.807115   -13298.516    273.16508 
   12450     40.63608     40.63608     40.63608   -105.43112   -113.94969   -258.00103    30.164112    31.671273   -111.59368    174.99566   -234.01495   -377.15466   -90.818683   -13299.057    274.85802 
   12500     40.63349     40.63349     40.63349    73.301941   -126.24504   -269.12554    16.710648     99.61075   -43.441376    242.73489    246.54011    102.69323    390.45909   -13299.132    275.65091 
   12550    40.634765    40.634765    40.634765    108.36807    158.23465     15.16584    301.37224    4.7940989   -138.17437    147.83883    162.07545    19.362294    304.83904   -13297.624     273.3763 
   12600    40.638009    40.638009    40.638009   -209.13169   -344.18259   -487.08314    -201.2158   -95.649934   -238.84563    47.602596   -187.56254   -330.83214   -44.227788   -13298.598     275.8979 
   12650    40.635318    40.635318    40.635318    42.289504    47.830192   -95.005954    190.73443   -45.030418   -187.95013     97.97167    124.06874   -18.949701    267.15744   -13299.196    277.68473 
   12700    40.634776    40.634776    40.634776    50.474438   -38.278257   -182.04597     105.5592    52.429299   -90.641941    195.57418    137.27227   -6.0208105    280.63909    -13298.83    277.60061 
   12750    40.637413    40.637413    40.637413   -54.674044    116.52329   -26.423748    259.54305   -89.556189   -232.48121    53.425042   -190.98924   -334.23165    -47.66176   -13297.222    275.11887 
   12800    40.637637    40.637637    40.637637    17.392318    -212.4068   -355.30372   -69.454207    113.15086    -29.90235    256.27819     151.4329    8.3814347    294.55313   -13296.433    274.21775 
   12850    40.636444    40.636444    40.636444   -3.2089293    27.118558   -115.87358    170.17488   -64.830864   -207.60401    78.015813    28.085518    -114.8677    171.10479   -13296.615    275.18459 
   12900    40.635496    40.635496    40.635496    112.85919   -16.130395   -159.13221    126.94047    171.77843    29.053912    314.56644    182.92953    40.037425    325.88667   -13296.632    275.83382 
   12950     40.63761     40.63761     40.63761    70.575063    60.800672   -82.335027    204.00059    54.946595   -88.363567    198.30808    95.977923   -46.672816    238.68655   -13296.897    276.95357 
   13000    40.639634    40.639634    40.639634   -170.17992   -259.99103   -403.51525   -116.40352   -351.17303   -494.47537   -207.80411    100.62431   -42.547388    243.85994   -13298.108    279.90085 
   13050    40.637291    40.637291    40.637291   -3.4885987   -69.042692   -212.12526     74.10901    144.65744    2.4564268    286.92923   -86.080541    -229.1639    57.062627    -13297.37    279.07051 
   13100    40.635236    40.635236    40.635236    285.64911    315.25233    172.51457    458.06536    260.62272    117.98129    403.31457    281.07229    138.16303    424.05142   -13293.252    271.69647 
   13150    40.639057    40.639057    40.639057   -181.74363   -167.99126     -311.046   -24.872902   -151.01727   -293.99879   -7.9670155   -226.22236   -369.46424   -82.903884   -13298.159     281.7789 
   13200     40.63981     40.63981     40.63981    56.183701   -181.40784   -324.02214    -38.72587    247.79395     104.3907    391.26626      102.165   -41.113008    245.50882   -13294.232    274.76961 
   13250    40.638489    40.638489    40.638489   -86.426982   -235.51017   -378.37838   -92.582727   -189.17544   -331.94636   -46.338249    165.40466    22.134365    308.75653   -13297.241    281.17201 
   13300    40.635856    40.635856    40.635856    92.943918    58.114107    -84.68041     200.9988    243.30267     100.1797     386.5178    -22.58502   -165.13978    120.02991   -13296.341    280.00382 
   13350    40.637821    40.637821    40.637821   -11.807637   -71.060899   -213.53312    71.473025   -55.137929   -197.62447    87.432986    90.775916   -52.114822     233.7394   -13297.248    282.32932 
   13400    40.640089    40.640089    40.640089   -244.51189   -222.86359   -365.80897   -79.846371   -325.95106   -468.48932   -183.33862     -184.721    -328.1594   -41.225719   -13296.377    281.21349 
   13450    40.637708    40.637708    40.637708    224.67057    299.08332    155.84766    442.39638    228.42859    85.195947    371.71883     146.4998    3.5101984    289.57356   -13293.736    276.66879 
   13500    40.638508    40.638508    40.638508   -35.183139   -224.25489   -367.18845   -81.243632   -23.668273   -166.43327    119.16037    142.37375  -0.27930075    285.11413    -13294.82     279.3269 
   13550    40.638004    40.638004    40.638004   -29.545736   -110.31045   -253.10791    32.564478    48.517033    -94.29718    191.42034   -26.843796   -170.05083    116.42302   -13296.986    284.07303 
   13600    40.637313    40.637313    40.637313    2.9985382    -20.30025   -162.79193    122.24461   -156.28401   -298.96278   -13.540079    185.57988    41.747579    329.48241   -13296.215    283.12797 
   13650    40.638396    40.638396    40.638396   -14.068008   -114.53994   -257.95264    28.960504    18.101605   -125.31304    161.57532    54.234306   -88.363608    196.89104   -13294.578    280.50422 
   13700     40.63977     40.63977     40.63977   -24.028045   -31.566892   -174.31883    111.25294   -88.182613   -230.28882    54.000782     47.66537   -94.490423    189.90613   -13294.035    279.99381 
   13750     40.63924     40.63924     40.63924    52.050265    -17.10691   -160.30508    126.17551   -89.977532   -232.91989    53.051479    263.23524    119.94569    406.60809   -13293.941    280.34795 
   13800    40.638391    40.638391    40.638391    110.32958    153.57904    10.573381    296.65694  -0.92167679   -143.59152    141.83406    178.33139    35.993469    320.73752   -13292.726    278.53424 
   13850    40.638572    40.638572    40.638572     76.64713   -45.554201   -188.27391    97.230407    116.22915   -27.029885    259.56726    159.26645    16.238705    302.36546   -13294.325    282.15374 
   13900    40.640473    40.640473    40.640473     9.791836   -57.548615   -199.76784    84.752333    19.475116   -123.61268    162.63037    67.449007   -75.528627     210.5207   -13293.875     281.8037 
   13950    40.642547    40.642547    40.642547   -155.24301   -131.91731   -275.22663    11.480153   -131.80256   -273.97549    10.437351   -202.00915   -344.57963   -59.366886   -13295.158    284.80494 
   14000     40.64039     40.64039     40.64039   -35.655012   -332.61646   -475.24501    -189.9206     52.87647   -89.254984    195.08681    172.77495    30.462452    315.15219   -13293.769    282.62806 
   14050    40.638549    40.638549    40.638549    49.507167    87.248983   -56.160137    230.73203    4.9390984    -137.7604    147.72747    56.333419   -86.849731    199.58313   -13295.744    286.96311 
   14100    40.639947    40.639947    40.639947      2.72087    13.003139   -129.28049    155.34873   -31.598315   -174.95389    111.83103    26.757785   -115.68897    169.29225   -13294.216    284.51509 
   14150    40.641101    40.641101    40.641101    30.233658   -3.9348283   -146.09137    138.29122    187.21131    43.456625    331.02254   -92.575504   -234.87775    49.792179   -13291.686    280.12516 
   14200    40.641083    40.641083    40.641083   -50.158484   -149.02153   -291.60705   -6.3599119   -41.156181    -183.5453    101.29488    39.702255   -103.41229    182.87564   -13294.162    285.40899 
   14250    40.641189    40.641189    40.641189    22.345014    12.646576   -130.21555    155.60078   -142.41608   -284.62524  -0.13206992    196.80455    53.773147    339.92037   -13294.206    285.98202 
   14300    40.641404    40.641404    40.641404    104.07924    43.143855   -99.448447    185.82544    68.220708   -73.925311    210.45472    200.87317    58.720012    343.11629   -13290.024    278.38251 
   14350    40.641892    40.641892    40.641892    -1.845087   -72.708735   -215.39071    70.044853   -198.09654   -340.74567   -55.336656    265.27002    122.99979    407.61273   -13293.086    284.79306 
   14400    40.641417    40.641417    40.641417   -36.180675   -153.97295   -296.67596    -11.17818   -44.451724   -187.69335    98.886303    89.882649   -53.453313    233.29796   -13295.188     289.3449 
   14450    40.640686    40.640686    40.640686    108.74009    143.41713    1.4833323    285.42956    101.92335   -40.469054    244.39181    80.879783   -61.904438    223.77514   -13291.498    282.67855 
   14500    40.643262    40.643262    40.643262   -14.583012    32.320591   -110.19052     174.9351   -48.607513   -191.12936    93.979024   -27.462113   -170.24588    115.37672   -13292.327    284.74998 
   14550    40.642986    40.642986    40.642986   -37.790055   -226.65181   -368.41143    -84.82435     65.67136   -76.742071    208.15717     47.61028   -94.517397    189.82017   -13292.161    284.89494 
   14600    40.640718    40.640718    40.640718    64.243243    64.196799    -78.54153    207.01056   -6.1570565   -148.41409    136.18226    134.68999   -7.6481855    277.12315   -13292.745    286.48662 
   14650    40.641474    40.641474    40.641474    18.583595    65.058129    -77.77749    207.97309   -126.14258   -268.43955     16.24226    116.83524   -25.277308    259.01682   -13292.072    285.64295 
   14700    40.643283    40.643283    40.643283   -80.770125     20.17634   -121.83828    162.27165   -145.49623   -288.02873   -2.8816304   -116.99048   -259.76721    25.871062   -13293.395    288.65391 
   14750      40.6432      40.6432      40.6432    18.825638    12.131751   -130.16269    154.51319   -5.8742923   -149.11796    137.45061    50.219456   -92.577249    193.08776    -13291.05    284.57408 
   14800    40.641828    40.641828    40.641828    59.688144     13.38137   -128.80679    155.65627   -6.9829497   -147.98032    134.08578    172.66601    30.270459    315.14928   -13291.847    286.56654 
   14850    40.641895    40.641895    40.641895    66.260735    -31.36407   -174.27545     111.6445    59.560317   -83.116819    202.32456    170.58596     28.73602    312.49875   -13291.946     287.1986 
   14900    40.644253    40.644253    40.644253    -137.8918   -28.810621   -171.92669    114.37591   -283.00416   -425.57072   -140.33248   -101.86061   -244.82931    41.192495   -13293.074    289.82247 
   14950    40.643903    40.643903    40.643903   -25.902299   -149.35746   -291.49752   -7.1188647   -19.989706   -162.59112    122.70539     91.64027   -51.318445    234.69001   -13291.409    287.03537 
   15000    40.641649    40.641649    40.641649     121.2001    369.62337    227.02142    512.30952   -105.35529   -247.36532    36.740051    99.332208   -42.829824    241.58954    -13291.13    286.92694 
   15050    40.640804    40.640804    40.640804    124.25808    130.95532   -11.028262    273.01294    266.91166    124.45975    409.43563   -25.092751   -167.32202     117.2235   -13290.189    285.52842 
   15100    40.643721    40.643721    40.643721    68.421529    56.283599   -86.656201    199.31654    34.445267    -107.7318    176.70458    114.53572   -28.067183    257.22304    -13289.81    285.21211 
   15150    40.646227    40.646227    40.646227   -260.38134   -424.20211   -566.57475    -281.7361   -211.45708   -353.85845   -68.970777   -145.48484   -288.65718   -2.2250782   -13291.683    289.25668 
   15200    40.641762    40.641762    40.641762    130.30459    204.55067    62.291888     346.8865    116.31639   -26.839737    259.54837    70.046715   -71.679638    211.86152   -13290.562    287.49797 
   15250    40.641099    40.641099    40.641099    98.566659     46.09651    -96.30441      188.583    79.674937   -62.828475    222.27013    169.92853    27.735386    312.19234   -13292.078    290.84329 
   15300    40.644544    40.644544    40.644544   -118.84699    75.931577   -66.744336    218.67776   -140.47862   -282.68854    1.8182041   -291.99393    -433.8474   -150.03526   -13292.477    292.02294 
   15350    40.645904    40.645904    40.645904   -177.19528   -169.86276   -312.87982   -26.746524   -274.56886   -417.03085   -132.01196   -87.154236   -230.20253    55.969502   -13291.589    290.70199 
   15400    40.643297    40.643297    40.643297    83.933268    152.76898    10.073233    295.57142      41.9908   -99.959077    184.02538    57.040018   -85.707665    199.86606   -13289.785    287.61095 
   15450    40.643212    40.643212    40.643212   -47.128333    -3.393349    -146.1678    139.46685   -127.31612    -270.2188    15.672207   -10.675524     -153.067    131.80811   -13293.994    296.15045 
   15500    40.644556    40.644556    40.644556   -10.913815    130.34848   -11.493062    272.28432   -50.513648   -193.23594    92.297102   -112.57628   -253.90762    28.845674   -13289.964    288.73837 
   15550    40.645592    40.645592    40.645592   -114.97909   -134.85099   -277.35827    7.7463062   -47.571431    -189.8793    94.841651   -162.51484   -304.90062   -20.026737   -13290.329    289.82883 
   15600    40.643746    40.643746    40.643746    55.880874    222.32778    79.384612    365.36707   -81.345277   -223.86915    61.272331    26.660114   -116.39778    169.79799   -13290.832    291.18802 
   15650    40.643304    40.643304    40.643304    147.72957    187.86622    45.633804    330.16341    99.284361   -42.678031    241.33359    156.03812    13.546199    298.63256   -13288.079    286.24089 
   15700    40.645435    40.645435    40.645435   -95.613541    108.29415   -34.158232     250.8533   -140.73087   -282.97485    1.6171114    -254.4039   -396.73573    -111.9993   -13291.127    292.51058 
   15750    40.645221    40.645221    40.645221   -119.59063   -210.43333   -352.40981   -68.351644     -83.1876   -226.00222    59.708478   -65.150955    -206.9214    76.731006    -13290.72    292.09127 
   15800     40.64282     40.64282     40.64282    128.44945    151.43527    7.9763097    294.98085   -10.250141   -152.64078    132.21735    244.16322     101.6268    386.78897   -13290.004    291.06987 
   15850    40.643562    40.643562    40.643562    255.12946    184.87633    43.116809    326.70647    204.18276    62.273806     346.1601    376.32928    233.82982    518.89609    -13286.28     284.2209 
   15900    40.648933    40.648933    40.648933   -203.49251    -85.01199   -227.11921    57.184319   -224.27456   -366.01548   -82.422028   -301.19097   -443.01534   -159.28626   -13289.703    291.20079 
   15950    40.647235    40.647235    40.647235   -177.93799   -277.47371   -420.01354   -134.82807   -130.23204   -273.69552    13.333262   -126.10822   -268.03347    15.921465   -13291.204    294.46058 
   16000    40.641642    40.641642    40.641642    253.28201    245.03511     103.1659    387.00672    116.57843   -25.605287    258.84329    398.23248    255.52579    541.04443   -13290.572    293.59034 
   16050     40.64468     40.64468     40.64468    44.585677   -2.5265583   -145.46475    140.50426    193.21688    51.398404    335.13536   -56.933291   -199.45453    85.684396   -13289.491    291.84188 
   16100    40.648092    40.648092    40.648092   -96.521565   -56.646929   -199.13792    85.944721   -213.35102   -355.56955   -71.053085   -19.566745   -161.57613    122.53996   -13287.606    288.53645 
   16150    40.646183    40.646183    40.646183   -124.85479    -223.7641   -366.18883   -81.254895    -140.8099   -283.76299    2.2410521   -9.9903647   -152.65584     132.7717   -13291.657    296.70436 
   16200    40.643683    40.643683    40.643683    260.25256    311.88632    169.49998    454.36874    121.74351   -20.292765    263.85857    347.12785    204.42136    489.91404   -13286.817    287.67145 
   16250    40.647248    40.647248    40.647248   -64.881933    27.348632   -115.17674    169.97751   -187.98853   -329.79453   -46.082721   -34.005901   -176.49486    108.56349   -13289.246    292.70305 
   16300    40.647707    40.647707    40.647707   -300.11993   -413.03993   -555.31807   -270.66751   -163.64314   -306.53975   -20.650376    -323.6767   -465.66416   -181.56351   -13292.628    299.56755 
   16350    40.643982    40.643982    40.643982     184.8353    291.46572    148.99819    434.04948    92.583257   -48.839379    234.11389    170.45693    28.108894    312.90632   -13288.662    292.21654 
   16400    40.646359    40.646359    40.646359   -120.05301   -36.129501   -178.94309    106.78428   -117.08587   -259.46937    25.396436   -206.94367   -349.76766   -64.017245   -13290.463    296.02097 
   16450    40.646194    40.646194    40.646194     131.3871    117.35014   -24.965234    259.74671    123.33839   -18.750109    265.52606    153.47277     11.20889    295.83141   -13286.527    288.71751 
   16500    40.645997    40.645997    40.645997    19.115891    199.68744    57.194854    342.27998   -44.688078   -187.25748    97.981424   -97.651693   -240.02359    44.804796   -13287.923    291.72469 
   16550    40.645018    40.645018    40.645018      139.161    245.82592    104.02081    387.72885    67.598466   -74.162586    209.44488     104.0586   -38.516099     246.7228   -13286.999    290.23117 
   16600    40.646961    40.646961    40.646961   -47.628543   -26.188985   -169.05577    116.78691   -115.06211   -256.84555    26.819584   -1.6345282   -142.96955    139.77658   -13288.658    293.73898 
   16650    40.647639    40.647639    40.647639   -163.65753   -132.37627   -274.72859    10.067756   -199.92358   -342.51054   -57.244987   -158.67272   -300.98481   -16.244028   -13289.088    294.86789 
   16700    40.644928    40.644928    40.644928    90.328838    3.7104478   -138.75962    146.27793    156.31857    13.779227    298.97469     110.9575   -31.874008    253.87988   -13289.441    295.84883 
   16750    40.645008    40.645008    40.645008    66.487621    308.01568    165.83015    450.31447   -9.2102034   -151.69454    133.35863   -99.342608   -241.16982    42.595507   -13287.397    292.18604 
   16800    40.646982    40.646982    40.646982   -28.647079    -1.732685   -144.09099    140.75245   -113.97574   -256.15365    28.288514    29.767187   -112.75331    172.40379   -13288.147    293.92404 
   16850    40.647575    40.647575    40.647575   -113.98103   -112.42947   -254.66611    29.896178   -158.39772   -300.73361   -15.957911   -71.115905   -213.24342    71.104344   -13289.385     296.6021 
   16900     40.64558     40.64558     40.64558    185.06392    171.88758    29.953963    313.89513    257.47412    115.46902    399.57555    125.83005    -16.78644    268.53156   -13286.361    291.02729 
   16950    40.646624    40.646624    40.646624   -8.3386466    105.91063   -37.024936    248.94746   -153.59331   -294.97875   -12.111785    22.666735   -119.41433    164.84952   -13288.359    295.16891 
   17000    40.647892    40.647892    40.647892     -84.9798   -202.79434   -344.80212    -60.67268   -84.437064   -226.49708    57.725737    32.292003   -109.39801    174.09253   -13288.971    296.61817 
   17050    40.647433    40.647433    40.647433   -41.121248    62.970544   -78.968924    205.02669    -258.0537   -399.90619    -116.1062    71.719408   -71.311169    214.83339   -13287.587    294.20613 
   17100    40.646208    40.646208    40.646208    51.590538   -157.36983    -298.6923   -15.966704    181.58593    40.071089    323.19117    130.55551   -11.691664     272.9147   -13288.503    296.24409 
   17150     40.64691     40.64691     40.64691   -65.900093    88.764333   -54.163135    231.78998   -136.20971      -278.05    5.7517827    -150.2549   -292.76136   -7.6414006   -13288.567    296.63092 
   17200    40.647071    40.647071    40.647071   -5.7301942    85.350031   -56.892634     227.7169   -56.817588   -198.64676    85.115805   -45.723026    -187.2153    95.866007   -13287.799    295.40475 
   17250    40.647511    40.647511    40.647511    -25.19417   -189.67004   -331.36417   -47.868088    87.685232   -54.905267    230.38289    26.402299   -115.48249    168.40655   -13287.151     294.4074 
   17300    40.646197    40.646197    40.646197    51.128973   -28.626207   -171.26417    114.10978   -66.967949   -208.87332    75.031548    248.98108    106.58171    391.48402   -13286.795    293.97096 
   17350    40.645704    40.645704    40.645704     25.76403    133.32117   -8.7674019    275.51848   -41.976564   -183.87593    100.02986    -14.05252   -156.16717    128.16505   -13287.693    295.95127 
   17400    40.646821    40.646821    40.646821    88.993293   -51.853742   -194.04208    90.439759    109.37425   -32.762686    251.60114    209.45937    67.504117    351.50491   -13287.471    295.76596 
   17450    40.649304    40.649304    40.649304    -91.48287    7.8513218   -135.02415    150.83865   -111.95574   -253.74109    29.939131   -170.34419    -311.6313    -28.96314   -13287.294    295.65469 
   17500     40.64965     40.64965     40.64965   -125.92975   -340.24098   -482.41022   -197.97385    26.244848   -116.01656    168.62317   -63.793135   -206.67154    79.203345   -13288.019    297.29323 
   17550    40.646417    40.646417    40.646417    4.3014998   -46.704835   -188.86926    95.565744   -108.84987   -251.08466    33.481403     168.4592    26.041292    310.98923   -13288.223    297.92335 
   17600    40.644359    40.644359    40.644359    139.68143    106.22348    -35.73554    248.30443    162.31823    19.874476    304.86512    150.50258    8.3533387    292.73824   -13287.957    297.64168 
   17650    40.647422    40.647422    40.647422    14.878034    216.79361    74.822424    358.87377   -132.52787   -273.70052    8.7384814   -39.631644    -181.7122     102.5548   -13285.756    293.60247 
   17700    40.650624    40.650624    40.650624   -138.79927   -55.326369   -197.99759    87.449869   -197.14582   -338.94717   -55.219317   -163.92561   -305.99323   -21.741992   -13288.721    299.56013 
   17750    40.649172    40.649172    40.649172   -36.150917    61.241998    -81.42935    204.00962    19.197546   -123.39013    161.89254    -188.8923   -330.98706   -46.690468    -13286.87    296.19526 
   17800    40.646619    40.646619    40.646619    134.11957     266.8086    124.81729    408.91005    61.829198   -80.237359    203.98906    73.720902   -67.760883    215.30223   -13285.681    294.11104 
   17850    40.648224    40.648224    40.648224   -10.097739   -112.46807   -254.77668     29.96011   -4.1572798   -146.36683    138.15086    86.332135   -55.457702    228.23974   -13287.112    297.09284 
   17900    40.649757    40.649757    40.649757   -213.19533    -135.9982   -278.06819    6.1724968   -465.20502   -606.71423   -323.57163   -38.382757   -180.39152    103.74629   -13288.333    299.66476 
   17950    40.646153    40.646153    40.646153     133.7404    157.47713    15.277964    299.78864    242.56937    100.45706    384.78546    1.1747135   -140.73725    143.16919   -13286.412    296.14748 
   18000    40.646559    40.646559    40.646559    169.63043    205.26381    63.100214    347.52666    36.418296    -105.5607    178.47698    267.20919    124.59867    409.93687   -13287.075    297.62351 
   18050    40.652159    40.652159    40.652159   -295.84138   -172.97238   -315.77169   -30.063056   -283.00239   -425.35484   -140.52454   -431.54937   -573.80353   -289.18049    -13288.39     300.3592 
   18100    40.650501    40.650501    40.650501    -73.75406   -73.999733   -215.76116     67.87083    -130.0967   -271.63307    11.548999   -17.165743   -159.51429    125.30435   -13285.795    295.52623 
   18150    40.646245    40.646245    40.646245    96.166344    155.87866    14.119621    297.74979   -60.233594   -201.98605    81.626204    192.85397    51.197609    334.61196   -13287.652    299.30984 
   18200    40.646927    40.646927    40.646927    175.47057    206.98394    64.104151    349.98486     341.3466     199.4468    483.35143   -21.918825   -164.18018    120.43212   -13285.156    294.66771 
   18250    40.652093    40.652093    40.652093   -179.84718   -56.152416   -198.87059    86.670951   -468.95038     -611.159   -326.61961   -14.438737   -156.63883     127.8875   -13286.688    297.81787 
   18300     40.65108     40.65108     40.65108   -146.48119   -204.13115   -345.17978    -62.96087   -120.05816   -262.59653    22.597417   -115.25425    -256.6125    26.195071   -13286.354    297.34563 
   18350    40.647339    40.647339    40.647339    152.34576    345.38026    202.93755    487.91621    116.05076   -26.331596    258.51383   -4.3937254    -146.7716    138.11637   -13287.164    299.08915 
   18400    40.648314    40.648314    40.648314    39.840227    111.98087   -30.070855    254.15704    -97.70683   -239.53188    44.223728    105.24664   -37.379934    247.98692   -13284.387    293.89244 
   18450    40.649518    40.649518    40.649518   -43.171992   -2.8361551   -144.93156     139.3756     129.5971   -12.286794    271.61399   -256.27692   -398.27587    -114.1588   -13286.612    298.36329 
   18500    40.648505    40.648505    40.648505    101.24795    218.24174    75.501425    361.08438    15.561833   -126.39636    157.63297     69.94029   -71.922246    211.93193    -13284.19    293.83806 
   18550    40.648958    40.648958    40.648958   -52.247421   -4.6820598    -146.5911    137.35071   -196.79381   -338.58708   -54.869339    44.733607   -97.932611    187.49469   -13288.345    302.03487 
   18600    40.649113    40.649113    40.649113   -56.733612   -3.5033343   -144.79255    137.89102   -90.042583   -231.94803    51.969449    -76.65492   -219.36845    66.163677   -13286.397    298.41916 
   18650    40.648364    40.648364    40.648364    68.655145    224.00438     81.92929    366.20784   -188.23487   -330.52324   -45.853974    170.19593    28.697287    311.80535   -13286.073    297.94127 
   18700    40.650336    40.650336    40.650336   -80.376999   -141.46978   -283.24348   0.41037155   -13.513316   -155.54376    128.63571     -86.1479   -227.84863    55.687833   -13285.705    297.38366 
   18750    40.650298    40.650298    40.650298   -128.58808   -83.145517   -225.53316     59.35137    -205.1903   -346.39088   -63.865583   -97.428425     -240.823    46.066968   -13287.988     301.9554 
   18800    40.646816    40.646816    40.646816    138.77851    312.50042    170.55783    454.55118    83.938646   -58.247868    226.24397     19.89647   -121.92271    161.81902   -13284.734    295.80138 
   18850    40.648234    40.648234    40.648234    30.728254   -38.662071   -180.53396    103.33052   -7.3471006   -149.38274    134.78309    138.19393   -3.8252034    280.33584   -13286.842    300.01921 
   18900    40.650992    40.650992    40.650992    -42.95928    148.55719    6.5182928    290.71211   -127.39375   -269.15774    14.487116   -150.04128   -292.17307   -7.8143447   -13285.424    297.41421 
   18950    40.650288    40.650288    40.650288   -100.85335    -181.3983   -323.51244    -39.16377    62.860203   -79.297983    205.13431   -184.02196   -326.36846   -41.561011   -13286.265    299.17496 
   19000    40.647024    40.647024    40.647024    214.95262    284.83887    142.70654    427.09194    51.056801   -91.836153    194.06088    308.96218    166.29207    451.76114   -13285.026    296.90714 
   19050    40.649705    40.649705    40.649705   -81.133724   -129.00732   -271.01084    13.113106    75.547217   -65.759144    216.96115   -189.94107    -332.6343   -47.133372   -13286.857    300.57186 
[...]
    3350       0.0335    300.97352    2.1355748 -0.0019825769  0.024139408  0.013240075    2.1489844    2.1221622    155.57662   -13266.701   -7192.4387 
    3400        0.034    297.68649    2.1059207 -0.041837704 -0.046098511  0.013208606    2.1192434    2.0925951    153.87752   -13264.481   -6726.6149 
    3450       0.0345    305.14317    2.2052403 -0.011969717 0.0022111154  0.013201411    2.2185624    2.1919153    157.73196   -13267.806   -7318.2725 
    3500        0.035    295.38793      2.22316   0.01636216  0.036238892  0.013177318    2.2364736    2.2098435    152.68936   -13262.224   -7585.8703 
    3550       0.0355    295.53298    2.2537145   0.04186992  0.017706591  0.013134951    2.2670035    2.2404224    152.76434   -13261.752     -7710.97 
    3600        0.036      298.131    2.2552908 -0.011241085 -0.017280258  0.013116112    2.2685475    2.2420309    154.10729   -13262.551   -7422.5647 
    3650       0.0365    299.82113    2.2442835 -0.026816325 -0.039347193  0.013150857    2.2575399    2.2310239    154.98094   -13262.866   -7260.3999 
    3700        0.037    293.53668     2.294658 -0.032448431 -0.021067088  0.013058702    2.3078188     2.281494    151.73243   -13259.067    -7470.475 
    3750       0.0375    304.54445      2.39321  0.043691149  0.040630677  0.013069176    2.4064661    2.3799506    157.42247   -13264.189   -8258.4395 
    3800        0.038    297.10807    2.4217957  0.029724518  0.022992309  0.013043601    2.4350113    2.4085766    153.57853    -13259.77   -8248.3749 
    3850       0.0385    298.24392    2.3861403 -0.0069503159 -0.0015652249  0.013006552    2.3992769    2.3730003    154.16566   -13259.786    -7925.416 
    3900        0.039    302.84261     2.447159 -0.017621987 -0.041213979  0.012972237    2.4602391    2.4340755    156.54278   -13261.573   -7961.0769 
    3950       0.0395    301.19265    2.4718688 0.0021336516  0.011315888  0.012955504    2.4850035    2.4587304    155.68989    -13260.13   -8284.3944 
    4000         0.04    298.66279    2.5444867  0.033752397  0.036982362  0.012965698    2.5575697    2.5313999    154.38218   -13258.223   -8717.4048 
    4050       0.0405    297.97768    2.5277225  0.013302294  0.024497525  0.012913189    2.5407994    2.5146417    154.02804   -13257.265   -8551.7409 
    4100        0.041    302.99253    2.5885109 -0.024967907 -0.024155011  0.012928013    2.6015752    2.5754428    156.62027   -13259.242   -8464.6267 
    4150       0.0415    296.99516    2.5535706 -0.017829903  -0.01716039  0.012875376    2.5665531    2.5405842    153.52016   -13255.525   -8395.2676 
    4200        0.042     295.2356    2.6238733   0.02872618 -0.016597379    0.0128483    2.6368989    2.6108438    152.61063   -13253.998   -8786.6738 
    4250       0.0425    302.11312    2.6842294 0.0047343581  0.050568998   0.01280635    2.6971755    2.6712792    156.16569   -13256.918   -9131.7757 
    4300        0.043    292.17182     2.662082 -0.015150625 -0.015996508  0.012790027    2.6750316    2.6491282    151.02692   -13251.148   -8769.7829 
    4350       0.0435    301.60148    2.7150424 -0.013054791 -0.014700746  0.012807866    2.7280184     2.702062    155.90122   -13255.379   -8957.6227 
    4400        0.044    297.74506    2.7459958 -0.027419941  0.012168234  0.012746944    2.7589023    2.7330851    153.90779   -13252.736   -9102.4805 
    4450       0.0445    299.62013    2.8079751   0.02728693 -0.0040222833  0.012730007    2.8208303    2.7951155    154.87704   -13253.053   -9437.4657 
    4500        0.045    297.25919    2.8030206 0.0045400173  0.022451806   0.01268454    2.8158224    2.7902144    153.65664    -13251.17   -9433.3748 
    4550       0.0455     301.5151    2.8767028 -0.017042535  0.011767075  0.012724598    2.8896029    2.8637982    155.85657   -13252.697   -9571.4245 
    4600        0.046    301.74452    2.8724344   0.05168061 -0.012340381  0.012687239    2.8852649    2.8595993    155.97516   -13252.132   -9705.9155 
    4650       0.0465    297.56297    2.8934774  -0.03400157 -0.0070924877  0.012606392     2.906234    2.8807162    153.81367   -13249.292   -9507.9445 
    4700        0.047    294.13405    2.9169054 0.0035591776 -0.016781868  0.012583929    2.9296635    2.9041424    152.04122    -13246.83   -9678.9423 
    4750       0.0475    298.42821    2.9772837 0.0060011678  0.019220989  0.012622301    2.9900263    2.9645363    154.26092   -13248.352   -10008.353 
    4800        0.048    298.80073    2.9958959  0.023697968 -0.010907427  0.012548775      3.00863    2.9831567    154.45348   -13247.847   -10028.955 
    4850       0.0485    303.41295    3.0075778 -0.0062022133 -0.00092733768  0.012543693    3.0202998    2.9948508    156.83759   -13249.529   -10001.494 
    4900        0.049    299.31391    3.0417143 -0.0025654901 -0.024157612  0.012523041    3.0543707    3.0290527    154.71875     -13246.7   -10049.971 
    4950       0.0495    294.04182    3.0613644  0.010476425  0.004643538  0.012464455    3.0739879    3.0487358    151.99355   -13243.265   -10254.948 
    5000         0.05    301.19207    3.1276436  0.022975016  0.055344384  0.012455924     3.140264    3.1150179    155.68959   -13246.235   -10686.543 
    5050       0.0505    295.91384    3.1357612 -0.015399102 -0.017342102  0.012454359     3.148375    3.1231421    152.96122   -13242.779     -10343.4 
    5100        0.051    297.45376    3.1538973 -0.046346043 -0.021385759  0.012455196    3.1664625    3.1413268    153.75721   -13242.833   -10287.218 
    5150       0.0515    295.74432    3.2071903 -0.033196665 0.0018389108  0.012429716    3.2197637    3.1946115    152.87359   -13241.206   -10586.109 
    5200        0.052    296.93032    3.2385787  0.015230625   0.03005306  0.012317503    3.2510498    3.2261019    153.48664   -13241.069   -10946.208 
    5250       0.0525    295.51058    3.2522686  0.017935951  0.012511217  0.012304034    3.2647768    3.2397547    152.75276   -13239.589   -10942.386 
    5300        0.053    299.05461    3.2933942 -0.012076842 -0.015738475   0.01232297    3.3058893    3.2808932    154.58471   -13240.659   -10885.263 
    5350       0.0535    299.28358    3.3094621 -0.003829945  -0.04592283  0.012301271    3.3218939    3.2970244    154.70307   -13240.006   -10865.698 
    5400        0.054    297.34999      3.34241   0.02305827 -0.013901818   0.01224685    3.3548431    3.3299708    153.70357   -13238.234   -11171.888 
    5450       0.0545    298.78364    3.3878125   0.05254236  0.015105393  0.012249269    3.4001758    3.3754431    154.44464   -13238.204   -11518.201 
    5500        0.055    295.07716    3.3868708 -0.0068224613 -0.020426563  0.012227899    3.3992996    3.3744357    152.52872   -13235.515   -11198.739 
    5550       0.0555    296.79813    3.4000793 -0.037053999  -0.02014559  0.012229821    3.4124777    3.3876746    153.41831   -13235.616   -11142.932 
    5600        0.056     301.3964     3.465362 0.0049726586  0.030764004  0.012198473    3.4776863    3.4530312    155.79521   -13237.193   -11670.329 
    5650       0.0565    295.10985    3.4913208 -0.0065293562  0.019756407  0.012152932    3.5035793    3.4790558    152.54562   -13233.142   -11681.826 
    5700        0.057    302.33804    3.5320248  -0.01733845  0.045738183  0.012130768    3.5443672    3.5196757    156.28196   -13236.066   -11868.082 
    5750       0.0575    301.11756    3.5515776  0.010541219 0.0028409629  0.012109004    3.5638436    3.5393048    155.65108   -13234.627   -11883.199 
    5800        0.058    298.87633    3.5919091 -0.019934473 -0.024716636  0.012099061    3.6041147    3.5796967    154.49256   -13232.645   -11824.193 
    5850       0.0585    299.45025    3.6082694 0.00045571444  0.021194543  0.012053214    3.6205071    3.5960248    154.78923   -13232.115   -12099.732 
    5900        0.059    296.27516    3.6642268  0.046322345 -0.0065998334  0.012042048    3.6764906    3.6519559    153.14799   -13229.641   -12346.498 
    5950       0.0595    294.10268    3.6656285 -0.0064389593 -0.025395562   0.01204267     3.677833    3.6534168    152.02501   -13227.676   -12112.647 
    6000         0.06    293.90127    3.6869425 -0.0017830705 -0.048789437  0.011966095    3.6989682    3.6749094    151.92089   -13226.729   -12121.233 
    6050       0.0605    295.60629    3.7556387  0.020007432 -0.021738534  0.011963832    3.7678064    3.7434635    152.80224   -13226.759   -12513.025 
    6100        0.061    296.81668    3.7567203  0.016783579  0.029310328   0.01189039    3.7687986    3.7446344     153.4279   -13226.534   -12676.048 
    6150       0.0615    300.85256    3.7761902 -0.026805647   0.02802271  0.011904648    3.7882499    3.7641227     155.5141   -13227.754   -12591.357 
    6200        0.062    297.62817    3.7838536 -0.0064217768  -0.03554205  0.011872905    3.7958799    3.7718194    153.84737    -13225.22   -12472.966 
    6250       0.0625    299.09032    3.8577395 -0.046761901  0.044894587  0.011868593    3.8697698    3.8457011    154.60317   -13225.105   -12852.907 
    6300        0.063    297.01869    3.8793761  0.018304514   0.00752032  0.011869361    3.8914241    3.8673198    153.53232   -13223.153   -13017.337 
    6350       0.0635    297.51974    3.9156648  0.032096738  0.018957842  0.011846296    3.9276519    3.9036694    153.79132   -13222.522   -13222.398 
    6400        0.064    300.06954    3.9585848 -0.0013962378 -0.016608259  0.011785029     3.970482     3.946679    155.10934   -13222.944   -13135.268 
    6450       0.0645    298.99006     3.948801 -0.019043864 -0.031085807  0.011811402     3.960813    3.9367802    154.55135   -13221.485   -12995.571 
    6500        0.065     295.1944    3.9941793 0.0059659809 -0.040284831  0.011783905    4.0061285    3.9822211    152.58933   -13218.622   -13199.535 
    6550       0.0655    301.09675    4.0687656  0.017044185  0.031471447   0.01172152    4.0806634    4.0568586    155.64032   -13220.759   -13724.271 
    6600        0.066    299.49422    4.0866845  0.048653222  0.032743897  0.011735991    4.0985689    4.0747908    154.81195   -13219.011   -13893.605 
    6650       0.0665    296.30571    4.0446532 -0.028118746 0.0080055916  0.011695649    4.0565109    4.0327861    153.16378   -13216.445   -13415.133 
    6700        0.067    296.54056    4.0651799 -0.063273404 -0.021004045  0.011669431    4.0770183     4.053332    153.28517   -13215.643   -13269.675 
    6750       0.0675    299.62292    4.1487439 0.00096329528 0.0090546496  0.011635642    4.1605228    4.1369554    154.87848   -13216.308    -13862.54 
    6800        0.068    300.76592    4.2125152  0.022589083  0.039134865  0.011626306    4.2243544    4.2006661    155.46931   -13215.952   -14247.464 
    6850       0.0685    297.19081    4.1881423  0.040200363 0.0050059143  0.011606469    4.1999437    4.1763309    153.62129   -13213.161   -14111.162 
    6900        0.069    293.70965    4.1907524 -0.026161498 -0.042362433  0.011609621     4.202447    4.1790476    151.82184   -13210.413   -13740.761 
    6950       0.0695    296.83379    4.2553236 -0.022850469  -0.04664581  0.011536545    4.2670532    4.2435836    153.43675   -13211.066   -13952.758 
    7000         0.07    293.12082    4.2955394 0.0048265206 -0.018776341  0.011580388    4.3072495    4.2838187    151.51747   -13208.187   -14271.965 
    7050       0.0705    299.38054    4.3539296  0.064434522  0.065838811  0.011574388    4.3656648    4.3421838    154.75319   -13210.447   -14947.343 
    7100        0.071    297.85241    4.3448864 0.0095572497 -0.0098249402  0.011533995    4.3566317    4.3331301    153.96328   -13208.695   -14482.062 
    7150       0.0715    303.86253    4.3509156  -0.05353447 -0.017976333  0.011549662     4.362577    4.3392432    157.06998   -13210.815   -14264.683 
    7200        0.072    295.98232    4.3983539   -0.0312985 -0.043527182  0.011547141    4.4100853    4.3866112    152.99661   -13205.761   -14411.761 
    7250       0.0725    297.89532    4.4537006  0.018645762  0.057803581   0.01148354    4.4654017    4.4419881    153.98546   -13205.753     -15100.5 
    7300        0.073    301.10869     4.503961  0.063689148  0.040952628  0.011470947    4.5155737    4.4923367    155.64649    -13206.42   -15362.009 
    7350       0.0735    299.85495      4.45911 -0.022420936  0.011230621  0.011445757    4.4706673     4.447541    154.99842   -13204.776   -14826.399 
    7400        0.074    301.75328    4.4805016 -0.055844521 -0.037213555  0.011404319     4.492059    4.4689324    155.97969   -13204.754   -14624.812 
    7450       0.0745    293.86528    4.5391307 -0.019635878  -0.02936947  0.011442785    4.5507426    4.5275067    151.90229   -13199.674   -14967.084 
    7500        0.075    297.72458    4.6095317   0.06148741  0.045387407  0.011382787    4.6210944    4.5979568    153.89721   -13200.642   -15721.355 
    7550       0.0755    294.81224    4.5855785  0.035857856   0.02624228  0.011332447    4.5970073    4.5741372    152.39178   -13198.124   -15492.262 
    7600        0.076     299.2678    4.5825083 -0.035613704 -0.023050366  0.011330492    4.5940337    4.5709701    154.69491   -13199.404   -15079.481 
    7650       0.0765    300.56477    4.6266113 -0.036374839 -0.054312465  0.011337132    4.6381837    4.6150259    155.36533   -13199.037   -15119.747 
    7700        0.077    293.38134    4.6900429  0.020630041 0.0044870884  0.011310309    4.7014291    4.6786435    151.65213   -13194.288     -15717.2 
    7750       0.0775    299.88211    4.7328676  0.050637808  0.038657453  0.011224501    4.7442684    4.7214534    155.01246   -13196.602   -16073.876 
    7800        0.078    298.85335    4.7377634 -0.0039646833  0.033826895   0.01125634    4.7492318    4.7262813    154.48068   -13195.025   -15892.086 
    7850       0.0785    295.13004    4.7277313 -0.059065915 -0.057127232  0.011233583    4.7390638    4.7163851    152.55606   -13192.041   -15371.794 
    7900        0.079    301.68481    4.8239282  0.018842978 0.00039125702  0.011220194    4.8353491    4.8124932     155.9443   -13194.365   -16143.875 
    7950       0.0795    293.03317    4.8260451 0.0029538265  0.010966169  0.011178232    4.8373791    4.8146968    151.47217   -13188.819   -16133.217 
    8000         0.08    297.51253    4.8404786  0.032933224  0.019904619  0.011211645    4.8518461    4.8290967    153.78759   -13190.067   -16311.055 
    8050       0.0805    299.34572    4.8435809    -0.028209 -0.0010254104  0.011170258    4.8549594    4.8321878    154.73519   -13189.938   -16047.822 
    8100        0.081    296.56277    4.8506051  -0.05147179 -0.017011597  0.011106533    4.8618254    4.8393699    153.29665    -13187.42   -15940.406 
    8150       0.0815    297.38375    4.9434457 -0.016137884  0.029844402  0.011123311    4.9547502    4.9321261    153.72103   -13186.764   -16523.841 
    8200        0.082    300.23745    4.9801832  0.057686651  0.055092088   0.01112066    4.9914641     4.968887    155.19614   -13187.146    -16976.54 
    8250       0.0825    295.74832    4.9761592 0.0037727928 -0.018276124  0.011109841    4.9873985    4.9649044    152.87565   -13183.722   -16538.853 
    8300        0.083    296.28542    4.9888205 -0.013374399 -0.072870907  0.011093759    5.0001031     4.977522    153.15329   -13182.887   -16341.917 
    8350       0.0835    301.85052    5.0460237  0.012419083  0.018921334  0.011113611    5.0572651    5.0347665    156.02995   -13184.652   -16924.547 
    8400        0.084    301.63555    5.0876182  0.044684349 0.0087652768  0.011093626      5.09895    5.0762701    155.91883   -13183.422   -17136.893 
    8450       0.0845    294.43643    5.0713612  0.030864398 -0.051317939  0.011012637    5.0825345    5.0601714    152.19752   -13178.587   -16836.359 
    8500        0.085    294.96225     5.105405 -0.036548491  0.004049053  0.011005913     5.116532    5.0942614    152.46933    -13177.74   -16909.685 
    8550       0.0855    299.59368     5.145165  0.013842498  0.020236702  0.010961158    5.1563509    5.1339623    154.86336   -13178.998   -17264.147 
    8600        0.086    293.09593    5.1622775 0.0081122547 -0.0074349879  0.010973584    5.1733578    5.1511802     151.5046   -13174.502   -17209.849 
    8650       0.0865    298.64817    5.1895544  -0.05194904  0.016836082  0.010982406    5.2006729    5.1784189    154.37462   -13176.225   -17181.472 
    8700        0.087     302.1053    5.2608715 -0.0072078253  0.020930859  0.010956416    5.2720023    5.2497233    156.16165   -13176.864   -17581.982 
    8750       0.0875    302.82858    5.2617132  0.047815005  0.054517836  0.010915293    5.2729059    5.2505028    156.53552   -13176.076   -17880.153 
    8800        0.088    296.71618    5.2534425 -0.0074848452 -0.026440066  0.010837936    5.2643816    5.2424856    153.37595   -13171.766   -17398.392 
    8850       0.0885    299.53856     5.307069 -0.010929561 -0.016449183  0.010906709    5.3180971    5.2960229    154.83487   -13172.051   -17598.967 
    8900        0.089    297.55265    5.3548596  0.012781642 0.0011657492  0.010906455    5.3660174    5.3436834    153.80833   -13169.848   -17896.023 
    8950       0.0895    297.27523    5.3720845  0.017018832  0.015903064  0.010872752     5.383181    5.3609696    153.66493   -13168.525   -18016.688 
    9000         0.09    299.90614    5.4014763  0.033757191 0.0092297321  0.010895933     5.412417    5.3905172    155.02488   -13168.705   -18148.211 
    9050       0.0905    298.92368     5.422407 -0.038757999 -0.0043154216  0.010839784    5.4333818    5.4114134    154.51704   -13167.001   -17931.112 
    9100        0.091    293.90699    5.4295749 -0.0042035072 -0.033632299  0.010858262    5.4406836    5.4184471    151.92385   -13163.215   -17972.464 
    9150       0.0915    296.22469     5.490978 0.0092765196  0.015282525  0.010830554    5.5020391    5.4798977     153.1219   -13163.211   -18385.124 
    9200        0.092    299.64738    5.5196983 0.0086161751  0.049191573  0.010777329    5.5306427    5.5087343    154.89112    -13163.77   -18591.687 
    9250       0.0925    295.67135    5.5300831 0.00045958366 -0.019629857  0.010800038    5.5410011    5.5191454    152.83587   -13160.508   -18369.709 
    9300        0.093    296.57949    5.5280756 0.0029599937 -0.026153327  0.010788614    5.5390205    5.5171109    153.30529   -13159.759   -18349.608 
    9350       0.0935    292.77563    5.5710406 -0.053139108 -0.019589057  0.010733262    5.5819627    5.5600985    151.33904   -13156.573   -18327.708 
    9400        0.094    296.72713     5.598976  0.019434877  0.016572769  0.010719623    5.6099226    5.5880091    153.38161    -13157.39   -18783.279 
    9450       0.0945    296.65296    5.6509339  0.022312249  0.014278066  0.010710878     5.661758    5.6400893    153.34328   -13156.119   -18958.414 
    9500        0.095    299.52712    5.6706114  0.006173153 -0.0056317684  0.010674429    5.6813922      5.65981    154.82896   -13156.367   -18903.843 
    9550       0.0955    299.17592     5.707818 -0.0077426389   -0.0333494  0.010755335    5.7187882    5.6968267    154.64742   -13154.937   -18889.086 
    9600        0.096    293.59865    5.7019515 0.0034083439 0.0010924139  0.010657779    5.7128294    5.6910525    151.76447   -13150.806   -19021.508 
    9650       0.0965    296.67809    5.7379677  0.012856905   0.04142515   0.01065038    5.7488807    5.7270332    153.35626   -13151.143   -19307.499 
    9700        0.097    301.96655     5.769873 0.0025375481  0.012474945  0.010690921    5.7806998    5.7590247    156.08993   -13152.615   -19282.952 
    9750       0.0975    298.07657    5.7841403 -0.032839459 -0.018966318  0.010663645    5.7949316    5.7733272    154.07916   -13149.336   -19107.782 
    9800        0.098    299.52601    5.8441347 0.0095621706 0.0062566869  0.010658871    5.8549844    5.8332629    154.82838   -13148.813   -19533.179 
    9850       0.0985 