LAMMPS (28 Jun 2014)
Lattice spacing in x,y,z = 4.05 4.05 4.05
Created orthogonal box = (0 0 0) to (40.5 40.5 40.5)
  1 by 2 by 2 MPI processor grid
Lattice spacing in x,y,z = 4.05 4.05 4.05
Created 4000 atoms
Setting up run ...
Memory usage per processor = 3.04301 Mbytes
Step Lx Ly Lz Press Pxx Pyy Pzz PotEng Temp 
       0         40.5         40.5         40.5    2496.3748    2447.2417    2534.9057    2506.9771       -14520          300 
      50    40.558056    40.558056    40.558056    633.97736    563.99754    672.40955    665.52498   -14418.938    103.65354 
     100    40.624454    40.624454    40.624454   -4369.6623   -4363.4221   -4393.0357   -4352.5291   -14453.812    172.40409 
     150    40.554192    40.554192    40.554192    882.47496    847.36512    961.55232    838.50742   -14429.089    124.67521 
     200    40.509954    40.509954    40.509954    3399.3141    3495.4256    3337.4555    3365.0614   -14435.095    137.76356 
     250    40.567574    40.567574    40.567574   -327.95663   -407.70075    -273.0054   -303.16373   -14439.311    146.51534 
     300    40.601957    40.601957    40.601957    -2388.913   -2334.2317   -2409.3497   -2423.1575   -14439.996    149.11347 
     350    40.556169    40.556169    40.556169    162.12328    86.513758    225.76742    174.08867    -14447.34     163.9341 
     400    40.528407    40.528407    40.528407    2154.3933    2214.9865    2217.5587    2030.6347   -14440.045     150.9189 
     450    40.568877    40.568877    40.568877   -547.35321   -587.56861   -582.19846   -472.29256   -14442.821    157.03342 
     500    40.587852    40.587852    40.587852   -1579.4304   -1620.4324   -1450.3819    -1667.477   -14439.671    151.99211 
     550    40.555408    40.555408    40.555408    408.91813    419.81225    403.27848    403.66367   -14440.623    154.70571 
     600    40.540596    40.540596    40.540596    1329.3833    1354.9161     1378.896    1254.3377   -14442.102    158.67459 
     650     40.56895     40.56895     40.56895   -338.87008   -364.11778   -310.77845   -341.71402   -14437.724    151.17396 
     700    40.581825    40.581825    40.581825    -1156.618   -1292.9663   -1055.8228   -1121.0648   -14440.201    157.07858 
     750    40.557559    40.557559    40.557559    295.52703    260.49299    278.21629    347.87183   -14440.993    159.62746 
     800    40.546793    40.546793    40.546793    1141.3192    1010.7409    1262.6789    1150.5377   -14436.704     152.4806 
     850    40.569895    40.569895    40.569895   -482.31202   -484.22576   -427.20354   -535.50675   -14442.019    163.79898 
     900    40.578325    40.578325    40.578325   -843.14384   -877.35837   -782.30279   -869.77035   -14440.842    162.64804 
     950    40.560808    40.560808    40.560808    239.28896    225.45749    292.86164    199.54776   -14435.641    153.64403 
    1000    40.552659    40.552659    40.552659    813.37646    806.58426    787.05425    846.49088    -14441.03     165.2218 
    1050    40.569102    40.569102    40.569102   -217.57826   -281.32873   -110.71126   -260.69481   -14432.764    150.29546 
    1100    40.576209    40.576209    40.576209   -685.61195   -771.27847   -587.78668    -697.7707    -14440.71    166.80852 
    1150    40.561472    40.561472    40.561472    332.89463    274.57598    438.63548    285.47242   -14433.719    154.38828 
    1200    40.557377    40.557377    40.557377    531.88888    473.75085    571.28579    550.62999   -14439.705    167.10843 
    1250    40.570367    40.570367    40.570367   -301.27179    -363.2466   -232.96553   -307.60324   -14436.018    161.07989 
    1300    40.573461    40.573461    40.573461   -461.76434   -485.35668   -342.39052   -557.54584     -14437.3    164.68796 
    1350    40.562147    40.562147    40.562147    235.71131     80.83254    306.63378    319.66762   -14437.483    166.16937 
    1400    40.561161    40.561161    40.561161    463.05449    405.80509    550.63424    432.72414   -14434.232    161.00677 
    1450    40.572829    40.572829    40.572829   -416.22917   -454.45007    -419.6629   -374.57453   -14437.125    167.73806 
    1500    40.571185    40.571185    40.571185   -157.04182   -205.96929   -81.403101   -183.75308   -14433.328    161.53569 
    1550    40.563901    40.563901    40.563901    149.92636     24.49189    166.88443    258.40276    -14437.92    171.55213 
    1600     40.56416     40.56416     40.56416    274.11043    255.94209    351.75609     214.6331   -14432.461    162.12437 
    1650    40.572534    40.572534    40.572534   -259.24913   -308.80421   -212.62827   -256.31492   -14435.795    169.71284 
    1700    40.571801    40.571801    40.571801   -237.78247   -292.01378   -238.49318   -182.84044   -14431.682    162.90464 
    1750    40.564357    40.564357    40.564357      296.203    292.85817    230.89835    364.85249   -14436.213    172.79303 
    1800    40.565687    40.565687    40.565687    195.77267    92.560497    243.90493    250.85259   -14431.351     164.5468 
    1850    40.572499    40.572499    40.572499   -109.28867   -155.19289   -69.224713   -103.44841    -14431.87    166.68104 
    1900    40.573545    40.573545    40.573545   -275.24316   -382.31626   -216.67139   -226.74185   -14435.273    174.42346 
    1950    40.566617    40.566617    40.566617    192.32836    243.38789    225.93021    107.66696   -14430.369    166.06179 
    2000    40.566255    40.566255    40.566255    176.13825    111.81397    216.39701    200.20378   -14436.446    178.97695 
    2050    40.572759    40.572759    40.572759   -99.580658    45.460788   -130.28853   -213.91423   -14429.973    167.58611 
    2100     40.57462     40.57462     40.57462    -215.8822   -406.11903   -145.48836   -96.039207   -14432.518    173.67598 
    2150    40.568456    40.568456    40.568456    205.07847    133.45167    216.33571    265.44803   -14428.165    166.38831 
    2200    40.567905    40.567905    40.567905    200.63723    250.53519    109.82453    241.55197   -14431.719    174.40888 
    2250    40.573014    40.573014    40.573014   -180.57965    -44.38702   -182.82223   -314.52971   -14432.232    176.56443 
    2300    40.573752    40.573752    40.573752   -127.05378   -150.17456    -117.6387   -113.34808   -14430.822    174.97123 
    2350    40.570335    40.570335    40.570335    21.358196    31.531273    42.205056   -9.6617427   -14431.976    178.36573 
    2400    40.569453    40.569453    40.569453    174.78884    196.02674    117.29318    211.04661   -14429.425    174.57049 
    2450    40.573325    40.573325    40.573325   -120.73464   -295.10812   -11.878993   -55.216806   -14428.669    174.26951 
    2500    40.573533    40.573533    40.573533    -56.73132    -184.3536      3.58819    10.571446   -14429.781    177.55504 
    2550    40.571918    40.571918    40.571918    13.380939   -19.722877   -53.352344    113.21804   -14430.879    180.84405 
    2600    40.571496    40.571496    40.571496     224.9849    150.69093    283.07519    241.18859   -14425.416    171.42927 
    2650    40.575797    40.575797    40.575797   -243.15672   -106.18721   -272.47392   -350.80902   -14430.633    182.66332 
    2700    40.574241    40.574241    40.574241   -75.621962   -154.74976   -19.399831   -52.716298    -14427.03    176.84612 
    2750    40.571357    40.571357    40.571357     154.1503    124.13265    99.613055     238.7052   -14429.414    182.60535 
    2800    40.572787    40.572787    40.572787     78.31757    -57.61868    154.69719     137.8742   -14424.865    174.97199 
    2850    40.575737    40.575737    40.575737    -140.8428   -178.03783   -137.93748    -106.5531   -14430.095    186.23354 
    2900    40.575685    40.575685    40.575685     -24.6119   -108.96309    53.074897   -17.947506     -14427.1    181.58418 
    2950    40.573845    40.573845    40.573845    91.648379    142.71711   -19.753628    151.98165   -14424.394    177.52122 
    3000    40.574428    40.574428    40.574428    12.751216   -50.413078    85.382685    3.2840417    -14429.31    188.17935 
    3050    40.576161    40.576161    40.576161   -130.49072   -164.13607    -142.9537   -84.382404   -14425.108    181.18947 
    3100    40.575341    40.575341    40.575341    -36.97178   -150.75121   -10.368124    50.203997   -14428.165    188.26133 
    3150    40.575061    40.575061    40.575061    58.116024   -9.0199346    68.065724    115.30228   -14424.806    182.89863 
    3200    40.576989    40.576989    40.576989   -88.143558   -157.43121   -41.867609   -65.131851   -14427.304    188.90918 
    3250     40.57826     40.57826     40.57826   -18.967573   -57.390625   -64.742345    65.230251   -14424.185    184.01291 
    3300    40.577987    40.577987    40.577987   -72.652489    -237.8311     29.10234    -9.228711   -14425.059    186.85974 
    3350    40.576022    40.576022    40.576022    155.71265    133.91033    162.10909    171.11854   -14422.478    183.02216 
    3400    40.578048    40.578048    40.578048   -13.778485   -199.04555     37.00799     120.7021   -14425.925    190.84018 
    3450     40.58005     40.58005     40.58005   -157.57997   -249.70509   -143.96655   -79.068282   -14424.057    188.37315 
    3500    40.578675    40.578675    40.578675   -20.886003    -129.2602    7.9443183    58.657873   -14425.324     191.9752 
    3550    40.576764    40.576764    40.576764    82.197818    56.550201    131.12023    58.923021   -14422.549    187.76111 
    3600    40.578501    40.578501    40.578501    12.048007   -6.2781723   -45.510309    87.932503   -14422.982    189.73505 
    3650    40.580697    40.580697    40.580697   -85.313948   -28.529531    -158.6109   -68.801407   -14422.197    189.36937 
    3700    40.579616    40.579616    40.579616    5.7381591   -37.541176    31.841766    22.913887   -14422.676    191.45302 
    3750    40.578754    40.578754    40.578754    66.435218    94.911238    25.936227    78.458189   -14422.757    192.76455 
    3800     40.58039     40.58039     40.58039   -75.268225   -161.34448    19.519564   -83.979755   -14422.874    194.13855 
    3850    40.581974    40.581974    40.581974   -30.985991   -55.252926   -82.052561    44.347513    -14420.39     190.4611 
    3900    40.581241    40.581241    40.581241   -44.912302    92.510323   -137.87786   -89.369374   -14420.358    191.55982 
    3950    40.579115    40.579115    40.579115    139.44013    45.576841    121.85665     250.8869   -14420.489    192.95657 
    4000    40.581011    40.581011    40.581011    16.675274   -30.418856    7.0787205    73.365957   -14420.647     194.4099 
    4050    40.583202    40.583202    40.583202   -103.12263   -156.82635   -82.931163   -69.610379    -14419.27    192.89441 
    4100    40.581898    40.581898    40.581898     63.06673    43.046837    15.646939    130.50642   -14420.978    197.35433 
    4150    40.581065    40.581065    40.581065   -27.193821   -140.85071    1.5729455    57.696305   -14419.754    196.11523 
    4200    40.581648    40.581648    40.581648    86.002302    50.815197   -30.093055    237.28476     -14417.9    193.66563 
    4250    40.583409    40.583409    40.583409   -21.177914   -43.124635   -33.243278    12.834172   -14418.356    195.69993 
    4300     40.58351     40.58351     40.58351   -124.30296   -158.51338   -99.534467   -114.86105   -14420.992    201.94153 
    4350    40.581596    40.581596    40.581596    136.14532     73.82266    189.35848    145.25483   -14416.889    195.14091 
    4400    40.583212    40.583212    40.583212   -37.707575    -183.5819    69.460137   0.99903955   -14419.898     202.1075 
    4450    40.584673    40.584673    40.584673   -85.997986   -49.548844   -163.24884   -45.196269   -14417.887    199.35273 
    4500    40.584044    40.584044    40.584044   -26.128969    69.980653   -108.61646     -39.7511   -14417.951    200.60978 
    4550    40.582789    40.582789    40.582789   -38.868576   -111.81018   -138.79346    133.99791    -14418.95    203.68654 
    4600     40.58319     40.58319     40.58319     94.89006     44.12585    230.38754    10.156793   -14417.041    201.11998 
    4650     40.58655     40.58655     40.58655   -71.750304   -29.427618   -87.137863   -98.685431   -14416.122    200.48438 
    4700    40.586351    40.586351    40.586351   -85.948639   -66.145706   -107.81688   -83.883334   -14415.906    201.20121 
    4750    40.583425    40.583425    40.583425    142.81157    129.52677    254.75361    44.154334   -14415.737    202.00892 
    4800    40.584856    40.584856    40.584856    7.3406604    112.45423    -160.0341    69.601848   -14416.598    204.80248 
    4850    40.587469    40.587469    40.587469   -86.506887   -202.35753   -61.991869    4.8287405   -14416.378    205.50978 
    4900    40.586967    40.586967    40.586967   -158.26078   -45.901673   -303.56147   -125.31921   -14416.689    207.24589 
    4950    40.583662    40.583662    40.583662    233.07954    135.50982    319.13178    244.59703   -14413.655    202.49945 
    5000    40.586888    40.586888    40.586888    6.7697976    111.09549    31.737839   -122.52394   -14414.163    204.60482 
    5050    40.590124    40.590124    40.590124    -223.1686   -248.91963   -286.02698   -134.55919   -14415.737    208.77611 
    5100    40.587151    40.587151    40.587151    55.161165     100.8386   -3.6196429    68.264536   -14411.916    202.50845 
    5150    40.584738    40.584738    40.584738     200.8127    102.70788     173.6682    326.06202   -14413.247    206.21234 
    5200    40.587853    40.587853    40.587853   -42.554595    18.472557   -28.139334   -117.99701   -14416.317    213.27261 
    5250    40.590879    40.590879    40.590879    -123.8475   -202.62217   -128.15796   -40.762375   -14411.562    205.19174 
    5300    40.588654    40.588654    40.588654   -55.508735   -77.874737   -5.4063418   -83.245125   -14414.274    211.56198 
    5350    40.586162    40.586162    40.586162    142.36188    201.30043    119.28615    106.49906   -14413.476    211.13092 
    5400    40.589399    40.589399    40.589399    88.064484    83.741092    165.83978    14.612584    -14410.54    206.56249 
    5450    40.592644    40.592644    40.592644   -208.05768    -372.1119   -31.424273   -220.63685   -14411.174    208.90501 
    5500    40.588943    40.588943    40.588943    29.119215   -25.541329      76.5517    36.347275   -14411.648    210.93661 
    5550    40.586167    40.586167    40.586167    203.02567    250.01458    253.50271    105.55972   -14412.538    213.77569 
    5600    40.590723    40.590723    40.590723   -142.80302   -172.96771   -174.65202   -80.789331     -14413.9    217.51097 
    5650    40.593166    40.593166    40.593166   -177.87661   -154.89487   -166.35946   -212.37551   -14409.677    210.44651 
    5700    40.589822    40.589822    40.589822    44.580711    26.362011     39.44529    67.934831   -14410.988     214.0964 
    5750    40.588451    40.588451    40.588451    229.22471    96.500247    218.88998    372.28391   -14410.943    215.11083 
    5800    40.593135    40.593135    40.593135   -48.834885   -14.725563    65.558062   -197.33716   -14408.401     211.2984 
    5850      40.5942      40.5942      40.5942   -137.38433    -195.7802   -116.31708   -100.05571   -14408.326    212.25668 
    5900    40.589891    40.589891    40.589891    17.391705   -110.22678    208.38863   -45.986742   -14412.153    220.75439 
    5950    40.588516    40.588516    40.588516    222.54297    328.00928    230.48123    109.13838   -14408.414    214.61605 
    6000    40.594217    40.594217    40.594217    -130.8454    -230.1789   -130.53377   -31.823524   -14408.276    215.44438 
    6050    40.594927    40.594927    40.594927   -163.55297   -206.44565   -132.56277   -151.65048   -14409.349    218.62158 
    6100    40.590082    40.590082    40.590082    177.80157    160.56453    113.04855    259.79164     -14407.5    216.13303 
    6150    40.590655    40.590655    40.590655    123.00282   -15.033742    195.53675    188.50546   -14409.526    221.14563 
    6200    40.595669    40.595669    40.595669   -171.78725   -257.96277   -17.550837   -239.84814   -14405.808    215.02826 
    6250    40.595353    40.595353    40.595353   -94.189488   -179.79027    -73.49742   -29.280769   -14408.508    221.34244 
    6300     40.59213     40.59213     40.59213    145.75723     136.9417    258.69218    41.637823    -14406.98    219.47902 
    6350    40.592858    40.592858    40.592858    140.59642    56.132802    110.83189    254.82457   -14405.222    217.15777 
    6400    40.595601    40.595601    40.595601      -144.75   -314.39003   -39.836551   -80.023425   -14407.748    223.12389 
    6450    40.593764    40.593764    40.593764    50.722082    -18.60589   -6.4267307    177.19887   -14405.012     218.9083 
    6500    40.593175    40.593175    40.593175    48.086101   -91.292184    80.717655    154.83283   -14407.224    224.25018 
    6550    40.595529    40.595529    40.595529   -112.61663   -110.51911   -201.41731   -25.913456   -14407.188    225.25094 
    6600    40.596471    40.596471    40.596471   -54.317608   -137.42485    -34.61807    9.0900939   -14406.644    225.28253 
    6650    40.595939    40.595939    40.595939     35.27491    -41.35333    192.42925   -45.251193   -14404.649    222.48519 
    6700    40.595499    40.595499    40.595499    59.119336     11.75493   -67.088135    232.69121   -14404.696    223.64939 
    6750    40.596373    40.596373    40.596373    2.5723773   -162.45394    38.337105    131.83397    -14404.42    224.17995 
    6800    40.596852    40.596852    40.596852    5.0602302   -112.03153     50.41697    76.795246   -14402.668    221.84736 
    6850    40.596294    40.596294    40.596294   -7.4711817   -231.63298    132.48381    76.735632   -14405.921    229.20492 
    6900     40.59736     40.59736     40.59736    -6.850421   -154.50877   -9.4343612    143.39187   -14403.517    225.60067 
    6950    40.598541    40.598541    40.598541    20.165252   -23.027989    48.927764    34.595983    -14403.67    226.96678 
    7000    40.598534    40.598534    40.598534   -92.296856   -78.098634   -157.75133   -41.040599   -14403.035    226.77566 
    7050    40.597551    40.597551    40.597551    40.671916   -126.48353    203.76004    44.739239   -14404.109    229.89804 
    7100    40.598699    40.598699    40.598699    -96.83077   -244.22889    1.7733637   -48.036781   -14404.385    231.48058 
    7150    40.599068    40.599068    40.599068   -1.5056137   -94.697075   -10.205711    100.38595   -14402.388    228.66792 
    7200    40.598852    40.598852    40.598852    8.0153101   -87.239115    79.269245      32.0158   -14402.867     230.6385 
    7250    40.599043    40.599043    40.599043    57.342931    7.5315604    27.964017    136.53322   -14401.679    229.37955 
    7300    40.600464    40.600464    40.600464   -17.555032   -102.61667    -33.16815    83.119718    -14401.59    230.23601 
    7350    40.600904    40.600904    40.600904    -103.9439   -145.73537   -139.91538   -26.180952   -14402.259    232.56256 
    7400     40.59934     40.59934     40.59934    130.95396   -44.861732    240.76606    196.95754   -14398.245    225.82594 
    7450    40.600501    40.600501    40.600501   -22.913551   -45.537008    56.269519   -79.473163   -14402.961    235.98574 
    7500    40.600879    40.600879    40.600879   -55.019639   -166.63508   -76.502844    78.079012   -14400.053    231.38727 
    7550    40.600649    40.600649    40.600649   -3.2388681    33.739047   -24.202674   -19.252977   -14400.884    234.00759 
    7600     40.60153     40.60153     40.60153   -29.352715   -158.45769   -12.730077    83.129619   -14402.136    237.45237 
    7650    40.602874    40.602874    40.602874   -39.410528   -39.877361     -70.0792    -8.275022   -14400.115    234.55803 
    7700    40.602748    40.602748    40.602748   -69.845086     -222.745   -49.937931    63.147672   -14400.152    235.64663 
    7750     40.60102     40.60102     40.60102    208.28455     102.6899    247.10765    275.05611   -14397.847    232.19842 
    7800    40.603967    40.603967    40.603967   -43.045992   -90.178327    30.249548   -69.209198   -14399.509    236.41907 
    7850    40.604766    40.604766    40.604766    23.610092    48.578355    14.518928    7.7329914   -14397.375     233.2928 
    7900     40.60386     40.60386     40.60386   -89.215666   -119.05233   -131.21702   -17.377654   -14399.238    237.90096 
    7950    40.601728    40.601728    40.601728    138.87525    78.409714    215.72689    122.48914   -14397.844    236.20462 
    8000    40.604067    40.604067    40.604067    15.106689   -247.92247    50.322655    242.91988   -14398.157    237.79524 
    8050    40.605223    40.605223    40.605223   -233.82667   -127.05709   -279.74256   -294.68035   -14400.248    242.85518 
    8100    40.601213    40.601213    40.601213    273.76154     107.0711    257.49351    456.72001   -14395.526    234.69883 
    8150    40.604318    40.604318    40.604318   -47.242827   -14.125101   0.78605811   -128.38944   -14399.215    242.81962 
    8200    40.606831    40.606831    40.606831   -73.969277   -224.53131    61.016622   -58.393144   -14395.501    236.61876 
    8250     40.60606     40.60606     40.60606    -52.95989   -81.634354    4.8446503   -82.089966   -14396.442    239.41874 
    8300    40.602683    40.602683    40.602683     160.7716   -55.395265    153.85779    383.85228   -14395.769    239.09495 
    8350    40.603627    40.603627    40.603627    71.559737  -0.11038641     37.10889    177.68071   -14396.654     241.7812 
    8400    40.606991    40.606991    40.606991   -185.97419   -334.12103   -161.44163   -62.359903   -14397.303    244.00955 
    8450    40.605597    40.605597    40.605597   -3.3759433    64.926365   -4.9895127   -70.064682   -14394.549    239.64531 
    8500     40.60338     40.60338     40.60338    92.579428     23.43037    183.45008     70.85784   -14395.948    243.32289 
    8550    40.605148    40.605148    40.605148    134.07044    134.39478    159.86458    107.95197   -14393.849    240.20841 
    8600    40.608854    40.608854    40.608854   -227.51036   -432.30784   -276.26688    26.043648   -14396.756    246.80449 
    8650    40.606611    40.606611    40.606611   -11.837651   -34.088946    107.85527   -109.27927   -14395.307    244.94637 
    8700    40.605814    40.605814    40.605814    64.256836   -43.573113    165.40264    70.940982   -14395.378    246.03491 
    8750    40.607277    40.607277    40.607277   -62.435063   -10.242051   -66.020739    -111.0424   -14394.773    245.81634 
    8800     40.60759     40.60759     40.60759    18.094376   -36.543044    188.74126   -97.915084   -14393.643    244.56553 
    8850    40.607978    40.607978    40.607978   -106.78452   -129.93353   -124.72438   -65.695646   -14395.554    249.20348 
    8900    40.607829    40.607829    40.607829   -52.517294   -99.048669    63.780851   -122.28406   -14395.432     249.9042 
    8950    40.607634    40.607634    40.607634    140.07489     22.35039    242.48716    155.38711   -14391.268    242.78499 
    9000    40.609229    40.609229    40.609229   -38.771232   -57.001175    -18.36805   -40.944472   -14392.435    245.97383 
    9050     40.60925     40.60925     40.60925   -8.4004906   -207.73708      181.008    1.5276075   -14392.252    246.54269 
    9100    40.607799    40.607799    40.607799   -57.240687   -186.68937    86.719222   -71.751912   -14393.982    250.81221 
    9150    40.607535    40.607535    40.607535    40.720698   -83.312957    149.74641    55.728641   -14393.144    250.10511 
    9200    40.610191    40.610191    40.610191   -137.99894   -306.71116   -28.375763   -78.909886   -14394.635    253.91337 
    9250    40.610216    40.610216    40.610216    7.8752622   -202.51359    112.48832    113.65106   -14391.725    249.19215 
    9300    40.609108    40.609108    40.609108   -37.644149    16.906226   -139.84821     10.00954   -14391.795    250.24153 
    9350    40.607755    40.607755    40.607755    180.47551    42.665132      226.617    272.14438   -14391.332    250.24181 
    9400    40.611477    40.611477    40.611477   -131.63849    -244.3667   -44.718485   -105.83029   -14392.806    253.98761 
    9450    40.612676    40.612676    40.612676   -148.36807   -358.36409   -108.74479     22.00465   -14390.346    250.12692 
    9500    40.609694    40.609694    40.609694    18.947223    -12.01382    87.566907   -18.711417   -14392.678    255.54073 
    9550    40.608932    40.608932    40.608932    106.91091   -92.359238    173.07321    240.01877   -14391.121     253.4188 
    9600    40.612422    40.612422    40.612422   -58.454764   -93.971432   -91.915759    10.522898   -14390.718    253.52917 
    9650    40.613895    40.613895    40.613895   -197.90318   -218.07853    -304.6342   -70.996795     -14390.1    253.20762 
    9700    40.609957    40.609957    40.609957    249.40519    71.977583    328.72102    347.51697   -14387.704    249.45374 
    9750    40.610121    40.610121    40.610121    27.653506   -137.63073    105.76223    114.82902   -14390.261    255.27608 
    9800    40.612968    40.612968    40.612968    12.714746    150.04749   -68.797545   -43.105705   -14387.579    250.95106 
    9850    40.613784    40.613784    40.613784   -225.72909   -303.35163   -220.11128   -153.72437   -14390.881    258.21101 
    9900    40.609652    40.609652    40.609652    204.06538    143.28406    102.45897     366.4531    -14387.35    252.23474 
    9950    40.611704    40.611704    40.611704     81.24229    1.0097832    20.706706    222.01038   -14389.112    256.50963 
   10000    40.615128    40.615128    40.615128   -191.86092   -342.80372    -193.8208   -38.958227   -14388.301    255.80193 
   10050       40.613       40.613       40.613   -37.790804   -14.371708   -118.48773    19.487023   -14390.099    260.13612 
   10100    40.610572    40.610572    40.610572    204.08203    106.20097    174.05555    331.98956   -14387.054    255.08615 
   10150    40.613465    40.613465    40.613465   -22.525145    -74.61444   -27.183249    34.222253   -14386.924    255.67577 
   10200    40.615793    40.615793    40.615793   -117.03424   -280.04806   -57.627661   -13.427001    -14388.84     260.2139 
   10250    40.614126    40.614126    40.614126    3.0258433    123.76759   -324.66959    209.97953   -14386.786    257.07847 
   10300    40.612361    40.612361    40.612361    125.14978    3.3180359    121.04642     251.0849   -14386.596     257.5434 
   10350    40.614628    40.614628    40.614628   -84.244978    65.415934   -82.275576   -235.87529   -14388.121    261.32227 
   10400    40.615472    40.615472    40.615472   -115.07356   -310.69037   -63.389595    28.859286    -14388.25    262.39909 
   10450    40.613695    40.613695    40.613695     102.0187    217.97756    108.45061    -20.37208    -14385.47    257.83847 
   10500    40.614459    40.614459    40.614459   -50.461676   -54.321621   -162.04519    64.981784   -14387.305    262.19833 
   10550    40.615027    40.615027    40.615027   -42.858551   -152.98154   -29.024557    53.430446   -14386.713    261.86704 
   10600    40.614827    40.614827    40.614827    130.67565    384.45402    170.02389   -162.45096   -14384.121    257.66622 
   10650     40.61598     40.61598     40.61598   -122.42219   -193.49297   -203.58458    29.810969   -14385.577      261.281 
   10700    40.614421    40.614421    40.614421    99.663156    143.84053    314.37456   -159.22562    -14386.42    263.71193 
   10750    40.615795    40.615795    40.615795   -52.590809    25.318648   -94.117614   -88.973462   -14385.687    263.08544 
   10800    40.617168    40.617168    40.617168   -217.93059   -219.76079   -285.24733   -148.78365   -14387.652    267.67646 
   10850    40.614351    40.614351    40.614351    175.25489     331.7493   -172.53234    366.54772   -14384.057    261.51101 
   10900     40.61611     40.61611     40.61611    63.886325   -24.504982   -9.2818215    225.44578   -14384.208     262.5815 
   10950    40.619312    40.619312    40.619312   -202.21156   -133.76582   -304.18852   -168.68034   -14384.102    263.16288 
   11000    40.615965    40.615965    40.615965    68.385354    27.442558    49.429864    128.28364   -14383.747    263.23956 
   11050    40.614934    40.614934    40.614934    114.17113     310.9815   -31.260411    62.792289   -14384.657    265.77205 
   11100    40.618891    40.618891    40.618891   -89.648484    53.659024   -248.44049   -74.163989   -14384.371    265.98335 
   11150    40.619814    40.619814    40.619814   -116.46289   -193.86579   -119.97255   -35.550333   -14382.862    263.82589 
   11200    40.616737    40.616737    40.616737    69.300018   -68.830964    88.314493    188.41652    -14383.54    265.89874 
   11250    40.615803    40.615803    40.615803    162.18032    159.00111    55.503223    272.03664   -14383.309    266.20292 
   11300    40.619217    40.619217    40.619217    25.142138   -138.78034    151.10024    63.106519   -14382.087    264.58226 
   11350    40.622232    40.622232    40.622232   -207.57972   -21.918553   -397.03045   -203.79017   -14382.535      266.193 
   11400    40.618351    40.618351    40.618351    23.076148   -65.800977    161.82261   -26.793192   -14381.688    265.28799 
   11450    40.615321    40.615321    40.615321    186.68674    305.34289    125.37981    129.33751   -14383.967    270.44016 
   11500    40.619245    40.619245    40.619245   -77.392591    -173.1627    56.108343   -115.12341    -14382.64    268.60531 
   11550    40.622097    40.622097    40.622097   -144.19845   -66.357957   -91.420554   -274.81685   -14382.144    268.37748 
   11600    40.619216    40.619216    40.619216    98.468646    56.945845     26.98546    211.47463   -14381.374    267.60883 
   11650    40.617473    40.617473    40.617473    150.91928    206.49081    184.19084    62.076203   -14381.244    268.07488 
   11700    40.620265    40.620265    40.620265    60.173155   -136.90422    95.049955    222.37373   -14380.751    267.82606 
   11750    40.622598    40.622598    40.622598   -161.30404    5.4309475   -255.10802   -234.23506    -14379.91     266.9088 
   11800    40.619353    40.619353    40.619353    63.569791    44.349764    80.033254    66.326356   -14382.051    271.74882 
   11850    40.619175    40.619175    40.619175    90.180512    97.710133    -29.39622    202.22762   -14381.021    270.46001 
   11900    40.622891    40.622891    40.622891   -94.064941   -68.293914   -121.70853   -92.192384   -14380.999    271.11256 
   11950    40.623347    40.623347    40.623347   -168.29529   -208.98437    -371.4336    75.532109   -14381.813    273.38287 
   12000    40.619704    40.619704    40.619704     115.4428    68.433043    85.475531    192.41981   -14380.763     272.0386 
   12050     40.61988     40.61988     40.61988    107.56492    221.84011    14.940445    85.914197    -14379.76    270.78167 
   12100    40.622439    40.622439    40.622439   -151.11656   -192.44178   -166.92201   -93.985895   -14381.687    275.18479 
   12150    40.621693    40.621693    40.621693    114.89817    172.71071    46.085053    125.89875   -14378.053    268.82107 
   12200    40.622563    40.622563    40.622563    -64.41432   -241.59872    47.570835   0.78492706   -14380.378    273.98993 
   12250    40.622196    40.622196    40.622196    58.658798    90.441532   -65.263407    150.79827   -14377.967    269.98668 
   12300    40.622032    40.622032    40.622032   -59.490271   -120.74745    19.801571   -77.524929   -14379.845    274.28388 
   12350    40.620532    40.620532    40.620532    102.97671   -112.25214    305.23384    115.94843   -14379.921     275.0915 
   12400    40.622681    40.622681    40.622681    22.286439    106.88114   -103.96376    63.941946   -14378.887    273.74821 
   12450    40.626247    40.626247    40.626247   -225.23051   -137.40436   -87.730725   -450.55643   -14380.909    278.31126 
   12500    40.623869    40.623869    40.623869   -95.615059    -136.7984   -46.570949   -103.47583   -14380.437    278.04292 
   12550    40.619542    40.619542    40.619542    239.57902    508.20959    31.757883    178.76959   -14378.624    275.16718 
   12600    40.624222    40.624222    40.624222   -114.45224   -252.97067    38.723425   -129.10949   -14379.218    276.94263 
   12650    40.626746    40.626746    40.626746   -170.68213   -61.891139   -198.56931   -251.58594   -14378.018    275.25785 
   12700    40.622385    40.622385    40.622385    79.018843     105.6214    108.70718    22.727953   -14378.499    276.81492 
   12750    40.621164    40.621164    40.621164    176.30112     164.4772     233.9233    130.50286   -14377.591    275.67702 
   12800    40.625475    40.625475    40.625475   -75.968907   -148.26536   -11.660364   -67.981001   -14376.998    275.15154 
   12850    40.626163    40.626163    40.626163   -225.36005   -91.522624   -301.07193   -283.48561   -14378.283    278.24927 
   12900    40.621156    40.621156    40.621156    231.67358    249.72292    309.85565    135.44217   -14376.928      276.238 
   12950     40.62281     40.62281     40.62281   -12.368156    62.057749    74.070629   -173.23285   -14378.948    280.75198 
   13000    40.626286    40.626286    40.626286    5.9067665   -142.50164    98.445043    61.776901   -14375.446     274.5706 
   13050    40.626709    40.626709    40.626709   -166.57022   -60.568522   -163.27021   -275.87193   -14377.374    278.89444 
   13100    40.622136    40.622136    40.622136    267.07806    274.73453      205.518    320.98165   -14375.529    275.91274 
   13150    40.624717    40.624717    40.624717    68.396013    132.28893    18.880729    54.018375   -14376.138    277.66775 
   13200    40.628483    40.628483    40.628483   -210.43552   -315.28158   -143.73711   -172.28787   -14378.322    282.47343 
   13250    40.627083    40.627083    40.627083   -60.477021   -63.665845      -17.129   -100.63622   -14375.759    278.08189 
   13300    40.623975    40.623975    40.623975    99.317956    95.871014    313.36734   -111.28448   -14376.456    280.00606 
   13350    40.623731    40.623731    40.623731    187.44646    190.99485    117.43672    253.90781   -14374.731    277.23803 
   13400    40.629164    40.629164    40.629164   -120.72435   -172.26676   -23.486631   -166.41966   -14376.151    280.54393 
   13450    40.629136    40.629136    40.629136   -222.76252   -253.88566   -151.07177   -263.33013   -14375.988    280.79491 
   13500    40.622529    40.622529    40.622529    357.92271    399.10375    427.97789    246.68648   -14373.447    276.43516 
   13550    40.625487    40.625487    40.625487   -49.057979   -84.178778    85.995409   -148.99057     -14379.1    287.92271 
   13600    40.628887    40.628887    40.628887    -156.5621   -204.27881   -157.51865   -107.88883   -14376.053    282.57287 
   13650    40.627071    40.627071    40.627071   -77.198857    23.675337   -28.005322   -227.26658   -14374.177    279.47579 
   13700     40.62312     40.62312     40.62312     195.3987    153.10167    268.69891     164.3955   -14374.524    280.68212 
   13750    40.625148    40.625148    40.625148    126.52388    254.81205    166.17025   -41.410654   -14373.721    279.65082 
   13800    40.629946    40.629946    40.629946   -196.95758   -98.999465   -263.21919   -228.65408   -14374.467    281.62097 
   13850    40.627456    40.627456    40.627456    -32.47413    135.66093    3.1965387   -236.27986   -14375.648     284.4256 
   13900    40.624441    40.624441    40.624441    124.91534    64.347417    268.21211    42.186482   -14375.252    284.17754 
   13950    40.627161    40.627161    40.627161    60.636371    39.547193     61.35549    81.006429   -14374.426    283.09861 
   14000    40.630278    40.630278    40.630278   -112.61826   -5.1037925   -126.52158   -206.22942   -14373.269    281.37038 
   14050    40.628876    40.628876    40.628876   -95.677001    66.405538    -56.82126   -296.61528   -14374.951    285.12697 
   14100    40.625696    40.625696    40.625696    86.466968    55.784125    128.10679    75.509985   -14377.278     290.1309 
   14150    40.627676    40.627676    40.627676    71.203074    291.27564   -68.495275   -9.1711467   -14372.641    281.64547 
   14200    40.631386    40.631386    40.631386   -246.99108   -451.64526   -169.01995   -120.30804   -14373.925    284.62487 
   14250    40.628119    40.628119    40.628119    62.680678    89.050623    21.657334    77.334075   -14373.251    283.80425 
   14300    40.626525    40.626525    40.626525    133.50781    289.26032    226.24602   -114.98291   -14373.171    284.14378 
   14350    40.629493    40.629493    40.629493   -3.4986189    -99.00653    14.192712    74.317961   -14372.757    283.82327 
   14400     40.63171     40.63171     40.63171   -106.38493   -292.19741   -53.619076    26.661685   -14374.872    288.39628 
   14450     40.62885     40.62885     40.62885    140.24449    59.572599    260.93303    100.22783   -14368.827    277.16911 
   14500    40.627712    40.627712    40.627712    138.97754    306.67331    43.233168    67.026125   -14374.626    288.85304 
   14550      40.6302      40.6302      40.6302    6.1558169   -216.88021    266.75468    -31.40702   -14371.177    282.63744 
   14600    40.632154    40.632154    40.632154   -252.61727   -335.64514   -283.97293   -138.23375   -14374.611    289.73833 
   14650    40.628774    40.628774    40.628774    34.334389    36.319749    125.72142   -59.037999   -14373.826    288.67696 
   14700    40.627436    40.627436    40.627436    183.71972    169.88417   -9.6227313     390.8977   -14372.763    287.06648 
   14750    40.631528    40.631528    40.631528   -172.88875   -265.46719   -2.3442828   -250.85478   -14372.293    286.60099 
   14800    40.630963    40.630963    40.630963    31.043595   -90.810723    75.127619    108.81389   -14369.573    281.78176 
   14850    40.628579    40.628579    40.628579   -2.7418125   -99.204776    219.72983   -128.75049   -14373.847    290.49046 
   14900    40.627711    40.627711    40.627711    245.46429    296.07104    111.75879    328.56302   -14370.875    285.17504 
   14950    40.633254    40.633254    40.633254   -321.08891   -472.59847   -228.86642   -261.80183   -14376.307    296.11492 
   15000    40.632151    40.632151    40.632151   -73.445497   -425.59508    228.88518   -23.626595   -14370.435    285.16945 
   15050    40.629646    40.629646    40.629646    27.342582   -148.46856    116.26471    114.23159   -14373.097    290.74236 
   15100    40.629717    40.629717    40.629717    35.006805    54.664199    192.06152    -141.7053   -14372.781    290.55289 
   15150    40.632378    40.632378    40.632378    -159.0672   -315.57965   -104.21083   -57.411117   -14373.254    291.87937 
   15200    40.632226    40.632226    40.632226    41.379896   -95.756919    304.55651   -84.659908   -14368.458    283.01512 
   15250    40.631208    40.631208    40.631208   -104.06969   -108.75995   -202.14136   -1.3077741   -14374.625    295.35203 
   15300    40.629307    40.629307    40.629307    336.28878     189.3161    618.85089    200.69935   -14368.169     283.2595 
   15350    40.634479    40.634479    40.634479   -266.89504   -270.12313    -319.8068   -210.75518   -14373.924    294.79056 
   15400    40.633852    40.633852    40.633852   -71.976203    -154.0522    48.359313   -110.23572   -14370.061    287.70895 
   15450    40.629532    40.629532    40.629532    113.16644    132.91508     168.0165    38.567742   -14371.474    290.82998 
   15500    40.629176    40.629176    40.629176    122.53468   -57.751442    222.15843    203.19705   -14371.813    291.86729 
   15550    40.633786    40.633786    40.633786    79.369902     127.7631    287.83544   -177.48883   -14366.062    281.10891 
   15600    40.635961    40.635961    40.635961   -394.31566   -501.48337   -536.13877   -145.32483   -14373.985    296.81635 
   15650    40.628473    40.628473    40.628473    346.70928    227.35748    584.44114    228.32923   -14369.079    287.69577 
   15700    40.630622    40.630622    40.630622    25.853944   -89.998311   -2.1838908    169.74403   -14371.057    291.89148 
   15750    40.634779    40.634779    40.634779   -112.25385   -273.03132   0.68657071   -64.416805    -14369.06    288.39165 
   15800    40.633972    40.633972    40.633972   -64.664368   -104.73321   -120.47358    31.213683    -14369.57    289.74075 
   15850    40.629158    40.629158    40.629158    180.41749    130.28019    141.13898     269.8333   -14370.947    292.76214 
   15900    40.630953    40.630953    40.630953    123.34595    22.844576    203.14744    144.04582    -14371.58    294.33174 
   15950    40.636872    40.636872    40.636872   -304.24238   -103.07314   -504.62903   -305.02498   -14370.204    292.02654 
   16000    40.633663    40.633663    40.633663    45.093464   -192.10382    251.89414    75.490073   -14368.298    288.67823 
   16050    40.629966    40.629966    40.629966    164.39325   -8.8868449    88.555229    413.51138   -14370.298    292.88707 
   16100    40.630684    40.630684    40.630684     89.87328   -192.38847    313.82102    148.18729   -14367.494     287.7947 
   16150    40.633994    40.633994    40.633994    14.657907    8.5224708   -133.42573    168.87698   -14369.684    292.36081 
   16200     40.63577     40.63577     40.63577   -238.49133   -221.56166   -259.91398   -233.99833   -14369.614    292.55373 
   16250    40.631818    40.631818    40.631818    192.35751    184.19475    72.278339    320.59944   -14368.756    291.21838 
   16300    40.632152    40.632152    40.632152    78.507667    119.44107    161.43358   -45.351648    -14369.26    292.51919 
   16350    40.635793    40.635793    40.635793   -40.813017   -143.62374    13.256239    7.9284537   -14368.326    291.03189 
   16400     40.63561     40.63561     40.63561   -150.33471   -304.64849   -107.03533   -39.320316   -14370.568    295.69196 
   16450    40.631053    40.631053    40.631053    245.63912    306.55199    217.80069    212.56469   -14368.142    291.30636 
   16500    40.633409    40.633409    40.633409    122.01681   -282.01965    392.97198     255.0981   -14367.733    290.81285 
   16550    40.636884    40.636884    40.636884   -225.58416   -150.05002   -261.01319   -265.68928   -14369.557    294.63297 
   16600    40.633719    40.633719    40.633719   -4.2490017   -162.00425    43.033298    106.22394   -14369.616    295.03581 
   16650    40.632114    40.632114    40.632114    107.03348    146.74663    32.631103     141.7227   -14369.848    295.77423 
   16700    40.635272    40.635272    40.635272   -8.0315858   -19.373748     77.56933   -82.290339   -14368.182    292.83544 
   16750    40.637329    40.637329    40.637329   -201.40651   -253.12782   -207.96875   -143.12295   -14368.989    294.68266 
   16800    40.633454    40.633454    40.633454    21.855668    140.22389   -23.893449   -50.763434   -14369.604    296.14848 
   16850    40.631218    40.631218    40.631218    228.10792    63.589882     349.3963    271.33759   -14367.244    291.86063 
   16900    40.635797    40.635797    40.635797   -142.50035   -205.17029   -216.24974    -6.081035   -14369.542    296.58057 
   16950    40.636363    40.636363    40.636363    -163.0952   -316.31933   -39.288236   -133.67803   -14369.193    296.17249 
   17000    40.632413    40.632413    40.632413    154.03747    194.25605    128.63497    139.22139   -14367.609    293.37207 
   17050    40.631966    40.631966    40.631966    48.594835   -146.84396    62.802427    229.82603   -14368.833    296.00058 
   17100    40.634959    40.634959    40.634959   -102.32669    120.44627   -232.68766   -194.73868   -14368.508    295.62294 
   17150    40.635638    40.635638    40.635638   -131.23044   -380.69189   -217.29314    204.29371   -14367.871    294.64604 
   17200    40.632409    40.632409    40.632409    208.56139    180.56294     333.4013    111.71992   -14367.593    294.36038 
   17250    40.634783    40.634783    40.634783   -49.253601   -183.17146   -112.62815    148.03881   -14369.145    297.60897 
   17300    40.637326    40.637326    40.637326   -226.72143   -490.63376     10.34492   -199.87544   -14369.208    297.97888 
   17350    40.635703    40.635703    40.635703    -24.68054    21.524962    -195.9964    100.42982   -14367.544    295.00191 
   17400    40.633673    40.633673    40.633673     0.987512   -133.11173    119.61766    16.456612   -14370.468    300.90023 
   17450    40.634012    40.634012    40.634012    36.836516    17.450449    29.723166    63.335934   -14367.759    295.89045 
   17500    40.637069    40.637069    40.637069   -247.02146   -441.13093   -250.08011   -49.853328   -14370.672    301.76378 
   17550    40.634749    40.634749    40.634749    64.819825    113.48162  -0.83192949     81.80979   -14366.696    294.29966 
   17600    40.633837    40.633837    40.633837    105.29817    108.97164   -109.89764    316.82051   -14366.373    293.90063 
   17650    40.635467    40.635467    40.635467   -33.048843   -29.951371    120.07639   -189.27155   -14367.936    297.14807 
   17700    40.635732    40.635732    40.635732  -0.44358148   -124.41186   -20.079914    143.16103   -14365.828    293.28766 
   17750    40.634349    40.634349    40.634349   -35.414825    97.552169    -144.4754   -59.321248   -14368.185    298.06552 
   17800    40.632838    40.632838    40.632838     126.9987   -86.408822    35.825564    431.57937   -14368.157    298.21947 
   17850     40.63589     40.63589     40.63589    38.741137     323.9777   -66.337734   -141.41655   -14365.805    293.87607 
   17900    40.637644    40.637644    40.637644   -119.87455   -404.15206   -42.061125    86.589541   -14365.785    294.04192 
   17950    40.634948    40.634948    40.634948    83.933447    396.76299   -9.7364407   -135.22621   -14366.099    294.84819 
   18000    40.633972    40.633972    40.633972   -25.582332   -240.48092   -195.67717     359.4111   -14369.803    302.21737 
   18050    40.634252    40.634252    40.634252    176.97492    325.23698    6.9495854    198.73818   -14365.828    294.71572 
   18100    40.638238    40.638238    40.638238   -223.22202   -441.79745   -273.77048    45.901856   -14368.475     300.0226 
   18150    40.636387    40.636387    40.636387    13.775197    101.34159   -67.100204    7.0842019   -14365.368    294.19552 
   18200    40.633954    40.633954    40.633954    133.65981    284.83018   -131.43196    247.58122   -14365.491    294.61971 
   18250    40.634075    40.634075    40.634075    51.362063   -20.969947    109.04037    66.015765   -14366.813    297.36567 
   18300    40.635712    40.635712    40.635712    43.111818    8.8774973   -111.03131    231.48927   -14365.784    295.55206 
   18350    40.637192    40.637192    40.637192   -104.60863   -164.90809   -115.41938   -33.498419   -14366.507    297.12537 
   18400    40.634814    40.634814    40.634814    129.10739    182.38591   -18.262199    223.19844   -14366.996     298.2387 
   18450    40.635807    40.635807    40.635807    110.61675    135.53282    55.425158    140.89226   -14365.476    295.45996 
   18500    40.638352    40.638352    40.638352   -119.82913   -166.84338   -193.02332   0.37931525   -14365.954    296.54402 
   18550    40.637506    40.637506    40.637506   -48.772569   -96.822729   -4.4840408   -45.010937   -14367.255      299.221 
   18600    40.635274    40.635274    40.635274    48.275336     76.56787    18.448372    49.809767   -14366.751    298.40437 
   18650    40.634634    40.634634    40.634634    89.585373    101.60121   -53.305605    220.46052   -14366.546    298.15828 
   18700    40.637756    40.637756    40.637756   -91.122405   -47.035401   -85.847837   -140.48398    -14367.13    299.43893 
   18750    40.637266    40.637266    40.637266   -13.833031   -23.523482   -5.3760591   -12.599551   -14366.047    297.48878 
   18800    40.635471    40.635471    40.635471    81.424274    50.405061    146.43607    47.431687   -14367.819    301.05815 
   18850    40.636647    40.636647    40.636647   -30.732437    50.161683   -199.32553    56.966531   -14367.734    301.03385 
   18900    40.637633    40.637633    40.637633   0.91113613    199.68872   -27.745702   -169.20961   -14365.649    297.13139 
   18950     40.63711     40.63711     40.63711    7.9397493    36.100845   -145.37698    133.09538   -14365.611    297.18734 
   19000    40.635756    40.635756    40.635756   -25.478633    166.12189   -110.74614   -131.81165   -14367.761    301.47057 
   19050    40.635193    40.635193    40.635193    204.03561   0.31838133    186.79147    424.99697   -14362.984    292.35024 
   19100    40.637747    40.637747    40.637747   -13.084337    64.572967   -84.779902   -19.046076   -14366.545    299.36365 
   19150    40.638971    40.638971    40.638971   -77.154868    -179.0452   -207.13139    154.71199   -14363.923    294.41446 
   19200    40.636621    40.636621    40.636621    32.408575    218.48155   -192.43781    71.181985   -14367.329    301.12813 
   19250    40.634091    40.634091    40.634091    168.59513    328.84611    59.107943    117.83133   -14365.509    297.71897 
   19300    40.636736    40.636736    40.636736    5.4865057    44.621902    -189.0178    160.85541   -14366.011     298.7944 
   19350    40.638997    40.638997    40.638997   -54.558537   -21.140989   -12.772576   -129.76205   -14365.268    297.46301 
   19400    40.638124    40.638124    40.638124   -42.482727    35.296414   -182.27713     19.53254   -14365.761    298.51799 
   19450    40.635569    40.635569    40.635569     168.0714    270.46865    152.01955       81.726   -14364.305    295.80141 
   19500    40.636295    40.636295    40.636295    105.54347    275.31965   -23.012154    64.322898   -14364.642    296.54753 
   19550    40.639112    40.639112    40.639112   -73.051829   -59.635739    -160.0742   0.55445069    -14365.83    298.93576 
   19600    40.639407    40.639407    40.639407   -108.45141    49.075625    -387.2507    12.820851   -14367.013    301.31594 
   19650    40.636826    40.636826    40.636826    21.351627    60.692913    17.313554   -13.951587   -14365.685    298.83539 
   19700    40.635934    40.635934    40.635934    77.221053    59.103516   -34.033567    206.59321   -14366.989     301.4417 
   19750    40.639006    40.639006    40.639006   -14.990833    25.114013   -7.6357615   -62.450752   -14367.229    301.98652 
   19800    40.640879    40.640879    40.640879   -148.70472   -53.481648   -203.75722   -188.87531   -14365.452    298.62387 
   19850    40.637426    40.637426    40.637426    -13.95645    25.087161   -108.64073    41.684218   -14366.964     301.6168 
   19900    40.635478    40.635478    40.635478    130.24673    151.83786    137.76287    101.13945   -14366.972    301.70368 
   19950      40.6378      40.6378      40.6378    110.53991    277.17922    25.371339    29.069171   -14363.085    294.24874 
   20000    40.639715    40.639715    40.639715   -149.11917   -11.737074   -200.34693   -235.27351   -14366.236    300.40545 
Loop time of 524.703 on 4 procs for 20000 steps with 4000 atoms

Pair  time (%) = 347.924 (66.3088)
Neigh time (%) = 0 (0)
Comm  time (%) = 124.002 (23.6328)
Outpt time (%) = 0.737386 (0.140534)
Other time (%) = 52.0389 (9.91779)

Nlocal:    1000 ave 1000 max 1000 min
Histogram: 4 0 0 0 0 0 0 0 0 0
Nghost:    4235 ave 4235 max 4235 min
Histogram: 4 0 0 0 0 0 0 0 0 0
Neighs:    70000 ave 72653 max 67302 min
Histogram: 1 0 1 0 0 0 0 1 0 1
FullNghs:  0 ave 0 max 0 min
Histogram: 4 0 0 0 0 0 0 0 0 0

Total # of neighbors = 280000
Ave neighs/atom = 70
Neighbor list builds = 0
Dangerous builds = 0
Initial Length, L0: 40.6397146661038
Setting up run ...
Memory usage per processor = 3.04301 Mbytes
Step strain Temp p2 p3 p4 KinEng PotEng Press 
       0 -1.049037e-15    300.40545 0.0011737074  0.020034693  0.023527351    155.28298   -14366.236   -149.11917 
      50       0.0005    293.05146  0.026472649  0.032862374  0.020791397    151.48162   -14362.382   -267.08806 
     100        0.001    297.89823  0.047556992 -0.0046236073 -0.013252198    153.98697   -14364.824   -98.937291 
     150       0.0015    299.10574  0.077987377 -0.025639526 -0.046671855    154.61114   -14365.377   -18.919988 
     200        0.002    301.51169   0.10462392 -0.021049184   0.03065441    155.85481   -14366.545   -380.76381 
     250       0.0025    303.53977     0.176936  0.039019572  0.038114555    156.90314   -14367.507   -846.90042 
     300        0.003    299.68152   0.20211907  0.011359279  0.012940067    154.90877   -14365.417   -754.72805 
     350       0.0035    293.68276   0.20529816  -0.04263384 -0.031335103    151.80795   -14362.214   -437.76405 
     400        0.004    300.94245   0.25401206 0.00063304045 -0.0084151396    155.56056   -14365.854   -820.76654 
     450       0.0045    299.81821   0.28773288  0.023594954  0.023644502    154.97943   -14365.155   -1116.5745 
     500        0.005    301.60811   0.36772862  0.021125558 0.0095662112    155.90464   -14365.954    -1328.068 
     550       0.0055    298.81278   0.32904161  0.014230212 -0.019316318    154.45971   -14364.383   -1079.8517 
     600        0.006     296.5066    0.3909126 -0.025597316 -0.027316363    153.26762   -14363.049   -1126.6631 
     650       0.0065    297.77092   0.41891631 -0.0034792394 0.0036743306    153.92116    -14363.55    -1397.038 
     700        0.007    299.83119   0.46230984     0.022484 0.0071247333    154.98614   -14364.459   -1639.7286 
     750       0.0075    299.99017   0.47756905  0.014706409 0.0048721923    155.06831   -14364.384   -1657.1588 
     800        0.008     300.3514   0.49589924 -0.022620263 -0.0041643067    155.25504   -14364.407   -1563.7156 
     850       0.0085    303.41014    0.5354089 -0.015885528  0.023943557    156.83614   -14365.814   -1811.5564 
     900        0.009    298.38414   0.58591896 -0.023553572  0.012942128    154.23814   -14363.037   -1917.6917 
     950       0.0095     301.3647    0.6167526  0.034164895  0.023504526    155.77882   -14364.395   -2248.0734 
    1000         0.01    296.50301   0.65208778 -0.013028696 -0.013968254    153.26576    -14361.69   -2083.6361 
    1050       0.0105    297.62633   0.64432047 0.0097316018 -0.018545402    153.84642   -14362.069   -2118.3556 
    1100        0.011    299.84167   0.71144201  0.012455225 -0.016796971    154.99155   -14363.013   -2357.0009 
    1150       0.0115    299.00055   0.74533841  0.020382658 0.0066996367    154.55677   -14362.362   -2574.7357 
    1200        0.012     301.8041   0.74127671 -0.013077749  0.019925121    156.00596   -14363.594   -2493.7469 
    1250       0.0125    301.12622   0.81012902 -0.011501023 -0.0065812217    155.65555   -14363.012   -2640.1559 
    1300        0.013    294.99589    0.7932089 -0.00014614037 -0.021248731    152.48671   -14359.609   -2572.7134 
    1350       0.0135    297.20323   0.87785958 -0.020168788 -0.0019452067    153.62772   -14360.509   -2852.4853 
    1400        0.014    297.11335   0.89387085  0.018311472  0.024501116    153.58125   -14360.219   -3122.2781 
    1450       0.0145    301.01348   0.93400273 -0.0014971284 0.00014983158    155.59728   -14361.975   -3108.8514 
    1500        0.015    301.53384   0.95976839 -0.012910626 0.0032040639    155.86626   -14361.982   -3166.8728 
    1550       0.0155    303.28026    1.0007437  0.012081482 -0.017076445      156.769   -14362.615   -3319.1624 
    1600        0.016    294.73287     1.026515   0.00978465 -0.0097486148    152.35076   -14357.922   -3421.8368 
    1650       0.0165    302.86598    1.0794194  0.031316125  0.015542716    156.55485   -14361.837   -3754.2609 
    1700        0.017    299.69898    1.0992297 -0.001875518 0.0091961211     154.9178   -14359.911    -3688.501 
    1750       0.0175    299.21536    1.1205228 -0.022432517 0.0030960309    154.66781   -14359.361    -3670.621 
    1800        0.018    297.45391    1.1515291 -0.018408424 -0.014324294    153.75729   -14358.146   -3729.3212 
    1850       0.0185    299.78523    1.2111524  0.015536865  0.016576909    154.96238   -14359.037   -4144.2206 
    1900        0.019    301.16563    1.2532178  0.010212881  0.031411423    155.67592   -14359.429   -4316.1402 
    1950       0.0195    292.28664    1.2512974 -0.018213351 0.0023772099    151.08627   -14354.522   -4118.2042 
    2000         0.02    301.44254     1.288095 0.0025596825 -0.026073754    155.81906   -14358.921   -4215.2699 
    2050       0.0205    301.25823    1.3197339 0.0098707877 -0.028842523    155.72379   -14358.485    -4335.874 
    2100        0.021    300.15432    1.3500568  0.017156777    0.0315571    155.15317   -14357.568    -4662.569 
    2150       0.0215    301.17346    1.3894347 0.0070540343 -0.0089961822    155.67997   -14357.745    -4624.975 
    2200        0.022    293.69525    1.4102307 -0.029351712  -0.01006572     151.8144   -14353.517   -4569.3776 
    2250       0.0225    300.92838     1.449561  0.021475284 0.0013380173    155.55329    -14356.89   -4907.9144 
    2300        0.023    298.53156    1.4821539 -0.015361766    0.0199513    154.31434   -14355.279   -4955.8114 
    2350       0.0235    300.31605    1.5189464  0.015156161    0.0196935    155.23677   -14355.822   -5179.3201 
    2400        0.024    298.23234    1.5289992 -0.005962279 -0.0017809966    154.15967   -14354.359   -5070.8531 
    2450       0.0245    299.04379    1.5523439 -0.0094314234 -0.00011906722    154.57912   -14354.387   -5142.6448 
    2500        0.025    301.49562    1.6091851 -0.0026468835 -0.0076873719     155.8465   -14355.253   -5329.5028 
    2550       0.0255    296.82636    1.6151471  0.014871227  0.013703011    153.43291   -14352.437   -5479.0711 
    2600        0.026    300.57072    1.6736691 -0.012364141 -0.0030294137    155.36841   -14353.962   -5527.5851 
    2650       0.0265    302.61132    1.7155714  0.023573261  0.035259506    156.42322   -14354.591   -5914.6805 
    2700        0.027    297.97895    1.7243161 0.0095458611 -0.031360662    154.02869   -14351.771   -5675.0045 
    2750       0.0275    301.58315    1.7758752 -0.023803694 0.00076744496    155.89174   -14353.199   -5842.7966 
    2800        0.028    298.98164    1.8101515  0.019310009 0.0090644013    154.54699   -14351.412   -6128.4196 
    2850       0.0285    299.09897    1.8423217  0.003709927  0.008546415    154.60764    -14351.03   -6181.9269 
    2900        0.029    299.20114    1.8552319 0.0036345142 0.0050201726    154.66046   -14350.629   -6212.9552 
    2950       0.0295     295.2016    1.8831072 -0.0073843918 -0.014352098    152.59305   -14348.099    -6204.569 
    3000         0.03    298.05821    1.9093417 -0.018966137  0.016294981    154.06966   -14349.112   -6355.5686 
    3050       0.0305    295.97374    1.9499119 0.0021752504 -0.023492252    152.99218   -14347.559   -6428.6496 
    3100        0.031    292.91504    1.9634626  0.013126199 -0.011021701     151.4111   -14345.501   -6551.8904 
    3150       0.0315    300.32929    2.0313028 -0.0023926185   0.03400576    155.24361   -14348.844   -6876.3864 
    3200        0.032    298.83191    2.0416741 -0.0005248641 -0.023565492     154.4696   -14347.578   -6725.2792 
    3250       0.0325    301.47086    2.0763959 -0.0086688439 -0.00057451008     155.8337    -14348.44   -6890.5084 
    3300        0.033    301.94046    2.1286724 0.0050481805  0.011777389    156.07644   -14348.175   -7151.6599 
    3350       0.0335    297.09461    2.1380047 0.0044157262 0.0066353232    153.57157   -14345.158   -7163.5193 
    3400        0.034    303.29631    2.2133884  0.016993446 0.0074415941    156.77729   -14347.845   -7459.4115 
    3450       0.0345    295.88532    2.1654137 -0.016193391  0.012079765    152.94647    -14343.49   -7204.3335 
    3500        0.035    300.97257    2.2525731 0.0098395877 -0.0062079212    155.57613   -14345.587   -7520.6825 
    3550       0.0355    302.34114    2.2760658  0.027737819 -0.017188809    156.28356   -14345.749   -7622.0495 
    3600        0.036    294.74776     2.270351 -0.012921243   0.01595548    152.35845    -14341.28   -7577.9508 
    3650       0.0365    298.28893    2.3407564  0.012523231 -0.012707199    154.18892   -14342.555   -7801.9082 
    3700        0.037    298.46666    2.3660439 -0.041239363  0.023222575    154.28079    -14342.08   -7826.7569 
    3750       0.0375    301.21917    2.4119199  0.033246571  0.018091647     155.7036   -14342.935   -8210.8603 
    3800        0.038    295.00505    2.3790588 -0.022959597   0.03016584    152.49145    -14339.16   -7954.2169 
    3850       0.0385    299.96128    2.4207006  -0.01873119 -0.043007456    155.05338   -14341.143   -7863.2065 
    3900        0.039    294.25766    2.4587977 0.00036274836 -0.051090149    152.10512   -14337.612   -8026.9009 
    3950       0.0395    302.37711    2.5440979  0.061026133   0.01463126    156.30215   -14341.214   -8732.5175 
    4000         0.04    296.73814    2.5530949  0.016074859  0.020278742     153.3873   -14337.701   -8631.4949 
    4050       0.0405     301.4417    2.5442033 -0.00048169778 0.0069318646    155.81863   -14339.531   -8502.1783 
    4100        0.041    299.09953    2.5707376 -0.052134265 -0.037077203    154.60793   -14337.703   -8271.7538 
    4150       0.0415    296.50615    2.6316033 -0.024681824  0.018686828    153.26739   -14335.742   -8752.0275 
    4200        0.042    300.36174    2.6882845  0.029109525  0.042530252    155.26038   -14337.105   -9199.7475 
    4250       0.0425    299.62487    2.7106973  0.022092613  0.034055681    154.87948   -14336.099   -9222.8186 
    4300        0.043    298.25475    2.6579475 -0.017001073 -0.032829878    154.17126   -14334.756   -8693.7219 
    4350       0.0435    298.22012    2.7498016 -0.037448322 -0.047522073    154.15336   -14334.095   -8882.7705 
    4400        0.044    293.16655    2.7762377  0.025151681 -0.0027090458    151.54111   -14330.835   -9328.9345 
    4450       0.0445    300.52348    2.8796493  0.048643217  0.053818387    155.34399   -14333.974   -9940.3698 
    4500        0.045    295.00646    2.8240291 -0.001657465 -0.021456426    152.49218   -14330.462   -9336.3839 
    4550       0.0455    301.66241    2.8727467  -0.05183657 -0.024327291    155.93272   -14333.225   -9321.9429 
    4600        0.046    295.32913    2.8760259 -0.023259117 -0.029690148    152.65897   -14329.284   -9410.2553 
    4650       0.0465    293.81642    2.9727998  0.021892692   0.02064563    151.87703   -14327.821   -10051.127 
    4700        0.047    300.59264    2.9904039  0.047442931   0.07808019    155.37974   -14330.632   -10386.423 
    4750       0.0475    299.14255    3.0219643 -0.027870643 -0.010674033    154.63017   -14329.193   -9944.7319 
    4800        0.048    300.24939    3.0179715 -0.038230362 -0.050652521    155.20231   -14329.061   -9763.6286 
    4850       0.0485    299.30332    3.0699047 -0.0080016099 -0.0014473852    154.71328   -14327.867   -10201.519 
    4900        0.049    301.50302    3.1463676  0.073083587  0.028036071    155.85032   -14328.287   -10824.958 
    4950       0.0495    300.45766    3.1422163  0.023935712  0.030396509    155.30997   -14327.032   -10655.162 
    5000         0.05    293.88236      3.13093  -0.03279169 -0.049442681    151.91112    -14322.91   -10162.319 
    5050       0.0505    299.46859    3.1601971 -0.026898522 -0.037601125     154.7987   -14325.064   -10318.992 
    5100        0.051    299.37655    3.2488198 0.0096347884   0.03744465    154.75113   -14324.274   -10986.331 
    5150       0.0515    296.06074    3.2539934   0.02246352  0.025291364    153.03715   -14321.816   -11005.828 
    5200        0.052    297.86528    3.2842046 -0.020947083  0.002017875    153.96993   -14321.999   -10884.251 
    5250       0.0525    297.69228    3.2689601 -0.042305572  -0.02543246    153.88051   -14321.154    -10670.74 
    5300        0.053    302.79609    3.3522589 0.00086309308 -0.0038336338    156.51873   -14323.039   -11164.294 
    5350       0.0535    303.88963    3.4167201  0.031519426  0.061404638    157.08399   -14322.831   -11698.814 
    5400        0.054    297.46683    3.4513268  0.010838243  0.021100228    153.76397   -14318.736   -11610.884 
    5450       0.0545    299.66039    3.4309594 0.0017190247  -0.02272825    154.89785   -14319.085   -11366.501 
    5500        0.055     295.4478    3.4527897 -0.017933322 -0.040729837    152.72031   -14316.118   -11313.755 
    5550       0.0555    296.46507    3.4856433  0.022874789 -0.023085498    153.24615   -14315.856   -11618.109 
    5600        0.056    297.50358     3.543348  0.062018826  0.021641412    153.78297   -14315.596   -12090.028 
    5650       0.0565     302.4037     3.559372 -0.00099147222 -0.047488539    156.31589   -14317.327   -11702.973 
    5700        0.057    301.20375    3.5938863 -0.044686185 0.0073687615    155.69563   -14315.895    -11855.23 
    5750       0.0575    298.55257    3.6002307 -0.0040249096   0.04260453     154.3252   -14313.705   -12129.368 
    5800        0.058     296.1695    3.6630849 -0.0074142168  0.048446548    153.09337   -14311.647   -12347.057 
    5850       0.0585    298.67207    3.6572192 -0.013673127 0.0051358309    154.38698   -14312.117   -12162.273 
    5900        0.059    294.57341    3.6636683 -0.065892452 -0.023410671    152.26833   -14309.176   -11914.551 
    5950       0.0595    298.36739    3.7278556  0.018367902 0.0090803912    154.22948     -14310.3    -12517.68 
    6000         0.06    299.60499    3.7695124  0.058129446  0.029562006    154.86921   -14310.092   -12857.346 
    6050       0.0605    300.47112    3.7690229  0.011753844 -0.014761961    155.31692   -14309.691   -12553.383 
    6100        0.061    295.16122      3.75536 -0.028250531    -0.039238    152.57218   -14306.087   -12292.905 
    6150       0.0615    299.41034    3.8579464  0.015296152 -0.015079344     154.7686   -14307.425   -12860.544 
    6200        0.062    302.56181    3.9011754  0.026123446  0.029095239    156.39762    -14308.18    -13187.98 
    6250       0.0625    297.80706    3.9078722  0.020319484 0.0075726434    153.93984    -14304.85   -13119.214 
    6300        0.063    295.31576    3.8902801 -0.0099191873 0.00011501157    152.65206   -14302.686    -12934.92 
    6350       0.0635    307.77723    3.9733564 -0.014854651 0.0006947156    159.09353   -14308.238   -13197.322 
    6400        0.064    296.71823    3.9517131 -0.017763667  0.014008297    153.37701   -14301.641   -13159.859 
    6450       0.0645    297.40149    4.0241614 0.0054011384 0.00050942382     153.7302   -14301.102   -13433.573 
    6500        0.065     298.7535     4.092414   0.01778246  0.035639467    154.42906    -14300.89   -13819.453 
    6550       0.0655    298.18596    4.0766867  0.023959479   0.01003731     154.1357   -14299.689   -13702.278 
    6600        0.066    294.99679    4.0684533 -0.031788956  -0.05894218    152.48718   -14297.123   -13259.074 
    6650       0.0665    298.43886    4.1197304 -0.010702085 -0.032140028    154.26643   -14297.982   -13589.627 
    6700        0.067    298.78521    4.1782257  0.032021286  0.026238399    154.44546    -14297.23   -14121.618 
    6750       0.0675    297.71505    4.2193436  0.052777473  0.023239196    153.89228   -14295.743   -14317.868 
    6800        0.068    300.23611    4.2033337 -0.034703051 0.0021508891    155.19545   -14296.111   -13902.605 
    6850       0.0685    299.72442    4.2444964 -0.034015719 -0.025446366    154.93094   -14294.896   -13950.114 
    6900        0.069    293.90807    4.3006146 -0.006021289  0.010280141    151.92441   -14290.934   -14349.578 
    6950       0.0695    295.55728      4.32446  0.017964798  0.034714192    152.77691   -14290.827   -14590.463 
    7000         0.07    299.97901    4.3350936  0.024811131 0.0015622131    155.06255   -14292.153   -14538.223 
    7050       0.0705    295.43505    4.3090773 -0.070349398 -0.048082752    152.71372   -14288.838   -13968.817 
    7100        0.071    299.35571    4.3860399 -0.012099446 -0.022613835    154.74036   -14289.898   -14504.422 
    7150       0.0715    297.39339    4.4261891  0.023666622  0.051637371    153.72601   -14287.906   -15004.977 
    7200        0.072    299.41807    4.4814161  0.060222896  0.015589854    154.77259    -14287.97   -15190.763 
    7250       0.0725    293.78896    4.4210924 -0.028434769 -0.038248019    151.86284    -14284.08   -14514.699 
    7300        0.073    297.69332    4.4638086 -0.064488855 -0.061280517    153.88105   -14285.099   -14460.131 
    7350       0.0735    301.07784    4.5686495  0.018505519  0.032347662    155.63055   -14285.849   -15398.342 
    7400        0.074    299.54915    4.5987548  0.057732246  0.073450231    154.84035   -14284.046   -15766.458 
    7450       0.0745     295.1276    4.5945201 -0.048107807 -0.0070022397     152.5548   -14280.754   -15131.367 
    7500        0.075    296.84865    4.5741033 -0.061478037 -0.046609578    153.44443   -14280.622   -14886.719 
    7550       0.0755    299.06101    4.6572368   0.03316019 0.0087715207    154.58802   -14280.745   -15663.895 
    7600        0.076    297.36171    4.7500406  0.051359543  0.017771024    153.70963   -14278.818   -16063.904 
    7650       0.0765    296.74506    4.7281472  0.018483818 -0.019489603    153.39088   -14277.459   -15757.138 
    7700        0.077    295.84031    4.6963266  -0.03740552 -0.024158586    152.92321    -14275.95   -15449.208 
    7750       0.0775    295.93453    4.7532709 0.00061973013 -0.060531814    152.97191   -14274.948   -15644.529 
    7800        0.078     303.2613    4.8603092   0.03853974  0.054888246     156.7592   -14277.677   -16512.457 
    7850       0.0785    297.60468    4.8365847  0.034858939  0.020175117    153.83523   -14273.692   -16305.396 
    7900        0.079    298.64323    4.8116866 -0.030781854 -0.023372683    154.37207   -14273.166    -15858.44 
    7950       0.0795    296.94183    4.8785823 -0.063975091 -0.028348221     153.4926   -14271.214   -15954.197 
    8000         0.08    302.64586    4.9735511 -0.0068024236  0.064238709    156.44107   -14273.082   -16769.958 
    8050       0.0805    298.34353    4.9818402  0.040413939  0.052186276    154.21715   -14269.767   -16914.802 
    8100        0.081    293.08872    4.9497799 -0.023751189 -0.020997168    151.50088   -14265.971   -16350.105 
    8150       0.0815    296.68515    4.9822985 -0.022224244 -0.034378186    153.35991   -14266.726   -16418.987 
    8200        0.082    299.25647    5.0244127   0.01614575 -0.00059782218    154.68906   -14266.951   -16799.869 
    8250       0.0825     296.1244    5.0553414  0.029063928  0.014747813    153.07005   -14264.225   -16997.177 
    8300        0.083    298.75328    5.1079444  0.008874366 -0.016800129    154.42895   -14264.469   -17000.062 
    8350       0.0835    295.77759    5.0954445 -0.034189333 -0.024522365    152.89078   -14261.807   -16789.109 
    8400        0.084    298.59446    5.1351949  0.010633362 -0.015225624    154.34686   -14262.142   -17102.009 
    8450       0.0845    298.60147    5.1924177  0.011466534  0.035468628    154.35048   -14261.016    -17464.51 
    8500        0.085    301.84539    5.2313396  0.021618793  0.032084825     156.0273   -14261.555   -17616.811 
    8550       0.0855    300.14921    5.2417083 -0.029202586 -0.0095476758    155.15052    -14259.53   -17343.193 
    8600        0.086    292.42459    5.2221011 -0.047438082 -0.033771372    151.15758   -14254.395   -17136.305 
    8650       0.0865    298.74994    5.3315746  0.053671281  0.044824901    154.42723   -14256.506   -18100.236 
    8700        0.087    300.30676     5.350011  0.058362906 0.0040511928    155.23196   -14256.148   -18041.417 
    8750       0.0875    299.66038    5.3203081 -0.036804126 -0.031852387    154.89784   -14254.648   -17505.505 
    8800        0.088    296.41355     5.338726 -0.021589237 -0.030483778    153.21952   -14251.804   -17622.177 
    8850       0.0885    296.62244    5.4153027  0.006030783  0.019000773     153.3275   -14250.735   -18134.448 
    8900        0.089     298.0313    5.4681051 -0.014919935  0.034834797    154.05575    -14250.28     -18293.4 
    8950       0.0895    292.54917    5.4327724 -0.016232616  0.020829522    151.22198   -14246.271   -18124.564 
    9000         0.09    297.36054    5.4510805 -0.028451689  0.013558421    153.70903   -14247.578   -18120.624 
    9050       0.0905    295.84825    5.5190001 -0.019011061 -0.060640719    152.92731   -14245.596   -18131.161 
    9100        0.091    298.50238    5.5641327  0.057023443 -0.0069842641    154.29926   -14245.753   -18713.906 
    9150       0.0915    298.00753    5.5902891  0.052041244  0.016603662    154.04346   -14244.284   -18863.113 
    9200        0.092    299.36916    5.5877633  0.008720164 -0.037312363    154.74731   -14243.778    -18530.57 
    9250       0.0925    294.71555    5.6151902 -0.024926231 -0.043220632     152.3418   -14240.159   -18490.145 
    9300        0.093     300.2336     5.674398     0.019181  0.021860429    155.19415   -14241.783   -19051.465 
    9350       0.0935    295.30464    5.6867859 -0.012295691  0.033970706    152.64631   -14237.998   -19028.203 
    9400        0.094    299.41566    5.7167282 0.0023251991  0.042484714    154.77134   -14238.884   -19205.127 
    9450       0.0945    299.39399    5.7262219 -0.034771558 0.0094838344    154.76014   -14237.632   -19003.114 
    9500        0.095    299.89053     5.770589 -0.056671937 0.0072271737    155.01681   -14236.649   -19070.481 
    9550       0.0955    291.17361    5.7854595 -0.017046178 -0.0039161245    150.51093   -14230.897   -19214.991 
    9600        0.096    303.17288    5.8416836  0.081407001  0.080269974    156.71349    -14235.84   -20011.202 
    9650       0.0965    301.80902    5.8654925  0.024528916 -0.014328165     156.0085   -14233.864   -19585.644 
    9700        0.097    298.50248    5.8724384 -0.0065281179 -0.067530423    154.29931   -14230.867   -19327.933 
    9750       0.0975    296.04325    5.8994642  0.041324942 -0.057369276    153.02811   -14228.316     -19611.4 
    9800        0.098    299.05966    5.9644306  0.072169051 0.0094362563    154.58732   -14228.601   -20153.453 
    9850       0.0985     291.4383    5.9863516 -0.010564575 -0.030347792    150.64776   -14223.382   -19818.131 
    9900        0.099    296.04619    6.0078903 -0.028789334  0.009895692    153.02963   -14224.456   -19963.322 
    9950       0.0995    294.70264    6.0146527 -0.057999911  0.037823169    152.33513   -14222.446   -19981.586 
   10000          0.1    299.04948    6.0309854 -0.036750401  0.024019579    154.58206    -14223.39   -20060.848 
   10050       0.1005     296.9513    6.0842222 -0.0088956804  0.026554215    153.49749   -14220.997   -20339.602 
   10100        0.101    296.13114    6.0979959 -0.023997011  0.059706683    153.07354   -14219.264   -20445.685 
   10150       0.1015    297.83587    6.1479732  0.031910005 -0.039378072    153.95473   -14218.822   -20468.351 
   10200        0.102     299.8044    6.1712469 -0.0084128981 -0.034008128    154.97229   -14218.495    -20429.42 
   10250       0.1025    292.71483    6.1524044  0.011900236 -0.029181481    151.30761   -14213.498   -20450.411 
   10300        0.103    297.03325    6.2218848  0.047240039  0.010016829    153.53985   -14214.391   -20930.472 
   10350       0.1035    291.24066     6.214471 -0.0082658066 -0.025305227    150.54559   -14210.054       -20603 
   10400        0.104    298.27807    6.2223444  0.017685619 -0.025507797    154.18331    -14212.35   -20715.074 
   10450       0.1045    296.05623    6.2760826 -0.0046923873 -0.014320307    153.03481   -14209.848     -20856.9 
   10500        0.105    299.70026    6.3636433   0.01908374  0.056913639    154.91845   -14210.356   -21465.469 
   10550       0.1055    295.65509    6.3166928 -0.019816246 0.0088617423    152.82746   -14206.891   -21019.128 
   10600        0.106    304.16545     6.356887 -0.012046192  0.019547687    157.22657   -14209.913   -21214.628 
   10650       0.1065    296.01901    6.3917139 -0.037528274  0.013029463    153.01558   -14204.322    -21224.05 
   10700        0.107    301.82921    6.4455172  0.039092225   0.03377902    156.01893   -14205.937   -21727.962 
   10750       0.1075    293.50745    6.4291826 -0.014346245 -0.0043677562    151.71732   -14200.251   -21368.229 
   10800        0.108    293.15104    6.4794156 0.0065857071 -0.047981142    151.53309   -14198.669   -21460.067 
   10850       0.1085    296.22725    6.5710825  0.017626655 0.00040301902    153.12322   -14198.844   -21963.707 
   10900        0.109    300.32143    6.5744798  0.056567063   0.00759029    155.23955   -14199.549   -22128.791 
   10950       0.1095    296.06847    6.5221118 -0.037837481 -0.012439406    153.04114    -14195.94   -21572.783 
   11000         0.11    299.10062    6.5771759 -0.022807841 -0.033859546     154.6085   -14196.095   -21735.028 
   11050       0.1105    297.81678    6.6304431  0.036976208  0.028405021    153.94486   -14194.005   -22319.414 
   11100        0.111    294.62405    6.6378143  0.015320659  0.053881588    152.29451    -14190.92   -22356.722 
   11150       0.1115    293.97047    6.6726445 -0.031681232 -0.014425558    151.95667   -14189.148   -22088.459 
   11200        0.112    297.07872    6.6895091 -0.021658739 -0.024414414    153.56335   -14189.304   -22144.786 
   11250       0.1125    297.97086    6.6925038 -0.010296473 0.0085047303    154.02451   -14188.318   -22302.374 
   11300        0.113    293.01178    6.7497538 0.0061245468 -0.025155093    151.46111   -14184.302   -22435.744 
   11350       0.1135    297.74865    6.7946686  0.027252238   0.05625265    153.90965   -14185.284   -22927.245 
   11400        0.114    296.50616    6.7992815  0.011549464 -0.0043707354    153.26739   -14183.179   -22688.201 
   11450       0.1145     300.8508    6.8290309 -0.013307976 -0.016138323    155.51319   -14183.951   -22665.282 
   11500        0.115    299.73224    6.8473583  0.049892241  -0.02655811    154.93499   -14181.897   -22902.308 
   11550       0.1155    293.37394    6.8870394 0.0059388159 0.0079710575    151.64831   -14177.129   -23003.164 
   11600        0.116    299.73032    6.9518795 0.0029394913   0.03276782      154.934   -14178.919   -23291.956 
   11650       0.1165    298.12715    6.9455821  -0.02030518   0.01541302     154.1053   -14176.591   -23135.633 
   11700        0.117    290.87094    6.9360677 -0.061335677 -0.044274862    150.35448   -14171.345   -22768.191 
   11750       0.1175    295.64601    6.9943236 0.0073484515   0.02508855    152.82277   -14172.318   -23422.535 
   11800        0.118    296.78186    7.0316742   0.05370372  0.036175106     153.4099   -14171.389    -23738.51 
   11850       0.1185    297.85416    7.0175654 -0.0042885702 0.0058438685    153.96419   -14170.432   -23397.069 
   11900        0.119    296.40276     7.054914 0.0022210026 -0.065291199    153.21394   -14168.154   -23306.146 
   11950       0.1195    300.62232     7.126628  0.023310318 -0.0074180025    155.39508   -14168.808   -23808.401 
   12000         0.12    293.01761    7.1383985 -0.0076052088  0.056486933    151.46412   -14163.336   -23957.601 
   12050       0.1205    294.26099    7.1376513   0.02005605 -0.0033594919    152.10683    -14162.44   -23847.826 
   12100        0.121    293.15565    7.1826994 -0.050607126 -0.033705631    151.53547   -14160.319   -23661.289 
   12150       0.1215    299.18386    7.2378035 -0.024194369  0.015980435    154.65152   -14161.882   -24098.632 
   12200        0.122    296.89766    7.2772165  0.044867863  0.015661985    153.46976   -14159.137   -24459.154 
[...]
   11650       0.1165    291.19954    5.2371389 -0.034396242 0.0027783002    150.52434   -13073.867   -17351.737 
   11700        0.117    295.56192    5.2827463  0.041358481   0.05957712     152.7793   -13074.803   -17945.606 
   11750       0.1175    289.42518    5.2391118  0.015038564 0.0010948396    149.60715   -13070.353   -17517.484 
   11800        0.118    289.93643    5.2357302 -0.036773091  0.012204261    149.87142   -13069.346   -17370.538 
   11850       0.1185    294.99723    5.2515737 -0.017441696  0.018584332    152.48741   -13070.692   -17509.054 
   11900        0.119    291.71231     5.221388 -0.010644288 -0.028035413     150.7894   -13067.708   -17275.694 
   11950       0.1195    289.25527     5.224999 -0.0047416738  0.013808783    149.51932    -13065.12   -17446.887 
   12000         0.12    287.18505    5.2455896  0.008947511  0.027338748     148.4492   -13062.743   -17606.253 
   12050       0.1205    288.80333    5.2670032  0.015520743   0.01545703    149.28571   -13062.312   -17659.937 
   12100        0.121    293.72785    5.2612767  0.008529233 -0.021033101    151.83125   -13063.561   -17495.909 
   12150       0.1215    284.76868    5.2254233 -0.005961265 -0.073806949    147.20016   -13057.618   -17152.183 
   12200        0.122    291.93272    5.2733166  0.012320511  0.019088698    150.90333   -13060.005    -17682.42 
   12250       0.1225    291.03107    5.3063373  0.034236862  0.041120085    150.43726   -13058.227   -17938.981 
   12300        0.123    286.99549    5.2890935 0.0052895477 -0.015485002    148.35122    -13054.83   -17596.327 
   12350       0.1235    291.46477    5.3183498 -0.007031186 -0.040358874    150.66144   -13055.816   -17569.866 
   12400        0.124    290.85683    5.3471084 -0.0044911467  0.016964429    150.34719   -13054.165   -17865.272 
   12450       0.1245    286.45539    5.3771449  0.004859152  0.014424478    148.07203   -13050.555   -17988.095 
   12500        0.125    289.42269    5.3945976  0.014215575   0.02005854    149.60587   -13050.757   -18096.239 
   12550       0.1255    292.09547    5.3590697 -0.0077989374  -0.03003994    150.98746   -13050.825   -17737.436 
   12600        0.126    291.65315    5.3267561 -0.033020027 0.0047617984    150.75882   -13049.249   -17661.659 
   12650       0.1265    286.63798    5.3164052 -0.028599955 -0.0082967578    148.16642   -13045.336   -17598.362 
   12700        0.127    292.22715    5.3858204  0.039199021  0.038838196    151.05552   -13046.894   -18212.859 
   12750       0.1275    292.59399    5.3046555  0.043590551 -0.00032998724    151.24515   -13045.748   -17826.387 
   12800        0.128    291.06293    5.2000495 -0.056685637 -0.022656022    150.45372   -13043.648   -17069.026 
   12850       0.1285    286.89327     5.080189 -0.052774601 -0.025994363    148.29838   -13040.211     -16671.4 
   12900        0.129    291.98395    5.0378183 -0.0034135782  0.053192736    150.92981   -13041.557   -16958.658 
   12950       0.1295    292.72278    4.9446068 0.0078823642  0.075796396    151.31172   -13040.661   -16760.952 
   13000         0.13    294.22418    4.7947725  0.053811825 -0.018220536    152.08781   -13040.199   -16101.213 
   13050       0.1305    301.12821     4.664014 -0.012139365 0.0019746511    155.65658   -13042.565   -15512.831 
   13100        0.131    299.89999    4.4159534  -0.10105264 0.0086777787     155.0217   -13040.762   -14411.929 
   13150       0.1315    307.58274    4.2204684 -0.015733099  0.036132262      158.993    -13043.64   -14136.225 
   13200        0.132    307.27598    3.9482498  0.064486018  0.056681384    158.83443   -13042.438   -13564.724 
   13250       0.1325    327.33602    3.7009618  0.073759713  0.027628299    169.20369   -13051.873   -12674.499 
   13300        0.133    327.49574    3.3156798 -0.047576557 -0.010249481    169.28626   -13051.161   -10859.512 
   13350       0.1335    333.96441    3.0629643 -0.048175941 -0.073834657    172.62999    -13053.82   -9803.1789 
   13400        0.134     339.5364    2.8750152  0.070603928 -0.031959139    175.51021   -13056.116   -9712.2001 
   13450       0.1345    342.70707    2.6991688  0.074060682 0.00039629208    177.14916    -13057.34   -9245.4193 
   13500        0.135    342.56769    2.4260086   0.09285937 -0.037456266    177.07712   -13057.055   -8271.3725 
   13550       0.1355    345.55736    2.2397891 -0.034959876 0.00073080778    178.62251    -13058.52   -7351.8668 
   13600        0.136    347.93245    1.9996749 -0.016588802 -0.016269706    179.85022   -13059.738   -6556.0546 
   13650       0.1365    347.60132     1.844259  -0.01962889  0.033052541    179.67906   -13059.657   -6192.2754 
   13700        0.137    344.25385    1.7155787 0.0094557844  0.061032829    177.94871   -13058.065   -5953.5577 
   13750       0.1375     345.8775    1.6538584  0.009633416   0.03841085      178.788   -13059.111   -5673.0088 
   13800        0.138     348.3213    1.5396051 -0.0087531693 -0.051822896    180.05122   -13060.633   -4930.0969 
   13850       0.1385    345.84758    1.4953971 -0.017659311 -0.064932165    178.77253     -13059.6   -4709.3519 
   13900        0.139    356.11622    1.5243102  0.094838442  0.018904861    184.08051   -13065.158   -5460.1783 
   13950       0.1395    349.17739    1.4474228  0.014344771 0.0082238908    180.49375   -13061.853   -4899.9715 
   14000         0.14    356.98504    1.4709135  0.023559775   -0.0347202    184.52961   -13066.186   -4865.8435 
   14050       0.1405    354.07218     1.464789 -0.040702145 -4.3019181e-05    183.02392   -13064.987   -4746.8128 
   14100        0.141    358.94832    1.5588514  0.020649673  0.044488396    185.54445   -13067.761   -5413.2983 
   14150       0.1415    356.41035    1.5255941  0.069080275  0.013874249    184.23254   -13066.741   -5361.8288 
   14200        0.142    359.76649    1.4913292 -0.045216519 -0.028715255    185.96737   -13068.746   -4724.6581 
   14250       0.1425     362.4024    1.4883565  0.030883731 -0.047634773     187.3299   -13070.443   -4905.3515 
   14300        0.143    357.26902    1.4141228  0.028904138 -0.030369297     184.6764   -13068.161   -4708.8587 
   14350       0.1435    354.36027    1.4537314 -0.0031327749 0.0083344609    183.17283   -13067.019   -4863.1104 
   14400        0.144    359.60172    1.4990683 0.0096797617  0.042897928     185.8822   -13070.051   -5172.1534 
   14450       0.1445    353.16265    1.4655778 -0.061892461  0.012413785    182.55377   -13067.024   -4720.3305 
   14500        0.145    353.25339    1.4359886 -0.020306052 -0.052641779    182.60068   -13067.377   -4543.4693 
   14550       0.1455    362.16892    1.4921497  0.056557958  0.029766268    187.20922   -13072.313   -5261.5797 
   14600        0.146    358.39783    1.4600243  0.023993904  0.035577056     185.2599   -13070.698   -5065.3176 
   14650       0.1465    352.49504    1.4063991 -0.050053438 -0.013906753    182.20868   -13068.022   -4474.7962 
   14700        0.147    356.01276    1.4453609 -0.035313578 0.0088304354    184.02703   -13070.182   -4729.5924 
   14750       0.1475    360.54125    1.4245473  0.011512206  0.070824311    186.36785   -13072.898   -5022.9462 
   14800        0.148    359.92551    1.3850901   0.02080029  0.020172409    186.04957   -13072.974   -4753.5425 
   14850       0.1485    362.07028    1.3695534 -0.035893493  0.015302273    187.15822   -13074.483   -4496.5406 
   14900        0.149    355.01475    1.2983016 -0.034106074  0.015407167    183.51114   -13071.246   -4265.3423 
   14950       0.1495    365.50007     1.335468  0.022403337 0.0069378927    188.93113   -13077.043   -4549.3642 
   15000         0.15    354.73165    1.2812111  0.021834318  0.010013514    183.36481   -13071.888   -4376.8632 
   15050       0.1505    357.33215    1.2693861 -0.026183727 -0.034389467    184.70903   -13073.629   -4029.3763 
   15100        0.151    356.49704    1.3190229  0.023438541 -0.014815274    184.27736   -13073.591   -4425.4871 
   15150       0.1515    355.43329    1.3388993  0.061873927 -0.0014712289    183.72749   -13073.424   -4664.3401 
   15200        0.152    350.02845    1.3049567  0.020984269  0.034169227    180.93367   -13070.995   -4533.7007 
   15250       0.1525    353.95917    1.2501787  0.013300918 -0.029096445     182.9655   -13073.452   -4114.6104 
   15300        0.153     361.2989    1.2119693 -0.029358725  0.011261784    186.75949   -13077.648   -3979.5747 
   15350       0.1535    352.80806    1.2443454 -0.027731311   -0.1029247    182.37048   -13073.693   -3712.2981 
   15400        0.154    353.28247    1.2745306 0.0049871488  0.025646714    182.61571   -13074.322   -4350.5481 
   15450       0.1545    358.48025    1.3381529   0.10360828    0.1458305     185.3025   -13077.373   -5291.9724 
   15500        0.155    352.16677    1.2653641 -0.0042519003  0.011350726    182.03899    -13074.57   -4241.5431 
   15550       0.1555    351.88361    1.2204703  -0.12364237  -0.11570185    181.89262   -13074.789   -3270.4202 
   15600        0.156    353.38577    1.2302803 -0.018949513 -0.034893096     182.6691   -13075.935   -3921.4588 
   15650       0.1565    350.76162    1.2368023  0.076784897   0.10945842    181.31265   -13074.939   -4743.4855 
   15700        0.157    349.11118    1.1912533  0.015368663  0.055604759    180.45952   -13074.507   -4207.4224 
   15750       0.1575    354.72778     1.143223  -0.06212733 -0.021554791     183.3628   -13077.804   -3531.8028 
   15800        0.158    356.07008    1.1283374 0.0016697104 -0.052495403    184.05665   -13078.898   -3591.7058 
   15850       0.1585    353.65884    1.1414184  0.032603214 -0.052207871    182.81026    -13078.05    -3739.379 
   15900        0.159    355.49381    1.1995878 0.0068601489  0.046975789    183.75877    -13079.41   -4178.0791 
   15950       0.1595    352.29363    1.1919927 -0.004617392  0.048546953    182.10457    -13078.16   -4119.7409 
   16000         0.16      353.723    1.1891506 -0.059881399  0.024318832    182.84342   -13079.328   -3845.2934 
   16050       0.1605    353.30023    1.1341388 -0.019989214  -0.03924175    182.62489   -13079.525   -3583.0262 
   16100        0.161    359.37619    1.2335371  0.089558408 -0.042927993    185.76562   -13083.064   -4267.2252 
   16150       0.1615    350.73353    1.2720319  0.029964465 -0.063003819    181.29813   -13079.011   -4129.9751 
   16200        0.162    358.72887    1.3059337  0.085929719 -0.0033354596    185.43102   -13083.558   -4628.4264 
   16250       0.1625    356.96434     1.352504 0.0046146927  0.015576871    184.51891   -13083.064   -4575.6517 
   16300        0.163    352.19175    1.2908635 -0.024541285  0.020632582     182.0519    -13080.95   -4289.8494 
   16350       0.1635    355.04161    1.1988313 -0.091281908  0.023199048    183.52503   -13082.811   -3769.1616 
   16400        0.164    357.39957    1.1900271  -0.09212861  0.055273098    184.74388    -13084.45   -3843.9052 
   16450       0.1645    353.63899    1.1940706 -0.049421835  0.074484938        182.8   -13082.967    -4063.779 
   16500        0.165    353.90496    1.2247482  0.022774374 0.0011813107    182.93748   -13083.552   -4162.3463 
   16550       0.1655    354.88189    1.2207185  0.037211101 0.0051888719    183.44247   -13084.454   -4210.3948 
   16600        0.166    356.57378     1.227085  0.040194147 -0.092845917    184.31702   -13085.699   -3914.7775 
   16650       0.1665    358.05642     1.254793  0.080251857 -0.056977223    185.08342   -13086.862   -4260.2255 
   16700        0.167    344.90422     1.221613  0.011552168  -0.02926105    178.28489   -13080.492   -4013.0137 
   16750       0.1675    360.07855    1.1821461  0.096233367  0.028626454    186.12868    -13088.74   -4356.6865 
   16800        0.168    355.69588    1.1626755  0.010090573 -0.031646179    183.86323   -13086.942   -3803.7331 
   16850       0.1685      354.235    1.0983974 -0.028152356 -0.092865077    183.10808   -13086.605   -3257.9331 
   16900        0.169    351.63825    1.1134378 0.00091891168  -0.01844531    181.76579   -13085.703    -3653.038 
   16950       0.1695    352.04319    1.1819721 -0.010763434   0.10594107    181.97511   -13086.293   -4257.1659 
   17000         0.17    350.13249     1.204955 -0.087238745  0.077453362    180.98745   -13085.662   -3983.8986 
   17050       0.1705    354.63947    1.2214266 -0.051859184  0.013495884    183.31716   -13088.397   -3943.5443 
   17100        0.171    354.08757    1.2626665 0.0029539358 -0.032827382    183.03188   -13088.488   -4109.3102 
   17150       0.1715    348.03079    1.2558842  0.034226009  0.027246254    179.90106   -13085.703   -4391.1881 
   17200        0.172    347.39785    1.1971356  0.081372508  0.051656739    179.57388   -13085.797   -4433.8828 
   17250       0.1725    346.19922    1.1854616 -0.010196838 -0.055257253    178.95429   -13085.578   -3733.3583 
   17300        0.173    354.00544    1.2085992 -0.033161779 -0.075305894    182.98942   -13089.965   -3667.1053 
   17350       0.1735    349.06232    1.3253873  0.015768959 -0.024288844    180.43426   -13087.755   -4389.5581 
   17400        0.174     348.1043    1.4101948  0.027811022  0.053370032    179.93905   -13087.565   -4971.2527 
   17450       0.1745    354.81866    1.4019207  0.032391171  0.050946959    183.40978   -13091.369   -4950.8629 
   17500        0.175     348.3213    1.4025544 -0.089362727  0.023090261    180.05122   -13088.334   -4454.2732 
   17550       0.1755    347.69787    1.3298314 -0.012785644 0.0034857442    179.72897   -13088.356   -4401.7718 
   17600        0.176    344.62613    1.3697595  0.013140996 -0.014358325    178.14115    -13087.07   -4561.8074 
   17650       0.1765    347.64256    1.3421963  0.044439479  0.016430921    179.70037   -13088.932    -4676.889 
   17700        0.177    345.61627    1.3699016  0.038913482 -0.054346647    178.65296   -13088.179   -4514.8947 
   17750       0.1775    342.34225    1.3907058 -0.004855469  -0.07271445    176.96058   -13086.794   -4377.1195 
   17800        0.178    344.39832    1.3426263  0.018174225  0.006540381    178.02339   -13088.152   -4557.8029 
   17850       0.1785    349.34733    1.3641156  0.080307764  0.030630803    180.58159   -13091.008   -4916.8471 
   17900        0.179    351.06788    1.3339998  0.028086174   0.01585224    181.47096   -13092.213   -4593.1275 
   17950       0.1795    345.62478    1.3126475  -0.14149624 -0.020273854    178.65736   -13089.687   -3836.2581 
   18000         0.18    344.92447    1.3824014 -0.087066801  0.040842201    178.29536   -13089.632   -4453.9227 
   18050       0.1805    340.97073    1.4148685 -0.0035158236  0.071412596    176.25163   -13087.895    -4942.551 
   18100        0.181    342.51666    1.4585163  0.062103423  0.079071645    177.05074   -13088.986   -5332.3047 
   18150       0.1815    344.62685    1.3981766  0.073365458  -0.01075544    178.14152   -13090.391   -4869.2888 
   18200        0.182     345.6694    1.3624271 -0.036888772  -0.11560891    178.68043   -13091.162   -4033.0981 
   18250       0.1825    345.89635    1.4052085 -0.029778708  -0.10662633    178.79774   -13091.556   -4229.3448 
   18300        0.183    345.86945    1.4035137  0.054166511  0.074859605    178.78383   -13091.795   -5108.4661 
   18350       0.1835    334.71391    1.3868887  0.025573677  0.060610553    173.01741   -13086.306    -4910.243 
   18400        0.184    344.41507    1.3556809 -0.036575535  0.031170683    178.03205    -13091.59   -4500.9201 
   18450       0.1845    336.79595    1.3208764  -0.10438505   0.01881259    174.09364   -13087.915   -4117.6799 
   18500        0.185    342.17908    1.3818075 -0.040569179 -0.011904457    176.87624   -13090.978    -4431.113 
   18550       0.1855    341.87696    1.5043745 -0.024031075 -0.026081025    176.72007   -13091.062   -4847.5415 
   18600        0.186    339.16056     1.564416  0.094593345  0.036326566    175.31593    -13089.86   -5651.1198 
   18650       0.1865    340.92165    1.5602158  0.065706933 -0.0072447842    176.22626   -13090.984   -5395.5932 
   18700        0.187    340.55217    1.5248634  0.018037297 -0.054102392    176.03527   -13091.004   -4962.6611 
   18750       0.1875    338.26971    1.5198241 -0.035957846 -0.026631369    174.85544   -13090.006   -4857.4496 
   18800        0.188    336.66511    1.5446475  0.061446216 -0.033859359    174.02601   -13089.378   -5240.7813 
   18850       0.1885     339.5682    1.5432903  0.067075258   0.01897758    175.52665   -13091.099   -5431.1437 
   18900        0.189    335.93389    1.5011383 -0.015214083 -0.005284723    173.64803   -13089.411   -4935.4651 
   18950       0.1895    342.68657    1.5859175 -0.071770087  0.047520225    177.13856   -13093.069   -5205.5589 
   19000         0.19    336.50316    1.5587722 -0.074708177  0.037339144    173.94229   -13090.049    -5071.344 
   19050       0.1905    334.73139    1.5477758 -0.040689984  0.059333809    173.02645   -13089.336   -5221.3988 
   19100        0.191    332.39864    1.5595954  0.059703397  0.029483626    171.82062   -13088.302   -5495.9415 
   19150       0.1915    336.84905    1.5365711   0.11214415  -0.05552735    174.12109    -13090.74   -5310.6264 
   19200        0.192    338.65941    1.5122969 -0.023718732  -0.08106335    175.05688   -13091.814   -4691.7161 
   19250       0.1925    338.57249    1.4887551 -0.045089454  -0.02487594    175.01195    -13091.94   -4729.2989 
   19300        0.193    334.17523    1.5520702 -0.026515149  0.032401114    172.73896   -13089.812   -5193.1871 
   19350       0.1935    326.54707    1.5979031  0.050841926  0.099700376    168.79588   -13086.003   -5828.1512 
   19400        0.194    337.24796     1.557092  0.062548393  0.061650616    174.32729   -13091.682   -5604.3033 
   19450       0.1945    332.38918    1.4768643 -0.060386181  -0.10829268    171.81573   -13089.327   -4360.6181 
   19500        0.195     333.5067    1.4936382 -0.0072489773 -0.091991135    172.39339   -13090.048   -4647.9936 
   19550       0.1955     331.4763    1.5787698  0.052104113  0.068429513    171.34385   -13089.106   -5664.3448 
   19600        0.196     336.2949    1.5401915  0.034746443   0.10925853    173.83464   -13091.733   -5613.9882 
   19650       0.1965    333.85162    1.4381774 -0.087885337  0.015208698    172.57168   -13090.646   -4551.6693 
   19700        0.197    331.69794    1.4390967 -0.090898288 -0.037869074    171.45842   -13089.685   -4367.7646 
   19750       0.1975     331.8819    1.5034978 -0.023938383  0.019398836    171.55351   -13089.933   -4996.5274 
   19800        0.198    332.48972    1.5476234  0.031536164  0.020685223     171.8677   -13090.357   -5332.8158 
   19850       0.1985    323.96726    1.5755882  0.051547251 -0.020339965    167.46234   -13086.059   -5355.9848 
   19900        0.199    334.41289    1.5196113  0.091721081   0.01191256    172.86181   -13091.612   -5410.8166 
   19950       0.1995    327.20924    1.5237761 -0.0024456535  -0.11952568    169.13816    -13087.98   -4672.6826 
   20000          0.2    329.34975    1.5165895 -0.048468921 -0.046940402    170.24462   -13089.214   -4737.2672 
Loop time of 337.687 on 4 procs for 20000 steps with 4000 atoms

Pair  time (%) = 274.542 (81.3007)
Neigh time (%) = 0.845433 (0.25036)
Comm  time (%) = 47.6666 (14.1156)
Outpt time (%) = 0.176843 (0.0523689)
Other time (%) = 14.4563 (4.28098)

Nlocal:    1000 ave 1012 max 993 min
Histogram: 2 0 0 0 1 0 0 0 0 1
Nghost:    3665 ave 3689 max 3653 min
Histogram: 2 0 1 0 0 0 0 0 0 1
Neighs:    66449.5 ave 68240 max 65390 min
Histogram: 2 0 0 0 1 0 0 0 0 1
FullNghs:  0 ave 0 max 0 min
Histogram: 4 0 0 0 0 0 0 0 0 0

Total # of neighbors = 265798
Ave neighs/atom = 66.4495
Neighbor list builds = 129
Dangerous builds = 0
All done
done /home/anhvt89/Documents/lammps-28Jun14/bench-src-original/SensitivityAnalysis_ICME2015/posRhoR/
