LAMMPS (28 Jun 2014)
# Input file for uniaxial tensile loading of single crystal aluminum
# Mark Tschopp, November 2010

# ------------------------ INITIALIZATION ----------------------------
units 		metal
dimension	3
boundary	p	p	p
atom_style	atomic
variable latparam equal 4.05

# ----------------------- ATOM DEFINITION ----------------------------
lattice		fcc ${latparam}
lattice		fcc 4.05
Lattice spacing in x,y,z = 4.05 4.05 4.05
region		whole block 0 10 0 10 0 10
create_box	1 whole
Created orthogonal box = (0 0 0) to (40.5 40.5 40.5)
  1 by 2 by 2 MPI processor grid
lattice 	fcc ${latparam} orient x 1 0 0 orient y 0 1 0 orient z 0 0 1
lattice 	fcc 4.05 orient x 1 0 0 orient y 0 1 0 orient z 0 0 1
Lattice spacing in x,y,z = 4.05 4.05 4.05
create_atoms	1 region whole
Created 4000 atoms

# ------------------------ FORCE FIELDS ------------------------------
pair_style	eam/alloy
pair_coeff	* * Al99.negRhoR.eam.alloy Al

# ------------------------- SETTINGS ---------------------------------
compute csym all centro/atom fcc
compute peratom all pe/atom

######################################
# EQUILIBRATION
reset_timestep	0
timestep 0.001
velocity all create 300 12345 mom yes rot no
fix 1 all npt temp 300 300 1 iso 0 0 1 drag 1

# Set thermo output
thermo 50
thermo_style custom step lx ly lz press pxx pyy pzz pe temp

# Run for at least 10 picosecond (assuming 1 fs timestep)
run 20000
Memory usage per processor = 3.04301 Mbytes
Step Lx Ly Lz Press Pxx Pyy Pzz PotEng Temp 
       0         40.5         40.5         40.5   -23994.583   -24043.716   -23956.052   -23983.981    -13381.73          300 
      50    40.165212    40.165212    40.165212    -2857.047   -2916.5943   -2798.0477   -2856.4991   -13296.364      120.717 
     100    39.962236    39.962236    39.962236    9033.6338    9001.5006    9003.3724    9096.0283   -13332.634      196.907 
     150    40.094914    40.094914    40.094914    1068.8488    1051.7938     1139.251    1015.5015   -13318.154    163.26489 
     200    40.206795    40.206795    40.206795   -5727.3369    -5656.107   -5814.1738   -5711.7298   -13315.761    159.26098 
     250    40.128912    40.128912    40.128912   -771.30863   -889.27264   -643.08307   -781.57018   -13313.502    155.85801 
     300    40.054812    40.054812    40.054812    3772.6497    3736.9429    3733.5619    3847.4444   -13313.458    158.67678 
     350    40.103841    40.103841    40.103841    903.09531    814.90607    1026.9779    867.40196   -13310.112    151.83093 
     400    40.158519    40.158519    40.158519   -2729.1829   -2736.9578   -2781.9147   -2668.6762   -13316.604    164.44016 
     450    40.123962    40.123962    40.123962   -478.56446   -540.57798   -369.88599    -525.2294   -13312.503    157.90449 
     500    40.084851    40.084851    40.084851    1903.7079    1905.0708    1883.6289    1922.4239   -13315.387    165.12309 
     550    40.108945    40.108945    40.108945    505.16241    537.18433    594.08727    384.21563   -13313.979     162.8598 
     600    40.140798    40.140798    40.140798   -1546.0003   -1568.0475   -1536.2058   -1533.7477   -13312.667     161.0829 
     650    40.122821    40.122821    40.122821   -434.75859   -586.35492   -354.17469   -363.74615   -13313.454    163.83672 
     700    40.097391    40.097391    40.097391    1271.6468    1218.9909    1222.4914     1373.458   -13314.206    166.65504 
     750     40.11155     40.11155     40.11155    341.37923    222.62914    479.45663    322.05194    -13309.66    159.01107 
     800    40.132342    40.132342    40.132342   -747.38583   -775.41901   -649.69525   -817.04323   -13310.224    160.65497 
     850    40.123897    40.123897    40.123897   -389.05603   -481.97194   -368.75122   -316.44493   -13313.072    167.38594 
     900    40.106292    40.106292    40.106292     719.1071    706.42949    758.60007    692.29174   -13313.084    168.83126 
     950    40.114514    40.114514    40.114514    266.29556    175.30621    371.13538    252.44509   -13311.102    166.06973 
    1000    40.129558    40.129558    40.129558   -647.43343   -678.41038    -600.5739   -663.31601   -13311.775    168.18149 
    1050    40.123175    40.123175    40.123175   -254.79378   -341.04656   -210.88876   -212.44604   -13311.487    168.78787 
    1100    40.110898    40.110898    40.110898    473.09289    426.97556    558.30014    434.00296   -13314.513     175.9615 
    1150    40.116006    40.116006    40.116006    280.05034    224.83963     359.7887     255.5227   -13308.475    165.63365 
    1200    40.127837    40.127837    40.127837   -621.99334   -646.28251     -562.282    -657.4155   -13313.428    175.89348 
    1250    40.123313    40.123313    40.123313   -143.08926    -297.8201    -104.2985   -27.149166   -13308.679    168.09807 
    1300    40.115563    40.115563    40.115563    249.84388    196.73819    362.62491    190.16853   -13311.865    175.28053 
    1350    40.117727    40.117727    40.117727    239.20094    215.85138    222.47514    279.27629   -13308.034    169.21847 
    1400    40.126009    40.126009    40.126009   -288.78614   -333.04003   -288.67295   -244.64545   -13308.604    171.17993 
    1450    40.124531    40.124531    40.124531   -132.99478   -162.91977   -80.036507   -156.02807   -13308.566    172.29048 
    1500    40.117365    40.117365    40.117365    256.28978    225.56089    330.82476     212.4837   -13307.125    170.95498 
    1550    40.118837    40.118837    40.118837    244.81109    235.18598    297.20956    202.03774   -13307.472    172.70949 
    1600    40.127319    40.127319    40.127319   -394.62854    -411.7492   -343.44952    -428.6869   -13308.997    176.49914 
    1650     40.12412     40.12412     40.12412    35.107527   -127.85145    123.28156    109.89248   -13303.274    166.91637 
    1700    40.118697    40.118697    40.118697    312.21433    376.40542    297.85968    262.37788   -13305.926    173.14172 
    1750    40.122281    40.122281    40.122281    55.825014   -119.45495    180.77588    106.15411   -13308.856    179.79531 
    1800    40.127747    40.127747    40.127747   -225.66733   -258.70406   -104.86764   -313.43028   -13305.097    173.68979 
    1850    40.124685    40.124685    40.124685   -13.403242   -98.717193    56.525459    1.9820074    -13305.54    175.79495 
    1900    40.120198    40.120198    40.120198     269.3171    222.76248    294.56952    290.61929   -13304.442    174.90661 
    1950    40.124425    40.124425    40.124425    65.141491   -47.832371    168.84035    74.416497   -13307.187    181.11278 
    2000    40.129468    40.129468    40.129468   -270.77822   -325.08019   -268.95343   -218.30104   -13301.584    171.73216 
    2050    40.124467    40.124467    40.124467   -119.23004   -140.87739   -123.83585   -92.976888   -13308.556    186.16588 
    2100    40.119502    40.119502    40.119502    469.77013    389.26004    633.13311    386.91725   -13302.522    175.85327 
    2150    40.127679    40.127679    40.127679    -144.6756   -258.61023    -51.83263   -123.58395   -13305.613    182.85176 
    2200    40.131338    40.131338    40.131338    -324.5499   -301.92316   -425.06789   -246.65864   -13303.809    180.33526 
    2250      40.1251      40.1251      40.1251   -43.225154   -148.54974    110.82144   -91.947167   -13305.965    185.89672 
    2300    40.121308    40.121308    40.121308    212.51297     235.5655    284.70167    117.27175    -13304.37    184.11639 
    2350    40.127293    40.127293    40.127293    22.600329    26.084471     90.47202   -48.755504    -13303.94    184.13139 
    2400    40.132484    40.132484    40.132484   -327.88898   -359.02221   -294.60919   -330.03553   -13302.133    181.83918 
    2450    40.127501    40.127501    40.127501   -83.215348   -174.23645    22.950344   -98.359936   -13304.744    187.94978 
    2500    40.122313    40.122313    40.122313    362.51389    222.99667    361.97427    502.57072    -13301.29    182.66184 
    2550    40.127354    40.127354    40.127354    75.433437    26.663369    295.60133   -95.964389   -13300.282    181.84353 
    2600    40.132765    40.132765    40.132765    -277.8067    -357.0793   -202.62018   -273.72061   -13302.057    186.24896 
    2650    40.129547    40.129547    40.129547    13.584929    99.795467   -8.2613785     -50.7793   -13299.821    183.20256 
    2700    40.125645    40.125645    40.125645    288.48068    232.72421     342.1699    290.54792   -13300.549    185.78863 
    2750    40.129049    40.129049    40.129049    23.130888   -102.86603    160.72538    11.533311   -13300.931    187.62129 
    2800    40.132734    40.132734    40.132734    -109.5503   -90.682315   -120.98599    -116.9826   -13299.712    186.41183 
    2850    40.131365    40.131365    40.131365   -173.39649   -210.52611   -68.757143   -240.90623   -13300.516    189.09075 
    2900    40.126214    40.126214    40.126214    351.07853     353.3445    366.63146    333.25963   -13298.481    186.47692 
    2950    40.130089    40.130089    40.130089   -34.441085    -69.93676    13.709619   -47.096114   -13302.053    194.34936 
    3000    40.134606    40.134606    40.134606   -143.83497   -42.657368   -168.18189   -220.66565   -13298.176    188.12402 
    3050    40.133387    40.133387    40.133387   -144.29656   -318.27768    42.333052   -156.94506    -13299.49    191.66771 
    3100     40.12784     40.12784     40.12784    224.76683    285.09807    376.82352    12.378886   -13296.206    186.70148 
    3150    40.129169    40.129169    40.129169    193.03505    21.202174    210.43614    347.46683   -13300.937    196.82066 
    3200    40.136149    40.136149    40.136149   -312.46893   -293.31278   -262.86876   -381.22524    -13298.89    193.96623 
    3250    40.134232    40.134232    40.134232   -68.967968   -98.090503    68.031254   -176.84465   -13296.436    190.37811 
    3300    40.128909    40.128909    40.128909    280.27181    261.61229    329.42452    249.77861    -13298.46    195.51791 
    3350    40.132339    40.132339    40.132339    35.839563   -80.210422    182.45461    5.2745033   -13296.146    192.21964 
    3400    40.137214    40.137214    40.137214   -255.33629   -255.07826   -287.43969   -223.49091     -13297.5    195.90862 
    3450    40.133997    40.133997    40.133997    50.101394   -48.969095    104.03042    95.242854   -13295.557    193.40729 
    3500    40.131305    40.131305    40.131305    84.692666    113.81414     85.93709    54.326769   -13298.317    199.70819 
    3550    40.133151    40.133151    40.133151     46.80532   -14.975323    131.19484    24.196445   -13294.684    194.03329 
    3600    40.135824    40.135824    40.135824   -112.23166   -199.92974   -44.044101   -92.721129   -13295.458    196.69143 
    3650    40.134582    40.134582    40.134582    20.171963   -78.817234    129.48662    9.8465011   -13295.744    198.23083 
    3700    40.133983    40.133983    40.133983    65.162834    64.634485   -5.5675284    136.42155   -13295.652    199.26031 
    3750    40.135574    40.135574    40.135574    103.95343    39.687511    129.55059     142.6222   -13292.765    194.79217 
    3800    40.137431    40.137431    40.137431    -89.45653   -209.21939    24.465822   -83.616021   -13294.877    199.95665 
    3850    40.136585    40.136585    40.136585   -68.201831   -150.60545   -35.544078   -18.455962   -13295.165    201.72792 
    3900    40.135276    40.135276    40.135276    44.795666    41.920473    72.969437     19.49709   -13293.741    200.28634 
    3950    40.136441    40.136441    40.136441    24.444918   -34.974987    92.949539    15.360203   -13293.941    201.74983 
    4000    40.138433    40.138433    40.138433   -95.818725      -109.27   -173.96125   -4.2249191   -13293.571    202.03634 
    4050    40.137637    40.137637    40.137637   -24.219043   -21.169389    51.822776   -103.31052   -13292.952    202.01113 
    4100    40.135994    40.135994    40.135994    117.99024    66.446068    155.69242    131.83223   -13292.728    202.78755 
    4150    40.138209    40.138209    40.138209   -42.460162   -151.43266   -14.961626    39.013804   -13293.832    205.92966 
    4200    40.141073    40.141073    40.141073    -128.6144    -194.3117   -156.44568   -35.085818   -13291.605    202.87402 
    4250    40.139415    40.139415    40.139415   -145.30118   -122.12324   -168.20818   -145.57212   -13294.131    208.83661 
    4300    40.135172    40.135172    40.135172    223.35068    103.09996    152.44008    414.51201   -13292.111     206.1056 
    4350    40.138426    40.138426    40.138426    41.710558    27.900226    3.5002551    93.731194   -13290.415    203.99017 
    4400    40.143078    40.143078    40.143078   -254.68736   -238.97249   -294.31102   -230.77856   -13291.636    207.32252 
    4450    40.140711    40.140711    40.140711   -71.879573   -160.71772    56.927354   -111.84835   -13290.987     207.2604 
    4500    40.136713    40.136713    40.136713    328.56585    279.36072    398.94762     307.3892   -13287.745    202.25284 
    4550    40.139685    40.139685    40.139685    20.741983   -16.705289   -7.2075245    86.138761   -13291.979    211.32432 
    4600    40.143097    40.143097    40.143097   -127.23852   -149.38154   -78.265163   -154.06886   -13288.597    206.00449 
    4650    40.141339    40.141339    40.141339   -57.545786   -40.129145    29.435008   -161.94322   -13289.318     208.4933 
    4700    40.137467    40.137467    40.137467    268.04597    202.59771    382.66157    218.87862   -13289.161    209.41228 
    4750    40.141394    40.141394    40.141394   -8.9010002   -38.174518    74.777471   -63.305954   -13289.431    210.97369 
    4800    40.145103    40.145103    40.145103   -276.67227   -250.52994   -163.94758   -415.53929   -13289.768    212.67908 
    4850    40.141933    40.141933    40.141933    35.569126    46.452757   -73.504153    133.75877   -13287.958    210.42706 
    4900    40.139428    40.139428    40.139428    128.31244   -9.8628467    257.73391    137.06626   -13288.782    213.24145 
    4950    40.142289    40.142289    40.142289   -30.911122   -23.009983   -16.540021   -53.183361   -13288.044    212.76287 
    5000    40.145336    40.145336    40.145336   -37.352578   -155.68772    113.10074   -69.470753   -13286.874    211.54967 
    5050    40.144187    40.144187    40.144187   -53.679317   -166.02725    92.794143   -87.804847   -13287.185     213.3791 
    5100    40.141675    40.141675    40.141675    165.87979    114.90549    101.97717     280.7567   -13285.656    211.57578 
    5150    40.143335    40.143335    40.143335    55.845495   -34.204185    122.95552    78.785149   -13286.684    214.71332 
    5200    40.145466    40.145466    40.145466   -41.351873   -164.42257    25.488911     14.87804   -13284.843    212.16122 
    5250    40.145065    40.145065    40.145065    1.8260315   -89.433394     69.37684    25.534648   -13285.987      215.564 
    5300    40.143792    40.143792    40.143792    102.46367    -1.183651    212.16971    96.404942   -13285.014    214.75908 
    5350    40.144191    40.144191    40.144191   -30.173798   -205.99105    55.613123    59.856535   -13286.852    219.26327 
    5400    40.144932    40.144932    40.144932    19.903953    -24.90574    132.39364   -47.776036   -13283.406    213.88912 
    5450    40.145054    40.145054    40.145054    72.137065   -46.028733    111.08709    151.35284   -13283.799    215.70864 
    5500    40.145724    40.145724    40.145724   -42.918591   -158.13673    55.503177   -26.122219   -13285.449     219.9025 
    5550    40.146405    40.146405    40.146405   -20.992678   -8.1012002    81.149654   -136.02649    -13284.51    219.22138 
    5600    40.146513    40.146513    40.146513   -84.784485   -415.93705   -41.706515    203.29011   -13285.733    222.62708 
    5650    40.145611    40.145611    40.145611    78.690011    118.12209    89.924605    28.023338   -13282.923    218.33294 
    5700    40.147064    40.147064    40.147064   -83.583938   -226.19766   -25.078949   0.52479778   -13286.498    226.20274 
    5750    40.148048    40.148048    40.148048   -29.667561   -146.73561   -40.244328    97.977258   -13282.953    220.62603 
    5800     40.14814     40.14814     40.14814   -84.290968   -128.15066    40.958631   -165.68087   -13282.875    221.59669 
    5850    40.147157    40.147157    40.147157    103.22336    47.008436    198.54631    64.115338   -13283.229    223.25598 
    5900    40.148698    40.148698    40.148698    25.639611   -95.638722    104.51971    68.037847   -13282.415    222.62929 
    5950    40.149923    40.149923    40.149923   -59.408933   -130.47649    14.999823   -62.750129   -13282.295    223.46466 
    6000    40.148172    40.148172    40.148172    61.325191    -73.87854    98.258943    159.59517   -13281.096    222.38833 
    6050    40.147538    40.147538    40.147538    51.547137    85.386599    35.339908    33.914903   -13281.653    224.47722 
    6100    40.149411    40.149411    40.149411   -2.1688878   -158.43926     159.6276   -7.6950098   -13282.084    226.28073 
    6150    40.151213    40.151213    40.151213   -110.39004   -146.20923   -112.56614   -72.394747   -13282.554    228.28745 
    6200    40.150957    40.150957    40.150957   -153.38894   -263.47569   -58.467343   -138.22379   -13283.082    230.45759 
    6250    40.149613    40.149613    40.149613   -30.279259   -113.56461   -20.500149    43.226983   -13280.871    227.19615 
    6300    40.149098    40.149098    40.149098     96.53989    119.99813    141.77754    27.844001   -13279.939    226.52175 
    6350    40.150625    40.150625    40.150625    18.531712   -102.32664   -22.462943    180.38471   -13278.464    224.75695 
    6400    40.151809    40.151809    40.151809   -58.750804   -199.09893    60.237746   -37.391231   -13280.631    229.83403 
    6450    40.151579    40.151579    40.151579   -42.177521   -101.51297   -18.822547   -6.1970448   -13280.669    230.85093 
    6500    40.151389    40.151389    40.151389   -16.275774    220.11248   -85.260797     -183.679   -13280.538    231.76606 
    6550    40.151307    40.151307    40.151307    42.310717   -28.524431    52.574162    102.88242   -13277.537    227.11911 
    6600    40.152315    40.152315    40.152315    43.459853    87.928555     89.93544   -47.484438   -13278.934    230.72735 
    6650    40.154394    40.154394    40.154394   -152.06344   -277.09682    60.734208   -239.82771   -13279.529    232.98072 
    6700    40.152903    40.152903    40.152903    86.934359    34.524291    68.609496    157.66929   -13275.809    226.96692 
    6750    40.151683    40.151683    40.151683    53.656924     102.4168    76.648577   -18.094605   -13279.194    234.35358 
    6800    40.151872    40.151872    40.151872    122.81166   -7.8139686    213.60223    162.64672   -13275.615    228.65839 
    6850    40.154125    40.154125    40.154125   -84.667873   -112.61189    42.457028   -183.84875   -13278.144    234.44193 
    6900    40.154697    40.154697    40.154697   -16.332437   -253.80606    157.87568    46.933066   -13276.303    231.84697 
    6950    40.154201    40.154201    40.154201   -25.384688    90.045332   -3.6799011   -162.51949   -13277.718    235.56906 
    7000    40.153012    40.153012    40.153012    3.5444843    -273.2224    49.103163    234.75269   -13277.851    236.91748 
    7050    40.153178    40.153178    40.153178    112.97992    50.980569    203.71334    84.245847   -13274.874    232.21257 
    7100    40.155404    40.155404    40.155404   -94.755092   -147.00968   -199.73051    62.474914   -13277.114    237.60157 
    7150    40.155839    40.155839    40.155839   -141.44066   -172.19756   -117.50122   -134.62319   -13277.695    239.61588 
    7200    40.154131    40.154131    40.154131    76.612169    39.022217    183.25607    7.5582183   -13274.779    235.09564 
    7250    40.154411    40.154411    40.154411    122.45134    15.659116    44.125645    307.56924   -13275.155    236.71642 
    7300    40.157474    40.157474    40.157474   -78.882116    1.4483144   -142.73992   -95.354746   -13273.017    233.72055 
    7350    40.157664    40.157664    40.157664   -82.817383   -157.63798   -12.094591   -78.719574   -13275.349    239.04098 
    7400    40.155179    40.155179    40.155179    63.409371    5.8419627    145.94558    38.440571   -13274.529    238.59345 
    7450     40.15612     40.15612     40.15612    6.7464367    57.540855   -127.60762    90.306079   -13275.382    241.16722 
    7500    40.157832    40.157832    40.157832   -66.089037   -114.56758    26.845614   -110.54514   -13272.538    236.70211 
    7550    40.156521    40.156521    40.156521    79.536091   -99.021332    56.871572    280.75803    -13272.97    238.44517 
    7600    40.157179    40.157179    40.157179     15.48135    117.69475    93.864207   -165.11491   -13274.848     243.0785 
    7650    40.158584    40.158584    40.158584    -60.54323  -0.40295788    -272.6663    91.439567   -13271.801    238.25867 
    7700    40.158651    40.158651    40.158651   -97.741842   -39.272873   -124.69227   -129.26039   -13273.178    241.84848 
    7750     40.15748     40.15748     40.15748    67.338812   -38.164391    76.969525     163.2113   -13273.413     243.2978 
    7800    40.158924    40.158924    40.158924   -52.197056   -244.38027    135.39545   -47.606346    -13272.42    242.34124 
    7850    40.159654    40.159654    40.159654   -55.571987   -192.19084   -58.289465    83.764348   -13272.727    243.83459 
    7900    40.159092    40.159092    40.159092    106.96178    190.77614    27.027031    103.08215   -13271.526    242.45454 
    7950    40.160405    40.160405    40.160405   -29.413281   -200.89807   -32.966297    145.62453   -13271.343    243.10086 
    8000     40.16091     40.16091     40.16091   -58.564809   -111.61686    -19.30025   -44.777316   -13271.244    243.84562 
    8050    40.160064    40.160064    40.160064   -33.513956    -20.00719    -43.46663   -37.068047   -13272.242    246.69907 
    8100    40.159373    40.159373    40.159373     24.29924   -232.68267    198.58523    106.99516   -13271.427    246.03861 
    8150    40.160313    40.160313    40.160313    24.851049   -140.13241    3.2709862    211.41457   -13269.778    243.87817 
    8200    40.161972    40.161972    40.161972   -22.376947    -86.85944   -8.9180154    28.646615    -13270.36    245.96704 
    8250    40.161855    40.161855    40.161855    91.835169    5.5998166    140.77181    129.13388   -13267.362    241.09155 
    8300    40.161623    40.161623    40.161623   -13.844846   -82.293822    15.329141    25.430143   -13270.894    248.71538 
    8350    40.161842    40.161842    40.161842   -38.055808   -150.75302    47.756988   -11.171392   -13271.184    250.23591 
    8400    40.162445    40.162445    40.162445    48.371274   -64.618714      179.273    30.459539   -13268.675    246.42103 
    8450    40.162841    40.162841    40.162841   -8.7001562   -90.402287   -15.734436    80.036254   -13267.698    245.43232 
    8500    40.162176    40.162176    40.162176   -14.168733   -238.80017    78.453497    117.84047   -13269.343    249.62867 
    8550    40.161527    40.161527    40.161527    28.079422   -16.942554    146.86348   -45.682662   -13270.293    252.26299 
    8600    40.161875    40.161875    40.161875    108.54041   -61.091604    96.158093    290.55473    -13266.07    245.15547 
    8650    40.163625    40.163625    40.163625    7.8521132   -232.44584    270.00136   -13.999176   -13267.622    249.03691 
    8700    40.164555    40.164555    40.164555   -127.05855   -91.149384   -371.56503    81.538774   -13269.179    252.85093 
    8750    40.163145    40.163145    40.163145   -36.531533   -234.14982     216.0737    -91.51848   -13268.782    253.05197 
    8800    40.161967    40.161967    40.161967    86.429352   -80.553604    12.697909    327.14375   -13266.854     250.3444 
    8850     40.16342     40.16342     40.16342   -35.316019   -128.62473    85.494808   -62.818138   -13268.164    253.58432 
    8900    40.164905    40.164905    40.164905   -82.941278   -58.161958   -200.30887     9.646997   -13268.055    254.26574 
    8950    40.164514    40.164514    40.164514    8.0616322   -67.705112    27.921948     63.96806   -13267.108    253.37811 
    9000    40.164488    40.164488    40.164488   -58.118161   -48.523802    26.437775   -152.26846   -13267.223    254.53861 
    9050    40.164342    40.164342    40.164342     152.6706    80.928158   -26.419533    403.50318   -13265.562    252.13098 
    9100    40.166174    40.166174    40.166174   -48.818446   -130.56861    100.31498   -116.20172   -13265.309    252.49934 
    9150    40.165856    40.165856    40.165856   -16.065889   -154.83841    69.875884    36.764859   -13265.095     252.9627 
    9200    40.164344    40.164344    40.164344    81.934926   -71.812964    142.62861    174.98913    -13267.13    257.77427 
    9250    40.165045    40.165045    40.165045    33.496856   -107.18387   -92.253519    299.92795   -13265.922    256.21316 
    9300    40.166881    40.166881    40.166881   -8.2432018   -160.42222     164.2497   -28.557084    -13263.57    252.63989 
    9350    40.166287    40.166287    40.166287   -24.455428    61.775004   -97.433312   -37.707976   -13265.733    257.63802 
    9400    40.164986    40.164986    40.164986     30.52276   -146.40667    57.857799    180.11715   -13265.643    258.34776 
    9450    40.166042    40.166042    40.166042    110.02665    30.820283    104.68352    194.57615   -13262.294    252.78845 
    9500    40.167648    40.167648    40.167648   -25.205905   -46.051486   -37.957259    8.3910282   -13264.366    257.53735 
    9550    40.166824    40.166824    40.166824   -38.384142  -0.99490456   -60.650192   -53.507329    -13264.23    258.15926 
    9600    40.165943    40.165943    40.165943    64.440049   -67.933839      184.803    76.450991   -13264.755    259.94355 
    9650    40.167442    40.167442    40.167442    64.970426    189.21798   -46.409725    52.103023    -13263.61    258.50216 
    9700    40.169593    40.169593    40.169593   -152.35671    -254.4603   -61.834808   -140.77502   -13264.466    261.06742 
    9750    40.168059    40.168059    40.168059    5.1988656   -160.92941    23.638762    152.88724   -13263.689    260.35139 
    9800    40.166738    40.166738    40.166738    178.29867    133.59347    181.59249    219.71004   -13262.573      259.093 
    9850     40.16987     40.16987     40.16987   -181.08158    -78.77136   -230.97068   -233.50271   -13263.587    261.87142 
    9900    40.169902    40.169902    40.169902   -79.405061   -18.760793   -105.39123   -114.06316   -13263.699    262.82323 
    9950    40.167721    40.167721    40.167721    117.76384    -78.33653    347.78775    83.840296   -13261.363    259.25907 
   10000    40.167962    40.167962    40.167962    48.127454    189.06553    12.164979   -56.848142   -13262.834    262.84191 
   10050    40.170278    40.170278    40.170278   -78.891835   -140.95765   -68.288423    -27.42943   -13261.879    261.71939 
   10100    40.171025    40.171025    40.171025   -31.497676   -1.2420932    2.9100473   -96.160983   -13261.635     262.0586 
   10150     40.16967     40.16967     40.16967    38.412692    152.20982   -18.448467   -18.523276   -13262.103    263.80167 
   10200    40.169429    40.169429    40.169429    78.436908    137.35288     93.35648    4.6013609   -13262.041    264.37212 
   10250    40.171422    40.171422    40.171422   -35.504054    -20.23386    23.448143   -109.72644   -13260.326    261.95548 
   10300    40.172619    40.172619    40.172619   -156.50553   -216.18296   -126.10387   -127.22976   -13262.072    266.07111 
   10350    40.169548    40.169548    40.169548    128.55538    152.29116    121.52683    111.84813   -13258.664    260.40019 
   10400    40.169023    40.169023    40.169023    85.453509    194.80162   -1.4643317    63.023235   -13261.977    267.41362 
   10450    40.172249    40.172249    40.172249    6.6879167   -53.703174    181.36887   -107.60195   -13259.807    264.06136 
   10500    40.174419    40.174419    40.174419   -132.44268    61.006008   -196.84896   -261.48508   -13260.015    265.14586 
   10550    40.171627    40.171627    40.171627    6.3212666   -284.90275    114.58936    189.27719   -13260.094    266.12094 
   10600    40.169687    40.169687    40.169687     158.2443    413.04646    45.903367    15.783086   -13260.099    266.83194 
   10650    40.173311    40.173311    40.173311   -55.002026   -163.06198   -39.141964    37.197866   -13260.808    268.81381 
   10700    40.174927    40.174927    40.174927   -144.27818    169.79423    -368.0759   -234.55287   -13259.934     268.0084 
   10750    40.171496    40.171496    40.171496    69.679529    119.40205    113.09673   -23.460188   -13258.914    266.85271 
   10800    40.171233    40.171233    40.171233    53.613458    56.690684    66.686458    37.463232   -13260.729    270.96361 
   10850    40.173844    40.173844    40.173844     44.13682    159.08594   -112.69932    86.023843   -13257.782    265.96773 
   10900     40.17549     40.17549     40.17549   -150.70288   -27.191687   -211.51818   -213.39877   -13259.116    269.26558 
   10950    40.173429    40.173429    40.173429    15.563449    189.00756   -81.692988   -60.624221   -13257.533    267.02221 
   11000    40.171881    40.171881    40.171881    158.54891     329.7366    119.94715    25.962976   -13257.596    267.77023 
   11050    40.173344    40.173344    40.173344    17.998745    77.744181   -17.502359   -6.2455879   -13259.283    271.73192 
   11100    40.175249    40.175249    40.175249   -72.376967   -90.157337    2.5478166   -129.52138   -13256.779    267.67879 
   11150     40.17444     40.17444     40.17444    26.238853     19.75646   -86.699244    145.65934   -13257.518    269.73529 
   11200    40.173634    40.173634    40.173634    39.331671    280.03982    30.163974   -192.20878   -13257.857    271.14429 
   11250    40.174656    40.174656    40.174656    51.306562    85.494592    17.072916    51.352177   -13255.821    267.92995 
   11300    40.176298    40.176298    40.176298   -76.896099    122.64672   -128.10488   -225.23014   -13259.119    274.90398 
   11350    40.176069    40.176069    40.176069   -53.602319   -26.060866    43.761573   -178.50767   -13256.608    270.79445 
   11400    40.173762    40.173762    40.173762    197.44729     316.4317    214.54724    61.362923   -13255.657    269.66811 
   11450    40.175164    40.175164    40.175164   -7.8212702    45.716508      22.4018   -91.582118   -13256.737    272.39121 
   11500    40.176681    40.176681    40.176681    120.31814    281.96086    98.947086   -19.953517   -13254.062    267.84694 
   11550    40.177697    40.177697    40.177697   -52.046107   -45.362034    338.96983   -449.74612   -13255.403    271.14862 
   11600     40.17563     40.17563     40.17563    105.47037    215.29914    137.50217   -36.390209    -13256.04    273.08372 
   11650    40.175854    40.175854    40.175854    4.1793238    221.45791    39.621199   -248.54114   -13257.815    277.05168 
   11700    40.176926    40.176926    40.176926    -12.60889 -0.061111728   -143.98372    106.21816   -13254.902    272.18701 
   11750    40.177379    40.177379    40.177379   -127.34029   -1.5806565   -63.122404   -317.31782   -13257.808    278.38477 
   11800    40.175254    40.175254    40.175254    164.90345    240.84932    210.60368    43.257351   -13253.655    271.07475 
   11850    40.176431    40.176431    40.176431    104.46082    312.63033    111.15913     -110.407   -13253.375    271.19016 
   11900    40.179165    40.179165    40.179165   -152.23054     7.319744   -166.59672   -297.41466   -13255.206    275.32242 
   11950    40.177161    40.177161    40.177161    34.130005   -86.703702    270.28368   -81.189966   -13253.989    273.61285 
   12000    40.175244    40.175244    40.175244    222.90692    401.86843    107.24732    159.60502   -13253.907    274.05171 
   12050    40.178672    40.178672    40.178672  -0.69409282   -1.5274057    184.22853    -184.7834   -13254.502    275.76873 
   12100    40.181121    40.181121    40.181121   -170.36861   -192.61986    -236.7459   -81.740069   -13253.991    275.49395 
   12150    40.177664    40.177664    40.177664    32.773497   -29.080551    214.73142   -87.330375   -13253.945    275.97419 
   12200    40.175014    40.175014    40.175014    178.21994    192.95426     328.3557    13.349852     -13254.9    278.50166 
   12250    40.178863    40.178863    40.178863   -5.2362347   -97.334733    142.60857    -60.98254     -13253.2    275.84274 
   12300    40.182086    40.182086    40.182086   -254.33032   -434.00547   -64.473563   -264.51194   -13254.603    279.19676 
   12350    40.177968    40.177968    40.177968   -16.381742   -132.15892   -3.2198992    86.233594    -13255.55    281.41439 
   12400    40.175803    40.175803    40.175803    198.21316    270.01173    296.58679    28.040969   -13254.255    279.62714 
   12450    40.180374    40.180374    40.180374   -100.00253   -198.88381    72.565461   -173.68925   -13253.417    278.68143 
   12500    40.181891    40.181891    40.181891   -205.60111   -89.895002   -136.86581   -390.04253    -13253.65    279.48651 
   12550    40.177677    40.177677    40.177677    150.75187    78.703635    291.22675    82.325213    -13254.42     281.5689 
   12600     40.17851     40.17851     40.17851    115.32772    293.14631    154.02866   -101.19179   -13253.518     280.5403 
   12650    40.182332    40.182332    40.182332   -218.26696   -200.51387   -256.72577   -197.56124   -13253.178     280.3407 
   12700    40.180139    40.180139    40.180139   -40.535119   -39.731609   -45.249391   -36.624357   -13253.053    280.74676 
   12750    40.177273    40.177273    40.177273    153.59198    142.64158      289.084    29.050362   -13252.034    279.41248 
   12800    40.178892    40.178892    40.178892    76.281133    168.83995    165.12757   -105.12413   -13252.182    280.17399 
   12850    40.181708    40.181708    40.181708   -162.83619   -237.57688   -205.02809   -45.903597   -13253.428    283.06693 
   12900    40.180438    40.180438    40.180438    140.38266    228.67515     274.3622    -81.88937    -13249.79     276.7443 
   12950     40.18013     40.18013     40.18013    71.046284     -9.96631    83.543659     139.5615   -13250.911    279.37287 
   13000    40.181288    40.181288    40.181288   -34.589496   -10.447955   -30.270139   -63.050393    -13251.61    281.21105 
   13050    40.180878    40.180878    40.180878   -49.957503   -46.688186   -11.041628   -92.142694   -13251.186    281.04661 
   13100    40.179786    40.179786    40.179786    7.8665538   -120.90598    28.998286    115.50735   -13254.546    287.97839 
   13150    40.180779    40.180779    40.180779    -3.863067    53.138786    56.096312    -120.8243   -13251.726     283.1265 
   13200    40.182126    40.182126    40.182126   -116.24758   -143.33132   -69.422371   -135.98906   -13253.894    287.78114 
   13250    40.182101    40.182101    40.182101   -58.867605    99.808512   -188.31874   -88.092589   -13249.257    279.46902 
   13300     40.18056     40.18056     40.18056   -45.362294   -7.8062582     139.1987   -267.47933   -13252.182    285.53104 
   13350    40.179185    40.179185    40.179185     221.6862    281.41314    269.30403    114.34142   -13250.431    282.60458 
   13400    40.183667    40.183667    40.183667   -207.93562   -361.00099   -38.388524   -224.41736   -13253.783    289.46121 
   13450    40.184325    40.184325    40.184325   -155.07073   -100.11074   -132.06167   -233.03979    -13251.15    284.90774 
   13500    40.180782    40.180782    40.180782    123.34749     74.18198    243.70164    52.158851   -13251.298    285.73749 
   13550    40.180687    40.180687    40.180687    209.47152    291.53773    320.91262     15.96422   -13247.786    279.63169 
   13600     40.18484     40.18484     40.18484   -135.60229    -164.2057    146.51091   -389.11207   -13249.942    284.16291 
   13650    40.184148    40.184148    40.184148   -167.23776   -191.36907   -113.54329   -196.80093   -13251.441    287.55554 
   13700     40.17883     40.17883     40.17883    280.10539    95.141145    437.18992    307.98512   -13247.546    280.60209 
   13750    40.180186    40.180186    40.180186    109.39948    54.969086    181.02619    92.203175   -13250.781     287.3266 
   13800    40.184596    40.184596    40.184596   -71.560864   -72.695647   -52.299257   -89.687687   -13248.512    283.35071 
   13850    40.185076    40.185076    40.185076   -153.75061     37.37129   -9.6871435   -488.93597   -13249.596     285.9351 
   13900    40.180554    40.180554    40.180554    209.69843    172.12801    430.33027    26.637021   -13248.774    284.76962 
   13950    40.181486    40.181486    40.181486    260.22347    377.45692    200.19626    203.01722   -13247.644    283.02736 
   14000    40.187753    40.187753    40.187753   -293.92136   -81.948145   -396.70048   -403.11546   -13249.492    286.96819 
   14050    40.185266    40.185266    40.185266   -4.2706786    108.90423    -39.85926   -81.857008   -13248.434    285.41648 
   14100    40.181579    40.181579    40.181579    50.422853   -13.813725     91.97293    73.109353   -13249.643    288.25467 
   14150    40.181104    40.181104    40.181104    230.42769    209.70368    495.21657   -13.637186   -13248.144    285.83372 
   14200     40.18639     40.18639     40.18639     -246.221   -104.34712   -282.36641   -351.94947   -13250.972    291.69672 
   14250    40.186765    40.186765    40.186765   -143.10925   -226.88763   -10.607268   -191.83284   -13249.884    289.86983 
   14300    40.183084    40.183084    40.183084    122.16519    209.82914   -12.986212    169.65265   -13248.125    286.97412 
   14350    40.182724    40.182724    40.182724    1.4167837   -102.10205    186.29753   -79.945128   -13249.903    290.79744 
   14400    40.183917    40.183917    40.183917    167.77752   -12.383562    181.00349    334.71264   -13246.198    284.05887 
   14450     40.18648     40.18648     40.18648   -252.26938   -360.18254   -104.08096   -292.54463   -13250.328    292.43762 
   14500    40.183481    40.183481    40.183481    164.31865    237.19605    102.68718    153.07273   -13246.157    284.86448 
   14550    40.183173    40.183173    40.183173    143.74877     254.0766    337.60734   -160.43764   -13247.366    287.64622 
   14600    40.186183    40.186183    40.186183   -58.234708   -1.7412943   -90.780174   -82.182657   -13248.584    290.26874 
   14650    40.187017    40.187017    40.187017   -154.85431   -245.11035   -99.399279   -120.05331   -13246.789    287.25705 
   14700     40.18344     40.18344     40.18344    49.717757    46.344547    85.862596    16.946129    -13247.92    289.93523 
   14750    40.183022    40.183022    40.183022    1.8246849    178.72015   -50.109096     -123.137   -13251.051    296.19008 
   14800    40.185516    40.185516    40.185516    52.860329    153.62125    74.509163   -69.549426   -13246.601    288.03241 
   14850    40.187569    40.187569    40.187569   -149.37252   -131.16898    43.072027   -360.02061   -13247.421    289.96768 
   14900    40.184724    40.184724    40.184724   -31.574377    121.95363   -58.131931   -158.54483   -13250.346    295.92492 
   14950    40.182873    40.182873    40.182873     193.2589    224.00933    324.32203     31.44534   -13246.476    289.00118 
   15000    40.187823    40.187823    40.187823   -104.34017   -85.843893    -157.2557   -69.920899   -13247.665    291.65167 
   15050    40.188849    40.188849    40.188849   -157.73457   -84.333869   -20.281072   -368.58877   -13247.059    290.67555 
   15100    40.183031    40.183031    40.183031    151.63119    302.06518    61.492509    91.335892   -13245.897    289.02853 
   15150    40.182959    40.182959    40.182959    228.18105    472.98601    73.106739     138.4504   -13245.298    288.15593 
   15200    40.187975    40.187975    40.187975   -15.575266    154.44922   -52.573524   -148.60149    -13245.85     289.4843 
   15250    40.189726    40.189726    40.189726     -342.356   -398.50244   -318.02316    -310.5424   -13248.096    294.15707 
   15300    40.183805    40.183805    40.183805     177.5005    185.62169    186.52947    160.35033   -13246.414     291.3187 
   15350    40.182908    40.182908    40.182908    194.28628    299.41256    227.45054    55.995747   -13247.402    293.58179 
   15400    40.190178    40.190178    40.190178   -258.08927   -111.42515   -328.21984   -334.62283   -13248.172    295.28083 
   15450    40.190793    40.190793    40.190793   -181.32619   -239.68586    46.263617   -350.55632   -13244.272    288.17478 
   15500    40.184385    40.184385    40.184385    230.80835    297.41052    296.50745    98.507084   -13245.058    290.07484 
   15550    40.183262    40.183262    40.183262    184.12677    216.46396    317.07361    18.842749   -13246.409    292.96647 
   15600    40.188051    40.188051    40.188051   -92.179344    59.492943   -88.973327   -247.05765   -13246.532    293.51827 
   15650    40.190677    40.190677    40.190677   -175.55928    78.859274   -376.59659   -228.94051   -13245.294     291.4162 
   15700    40.187663    40.187663    40.187663   -4.8866198   -62.527888    137.71918   -89.851154   -13247.299    295.63984 
   15750    40.184879    40.184879    40.184879    210.61878    362.69556    110.26241    158.89836   -13244.729    291.03137 
   15800    40.188323    40.188323    40.188323   -118.10301   -300.88597    20.919302    -74.34235   -13246.336    294.45146 
   15850     40.18947     40.18947     40.18947   -148.75854    45.105957   -226.50173   -264.87984   -13245.782    293.54735 
   15900    40.185551    40.185551    40.185551    175.78607    31.740212    224.16086    271.45715   -13244.224    290.93448 
   15950    40.185333    40.185333    40.185333    164.90832    394.41665    176.66872    -76.36042   -13244.878    292.57465 
   16000    40.189799    40.189799    40.189799   -68.769997    24.844139   -102.61557   -128.53856    -13244.38    291.81554 
   16050    40.190471    40.190471    40.190471   -54.750234   -4.2335951   -127.29565   -32.721454   -13243.581    290.49629 
   16100    40.186428    40.186428    40.186428    210.96441    117.23496    189.25749    326.40077   -13242.867      289.513 
   16150    40.185765    40.185765    40.185765    87.501727    104.44195   -1.0451686     159.1084   -13246.199    296.19543 
   16200    40.187965    40.187965    40.187965    59.401226    152.49058   -93.228655    118.94175   -13243.433     291.1602 
   16250    40.190598    40.190598    40.190598   -139.67695   -52.084144   -171.30084   -195.64587   -13245.949    296.20777 
   16300     40.18822     40.18822     40.18822    109.02951    135.76052    98.378324     92.94969   -13243.159    291.16494 
   16350    40.186454    40.186454    40.186454    49.449466   -49.159836     186.0911    11.417129   -13245.002    294.96398 
   16400    40.187675    40.187675    40.187675   -6.6433235     271.7815   -144.76563   -146.94584   -13245.469    296.15271 
   16450     40.18951     40.18951     40.18951   -74.766361   -157.22012     -114.098    47.019039   -13244.173    293.98298 
   16500    40.189025    40.189025    40.189025   -124.82272    1.6408528   -182.72482   -193.38419   -13246.435    298.48711 
   16550    40.186834    40.186834    40.186834    117.48006    96.457275   -53.465914    309.44883   -13244.695    295.34195 
   16600    40.187354    40.187354    40.187354    151.71091    171.83006    162.06182    121.24085   -13242.809    292.03648 
   16650    40.189306    40.189306    40.189306   -128.87731    42.927973   -335.66328   -93.896638   -13246.349    299.01958 
   16700    40.188536    40.188536    40.188536     104.3488    47.329883    103.95531     161.7612   -13243.785    294.34413 
   16750    40.189089    40.189089    40.189089    68.532411    140.12288   -15.994229    81.468585   -13242.403    291.94035 
   16800    40.189703    40.189703    40.189703   -50.080034    336.39772   -455.52035   -31.117473   -13243.027    293.34054 
   16850    40.187909    40.187909    40.187909    40.703715    -75.45501    25.851682    171.71447   -13245.723    298.79558 
   16900    40.188374    40.188374    40.188374    62.569149    375.90139   -126.26572   -61.928227   -13243.612       295.04 
   16950     40.19049     40.19049     40.19049   -104.63428   -80.093459   -234.67732   0.86795486   -13244.505    296.83387 
   17000    40.189073    40.189073    40.189073    12.986875    59.715296    4.9852911   -25.739963   -13243.385     294.9386 
   17050    40.187766    40.187766    40.187766    86.426262    196.03144     197.5202   -134.27285    -13244.41    297.15709 
   17100    40.188784    40.188784    40.188784    45.810109    208.75112   -9.6265561   -61.694235    -13242.74     294.2094 
   17150    40.190037    40.190037    40.190037   -23.320699    -134.6254    42.963446    21.699853   -13242.778    294.39771 
   17200    40.188781    40.188781    40.188781    36.420619    182.51993    22.583272   -95.841345     -13244.5    297.88127 
   17250    40.188115    40.188115    40.188115    77.621265    9.6183264    109.90803    113.33744   -13243.484    296.16636 
   17300    40.189244    40.189244    40.189244   -32.219881   -45.019956   -33.409451   -18.230236   -13243.698    296.77583 
   17350    40.189535    40.189535    40.189535    -37.53723   -156.20781   -85.418168    129.01428   -13244.449    298.46028 
   17400    40.189546    40.189546    40.189546    -54.49367   -100.83189    77.141273   -139.79039   -13244.641    298.96076 
   17450    40.189733    40.189733    40.189733   -5.3600144    22.378583   -122.69605    84.237425    -13244.45    298.78775 
   17500    40.190105    40.190105    40.190105   -52.836474   -13.183917   -17.915229   -127.41028   -13243.348     296.9447 
   17550    40.189839    40.189839    40.189839   -9.8388854   -141.78626   -112.06149    224.33109    -13244.12     298.5184 
   17600    40.189811    40.189811    40.189811    26.582789    94.658629   -18.006108    3.0958461   -13242.742    296.01956 
   17650     40.18954     40.18954     40.18954   -19.572015   -130.86789    102.12771   -29.975869   -13244.435    299.47089 
   17700    40.188479    40.188479    40.188479     65.20823     23.29826    144.84912     27.47731   -13243.228    297.38279 
   17750     40.19007     40.19007     40.19007   -80.214126   -92.103604   -11.058136   -137.48064   -13244.404    299.78904 
   17800    40.190938    40.190938    40.190938   -100.27024   -136.90317    39.591565   -203.49911    -13244.27    299.59173 
   17850    40.189403    40.189403    40.189403   -27.465298    79.711641   -212.73992    50.632383   -13244.075    299.46158 
   17900    40.188599    40.188599    40.188599    65.711003     51.52734   -25.923071    171.52874   -13243.181    297.79612 
   17950    40.189259    40.189259    40.189259   -6.8202722    18.117035   -50.266853    11.689001   -13244.036    299.52738 
   18000    40.191014    40.191014    40.191014   -50.322141   -94.459434    68.701275   -125.20826    -13245.28    302.01063 
   18050    40.192254    40.192254    40.192254   -212.78022   -156.53711   -482.68734   0.88379654   -13244.862    301.44816 
   18100    40.188759    40.188759    40.188759    145.64395    76.524521    376.09337   -15.686055   -13242.151    296.46789 
   18150    40.189289    40.189289    40.189289     20.86222   -62.616738   -37.332508    162.53591   -13244.333    300.76921 
   18200    40.191766    40.191766    40.191766   -156.00305     103.4303   -263.44436    -307.9951   -13244.161    300.47854 
   18250    40.191243    40.191243    40.191243   -48.782127   -66.765981   -12.661132   -66.919268   -13243.399    299.16918 
   18300    40.189812    40.189812    40.189812    13.386078   -96.451296   -78.572554    215.18208   -13243.539    299.56914 
   18350    40.189546    40.189546    40.189546   -55.756149    109.46858   -70.495309   -206.24172   -13243.169     298.9873 
   18400    40.189293    40.189293    40.189293    176.48293    176.30681    143.06165    210.08034   -13240.289    293.61405 
   18450    40.191349    40.191349    40.191349    -107.0373    -18.10579   -93.611821   -209.39429   -13244.685    302.02635 
   18500    40.190559    40.190559    40.190559    54.924801    47.444031    17.948855    99.381519    -13242.27    297.59663 
   18550    40.190234    40.190234    40.190234    80.552865   -20.050089     246.1475    15.561184   -13241.159     295.5671 
   18600     40.19063     40.19063     40.19063    -16.39321    41.551822    102.91776   -193.64922   -13243.675    300.49574 
   18650     40.19013     40.19013     40.19013   -16.823935    38.958982   -231.03847    141.60768   -13243.228    299.87463 
   18700    40.190135    40.190135    40.190135   -18.985648   -135.71078     326.7201   -247.96626   -13243.863    301.07147 
   18750     40.19071     40.19071     40.19071   -37.005356   -118.79079   -40.271405    48.046131   -13244.375    302.09235 
   18800    40.190705    40.190705    40.190705   -71.841893    -187.4632    102.37485   -130.43732   -13242.787    299.32812 
   18850    40.189535    40.189535    40.189535    101.39585    182.04367    99.660413    22.483468   -13243.082     299.8117 
   18900    40.190471    40.190471    40.190471    30.854176    -68.38872    69.966109     90.98514   -13241.322    296.61518 
   18950    40.191996    40.191996    40.191996   -104.91219    37.426377   -244.53736   -107.62557   -13242.755    299.39283 
   19000    40.190143    40.190143    40.190143    10.059538   -177.16038    70.755414    136.58358   -13242.603    299.24064 
   19050    40.188844    40.188844    40.188844    228.82844    168.21228    351.65678    166.61626   -13240.866    295.87006 
   19100    40.191461    40.191461    40.191461    26.154632   -34.252435    28.343089    84.373241   -13240.591    295.42116 
   19150    40.191927    40.191927    40.191927   -114.32822   -253.67177    19.905668   -109.21855   -13243.211     300.5755 
   19200      40.1897      40.1897      40.1897    123.61413     85.15412    57.876141    227.81213   -13241.516    297.46619 
   19250    40.190016    40.190016    40.190016    114.81994   -23.121185    412.27871   -44.697705   -13240.295    295.23286 
   19300    40.191457    40.191457    40.191457   -77.999191   -202.85837   -53.675709    22.536508   -13242.263    298.89606 
   19350    40.190258    40.190258    40.190258   -25.101944   -236.99704    178.27919   -16.587981   -13244.625    303.45978 
   19400    40.189622    40.189622    40.189622    149.00576    146.98903    191.15831    108.86995   -13241.196    297.04087 
   19450     40.19256     40.19256     40.19256   -124.84886   -281.07413   -3.9540922   -89.518349   -13243.834    302.13893 
   19500    40.192472    40.192472    40.192472   -202.18695   -317.87649   -236.25217   -52.432193    -13245.25    304.93438 
   19550    40.189716    40.189716    40.189716    220.75298    356.34006    338.82338   -32.904515   -13240.271    295.45801 
   19600    40.191163    40.191163    40.191163   -47.916458   -181.62252     49.36145   -11.488299   -13242.701    300.08142 
   19650    40.190856    40.190856    40.190856   -18.070139   -77.234015   -67.442436    90.466034   -13243.289    301.28101 
   19700    40.190283    40.190283    40.190283    25.354396   -103.81562    80.440626    99.438182   -13241.219    297.41097 
   19750    40.190459    40.190459    40.190459    60.572721    284.58478    12.776857   -115.64348   -13241.271    297.41988 
   19800    40.190934    40.190934    40.190934   -16.931041   -52.705772    5.4774454   -3.5647971   -13241.603    298.21208 
   19850    40.190573    40.190573    40.190573    120.93058    197.74954    154.50118    10.541008   -13240.886    296.79983 
   19900    40.191005    40.191005    40.191005   -96.617828   -136.64055   -84.489736   -68.723196   -13244.273    303.39481 
   19950    40.190327    40.190327    40.190327    114.46776   -72.369015    28.232211    387.54007   -13241.358    297.83505 
   20000    40.191813    40.191813    40.191813   -86.141193    114.94533   -28.648249   -344.72066   -13242.753    300.56732 
Loop time of 430.529 on 4 procs for 20000 steps with 4000 atoms

Pair  time (%) = 308.351 (71.6214)
Neigh time (%) = 0.00660402 (0.00153393)
Comm  time (%) = 87.7441 (20.3805)
Outpt time (%) = 0.358731 (0.0833232)
Other time (%) = 34.0685 (7.91317)

Nlocal:    1000 ave 1012 max 982 min
Histogram: 1 0 0 0 0 0 1 1 0 1
Nghost:    4235 ave 4253 max 4223 min
Histogram: 1 0 1 1 0 0 0 0 0 1
Neighs:    70303 ave 73601 max 65763 min
Histogram: 1 0 0 0 0 1 0 0 1 1
FullNghs:  0 ave 0 max 0 min
Histogram: 4 0 0 0 0 0 0 0 0 0

Total # of neighbors = 281212
Ave neighs/atom = 70.303
Neighbor list builds = 1
Dangerous builds = 0
unfix 1

# Store final cell length for strain calculations
variable tmp equal "lx"
variable L0 equal ${tmp}
variable L0 equal 40.1918125405159
print "Initial Length, L0: ${L0}"
Initial Length, L0: 40.1918125405159

######################################
# DEFORMATION
reset_timestep	0

fix		1 all npt temp 300 300 1 y 0 0 1 z 0 0 1 drag 1
variable srate equal 1.0e10
variable srate1 equal "v_srate / 1.0e12"
fix		2 all deform 1 x erate ${srate1} units box remap x
fix		2 all deform 1 x erate 0.01 units box remap x

# Output strain and stress info to file
# for units metal, pressure is in [bars] = 100 [kPa] = 1/10000 [GPa]
# p2, p3, p4 are in GPa
variable strain equal "(lx - v_L0)/v_L0"
variable p1 equal "v_strain"
variable p2 equal "-pxx/10000"
variable p3 equal "-pyy/10000"
variable p4 equal "-pzz/10000"
fix def1 all print 20 "${p1} ${p2} ${p3} ${p4}" file  Al99.negRhoR.eam.alloy.def1.txt screen no

# Use cfg for AtomEye
#dump 		1 all cfg 250 dump.tensile_*.cfg id type xs ys zs c_csym c_peratom fx fy fz
#dump_modify 1 element Al

# Display thermo
thermo 	50
thermo_style	custom step v_strain temp v_p2 v_p3 v_p4 ke pe press

run		20000
Memory usage per processor = 3.04301 Mbytes
Step strain Temp p2 p3 p4 KinEng PotEng Press 
       0            0    300.56732 -0.011494533 0.0028648249  0.034472066    155.36665   -13242.753   -86.141193 
      50       0.0005    300.94006  0.047906053  0.046312468 0.0072550957    155.55932   -13242.944   -338.24539 
     100        0.001    303.02559  0.086220056 -0.0096709868  0.028994589    156.63736   -13243.943   -351.81219 
     150       0.0015    296.37896  0.080407365 -0.014192851 -0.029961117    153.20164   -13240.428   -120.84466 
     200        0.002    300.41671   0.14678498 0.0084268542 -0.042777858     155.2888   -13242.476   -374.77992 
     250       0.0025    298.34789   0.18541789  0.021819771  0.031157204     154.2194   -13241.346   -794.64956 
     300        0.003    297.58232   0.22799641 -0.00048664809 -0.010559725    153.82367   -13240.847    -723.1668 
     350       0.0035    294.88266   0.20959755 -0.0081685513 -0.0018103394    152.42818   -13239.358   -665.39552 
     400        0.004    301.86802   0.28451007 -0.041674971 -0.011644045      156.039   -13242.873   -770.63686 
     450       0.0045    294.74631   0.31670089 0.00022307203 -0.00036209649     152.3577   -13239.073   -1055.2062 
     500        0.005    299.84535   0.37136443 0.0021870622  0.011868964    154.99345   -13241.633   -1284.7349 
     550       0.0055    302.47456   0.41162797 -0.00069688552    0.0279991    156.35252   -13242.902   -1463.1006 
     600        0.006    302.15552   0.41588153  0.022992441 -0.0040447746    156.18761   -13242.506   -1449.4306 
     650       0.0065    300.36891   0.47611414 -0.007659815 -0.027985447    155.26409    -13241.42   -1468.2296 
     700        0.007    303.44316   0.51508525 0.0030933804  0.013644907     156.8532   -13243.001   -1772.7451 
     750       0.0075    297.20778   0.56025561  0.018114216  0.024313959    153.63007   -13239.558    -2008.946 
     800        0.008     299.9595   0.59125913  0.031227207 -0.0033842774    155.05246   -13240.805   -2063.6735 
     850       0.0085    298.99924   0.57303485 -0.026009604 -0.024762912    154.55609   -13240.104   -1740.8744 
     900        0.009    298.79944   0.60797602 -0.033666012 -0.012496749    154.45282   -13239.843   -1872.7109 
     950       0.0095     302.7009   0.68266334  0.016892641  0.030859735    156.46952   -13241.732    -2434.719 
    1000         0.01    295.72533   0.72876452  0.022350758  0.022821455    152.86377   -13237.839   -2579.7891 
    1050       0.0105    303.84245   0.77545998 0.00017614923 0.0055629927     157.0596   -13241.929   -2603.9971 
    1100        0.011     299.7595   0.76445196 0.0034563013  -0.02213068    154.94908   -13239.531   -2485.9253 
    1150       0.0115    303.00241   0.85109473 0.0031722773  0.014529195    156.62538   -13240.991   -2895.9873 
    1200        0.012    299.35669   0.86233135     0.034375 -0.011329092    154.74086    -13238.92   -2951.2575 
    1250       0.0125    306.75432   0.91292183  0.010100485  0.031549501    158.56478   -13242.503   -3181.9061 
    1300        0.013    298.03677   0.92326509 -0.026738487 -0.003052075    154.05858   -13237.672   -2978.2484 
    1350       0.0135    299.60576   0.93999574 0.0017459347 -0.0033582131    154.86961    -13238.26   -3127.9449 
    1400        0.014    300.46413    1.0051192 0.0077651764  0.011805127    155.31331   -13238.489   -3415.6315 
    1450       0.0145     297.6901    1.0281707  0.029243804 -0.013452108    153.87938   -13236.797   -3479.8747 
    1500        0.015    298.61945    1.0924781 -0.012314192  0.015179373    154.35977   -13236.937   -3651.1443 
    1550       0.0155    297.67075    1.0905003 -0.012489491 -0.018353935    153.86938    -13236.19   -3532.1896 
    1600        0.016    298.60213     1.145634 0.0056582471 -0.016566022    154.35082   -13236.378   -3782.4208 
    1650       0.0165    300.00593     1.201675  0.046627165 0.0094899977    155.07646   -13236.815   -4192.6407 
    1700        0.017    294.94641    1.2245898 -0.014973207  -0.01197375    152.46114   -13233.933   -3992.1429 
    1750       0.0175     302.8609      1.27159 -0.018378378  0.026033498    156.55223   -13237.663   -4264.1504 
    1800        0.018    297.79522    1.2869358 -0.018266424 0.0081311294    153.93372   -13234.678   -4256.0017 
    1850       0.0185    301.83186    1.3357758 0.00036293479  0.015053384     156.0203   -13236.477   -4503.9737 
    1900        0.019    298.49792    1.3951647 0.0018687914 -0.010026323    154.29695   -13234.374   -4623.3574 
    1950       0.0195     297.1892    1.3994676  0.010011547 -0.016537841    153.62046   -13233.358   -4643.1377 
    2000         0.02    302.27734    1.4529866  0.023493271 0.0069923921    156.25058   -13235.629   -4944.9076 
    2050       0.0205    295.01996    1.4350866 -0.0054075741 -0.012710462    152.49916   -13231.466   -4723.2287 
    2100        0.021    301.23917    1.5011893 0.00082252593 -0.012544161    155.71394    -13234.32   -4964.8922 
    2150       0.0215    306.00598    1.5696794  0.013077099  0.038311885    158.17795   -13236.405   -5403.5614 
    2200        0.022    299.73271    1.5758614 -0.0014376937  0.031857892    154.93523   -13232.706   -5354.2719 
    2250       0.0225    301.27016    1.6000042 -0.0086395318 0.0076620905    155.72995   -13233.172   -5330.0893 
    2300        0.023    299.64896    1.6247248 -0.024230073 0.0026282864    154.89194   -13231.903   -5343.7432 
    2350       0.0235    300.47604    1.6884769 0.0076905943 0.0047333338    155.31947   -13231.938   -5669.6695 
    2400        0.024    299.75377    1.7182787  0.055027091 0.0055760406    154.94612   -13231.102    -5929.606 
    2450       0.0245    298.79648    1.7330168 0.0040010315 -0.044641374    154.45129   -13230.189   -5641.2547 
    2500        0.025     295.6558    1.7842487 -0.013175075 -0.036529347    152.82783   -13228.143   -5781.8144 
    2550       0.0255    301.02922    1.8368855 0.0043056736  0.025312102    155.60541    -13230.52   -6221.6777 
    2600        0.026    297.57741    1.8781465 0.0052820981   0.01708861    153.82113    -13228.28   -6335.0572 
    2650       0.0265     301.9267    1.9119425 -0.019867682  0.045991354    156.06933   -13230.002   -6460.2206 
    2700        0.027    296.24924    1.9183751 -0.045800621 0.0022203972    153.13458   -13226.578   -6249.3162 
    2750       0.0275    304.10442    1.9886252 -0.015488723  0.022315389    157.19502    -13230.21   -6651.5063 
    2800        0.028    299.76996    2.0203149  0.035933088  0.005788027    154.95449   -13227.498   -6873.4534 
    2850       0.0285     297.4572    2.0569673  0.020600255  -0.01486421    153.75899   -13225.753   -6875.6779 
    2900        0.029    301.16668    2.0998839  0.023631149 -0.033324156    155.67646   -13227.191   -6967.3029 
    2950       0.0295    295.58872    2.0918531 0.0083966505 -0.038105749    152.79316   -13223.749   -6873.8135 
    3000         0.03    303.79317    2.1746948 0.0095941545 0.0058214206    157.03413   -13227.499   -7300.3681 
    3050       0.0305    293.55859    2.1904066 -0.030523382  0.017698742    151.74376     -13221.7   -7258.6067 
    3100        0.031    296.26211    2.2449974 -0.020272558  0.033236517    153.14124   -13222.566   -7526.5378 
    3150       0.0315    297.50075    2.2799757 -0.042960242  0.007131153     153.7815   -13222.593   -7480.4888 
    3200        0.032     299.3241    2.2791296 0.0096634927  0.014509231    154.72401   -13223.025   -7677.6745 
    3250       0.0325    299.43754    2.3442287 -0.0075492848  0.011209211    154.78265   -13222.498   -7826.2954 
    3300        0.033    302.47392    2.4063017  0.023100191 -0.0069766644     156.3522   -13223.519   -8074.7509 
    3350       0.0335    299.87662    2.4174577  0.034476337  0.006823674    155.00962    -13221.58   -8195.8589 
    3400        0.034    301.26338    2.4597454  0.020472368 0.0031963133    155.72645   -13221.719   -8278.0469 
    3450       0.0345    298.74516    2.4852746 0.0026815259 -0.039137239    154.42475   -13219.846   -8162.7295 
    3500        0.035    299.24955    2.5255041 -0.018974554 -0.0023332629    154.68548   -13219.512   -8347.3208 
    3550       0.0355    298.04015     2.552546  0.020482353  0.044161865    154.06033   -13218.321   -8723.9673 
    3600        0.036    300.72084    2.6061392 -0.037224847  0.023224397    155.44601    -13219.03   -8640.4625 
    3650       0.0365    294.95438    2.5956243 -0.020640914 -0.001362336    152.46526   -13215.418   -8578.7368 
    3700        0.037       297.87    2.6501143 -0.026067956 -0.0042342329    153.97238   -13216.286   -8732.7069 
    3750       0.0375    297.32341    2.6982584 0.0063838738 0.0095252892    153.68984   -13215.449   -9047.2252 
    3800        0.038    298.70427    2.7412508    0.0308458  0.013397548    154.40362   -13215.523   -9284.9805 
    3850       0.0385    297.00763    2.7492558  0.007770278 -0.035702061    153.52661   -13213.916   -9071.0802 
    3900        0.039    298.15558    2.7638474 0.0064126742 -0.038942264    154.11999   -13213.855   -9104.3926 
    3950       0.0395    296.03465    2.8201786 -0.012797425 -0.024417412    153.02366   -13212.124    -9276.546 
    4000         0.04    298.23843    2.8759125  0.031898731 0.0020211571    154.16282   -13212.636   -9699.4413 
    4050       0.0405    298.41193    2.9266864 -0.012905427   0.03103885     154.2525   -13212.016   -9816.0662 
    4100        0.041    298.94268    2.9630727 -0.0094962343   -0.0226066    154.52685   -13211.555   -9769.8997 
    4150       0.0415    295.04451     2.946041 -0.037939446  0.028446691    152.51185   -13208.914   -9788.4941 
    4200        0.042    302.43779    3.0198936 0.0074808457 -0.010766695    156.33352   -13212.062   -10055.359 
    4250       0.0425    300.36131    3.0446034  0.026417455  0.012304487    155.26016    -13210.24   -10277.751 
    4300        0.043    292.54643    3.0747258 -0.0084118993 -0.014599541    151.22056   -13205.489   -10172.381 
    4350       0.0435    298.65713    3.1198704  -0.02041924 -0.0056490277    154.37925   -13207.903   -10312.674 
    4400        0.044    297.66993    3.1367133 -0.0081209432 -0.0019500349    153.86896   -13206.706   -10422.141 
    4450       0.0445    301.31132    3.1944874  0.019735487  0.002916185    155.75123   -13207.884   -10723.797 
    4500        0.045    298.09037     3.242124 0.0031850904  0.011641222    154.08629   -13205.416   -10856.501 
    4550       0.0455    298.98615    3.2707984 -0.0028698908  0.013722643    154.54932   -13205.146   -10938.837 
    4600        0.046    297.96347     3.290021 -0.0079495287 -0.011321112    154.02069   -13203.841   -10902.501 
    4650       0.0465    300.84281     3.323337 -0.024313437  0.026452858    155.50906   -13204.556   -11084.921 
    4700        0.047    300.63675    3.3905824 0.0030909935 -0.0043543976    155.40254     -13203.7    -11297.73 
    4750       0.0475    301.41633    3.4157627  0.031541764 0.0078313726    155.80551   -13203.349   -11517.119 
    4800        0.048    298.38016    3.4331649  0.045934227 -0.025091254    154.23608    -13200.97    -11513.36 
    4850       0.0485    302.89993    3.4541508 -0.015419608 -0.028938884     156.5724    -13202.54   -11365.974 
    4900        0.049    303.47774    3.5131281  0.017630305 -0.00087405116    156.87108   -13202.009   -11766.281 
    4950       0.0495    297.89336    3.5602658 0.0097975901 0.0094920802    153.98445   -13198.375   -11931.852 
    5000         0.05    303.68324    3.6138501 -0.00084303114  0.055581137     156.9773   -13200.565   -12228.627 
    5050       0.0505    297.24343    3.6127054 -0.016011691  0.016158076    153.64849   -13196.411   -12042.839 
    5100        0.051    301.51955    3.6290115   -0.0244015 0.0055158348    155.85887   -13197.746   -12033.753 
    5150       0.0515    294.80798     3.678742 -0.025326486 -0.028904285    152.38958    -13193.49   -12081.704 
    5200        0.052    301.14173     3.750925  0.056390126 0.0089689216    155.66357     -13195.9   -12720.947 
    5250       0.0525    296.57428    3.7545262 0.0083855541   0.02549799     153.3026   -13192.745   -12628.032 
    5300        0.053     304.1021    3.7795736  0.023347333 -0.028266868    157.19382   -13195.728    -12582.18 
    5350       0.0535    298.02471    3.8169889 -0.034921169 -0.017925065    154.05235   -13191.699   -12547.142 
    5400        0.054    299.89708    3.8824116  0.011374557  0.013406133    155.02019   -13191.878   -13023.974 
    5450       0.0545     296.9183    3.9133873 0.0094498879  0.033654141    153.48043   -13189.474   -13188.305 
    5500        0.055    302.00482    3.9363463 0.0006552984  0.025828456    156.10971   -13191.193   -13209.434 
    5550       0.0555    300.72456     3.958689 -0.012754205 -0.028901578    155.44793   -13189.595   -13056.777 
    5600        0.056    299.69244    4.0015883 -0.012755247 0.0057345962    154.91442   -13188.227   -13315.226 
    5650       0.0565    300.57777    4.0602639  0.030538616 0.0050387774    155.37205   -13187.755   -13652.804 
    5700        0.057    301.36263    4.0993888  0.019725283  0.035009977    155.77776   -13187.244    -13847.08 
    5750       0.0575    302.89199    4.1033552  0.011319596 0.0089178595     156.5683   -13187.152   -13745.309 
    5800        0.058    296.14514    4.1425018 -0.029020681 -0.056350486    153.08078   -13182.704   -13523.769 
    5850       0.0585    304.97212    4.1995108  0.013158323   0.01846945    157.64354   -13186.374   -14103.795 
    5900        0.059     294.8914    4.2168769  0.032810441  0.016215559     152.4327   -13180.333   -14219.676 
    5950       0.0595    300.01487    4.2689606 -0.027156214  0.033126875    155.08108   -13181.891   -14249.771 
    6000         0.06     301.5774    4.2796616 0.0063150258 -0.006261021    155.88877   -13181.777   -14265.719 
    6050       0.0605     296.9687    4.3002738 -0.024134874 -0.032324679    153.50648   -13178.427   -14146.048 
    6100        0.061    301.28979    4.3791842  0.013790547 0.0078345368     155.7401   -13179.743   -14669.364 
    6150       0.0615    297.08107    4.4175392 0.0092216009  0.014514292    153.56457    -13176.64    -14804.25 
    6200        0.062    298.83981    4.4278978 -0.0083900756  0.035938248    154.47368   -13176.564   -14851.487 
    6250       0.0625    296.98285    4.4708578 -0.0079115437 -0.025281107     153.5138    -13174.56   -14792.217 
    6300        0.063    300.11367    4.4897458  0.026284618 -0.028945857    155.13215   -13175.234   -14956.949 
    6350       0.0635    298.34335    4.5206751  0.010947054 -0.013263021    154.21706   -13173.305   -15061.197 
    6400        0.064    299.14371    4.5700623 -0.015117315  0.021549016    154.63077   -13172.739    -15254.98 
    6450       0.0645    299.73458    4.5860069  0.013270949  0.006052511     154.9362   -13172.068   -15351.101 
    6500        0.065    295.89032    4.6480965 -0.030860046  0.009474396    152.94906    -13169.12    -15422.37 
    6550       0.0655    301.01534    4.6608734 0.0083482785  0.049128404    155.59824   -13170.742   -15727.834 
    6600        0.066    294.73444    4.6897405 -0.005588267 -0.028637248    152.35157   -13166.435   -15518.383 
    6650       0.0665    304.93227    4.7213233 -0.011937953 0.0082217516    157.62294   -13170.663   -15725.357 
    6700        0.067    300.19507     4.770622  0.018892297 -0.021056039    155.17423   -13167.163   -15894.861 
    6750       0.0675    298.75904    4.8010812  0.018498984  0.030026097    154.43193   -13165.442   -16165.354 
    6800        0.068     294.5112     4.803058 0.0027359003 -0.0098557087    152.23617   -13162.195   -15986.461 
    6850       0.0685    296.75976    4.8488639 -0.011670692 -0.022909562    153.39848    -13162.26   -16047.612 
    6900        0.069    295.93234    4.8887684 -0.0032226043 -0.017567686    152.97078   -13160.751   -16226.594 
    6950       0.0695     293.5645    4.9199725 -0.025862627 -0.010614222    151.74681   -13158.517   -16278.319 
    7000         0.07    295.49921    4.9719644 -0.0048053726  0.025131769    152.74689   -13158.412   -16640.969 
    7050       0.0705    299.69673    5.0129201 0.0058525338 -0.0076666131    154.91663   -13159.449   -16703.687 
    7100        0.071    294.27708    5.0138058 -0.054693947 0.00026407524    152.11515    -13155.68   -16531.253 
    7150       0.0715    305.23945    5.0952772  0.037380399 0.0012493575    157.78173   -13160.209   -17113.023 
    7200        0.072    296.88175    5.1169206 0.0048861197 -0.010103732    153.46154   -13154.788    -17039.01 
    7250       0.0725    299.52965    5.1298165  0.023419328  -0.01112243    154.83027   -13155.068   -17140.378 
    7300        0.073    299.84362    5.1589063 0.0032092272  -0.01472637    154.99256   -13154.146   -17157.964 
    7350       0.0735    303.64964     5.238685 -0.0057369013  0.004933937    156.95994    -13154.94   -17459.607 
    7400        0.074    297.73733    5.2334465  0.011449211  0.016846615     153.9038   -13150.736   -17539.141 
    7450       0.0745    297.14063    5.2723335 -0.0091703223 -0.0035891451    153.59536   -13149.292   -17531.913 
    7500        0.075    304.73588    5.3283705 0.00019835955   0.02117761    157.52143   -13152.051   -17832.488 
    7550       0.0755    298.24873    5.3330729  0.011517616 0.0055227102    154.16815   -13147.658   -17833.711 
    7600        0.076    300.25138    5.3643029 -0.0099140502 -0.0043629204    155.20334   -13147.513    -17833.42 
    7650       0.0765    305.14776    5.4275891  0.024260775  0.012639363    157.73433   -13148.823   -18214.964 
    7700        0.077    298.02049    5.4258644 0.0080142524 0.0016748781    154.05016    -13144.09   -18118.512 
    7750       0.0775     300.8416    5.4725839  0.027779186 9.5683867e-05    155.50843   -13144.335   -18334.863 
    7800        0.078     297.2792    5.4969526 0.0070332777 -0.016388115    153.66698   -13141.386   -18291.993 
    7850       0.0785    297.00046    5.5120707 0.0084106765 -0.030110842     153.5229   -13140.078   -18301.235 
    7900        0.079    303.42792    5.5778332  0.018188986 -0.0031710637    156.84532   -13142.154   -18642.837 
    7950       0.0795    299.68285    5.6085236 0.0010929596  0.011115167    154.90946   -13139.054   -18735.772 
    8000         0.08    294.97575    5.6383862  0.013288027 -0.0092051139     152.4763   -13135.505    -18808.23 
    8050       0.0805    298.85695    5.6592066  0.015950192  0.014781318    154.48254   -13136.233    -18966.46 
    8100        0.081    297.58583    5.6672309  -0.02200353 0.0095898939    153.82549   -13134.348   -18849.391 
    8150       0.0815    301.15751    5.7008174 -0.026085862 -0.022431015    155.67172   -13135.039   -18841.002 
    8200        0.082    303.84347    5.7704139  0.023736481  0.027925365    157.06013   -13135.278   -19406.919 
    8250       0.0825    299.94682    5.8349446  0.032062201    0.0351537    155.04591   -13132.003   -19673.868 
    8300        0.083    298.77074    5.8094758  0.012148807  0.020777657    154.43798   -13130.161   -19474.674 
    8350       0.0835    299.70384    5.8213612 -0.014517377 -0.039887786    154.92031   -13129.324   -19223.187 
    8400        0.084    298.88111    5.8950764 -0.024825287  -0.01456911    154.49503    -13127.72    -19518.94 
    8450       0.0845    301.67751    5.9347939  0.039778959  0.062771744    155.94052   -13128.005   -20124.482 
    8500        0.085    289.66338    5.9478031  0.018026305 -0.039979095    149.73028   -13120.546   -19752.834 
    8550       0.0855    301.09412    6.0118857 -0.0096267583 -0.014630935    155.63896   -13125.058    -19958.76 
    8600        0.086    292.13595    6.0059161 -0.029897971 -0.048938315    151.00838   -13119.226   -19756.933 
    8650       0.0865    298.14994     6.075264   0.04836234 -0.024020231    154.11708   -13121.105    -20332.02 
    8700        0.087     295.8332    6.0772979  0.021101176  0.027073817    152.91953   -13118.639   -20418.243 
    8750       0.0875    298.85104    6.1298894 -0.014918131 -0.0086553182    154.47949   -13118.863   -20354.387 
    8800        0.088    301.41084     6.140064 -0.012832135 0.00030516529    155.80267   -13118.944   -20425.123 
    8850       0.0885     300.3979    6.2045001 -0.012956257  0.034372532    155.27908   -13117.091   -20753.055 
    8900        0.089    304.56556    6.2511142  0.022419286  0.073257351    157.43338   -13117.943    -21155.97 
    8950       0.0895    298.75037    6.2718565 -0.015493778 -0.00097601683    154.42745   -13113.579   -20851.289 
    9000         0.09    299.02511    6.2808882 -0.015591448 -0.012393564    154.56947   -13112.457   -20843.011 
    9050       0.0905    300.10101    6.3316595 -0.021685882  0.012160069    155.12561   -13111.656   -21073.779 
    9100        0.091    299.34387    6.3689067  0.057674787 -0.004904746    154.73423   -13109.969   -21405.589 
    9150       0.0915    296.00847    6.3825279  0.012902804 -0.010745453    153.01013   -13106.903   -21282.284 
    9200        0.092    295.79039    6.3944767 -0.010160669  -0.06771914     152.8974   -13105.477   -21055.323 
    9250       0.0925    297.06077    6.4402775 0.0046362185 -0.020902875    153.55408    -13104.82   -21413.369 
    9300        0.093    294.93359    6.5005041  0.014730995  0.035982112    152.45451   -13102.399   -21837.391 
    9350       0.0935    295.56651    6.5391158 -0.022532767  0.030331792    152.78167   -13101.314    -21823.05 
    9400        0.094    300.34639    6.5406585 -0.046464108 -0.0047858505    155.25245   -13102.364   -21631.362 
    9450       0.0945    297.67203    6.5721742 -0.051771877 -0.0063233617    153.87004   -13099.625   -21713.597 
    9500        0.095    298.93306    6.6297481  0.028358555  0.026923661    154.52188    -13098.98   -22283.434 
    9550       0.0955    296.28457    6.6577833  0.036116176  0.021656278    153.15285   -13096.262   -22385.186 
    9600        0.096    297.70016    6.6804207  0.021676527 -0.045565009    153.88458    -13095.55   -22188.441 
    9650       0.0965    303.57876    6.6996304 -0.011717174 -0.055600624     156.9233   -13097.164   -22107.709 
    9700        0.097    298.88317    6.7497804 -0.0029190636 -0.0028079819    154.49609   -13093.368   -22480.178 
    9750       0.0975    303.74719    6.8389606  0.082921313  0.048858178    157.01036   -13094.462     -23235.8 
    9800        0.098    303.64603    6.8305179  0.012045947  0.048636771    156.95807    -13093.01   -22970.669 
    9850       0.0985    295.70142    6.8166299 -0.062677124 -0.033500303    152.85141   -13087.445   -22401.508 
    9900        0.099    302.01838    6.8678874 -0.050945682  0.039140779    156.11672    -13089.29   -22853.608 
    9950       0.0995    295.78525    6.9302408 0.0036154416  0.016131493    152.89474   -13084.686   -23166.626 
   10000          0.1    299.12861     6.978684  0.063500813  0.027290916    154.62296    -13085.04   -23564.919 
   10050       0.1005    297.93207    6.9841262 -0.021381013 -0.015964957    154.00446   -13082.942   -23155.934 
   10100        0.101    298.34218    7.0205818  -0.02212416 -0.039884051    154.21645    -13081.57   -23195.245 
   10150       0.1015    290.34919      7.01491 -0.0066473159 -0.023338788    150.08478     -13076.1    -23283.08 
   10200        0.102    298.32837    7.0918358  0.027885121  0.031742255    154.20931   -13078.724   -23838.211 
   10250       0.1025    296.99938    7.1203955 -0.025068591  0.019217384    153.52234   -13076.573   -23715.148 
   10300        0.103    294.35239    7.1189246 -0.040766183 -0.019965919    152.15408   -13073.734   -23527.308 
   10350       0.1035    299.81174    7.1941126 -0.012599443 -0.0070616889    154.97608   -13075.017   -23914.838 
   10400        0.104    297.72802    7.2391596  0.060261428 0.0037679464    153.89898   -13072.515   -24343.963 
   10450       0.1045    296.48611    7.2380865  0.014854268  0.018150656    153.25703   -13070.422   -24236.971 
   10500        0.105    296.02389    7.2358005  -0.02056824 -0.021077237     153.0181    -13068.63   -23980.517 
   10550       0.1055    300.66742    7.2965264 -0.011586797 -0.033984258    155.41839   -13069.508   -24169.851 
   10600        0.106    302.39497    7.3810313  0.023430075  0.051287395    156.31138   -13068.873   -24852.496 
   10650       0.1065    296.99912    7.3973043  0.041391224  0.017972605    153.52221   -13064.555    -24855.56 
   10700        0.107    298.96456     7.430868 -0.061178803  0.023342601    154.53816   -13063.972   -24643.439 
   10750       0.1075    293.95967    7.3994752 -0.018934749 -0.050835143    151.95108   -13059.991   -24432.351 
   10800        0.108    300.30053    7.4786202  0.014006405 0.0037520785    155.22874   -13061.655   -24987.929 
   10850       0.1085    296.84055    7.5108397  0.014095985   0.02283734    153.44024   -13058.387   -25159.244 
   10900        0.109    298.83124    7.5320201  0.031802043 -0.021195907    154.46925   -13057.877   -25142.088 
   10950       0.1095    294.09267    7.5567515 -0.033895541 -0.029739654    152.01983   -13053.863   -24977.054 
   11000         0.11    298.18705    7.5909977  0.027153575 -0.011232162    154.13626   -13054.399   -25356.397 
   11050       0.1105    295.68543     7.644464 0.0039100466   0.01028709    152.84315   -13051.462   -25528.871 
   11100        0.111    297.49506    7.6726378 -0.0045201132  -0.01042169    153.77857   -13050.912   -25525.653 
   11150       0.1115    298.16396    7.6915258 -0.032384431  0.022514596    154.12433   -13049.701    -25605.52 
   11200        0.112    301.65642     7.752968  0.023747033   0.02774373    155.92962   -13049.945   -26014.863 
[...]
   11650       0.1165    299.12046    8.0247484  0.019685377 0.0029135445    154.61875   -13034.081   -26824.491 
   11700        0.117    296.19769    8.0396206 -0.029725697  0.033822665    153.10794   -13030.918   -26812.392 
   11750       0.1175    301.10743    8.0881123   0.02720211 0.0063037033    155.64584   -13031.695    -27072.06 
   11800        0.118     293.1932    8.0850342 -0.021359814 -0.017358641    151.55488   -13026.027   -26821.052 
   11850       0.1185     293.3411    8.1263066 -0.0094237368 -0.0087507183    151.63134   -13024.461   -27027.107 
   11900        0.119    301.56387    8.1825005  0.038025615  0.011288671    155.88178   -13027.053   -27439.383 
   11950       0.1195    302.60971    8.2286326  0.010584219 -0.0060199108    156.42238   -13025.796    -27443.99 
   12000         0.12     299.3518    8.2241556  0.001371694 -0.015127441    154.73833   -13022.473       -27368 
   12050       0.1205    301.04069    8.2974958  0.042250189  0.019246037    155.61134   -13021.687   -27863.307 
   12100        0.121    297.70955     8.329021 -0.017442664  0.027736187    153.88944   -13018.206   -27797.715 
   12150       0.1215    295.32727    8.3141353 -0.055783481  0.029579173    152.65801    -13015.28   -27626.437 
   12200        0.122    295.51431    8.3479683 -0.024251736  0.030780582    152.75469   -13013.705   -27848.324 
   12250       0.1225    295.04057    8.4116026 -0.00047734427 -0.012791437    152.50981   -13011.707   -27994.446 
   12300        0.123     298.0335    8.4500303  0.023311392  0.010210142    154.05689   -13011.539   -28278.506 
   12350       0.1235    298.75625    8.4873734  0.030489189 0.0019106764    154.43049   -13010.166   -28399.244 
   12400        0.124    293.93176    8.4850153 -0.0096426566 -0.049692713    151.93665   -13005.912     -28085.6 
   12450       0.1245    295.96711    8.4928968 0.0029426183 -0.028919429    152.98875   -13005.254   -28223.067 
   12500        0.125    295.57685    8.5573338  0.019681361 0.0034636655    152.78702   -13003.308   -28601.596 
   12550       0.1255    298.99884    8.6184481  0.032484827 -0.0011138019    154.55588   -13003.398   -28832.731 
   12600        0.126    293.92816    8.6121351 -0.0036962954 -0.0080488177    151.93479   -12999.006   -28667.966 
   12650       0.1265    294.90792     8.614037 -0.025358272  0.013657713    152.44124   -12997.683   -28674.455 
   12700        0.127     296.6646    8.6544095 -0.014052714 -0.016293455    153.34929   -12996.855   -28746.878 
   12750       0.1275    299.69444    8.7277686 -0.0093155376 -0.0062366473    154.91545   -12996.623   -29040.721 
   12800        0.128    294.31309    8.7434561 -0.024671901  0.042577849    152.13377   -12992.103    -29204.54 
   12850       0.1285    299.55755    8.7750775  0.023669313  0.027658169    154.84469   -12993.033    -29421.35 
   12900        0.129    293.48199    8.7955006 -0.026446908 -0.0067991191    151.70416   -12988.087   -29207.515 
   12950       0.1295    295.64094    8.8274184 -0.012986376  -0.01007671    152.82015    -12987.41   -29347.851 
   13000         0.13     295.7817    8.8924687 -0.043876576 -0.010224848    152.89291   -12985.599   -29461.224 
   13050       0.1305    293.38146    8.8909696  0.013998593 -0.0048603446     151.6522   -12982.569   -29667.026 
   13100        0.131    295.71257    8.9324358  0.047614711  0.024902751    152.85717   -12981.949   -30016.511 
   13150       0.1315    294.27663    8.9395962 -0.0094244805 -0.032344061    152.11492   -12979.413   -29659.426 
   13200        0.132    296.10462    8.9767159 -0.017155653 -0.058517023    153.05983   -12978.486   -29670.144 
   13250       0.1325    294.16976    9.0343033 0.0020504237 -0.0026438383    152.05968   -12975.722   -30112.366 
   13300        0.133    298.68198    9.0766249   0.10447354  0.037252852    154.39209   -12976.289   -30727.838 
   13350       0.1335    295.63543     9.087052 -0.019675575 -0.0072916892     152.8173   -12972.768   -30200.282 
   13400        0.134    296.27774    9.0606491 -0.058697783 -0.037280208    153.14932    -12971.18   -29882.237 
   13450       0.1345    296.88583    9.1091828  0.016271769 -0.0027087733    153.46364   -12969.671   -30409.153 
   13500        0.135    300.58815     9.216856  0.048955891  0.046165971    155.37742   -12969.726   -31039.926 
   13550       0.1355    294.26972    9.2152074 -0.038570448  0.051867784    152.11135   -12964.632   -30761.683 
   13600        0.136     296.3373    9.2032872 -0.012230371 -0.017893736     153.1801    -12963.88    -30577.21 
   13650       0.1365    301.24655    9.2487974 -0.015392383  0.043223546    155.71775   -12964.415   -30922.095 
   13700        0.137    292.80362    9.2559552  -0.02680202 0.0034246959    151.35351   -12958.166    -30775.26 
   13750       0.1375    297.82146    9.3124577  0.024550266 -0.016740288    153.94728   -12958.837   -31067.559 
   13800        0.138    295.43187    9.3250463  0.020959107 -0.034160823    152.71208   -12955.759   -31039.482 
   13850       0.1385    297.20477    9.3668942  0.022687802 0.0010672773    153.62851   -12954.727   -31302.164 
   13900        0.139    293.59921    9.3716001 0.0067842216 -0.041129782    151.76475   -12950.997   -31124.182 
   13950       0.1395    296.43629    9.4288685   0.01842018   0.00346812    153.23127   -12950.525   -31502.523 
   14000         0.14    294.30569    9.4503651 -0.023794846  0.044628436    152.12994   -12947.632   -31570.662 
   14050       0.1405    298.44897     9.472552 0.0033288091  0.023014365    154.27165   -12947.698   -31662.984 
   14100        0.141    298.19892    9.4840901 -0.029482788 -0.0073419474     154.1424   -12945.672   -31490.884 
   14150       0.1415    296.43322    9.5199668  0.010766394 -0.0087696004    153.22969   -12942.882   -31739.879 
   14200        0.142    295.98036     9.542661  0.059709966  0.023351676     152.9956   -12940.667   -32085.742 
   14250       0.1425    296.43081    9.5809105 -0.0072438276 0.00012427847    153.22844   -12939.012   -31912.636 
   14300        0.143    296.73102    9.5527327 -0.028934007 -0.0092852981    153.38362   -12937.205   -31715.045 
   14350       0.1435    293.90415    9.5924683 -0.0093038058 -4.378872e-06    151.92238   -12933.784   -31943.867 
   14400        0.144    295.60864    9.6645176  0.015900277  0.015163826    152.80345   -12932.675   -32318.606 
   14450       0.1445    297.95548    9.7150065  0.026398414  0.030426378    154.01656   -12931.905   -32572.771 
   14500        0.145    296.74171    9.7213136 0.0053772672   0.01319812    153.38915   -12929.282   -32466.297 
   14550       0.1455    296.72292     9.767028 -0.00054004633  -0.02727551    153.37944   -12927.214   -32464.042 
   14600        0.146    290.95836    9.7356308 -0.041735853 -0.011391558    150.39967   -12922.363   -32275.011 
   14650       0.1465    294.59078    9.7928474  0.027483575  0.027641681    152.27731    -12922.25   -32826.576 
   14700        0.147    293.60608    9.8161725  0.042042308 0.00058711848    151.76831   -12919.671   -32862.673 
   14750       0.1475     295.2875    9.8085078 -0.025173754  -0.04249544    152.63745   -12918.506   -32469.462 
   14800        0.148    298.12677    9.8500412 0.0015878469 -0.015073439     154.1051   -12918.048   -32788.519 
   14850       0.1485    292.78306    9.8682712 -0.0075545402 0.0081883476    151.34288   -12913.361    -32896.35 
   14900        0.149    291.71412    9.8979269  0.031452414  0.047111372    150.79033   -12910.823   -33254.969 
   14950       0.1495    294.78374    9.9413755 0.0021030288  0.045963772    152.37705   -12910.379   -33298.141 
   15000         0.15    294.32659    9.9239561 -0.036284383 -0.074465133    152.14074   -12908.085   -32710.689 
   15050       0.1505    291.28731    9.9394652 -0.035127711 -0.035219014    150.56971   -12904.488   -32897.062 
   15100        0.151    299.15711    10.048698  0.052741274  0.084915907     154.6377   -12906.578   -33954.516 
   15150       0.1515    291.23358    10.037801  0.023727428    0.0515149    150.54193   -12900.443   -33710.145 
   15200        0.152    295.34214    10.048066 -0.014041874 -0.033176272     152.6657   -12900.443   -33336.158 
   15250       0.1525    292.27808    10.062588   -0.0555451 -0.028035122    151.08185   -12896.779   -33263.358 
   15300        0.153    290.79857    10.099264 0.0039034903   0.02812924    150.31707   -12894.037   -33770.989 
   15350       0.1535    292.32888    10.125637  0.032098312 0.0025770226    151.10811   -12892.783   -33867.708 
   15400        0.154    292.47465    10.149808 -0.010275425 0.0079151668    151.18346    -12890.78   -33824.825 
   15450       0.1545    289.88957     10.16294 -0.020987974 -0.041716208     149.8472   -12887.376   -33667.453 
   15500        0.155    292.85232    10.197736   0.04799241 -0.00066449636    151.37868   -12886.749   -34150.214 
   15550       0.1555    291.99217    10.288003  0.020448786 -0.031763604    150.93406   -12884.096   -34255.627 
   15600        0.156    294.31015    10.313041 -0.030704077  0.022209989    152.13225   -12883.093   -34348.491 
   15650       0.1565    294.26381    10.280315 0.0019088657 -0.012883651    152.10829   -12881.142   -34231.136 
   15700        0.157    290.38258    10.245379 -0.023896713 -0.034476779    150.10204   -12877.172   -33956.685 
   15750       0.1575    290.36794    10.257226  0.016410313  0.026948452    150.09447   -12875.154   -34335.281 
   15800        0.158    292.21299    10.317005  0.030735254  0.013885904     151.0482   -12873.974   -34538.754 
   15850       0.1585    291.54837    10.306626 -0.029986991 0.0063823394    150.70465   -12871.492   -34276.738 
   15900        0.159     290.4244    10.333253 -0.041878358 -0.015878862    150.12366   -12868.841   -34251.653 
   15950       0.1595    293.43222    10.382346  0.009392383  0.016108345    151.67844   -12868.304   -34692.824 
   16000         0.16    293.15199      10.3588 -0.0055521839  0.064228395    151.53358   -12866.204    -34724.92 
   16050       0.1605    293.36999    10.328604      0.01574 -0.0057943274    151.64627    -12864.21   -34461.832 
   16100        0.161     290.3815    10.279835 -0.022621001 -0.044031185    150.10149    -12860.64   -34043.941 
   16150       0.1615    289.72576    10.304871 0.0091984491  -0.03849626    149.76253   -12858.236   -34251.909 
   16200        0.162    286.33988    10.326938   0.05229002  0.069338931    148.01232   -12854.449   -34828.555 
   16250       0.1625    294.74303    10.401609  0.049540898 0.0039566406    152.35601    -12856.49   -34850.355 
   16300        0.163    289.99488    10.336803 -0.076516043 -0.071323678    149.90163   -12851.931   -33963.211 
   16350       0.1635    288.39873    10.267291 -0.045306486 -0.056115813    149.07657   -12849.106    -33886.23 
   16400        0.164    291.28766    10.255813  0.070192199  0.042259779    150.56989   -12848.649   -34560.883 
   16450       0.1645    293.75669    10.237992  0.059492053  0.075832359    151.84616   -12847.938    -34577.72 
   16500        0.165    294.78812    10.072043 -0.058053624 -0.0075886364    152.37932   -12846.382    -33354.67 
   16550       0.1655    298.46598    9.9611517 -0.049082399 -0.094003874    154.28044   -12846.446   -32726.885 
   16600        0.166    307.24174    9.8118175  0.068448954  0.025859376    158.81673   -12849.321   -33020.419 
   16650       0.1665    305.92965    9.4596702   0.11820203  0.053804995     158.1385   -12847.103   -32105.591 
   16700        0.167    314.88987    9.0802207 -0.039359587  -0.03681446    162.77014   -12850.217   -30013.489 
   16750       0.1675    332.83885    8.7162002 -0.063968432 -0.079315063    172.04817   -12858.222   -28576.389 
   16800        0.168     345.3112    8.3034214  0.019708967 -0.026378954    178.49527   -12863.806   -27655.838 
   16850       0.1685    348.69968     7.885444   0.11960116 0.0087769887    180.24681   -12864.886    -26712.74 
   16900        0.169    357.85701     7.356071  0.034997848  0.080817844    184.98034   -12869.058   -24906.289 
   16950       0.1695    359.42058    6.7384487 -0.081046765  0.048359217    185.78857   -12869.514   -22352.537 
   17000         0.17    364.39631    6.1111298  -0.11828647  0.063767547    188.36058   -12871.823   -20188.703 
   17050       0.1705    365.46494    5.6056692  -0.02833811  0.040765523    188.91296   -12872.416   -18726.989 
   17100        0.171    364.69172    5.3345768  0.070461933  0.014113531    188.51328   -12871.966   -18063.841 
   17150       0.1715    363.43732    4.9591558  0.055594069  0.033723081    187.86487   -12871.376   -16828.243 
   17200        0.172    381.56975    4.6378551  0.093557717  -0.08291246    197.23772   -12880.799   -15495.001 
   17250       0.1725    382.73257    4.4306342  0.083122761 -0.074058121     197.8388   -12881.405   -14798.996 
   17300        0.173    397.32516    4.2501909  0.083811848 -0.042837849    205.38188   -12889.025   -14303.883 
   17350       0.1735    400.76351    4.0245642  0.058096468 -0.045464745    207.15919   -12891.096    -13457.32 
   17400        0.174    412.27328    3.9073689 -0.0066191001  0.016671739    213.10872   -12897.188   -13058.072 
   17450       0.1745    412.05285    3.7292342 -0.032616491  0.049969791    212.99478   -12897.289   -12488.625 
   17500        0.175     418.5699    3.6416736 -0.0072804165 -0.032284908    216.36352   -12900.988   -12007.028 
   17550       0.1755    420.28528    3.5437095 -0.0024054331  0.051636433    217.25022   -12902.466   -11976.468 
   17600        0.176    417.03679    3.4836256  0.023953134   0.07931264    215.57104   -12901.321   -11956.304 
   17650       0.1765    426.05531    3.3022104  -0.02392712  0.091748367    220.23281   -12906.534   -11233.439 
   17700        0.177    423.54169    3.1734079 -0.066899497 -0.023364106    218.93349   -12905.904   -10277.148 
   17750       0.1775    421.76114    3.0752139  0.006852987 -0.062345994    218.01311   -12905.719   -10065.736 
   17800        0.178    417.97617     3.058932  0.087808546 -0.050907482    216.05662   -12904.534   -10319.443 
   17850       0.1785    420.74066    3.0190321   0.13176218 0.0033900232    217.48561   -12906.656   -10513.948 
   17900        0.179    434.22312    2.8864967   0.06168083 -0.011019504    224.45485   -12914.475   -9790.5267 
   17950       0.1795    423.08939    2.7065331  -0.10852975 -0.057556024     218.6997   -12909.549   -8468.1577 
   18000         0.18    439.04121    2.7798901  -0.10834751  0.063888655    226.94537   -12918.646   -9118.1043 
   18050       0.1805    435.72227    2.7535457  -0.03913918   0.15198189    225.22977   -12917.901   -9554.6281 
   18100        0.181    432.76929    2.6950208  0.075154043  0.036268024    223.70335   -12917.323   -9354.8095 
   18150       0.1815    439.20367     2.641806  0.046971929  0.024579937    227.02935   -12921.546   -9044.5263 
   18200        0.182    436.95301    2.4995884  0.015160853 -0.065298646    225.86596   -12921.344   -8164.8352 
   18250       0.1825    441.12759    2.4332383 -0.084035624 -0.0051935794    228.02384   -12924.423   -7813.3636 
   18300        0.183    442.06086    2.4104648  -0.06908715  0.095033958    228.50626   -12926.014   -8121.3721 
   18350       0.1835    445.02154    2.4144609  0.038842146   0.10680745    230.03667   -12928.662   -8533.7016 
   18400        0.184    444.63294    2.3642893  0.011335863 0.0018121082     229.8358   -12929.518   -7924.7908 
   18450       0.1845    441.80903    2.2405766  0.033479923   -0.1286296    228.37609   -12929.038    -7151.423 
   18500        0.185    443.68942    2.2725136   0.12604426 -0.070867832    229.34809   -12931.103   -7758.9669 
   18550       0.1855    446.42007    2.1962862 -0.0017940957   0.12906696    230.75959    -12933.72    -7745.197 
   18600        0.186    445.86715    2.1721248  -0.11976811  0.041632679    230.47378   -12934.484   -6979.9644 
   18650       0.1865    456.65626    2.1204265 -0.0077627419  0.040960675    236.05079   -12941.286   -7178.7482 
   18700        0.187    444.73701    2.0090167 -0.021366036 -0.00099084211    229.88959   -12936.391   -6622.1994 
   18750       0.1875    456.47019    1.9175793  0.012674295 -0.018133334    235.95461   -12943.676   -6373.7341 
   18800        0.188    459.70502    1.9678377  0.053341936 -0.057986871    237.62673   -12946.759   -6543.9758 
   18850       0.1885      455.164    1.9723004  0.091750618  0.031876488    235.27943   -12945.683   -6986.4251 
   18900        0.189    452.95818    1.9228611  0.031425762 -0.047897235    234.13921   -12945.778    -6354.632 
   18950       0.1895    453.49952    1.8529834  0.028565958  -0.06367189    234.41904   -12947.468   -6059.5917 
   19000         0.19    457.39854    1.8277006  -0.07166126 -0.041035063    236.43448   -12950.824   -5716.6808 
   19050       0.1905    453.41149    1.8451805  -0.07836759  0.051248095    234.37353   -12950.186   -6060.2035 
   19100        0.191    455.98634    1.8383629  0.042984391  0.031633133     235.7045   -12952.931   -6376.6014 
   19150       0.1915    456.55925    1.7465136  0.060503352  0.094549477    236.00064   -12954.523   -6338.5548 
   19200        0.192    453.72264    1.6826888 -0.046450462    0.1276451    234.53437   -12954.395   -5879.6115 
   19250       0.1925    457.84552    1.7104713  -0.12775386 -0.089790082    236.66553   -12957.871   -4976.4246 
   19300        0.193    458.48062    1.6836488  0.054674588  -0.04906415    236.99382    -12959.66    -5630.864 
   19350       0.1935    456.68596    1.6720151    0.1541128  0.069698322    236.06614   -12960.129   -6319.4208 
   19400        0.194    460.63821    1.5361153 0.0027714145  0.077215066    238.10911   -12963.549   -5387.0061 
   19450       0.1945    454.06857    1.4200638   -0.1105035  -0.10676066    234.71318   -12961.421   -4009.3322 
   19500        0.195     463.9078    1.5265312  -0.14167506 -0.051829213    239.79919   -12968.086   -4443.4231 
   19550       0.1955    460.82451    1.5971492   0.10936805  0.079876658    238.20541   -12968.203   -5954.6465 
   19600        0.196    463.78868    1.6662141   0.17147441   0.06857102    239.73762   -12971.226   -6354.1984 
   19650       0.1965    456.77729    1.6347576 -0.0057697661 -0.035051314    236.11335   -12968.995   -5313.1217 
   19700        0.197     459.9981    1.5707025  -0.16063207 -0.087798366    237.77822   -12972.078   -4407.5737 
   19750       0.1975    457.70372    1.6015578 -0.061756511  0.051322737    236.59223   -12972.363   -5303.7469 
   19800        0.198    459.96053     1.687002  0.042088079    0.1527501     237.7588   -12975.127   -6272.8005 
   19850       0.1985    455.97381    1.7029643 -0.0037596411  0.049059773    235.69802   -12974.564   -5827.5482 
   19900        0.199    461.67899    1.6620637   0.02197539 -0.027186647     238.6471   -12978.913   -5522.8414 
   19950       0.1995    457.87243    1.5832502   0.03079586 -0.061499307    236.67944   -12978.299    -5175.156 
   20000          0.2    457.80723     1.656244   0.12582752  -0.13942229    236.64574   -12979.703   -5475.4973 
Loop time of 528.289 on 4 procs for 20000 steps with 4000 atoms

Pair  time (%) = 370.177 (70.0709)
Neigh time (%) = 0.407055 (0.0770517)
Comm  time (%) = 110.358 (20.8897)
Outpt time (%) = 0.655026 (0.12399)
Other time (%) = 46.6921 (8.83837)

Nlocal:    1000 ave 1021 max 983 min
Histogram: 2 0 0 0 0 0 0 1 0 1
Nghost:    3802.75 ave 3816 max 3787 min
Histogram: 1 1 0 0 0 0 0 0 0 2
Neighs:    70720.8 ave 72993 max 68588 min
Histogram: 1 0 1 0 0 0 1 0 0 1
FullNghs:  0 ave 0 max 0 min
Histogram: 4 0 0 0 0 0 0 0 0 0

Total # of neighbors = 282883
Ave neighs/atom = 70.7207
Neighbor list builds = 63
Dangerous builds = 0

######################################
# SIMULATION DONE
print "All done"
All done
