LAMMPS (28 Jun 2014)
# Input file for uniaxial tensile loading of single crystal aluminum
# Mark Tschopp, November 2010

# ------------------------ INITIALIZATION ----------------------------
units 		metal
dimension	3
boundary	p	p	p
atom_style	atomic
variable latparam equal 4.05

# ----------------------- ATOM DEFINITION ----------------------------
lattice		fcc ${latparam}
lattice		fcc 4.05
Lattice spacing in x,y,z = 4.05 4.05 4.05
region		whole block 0 10 0 10 0 10
create_box	1 whole
Created orthogonal box = (0 0 0) to (40.5 40.5 40.5)
  1 by 2 by 2 MPI processor grid
lattice 	fcc ${latparam} orient x 1 0 0 orient y 0 1 0 orient z 0 0 1
lattice 	fcc 4.05 orient x 1 0 0 orient y 0 1 0 orient z 0 0 1
Lattice spacing in x,y,z = 4.05 4.05 4.05
create_atoms	1 region whole
Created 4000 atoms

# ------------------------ FORCE FIELDS ------------------------------
pair_style	eam/alloy
pair_coeff	* * Al99.PosFRho.NegRhoR.ZeroPhiR.eam.alloy Al

# ------------------------- SETTINGS ---------------------------------
compute csym all centro/atom fcc
compute peratom all pe/atom

######################################
# EQUILIBRATION
reset_timestep	0
timestep 0.001
velocity all create 300 12345 mom yes rot no
fix 1 all npt temp 300 300 1 iso 0 0 1 drag 1

# Set thermo output
thermo 1000
thermo_style custom step lx ly lz press pxx pyy pzz pe temp

# Run for at least 10 picosecond (assuming 1 fs timestep)
run 20000
Memory usage per processor = 3.04301 Mbytes
Step Lx Ly Lz Press Pxx Pyy Pzz PotEng Temp 
       0         40.5         40.5         40.5    2477.3029    2428.1698    2515.8337    2487.9052    -13435.68          300 
    1000    40.557357    40.557357    40.557357    865.04177    853.59432    837.21422    904.31677   -13356.799    165.23351 
    2000    40.571241    40.571241    40.571241     261.5496    196.29533    289.42546      298.928   -13352.114    178.78267 
    3000    40.580127    40.580127    40.580127    102.57373    17.129829     199.2032    91.388165   -13345.657    189.28954 
    4000    40.587881    40.587881    40.587881    64.229474    18.785547    38.166433    135.73644   -13336.142    193.87807 
    5000    40.592827    40.592827    40.592827    181.51681    268.34804    241.47247    34.729908   -13329.913     204.5753 
    6000    40.599965    40.599965    40.599965    85.968895    97.971982   -17.763537    177.69824   -13322.993     213.4313 
    7000    40.607556    40.607556    40.607556   -23.005483    -30.86164    68.437027   -106.59184    -13317.41    224.12637 
    8000     40.61223     40.61223     40.61223    46.484611    29.288181    85.974908    24.190743   -13313.902      237.822 
    9000    40.617724    40.617724    40.617724   -6.9510254   -94.476557    101.70955   -28.086073   -13311.596    252.65764 
   10000    40.625859    40.625859    40.625859   -54.962129   -36.731267    23.169375   -151.32449   -13301.927    251.82282 
   11000    40.629389    40.629389    40.629389   -13.311084   -276.44709    124.25183    112.26201   -13298.689    261.87334 
   12000    40.632432    40.632432    40.632432   -65.106865     75.70188   -107.59012   -163.43236    -13296.87    272.98762 
   13000    40.639053    40.639053    40.639053   -137.86604   -228.13743   -320.01953    134.55884   -13293.741    279.81622 
   14000    40.639631    40.639631    40.639631   -2.2790114   -303.08481    71.117185    225.13059   -13289.516    282.75921 
   15000     40.64209     40.64209     40.64209    74.190631    312.10243   -144.44015    54.909616   -13287.261    287.80202 
   16000     40.64281     40.64281     40.64281    158.31403    85.188425    134.37416     255.3795   -13286.636    294.34119 
   17000    40.647992    40.647992    40.647992   -158.38531   -273.63172   -190.96521   -10.558993   -13284.718    296.75402 
   18000    40.646588    40.646588    40.646588    209.72333     299.4661    193.75419    135.94971   -13282.409     296.9294 
   19000    40.647899    40.647899    40.647899    173.29352    215.08565    176.02681    128.76812   -13279.291    294.10785 
   20000    40.649615    40.649615    40.649615   -84.802907   -98.396147   -165.67119    9.6586206   -13282.274    301.74712 
Loop time of 210.959 on 4 procs for 20000 steps with 4000 atoms

Pair  time (%) = 188.135 (89.1809)
Neigh time (%) = 0 (0)
Comm  time (%) = 16.8882 (8.00548)
Outpt time (%) = 0.00326747 (0.00154887)
Other time (%) = 5.93224 (2.81204)

Nlocal:    1000 ave 1000 max 1000 min
Histogram: 4 0 0 0 0 0 0 0 0 0
Nghost:    4235 ave 4235 max 4235 min
Histogram: 4 0 0 0 0 0 0 0 0 0
Neighs:    70000 ave 72653 max 67302 min
Histogram: 1 0 1 0 0 0 0 1 0 1
FullNghs:  0 ave 0 max 0 min
Histogram: 4 0 0 0 0 0 0 0 0 0

Total # of neighbors = 280000
Ave neighs/atom = 70
Neighbor list builds = 0
Dangerous builds = 0
unfix 1

# Store final cell length for strain calculations
variable tmp equal "lx"
variable L0 equal ${tmp}
variable L0 equal 40.649615449594
print "Initial Length, L0: ${L0}"
Initial Length, L0: 40.649615449594

######################################
# DEFORMATION
reset_timestep	0

fix		1 all npt temp 300 300 1 y 0 0 1 z 0 0 1 drag 1
variable srate equal 1.0e10
variable srate1 equal "v_srate / 1.0e12"
fix		2 all deform 1 x erate ${srate1} units box remap x
fix		2 all deform 1 x erate 0.01 units box remap x

# Output strain and stress info to file
# for units metal, pressure is in [bars] = 100 [kPa] = 1/10000 [GPa]
# p2, p3, p4 are in GPa
variable strain equal "(lx - v_L0)/v_L0"
variable p1 equal "v_strain"
variable p2 equal "-pxx/10000"
variable p3 equal "-pyy/10000"
variable p4 equal "-pzz/10000"
fix def1 all print 20 "${p1} ${p2} ${p3} ${p4}" file  Al99.PosFRho.NegRhoR.ZeroPhiR.eam.alloy.def1.txt screen no

# Use cfg for AtomEye
#dump 		1 all cfg 250 dump.tensile_*.cfg id type xs ys zs c_csym c_peratom fx fy fz
#dump_modify 1 element Al

# Display thermo
thermo 	1000
thermo_style	custom step v_strain temp v_p2 v_p3 v_p4 ke pe press

run		20000
Memory usage per processor = 3.04301 Mbytes
Step strain Temp p2 p3 p4 KinEng PotEng Press 
       0 -1.2235784e-15    301.74712 0.0098396147  0.016567119 -0.00096586206     155.9765   -13282.274   -84.802907 
    1000         0.01    299.58877   0.65107057 0.0037103747   0.03347935    154.86083   -13278.579    -2294.201 
    2000         0.02    299.79664    1.2717738 -0.006654106 -0.017045427    154.96828    -13273.31   -4160.2474 
    3000         0.03    298.78039    1.9071537 -0.038979256 -0.012736968    154.44296   -13264.716   -6184.7917 
    4000         0.04    296.12953    2.5156315   0.01956506  0.024179056    153.07271   -13252.588    -8531.252 
    5000         0.05    295.47119    3.1179819 0.0078487103 -0.0039637986     152.7324   -13238.928   -10406.223 
    6000         0.06    303.31362    3.7150279 -0.023309663 -0.0082040741    156.78625   -13227.212    -12278.38 
    7000         0.07    296.46084    4.3072828 0.0094661474  0.027353405    153.24396   -13205.587   -14480.341 
    8000         0.08    298.31951    4.8636397 0.0037077048   0.04199474    154.20473   -13186.154   -16364.474 
    9000         0.09    297.82416    5.3959794  0.014898665 -0.0044644011    153.94868   -13163.184   -18021.379 
   10000          0.1    297.56869    5.8866466 -0.0083863611 -0.025774375    153.81662   -13138.175   -19508.286 
   11000         0.11    295.22315    6.4390272  -0.03179397 -0.0047487655    152.60419   -13109.792   -21341.615 
   12000         0.12    296.90436    6.9280092 0.0092321147 0.0077145651    153.47322   -13081.365   -23149.853 
   13000         0.13    291.76501    7.3370192  -0.06219726 -0.055697499    150.81664   -13047.402   -24063.748 
   14000         0.14    293.34295    7.8188324   0.01434074  0.042469198    151.63229   -13014.922   -26252.141 
   15000         0.15    304.11285    7.1356352 0.0012681812  -0.13560712    157.19938   -12986.305   -23337.654 
   16000         0.16    385.79989    2.7537374 -0.017924181 -0.035162506    199.42433   -13019.848   -9002.1692 
   17000         0.17    392.83045    2.4199589  0.027171961  0.038741482    203.05851   -13032.991   -8286.2412 
   18000         0.18    408.14323    1.5568974 -0.027495635 -0.067455774    210.97385   -13055.603   -4873.1534 
   19000         0.19    410.10196     1.295592  0.060885837   0.17481323    211.98634    -13076.06   -5104.3037 
   20000          0.2    396.44164    1.4473923  0.055581538 -0.0051858717    204.92517    -13087.69   -4992.6266 
Loop time of 267.75 on 4 procs for 20000 steps with 4000 atoms

Pair  time (%) = 241.358 (90.1431)
Neigh time (%) = 0.495176 (0.18494)
Comm  time (%) = 18.6969 (6.98297)
Outpt time (%) = 0.00281858 (0.00105269)
Other time (%) = 7.19706 (2.68798)

Nlocal:    1000 ave 1003 max 997 min
Histogram: 1 0 0 1 0 0 1 0 0 1
Nghost:    3781.75 ave 3801 max 3755 min
Histogram: 1 0 0 0 0 1 0 0 1 1
Neighs:    69079 ave 70763 max 67508 min
Histogram: 2 0 0 0 0 0 0 0 0 2
FullNghs:  0 ave 0 max 0 min
Histogram: 4 0 0 0 0 0 0 0 0 0

Total # of neighbors = 276316
Ave neighs/atom = 69.079
Neighbor list builds = 84
Dangerous builds = 0

######################################
# SIMULATION DONE
print "All done"
All done
