LAMMPS (28 Jun 2014)
# Input file for uniaxial tensile loading of single crystal aluminum
# Mark Tschopp, November 2010

# ------------------------ INITIALIZATION ----------------------------
units 		metal
dimension	3
boundary	p	p	p
atom_style	atomic
variable latparam equal 4.05

# ----------------------- ATOM DEFINITION ----------------------------
lattice		fcc ${latparam}
lattice		fcc 4.05
Lattice spacing in x,y,z = 4.05 4.05 4.05
region		whole block 0 10 0 10 0 10
create_box	1 whole
Created orthogonal box = (0 0 0) to (40.5 40.5 40.5)
  1 by 2 by 2 MPI processor grid
lattice 	fcc ${latparam} orient x 1 0 0 orient y 0 1 0 orient z 0 0 1
lattice 	fcc 4.05 orient x 1 0 0 orient y 0 1 0 orient z 0 0 1
Lattice spacing in x,y,z = 4.05 4.05 4.05
create_atoms	1 region whole
Created 4000 atoms

# ------------------------ FORCE FIELDS ------------------------------
pair_style	eam/alloy
pair_coeff	* * Al99.ZeroFRho.NegRhoR.ZeroPhiR.eam.alloy Al

# ------------------------- SETTINGS ---------------------------------
compute csym all centro/atom fcc
compute peratom all pe/atom

######################################
# EQUILIBRATION
reset_timestep	0
timestep 0.001
velocity all create 300 12345 mom yes rot no
fix 1 all npt temp 300 300 1 iso 0 0 1 drag 1

# Set thermo output
thermo 1000
thermo_style custom step lx ly lz press pxx pyy pzz pe temp

# Run for at least 10 picosecond (assuming 1 fs timestep)
run 20000
Memory usage per processor = 3.04301 Mbytes
Step Lx Ly Lz Press Pxx Pyy Pzz PotEng Temp 
       0         40.5         40.5         40.5    2441.0275    2391.8944    2479.5584    2451.6298       -13440          300 
    1000    40.556747    40.556747    40.556747    865.05551    853.76975    837.14966    904.24711   -13361.109    165.23166 
    2000    40.570609    40.570609    40.570609    261.76978    195.81168    290.77031    298.72734    -13356.44     178.8124 
    3000    40.579489    40.579489    40.579489    103.61466    18.249957    199.76524    92.828781   -13349.944    189.24556 
    4000    40.587258    40.587258    40.587258    66.028006    19.648066    40.267612    138.16834   -13340.439    193.85105 
    5000    40.592257    40.592257    40.592257    177.16138    267.71149    237.54754    26.225108   -13334.213    204.55451 
    6000    40.599387    40.599387    40.599387    83.403808    88.852949   -16.379219    177.73769   -13327.293     213.4093 
    7000    40.606966    40.606966    40.606966   -25.165737   -36.748683    67.484294   -106.23282   -13321.671    224.02889 
    8000    40.611771    40.611771    40.611771     27.80171    6.4653108    62.760317      14.1795   -13318.475     238.3276 
    9000    40.617082    40.617082    40.617082   -7.6249948   -87.352843    105.75834   -41.280479   -13315.895    252.63074 
   10000    40.625282    40.625282    40.625282   -65.980704   -44.257956    4.5208983   -158.20505   -13306.384    252.10063 
   11000    40.628972    40.628972    40.628972   -19.541544   -301.16868    142.65893    99.885121    -13302.91    261.69302 
   12000    40.631761    40.631761    40.631761    -55.62057    76.521596   -80.370675   -163.01263   -13300.974    272.57952 
   13000    40.637889    40.637889    40.637889   -76.004642   -174.69266    -267.1438    213.82253   -13297.772    279.26019 
   14000    40.638025    40.638025    40.638025    59.693114   -244.38044    125.51205    297.94772     -13294.1    283.26746 
   15000    40.641964    40.641964    40.641964    26.999425    283.91213   -233.18608    30.272222   -13292.005    288.60728 
   16000    40.643779    40.643779    40.643779    13.458011    42.293785   -79.826879    77.907127   -13291.269    294.93657 
   17000     40.64665     40.64665     40.64665   -208.50452    -338.1574   -209.68226    -77.67389   -13291.066    300.68225 
   18000    40.644399    40.644399    40.644399    206.66496    75.129694    358.90585    185.95932   -13287.218     297.8691 
   19000    40.646399    40.646399    40.646399    65.490197    133.31988   -93.961751    157.11246   -13287.393    301.39001 
   20000    40.646297    40.646297    40.646297    136.85405    197.97494    26.741812    185.84538   -13286.827    302.20856 
Loop time of 207.954 on 4 procs for 20000 steps with 4000 atoms

Pair  time (%) = 185.084 (89.0025)
Neigh time (%) = 0 (0)
Comm  time (%) = 15.9775 (7.68322)
Outpt time (%) = 0.00271028 (0.00130331)
Other time (%) = 6.88945 (3.31297)

Nlocal:    1000 ave 1000 max 1000 min
Histogram: 4 0 0 0 0 0 0 0 0 0
Nghost:    4235 ave 4235 max 4235 min
Histogram: 4 0 0 0 0 0 0 0 0 0
Neighs:    70000 ave 72653 max 67302 min
Histogram: 1 0 1 0 0 0 0 1 0 1
FullNghs:  0 ave 0 max 0 min
Histogram: 4 0 0 0 0 0 0 0 0 0

Total # of neighbors = 280000
Ave neighs/atom = 70
Neighbor list builds = 0
Dangerous builds = 0
unfix 1

# Store final cell length for strain calculations
variable tmp equal "lx"
variable L0 equal ${tmp}
variable L0 equal 40.6462969200714
print "Initial Length, L0: ${L0}"
Initial Length, L0: 40.6462969200714

######################################
# DEFORMATION
reset_timestep	0

fix		1 all npt temp 300 300 1 y 0 0 1 z 0 0 1 drag 1
variable srate equal 1.0e10
variable srate1 equal "v_srate / 1.0e12"
fix		2 all deform 1 x erate ${srate1} units box remap x
fix		2 all deform 1 x erate 0.01 units box remap x

# Output strain and stress info to file
# for units metal, pressure is in [bars] = 100 [kPa] = 1/10000 [GPa]
# p2, p3, p4 are in GPa
variable strain equal "(lx - v_L0)/v_L0"
variable p1 equal "v_strain"
variable p2 equal "-pxx/10000"
variable p3 equal "-pyy/10000"
variable p4 equal "-pzz/10000"
fix def1 all print 20 "${p1} ${p2} ${p3} ${p4}" file  Al99.ZeroFRho.NegRhoR.ZeroPhiR.eam.alloy.def1.txt screen no

# Use cfg for AtomEye
#dump 		1 all cfg 250 dump.tensile_*.cfg id type xs ys zs c_csym c_peratom fx fy fz
#dump_modify 1 element Al

# Display thermo
thermo 	1000
thermo_style	custom step v_strain temp v_p2 v_p3 v_p4 ke pe press

run		20000
Memory usage per processor = 3.04301 Mbytes
Step strain Temp p2 p3 p4 KinEng PotEng Press 
       0 -8.7405593e-16    302.20856 -0.019797494 -0.0026741812 -0.018584538    156.21503   -13286.827    136.85405 
    1000         0.01    299.59596   0.64335755 0.0081630573 -0.0040234481    154.86455   -13282.977   -2158.3239 
    2000         0.02    297.42405    1.2754869 -0.035530356 -0.0063454706    153.74186    -13276.47   -4112.0369 
    3000         0.03    296.77353     1.912699 -0.016771885 0.0037965736     153.4056   -13268.012   -6332.4124 
    4000         0.04    303.22479    2.5493958 -0.0084138329 -0.011329179    156.74032   -13260.614    -8432.176 
    5000         0.05    299.60106    3.1012549  0.034994895 -0.011335033    154.86718   -13245.446   -10416.383 
    6000         0.06    299.11175    3.7215392  0.037051189 0.0096048406    154.61425   -13229.457   -12560.651 
    7000         0.07    297.62101    4.2556759 -0.029604838 -0.0040634688    153.84367    -13210.57   -14073.359 
    8000         0.08    297.91129    4.8611899  0.012879042  0.043365088    153.99372   -13190.359   -16391.447 
    9000         0.09    300.57605    5.3991991  0.033187125  0.038763395    155.37116   -13169.108   -18237.165 
   10000          0.1    296.47968    5.9223396  0.033047664 -0.011739114     153.2537   -13142.108   -19812.161 
   11000         0.11    296.26148    6.4496938   -0.0157312  0.020758064    153.14091   -13114.903   -21515.736 
   12000         0.12    296.40918    6.9529962 -0.021450901 -0.0050822694    153.21726   -13085.761    -23088.21 
   13000         0.13    295.13953    7.4119952 -0.019404443  0.015265806    152.56096   -13053.708   -24692.855 
   14000         0.14    295.08653    7.8270933 -0.0061162926  0.023484659    152.53357   -13020.347   -26148.206 
   15000         0.15    291.12998    7.9498569  0.047282867 -0.013355863    150.48838   -12983.361   -26612.613 
   16000         0.16      398.724    2.0877352 -0.086416874  0.048863378    206.10495   -13022.379   -6833.9389 
   17000         0.17    415.09264    1.1484269 -0.089493116 0.0038222037    214.56608   -13048.041   -3542.5199 
   18000         0.18    418.45322   0.99689405  0.048391638 0.0028901517    216.30321   -13071.348   -3493.9195 
   19000         0.19    415.28247   0.69857578   0.11359912   0.05400715    214.66421   -13092.419   -2887.2735 
   20000          0.2    409.85131    1.1169958  0.021398124 0.0022513794    211.85678   -13111.724    -3802.151 
Loop time of 252.085 on 4 procs for 20000 steps with 4000 atoms

Pair  time (%) = 231.264 (91.7405)
Neigh time (%) = 0.477965 (0.189605)
Comm  time (%) = 13.6144 (5.40069)
Outpt time (%) = 0.00288349 (0.00114386)
Other time (%) = 6.72581 (2.66807)

Nlocal:    1000 ave 1001 max 999 min
Histogram: 1 0 0 0 0 2 0 0 0 1
Nghost:    3777.5 ave 3790 max 3767 min
Histogram: 2 0 0 0 0 0 0 1 0 1
Neighs:    69257.8 ave 69880 max 68782 min
Histogram: 2 0 0 0 0 0 0 1 0 1
FullNghs:  0 ave 0 max 0 min
Histogram: 4 0 0 0 0 0 0 0 0 0

Total # of neighbors = 277031
Ave neighs/atom = 69.2578
Neighbor list builds = 85
Dangerous builds = 0

######################################
# SIMULATION DONE
print "All done"
All done
