LAMMPS (28 Jun 2014)
# Input file for uniaxial tensile loading of single crystal aluminum
# Mark Tschopp, November 2010

# ------------------------ INITIALIZATION ----------------------------
units 		metal
dimension	3
boundary	p	p	p
atom_style	atomic
variable latparam equal 4.05

# ----------------------- ATOM DEFINITION ----------------------------
lattice		fcc ${latparam}
lattice		fcc 4.05
Lattice spacing in x,y,z = 4.05 4.05 4.05
region		whole block 0 10 0 10 0 10
create_box	1 whole
Created orthogonal box = (0 0 0) to (40.5 40.5 40.5)
  1 by 2 by 2 MPI processor grid
lattice 	fcc ${latparam} orient x 1 0 0 orient y 0 1 0 orient z 0 0 1
lattice 	fcc 4.05 orient x 1 0 0 orient y 0 1 0 orient z 0 0 1
Lattice spacing in x,y,z = 4.05 4.05 4.05
create_atoms	1 region whole
Created 4000 atoms

# ------------------------ FORCE FIELDS ------------------------------
pair_style	eam/alloy
pair_coeff	* * Al99.PosFRho.NegRhoR.PosPhiR.eam.alloy Al

# ------------------------- SETTINGS ---------------------------------
compute csym all centro/atom fcc
compute peratom all pe/atom

######################################
# EQUILIBRATION
reset_timestep	0
timestep 0.001
velocity all create 300 12345 mom yes rot no
fix 1 all npt temp 300 300 1 iso 0 0 1 drag 1

# Set thermo output
thermo 1000
thermo_style custom step lx ly lz press pxx pyy pzz pe temp

# Run for at least 10 picosecond (assuming 1 fs timestep)
run 20000
Memory usage per processor = 3.04301 Mbytes
Step Lx Ly Lz Press Pxx Pyy Pzz PotEng Temp 
       0         40.5         40.5         40.5    2799.9175    2750.7844    2838.4484    2810.5198   -13425.775          300 
    1000    40.562517    40.562517    40.562517    873.95139    862.47222    846.29303    913.08893   -13346.928     165.1912 
    2000    40.576525    40.576525    40.576525    265.97358    203.77483    291.62034    302.52557   -13342.175    178.60786 
    3000    40.585384    40.585384    40.585384    108.39803    22.527764    206.57314    96.093173   -13335.785    189.25252 
    4000    40.593176    40.593176    40.593176    57.812856    16.196431    27.878912    129.36322   -13326.394    194.08331 
    5000    40.598032    40.598032    40.598032    188.26856    259.25272    248.24848    57.304486   -13320.073    204.60799 
    6000    40.605168    40.605168    40.605168    89.463741    124.61031   -23.562362    167.34328   -13313.157    213.48125 
    7000    40.612593    40.612593    40.612593   -7.3537814    9.3340991    67.372252   -98.767695   -13307.653    224.33858 
    8000    40.616852    40.616852    40.616852    122.18005    135.18013    181.10222    50.257797    -13302.82    235.48246 
    9000    40.623172    40.623172    40.623172    8.1492537   -109.75608    114.86581    19.338032   -13301.155    251.56735 
   10000    40.630925    40.630925    40.630925   -19.361675   -45.887945    122.70342    -134.9005   -13291.936    251.61995 
   11000    40.634058    40.634058    40.634058    -10.08254   -76.413004    9.8878297    36.277553   -13289.668    263.56226 
   12000    40.638013    40.638013    40.638013    -79.70692    -12.21785   -124.64739   -102.25552   -13287.284    273.60585 
   13000    40.645538    40.645538    40.645538   -224.17392   -319.06365   -202.80683   -150.65129   -13283.421    279.02766 
   14000    40.646269    40.646269    40.646269   -107.22883   -113.51789   -102.52415   -105.64445    -13278.96    281.53654 
   15000    40.646672    40.646672    40.646672    120.35458    60.220107    132.55561    168.28803   -13275.301    283.86581 
   16000    40.645889    40.645889    40.645889    391.18264    698.96123    307.23621    167.35048   -13273.539    288.17983 
   17000    40.650742    40.650742    40.650742    191.72841    302.29945    240.06764    32.818146   -13273.087    293.42826 
   18000     40.65015     40.65015     40.65015    240.37375    187.57363     301.0823    232.46533   -13271.985    295.99159 
   19000    40.653005    40.653005    40.653005    51.449159   -21.635957    37.051621    138.93181    -13272.55    300.29816 
   20000    40.653684    40.653684    40.653684    -14.41996   -249.25071    204.68089    1.3099405   -13272.913    302.92494 
Loop time of 228.147 on 4 procs for 20000 steps with 4000 atoms

Pair  time (%) = 195.808 (85.8255)
Neigh time (%) = 0 (0)
Comm  time (%) = 25.415 (11.1398)
Outpt time (%) = 0.00245678 (0.00107684)
Other time (%) = 6.9213 (3.03371)

Nlocal:    1000 ave 1000 max 1000 min
Histogram: 4 0 0 0 0 0 0 0 0 0
Nghost:    4235 ave 4235 max 4235 min
Histogram: 4 0 0 0 0 0 0 0 0 0
Neighs:    70000 ave 72653 max 67302 min
Histogram: 1 0 1 0 0 0 0 1 0 1
FullNghs:  0 ave 0 max 0 min
Histogram: 4 0 0 0 0 0 0 0 0 0

Total # of neighbors = 280000
Ave neighs/atom = 70
Neighbor list builds = 0
Dangerous builds = 0
unfix 1

# Store final cell length for strain calculations
variable tmp equal "lx"
variable L0 equal ${tmp}
variable L0 equal 40.6536844811362
print "Initial Length, L0: ${L0}"
Initial Length, L0: 40.6536844811362

######################################
# DEFORMATION
reset_timestep	0

fix		1 all npt temp 300 300 1 y 0 0 1 z 0 0 1 drag 1
variable srate equal 1.0e10
variable srate1 equal "v_srate / 1.0e12"
fix		2 all deform 1 x erate ${srate1} units box remap x
fix		2 all deform 1 x erate 0.01 units box remap x

# Output strain and stress info to file
# for units metal, pressure is in [bars] = 100 [kPa] = 1/10000 [GPa]
# p2, p3, p4 are in GPa
variable strain equal "(lx - v_L0)/v_L0"
variable p1 equal "v_strain"
variable p2 equal "-pxx/10000"
variable p3 equal "-pyy/10000"
variable p4 equal "-pzz/10000"
fix def1 all print 20 "${p1} ${p2} ${p3} ${p4}" file  Al99.PosFRho.NegRhoR.PosPhiR.eam.alloy.def1.txt screen no

# Use cfg for AtomEye
#dump 		1 all cfg 250 dump.tensile_*.cfg id type xs ys zs c_csym c_peratom fx fy fz
#dump_modify 1 element Al

# Display thermo
thermo 	1000
thermo_style	custom step v_strain temp v_p2 v_p3 v_p4 ke pe press

run		20000
Memory usage per processor = 3.04301 Mbytes
Step strain Temp p2 p3 p4 KinEng PotEng Press 
       0 -1.2234559e-15    302.92494  0.024925071 -0.020468089 -0.00013099405    156.58533   -13272.913    -14.41996 
    1000         0.01    304.35327   0.67510545  0.060950728  0.045277322    157.32365   -13271.087    -2604.445 
    2000         0.02    298.79544    1.2806768 -0.0098065096 -0.00081745153    154.45074   -13262.863   -4233.5096 
    3000         0.03    298.37006    1.9387022  0.040976254  0.013647725    154.23086    -13254.58   -6644.4204 
    4000         0.04     300.1092     2.534925 -0.015379546  0.015812201    155.12984   -13244.735   -8451.1923 
    5000         0.05    295.48483    3.1046524 0.0037513459  0.017179784    152.73945   -13229.025   -10418.612 
    6000         0.06    298.49729    3.7321305  0.027678398   0.04418655    154.29663   -13214.778   -12679.985 
    7000         0.07    295.41265    4.2734869 0.0092181802  0.054473151    152.70214   -13195.094   -14457.261 
    8000         0.08    298.52832    4.8088774 -0.039638647 -0.026983824    154.31267   -13176.278   -15807.516 
    9000         0.09    297.55455    5.3975404   0.01845807  0.017245292    153.80931   -13153.151   -18110.812 
   10000          0.1    297.54014    5.9321417 0.0077419048 0.0039822771    153.80186   -13128.232   -19812.886 
   11000         0.11    294.41948    6.4098623 -0.023989469 -0.031520063    152.18876   -13099.588   -21181.176 
   12000         0.12    293.79181    6.9377778  0.011643377 -0.0050613014    151.86431   -13069.951   -23147.866 
   13000         0.13    294.18942    7.3901476 -0.032035028 -0.051510316    152.06984   -13038.764   -24355.341 
   14000         0.14    292.43088    7.8243106  0.017597481  0.011690578    151.16083   -13004.548   -26178.662 
   15000         0.15    294.07309     7.718682 0.0054686978 -0.032550583    152.00971   -12970.735   -25638.667 
   16000         0.16    393.86347    2.3250774 -0.014043196 -0.081670643    203.59249   -13008.284   -7431.2119 
   17000         0.17    405.69018    1.8908173   0.11181297 0.0058173636    209.70585   -13029.357   -6694.8255 
   18000         0.18    408.75388     1.553883  0.080449963   0.15507661    211.28951   -13049.035   -5964.6987 
   19000         0.19    404.28894    1.5592516 -0.034244804 -0.083227488    208.98153   -13064.759    -4805.931 
   20000          0.2    401.29637    1.9380595   0.03498079 -0.081315968    207.43463   -13080.398   -6305.7477 
Loop time of 298.593 on 4 procs for 20000 steps with 4000 atoms

Pair  time (%) = 254.039 (85.0788)
Neigh time (%) = 0.490338 (0.164216)
Comm  time (%) = 31.2807 (10.4761)
Outpt time (%) = 0.00907159 (0.00303812)
Other time (%) = 12.7733 (4.27785)

Nlocal:    1000 ave 1026 max 976 min
Histogram: 1 1 0 0 0 0 0 1 0 1
Nghost:    3723.5 ave 3739 max 3707 min
Histogram: 1 0 0 1 0 0 1 0 0 1
Neighs:    69077.2 ave 70374 max 68250 min
Histogram: 2 0 0 0 0 1 0 0 0 1
FullNghs:  0 ave 0 max 0 min
Histogram: 4 0 0 0 0 0 0 0 0 0

Total # of neighbors = 276309
Ave neighs/atom = 69.0773
Neighbor list builds = 86
Dangerous builds = 0

######################################
# SIMULATION DONE
print "All done"
All done
