LAMMPS (28 Jun 2014)
# Input file for uniaxial tensile loading of single crystal aluminum
# Mark Tschopp, November 2010

# ------------------------ INITIALIZATION ----------------------------
units 		metal
dimension	3
boundary	p	p	p
atom_style	atomic
variable latparam equal 4.05

# ----------------------- ATOM DEFINITION ----------------------------
lattice		fcc ${latparam}
lattice		fcc 4.05
Lattice spacing in x,y,z = 4.05 4.05 4.05
region		whole block 0 10 0 10 0 10
create_box	1 whole
Created orthogonal box = (0 0 0) to (40.5 40.5 40.5)
  1 by 2 by 2 MPI processor grid
lattice 	fcc ${latparam} orient x 1 0 0 orient y 0 1 0 orient z 0 0 1
lattice 	fcc 4.05 orient x 1 0 0 orient y 0 1 0 orient z 0 0 1
Lattice spacing in x,y,z = 4.05 4.05 4.05
create_atoms	1 region whole
Created 4000 atoms

# ------------------------ FORCE FIELDS ------------------------------
pair_style	eam/alloy
pair_coeff	* * Al99.posPhiR.eam.alloy Al

# ------------------------- SETTINGS ---------------------------------
compute csym all centro/atom fcc
compute peratom all pe/atom

######################################
# EQUILIBRATION
reset_timestep	0
timestep 0.001
velocity all create 300 12345 mom yes rot no
fix 1 all npt temp 300 300 1 iso 0 0 1 drag 1

# Set thermo output
thermo 50
thermo_style custom step lx ly lz press pxx pyy pzz pe temp

# Run for at least 10 picosecond (assuming 1 fs timestep)
run 20000
Memory usage per processor = 3.04301 Mbytes
Step Lx Ly Lz Press Pxx Pyy Pzz PotEng Temp 
       0         40.5         40.5         40.5    80182.621    80133.488    80221.152    80193.223   -10781.015          300 
      50    41.311687    41.311687    41.311687    28832.955    28757.701    28881.742    28859.423   -10811.337    95.287257 
     100     41.83043     41.83043     41.83043   -847.88365   -861.76047   -853.20515   -828.68532   -10859.645    141.33779 
     150     41.91096     41.91096     41.91096   -3938.8515   -3953.2859   -3962.2577    -3901.011    -10840.83    107.36056 
     200    41.830334    41.830334    41.830334    -351.6285   -321.35274   -356.30242   -377.23035   -10852.205    129.26915 
     250    41.788433    41.788433    41.788433    1584.8792    1613.6927     1522.378    1618.5669   -10859.082    143.61943 
     300     41.81525     41.81525     41.81525    125.47372     60.44792    192.81937    123.15386   -10858.898    143.99923 
     350    41.839565    41.839565    41.839565   -598.89673   -642.03667   -539.10743   -615.54608   -10850.049    127.79338 
     400    41.832071    41.832071    41.832071   -426.92121   -437.51988   -407.41205   -435.83171   -10851.175    130.85425 
     450    41.813172    41.813172    41.813172    584.00001    644.97266     617.7095    489.31788   -10852.474    134.14895 
     500     41.81795     41.81795     41.81795     215.3254    219.21563     197.8314    228.92916   -10854.518    139.08625 
     550    41.830295    41.830295    41.830295   -295.90504   -313.28622   -195.19511   -379.23379   -10852.895    136.85462 
     600    41.829996    41.829996    41.829996   -216.56236    -226.6719   -166.42157   -256.59362   -10851.257    134.61761 
     650    41.821959    41.821959    41.821959    244.03358    216.37406    215.70327     300.0234   -10851.089     135.3898 
     700    41.822588    41.822588    41.822588    114.69947    54.655117    179.05366    110.38963   -10852.415    138.95707 
     750     41.82821     41.82821     41.82821   -139.22965   -152.73248   -137.26239   -127.69409   -10851.574     138.3444 
     800    41.829904    41.829904    41.829904    119.20423    89.370107    191.79749    76.445078   -10847.919     132.3447 
     850     41.83085     41.83085     41.83085   -454.02581   -487.50292   -439.97985   -434.59466     -10854.8    146.60381 
     900    41.820992    41.820992    41.820992    378.60959     307.9298    459.43617    368.46279   -10848.686    135.87976 
     950     41.82389     41.82389     41.82389    313.53192    333.77463    319.41122     287.4099   -10850.671    140.76787 
    1000    41.835954    41.835954    41.835954   -462.08718   -430.91992   -523.73969   -431.60193   -10849.774    140.10574 
    1050    41.832277    41.832277    41.832277   -135.93326   -139.57613   -105.69097   -162.53268   -10850.359    142.23478 
    1100     41.82481     41.82481     41.82481    395.39292    480.94824    356.90854    348.32197    -10848.11    139.01915 
    1150    41.830232    41.830232    41.830232   -61.928539   -61.954465   -1.2971324   -122.53402   -10849.552    142.81699 
    1200     41.83378     41.83378     41.83378   -205.97325   -217.55357    -208.2329   -192.13328   -10848.923    142.72994 
    1250    41.830499    41.830499    41.830499    84.680582    86.237902    134.30521     33.49863   -10848.274    142.56965 
    1300    41.829336    41.829336    41.829336    109.58224    88.692994    19.937104    220.11663   -10847.738    142.56553 
    1350    41.831745    41.831745    41.831745   -48.185876   -43.144356    -29.28814   -72.125133   -10849.629    147.38335 
    1400     41.83504     41.83504     41.83504   -53.442006   -5.6924256   -72.873932   -81.759659    -10846.33    142.09656 
    1450    41.834383    41.834383    41.834383   -140.85437   -125.73866   -128.08997   -168.73447   -10847.854    146.07183 
    1500    41.829263    41.829263    41.829263    271.88846    280.51241    216.42849    318.72447   -10846.724    145.06361 
    1550    41.833988    41.833988    41.833988    19.105256   -9.3488051    0.4875528    66.177019   -10844.614    142.06983 
    1600     41.83876     41.83876     41.83876   -338.22938   -273.20236   -370.80245   -370.68332    -10848.98    151.54249 
    1650    41.832659    41.832659    41.832659    233.62402    206.29699    230.71425    263.86082   -10843.911    142.83136 
    1700    41.832924    41.832924    41.832924    27.545795 -0.029338147    51.143549    31.523174    -10846.92    149.80306 
    1750     41.83634     41.83634     41.83634    -61.13081    -149.1859   -96.812457    62.605933   -10845.803    148.79687 
    1800    41.838376    41.838376    41.838376   -68.089248    -99.27041   -38.222305   -66.775028   -10844.979    148.22135 
    1850    41.836645    41.836645    41.836645    -74.42642   -121.15919   -27.550936   -74.569137   -10845.211    149.79093 
    1900     41.83279     41.83279     41.83279    257.86488    178.73917    307.65146    287.20399   -10843.578    147.76845 
    1950    41.836782    41.836782    41.836782   -19.001531    18.461662    12.961744      -88.428   -10844.185    150.08734 
    2000    41.840918    41.840918    41.840918   -120.63732   -148.65963   -150.91469   -62.337655   -10844.356    151.39177 
    2050    41.839742    41.839742    41.839742   -151.54737   -99.100428   -199.29103   -156.25066   -10845.286    154.29731 
    2100    41.833723    41.833723    41.833723    237.26401    238.66989    229.16304    243.95909   -10842.933     150.9612 
    2150    41.837183    41.837183    41.837183    160.64415    153.25012    182.12177    146.56054   -10842.377    150.99018 
    2200     41.84618     41.84618     41.84618   -359.35683   -372.60512   -330.19005   -375.27532   -10843.284    153.90875 
    2250     41.84166     41.84166     41.84166   -23.698926    61.756968   -131.34625   -1.5074971   -10841.518    151.56852 
    2300    41.834959    41.834959    41.834959     226.3113    235.77016    266.22812    176.93563   -10843.533    156.58311 
    2350    41.838415    41.838415    41.838415    32.817705     108.8237   -15.881994    5.5114068   -10843.194    157.05437 
    2400    41.844113    41.844113    41.844113   -114.94932    -159.5163   -139.85176   -45.479905   -10841.371     154.6339 
    2450    41.845121    41.845121    41.845121    30.367323   -63.951729    110.24458    44.809118   -10837.994    149.21658 
    2500       41.843       41.843       41.843   -192.14914   -158.46774   -179.68109   -238.29858   -10843.626    161.21281 
    2550    41.837783    41.837783    41.837783    339.97071    404.46405    351.94232    263.50574   -10840.435    156.20365 
    2600    41.844129    41.844129    41.844129   -27.477417   -64.724562    37.292162    -54.99985   -10840.429    157.29606 
    2650    41.848946    41.848946    41.848946   -271.41661   -209.88615   -223.66139   -380.70228   -10840.688    158.96791 
    2700    41.844119    41.844119    41.844119    34.124078    45.151325    51.367472    5.8534383    -10839.75    158.24012 
    2750    41.840614    41.840614    41.840614    247.17441    344.65732    240.47266    156.39324   -10838.204    156.49069 
    2800    41.845481    41.845481    41.845481     32.55622    60.188827   -44.002613    81.482447   -10839.442    160.01348 
    2850    41.851608    41.851608    41.851608    -265.7555   -217.29205   -193.24214    -386.7323   -10838.599    159.37552 
    2900    41.847447    41.847447    41.847447   -70.318494   -49.869623    5.5396655   -166.62552   -10839.738    162.77857 
    2950     41.84111     41.84111     41.84111    324.65023    256.88659    315.00023    402.06388   -10837.011    158.69823 
    3000    41.846644    41.846644    41.846644     106.1457    168.28604    115.77051     34.38054   -10837.415    160.54398 
    3050    41.855405    41.855405    41.855405   -285.20254    -220.0447   -221.11341    -414.4495   -10836.964     160.7423 
    3100    41.851783    41.851783    41.851783   -209.00674   -151.07955   -333.68734   -142.25332   -10838.118    164.21322 
    3150    41.842331    41.842331    41.842331    337.77935    232.52084    491.77867    289.03853   -10837.109    163.41091 
    3200    41.845724    41.845724    41.845724    189.97833    144.51208    173.16688    252.25602   -10836.358    163.15231 
    3250    41.854389    41.854389    41.854389   -319.16205   -316.93054    -316.4812   -324.07442   -10837.204    165.73923 
    3300    41.852619    41.852619    41.852619   -64.181396   -209.10984    26.721692   -10.156034   -10835.695    164.25008 
    3350    41.848159    41.848159    41.848159    159.66661    254.57709    29.911876    194.51085   -10835.229     164.3533 
    3400    41.849355    41.849355    41.849355    109.39701    19.003138    167.91629     141.2716    -10835.04     165.1387 
    3450    41.854767    41.854767    41.854767   -142.33239   -144.11766   -161.70857   -121.17093   -10835.049    166.21194 
    3500    41.854621    41.854621    41.854621    -191.8253   -296.91382   -117.18439   -161.37769   -10836.879    170.86496 
    3550    41.848638    41.848638    41.848638    266.76209    202.91966    264.03149     333.3351    -10832.98    164.58819 
    3600    41.850446    41.850446    41.850446    72.989246    89.058601    5.2233733    124.68576   -10834.785    169.24412 
    3650    41.855829    41.855829    41.855829   -102.29408   -133.35907   -16.490623   -157.03255   -10834.144    169.07415 
    3700    41.857397    41.857397    41.857397   -176.69716    -254.1493   -73.687127   -202.25504   -10833.323    168.71026 
    3750    41.851851    41.851851    41.851851    15.426275   -110.97197    114.13071    43.120083   -10834.249    171.59434 
    3800    41.848627    41.848627    41.848627    359.01364    334.42381     331.7397     410.8774   -10832.812    169.91364 
    3850    41.857375    41.857375    41.857375   -104.44965   -181.72695    -40.04534   -91.576655   -10832.472    170.43204 
    3900    41.862078    41.862078    41.862078   -282.12459   -222.19548   -293.98665   -330.19163   -10832.786    172.19706 
    3950    41.857135    41.857135    41.857135    69.089239      100.587    80.275885    26.404833   -10830.957    169.83623 
    4000    41.854126    41.854126    41.854126    67.821266   -42.227941    185.45987    60.231874   -10833.139    175.18234 
    4050    41.854963    41.854963    41.854963    128.01149  -0.67366792    264.53076    120.17738   -10830.845    171.79885 
    4100    41.860021    41.860021    41.860021   -81.143585   -129.66276   -77.969466   -35.798528   -10831.823    174.84903 
    4150    41.861728    41.861728    41.861728   -200.32993   -279.34268   -64.287452   -257.35967   -10831.992    176.30523 
    4200     41.85637     41.85637     41.85637    165.16149    121.10355    133.89085    240.49007   -10829.924    173.51171 
    4250    41.857707    41.857707    41.857707    125.98801    60.080545    139.45014    178.43335   -10830.514    175.91985 
    4300    41.863971    41.863971    41.863971   -190.84419   -187.70493   -170.42091   -214.40675   -10829.316    174.63341 
    4350    41.862032    41.862032    41.862032   -124.31476   -215.77279   -20.051351   -137.12012   -10831.329    179.67536 
    4400    41.857926    41.857926    41.857926    251.34961    140.26028    339.95953    273.82903   -10827.649    173.83763 
    4450     41.86233     41.86233     41.86233   -82.724213   -105.57959   -110.22519   -32.367863   -10830.694    180.76278 
    4500    41.864295    41.864295    41.864295   -35.966451   -172.25292    67.323883   -2.9703131   -10826.695    174.19566 
    4550    41.863562    41.863562    41.863562   -54.717975   -98.433806   -8.4861092   -57.234011   -10829.809    181.43668 
    4600    41.862268    41.862268    41.862268    86.020812    -2.041564    164.97374    95.130261   -10827.608    178.32645 
    4650    41.863506    41.863506    41.863506    -14.43831    68.555516   -21.331141   -90.539305   -10828.467    181.24229 
    4700    41.864719    41.864719    41.864719    -9.649124   -98.821066    11.395728    58.477966   -10826.536    178.55595 
    4750    41.865187    41.865187    41.865187   -4.4988161    8.8065972    109.28262   -131.58567   -10828.097    182.59584 
    4800    41.864889    41.864889    41.864889    16.418477   -95.994738     33.14617      112.104   -10826.551    180.91221 
    4850    41.866744    41.866744    41.866744     74.07091    128.07668    7.3710216    86.765026   -10825.827    180.68683 
    4900    41.870333    41.870333    41.870333   -169.38396   -159.49787    -212.5963   -136.05771   -10826.002    182.11504 
    4950    41.867975    41.867975    41.867975    69.984264    203.76769    11.983234   -5.7981293    -10825.02      181.452 
    5000    41.867378    41.867378    41.867378    47.772585    18.719679    63.163912    61.434165   -10826.204    184.87473 
    5050    41.869473    41.869473    41.869473   -88.175056   -23.864985   -234.84015   -5.8200349   -10825.816    185.20504 
    5100    41.869389    41.869389    41.869389    3.6125411   -70.415627     123.1721   -41.918847   -10824.491    183.86865 
    5150    41.867971    41.867971    41.867971    20.437488   -12.099903    19.020886    54.391482   -10824.879    185.79045 
    5200    41.868043    41.868043    41.868043    132.71007    117.83829    74.947284    205.34465   -10823.898    185.06579 
    5250    41.872118    41.872118    41.872118   -109.66239   -178.05205   -12.244354   -138.69078   -10824.675    187.73179 
    5300    41.872481    41.872481    41.872481   -49.856955   -163.43601   -86.238415    100.10356   -10822.841    185.33842 
    5350    41.871601    41.871601    41.871601    76.737754    68.007465    89.020358    73.185438   -10823.758    188.28156 
    5400    41.873639    41.873639    41.873639   -50.326023   -1.1976404   -149.08404  -0.69638392   -10822.155    186.23107 
    5450    41.872854    41.872854    41.872854   -37.927377    -124.3034    15.683266   -5.1619934   -10823.331    189.71619 
    5500    41.871017    41.871017    41.871017    241.17192     335.9283    164.38871    223.19876    -10820.71    185.88165 
    5550    41.876408    41.876408    41.876408   -179.78473   -165.29678   -114.82301   -259.23441   -10822.829    191.21088 
    5600    41.875303    41.875303    41.875303   -223.26078   -198.48151     -323.947   -147.35384   -10823.475    193.53041 
    5650    41.868405    41.868405    41.868405    288.59076     248.3903    317.87438    299.50759     -10821.4     190.5909 
    5700    41.872463    41.872463    41.872463    179.86788    164.32403    155.68018    219.59943   -10820.064    189.22721 
    5750    41.880691    41.880691    41.880691    -251.0758   -366.63072   -270.58711   -116.00957   -10820.245     190.6886 
    5800     41.87865     41.87865     41.87865   -127.65738    -133.7998   -183.59494   -65.577402   -10820.902    193.05841 
    5850    41.872636    41.872636    41.872636    163.57907    191.98244     73.48874    225.26602   -10821.249    194.93626 
    5900    41.874886    41.874886    41.874886    192.54826    191.66093    252.21137    133.77247   -10818.333    190.56444 
    5950    41.881622    41.881622    41.881622   -239.34254   -253.14894   -223.05362   -241.82506   -10819.019    192.87009 
    6000    41.878848    41.878848    41.878848    45.259907    92.948561   -23.375742    66.206903   -10818.589    193.23968 
    6050    41.876597    41.876597    41.876597    84.838531    183.52837   -84.056478     155.0437    -10818.58     194.4027 
    6100    41.877616    41.877616    41.877616   -103.44971   -113.70451   -198.27154    1.6269226   -10820.919    199.99998 
    6150    41.876901    41.876901    41.876901    139.44851    233.71706    129.70071    54.927757   -10818.744    197.09102 
    6200    41.881276    41.881276    41.881276    50.252372    11.193493    72.269959    67.293665     -10816.8    194.28567 
    6250    41.885328    41.885328    41.885328   -327.30405   -295.39029   -320.89513   -365.62672   -10818.597    198.95322 
    6300    41.878872    41.878872    41.878872     144.9292     151.6219    115.68473    167.48096   -10817.188    197.47154 
    6350    41.878143    41.878143    41.878143    249.16051    186.12896    236.02781    325.32477   -10816.069    196.48226 
    6400    41.885948    41.885948    41.885948   -221.77247   -64.461476   -343.41048   -257.44546   -10817.545    200.34728 
    6450    41.885252    41.885252    41.885252   -153.73399   -167.89135   -167.06102   -126.24959   -10817.721    201.80696 
    6500    41.879606    41.879606    41.879606    265.24799    218.78161    276.55187    300.41048   -10815.186    198.28307 
    6550    41.883152    41.883152    41.883152   -17.558561    12.567014   -73.945603    8.7029064   -10817.131    202.97736 
    6600    41.887257    41.887257    41.887257     -192.249   -331.48212   -191.89888      -53.366   -10815.811    201.46491 
    6650    41.884459    41.884459    41.884459    84.819762    130.35989   -85.695286    209.79468   -10814.269    199.67223 
    6700    41.883211    41.883211    41.883211    90.796895   -27.348182    166.60881    133.13005   -10814.619    201.51819 
    6750    41.885178    41.885178    41.885178   -42.573198   -135.02364   -2.8974522    10.201502   -10816.297    205.97514 
    6800    41.886242    41.886242    41.886242    65.134736    147.46996   -30.636579    78.570828   -10813.072    200.97956 
    6850     41.88872     41.88872     41.88872   -92.343114   -118.93629   -40.337966   -117.75509   -10814.142    204.11671 
    6900     41.88816     41.88816     41.88816   -39.406881   -70.033778    17.416839   -65.603704   -10813.996    205.01433 
    6950    41.886977    41.886977    41.886977    89.252167    108.10956    63.648322     95.99862   -10812.621     203.3574 
    7000    41.888024    41.888024    41.888024    -99.25833   -167.69209   -24.413581   -105.66932   -10813.408    206.03834 
    7050    41.886728    41.886728    41.886728    178.30314    150.01888    115.51058    269.37997   -10812.098    204.57604 
    7100    41.889876    41.889876    41.889876   -120.02756   -181.50092   -56.257643   -122.32411   -10813.536    208.41462 
    7150    41.890002    41.890002    41.890002    99.154033     65.29438     43.70229    188.46543   -10811.187    205.22729 
    7200    41.891931    41.891931    41.891931   -11.187232    -47.63789    112.18906   -98.112862   -10812.313    208.45072 
    7250    41.894004    41.894004    41.894004   -106.04771   -80.636409   -160.83646   -76.670276   -10811.961    208.91916 
    7300    41.892609    41.892609    41.892609   -30.429136    58.600036    -121.6023   -28.285148   -10810.952     208.0099 
    7350    41.890976    41.890976    41.890976    34.189178    90.236569    72.280888   -59.949922   -10810.942    209.24882 
    7400    41.891322    41.891322    41.891322    88.209638    162.26146   -12.043858    114.41131   -10809.922    208.17123 
    7450    41.893178    41.893178    41.893178    51.882165    69.219441   -14.403758    100.83081   -10810.398     210.4269 
    7500    41.895997    41.895997    41.895997   -87.972377   -95.398879   -109.80427   -58.713986   -10810.841    212.44238 
    7550    41.896979    41.896979    41.896979   -48.654448    50.001139   -74.303516   -121.66097   -10808.322    208.61467 
    7600    41.895368    41.895368    41.895368   -53.337536    18.698602   -213.90048    35.189267    -10809.76    212.51048 
    7650    41.893444    41.893444    41.893444    283.61872    265.56156    222.93363    362.36096   -10807.216    208.59717 
    7700    41.898974    41.898974    41.898974   -133.82733   -176.53024   -128.14828   -96.803478   -10808.527    212.23301 
    7750    41.899417    41.899417    41.899417   -142.36424   -143.89501   -245.10953   -38.088181   -10808.824    214.05967 
    7800    41.894256    41.894256    41.894256    194.05559    230.05973    101.67396     250.4331   -10808.235    213.91301 
    7850     41.89624     41.89624     41.89624   -25.235392    104.00812   -24.652944   -155.06136   -10808.619    215.89142 
    7900    41.899229    41.899229    41.899229   -157.93561   -134.10885   -206.91211   -132.78588   -10809.253    218.10616 
    7950     41.89711     41.89711     41.89711    71.701944    120.25427   -34.991352    129.84291   -10806.473    213.80446 
    8000    41.897128    41.897128    41.897128    62.546406    67.001038    85.481359     35.15682   -10807.392    216.83421 
    8050    41.899958    41.899958    41.899958    97.610958    119.35542   -59.958356    233.43581   -10804.339    212.04462 
    8100    41.903541    41.903541    41.903541   -272.84949   -160.66928   -282.34043   -375.53875   -10808.223    220.56284 
    8150    41.899646    41.899646    41.899646   -7.5108596    24.455991   -8.9660269   -38.022543   -10807.335    219.76856 
    8200    41.897095    41.897095    41.897095    245.41083    239.34047    166.53262     330.3594    -10804.51    215.62543 
    8250      41.9021      41.9021      41.9021   -67.340751    -168.8061    32.280607   -65.496757   -10805.635    218.81566 
    8300    41.903902    41.903902    41.903902    48.786636    18.747919    13.982328    113.62966   -10803.742    216.26251 
    8350    41.905274    41.905274    41.905274   -207.78602   -192.42498   -247.49177   -183.44131   -10807.259    223.98559 
    8400    41.901828    41.901828    41.901828    69.578659    83.786714       66.562    58.387262   -10804.734    220.49031 
    8450     41.90095     41.90095     41.90095    243.18675    288.81772    228.21611    212.52641   -10802.576    217.21106 
    8500    41.906545    41.906545    41.906545   -164.60984   -323.34386   -150.77613    -19.70953   -10804.867    222.65566 
    8550    41.906901    41.906901    41.906901   -128.37226   -176.32553   -59.347828   -149.44342    -10805.01    224.12043 
    8600    41.904689    41.904689    41.904689      71.8251 -0.086503333    153.55662    62.005184   -10802.572    220.65905 
    8650    41.904501    41.904501    41.904501   -41.868604     26.55576   -238.29999    86.138415   -10804.364     224.8709 
    8700    41.903911    41.903911    41.903911    121.52116     148.3045    110.41185    105.84714   -10801.938     221.4458 
    8750    41.906856    41.906856    41.906856   -3.6519599   -32.449918    49.878616   -28.384578   -10801.881    222.40759 
    8800    41.908373    41.908373    41.908373   -200.56978   -312.64624   -133.52444   -155.53866   -10803.576    226.66019 
    8850    41.903623    41.903623    41.903623    196.63636    144.99946    247.57229    197.33734   -10802.282     225.2921 
    8900    41.905656    41.905656    41.905656    148.83461    183.96661    36.445408    226.09182   -10800.658     223.2135 
    8950    41.913586    41.913586    41.913586    -243.5068   -233.10218   -145.80822   -351.61001   -10801.755    226.42418 
    9000     41.91119     41.91119     41.91119   -197.82629   -184.53636   -286.56762   -122.37489   -10802.307    228.38526 
    9050    41.903685    41.903685    41.903685    314.40207    162.58733    345.92248    434.69641    -10801.21    227.52428 
    9100    41.908013    41.908013    41.908013   -3.3851558   -100.96514    -30.35166    121.16133   -10800.328    226.83848 
    9150    41.912858    41.912858    41.912858     65.09529   -31.520001    135.51502    91.290852   -10797.784     222.9014 
    9200    41.915202    41.915202    41.915202   -250.26971    -285.9329   -283.35619   -181.52004   -10800.381    229.07032 
    9250    41.909533    41.909533    41.909533    76.314008     106.4084   -8.2521329    130.78575   -10801.691    232.58001 
    9300    41.909399    41.909399    41.909399    107.52665    35.499009    151.63589    135.44504   -10799.787    230.09196 
    9350    41.913974    41.913974    41.913974   -82.603533   -146.73144   -18.874791   -82.204371   -10798.356    228.23463 
    9400    41.913754    41.913754    41.913754   -35.269834    17.945586   -104.01301   -19.742082   -10798.258    229.18843 
    9450    41.911452    41.911452    41.911452    92.433873    64.034919    173.57927     39.68743   -10798.189    229.94849 
    9500    41.911873    41.911873    41.911873    13.460733    35.239291   -12.179373    17.322281   -10798.684    231.91332 
    9550     41.91342     41.91342     41.91342   -30.742851   -185.79848    129.98978   -36.419855   -10799.572    234.71466 
    9600    41.915945    41.915945    41.915945    31.439683    -17.27658   -23.127852    134.72348   -10796.562    230.05257 
    9650    41.918418    41.918418    41.918418   -117.09321   -98.810075   -125.85654   -126.61303   -10797.219     232.3143 
    9700     41.91562     41.91562     41.91562      3.85787   -104.06016    19.503004    96.130764   -10797.147    233.17957 
    9750    41.913716    41.913716    41.913716    205.83541    325.89669    152.94383    138.66572   -10795.766    231.54399 
    9800    41.918119    41.918119    41.918119   -126.34733    -210.4892   -6.0625336   -162.49026   -10798.572    237.77451 
    9850    41.919604    41.919604    41.919604   -82.975288   -79.039719   -194.54123    24.655085   -10795.545    233.05098 
    9900    41.916962    41.916962    41.916962    109.90043    211.67313    23.541651    94.486522   -10795.118    233.43308 
    9950    41.917571    41.917571    41.917571    117.19628    99.269203   -14.917999    267.23765   -10793.761    231.85403 
   10000    41.920879    41.920879    41.920879   -351.66246   -229.79737     -499.467     -325.723   -10799.377    243.31581 
   10050    41.915192    41.915192    41.915192    93.154991    18.068052    152.24231    109.15462   -10796.515    239.32664 
   10100    41.916408    41.916408    41.916408    374.79139     354.9981    351.36477    418.01129    -10792.04    231.48904 
   10150    41.927281    41.927281    41.927281   -404.54128   -424.73045   -449.76182   -339.13155   -10795.828    239.53251 
   10200    41.924015    41.924015    41.924015   -94.263008   -82.752284   -1.9158243   -198.12091   -10792.204    233.76478 
   10250    41.916814    41.916814    41.916814    152.46382     159.6208    132.35912    165.41154   -10795.165    240.34341 
   10300    41.915787    41.915787    41.915787    241.12231    186.62252    190.75242    345.99199   -10792.884    236.92125 
   10350     41.92234     41.92234     41.92234   -114.95083   -201.39772    16.569515   -160.02429    -10795.64    243.13907 
   10400    41.925801    41.925801    41.925801   -192.19954   -256.79209   -138.96755   -180.83897   -10794.679    242.48616 
   10450     41.92361     41.92361     41.92361    89.793734    275.92213   -97.520263    90.979337   -10791.162    236.80343 
   10500    41.923002    41.923002    41.923002    106.38866    39.510937    217.55564    62.099402     -10793.1    241.21586 
   10550    41.925904    41.925904    41.925904   -70.031803   -36.419958     -147.703   -25.972454   -10791.385    239.00422 
   10600    41.926631    41.926631    41.926631   -138.38415   -174.28922   -176.72412     -64.1391   -10792.838    242.88447 
   10650    41.922792    41.922792    41.922792    226.70479    75.580212    198.97204    405.56213   -10789.603     237.5225 
   10700    41.925451    41.925451    41.925451    34.799707    49.659006    23.074054    31.666063   -10791.331    241.94508 
   10750    41.928549    41.928549    41.928549   -221.77472   -159.37334   -236.75335   -269.19748   -10792.993    245.98177 
   10800    41.925028    41.925028    41.925028     -11.9173    10.667907   -95.416713    48.996906   -10792.909    246.66668 
   10850     41.92246     41.92246     41.92246    293.79712    352.81759    344.09988    184.47389   -10788.532    239.38428 
   10900    41.929133    41.929133    41.929133   -109.23447   -66.636396   -116.43566   -144.63134    -10791.75    246.25094 
   10950    41.931614    41.931614    41.931614   -308.03894   -328.69098   -379.93192   -215.49393    -10791.37    246.68657 
   11000    41.923491    41.923491    41.923491    169.23164    103.51478    224.10482    180.07533   -10790.788    246.45529 
   11050    41.922201    41.922201    41.922201    391.45016     421.0912    281.85762    471.40166   -10788.686    243.31457 
   11100     41.93404     41.93404     41.93404   -298.62119   -257.34556   -366.46947   -272.04855   -10790.582    247.63819 
   11150    41.935682    41.935682    41.935682   -191.25289   -175.11351   -206.42601   -192.21917   -10787.415    242.74906 
   11200    41.926785    41.926785    41.926785    59.399141    132.17149    122.13333   -76.107392   -10790.157    249.06788 
   11250     41.92232     41.92232     41.92232    320.45917    227.52763    324.01665    409.83324   -10789.389    248.26525 
   11300    41.930199    41.930199    41.930199    9.1611307    81.335869     41.40254   -95.255016   -10787.834     246.2366 
   11350    41.937083    41.937083    41.937083   -400.95394   -437.07761   -415.36486   -350.41934   -10790.555    252.49122 
   11400    41.931821    41.931821    41.931821    40.603142   -18.603088    169.78978   -29.377264   -10787.527    247.63111 
   11450    41.927755    41.927755    41.927755    150.78899    181.90393    33.456561    237.00649   -10788.569    250.76124 
   11500    41.929604    41.929604    41.929604    156.84743   -49.471412    271.32907    248.68463     -10786.6    247.81698 
   11550    41.936475    41.936475    41.936475   -132.96378   -116.14523   -221.32847   -61.417632   -10787.645    250.69714 
   11600    41.938796    41.938796    41.938796   -278.64703   -253.01052   -225.75562   -357.17494   -10786.905      250.255 
   11650    41.931062    41.931062    41.931062    99.715348    240.65141    50.602071    7.8925643   -10787.629     252.3776 
   11700    41.927086    41.927086    41.927086     290.6562    387.46154    247.29162    237.21545   -10787.467    253.05428 
   11750    41.934827    41.934827    41.934827    24.926446   -144.08513    113.13638    105.72809   -10785.012    249.28021 
   11800    41.942467    41.942467    41.942467    -385.3027   -407.16293   -319.63484   -429.11034   -10787.609    254.95253 
   11850    41.936421    41.936421    41.936421   -8.4174989    18.574151   -69.271841    25.445194   -10783.671     248.5124 
   11900    41.928916    41.928916    41.928916    308.17993    239.73589    350.43307    334.37083   -10784.946    251.80863 
   11950    41.932397    41.932397    41.932397    62.086639    50.640256    105.33896    30.280699   -10786.576    255.77621 
   12000     41.93928     41.93928     41.93928   -213.80914   -174.83682   -328.45883   -138.13177   -10787.258     257.9857 
   12050    41.939362    41.939362    41.939362   -33.292019    38.853646   -26.261586   -112.46812    -10783.17    251.20442 
   12100    41.937463    41.937463    41.937463   -11.524559    24.240642   -95.102363    36.288042   -10785.067    255.39977 
   12150    41.935583    41.935583    41.935583    62.170717    119.78493    127.09907   -60.371857   -10784.762    255.61046 
   12200    41.936276    41.936276    41.936276    77.907176    139.67535    32.708291    61.337884   -10784.612    256.15371 
   12250    41.940175    41.940175    41.940175   -79.508623    -89.95369   -52.472533   -96.099647   -10783.686    255.44377 
   12300    41.940689    41.940689    41.940689    -210.0532   -335.71987   -246.03292   -48.406801   -10785.132    258.83845 
   12350    41.935023    41.935023    41.935023    312.76604    332.48103     262.5462    343.27088   -10780.943    251.87274 
   12400    41.937202    41.937202    41.937202    -88.05533   -309.55165   -74.214957    119.60062   -10786.448    263.13372 
   12450    41.939608    41.939608    41.939608    15.809039    43.242649    -68.69749    72.881956   -10782.189    255.60096 
   12500    41.940948    41.940948    41.940948   -156.44275   -283.82755   -8.1236514   -177.37704   -10785.005    262.08488 
   12550    41.937903    41.937903    41.937903    86.192661   -30.253409    88.487632    200.34376   -10782.423    258.01799 
   12600    41.938617    41.938617    41.938617    178.73783    251.68862    30.587042    253.93784   -10780.519    255.16765 
   12650    41.944053    41.944053    41.944053   -35.830139    1.0616201   -45.464584   -63.087454   -10780.866     256.5291 
   12700     41.94423     41.94423     41.94423    -192.2851    -265.1225   -201.55361   -110.17918   -10782.324    260.20575 
   12750    41.938189    41.938189    41.938189    84.587655    176.48114    35.787717    41.494107   -10783.623     263.7457 
   12800    41.938063    41.938063    41.938063    315.37775    106.71984    418.78706    420.62634   -10779.303    256.20235 
   12850    41.946741    41.946741    41.946741   -298.73783   -319.70512   -239.22974   -337.27864   -10782.901    263.95078 
   12900    41.945935    41.945935    41.945935   -84.118271   -47.526164   -50.676845    -154.1518   -10779.396    257.83444 
   12950    41.940536    41.940536    41.940536    140.93942    72.549022    206.31282     143.9564   -10782.129    263.88468 
   13000    41.940789    41.940789    41.940789    212.14732    264.73899    94.075832    277.62715   -10779.462    259.61667 
   13050    41.948683    41.948683    41.948683   -72.275771   -158.91099    35.536681   -93.453002   -10779.749    260.76112 
   13100    41.951563    41.951563    41.951563   -333.51402   -235.84681   -260.44904   -504.24623   -10781.234    264.61522 
   13150    41.943788    41.943788    41.943788    124.99001    88.378812    123.83244    162.75878   -10779.771    262.69602 
   13200    41.940604    41.940604    41.940604     281.4994    185.14012    507.61297     151.7451   -10779.001    261.85387 
   13250    41.946668    41.946668    41.946668   -11.564631   -16.003591   -102.88511    84.194806   -10779.861    264.17432 
   13300    41.951476    41.951476    41.951476   -346.00821   -548.09838   -149.74904    -340.1772   -10780.662    266.49461 
   13350    41.945975    41.945975    41.945975    43.899605    33.991357    66.266661    31.440798   -10778.249    262.89499 
   13400    41.941648    41.941648    41.941648    291.30415    217.48581    301.70651    354.72011    -10776.85    260.99428 
   13450    41.946577    41.946577    41.946577    46.236118    12.568254    21.201743    104.93836   -10779.091    265.86403 
   13500    41.952869    41.952869    41.952869   -403.95503   -438.90949   -315.76422   -457.19139   -10781.523    271.12564 
   13550     41.94679     41.94679     41.94679     152.8957    112.28485    46.691037    299.71122   -10776.875     263.2897 
   13600    41.945909    41.945909    41.945909    210.96603    218.42632    370.10447    44.367311   -10778.067    266.27568 
   13650     41.95186     41.95186     41.95186    -118.1235   -298.45188   -62.677873    6.7592384   -10777.262    265.20328 
   13700    41.952886    41.952886    41.952886   -42.722414   -54.680814   -169.09163    95.605206   -10776.173    263.98181 
   13750    41.951909    41.951909    41.951909   -7.2582362    189.79411   -10.631908   -200.93691   -10777.414    267.02716 
   13800     41.94968     41.94968     41.94968    11.003343   -83.151108    40.667692    75.493445   -10777.487    268.13285 
   13850    41.948607    41.948607    41.948607    49.750624    92.820737    74.839753   -18.408619   -10777.614     269.0159 
   13900    41.950246    41.950246    41.950246    37.177938    -91.54919   -11.501306    214.58431   -10775.696    265.96416 
   13950    41.952525    41.952525    41.952525    41.884174   -200.02161    83.760925    241.91321   -10776.713    268.70134 
   14000    41.956043    41.956043    41.956043   -180.35397   -73.321057    -220.7869   -246.95394   -10775.606    267.27779 
   14050    41.953062    41.953062    41.953062  -0.76132274     113.1523   -34.225491   -81.210775   -10774.896     266.8134 
   14100    41.947649    41.947649    41.947649    225.08716    83.509772    296.87075    294.88095   -10776.296     270.1891 
   14150    41.950764    41.950764    41.950764    190.79861    305.80369    75.238299    191.35385   -10775.151    268.62773 
   14200    41.960005    41.960005    41.960005   -328.32108   -452.60377   -447.51524   -84.844247   -10776.142    271.20479 
   14250    41.957153    41.957153    41.957153   -195.77352   -166.35029   -121.24719   -299.72306   -10776.467       272.47 
   14300    41.948578    41.948578    41.948578     365.1192    236.35188    395.03446    463.97127   -10773.949    268.37987 
   14350    41.952645    41.952645    41.952645    91.837389    190.20981    19.997216    65.305141   -10775.285    271.69752 
   14400    41.958891    41.958891    41.958891   -289.58207   -286.22267   -177.39681   -405.12674   -10775.456    272.54674 
   14450     41.95591     41.95591     41.95591    43.028067    39.139436     37.75656    52.188205   -10773.029    268.86986 
   14500    41.953205    41.953205    41.953205    121.09608    244.45997    127.18928   -8.3610066   -10774.972    273.13768 
   14550    41.954926    41.954926    41.954926   -57.906948   -21.877068   -75.532995   -76.310781    -10775.64    274.84293 
   14600    41.957816    41.957816    41.957816    76.365616    3.9740756    86.767319    138.35545   -10772.782    270.07344 
   14650    41.960841    41.960841    41.960841   -144.47902    -200.7261    17.648258   -250.35923   -10772.271    269.78922 
   14700     41.95599     41.95599     41.95599    121.21658   -120.18236    267.98195    215.85015   -10773.898    273.78666 
   14750    41.954855    41.954855    41.954855    144.74695    155.03635    372.98849   -93.783997   -10773.984     274.4283 
   14800    41.960443    41.960443    41.960443    -218.3895   -420.77717   -151.53488   -82.856464   -10775.352    277.64861 
   14850    41.958443    41.958443    41.958443   -125.00493   -233.48652   -18.531563   -122.99671   -10773.467    275.00979 
   14900    41.952898    41.952898    41.952898    256.49993    160.98394    422.91776     185.5981   -10772.479    273.50169 
   14950    41.956577    41.956577    41.956577    165.77299    237.59362     214.1037    45.621643    -10772.03    273.19391 
   15000    41.964277    41.964277    41.964277   -278.32474   -192.24695   -205.32523   -437.40205   -10773.253    276.30958 
   15050     41.96196     41.96196     41.96196   -95.079272   -99.247941   -137.03259   -48.957285   -10771.831    274.08291 
   15100    41.955553    41.955553    41.955553     266.2062    147.62111    396.06087    254.93663   -10770.512    272.36727 
   15150    41.957714    41.957714    41.957714   -64.935509   -100.50431   -44.075492   -50.226722   -10774.175    280.04395 
   15200    41.960223    41.960223    41.960223    13.429038    39.824081   -66.376042    66.839074   -10772.036    276.39624 
   15250     41.96241     41.96241     41.96241   -103.09206    36.105513   -165.31502   -180.06669   -10772.363    277.62354 
   15300    41.961583    41.961583    41.961583   -47.314728   -154.77243    84.597023   -71.768774   -10771.939    277.58312 
   15350     41.95888     41.95888     41.95888      29.4051   -4.1620107    54.471817    37.905494   -10772.926    279.93513 
   15400    41.959496    41.959496    41.959496    221.93806    254.82022    318.99964    91.994308    -10769.76     274.7334 
   15450    41.965523    41.965523    41.965523   -240.79901   -84.968648   -378.41151   -259.01687   -10771.329    278.18706 
   15500    41.962676    41.962676    41.962676    -134.3456   -169.96633   -90.394765   -142.67571   -10773.259    282.52383 
   15550    41.957823    41.957823    41.957823     303.6867    373.18708    218.23199    319.64102   -10769.892    276.51748 
   15600     41.96414     41.96414     41.96414     23.19958   -2.2577481    -38.89695    110.75344   -10770.559    278.50165 
   15650    41.969361    41.969361    41.969361    -293.2387   -223.76162   -416.42378   -239.53069    -10769.38    276.68084 
   15700    41.961543    41.961543    41.961543    56.459178    65.787825    20.298967    83.290744   -10769.496    277.54749 
   15750    41.955361    41.955361    41.955361    319.33121    441.07516    252.92135    263.99713   -10773.485      285.668 
   15800    41.965083    41.965083    41.965083   -65.006592   -114.05389   -56.206739   -24.759148   -10769.154    277.89954 
   15850    41.972527    41.972527    41.972527   -533.25534   -629.61845   -458.32181   -511.82575   -10772.051    283.90003 
   15900    41.960283    41.960283    41.960283    110.94328    40.707124    103.66542     188.4573   -10769.319    279.56154 
   15950    41.953602    41.953602    41.953602    577.69026    551.89094     635.6383    545.54155   -10768.007    277.61288 
   16000    41.966312    41.966312    41.966312   -212.16018   -327.89411   -163.90704    -144.6794   -10771.029    283.68331 
   16050     41.97228     41.97228     41.97228    -306.7882   -171.13086   -460.23122   -289.00252    -10768.65    279.69414 
   16100    41.965508    41.965508    41.965508    66.556865   -55.850546    252.34004    3.1810976   -10769.022    281.22545 
   16150    41.961539    41.961539    41.961539    159.09921    30.943287     231.8989    214.45543   -10769.104    281.85227 
   16200    41.964168    41.964168    41.964168    69.382601    184.59598   -25.442253     48.99407    -10769.28    282.79496 
   16250    41.968343    41.968343    41.968343   -99.664892   -116.63803      73.2329   -255.58954   -10767.292    279.38216 
   16300    41.966808    41.966808    41.966808   -95.566719   -253.19312   -37.165961    3.6589236   -10768.614    282.34972 
   16350    41.961662    41.961662    41.961662    198.25521    273.04845    54.000922    267.71627   -10768.729    283.01261 
   16400    41.963556    41.963556    41.963556   -48.975646    41.420724    7.8495029   -196.19717   -10771.019    287.90457 
   16450    41.967293    41.967293    41.967293    157.51313    -28.52841    244.25854    256.80927   -10765.833    278.54738 
   16500    41.972762    41.972762    41.972762   -373.53203   -343.26043   -394.99096    -382.3447   -10768.206    283.55237 
   16550     41.96591     41.96591     41.96591   -41.377211    11.296325   -45.289037    -90.13892    -10769.72    286.94512 
   16600     41.95909     41.95909     41.95909    508.70074    589.47701    603.44282     333.1824   -10766.417    281.48643 
   16650    41.970446    41.970446    41.970446   -2.3279521   -189.83089   -4.9195074    187.76655   -10767.016     283.1261 
   16700    41.981164    41.981164    41.981164   -694.82738   -674.67489   -630.09042   -779.71682   -10769.586    288.08002 
   16750    41.966799    41.966799    41.966799   -110.94082   -282.18957   -79.146682    28.513783   -10768.419     286.4992 
   16800    41.952498    41.952498    41.952498    823.58336    730.41055    947.93774    792.40179   -10766.983    284.59168 
   16850    41.968068    41.968068    41.968068    72.547661    -18.63112    50.742577    185.53153   -10766.132    282.96149 
   16900    41.983772    41.983772    41.983772   -696.45865   -829.55263   -665.26459   -594.55873   -10767.086    285.33288 
   16950    41.973002    41.973002    41.973002   -202.18127   -115.15788   -325.00544   -166.38049   -10767.257    286.16653 
   17000    41.955259    41.955259    41.955259    594.32464    449.91041    738.61936    594.44414   -10767.664    287.40502 
   17050    41.960582    41.960582    41.960582    375.58978    519.88029    269.32378    337.56527    -10767.95    288.28392 
   17100    41.980217    41.980217    41.980217   -496.95222   -427.54243   -355.18564   -708.12858   -10765.535    284.17771 
   17150    41.980203    41.980203    41.980203    -572.5906   -603.75599   -398.22213   -715.79369   -10767.095    287.45894 
   17200    41.960112    41.960112    41.960112    339.61005    113.78581    421.34949    483.69485   -10766.898    287.79716 
   17250    41.955768    41.955768    41.955768    708.11743    707.83981    761.12913    655.38334   -10764.795    284.33687 
   17300    41.976367    41.976367    41.976367    -121.7268   -216.81022   -76.184706   -72.185479   -10763.945    283.07383 
   17350    41.986752    41.986752    41.986752   -855.43105   -900.51788   -864.57488   -801.20037   -10766.604    288.50237 
   17400     41.96697     41.96697     41.96697   -7.9224849   -41.783503    3.1777032    14.838345   -10768.946    293.65018 
   17450    41.952541    41.952541    41.952541    919.69519    962.65877      1010.13     786.2968   -10765.732    287.92382 
   17500    41.972106    41.972106    41.972106    40.815457    86.897959      -26.248    61.796413   -10764.409    285.66184 
   17550    41.990125    41.990125    41.990125   -828.25652   -859.86237   -857.05957   -767.84763   -10764.502    286.01661 
   17600    41.973994    41.973994    41.973994   -170.83632   -195.42822   -196.57368   -120.50705   -10765.318    288.13756 
   17650    41.954063    41.954063    41.954063    940.72581    959.75961    847.73311    1014.6847    -10764.48    287.13138 
   17700    41.968835    41.968835    41.968835   -142.47486    -252.0807    13.849786   -189.19366   -10768.879    295.73226 
   17750    41.982571    41.982571    41.982571     -506.699   -627.60918   -435.50688   -456.98094   -10764.549    287.58495 
   17800    41.975577    41.975577    41.975577    4.2289121      101.583    57.980202   -146.87646   -10763.154    285.47414 
   17850    41.965766    41.965766    41.965766    272.95334    85.523321    282.79571    450.54097   -10764.887     289.4186 
   17900    41.966507    41.966507    41.966507    169.49824    94.263206    268.12214    146.10938   -10766.815    293.55976 
   17950    41.976464    41.976464    41.976464   -24.468357   -341.91215    140.51877    127.98831   -10764.042    288.52438 
   18000    41.983685    41.983685    41.983685   -307.84671   -395.26264   -221.17832   -307.09917   -10763.364    287.57458 
   18050    41.977334    41.977334    41.977334   -173.39664    22.001915   -348.72397   -193.46786    -10764.41    289.95842 
   18100    41.966587    41.966587    41.966587    318.07933    193.12285    447.48612    313.62903    -10764.76    291.10704 
   18150    41.968913    41.968913    41.968913    123.76561   -270.42176    452.43119     189.2874   -10765.176    292.30316 
   18200    41.978032    41.978032    41.978032   -47.555238   -159.97594    145.22334   -127.91312   -10763.061    288.63119 
   18250    41.981191    41.981191    41.981191   -192.09982   -324.12808    103.22925   -355.40063   -10763.514    289.87959 
   18300    41.976232    41.976232    41.976232     127.3574    25.340728    127.87195    228.85953   -10762.072    287.56881 
   18350    41.975909    41.975909    41.975909   -104.95723   -144.37565    -119.6576   -50.838454   -10765.459    294.54672 
   18400    41.973769    41.973769    41.973769    206.63303    207.10316    253.95599    158.83993   -10762.042    288.21474 
   18450    41.977482    41.977482    41.977482    16.968984   -91.326058    10.927083    131.30593    -10762.72    289.94228 
   18500    41.982856    41.982856    41.982856   -283.71723   -325.09916   -152.59066   -373.46188   -10764.543    293.15557 
   18550    41.976678    41.976678    41.976678   -132.52042   -120.31876   -202.80327    -74.43924   -10764.752    294.10933 
   18600     41.96754     41.96754     41.96754    306.19537    414.98446    246.46139    257.14024    -10763.82    293.12439 
   18650    41.972332    41.972332    41.972332    247.18336    85.406594    464.31501    191.82849   -10761.309    288.56135 
   18700    41.983577    41.983577    41.983577   -238.58649   -275.35852   -149.39365   -291.00731   -10760.694     287.6381 
   18750    41.982407    41.982407    41.982407   -393.17221   -364.71309   -471.17554   -343.62799    -10764.65    295.54181 
   18800    41.970282    41.970282    41.970282     291.8138    379.04926    433.93637    62.455772   -10763.308    293.32877 
   18850     41.97031     41.97031     41.97031    333.70095    327.91272    403.01646    270.17367   -10762.727    292.54371 
   18900    41.981391    41.981391    41.981391    -129.5729   -162.72373   -17.751593   -208.24337   -10760.574    288.76309 
   18950    41.983435    41.983435    41.983435   -305.64005   -533.69176   -331.53393   -51.694463    -10762.52    292.72906 
   19000    41.974539    41.974539    41.974539    227.09749    265.30931     164.0679    251.91525   -10761.511    291.20193 
   19050    41.974746    41.974746    41.974746    83.507589    60.381066     138.5032    51.638502   -10763.439    295.00463 
   19100    41.979689    41.979689    41.979689   -81.165401   -179.01813    112.76441   -177.24249   -10761.972    292.41082 
   19150    41.979717    41.979717    41.979717   -101.09315   -171.54324    105.56022   -237.29642   -10761.541    291.72722 
   19200    41.974847    41.974847    41.974847    14.804966    -318.9432    283.95659    79.401506   -10763.915    296.95119 
   19250    41.973417    41.973417    41.973417    307.18639    337.02183    466.64841    117.88892   -10761.924    293.24171 
   19300    41.984152    41.984152    41.984152   -145.28907   -63.515963    27.406075   -399.75734    -10761.08    292.18572 
   19350    41.987169    41.987169    41.987169   -479.13875   -285.83694   -532.11093   -619.46837   -10762.418    294.95102 
   19400    41.973906    41.973906    41.973906     297.0694    496.29665     335.9075    59.004041   -10761.275    293.45153 
   19450    41.971493    41.971493    41.971493    178.50966    78.078117    221.34045    236.11043   -10762.232    295.32303 
   19500    41.975988    41.975988    41.975988    -46.37985   -236.47349    218.27113   -120.93718   -10764.079     299.1731 
   19550    41.980504    41.980504    41.980504    143.65655    216.79526    263.77497   -49.600586   -10757.492    286.81203 
   19600    41.984925    41.984925    41.984925   -308.58134   -208.05167   -398.44338   -319.24897   -10761.972    295.57865 
   19650     41.97967     41.97967     41.97967    7.9340422    61.812479   -30.079373   -7.9309793   -10761.978    295.60589 
   19700    41.975893    41.975893    41.975893    178.11228    255.51833    265.49936    13.319139   -10761.823    295.75535 
   19750    41.978968    41.978968    41.978968    127.01752    157.02501    264.07774   -40.050187   -10760.659    293.88375 
   19800     41.98628     41.98628     41.98628   -225.18312   -170.29215   -245.91643   -259.34076    -10759.95     292.4795 
   19850    41.982879    41.982879    41.982879   -353.62226   -307.07944   -208.29854   -545.48879   -10763.885    300.44967 
   19900    41.969339    41.969339    41.969339     517.2708    555.41166    679.24596    317.15478   -10760.003    293.37075 
   19950    41.974668    41.974668    41.974668    211.34685    171.81926    387.50623    74.715057   -10761.482    296.42827 
   20000     41.98735     41.98735     41.98735   -276.27934   -142.87031   -187.97438   -497.99334   -10760.543    294.72387 
Loop time of 321.013 on 4 procs for 20000 steps with 4000 atoms

Pair  time (%) = 247.596 (77.1295)
Neigh time (%) = 0.0194033 (0.00604442)
Comm  time (%) = 52.3354 (16.3032)
Outpt time (%) = 0.380589 (0.118559)
Other time (%) = 20.6817 (6.44264)

Nlocal:    1000 ave 1013 max 978 min
Histogram: 1 0 0 0 0 1 0 0 0 2
Nghost:    2995.25 ave 3013 max 2982 min
Histogram: 2 0 0 0 0 0 1 0 0 1
Neighs:    67478.2 ave 68455 max 65962 min
Histogram: 1 0 0 0 1 0 0 0 0 2
FullNghs:  0 ave 0 max 0 min
Histogram: 4 0 0 0 0 0 0 0 0 0

Total # of neighbors = 269913
Ave neighs/atom = 67.4783
Neighbor list builds = 3
Dangerous builds = 0
unfix 1

# Store final cell length for strain calculations
variable tmp equal "lx"
variable L0 equal ${tmp}
variable L0 equal 41.9873502631202
print "Initial Length, L0: ${L0}"
Initial Length, L0: 41.9873502631202

######################################
# DEFORMATION
reset_timestep	0

fix		1 all npt temp 300 300 1 y 0 0 1 z 0 0 1 drag 1
variable srate equal 1.0e10
variable srate1 equal "v_srate / 1.0e12"
fix		2 all deform 1 x erate ${srate1} units box remap x
fix		2 all deform 1 x erate 0.01 units box remap x

# Output strain and stress info to file
# for units metal, pressure is in [bars] = 100 [kPa] = 1/10000 [GPa]
# p2, p3, p4 are in GPa
variable strain equal "(lx - v_L0)/v_L0"
variable p1 equal "v_strain"
variable p2 equal "-pxx/10000"
variable p3 equal "-pyy/10000"
variable p4 equal "-pzz/10000"
fix def1 all print 20 "${p1} ${p2} ${p3} ${p4}" file  Al99.posPhiR.eam.alloy.def1.txt screen no

# Use cfg for AtomEye
#dump 		1 all cfg 250 dump.tensile_*.cfg id type xs ys zs c_csym c_peratom fx fy fz
#dump_modify 1 element Al

# Display thermo
thermo 	50
thermo_style	custom step v_strain temp v_p2 v_p3 v_p4 ke pe press

run		20000
Memory usage per processor = 3.04347 Mbytes
Step strain Temp p2 p3 p4 KinEng PotEng Press 
       0 -1.0153669e-15    294.72387  0.014287031  0.018797438  0.049799334     152.3461   -10760.543   -276.27934 
      50       0.0005     294.8728  0.035201164  0.018316658  0.030633039    152.42309   -10760.563   -280.50287 
     100        0.001    296.13851  0.061755542 0.0079585584 -0.0039979507    153.07735   -10761.125   -219.05383 
     150       0.0015     295.0306  0.061504987 -0.014455167 -0.046987099    152.50466   -10760.507  -0.20906964 
     200        0.002    294.50848  0.096665136 -0.022166521 -0.013021654    152.23477   -10760.295    -204.9232 
     250       0.0025     296.4914   0.12737901  0.037755412  0.059002157    153.25976   -10761.068   -747.12194 
     300        0.003    293.68254   0.18419107  0.020999535 -0.012041424    151.80783   -10759.477    -643.8306 
     350       0.0035    292.74915   0.17191272 -0.010479238 -0.0055984743    151.32535   -10758.834   -519.45003 
     400        0.004    295.57306   0.16778711 -0.016290085 -0.027573368    152.78506   -10759.907   -413.07886 
     450       0.0045    296.25875   0.22782708 0.0024079415 0.0086031427     153.1395   -10760.264   -796.12721 
     500        0.005    299.78498   0.25532682 0.0098831188  0.035709249    154.96225   -10762.026   -1003.0639 
     550       0.0055    293.98832   0.26367231 -0.018444936 -0.019067529    151.96589   -10758.633   -753.86615 
     600        0.006    295.86881   0.32104906  0.016608395  0.012209549    152.93794    -10759.58   -1166.2233 
     650       0.0065    294.43853   0.34033827   0.01496624  0.022157492    152.19861   -10758.508   -1258.2067 
     700        0.007      294.213   0.31310441 0.00070821935 0.0064914815    152.08203   -10758.101   -1067.6804 
     750       0.0075    296.22916   0.35753473 -0.044883053 -0.029086189    153.12421   -10759.023    -945.2183 
     800        0.008    295.77871    0.3895951  0.015618439  -0.01370443    152.89136   -10758.678   -1305.0304 
     850       0.0085    294.32058    0.4257983 0.0058163567  0.018020499    152.13764   -10757.705   -1498.7839 
     900        0.009    296.72371   0.47287929  0.038641802  0.030161777    153.37984   -10758.787   -1805.6096 
     950       0.0095    295.11048   0.48555503  0.011600036 -0.017686275    152.54595   -10757.465   -1598.2293 
    1000         0.01    298.74277   0.47269306 -0.020560875 -0.037520101    154.42352   -10759.143   -1382.0403 
    1050       0.0105    298.59981   0.49663081 -0.0033183817 0.0017407568    154.34962   -10758.653   -1650.1773 
    1100        0.011    294.04346   0.55182442 -0.0010255704  0.022147253    151.99439   -10756.003   -1909.8203 
    1150       0.0115    293.17098   0.56633194  0.022881366 0.0039245312     151.5434   -10755.407   -1977.1261 
    1200        0.012    298.58046   0.61838634  0.014751949  0.028216332    154.33962   -10758.002   -2204.5154 
    1250       0.0125    297.34546   0.60814184 -0.022812732 -0.0042849348    153.70124   -10756.965   -1936.8139 
    1300        0.013    297.26787     0.582418 -0.034945419 -0.039769403    153.66113   -10756.533   -1692.3439 
    1350       0.0135    292.07871   0.64154115 -0.016319626 0.0093969013    150.97879   -10753.601   -2115.3947 
    1400        0.014    297.03845   0.73435039  0.043857678  0.051557225    153.54254   -10755.899   -2765.8843 
    1450       0.0145    298.17718   0.74505893  0.011852577  0.032038634    154.13116   -10756.201   -2629.8338 
    1500        0.015    296.12686   0.71878972 -0.023631574  -0.03136383    153.07133   -10754.475   -2212.6477 
    1550       0.0155    299.63762   0.73347193   0.01916326 -0.030607895    154.88608   -10756.081   -2406.7577 
    1600        0.016    298.51341   0.78745932  0.027874686 -0.035950346    154.30496   -10755.263   -2597.9455 
    1650       0.0165    290.96933   0.78357666 0.0075894126 0.0087534197    150.40534   -10750.868   -2666.3983 
    1700        0.017    298.87319     0.831893  0.013727786  0.044276729    154.49094     -10754.8   -2966.3251 
    1750       0.0175    293.99787   0.80351637 -0.043620086 0.00056743331    151.97082   -10751.835   -2534.8791 
    1800        0.018    297.30633   0.86034145 -0.029330531 0.0095721294    153.68101   -10753.236   -2801.9435 
    1850       0.0185    297.52493   0.89840431 -0.019783041 0.0089830112    153.79401   -10752.957   -2958.6809 
    1900        0.019    296.04374   0.92168919   0.01621645  0.031656846    153.02836   -10751.809   -3231.8749 
    1950       0.0195    302.53268   0.96216654   0.03667375 0.0050099634    156.38257   -10754.657   -3346.1675 
    2000         0.02    291.21022    0.9515187 -0.010794757 -0.054010835    150.52986   -10748.453   -2955.7104 
    2050       0.0205    296.26557   0.99049515  0.016307952 -0.014336972    153.14303   -10750.645   -3308.2204 
    2100        0.021    297.03695    1.0450342  0.017757574 0.0075865001    153.54176   -10750.719   -3567.9275 
    2150       0.0215    293.85903    1.0300942  0.021937177 0.0015002956    151.89906   -10748.681   -3511.7722 
    2200        0.022    296.53752    1.0345635 -0.0090086304 -0.0074778266     153.2836   -10749.654     -3393.59 
    2250       0.0225    293.75468     1.053272  -0.06113389 -0.024424651    151.84512   -10747.621   -3225.7117 
    2300        0.023    299.85282    1.1476285  0.017619267  0.028683426    154.99732   -10750.734   -3979.7708 
    2350       0.0235    294.76742    1.1644804   0.01102544  0.070161025    152.36862   -10747.525   -4152.2229 
    2400        0.024    294.60742     1.154759 -0.013464598   -0.0266678    152.28591   -10746.929   -3715.4221 
    2450       0.0245    299.61028    1.1785494 -0.015628329 -0.016577557    154.87194   -10749.116   -3821.1449 
    2500        0.025     294.6886    1.1827988 0.0056246077 -0.015525844    152.32787   -10746.217   -3909.6585 
    2550       0.0255     296.0845    1.2248605  0.022276387 -0.010145534    153.04943   -10746.691   -4123.3045 
    2600        0.026     297.0797    1.2635087  0.014151986 0.0065665602    153.56386   -10746.616   -4280.7576 
    2650       0.0265    298.43337    1.2973992  0.011043528 -0.0062545888    154.26359   -10747.049   -4340.6272 
    2700        0.027    298.95624    1.3126304  0.019952114 0.0092439304    154.53387   -10746.648   -4472.7547 
    2750       0.0275    294.23451    1.2956244 -0.027043719 -0.017494804    152.09315   -10743.715   -4170.2864 
    2800        0.028     294.3139    1.3191326 -0.021307778 0.0022002688    152.13419   -10743.331   -4333.4171 
    2850       0.0285    294.70661    1.3511531  0.003761528 0.0054691889    152.33718   -10743.177   -4534.6127 
    2900        0.029    298.10219    1.4008625  0.034758348   0.02310257     154.0924   -10744.486   -4862.4114 
    2950       0.0295    296.91091     1.406714 -0.0076183108  0.022087795    153.47661   -10743.426   -4737.2783 
    3000         0.03    297.70735    1.4092576  -0.02034799 -0.024278872     153.8883   -10743.334   -4548.7693 
    3050       0.0305    296.85821    1.4175963 -0.019198664 -0.015340822    153.44937   -10742.282   -4610.1895 
    3100        0.031    295.68247     1.474878  0.029037724 -0.020145377    152.84161   -10741.338   -4945.9011 
    3150       0.0315    297.35064     1.533199  0.023744377 -0.0036030375    153.70391   -10741.412   -5177.8011 
    3200        0.032    292.84385    1.5583308  0.032012346  0.018133204     151.3743   -10738.708    -5361.588 
    3250       0.0325    299.73162    1.5629047 -0.017830491  0.049560322    154.93467   -10741.871   -5315.4483 
    3300        0.033    296.91057    1.5481316  -0.06492889  -0.02109617    153.47643   -10739.854   -4873.6885 
    3350       0.0335    297.72695    1.5784752 -0.022778213 -0.0068890393    153.89843   -10739.865   -5162.6932 
    3400        0.034    295.36418    1.6099045 0.0071735608  0.012139119    152.67709    -10737.95   -5430.7239 
    3450       0.0345    293.18908    1.6289153  0.033395372  0.025225893    151.55276   -10736.219   -5625.1218 
    3500        0.035    297.65508    1.6577969  0.021787495  -0.02195723    153.86128    -10738.33    -5525.424 
    3550       0.0355    295.25319    1.6755088 -0.013596821  -0.03082835    152.61972   -10736.425   -5436.9456 
    3600        0.036    294.28043    1.6709522 -0.0014999592 -0.029364079    152.11688   -10735.241   -5466.9605 
    3650       0.0365    294.65205    1.7430778  0.031714877 -0.0059625095    152.30898   -10735.243   -5896.1007 
    3700        0.037    299.31605    1.7622386  0.040557651   0.03275142    154.71986   -10736.794   -6118.4923 
    3750       0.0375    298.46947    1.7391868 -0.024475992 0.0014371022    154.28225   -10735.728    -5720.493 
    3800        0.038    294.08006    1.7781547 -0.066874597 -0.028242193    152.01331   -10732.863   -5610.1265 
    3850       0.0385    295.74386    1.8367446 -0.010995003  0.022888127    152.87335   -10733.213   -6162.1258 
    3900        0.039    294.23434    1.8659876  0.021556036  0.064067837    152.09306   -10731.919   -6505.3715 
    3950       0.0395    295.07973    1.8753303 -0.012718362  0.044721909    152.53005   -10731.848   -6357.7796 
    4000         0.04    301.38758    1.8950452 0.0022386789 -0.012038154    155.79065   -10734.341   -6284.1525 
    4050       0.0405    295.97313    1.8728042 -0.032206371 -0.069573351    152.99186   -10730.883   -5903.4148 
    4100        0.041    295.26697    1.9068452  0.023036771 -0.066356882    152.62684   -10729.862   -6211.7503 
    4150       0.0415    300.67489    1.9888959  0.081568568  0.025079318    155.42226   -10732.365   -6985.1459 
    4200        0.042    289.61647      2.01264   0.05395271  0.024215783    149.70603   -10726.127   -6969.3616 
    4250       0.0425    298.73733    2.0057675 -0.026144317  0.015284427    154.42071   -10730.177   -6649.6921 
    4300        0.043    297.99329    2.0096189 -0.053880585 -0.038506217    154.03611   -10729.098   -6390.7737 
    4350       0.0435    294.07066    2.0371918 -0.042116328  0.016646208    152.00845   -10726.318   -6705.7391 
    4400        0.044    296.72044    2.0984634 0.0070051573  0.058312309    153.37815    -10727.24   -7212.6028 
    4450       0.0445    292.41197    2.0964299 0.0040814236 0.0023839568    151.15105   -10724.348    -7009.651 
    4500        0.045    298.52673    2.1362187  0.030424522  0.014307591    154.31185   -10726.781   -7269.8359 
    4550       0.0455    296.02898    2.1259576 -0.030123533 -0.015826813    153.02073   -10724.605   -6933.3575 
    4600        0.046    290.86857    2.1196937 -0.0029566371 -0.059859336    150.35326   -10721.479   -6856.2592 
    4650       0.0465    295.00307    2.1851383  0.023596158  0.010552757    152.49043   -10722.958   -7397.6241 
    4700        0.047    299.64811     2.218907  0.049704715  0.037501502     154.8915   -10724.715   -7687.0439 
    4750       0.0475    294.23851    2.2059831 -0.027752726 -0.033825507    152.09522   -10721.004   -7148.0164 
    4800        0.048    292.26314    2.2063985 -0.035968241 0.0073384986    151.07412   -10719.476   -7259.2293 
    4850       0.0485    298.65784    2.3139489  0.026259215  0.001043858    154.37962   -10722.176   -7804.1733 
    4900        0.049    294.32395    2.2918097  0.021625993 0.0093008782    152.13938   -10719.251   -7742.4553 
    4950       0.0495    296.23066    2.2985125 -0.005567002  0.049108421    153.12498   -10719.291   -7806.8463 
    5000         0.05    299.21706     2.324105 -0.031832046 -0.037519753    154.66868   -10720.357    -7515.844 
    5050       0.0505    289.16668    2.2862358 -0.042495555  -0.05069273    149.47353   -10714.402   -7310.1583 
    5100        0.051    293.89638    2.4045792  0.046641493  0.027705218    151.91837   -10716.042   -8263.0862 
    5150       0.0515    301.67625    2.4560931   0.06355816  0.071763405    155.93987     -10719.8   -8638.0489 
    5200        0.052    294.44132    2.4047321 -0.024552325 -0.038385402    152.20005   -10715.161   -7805.9812 
    5250       0.0525    295.47129    2.4193337 -0.033310428 -0.023105817    152.73245   -10714.452   -7876.3916 
    5300        0.053    295.57302    2.4431242  -0.03841893 -0.020833024    152.78504   -10713.915   -7946.2409 
    5350       0.0535    293.70268    2.4868412  0.052672696  0.021260808    151.81824   -10712.579   -8535.9158 
    5400        0.054    293.54124    2.5271434  0.039037582  0.026977494    151.73479   -10711.656   -8643.8617 
    5450       0.0545    297.70566    2.5198534 -0.0036865188 0.0048972134    153.88742   -10713.494    -8403.547 
    5500        0.055    296.80121    2.5114236 -0.028051482 -0.064560785    153.41991   -10711.988   -8062.7043 
    5550       0.0555    286.92088    2.5221598 -0.064077207 -0.023094042    148.31265   -10705.755   -8116.6286 
    5600        0.056    297.15661    2.5886531  0.047487234  0.056282477    153.60361   -10710.697   -8974.7426 
    5650       0.0565    295.87633    2.6081228  0.030939185  0.048404042    152.94182   -10709.126   -8958.2202 
    5700        0.057    297.90704    2.5989425 0.0029087266 -0.014807248    153.99152   -10709.513   -8623.4799 
    5750       0.0575    291.35345    2.5830834 -0.058272938 -0.060147915     150.6039   -10705.187    -8215.542 
    5800        0.058     295.6875    2.6793424  0.025852978  0.010528988    152.84421   -10706.814   -9052.4145 
    5850       0.0585    295.05206    2.7251511  0.040618362  0.040850322    152.51575   -10706.043   -9355.3991 
    5900        0.059    296.07665    2.6979447 -0.0046717649  0.012653139    153.04537   -10705.297   -9019.7537 
    5950       0.0595    290.16279    2.6915323 -0.030469654 -0.029624534    149.98843   -10701.154   -8771.4604 
    6000         0.06    295.14413    2.7439416 -0.057237979 0.0012254423    152.56334   -10703.178   -8959.7635 
    6050       0.0605     293.0949    2.7858208  0.003744971  0.041101182    151.50407   -10701.517   -9435.5564 
    6100        0.061    298.84281    2.8370428   0.06447528  0.043427577    154.47523   -10703.832   -9816.4855 
    6150       0.0615    294.50791    2.8087405  0.017532496 -0.045707724    152.23447   -10700.685   -9268.5508 
    6200        0.062    294.35004    2.7771496 -0.013802239 -0.062122277    152.15287    -10699.73   -9004.0837 
    6250       0.0625    289.94413    2.8414543 0.0098071414 -0.043461202     149.8754   -10696.665   -9359.3342 
    6300        0.063    297.96463    2.9488577  0.066175369  0.031536189    154.02129   -10700.021   -10155.231 
    6350       0.0635    291.99684    2.9037663  0.010498168  0.015413543    150.93647   -10696.063   -9765.5935 
    6400        0.064    297.55907    2.9366862 -0.014975677 -0.023790073    153.81165   -10697.986   -9659.7349 
    6450       0.0645     299.6085     2.932131 -0.057873778 -0.0038866198    154.87102   -10698.145    -9567.902 
    6500        0.065    289.03934    2.8994915 -0.018830119 0.0049778687    149.40771   -10692.177   -9618.7974 
    6550       0.0655    292.61008    2.9691235 0.0024679287   0.07308408    151.25346   -10693.214   -10148.918 
    6600        0.066    296.23403    3.0127191  0.014135034  0.033499394    153.12672   -10694.407   -10201.178 
    6650       0.0665    293.89611    3.0028453 -0.051196464 -0.0082528887    151.91822   -10692.403   -9811.3197 
    6700        0.067     293.7261    3.0003565 -0.024384035 -0.016526776    151.83035   -10690.729    -9864.819 
    6750       0.0675    294.17127    3.0006896 0.0060463862 0.00098789975    152.06046   -10690.262   -10025.746 
    6800        0.068    290.46791    3.0536735   0.04805347 -0.014161226    150.14615   -10687.951   -10291.886 
    6850       0.0685    297.96442    3.0901824  0.078430699  -0.01745061    154.02118   -10690.943   -10503.875 
    6900        0.069    291.59116    3.0819019 -0.011763722 -0.003470163    150.72677   -10686.451   -10222.227 
    6950       0.0695    292.10418    3.1039918 -0.058323087 -0.033409407    150.99196    -10685.83   -10040.864 
    7000         0.07    292.40648    3.1363336  0.023190003 -0.039360382    151.14822   -10685.216   -10400.544 
    7050       0.0705    291.50709    3.1578896   0.01685582  0.050873669    150.68331   -10683.862   -10752.063 
    7100        0.071    295.08388    3.2045671   -0.0044926  0.042607807     152.5322   -10684.655   -10808.941 
    7150       0.0715    291.70456    3.1859526  -0.00916972 -0.0020948269    150.78539   -10681.655   -10582.294 
    7200        0.072    297.25148    3.2117248 -0.015160042 0.0074832232    153.65265   -10683.711    -10680.16 
    7250       0.0725    291.62091    3.2231211  -0.02767568 -0.030206899    150.74215   -10679.876   -10550.795 
    7300        0.073    291.77518    3.2669408 0.0035576858 -0.0087653445    150.82189   -10679.557   -10872.444 
    7350       0.0735    290.72054    3.2820446  0.024646735  0.027226675    150.27674   -10677.906    -11113.06 
    7400        0.074    297.42673    3.3085803  0.025090941  0.039287454    153.74325   -10680.359   -11243.196 
    7450       0.0745    292.26027    3.3254657 -0.028622379 -0.0051896846    151.07264   -10676.955   -10972.179 
    7500        0.075    293.87513    3.3537205 -0.013340817 -0.011762094    151.90738   -10676.689   -11095.392 
    7550       0.0755    292.82926    3.3484483 0.0090539502 -0.034982617    151.36676   -10675.058   -11075.065 
    7600        0.076      294.068    3.3738126  0.014113354 -0.026766925    152.00708   -10675.106   -11203.863 
    7650       0.0765    294.71165    3.4406624  0.066134663  0.026334716    152.33979   -10674.526   -11777.106 
    7700        0.077    293.82656    3.4509849 0.0016417528  0.028117088    151.88228   -10672.955   -11602.479 
    7750       0.0775    292.31028     3.442868 -0.064521432  0.016621415    151.09849   -10671.302    -11316.56 
    7800        0.078     292.9032    3.4366205 -0.059651075  0.016751704    151.40498   -10670.421   -11312.404 
    7850       0.0785    291.25358    3.4481562 -0.016136642 0.0025759444    150.55227   -10668.483   -11448.652 
    7900        0.079    293.42338    3.4896519  0.046106064 0.0028587086    151.67387   -10668.858   -11795.389 
    7950       0.0795    293.20468    3.5019849  0.033193647  0.002552961    151.56082   -10667.778   -11792.438 
    8000         0.08    290.06047    3.4818912 -5.4118683e-05 -0.040400783    149.93554    -10665.25   -11471.454 
    8050       0.0805    291.36938    3.5163757 0.0011528386 -0.029232693    150.61213    -10664.68   -11627.653 
    8100        0.081    290.84557    3.5272741 0.0094497586 -0.0039967757    150.34137   -10663.192   -11775.757 
    8150       0.0815    292.54724    3.5876736  0.018730639 0.0059858593    151.22098   -10663.366     -12041.3 
    8200        0.082     292.6319     3.633313  0.026274559   0.04140261    151.26474   -10662.392   -12336.634 
    8250       0.0825     294.9956    3.6044132 0.0098760714 -0.017794917    152.48657   -10662.556   -11988.314 
    8300        0.083    293.63579     3.601527 -0.063512332 -0.050094423    151.78367   -10660.766   -11626.401 
    8350       0.0835    293.21166    3.6263923  -0.03219056 -0.0042548707    151.56443    -10659.74    -11966.49 
    8400        0.084    283.28483    3.6529488  0.037430341  0.036475899    146.43313   -10653.923    -12422.85 
    8450       0.0845    291.92697    3.7118972  0.059410106  0.051212405    150.90035   -10657.345   -12741.732 
    8500        0.085    290.65438    3.6736007 -0.024056722  0.017194437    150.24254   -10655.271   -12222.461 
    8550       0.0855    292.05377    3.6481176 -0.065552127 -0.056183116     150.9659   -10654.564   -11754.608 
    8600        0.086    291.65867    3.6722404 -0.050410182 -0.0098498262    150.76167   -10653.308   -12039.935 
    8650       0.0865    292.87128     3.760641  0.016929905  0.036427182    151.38848   -10653.524   -12713.327 
    8700        0.087     286.9731    3.7538384  0.078159634 0.0024494575    148.33965   -10649.334   -12781.492 
    8750       0.0875    296.42166    3.7959156  0.045111255  0.039839834    153.22371   -10653.031   -12936.222 
    8800        0.088    290.77291    3.7364633 -0.034950213 -0.058681067    150.30381   -10648.853   -12142.774 
    8850       0.0885    293.26807    3.7503851 -0.038701789 -0.050929397    151.59358   -10649.134   -12202.513 
    8900        0.089    291.93399    3.8251808  0.031921457 -0.013457726    150.90398   -10647.641   -12812.148 
    8950       0.0895    287.38955    3.8485151  0.057945257  0.030048989    148.55491   -10644.567   -13121.698 
    9000         0.09    294.91116    3.8895198  0.045044639  0.056343542    152.44292   -10647.147   -13303.027 
    9050       0.0905    290.37409    3.8234252 -0.025224227 -0.036590604    150.09765    -10643.46   -12538.701 
    9100        0.091    289.69277    3.8177085 -0.074032794 -0.042861138    149.74547   -10641.601   -12336.048 
    9150       0.0915    292.24869    3.8860864  0.008653893 -0.009961767    151.06665   -10642.103   -12949.262 
    9200        0.092    288.15678    3.9150587  0.023786938  0.029001452     148.9515   -10639.639   -13226.157 
    9250       0.0925    292.67637    3.9816677  0.021027668  0.096304939    151.28773   -10640.833   -13663.335 
    9300        0.093    292.17408    3.9496414 -0.041431312  0.023338601    151.02809   -10639.497   -13105.162 
    9350       0.0935    289.37358    3.9190261 -0.055148623 -0.061603542    149.58048   -10636.691   -12674.246 
    9400        0.094    292.80336    3.9500648 -0.011719081 -0.0057668471    151.35337   -10637.396   -13108.596 
    9450       0.0945    289.66143    3.9911317  0.020924773  0.043601712    149.72927   -10634.822   -13518.861 
    9500        0.095    285.55821    4.0154479  0.022751589  0.035167792    147.60827   -10631.572   -13577.891 
    9550       0.0955    287.34111    3.9941202  0.012758863  -0.01388242    148.52987   -10631.096   -13309.989 
    9600        0.096    291.75867    3.9844455 -0.0073307882 -0.042131368    150.81336   -10632.006   -13116.611 
    9650       0.0965     286.3689    4.0239215 -0.021671253 -0.054075717    148.02733   -10628.096   -13160.582 
    9700        0.097    294.03746    4.1065776  0.038361226  0.035755638    151.99129   -10631.411   -13935.648 
    9750       0.0975    286.83634    4.0915333  0.028004683 0.0031264517    148.26895    -10626.59   -13742.215 
    9800        0.098    289.82613    4.1313546  0.035122136 -0.0031701559    149.81441   -10626.444   -13877.689 
    9850       0.0985    294.51614     4.109946  0.013500635   -0.0687553    152.23873   -10627.849   -13515.638 
    9900        0.099    281.99837    4.0440244 -0.029054515   -0.1009267    145.76815   -10620.171   -13046.811 
    9950       0.0995    294.02892    4.1647938  0.037368207  0.012329232    151.98688   -10626.073   -14048.304 
   10000          0.1    289.85141    4.1946389  0.078246762  0.067854308    149.82748   -10622.912   -14469.133 
   10050       0.1005    289.53524    4.1791377 -0.021268918  0.031802305    149.66404   -10621.004    -13965.57 
   10100        0.101    289.27595     4.093783 -0.089383084 -0.022034602    149.53001   -10618.652   -13274.551 
   10150       0.1015    291.16642      4.05375 -0.047899259 -0.0035577518    150.50722   -10618.421   -13340.977 
   10200        0.102     287.9764    4.0836525 -0.020061233  0.062172209    148.85826   -10616.043   -13752.545 
   10250       0.1025     282.7709     4.094951 -0.006605261  0.049098914    146.16748   -10612.795   -13791.482 
   10300        0.103     285.1165    4.1264798  0.014906942  0.047820103    147.37995   -10613.186   -13964.023 
   10350       0.1035    291.75722    4.1410847 -0.0092595131  0.033072228    150.81261   -10614.733   -13882.991 
   10400        0.104     288.3256    4.1227051  -0.03291659 -0.045876204    149.03877   -10611.371   -13479.708 
   10450       0.1045    290.00534    4.0739008 -0.026726192 -0.031517216    149.90704   -10610.489   -13385.525 
   10500        0.105    284.59529    4.0424914 -0.021406869 -0.014837649    147.11053    -10606.65   -13354.156 
   10550       0.1055    281.40512    4.0387185  0.050967872 0.0078379915    145.46149   -10604.277   -13658.414 
   10600        0.106    292.89946    4.0517669  0.089831834  0.039489668    151.40305   -10609.477   -13936.961 
   10650       0.1065    285.98274     3.970143 0.00027416344 -0.052106306    147.82771   -10603.981   -13061.036 
   10700        0.107    290.26245    3.9223892 -0.0019077021 -0.076108667    150.03994   -10604.703   -12814.576 
   10750       0.1075     286.7915    3.9010359  0.032538414 -0.057195243    148.24577   -10602.108   -12921.264 
   10800        0.108    286.96722    3.8343053  0.021245892  0.034563945    148.33661   -10600.894   -12967.051 
   10850       0.1085    287.15725    3.7316895   0.02203427  0.038049295    148.43483   -10599.727   -12639.244 
   10900        0.109    294.14238    3.5729092 -0.014414825 -0.035152656    152.04553   -10601.657   -11744.472 
   10950       0.1095    295.31381     3.448375   0.05384258 -0.057283009    152.65105    -10600.81   -11483.115 
   11000         0.11    299.51361    3.2555972  0.018396549  -0.01620076    154.82198   -10601.706    -10859.31 
   11050       0.1105     298.4992    3.0802195 0.0025784306  0.028074775    154.29762   -10600.296   -10369.576 
   11100        0.111    305.51725    2.9051759   0.03054304    0.0454644    157.92533   -10602.853   -9937.2777 
   11150       0.1115    308.03886    2.7549953 -0.0047515486 -0.0025007209    159.22877   -10603.512   -9159.1434 
   11200        0.112    316.21953    2.5388832 -0.022127851 -0.0058209724    163.45746   -10607.127   -8369.7811 
[...]
   11650       0.1165    332.57839    1.3048567 -0.015884149  0.016297024    171.91353   -10615.181   -4350.8986 
   11700        0.117    334.56088     1.223623  0.016526116  0.071755294    172.93831   -10616.624   -4373.0147 
   11750       0.1175    333.24895    1.0930253 -0.017849661  0.006709995    172.26015   -10616.398   -3606.2853 
   11800        0.118    343.60229    1.0621632 -0.023077647 -0.020551372    177.61191   -10622.013   -3395.1138 
   11850       0.1185    346.40415    1.0792037 -0.033434315 -0.062741019    179.06023   -10624.171   -3276.7611 
   11900        0.119    341.34852    1.0621552 -0.036068795 -0.032270982    176.44692   -10622.392    -3312.718 
   11950       0.1195    342.85903     1.063955   0.04638894  0.085810487    177.22771   -10623.616   -3987.1814 
   12000         0.12    340.64504    1.0070728   0.06284477   0.14228516    176.08328   -10622.774   -4040.6759 
   12050       0.1205    339.48613   0.92675855 -0.040611201 -0.021387992    175.48422   -10622.175   -2882.5312 
   12100        0.121    342.38247   0.90925426 -0.067364963  -0.11241992    176.98137   -10623.607   -2431.5646 
   12150       0.1215    345.84969     1.005531 -0.043257507 -0.052151906    178.77362   -10625.649   -3033.7387 
   12200        0.122    341.80871    1.1374482  0.052007112  0.035986632    176.68479   -10623.834   -4084.8065 
   12250       0.1225    335.18869     1.180345   0.12279464 0.0013814106    173.26283   -10620.568   -4348.4035 
   12300        0.123    343.83119    1.1827435  0.067855791  0.015609382    177.73023   -10625.356   -4220.6955 
   12350       0.1235    344.21884    1.2233284  -0.04739345  -0.02209444    177.93062   -10625.526   -3846.1351 
   12400        0.124    344.34458     1.247252 -0.090540125 -0.096543668    177.99561   -10625.907    -3533.894 
   12450       0.1245    341.67108     1.279358  0.035379214 -0.034999714    176.61365   -10625.071   -4265.7916 
   12500        0.125    341.79362    1.3248817   0.16581007  0.063176036    176.67699   -10625.588   -5179.5593 
   12550       0.1255    343.25769    1.2831302  0.025480943  0.020062974    177.43378   -10626.865   -4428.9136 
   12600        0.126    347.49811    1.2590121  -0.11633234  -0.02694722    179.62571   -10629.288   -3719.1084 
   12650       0.1265    346.82456    1.2023359  -0.04258861 -0.0043222303    179.27754   -10629.248   -3851.4169 
   12700        0.127    341.64789    1.2097586  0.037975426 0.0058220651    176.60166   -10627.281   -4178.5205 
   12750       0.1275    346.18535    1.2139769  0.050398665  0.067563736    178.94713   -10629.763   -4439.7976 
   12800        0.128    341.55059    1.2209899 0.0058423854 -0.015363546    176.55137   -10627.784    -4038.229 
   12850       0.1285    340.95449    1.1994388 -0.030257098 -0.053571971    176.24324    -10627.52   -3718.6991 
   12900        0.129    344.23256    1.1946889 -0.013908087 0.0078331426    177.93771   -10629.557   -3962.0464 
   12950       0.1295     343.0974    1.1827203  0.040307312  0.025585858    177.35093   -10629.124    -4162.045 
   13000         0.13    339.12059    1.1636361  0.012027327 -0.032517317    175.29527   -10627.667   -3810.4872 
   13050       0.1305    342.68501     1.184409 -0.039316242  0.014774875    177.13776   -10629.648   -3866.2253 
   13100        0.131    346.79249    1.1866893 -0.064235477 0.0057724497    179.26096   -10632.441   -3760.7544 
   13150       0.1315    346.34872    1.2071618  0.047098017  0.048280893    179.03157    -10632.42   -4341.8024 
   13200        0.132    341.77223    1.1954146  0.038513057  0.043305648    176.66593   -10630.501   -4257.4443 
   13250       0.1325    343.31312    1.1594216 -0.018763488 -0.0053024375    177.46244   -10631.246   -3784.5189 
   13300        0.133    346.49639    1.1686342 -0.059435698 0.0068447325    179.10791    -10633.08    -3720.144 
   13350       0.1335    348.23067    1.1656507 0.0095787714  0.023326679    180.00438   -10634.219   -3995.1873 
   13400        0.134    340.92974    1.1267581 0.0042145237  0.024442979    176.23044   -10630.757   -3851.3855 
   13450       0.1345    348.81475    1.1510346  0.020716274  0.021004323    180.30629   -10635.125   -3975.8506 
   13500        0.135    340.41107    1.0946793  0.052784036 -0.078747353    175.96233   -10630.703   -3562.3865 
   13550       0.1355    347.51911    1.1350472  0.027771121 -0.033989456    179.63656   -10634.925   -3762.7627 
   13600        0.136    342.80815    1.1446722  0.040692104 -0.0028570074    177.20141    -10632.85   -3941.6909 
   13650       0.1365    345.56031    1.0706346 -0.0063899942  0.020070708    178.62403    -10634.93   -3614.3845 
   13700        0.137    338.78663    1.0593002 -0.046136884 -0.011926723    175.12264   -10631.432   -3337.4555 
   13750       0.1375    339.63603    1.0908477 -0.025077086  0.016087108    175.56171   -10632.453   -3606.1925 
   13800        0.138     341.5266    1.1189675  0.012627203  0.053772095    176.53897   -10633.711   -3951.2226 
   13850       0.1385    341.88267    1.0829816 -0.0018839829  0.020516085    176.72302   -10634.256   -3672.0457 
   13900        0.139    345.65175    1.0654187 -0.00074849285 -0.0031165709     178.6713   -10636.325    -3538.512 
   13950       0.1395    341.20027    1.0215416 -0.002819537 -0.046104932    176.37028   -10634.312   -3242.0573 
   14000         0.14    344.70979    1.0563672  0.023829971 -0.010300043    178.18439    -10636.47   -3566.3238 
   14050       0.1405    338.79819    1.0664264  0.049340338 -0.020942227    175.12862   -10633.794   -3649.4151 
   14100        0.141    339.87035    1.0897429 -0.015115689  0.026574448    175.68283   -10634.593   -3670.6722 
   14150       0.1415    345.46097    1.1154228 -0.018379586 0.0078153277    178.57268   -10637.537   -3682.8619 
   14200        0.142    339.61351    1.1298873 0.0059253658 -0.006379216    175.55007   -10634.732   -3764.7781 
   14250       0.1425    341.27062    1.1310801  0.032937268   0.02466145    176.40665   -10635.921   -3962.2629 
   14300        0.143    338.73868    1.0837783 0.0094305298 -0.011481739    175.09786   -10634.612   -3605.7568 
   14350       0.1435    346.60553     1.090631  0.010187662 -0.084567337    179.16432   -10638.913   -3387.5045 
   14400        0.144    339.30221    1.0784628 -0.014704925 -0.028347314    175.38915   -10635.566   -3451.3685 
   14450       0.1445    335.92423    1.1528307  0.024733884  0.046822497    173.64304   -10634.518   -4081.2903 
   14500        0.145     339.4933    1.1839923 0.0049929459  0.053771383    175.48793   -10636.463   -4142.5221 
   14550       0.1455    337.54799    1.1391628 -0.036632465  0.037103137    174.48238   -10635.417   -3798.7783 
   14600        0.146    339.95341    1.0951933 -0.047885235  0.017710585    175.72577    -10636.76   -3550.0623 
   14650       0.1465     338.5161    1.0732782  -0.02725301  0.011325306     174.9828   -10636.176   -3524.5017 
   14700        0.147    340.14848    1.1048986 0.0094590988 0.0057436391     175.8266   -10637.345   -3733.6711 
   14750       0.1475    341.50812    1.1237811 0.0034171565 -0.040610608    176.52941   -10638.382    -3621.959 
   14800        0.148    333.78624    1.1460981 0.0067809697 -0.029428934    172.53789   -10634.548   -3744.8337 
   14850       0.1485     343.8514    1.1873032   0.09289293  0.043656491    177.74068   -10639.888   -4412.8419 
   14900        0.149    339.58536    1.2012052  0.023117296 -0.042107526    175.53552   -10638.208   -3940.7166 
   14950       0.1495    341.28733    1.2135697 -0.033696954 -0.087879337    176.41528   -10639.192   -3639.9779 
   15000         0.15     340.6339    1.2063698  0.017474291 -0.0012695488    176.07752   -10639.018   -4075.2483 
   15050       0.1505    338.45801     1.239642  0.060490669  0.042736701    174.95278   -10638.206   -4476.2312 
   15100        0.151    340.13796    1.2397718  0.003092312  0.096631334    175.82116   -10639.605   -4464.9848 
   15150       0.1515    333.29705    1.1709544 -0.062368665 -0.041412037    172.28502   -10636.152   -3557.2457 
   15200        0.152    338.92683    1.1061124  -0.03222229 -0.027389989    175.19512   -10639.459   -3488.3336 
   15250       0.1525    337.48055     1.092304  0.050915315 -0.043704584    174.44752   -10639.125   -3665.0492 
   15300        0.153    340.80294    1.1126712  0.068703824   0.03703417     176.1649   -10641.212   -4061.3641 
   15350       0.1535    341.57493    1.0900879  0.031468704 -0.014576117    176.56395   -10641.932   -3689.9349 
   15400        0.154    340.42549    1.1077441  0.019712355 -0.060815253    175.96979   -10641.542   -3555.4705 
   15450       0.1545    341.11398    1.0569041 -0.034851946 -0.056569196    176.32568    -10642.33   -3218.2765 
   15500        0.155    340.65454    1.1183139 -0.031105902  0.036406815    176.08819   -10642.229   -3745.3826 
   15550       0.1555    341.81966    1.1414848  0.040003061   0.11464947    176.69045    -10643.31   -4320.4579 
   15600        0.156    343.62219    1.1250251 0.0060022935  0.027088615     177.6222   -10644.136   -3860.3866 
   15650       0.1565    342.38624    1.0697097 -0.013871251 -0.0080078507    176.98332   -10643.657   -3492.7687 
   15700        0.157    335.59809    1.0760056 -0.096552698 -0.061867921    173.47445   -10640.117   -3058.6165 
   15750       0.1575    343.21537     1.162737 -0.024514041 -0.042893162    177.41191   -10645.065   -3651.0994 
   15800        0.158    340.25829    1.2048983  0.058167798  0.059239953    175.88336   -10643.937   -4407.6869 
   15850       0.1585     339.8057    1.2088457  0.099055255  0.096732909    175.64941   -10643.873   -4682.1127 
   15900        0.159    343.16963    1.1605938 -0.0078638382 -0.053927356    177.38827   -10645.577   -3662.6755 
   15950       0.1595    335.57208     1.147093 -0.070131634  -0.12152404    173.46101   -10641.511    -3184.791 
   16000         0.16    336.65004    1.1410848 0.0098956344  -0.02260551    174.01822   -10642.449   -3761.2499 
   16050       0.1605    340.39611    1.1686555  0.082563673  0.047636711     175.9546    -10644.83   -4329.5197 
   16100        0.161    338.90656    1.1666959   0.01966339  0.034384235    175.18464   -10644.481   -4069.1451 
   16150       0.1615    336.64136    1.1112453 -0.039623913 -0.026084018    174.01373   -10643.533   -3485.1246 
   16200        0.162    341.91246    1.0686029 0.0078753236 -0.0058882008    176.73842   -10646.368   -3568.6333 
   16250       0.1625    340.59205    1.1229238 0.0035175583 0.0038955236    176.05589   -10645.774   -3767.7898 
   16300        0.163    336.74095    1.1222709 -0.024029071 -0.00013199088    174.06521   -10644.035    -3660.366 
   16350       0.1635    341.18173    1.1286475   -0.0421927  0.054477922     176.3607   -10646.851    -3803.109 
   16400        0.164    340.83983    1.1499108 -0.041015613  0.048792843    176.18397   -10647.306     -3858.96 
   16450       0.1645    331.55297    1.1177236 -0.0012739032 -0.025720282    171.38348   -10642.523   -3635.7649 
   16500        0.165    333.91267     1.167406  0.034489209 -0.014047496    172.60324   -10644.356   -3959.4923 
   16550       0.1655    337.83902    1.1847595  0.036295335  0.018240123    174.63282   -10646.616   -4130.9832 
   16600        0.166    338.13513    1.1926145  0.016196874 -0.00045921391    174.78587   -10646.919   -4027.8405 
   16650       0.1665    343.73677    1.1963313  0.037262979 -0.063378487    177.68143   -10649.941   -3900.7192 
   16700        0.167    336.31636    1.1235699 -0.007230543  -0.04113174    173.84574   -10646.176   -3584.0253 
   16750       0.1675    337.63109    1.1557565 0.00050939783 -0.027580965    174.52533   -10647.493    -3762.283 
   16800        0.168    333.64308    1.1602389   0.02163814  0.055349954    172.46389   -10645.767   -4124.0901 
   16850       0.1685     335.3898    1.1990821  0.026243818  0.062135447    173.36679   -10646.867   -4291.5377 
   16900        0.169    343.85141     1.182863  -0.03641816  0.037313383    177.74069   -10651.115   -3945.8606 
   16950       0.1695    335.53848    1.1378007 -0.077166792 -0.035097296    173.44364    -10646.83   -3418.4553 
   17000         0.17    333.45924    1.1848827 -0.041109859 -0.0024609585    172.36886   -10646.244   -3804.3731 
   17050       0.1705    338.42383    1.3127672  0.051606621  0.039652479    174.93511   -10648.878   -4680.0876 
   17100        0.171    335.18142    1.2997725   0.04552281   0.03853802    173.25907   -10647.376   -4612.7776 
   17150       0.1715    335.88806     1.271759 -0.010124359  -0.02378213    173.62434   -10647.911   -4126.1749 
   17200        0.172    336.41389    1.2476042  -0.03972804 -0.039264428    173.89615   -10648.192   -3895.3724 
   17250       0.1725    335.40916      1.28996  0.002608832 -0.085789282    173.37679   -10648.115   -4022.5984 
   17300        0.173    334.76147    1.3231273  0.088302942   0.02772861      173.042   -10648.245   -4797.1962 
   17350       0.1735    334.19298     1.382251  0.060110484   0.02790347    172.74814    -10648.12   -4900.8832 
   17400        0.174    333.31157    1.3164817 -0.0019827616  0.012870098    172.29252   -10647.608   -4424.5636 
   17450       0.1745    329.98455    1.3241567 -0.079606961 -0.039616274    170.57275   -10645.787   -4016.4447 
   17500        0.175    334.51102    1.3395948 -0.017675228 -0.021553922    172.91254   -10648.159   -4334.5521 
   17550       0.1755    328.16457    1.3985301  0.028378258  0.066932235    169.63198    -10645.29   -4979.4687 
   17600        0.176    335.48934    1.4092721  0.033255274  0.045036877    173.41824   -10649.177   -4958.5475 
   17650       0.1765     336.0541     1.366831 -0.024873816  -0.08095049    173.71017   -10649.407   -4203.3558 
   17700        0.177    327.52398    1.3319895 -0.025421929 -0.020048495    169.30085   -10645.465   -4288.3968 
   17750       0.1775    334.17418    1.3327115  0.028428455  0.086904468    172.73842   -10648.832   -4826.8147 
   17800        0.178    331.09033    1.3704432  0.016866793  0.062722147    171.14434   -10647.253   -4833.4405 
   17850       0.1785    332.24925    1.3364523  -0.04977837 0.0044480644     171.7434   -10648.224   -4303.7399 
   17900        0.179     329.7401    1.2696796 -0.044708088 -0.057685394    170.44639   -10646.641   -3890.9537 
   17950       0.1795    332.61997    1.3206517  0.024030999 -0.037040602    171.93503   -10648.815    -4358.807 
   18000         0.18    328.17318    1.3492753  0.061396517 -0.00094613362    169.63643    -10646.76   -4699.0856 
   18050       0.1805    323.93835    1.3192096  0.056939436 0.0060088541     167.4474   -10644.559    -4607.193 
   18100        0.181    331.52914    1.3010365   0.06212319 -0.028760034    171.37117   -10648.701   -4447.9988 
   18150       0.1815     321.7774    1.2271971   -0.0239898 -0.086577368    166.33038   -10643.743   -3722.0997 
   18200        0.182    329.49578    1.3041145  0.015048425  -0.01231445     170.3201   -10647.819   -4356.1614 
   18250       0.1825    329.48159    1.3444968 -0.034611949  0.060664977    170.31277    -10647.84   -4568.4994 
   18300        0.183     328.8895     1.359847 -0.050519474  0.025518596    170.00671   -10647.729    -4449.487 
   18350       0.1835    324.85769     1.324989 -0.027482779  0.042959525    167.92262   -10645.531   -4468.2192 
   18400        0.184    324.87184    1.3478689  0.015223611  0.033267414    167.92993   -10645.887   -4654.5332 
   18450       0.1845    330.99359    1.3831438  0.023115827   0.01047669    171.09433   -10648.991   -4722.4545 
   18500        0.185     325.3946    1.3952758 -0.025633066 -0.031545372    168.20015   -10646.213   -4460.3247 
   18550       0.1855    327.77911    1.4080447 -0.0035617771 -0.0073087496    169.43273   -10647.461   -4657.2473 
   18600        0.186    321.70635    1.4121575  0.011018767   0.02531287    166.29366   -10644.319   -4828.2973 
   18650       0.1865    323.35324    1.4162427  0.021701155  0.031584271    167.14495   -10645.405   -4898.4271 
   18700        0.187    326.51179    1.4234727 -0.0017083395 -0.018132047    168.77764   -10646.731   -4678.7744 
   18750       0.1875    317.79293    1.3884524  0.021856588  -0.05489755    164.27076   -10642.718   -4518.0383 
   18800        0.188    327.98605      1.40359 -0.026938806 -0.0074485057     169.5397    -10648.08   -4564.0089 
   18850       0.1885    327.21593    1.4157729 -0.0040703845  0.028936707    169.14162   -10647.715   -4802.1306 
   18900        0.189    317.71995    1.3940326 -0.019444044  0.050597237    164.23304   -10642.717   -4750.6192 
   18950       0.1895    323.24754    1.4585248  0.026867434  0.030939548    167.09031   -10645.578   -5054.4393 
   19000         0.19    326.46903    1.4484913 -0.050338291 -0.016835683    168.75554   -10647.072   -4604.3911 
   19050       0.1905    320.33691     1.423027 -0.047520057 -0.064706223    165.58577   -10644.184   -4369.3356 
   19100        0.191    326.29991    1.4803836   0.06548585  0.026470291    168.66812   -10647.854   -5241.1324 
   19150       0.1915    315.33876    1.4571156  0.044920153   0.02400018    163.00218   -10642.067   -5086.7865 
   19200        0.192    323.86644    1.4711051  0.043019695 0.0083814055    167.41023   -10646.278   -5075.0207 
   19250       0.1925    323.11932    1.4401669 -0.038729703 -0.0081856252    167.02404    -10645.91   -4644.1718 
   19300        0.193    320.65451    1.4816681 -0.059328858 -0.046719535    165.74995   -10644.531    -4585.399 
   19350       0.1935    320.05486    1.5405287 -0.0039714104 -0.037457265    165.43998   -10644.051   -4997.0002 
   19400        0.194    324.30386    1.6121081  0.089601246   0.04857211    167.63634   -10646.565   -5834.2716 
   19450       0.1945    313.85246    1.5657731  0.044019132   0.03885905    162.23389   -10640.955   -5495.5043 
   19500        0.195    321.40489    1.5330129  -0.02970636 -0.005806899    166.13783   -10644.624   -4991.6654 
   19550       0.1955    326.42859     1.541413 -0.062861722 -0.052677747    168.73463   -10647.201   -4752.9118 
   19600        0.196    321.36918    1.5454898  0.008665618 -0.0087545387    166.11937    -10644.64   -5151.3362 
   19650       0.1965    318.25102    1.5179704  0.057569276  0.032457566    164.50756   -10643.096   -5359.9907 
   19700        0.197    314.47644     1.540559  0.048244324  0.025586694    162.55643   -10641.195   -5381.3001 
   19750       0.1975    323.03947    1.5211922  0.032130797  0.010091346    166.98276   -10645.547   -5211.3811 
   19800        0.198    321.62928    1.4855975 -0.088460942 -0.020516123    166.25381   -10644.066   -4588.7347 
   19850       0.1985    318.65575    1.4655963 -0.080970025 -0.046549644    164.71677   -10642.488   -4460.2553 
   19900        0.199    320.80901    1.5528512  0.067666387 -0.0025104077    165.82981   -10644.084   -5393.3572 
   19950       0.1995    316.26376    1.5421589   0.07530315  0.045319791    163.48032   -10641.474   -5542.6062 
   20000          0.2    316.88851    1.4356074  0.025038885 -0.031863455    163.80326   -10641.839   -4762.6095 
Loop time of 398.875 on 4 procs for 20000 steps with 4000 atoms

Pair  time (%) = 298.395 (74.8092)
Neigh time (%) = 0.909203 (0.227942)
Comm  time (%) = 69.8011 (17.4995)
Outpt time (%) = 0.230623 (0.0578185)
Other time (%) = 29.5388 (7.40553)

Nlocal:    1000 ave 1008 max 993 min
Histogram: 1 0 1 0 0 0 1 0 0 1
Nghost:    3536.25 ave 3562 max 3505 min
Histogram: 1 0 1 0 0 0 0 0 0 2
Neighs:    64005.8 ave 65924 max 61870 min
Histogram: 1 0 1 0 0 0 0 0 0 2
FullNghs:  0 ave 0 max 0 min
Histogram: 4 0 0 0 0 0 0 0 0 0

Total # of neighbors = 256023
Ave neighs/atom = 64.0058
Neighbor list builds = 144
Dangerous builds = 0

######################################
# SIMULATION DONE
print "All done"
All done
