LAMMPS (28 Jun 2014)
# Input file for uniaxial tensile loading of single crystal aluminum
# Mark Tschopp, November 2010

# ------------------------ INITIALIZATION ----------------------------
units 		metal
dimension	3
boundary	p	p	p
atom_style	atomic
variable latparam equal 4.05

# ----------------------- ATOM DEFINITION ----------------------------
lattice		fcc ${latparam}
lattice		fcc 4.05
Lattice spacing in x,y,z = 4.05 4.05 4.05
region		whole block 0 10 0 10 0 10
create_box	1 whole
Created orthogonal box = (0 0 0) to (40.5 40.5 40.5)
  1 by 2 by 2 MPI processor grid
lattice 	fcc ${latparam} orient x 1 0 0 orient y 0 1 0 orient z 0 0 1
lattice 	fcc 4.05 orient x 1 0 0 orient y 0 1 0 orient z 0 0 1
Lattice spacing in x,y,z = 4.05 4.05 4.05
create_atoms	1 region whole
Created 4000 atoms

# ------------------------ FORCE FIELDS ------------------------------
pair_style	eam/alloy
pair_coeff	* * Al99.posFRho.eam.alloy Al

# ------------------------- SETTINGS ---------------------------------
compute csym all centro/atom fcc
compute peratom all pe/atom

######################################
# EQUILIBRATION
reset_timestep	0
timestep 0.001
velocity all create 300 12345 mom yes rot no
fix 1 all npt temp 300 300 1 iso 0 0 1 drag 1

# Set thermo output
thermo 50
thermo_style custom step lx ly lz press pxx pyy pzz pe temp

# Run for at least 10 picosecond (assuming 1 fs timestep)
run 20000
Memory usage per processor = 3.04301 Mbytes
Step Lx Ly Lz Press Pxx Pyy Pzz PotEng Temp 
       0         40.5         40.5         40.5    2495.8718    2446.7386    2534.4026    2506.4741       -12360          300 
      50    40.564173    40.564173    40.564173    1196.5288      1125.84    1236.1045    1227.6419   -12258.708    102.88882 
     100    40.649834    40.649834    40.649834   -4819.5607   -4815.1737   -4839.9042   -4803.6041   -12293.236      171.172 
     150    40.580292    40.580292    40.580292    170.49092    135.53361    246.46425    129.47488   -12268.708    123.60669 
     200    40.515087    40.515087    40.515087    3610.3512    3705.9812    3549.8137    3575.2587   -12275.355    138.04612 
     250    40.563317    40.563317    40.563317    692.44187    619.52657    739.61433    718.18471   -12279.704    146.96187 
     300    40.619113    40.619113    40.619113   -2417.8945   -2365.3153    -2431.945   -2456.4233   -12280.269    149.34146 
     350    40.588135    40.588135    40.588135   -991.54687   -1064.1243    -931.1369   -979.37939   -12287.288     163.5128 
     400    40.539446    40.539446    40.539446    2130.4382    2178.1024    2209.5088    2003.7035   -12279.658    149.84033 
     450     40.56298     40.56298     40.56298    550.46605     506.4376    517.36505     627.5955   -12283.332     157.6988 
     500    40.601343    40.601343    40.601343   -1443.7542   -1490.7287   -1308.7551    -1531.779   -12279.189    150.71465 
     550    40.587472    40.587472    40.587472   -721.43272   -709.46974   -726.10799   -728.72044   -12280.811    154.74597 
     600    40.553985    40.553985    40.553985     1213.513    1245.1645    1258.3055     1137.069   -12281.725    157.59287 
     650    40.563642    40.563642    40.563642    740.13699    708.56934    778.23434    733.60731   -12278.523    152.39687 
     700    40.594359    40.594359    40.594359   -1014.0891    -1128.031   -933.81679   -980.41939   -12280.167     156.6529 
     750    40.589204    40.589204    40.589204   -769.78576   -808.19377   -776.17161    -724.9919   -12280.153    157.67424 
     800    40.561364    40.561364    40.561364    979.87922    852.16046    1083.4119    1004.0653   -12277.683    154.01144 
     850    40.565785    40.565785    40.565785    528.83783    511.87445     593.9829    480.65614   -12282.151    163.71316 
     900    40.590116    40.590116    40.590116   -656.56569   -685.60983   -586.33082   -697.75641   -12280.192    161.02108 
     950    40.591121    40.591121    40.591121   -677.92533   -696.74509   -630.84861    -706.1823   -12274.505    151.11084 
    1000    40.568863    40.568863    40.568863    577.68576    560.16874    551.29725    621.59128   -12281.255    165.27439 
    1050    40.566413    40.566413    40.566413    759.94731    698.99958    882.42266    698.41968   -12273.075    150.55538 
    1100    40.587248    40.587248    40.587248   -486.97146   -583.42216   -408.31672   -469.17551   -12280.317    165.67004 
    1150    40.590629    40.590629    40.590629   -548.56434   -610.56007   -431.03941   -604.09355   -12273.705    154.01253 
    1200    40.574358    40.574358    40.574358    279.34989    231.78561    298.57122    307.69283   -12280.059    167.41183 
    1250     40.56966     40.56966     40.56966    565.64069    481.35467     662.7583    552.80911   -12275.969    160.62895 
    1300    40.584475    40.584475    40.584475   -272.49154   -292.14677   -173.05962   -352.26824     -12277.7    165.08246 
    1350    40.589527    40.589527    40.589527   -525.26695   -675.31879   -458.41916    -442.0629   -12276.259    163.44262 
    1400    40.578308    40.578308    40.578308    277.54543    206.78568    335.95988    289.89073   -12274.465    161.09263 
    1450    40.574791    40.574791    40.574791    307.65437    254.17209     312.3553    356.43573   -12276.411    165.99231 
    1500    40.582322    40.582322    40.582322    13.883513   -62.634723     118.5383   -14.253045   -12274.196    162.85031 
    1550    40.589128    40.589128    40.589128   -474.67304   -575.75926   -465.38709   -382.87279   -12276.542    168.51488 
    1600    40.581474    40.581474    40.581474    47.621821    24.989256    131.32499   -13.448782   -12273.339    163.45246 
    1650    40.575917    40.575917    40.575917    422.31307    360.70223    457.89936     448.3376   -12274.721    167.26536 
    1700    40.583392    40.583392    40.583392   -77.893794   -129.11488   -82.055398   -22.511101   -12272.999    165.08212 
    1750    40.588538    40.588538    40.588538   -242.74995   -266.43801   -250.56535   -211.24649   -12274.779    169.64761 
    1800    40.583234    40.583234    40.583234   -4.3413164   -92.889735    17.379483    62.486303   -12271.327    164.12587 
    1850    40.577407    40.577407    40.577407     441.0221    328.54292     498.8155     495.7079   -12272.671    167.86526 
    1900    40.585093    40.585093    40.585093   -112.50931    -215.0813   -96.729123   -25.717504    -12276.19    175.81341 
    1950    40.590495    40.590495    40.590495    -316.2195   -291.17586   -255.60521   -401.87742   -12269.816    164.62251 
    2000    40.584391    40.584391    40.584391   -42.441557   -94.193334   -38.331743    5.2004075   -12275.881    177.49848 
    2050    40.578068    40.578068    40.578068    504.17385    640.11584    530.45156    341.95414   -12268.969    165.28368 
    2100    40.586064    40.586064    40.586064   -25.823503   -261.15208    34.454426    149.22714   -12272.765    173.76679 
    2150    40.592264    40.592264    40.592264   -340.63708   -395.59375   -289.06097   -337.25653   -12269.128    167.87956 
    2200    40.586398    40.586398    40.586398   -66.341875   -4.6560862   -206.84749    12.477952   -12272.271    175.08733 
    2250    40.579321    40.579321    40.579321    322.28189    382.75062    363.37295    220.72211   -12272.215    176.15255 
    2300    40.584642    40.584642    40.584642    112.03324    83.961442    97.761741    154.37655   -12270.816    174.56829 
    2350    40.593115    40.593115    40.593115   -384.65884   -339.55824   -338.15197   -476.26632   -12270.156    174.46464 
    2400    40.588706    40.588706    40.588706   -19.678793   -21.536843   -103.14041    65.640872   -12269.077    173.51668 
    2450    40.581903    40.581903    40.581903    213.20729    58.455423    328.48932    252.67713   -12270.146    176.74195 
    2500      40.5841      40.5841      40.5841    296.14629    150.31027    317.11301    421.01559   -12267.812     173.3591 
    2550    40.593743    40.593743    40.593743   -377.02555   -440.38045   -444.48388   -246.21231   -12270.212    179.16279 
    2600     40.59077     40.59077     40.59077    -49.73853    -124.6342    22.186789   -46.768177   -12266.664    173.46114 
    2650    40.585105    40.585105    40.585105    145.42532    251.91405    69.498931    114.86299   -12270.579    182.16814 
    2700    40.586614    40.586614    40.586614    147.77375    15.686742    202.51307    225.12144   -12266.514    175.46468 
    2750    40.592125    40.592125    40.592125   -151.79793   -157.32179   -188.81322   -109.25877   -12269.134     181.6764 
    2800    40.591706    40.591706    40.591706   -184.21087   -317.88314   -87.338302   -147.41117   -12266.479    177.70348 
    2850    40.586367    40.586367    40.586367    194.84571    152.94641    178.66162    252.92908   -12269.326    184.35724 
    2900    40.587782    40.587782    40.587782     232.2885    159.12662    232.84483    304.89404   -12265.528    178.15969 
    2950     40.59461     40.59461     40.59461   -257.33948   -257.90655   -374.21579   -139.89612   -12266.292     180.8036 
    3000    40.593586    40.593586    40.593586   -190.71911   -293.58385   -102.66313   -175.91036   -12270.107    189.32528 
    3050    40.588069    40.588069    40.588069    174.41846    158.30688    108.66355    256.28494   -12263.609    177.90229 
    3100    40.588822    40.588822    40.588822    138.38108    22.659574    201.43638    191.04728   -12267.762    187.09222 
    3150    40.594658    40.594658    40.594658    -116.4483   -159.13781   -78.629699   -111.57739   -12262.908    178.83772 
    3200    40.595506    40.595506    40.595506    -179.3535   -266.10912   -162.44003   -109.51135   -12266.836    187.61536 
    3250     40.59051     40.59051     40.59051     268.9795    226.92286    192.24275    387.77288   -12263.121    181.56853 
    3300    40.591967    40.591967    40.591967    -27.54937    -185.6007    96.667686    6.2849003   -12265.924    188.14552 
    3350    40.594932    40.594932    40.594932    14.393786    -42.75008   -40.488483    126.41992   -12264.069    185.71194 
    3400    40.597606    40.597606    40.597606   -237.17003   -410.01243   -134.04239   -167.45529   -12265.586      189.787 
    3450    40.594793    40.594793    40.594793   0.24183999   -81.202164    59.935849    21.991834    -12263.74    187.37224 
    3500    40.592572    40.592572    40.592572    153.03084    36.332251    134.16634    288.59394   -12263.982     188.9909 
    3550    40.594606    40.594606    40.594606    3.6191018    2.8185355    66.423785   -58.385015   -12262.479    187.24345 
    3600    40.597224    40.597224    40.597224   -93.232467   -103.60779    -132.5499   -43.539705   -12262.681    188.76947 
    3650    40.596593    40.596593    40.596593   -9.4557017   -63.843827   -25.601494    61.078216   -12260.355    185.41665 
    3700    40.594511    40.594511    40.594511    111.12436    36.510646    149.77953    147.08289   -12263.077    191.84449 
    3750    40.595684    40.595684    40.595684    118.71917    195.57257    88.676958    71.907989   -12261.731    190.39315 
    3800    40.599179    40.599179    40.599179   -125.90548   -244.23281   -13.492572   -119.99104   -12262.298     192.6388 
    3850    40.598577    40.598577    40.598577    71.831783    27.285969    84.169585    104.03979   -12257.897    185.25826 
    3900    40.596737    40.596737    40.596737    27.505048    107.32327   -40.522602    15.714476   -12261.409    193.21246 
    3950    40.596121    40.596121    40.596121    163.14896    4.3616256    280.56984     204.5154     -12260.2    192.01355 
    4000    40.599256    40.599256    40.599256   -136.19094   -163.18314   -167.35937   -78.030305   -12261.267    195.22687 
    4050    40.599126    40.599126    40.599126   -44.823813   -48.899753   -116.95591    31.384224   -12260.382     194.6599 
    4100    40.598285    40.598285    40.598285    61.020302    41.516102    110.45958    31.085221   -12261.946    198.83247 
    4150     40.59925     40.59925     40.59925    19.961326   -36.296876    24.130795    72.050059   -12258.057    192.45575 
    4200    40.600481    40.600481    40.600481    2.5303985   -76.775382   0.85201346    83.514564   -12257.915    193.32421 
    4250    40.600733    40.600733    40.600733   -78.082369   -157.23872   -30.614064    -46.39432   -12259.796    198.09885 
    4300    40.599909    40.599909    40.599909   -16.683428   -15.875029   -57.697524     23.52227   -12260.062    199.75878 
    4350    40.599435    40.599435    40.599435     80.54149     10.60702     226.5798    4.4376523   -12257.098    195.16976 
    4400    40.601424    40.601424    40.601424   -61.714377   -78.275563   -85.463709   -21.403858   -12260.107    202.12946 
    4450    40.602244    40.602244    40.602244   -16.119527   -41.066634    63.390373    -70.68232   -12257.142    197.53702 
    4500    40.601749    40.601749    40.601749    21.033385    90.635233     24.04266   -51.577739   -12256.541     197.5059 
    4550    40.601398    40.601398    40.601398   -40.406414   -150.06073   -38.363844    67.205329   -12258.265    201.98442 
    4600    40.600737    40.600737    40.600737     169.4862    308.83783     135.7141    63.906685   -12255.601    197.96797 
    4650    40.603795    40.603795    40.603795   -66.716895   -105.47301   0.15864377   -94.836322   -12256.677    201.18401 
    4700    40.604788    40.604788    40.604788   -125.90671   -66.958434   -189.76298   -120.99872   -12256.615    202.19919 
    4750     40.60244     40.60244     40.60244    56.816559    92.168629     162.1913   -83.910251   -12256.276    202.67391 
    4800     40.60234     40.60234     40.60234    99.632355    137.24734    -31.49163    193.14136   -12255.435    202.18388 
    4850    40.604804    40.604804    40.604804   -19.271498    -90.02322    46.028957   -13.820232   -12255.143     202.7527 
    4900    40.605793    40.605793    40.605793   -82.970398    63.402097    -10.89911   -301.41418   -12254.851    203.32025 
    4950    40.603304    40.603304    40.603304    90.228272    32.954152   -15.956544    253.68721   -12253.852    202.51621 
    5000    40.603265    40.603265    40.603265    119.48966    154.62498    151.57895    52.265046   -12254.894    205.65308 
    5050    40.607038    40.607038    40.607038   -98.791412   -163.41457   -110.39165   -22.568013    -12254.41    205.84407 
    5100    40.608064    40.608064    40.608064   -103.83508    13.570689   -160.84752   -164.22842   -12253.276    204.77744 
    5150    40.605358    40.605358    40.605358     40.46806    111.47282    38.778512   -28.847152   -12253.675    206.67206 
    5200    40.603474    40.603474    40.603474    201.85159    257.02441    193.47376     155.0566    -12253.56    207.57681 
    5250    40.607182    40.607182    40.607182    3.7759945    27.029355   -28.646013    12.944642   -12250.656    203.08873 
    5300    40.609232    40.609232    40.609232   -159.55725   -137.36076   -280.04154   -61.269457   -12254.297    211.25165 
    5350    40.606217    40.606217    40.606217    82.725191    57.312471    275.25236   -84.389259   -12252.538    208.95923 
    5400     40.60638     40.60638     40.60638    16.534651    43.941445   -62.050711    67.713218   -12253.252    211.45525 
    5450    40.609078    40.609078    40.609078   -37.801287    -123.4978   -10.060332    20.154272   -12252.071    210.28789 
    5500     40.61082     40.61082     40.61082   -209.32081   -169.28199   -260.09403   -198.58641   -12252.583    212.38706 
    5550    40.606835    40.606835    40.606835    98.067887    129.33095    123.26139    41.611314   -12251.768     211.9327 
    5600    40.605994    40.605994    40.605994    140.99179    114.28843    135.54711    173.13984   -12250.622    210.82572 
    5650    40.610687    40.610687    40.610687   -41.901578    -87.79068   -13.657724   -24.256329   -12249.664    210.07951 
    5700    40.612145    40.612145    40.612145   -139.38634   -205.45804   -120.95639   -91.744601   -12251.032     213.8389 
    5750    40.608187    40.608187    40.608187    117.48261   -5.8405158    154.13336    204.15499   -12249.494    211.97019 
    5800    40.608619    40.608619    40.608619    29.923578    5.7514078    66.506526    17.512801   -12251.397    216.75273 
    5850    40.612338    40.612338    40.612338   -112.64549   -131.51216   -53.073436   -153.35088   -12251.226    217.52624 
    5900    40.613129    40.613129    40.613129   -130.39841   -119.62241   -180.83957   -90.733254   -12248.076    212.52526 
    5950    40.609472    40.609472    40.609472    161.38721    39.187937    380.14442    64.829284   -12247.848    213.19076 
    6000    40.609784    40.609784    40.609784    95.685242    226.26428   -93.958758    154.75021   -12248.588    215.71571 
    6050    40.613333    40.613333    40.613333   -142.76402   -332.46112   -18.412927   -77.418013   -12250.612    220.73468 
    6100    40.613094    40.613094    40.613094   -97.433811   -83.185861    -116.0846   -93.030968   -12248.823    218.36731 
    6150    40.611036    40.611036    40.611036    18.724157    6.4618249    14.146539    35.564106   -12249.275    220.32691 
    6200    40.611178    40.611178    40.611178    111.21964    85.419334    153.41905    94.820541    -12245.94    214.96713 
    6250     40.61411     40.61411     40.61411   -38.406136    22.756435   -87.608386   -50.366459    -12246.42    216.98025 
    6300    40.614753    40.614753    40.614753   -121.75591   -207.67918   -53.354442   -104.23412    -12248.03    221.18443 
    6350    40.612356    40.612356    40.612356    66.790139    111.70478    45.736309    42.929333   -12247.527    221.29931 
    6400    40.612692    40.612692    40.612692    41.713593   -67.544673     40.49989    152.18556   -12247.043    221.44291 
    6450    40.614905    40.614905    40.614905   -23.851532    96.521373    -5.706226   -162.36974    -12245.38    219.30829 
    6500    40.615842    40.615842    40.615842    25.784958    -32.86307   -69.497668    179.71561   -12244.397     218.4743 
    6550    40.615219    40.615219    40.615219   -9.9262277    31.681667    70.706621   -132.16697   -12244.183    219.13927 
    6600    40.613789    40.613789    40.613789     146.7443     121.2745    75.977904     242.9805   -12245.553    222.86836 
    6650    40.616702    40.616702    40.616702   -106.33815   -96.819544   -33.518179   -188.67674   -12246.371    225.51374 
    6700    40.618513    40.618513    40.618513   -149.49873   -189.61096   -8.9563615   -249.92887   -12245.696     225.2843 
    6750    40.615878    40.615878    40.615878   -14.196197   -104.43658   -116.30445    178.15243   -12245.864    226.67554 
    6800    40.613728    40.613728    40.613728    144.96534    144.48159    114.07031    176.34411   -12242.985    222.16818 
    6850    40.617221    40.617221    40.617221   -14.289237    71.138425   -193.29199    79.285852   -12244.387     225.9312 
    6900    40.619176    40.619176    40.619176   -33.785357   -124.47137    84.770223    -61.65493   -12241.105    220.64962 
    6950    40.617035    40.617035    40.617035   -55.131431   -99.498093   -63.169339   -2.7268625   -12246.074    231.32641 
    7000    40.615067    40.615067    40.615067    205.69927    237.40341    208.37034    171.32405   -12242.752    225.95182 
    7050    40.618914    40.618914    40.618914   -20.616855    93.240011   -158.53871    3.4481374   -12242.015    225.56544 
    7100    40.621257    40.621257    40.621257   -179.12979   -208.74337   -128.21564   -200.43034   -12241.975    226.53974 
    7150    40.617203    40.617203    40.617203    108.95225    194.52766    63.047119    69.281959   -12241.767    227.19081 
    7200    40.615986    40.615986    40.615986     152.2647    73.267956    236.29701    147.22913   -12242.403    229.46921 
    7250    40.619782    40.619782    40.619782    71.468825    117.71895    168.79752   -72.109994   -12240.373    226.58667 
    7300     40.62326     40.62326     40.62326   -233.32964   -240.15976   -182.25479   -277.57438    -12241.32    229.45206 
    7350    40.619762    40.619762    40.619762    145.64062    71.523535    193.62019    171.77813    -12239.97    227.87687 
    7400    40.618812    40.618812    40.618812    55.340313    95.634896    232.64152   -162.25547     -12241.3    231.47497 
    7450    40.620593    40.620593    40.620593   -19.817601    -74.97379   -90.237167    105.75815   -12241.425    232.75595 
    7500    40.622135    40.622135    40.622135   -70.471285   -169.30678    52.777613   -94.884685   -12240.726    232.43412 
    7550    40.621495    40.621495    40.621495   -57.918683    -37.69654   -74.241531   -61.817978   -12241.327      234.624 
    7600    40.620285    40.620285    40.620285     34.60828   -25.393532    112.29918    16.919194   -12240.945    234.90226 
    7650    40.621644    40.621644    40.621644    18.827945   -117.10007    168.63311     4.950794   -12240.169    234.42578 
    7700    40.623924    40.623924    40.623924   -162.24565   -216.42757     -85.5013   -184.80807   -12239.366    233.88617 
    7750    40.622429    40.622429    40.622429    16.060952   -26.326285    134.16315   -59.654009   -12239.172    234.52879 
    7800    40.619933    40.619933    40.619933    102.57189    130.77468    34.520304    142.42067   -12238.501    234.24017 
    7850     40.62134     40.62134     40.62134    91.226861    -10.61712    115.76319    168.53451   -12238.087    234.44457 
    7900    40.625392    40.625392    40.625392   -181.54929   -137.74827   -76.651106   -330.24849   -12239.446    238.07428 
    7950    40.624232    40.624232    40.624232    9.0760223   -48.547268    -9.918007    85.693342   -12237.335     235.0001 
    8000    40.622486    40.622486    40.622486    161.62255    215.19421    297.05475    -27.38131   -12236.344    234.08476 
    8050    40.624229    40.624229    40.624229   -79.931342    -141.6227   -142.37312    44.201793   -12239.431     241.0565 
    8100    40.625164    40.625164    40.625164   -50.687448   -23.362577    58.671411   -187.37118   -12237.705    238.71011 
    8150    40.624688    40.624688    40.624688    -19.71803    14.469125   -68.906019   -4.7171959   -12237.259    238.83477 
    8200    40.625061    40.625061    40.625061    70.380823   -34.241497    210.78877      34.5952   -12237.321    239.93623 
    8250    40.626608    40.626608    40.626608   -95.235301   -77.639771    18.788917   -226.85505   -12235.643    237.68503 
    8300    40.624602    40.624602    40.624602    155.73235    72.401691    186.04109    208.75427   -12234.772    236.97211 
    8350    40.625569    40.625569    40.625569    28.096059    99.289942   -1.7591519   -13.242614   -12236.683    241.65172 
    8400    40.627436    40.627436    40.627436   -66.641916   -129.35766   -43.155334   -27.412751   -12235.408    240.15599 
    8450    40.627212    40.627212    40.627212   -81.693687   -167.42223    61.372585   -139.03141   -12236.646    243.52558 
    8500    40.625127    40.625127    40.625127    113.13842    167.19777    84.527336    87.690163   -12234.605    240.54905 
    8550    40.626247    40.626247    40.626247   -19.897054   -66.074092    49.701104   -43.318175    -12235.56    243.35998 
    8600    40.628626    40.628626    40.628626   -23.353546   -45.408374   -23.409404   -1.2428621   -12235.069    243.36773 
    8650    40.629722    40.629722    40.629722   -53.242528   -233.37066     27.61829     46.02479   -12233.464     241.2315 
    8700    40.628631    40.628631    40.628631    19.601775   -78.790566    32.787105    104.80879   -12234.731    244.63141 
    8750    40.628385    40.628385    40.628385   -41.779731    171.99262   -105.85441    -191.4774    -12234.66    245.44891 
    8800     40.62789     40.62789     40.62789    32.892562   -32.167942    83.851016    46.994613    -12235.71    248.42925 
    8850    40.629883    40.629883    40.629883   -30.488726   -63.195255  -0.44598179   -27.824942   -12232.108    242.39576 
    8900    40.631679    40.631679    40.631679   -95.552719    -126.6876   -106.01723   -53.953327   -12232.608    244.30761 
    8950    40.629083    40.629083    40.629083    63.688696    126.08582    22.806705     42.17356   -12233.909    247.77427 
    9000    40.628243    40.628243    40.628243    167.80867    147.97717    106.48229    248.96654    -12232.92    246.79604 
    9050    40.632795    40.632795    40.632795    -167.6876    -42.82364    -125.1474   -335.09176   -12232.792    247.47435 
    9100    40.633563    40.633563    40.633563   -148.88066   -125.92347   -133.58979   -187.12873   -12232.345    247.53357 
    9150    40.629311    40.629311    40.629311    39.056871    7.7617949     47.38261    62.026207   -12232.459    248.67984 
    9200    40.627178    40.627178    40.627178    253.66191    308.16623    238.65278    214.16673   -12231.698    248.13433 
    9250    40.633107    40.633107    40.633107   -59.153823    88.274211   -61.201631   -204.53405   -12231.311    248.29784 
    9300     40.63594     40.63594     40.63594   -262.26082   -264.15011   -294.53735     -228.095   -12233.507    253.46846 
    9350    40.631236    40.631236    40.631236    144.95362    246.03695    220.48649   -31.662579   -12229.576    246.76825 
    9400    40.629745    40.629745    40.629745    151.75846    124.54552    125.58605    205.14381   -12230.944    250.31961 
    9450    40.632895    40.632895    40.632895    69.913384    134.68891     89.14658   -14.095341     -12228.6    246.68028 
    9500    40.637141    40.637141    40.637141   -317.86121   -285.16357   -375.62646   -292.79361   -12232.355    254.84892 
    9550    40.632007    40.632007    40.632007    75.168681   -10.014203    185.27305    50.247194   -12230.348    251.87075 
    9600    40.629412    40.629412    40.629412    188.19303    430.08196    149.59282   -15.095697   -12230.765    253.57316 
    9650    40.635072    40.635072    40.635072   -38.965279    5.7904813    27.482111   -150.16843   -12229.934    252.83656 
    9700    40.638546    40.638546    40.638546   -276.96018   -220.71301   -332.79064    -277.3769   -12230.251    254.34741 
    9750    40.633571    40.633571    40.633571    84.426576    46.989632   -127.77384    334.06394   -12228.825    252.46414 
    9800    40.630926    40.630926    40.630926    116.37812    65.762102     369.1303   -85.758041   -12231.015    257.57564 
    9850    40.633943    40.633943    40.633943    110.32499    228.82777   -2.7532559    104.90046   -12226.082    248.90135 
    9900    40.638986    40.638986    40.638986   -109.79225   -133.02453   -16.166753   -180.18547   -12227.285    252.09647 
    9950    40.636786    40.636786    40.636786   -147.70304    116.62315   -386.05117    -173.6811   -12228.547    255.40727 
   10000     40.63092     40.63092     40.63092    383.92938    331.18983    421.55008    399.04822   -12226.947    253.17074 
   10050    40.635711    40.635711    40.635711   -45.517665   -83.415589    25.575453   -78.712859    -12228.49    257.01883 
   10100     40.63905     40.63905     40.63905   -162.14121   -62.919858   -121.83615   -301.66763   -12227.724    256.39851 
   10150     40.63691     40.63691     40.63691   -191.14024   -210.67342   -184.39253   -178.35478   -12231.614    264.76325 
   10200    40.632876    40.632876    40.632876    277.84538     274.9802    217.46636    341.08959   -12225.826    254.40851 
   10250    40.637179    40.637179    40.637179   -12.609314   -95.016203   -31.390943    88.579202   -12227.362    258.21269 
   10300    40.641358    40.641358    40.641358    -121.0604   -20.154051   -179.02384   -164.00331   -12226.245    256.89445 
   10350    40.640106    40.640106    40.640106   -88.047379    71.801992   -179.91395   -156.03018   -12226.472    258.16742 
   10400    40.635643    40.635643    40.635643    181.30264    129.53579    182.93689    231.43525   -12224.895    255.94687 
   10450    40.635266    40.635266    40.635266     159.5504    211.62146    85.042937    181.98681   -12225.959    258.83722 
   10500    40.639029    40.639029    40.639029   -2.7201688    -75.93106    6.4503567    61.320197   -12225.012    257.82392 
   10550    40.641223    40.641223    40.641223   -163.01883    76.539658   -446.56819   -119.02796   -12225.429    259.44726 
   10600    40.637767    40.637767    40.637767    128.85148    265.93924    207.56251   -86.947322   -12224.776    258.99354 
   10650    40.637706    40.637706    40.637706    18.349914   -11.395629    -94.53676    160.98213   -12226.786    263.69013 
   10700    40.640571    40.640571    40.640571    21.387974   -19.900765    76.080295    7.9843901   -12225.583    262.16806 
   10750    40.642655    40.642655    40.642655   -184.66054   -167.79182   -253.84741    -132.3424   -12224.593    261.05096 
   10800     40.63979     40.63979     40.63979   0.13529787    60.777099   -15.349691   -45.021514   -12225.431    263.46825 
   10850    40.637101    40.637101    40.637101    149.89884    154.06076    90.358003    205.27776   -12225.758    264.90141 
   10900    40.639709    40.639709    40.639709    107.09833    139.07907   -24.961059    207.17698   -12223.637    261.57607 
   10950    40.644476    40.644476    40.644476   -121.88087   -43.660444   -188.56934   -133.41284   -12223.063    261.25463 
   11000    40.642784    40.642784    40.642784    -14.00146     80.47621   -169.03672    46.556131   -12222.035    260.04353 
   11050    40.639571    40.639571    40.639571     81.99359    284.56266   -29.956571   -8.6253221   -12225.567    267.65773 
   11100    40.640346    40.640346    40.640346     92.87205    112.29152   -39.754486    206.07911   -12222.264    262.04166 
   11150    40.644023    40.644023    40.644023   -155.34467    29.515161   -274.26799   -221.28118    -12224.03    266.22388 
   11200     40.64346     40.64346     40.64346   -161.78855    -36.66945   -307.56473   -141.13147   -12225.982    270.76509 
   11250    40.638937    40.638937    40.638937    184.41424    178.83107    197.60378    176.80786    -12221.21    262.29295 
   11300    40.639724    40.639724    40.639724     185.9673    223.51953    67.455277    266.92711   -12223.179    266.85535 
   11350    40.644971    40.644971    40.644971   -98.006784   -67.326338   -216.18704   -10.506978   -12220.315     262.0608 
   11400    40.645637    40.645637    40.645637   -38.505861    32.351014    -86.93332   -60.935277   -12220.401    262.97229 
   11450    40.641912    40.641912    40.641912    49.808848    269.06477   -164.43018    44.791953   -12222.532    267.84396 
   11500    40.640615    40.640615    40.640615    78.869489    57.609749    25.456636    153.54208   -12223.702    270.84546 
   11550    40.645105    40.645105    40.645105    6.4573482   -15.065515   -57.710679    92.148239   -12221.445    267.21079 
   11600    40.647943    40.647943    40.647943   -287.16701   -212.02265    -396.9541   -252.52428   -12222.813    270.59552 
   11650    40.641713    40.641713    40.641713    226.06494    96.701152    125.16217    456.33149   -12219.442     264.7902 
   11700    40.642337    40.642337    40.642337    57.631874    439.63319   -145.33872   -121.39885   -12223.623     273.5969 
   11750    40.646958    40.646958    40.646958    -147.3629   -301.37796    -257.9541    117.24336   -12221.335    269.88434 
   11800    40.648029    40.648029    40.648029   -180.54724   -58.599986   -265.83797   -217.20375   -12221.174     270.2809 
   11850    40.643918    40.643918    40.643918    73.680963  -0.40950664   -17.497171    238.94957   -12220.061    268.84246 
   11900     40.64242     40.64242     40.64242    232.17592    321.39564    205.36376    169.76835   -12218.534    266.58742 
   11950    40.646393    40.646393    40.646393    19.461238    93.135586   -112.75576    78.003885   -12219.587    269.33227 
   12000    40.648594    40.648594    40.648594    -141.9626   -18.452782    -331.9702   -75.464807   -12221.034    272.82538 
   12050    40.647333    40.647333    40.647333    -117.5825   -90.983834   -81.717365    -180.0463   -12221.367    274.15511 
   12100    40.645455    40.645455    40.645455    165.18647    79.508563    86.089579    329.96125   -12219.293    270.82674 
   12150    40.647883    40.647883    40.647883   -143.77599   -147.48257   -53.369124   -230.47628   -12220.022    272.92138 
   12200    40.646933    40.646933    40.646933   0.88128683    -32.51846    57.610199   -22.447879   -12219.909    273.38434 
   12250    40.645691    40.645691    40.645691     121.5239    124.35878    80.016288    160.19665   -12217.456    269.31163 
   12300    40.646678    40.646678    40.646678   -4.5178026   -42.941782    6.7834083    22.604966   -12218.362     271.7361 
   12350    40.647046    40.647046    40.647046    80.740013    46.371492   -110.22344    306.07199   -12217.399    270.53003 
   12400    40.648595    40.648595    40.648595   -115.40006   -170.67027   -38.654214   -136.87569   -12220.524    277.24572 
   12450     40.64761     40.64761     40.64761    98.070615    106.00032   -55.145157    243.35668   -12216.697    270.49419 
   12500    40.648397    40.648397    40.648397   -33.793507   -72.829204    187.05683   -215.60814   -12219.201     275.9882 
   12550    40.647699    40.647699    40.647699   -6.3032848   -66.700251    -58.03884    105.82924   -12217.636    273.60221 
   12600    40.647148    40.647148    40.647148    150.15792    276.78182   -59.768296    233.46022   -12216.995    273.00043 
   12650    40.650719    40.650719    40.650719    -230.1677   -301.26932   -293.09428    -96.13949   -12219.642     278.7619 
   12700    40.649551    40.649551    40.649551    49.593138    278.03567   -62.829234   -66.427023   -12216.411     273.1434 
   12750     40.64812     40.64812     40.64812   -59.516942   -206.40945    168.89601   -141.03738   -12220.368     281.4314 
   12800    40.647158    40.647158    40.647158    150.56586    195.01388     100.2512     156.4325   -12216.484    274.53526 
   12850     40.65031     40.65031     40.65031   -135.18774   -73.206376   -242.44154   -89.915291   -12217.746    277.59297 
   12900    40.650035    40.650035    40.650035    37.469618    87.325393    60.349512   -35.266049   -12216.531    275.85959 
   12950    40.650038    40.650038    40.650038    -65.39377    34.915161   -197.67549   -33.420977    -12216.98    277.33457 
   13000    40.650655    40.650655    40.650655    50.388611    101.22502    36.894539    13.046275   -12215.657    275.38498 
   13050    40.649878    40.649878    40.649878   -48.815694    127.70958   -227.69477   -46.461891   -12217.295    279.16326 
   13100     40.64773     40.64773     40.64773    211.28546    443.11767    85.709222     105.0295   -12215.781    276.83077 
   13150     40.65141     40.65141     40.65141   -34.356694    41.437439   -67.638321   -76.869199   -12215.515    276.90761 
   13200    40.653253    40.653253    40.653253   -181.21186   -51.438096   -315.01268   -177.18479   -12216.052    278.53733 
   13250    40.649089    40.649089    40.649089    127.99246    179.30223    96.317332    108.35781   -12214.716    276.53894 
   13300    40.647327    40.647327    40.647327    221.51986    102.86281    264.92062    296.77617   -12215.888    279.39088 
   13350    40.652259    40.652259    40.652259   -90.435581    95.219558   -314.22302   -52.303284   -12215.226    278.67893 
   13400    40.653511    40.653511    40.653511    -66.59541   -24.194078   -19.439791   -156.15236   -12214.522    277.89363 
   13450    40.650528    40.650528    40.650528    24.887061    43.432889   -28.616159    59.844453   -12215.716    280.76365 
   13500    40.650683    40.650683    40.650683    91.481713    114.75333    55.798769    103.89304   -12214.976    279.89549 
   13550    40.653249    40.653249    40.653249   -25.003482    198.08427   -145.78344   -127.31128   -12214.749    280.02415 
   13600    40.654119    40.654119    40.654119   -148.33767   -43.986404   -138.96483   -262.06176   -12215.226    281.49969 
   13650    40.651728    40.651728    40.651728    100.82517    190.92328    3.2394559    108.31278   -12214.075    279.82042 
   13700    40.651944    40.651944    40.651944   -36.073992   -27.700377    58.334172   -138.85577   -12215.524    283.17061 
   13750    40.652893    40.652893    40.652893    39.779721    116.02527    -12.40985    15.723748   -12213.287    279.38766 
   13800    40.654131    40.654131    40.654131   -89.267772   -50.190127   -49.612018   -168.00117   -12214.658    282.57974 
   13850    40.653307    40.653307    40.653307   -17.775955    107.49692   -76.799841   -84.024944   -12214.485    282.78173 
   13900    40.651994    40.651994    40.651994    27.464545    9.9711374    91.225424   -18.802927   -12214.632    283.59788 
   13950    40.652589    40.652589    40.652589    43.972861    230.94019   -57.058467   -41.963146   -12213.085    281.12763 
   14000    40.653863    40.653863    40.653863    129.41003    65.134184    227.92266    95.173263   -12211.451    278.49176 
   14050    40.656018    40.656018    40.656018   -177.11815   -107.20634   -251.63008   -172.51803   -12214.975    285.82047 
   14100    40.653966    40.653966    40.653966   -73.278286   -94.365147   -263.88187    138.41215   -12214.641    285.68078 
   14150    40.651998    40.651998    40.651998    11.633402    23.255465    8.7063643    2.9383764   -12215.265    287.39224 
   14200    40.653007    40.653007    40.653007    60.250034    186.31341   -142.52793    136.96463   -12214.019    285.48603 
   14250     40.65552     40.65552     40.65552   -45.993404   -132.02915   -156.09864    150.14758   -12211.785    281.65493 
   14300    40.655434    40.655434    40.655434   -93.778512     34.87913   -207.14255   -109.07212    -12212.66    283.84183 
   14350    40.652053    40.652053    40.652053    189.47931    72.168855    136.58775    359.68133   -12211.881    282.82431 
   14400    40.653274    40.653274    40.653274    26.409378    6.7473253    94.348217   -21.867409   -12213.431    286.30661 
   14450    40.655928    40.655928    40.655928      37.1666    108.93741   -119.82436    122.38675   -12210.355     280.8391 
   14500    40.656302    40.656302    40.656302    -23.79334    12.828271    26.511444   -110.71973   -12211.438    283.40803 
   14550    40.654392    40.654392    40.654392   -74.343754   -187.94428   -73.464422    38.377441   -12213.712    288.27897 
   14600    40.651732    40.651732    40.651732    248.55996    433.81903    176.40551    135.45533   -12211.192    283.87236 
   14650    40.655705    40.655705    40.655705   -72.170442   -101.85022   -135.19761    20.536498   -12211.812    285.52452 
   14700    40.658146    40.658146    40.658146   -154.47851   -370.81957   -95.636454     3.020488   -12211.466    285.32218 
   14750    40.654507    40.654507    40.654507    126.99452    78.779859    164.12596    138.07774   -12211.619    286.07528 
   14800    40.653423    40.653423    40.653423    53.995561   -93.225677    144.18352    111.02884   -12213.432    290.03747 
   14850    40.656375    40.656375    40.656375    8.0537129    51.192714    174.55557   -201.58714   -12211.268    286.29064 
   14900    40.659442    40.659442    40.659442   -194.04318   -337.45526    -82.32375   -162.35052   -12210.261    284.79146 
   14950    40.655051    40.655051    40.655051     165.4597    233.92674    149.83824    112.61412   -12210.379    285.46166 
   15000    40.652284    40.652284    40.652284    284.40291    214.25273     520.6857     118.2703   -12209.638    284.46199 
   15050    40.657592    40.657592    40.657592   -134.72573   -146.00377   -107.64395   -150.52947   -12212.394    290.21603 
   15100    40.660107    40.660107    40.660107   -260.34578   -311.27316   -294.89707   -174.86709   -12211.184    288.30173 
   15150    40.656067    40.656067    40.656067    75.935282    208.77805    122.83483   -103.80703   -12212.699    291.65027 
   15200    40.655068    40.655068    40.655068    189.67123    198.10634    80.523846    290.38349   -12208.417    283.78882 
   15250    40.658613    40.658613    40.658613    31.051479    90.916542    165.08667   -162.84877   -12209.524    286.34531 
   15300    40.660889    40.660889    40.660889   -181.04727   -311.64747   -28.488734    -203.0056   -12209.849    287.38558 
   15350    40.657134    40.657134    40.657134    58.968067    80.889817    66.119069    29.895314   -12211.542    291.06295 
   15400    40.655386    40.655386    40.655386    60.309595   -20.309563    59.321746     141.9166   -12211.189    290.78396 
   15450    40.658309    40.658309    40.658309    120.73815    249.76344    96.837076    15.613922   -12208.334    285.65362 
   15500    40.662074    40.662074    40.662074   -317.93004   -409.79629   -154.81413    -389.1797   -12212.539    294.18932 
   15550    40.656127    40.656127    40.656127    222.26917    191.26607    211.34609    264.19536   -12207.184    284.20916 
   15600    40.654957    40.654957    40.654957    181.18773    356.58263    168.56016    18.420402    -12209.69    289.44158 
   15650    40.659658    40.659658    40.659658   -120.06391   -160.48892   -301.60888    101.90606   -12209.655    289.75541 
   15700     40.65937     40.65937     40.65937    34.171108    358.48657   -244.94153   -11.031709   -12207.001    284.99703 
   15750    40.656895    40.656895    40.656895    8.7718918   -68.620605    138.47065   -43.534367   -12210.548    292.22829 
   15800    40.656697    40.656697    40.656697    37.320944    117.16459   -173.27942    168.07766   -12209.496    290.56103 
   15850    40.657965    40.657965    40.657965    3.3819728    18.784516     127.7977    -136.4363   -12209.766    291.45208 
   15900    40.659143    40.659143    40.659143    125.84773    47.157725    133.36992    197.01553   -12207.231    286.90855 
   15950    40.661179    40.661179    40.661179   -254.32126   -146.76667   -222.75351    -393.4436   -12212.241    296.96245 
   16000     40.65828     40.65828     40.65828    147.75665    285.66023   -36.547616    194.15732   -12209.159    291.34693 
   16050    40.659579    40.659579    40.659579   -265.57364   -342.50904   -206.71532   -247.49654   -12212.396    297.95839 
   16100    40.658259    40.658259    40.658259    105.21141    90.650363    177.19104    47.792822   -12208.034    289.85939 
   16150    40.660508    40.660508    40.660508   -82.398185    62.967219   -246.91976    -63.24201   -12210.769    295.48916 
   16200    40.660728    40.660728    40.660728   -105.82928   -55.977157   -125.55183   -135.95885   -12209.572    293.50823 
   16250    40.658982    40.658982    40.658982   -3.0359102   -43.362014    17.005592    17.248691   -12208.724    292.19015 
   16300    40.658576    40.658576    40.658576    204.59081    346.73147    93.033489    174.00748   -12209.133    293.30867 
   16350    40.662307    40.662307    40.662307   -266.22388   -312.04385   -77.377959   -409.24982   -12210.931    297.11324 
   16400    40.661118    40.661118    40.661118    117.15391    76.272824    179.25002     95.93888   -12205.743    287.39465 
   16450    40.661097    40.661097    40.661097   -42.122592    131.58959   -186.79529   -71.162075    -12208.49    293.02873 
   16500    40.659456    40.659456    40.659456    92.249339   -18.439948    198.98529    96.202679   -12208.335    293.04651 
   16550     40.65996     40.65996     40.65996   -46.594937    39.659616   -14.027971   -165.41646   -12209.107    294.84557 
   16600    40.660814    40.660814    40.660814    2.8169832    67.730607   -10.417622   -48.862035   -12206.582    290.26549 
   16650    40.661329    40.661329    40.661329    80.966912    70.677948    177.84487   -5.6220813   -12206.335    290.09579 
   16700    40.661936    40.661936    40.661936   -101.08906   -69.957198   -89.849305   -143.46067   -12208.925    295.41131 
   16750    40.660425    40.660425    40.660425    55.937602    324.81673    20.138042   -177.14197   -12209.259    296.35295 
   16800    40.660868    40.660868    40.660868   -130.11058    10.842147   -204.33239   -196.84149    -12208.78    295.71902 
   16850    40.660365    40.660365    40.660365    187.45846     131.5546     110.1624    320.65837   -12207.102    292.75602 
   16900    40.664106    40.664106    40.664106   -171.45188   -73.753955   -266.01365   -174.58805   -12208.735    296.20138 
   16950     40.66174     40.66174     40.66174    99.710099    287.71077    151.24337   -139.82384   -12205.012    289.27686 
   17000    40.659481    40.659481    40.659481    119.49631    237.55056    6.4668794    114.47151   -12207.993    295.31708 
   17050     40.66181     40.66181     40.66181   -99.850753   -188.72712    86.583381   -197.40852   -12208.473    296.51384 
   17100    40.663615    40.663615    40.663615   -21.645834    61.942686   -45.713841   -81.166346   -12207.177    294.27515 
   17150    40.664082    40.664082    40.664082   -109.74752    -101.7246     -100.962   -126.55596   -12207.076    294.34731 
   17200    40.660347    40.660347    40.660347    160.07888    397.47333  -0.84439323    83.607694   -12206.223    292.95413 
   17250    40.659614    40.659614    40.659614    249.41411    340.91438     233.6635    173.66444   -12205.725     292.2444 
   17300    40.664478    40.664478    40.664478    -46.53078   -17.211997   -44.849433   -77.530911   -12205.566    292.19032 
   17350    40.665301    40.665301    40.665301   -170.18781   -12.315296   -164.57665   -333.67148   -12208.762    298.62061 
   17400    40.660802    40.660802    40.660802    202.55308    562.29691   -32.113353    77.475671   -12205.594    292.73385 
   17450    40.662325    40.662325    40.662325    94.664485    170.33332    77.452965    36.207166   -12206.496    294.72084 
   17500    40.665288    40.665288    40.665288   -74.224868    50.732991   -90.789643   -182.61795   -12206.678    295.31612 
   17550    40.663803    40.663803    40.663803   -52.946455   -14.081805   -98.496379   -46.261181   -12206.634    295.46436 
   17600    40.660626    40.660626    40.660626    142.29102     436.6034    143.99097    -153.7213   -12206.334    295.11026 
   17650    40.662128    40.662128    40.662128    107.84945    320.68664   -36.743154    39.604872   -12206.594    295.83877 
   17700    40.665663    40.665663    40.665663   -60.347232    85.326654   -43.412659   -222.95569   -12205.533    294.01045 
   17750    40.664785    40.664785    40.664785   -107.46148   -98.681504   -25.110425    -198.5925   -12206.696    296.47382 
   17800     40.66148     40.66148     40.66148    136.90886    249.73456    116.25268    44.739326   -12205.519    294.41507 
   17850    40.662391    40.662391    40.662391     20.51578    165.81939   -121.59103    17.318976   -12207.535    298.53427 
   17900    40.663549    40.663549    40.663549   -63.027485    88.598582   -50.963235    -226.7178   -12208.688    300.97132 
   17950    40.663878    40.663878    40.663878   -17.478195    166.21168   -20.812374   -197.83389   -12205.649    295.29241 
   18000    40.663936    40.663936    40.663936   -60.609002     81.88729   -92.083382   -171.63091   -12206.148    296.45886 
   18050    40.661602    40.661602    40.661602    37.277503    57.005397    87.636401   -32.809288   -12207.694    299.64672 
   18100    40.661401    40.661401    40.661401   -31.674251    88.396225   -145.58356   -37.835413   -12207.649    299.74757 
   18150    40.663849    40.663849    40.663849    158.60318     338.0279    169.37837   -31.596743   -12204.177    293.22139 
   18200    40.667183    40.667183    40.667183   -279.80022   -370.80777   -138.06938    -330.5235   -12205.698    296.35894 
   18250    40.661397    40.661397    40.661397    229.55347    233.39048    208.41439    246.85553   -12204.529    294.27734 
   18300    40.660476    40.660476    40.660476    148.62585    232.09787    180.21384     33.56583   -12207.051    299.33661 
   18350    40.665497    40.665497    40.665497   -48.920632    28.306538   -17.748643   -157.31979   -12204.174    293.93965 
   18400    40.667364    40.667364    40.667364   -326.15027   -120.28813   -412.66106   -445.50161   -12208.311    302.11453 
   18450    40.661224    40.661224    40.661224    168.39588    197.47733    238.86287    68.847447   -12204.477    294.86622 
   18500    40.660384    40.660384    40.660384    158.68709    88.127207    191.62486     196.3092   -12207.427    300.74382 
   18550    40.665505    40.665505    40.665505   -1.6959443   -28.696866    26.761214   -3.1521806   -12204.382     295.0112 
   18600    40.668065    40.668065    40.668065   -266.90465   -351.10128    -256.3569   -193.25578   -12206.098    298.49487 
   18650    40.661688    40.661688    40.661688     86.00806    60.305911    23.231704    174.48657   -12206.228    298.89957 
   18700     40.66006     40.66006     40.66006    125.17619     183.2296   -16.091828    208.39081    -12208.61    303.66657 
   18750    40.664902    40.664902    40.664902   -69.385229   -131.04047    51.770763   -128.88598   -12205.621    298.03066 
   18800    40.668131    40.668131    40.668131   -228.15431   -434.63199   -146.57311   -103.25783   -12205.896    298.70962 
   18850    40.663968    40.663968    40.663968    96.516343    196.27207    44.265783    49.011175   -12203.533    294.27903 
   18900    40.660446    40.660446    40.660446    160.44158    17.704118    455.82223    7.7983966   -12205.644    298.50799 
   18950    40.662339    40.662339    40.662339    159.43087    255.29354    -92.30668    315.30575   -12203.687    294.85198 
   19000    40.667799    40.667799    40.667799    -120.8449   -130.09514   -118.46831   -113.97126   -12205.596    298.67449 
   19050    40.667426    40.667426    40.667426   -276.79847   -204.27033   -232.13006   -393.99503   -12207.243    301.99016 
   19100    40.660669    40.660669    40.660669    185.92023    254.73621      216.239     86.78547   -12205.036    297.85047 
   19150    40.660659    40.660659    40.660659    282.04487    223.40998     333.5397    289.18494   -12204.596    297.12588 
   19200    40.666765    40.666765    40.666765   -143.15967   -57.191927   -167.51619   -204.77089   -12205.281    298.56502 
   19250    40.667939    40.667939    40.667939   -36.565426    24.723195    45.433596   -179.85307   -12203.171    294.59279 
   19300    40.664192    40.664192    40.664192   -82.365663    -18.82177   -180.06218   -48.213042   -12207.016    302.14095 
   19350    40.659277    40.659277    40.659277    408.35368    453.90303    389.39312    381.76488   -12203.147    294.76145 
   19400    40.665408    40.665408    40.665408   -125.21547    42.334193   -218.17337   -199.80725   -12206.124    300.62307 
   19450    40.669046    40.669046    40.669046    -193.7665   -170.27637   -130.94341   -280.07971   -12203.814    296.26323 
   19500    40.664317    40.664317    40.664317    10.249529    157.22994    15.348767   -141.83012    -12205.61    299.83661 
   19550    40.658883    40.658883    40.658883    301.64992    485.09643    132.66896    287.18438   -12204.605    297.99106 
   19600    40.664197    40.664197    40.664197    179.46942    183.52954    232.26692    122.61181   -12203.439    295.81845 
   19650    40.672563    40.672563    40.672563   -528.44889   -403.34943   -555.57004   -626.42719   -12206.986    302.78099 
   19700    40.665655    40.665655    40.665655   -155.41162   -65.433713   -231.74564    -169.0555   -12207.977    304.77287 
   19750    40.658329    40.658329    40.658329    447.06184    524.30652    355.91033    460.96868   -12203.806    296.79883 
   19800     40.66554     40.66554     40.66554    -99.99418   -72.294171   -129.31897   -98.369396   -12206.773    302.62303 
   19850    40.670303    40.670303    40.670303   -243.54503   -112.85308   -169.88946   -447.89254   -12204.057    297.45583 
   19900    40.666363    40.666363    40.666363   -22.850654   -3.4355012    54.562015   -119.67847   -12204.835    299.03917 
   19950    40.660915    40.660915    40.660915    341.51494    329.18696    338.11409    357.24379   -12203.235    296.02205 
   20000    40.665085    40.665085    40.665085    -24.03815   -73.189574   -34.685802    35.760925   -12205.813    301.08265 
Loop time of 330.165 on 4 procs for 20000 steps with 4000 atoms

Pair  time (%) = 244.026 (73.9105)
Neigh time (%) = 0 (0)
Comm  time (%) = 60.6053 (18.3561)
Outpt time (%) = 0.260064 (0.078768)
Other time (%) = 25.2731 (7.6547)

Nlocal:    1000 ave 1000 max 1000 min
Histogram: 4 0 0 0 0 0 0 0 0 0
Nghost:    4235 ave 4235 max 4235 min
Histogram: 4 0 0 0 0 0 0 0 0 0
Neighs:    70000 ave 72653 max 67302 min
Histogram: 1 0 1 0 0 0 0 1 0 1
FullNghs:  0 ave 0 max 0 min
Histogram: 4 0 0 0 0 0 0 0 0 0

Total # of neighbors = 280000
Ave neighs/atom = 70
Neighbor list builds = 0
Dangerous builds = 0
unfix 1

# Store final cell length for strain calculations
variable tmp equal "lx"
variable L0 equal ${tmp}
variable L0 equal 40.6650846092499
print "Initial Length, L0: ${L0}"
Initial Length, L0: 40.6650846092499

######################################
# DEFORMATION
reset_timestep	0

fix		1 all npt temp 300 300 1 y 0 0 1 z 0 0 1 drag 1
variable srate equal 1.0e10
variable srate1 equal "v_srate / 1.0e12"
fix		2 all deform 1 x erate ${srate1} units box remap x
fix		2 all deform 1 x erate 0.01 units box remap x

# Output strain and stress info to file
# for units metal, pressure is in [bars] = 100 [kPa] = 1/10000 [GPa]
# p2, p3, p4 are in GPa
variable strain equal "(lx - v_L0)/v_L0"
variable p1 equal "v_strain"
variable p2 equal "-pxx/10000"
variable p3 equal "-pyy/10000"
variable p4 equal "-pzz/10000"
fix def1 all print 20 "${p1} ${p2} ${p3} ${p4}" file  Al99.posFRho.eam.alloy.def1.txt screen no

# Use cfg for AtomEye
#dump 		1 all cfg 250 dump.tensile_*.cfg id type xs ys zs c_csym c_peratom fx fy fz
#dump_modify 1 element Al

# Display thermo
thermo 	50
thermo_style	custom step v_strain temp v_p2 v_p3 v_p4 ke pe press

run		20000
Memory usage per processor = 3.04301 Mbytes
Step strain Temp p2 p3 p4 KinEng PotEng Press 
       0 -1.7473042e-16    301.08265 0.0073189574 0.0034685802 -0.0035760925    155.63303   -12205.813    -24.03815 
      50       0.0005    296.55652  0.044248249 0.0090788898 0.0060280958    153.29342    -12203.42   -197.85078 
     100        0.001    299.90965  0.074319039  0.017820206   0.02813282    155.02669   -12205.094   -400.90688 
     150       0.0015    302.96743  0.095306662 0.0051520293 -0.011022607    156.60729   -12206.606   -298.12028 
     200        0.002    298.07967   0.11169055 -0.031603542 -0.016876136    154.08075   -12203.999   -210.70292 
     250       0.0025    305.04558   0.16788208  0.043104332  0.027231784    157.68151   -12207.509   -794.06064 
     300        0.003    292.64289   0.19451959 -0.013797086  0.011732849    151.27042   -12201.011   -641.51785 
     350       0.0035    299.35365   0.21839909 0.0032955071 0.0020691291    154.73929   -12204.376    -745.8791 
     400        0.004    294.81585   0.24608476  -0.01847182 -0.043762299    152.39365   -12201.923   -612.83546 
     450       0.0045    298.62553   0.29182444 0.0017018353 -0.011506461    154.36292   -12203.771   -940.06604 
     500        0.005    299.99723   0.34829785  0.023527454  0.029245919    155.07196   -12204.355   -1336.9041 
     550       0.0055    293.17602   0.33302246 -0.0012644016  0.025117829      151.546   -12200.697   -1189.5863 
     600        0.006     303.4484   0.37706537 -0.018403545 -0.037537662    156.85592   -12205.866   -1070.4139 
     650       0.0065     298.8897   0.41685644 -0.0075544077 -0.0066810394    154.49947   -12203.358     -1342.07 
     700        0.007    298.05936   0.45672315  0.014826373  0.016435003    154.07026   -12202.774   -1626.6151 
     750       0.0075    297.82223   0.48944252 0.0050814787  0.011320876    153.94768   -12202.487   -1686.1496 
     800        0.008    303.35015   0.53861585 0.0039098417  0.022574379    156.80513   -12205.171   -1883.6669 
     850       0.0085    292.98444   0.51414088 -0.037597494 -0.013342773    151.44697   -12199.637    -1544.002 
     900        0.009    301.05195    0.5796896 -0.013916311 -0.023893629    155.61716   -12203.625   -1806.2655 
     950       0.0095    302.01778   0.59647672  0.033981624   0.01678077    156.11641   -12203.933   -2157.4637 
    1000         0.01    296.22505   0.67017523 -0.0036491892 0.0011302035    153.12208   -12200.739   -2225.5208 
    1050       0.0105     298.2949   0.66802894  0.019869104  0.015859484    154.19201   -12201.599   -2345.8584 
    1100        0.011    302.72039   0.70547784 0.0075548499  -0.01139062    156.47959   -12203.674   -2338.8069 
    1150       0.0115    294.00673   0.72146698 -0.036653967 -0.041664208    151.97541   -12198.949   -2143.8294 
    1200        0.012    298.58636   0.77774345  0.031336367  0.033482592    154.34267   -12201.087   -2808.5414 
    1250       0.0125    300.35318   0.81622095  0.020623305 0.0069079383    155.25596   -12201.765   -2812.5073 
    1300        0.013    301.27845   0.86614482 -0.0061820771 0.0069007559    155.73424   -12201.994    -2889.545 
    1350       0.0135    296.50911   0.85598439 -0.0012176421 -0.004986847    153.26892   -12199.279   -2832.5997 
    1400        0.014    301.79728   0.91234298 -0.009871737  0.020413634    156.00243   -12201.749   -3076.2829 
    1450       0.0145    298.38146   0.92258717 0.0095009914 -0.0053191995    154.23675   -12199.723   -3089.2299 
    1500        0.015    296.97945   0.97182171 -0.0065305215 -0.00066408077    153.51204   -12198.726   -3215.4237 
    1550       0.0155    300.54812    1.0010462  0.013043117 0.0024065888    155.35672   -12200.288   -3388.3197 
    1600        0.016    296.74927    1.0158562 0.0062239462 -0.024944749    153.39306   -12198.042   -3323.7845 
    1650       0.0165    299.92272    1.0663598 -0.0095223496 0.0046590991    155.03345    -12199.39   -3538.3217 
    1700        0.017    300.96093    1.0789366  0.030291009  0.020900276    155.57011   -12199.629   -3767.0929 
    1750       0.0175    300.26817    1.1422973 0.0054914241 -0.0054921674    155.21202   -12198.964   -3807.6553 
    1800        0.018    297.58878    1.1264386 -0.011321121  0.010890599    153.82701   -12197.263   -3753.3601 
    1850       0.0185    297.46693    1.1940172 0.0055610462 -0.028591597    153.76402   -12196.882   -3903.2889 
    1900        0.019    298.29621     1.219602 -0.0044475358  0.017593806    154.19269   -12196.981    -4109.161 
    1950       0.0195     298.4714    1.2519366  0.021777222 -0.014597562    154.28324    -12196.74   -4197.0541 
    2000         0.02    303.91285    1.2816312 -0.0089426032  0.028608229    157.09599   -12199.214   -4337.6559 
    2050       0.0205    298.31422    1.2986187 -0.028497639  0.014313029      154.202   -12195.975   -4281.4469 
    2100        0.021    299.90397    1.3413264  -0.00253289 -0.001282376    155.02376   -12196.447   -4458.3705 
    2150       0.0215    299.62845    1.3987844  -0.01772192 -0.0029191681    154.88134   -12195.946    -4593.811 
    2200        0.022    300.61146    1.4087919  0.033907795  0.014713038    155.38947   -12196.086   -4858.0424 
    2250       0.0225    301.15133    1.4175287  0.030913218  0.027949757    155.66853   -12195.995   -4921.3055 
    2300        0.023     291.7778    1.4424935 -0.019732009 -0.060558877    150.82325   -12190.772   -4540.6755 
    2350       0.0235     302.5963      1.48855 -0.0028119825 -0.0082606113    156.41545   -12195.973   -4924.9248 
    2400        0.024    301.51611    1.5381121 0.0065971867 0.0078122173    155.85709   -12195.024   -5175.0715 
    2450       0.0245     295.6194    1.5589779 0.0088821707  0.021147442    152.80901   -12191.575   -5296.6919 
    2500        0.025     296.9894    1.5816065 -0.0015123315  0.013680641    153.51718   -12191.875   -5312.5827 
    2550       0.0255    298.79257    1.6127833 -0.0016244047 -0.0069851195    154.44926   -12192.394    -5347.246 
    2600        0.026    299.16914    1.6099959 -0.029641323 -7.4934515e-05    154.64391   -12192.171   -5267.5989 
    2650       0.0265     298.4304    1.6568673  0.012463926 -0.015741466    154.26205   -12191.366    -5511.966 
    2700        0.027    302.12155    1.7032289  0.044330716  0.039286352    156.17005   -12192.845   -5956.1532 
    2750       0.0275    298.09799    1.7248926 -0.0095193089  -0.02070778    154.09023   -12190.328   -5648.8851 
    2800        0.028    299.78472    1.7524075 0.0049744135 -0.010972526    154.96212   -12190.756   -5821.3646 
    2850       0.0285      296.208      1.75682 -0.031987367 -0.012016593    153.11327    -12188.46   -5709.3868 
    2900        0.029    299.89927    1.8435509  0.018604894 -0.0041650118    155.02133   -12189.911   -6193.3025 
    2950       0.0295     297.8055    1.8518873  0.018117319  0.031638315    153.93903   -12188.364   -6338.8099 
    3000         0.03    300.15373    1.8947736  0.001442998 0.0053362459    155.15286   -12189.108   -6338.5095 
    3050       0.0305    298.52964    1.8861798 -0.019979937 0.0028347243    154.31335   -12187.791   -6230.1152 
    3100        0.031    299.79315    1.9407695 -0.024761007 -0.012326547    154.96647   -12187.962   -6345.6066 
    3150       0.0315    300.27386    1.9976231  0.012906472  0.030122062    155.21496   -12187.719   -6802.1722 
    3200        0.032    300.19216    2.0303321  0.022855689 0.0004176084    155.17272   -12187.182   -6845.3514 
    3250       0.0325    296.26352    2.0198852 -0.00084419956 -0.0072246246    153.14197   -12184.656   -6706.0546 
    3300        0.033    299.72437    2.0645589 -0.0061488698 -0.028234615    154.93092   -12185.938   -6767.2514 
    3350       0.0335    298.67062    2.0829172 -0.012181283 0.0034812857    154.38622   -12184.881   -6914.0575 
    3400        0.034    302.95487    2.1487449   0.05533469   0.01915745     156.6008   -12186.574   -7410.7902 
    3450       0.0345    299.19833    2.1623931 0.00090636882 0.0086292956    154.65901   -12184.107   -7239.7625 
    3500        0.035    297.78385    2.1874264 -0.0096377634 0.0039813415    153.92785   -12182.838   -7272.5666 
    3550       0.0355    295.28711    2.2044987 -0.010442628 -0.026656453    152.63725   -12181.008   -7224.6654 
    3600        0.036    301.58635     2.234272 -0.012328072  0.022378835     155.8934   -12183.714    -7481.076 
    3650       0.0365    300.82903    2.2898428 0.0080424377 0.0036186416    155.50193   -12182.774   -7671.6796 
    3700        0.037    300.38896      2.32383  0.005164017  0.018643734    155.27446   -12181.989   -7825.4593 
    3750       0.0375    302.50006    2.3565897  0.037338116 0.0088699073     156.3657   -12182.512   -8009.3257 
    3800        0.038    295.67463    2.3545656 -0.0029483645 0.0069360318    152.83756   -12178.416   -7861.8443 
    3850       0.0385    301.16162    2.3952218  -0.00521012 -0.015891087    155.67385   -12180.672   -7913.7354 
    3900        0.039    298.70179    2.4143609 5.9125458e-06 -0.022339333    154.40234   -12178.814    -7973.425 
    3950       0.0395    298.81897    2.4801198  0.033456507  0.016248842    154.46291   -12178.283   -8432.7506 
    4000         0.04    299.63217    2.4839289  0.014294319   0.01155514    154.88326   -12178.109   -8365.9278 
    4050       0.0405    296.52379    2.5045344 -0.034023829 -0.0038238118    153.27651   -12175.898   -8222.2891 
    4100        0.041    298.48836    2.5394074 -0.034529679   0.02824577    154.29201   -12176.301    -8443.745 
    4150       0.0415    303.41256    2.6095399  0.013026819  0.017338023    156.83739   -12178.228   -8799.6823 
    4200        0.042     298.5397    2.6191803  0.013436185 0.0050240259    154.31855   -12175.085    -8792.135 
    4250       0.0425    299.49028    2.6351953  0.022979663 -0.0026476175    154.80991   -12174.948   -8851.7578 
    4300        0.043    296.44482    2.6452697 -0.022145166 -0.030979738    153.23568   -12172.738   -8640.4827 
    4350       0.0435    302.43626    2.6993481  0.020157481 -0.0065274823    156.33272   -12175.195   -9043.2604 
    4400        0.044    294.87002    2.7368142  0.010478242 -0.012576558    152.42165   -12170.636   -9115.7195 
    4450       0.0445    301.42142    2.7664531  0.015774741  0.015864862    155.80814    -12173.37   -9326.9755 
    4500        0.045     298.0863    2.7960466 0.00044688007   0.02500656    154.08418    -12170.98        -9405 
    4550       0.0455    298.29137    2.8023791   -0.0310239 0.0049500211    154.19019   -12170.419   -9254.3508 
    4600        0.046    297.55228    2.8390646 -0.040603427  -0.01121077    153.80814   -12169.363   -9290.8347 
    4650       0.0465    300.17011    2.8914711 0.0065820712  0.030983909    155.16133   -12170.041    -9763.457 
    4700        0.047    297.00102    2.8882077  0.041143009 0.0090126923    153.52319   -12167.717   -9794.5447 
    4750       0.0475    302.00873    2.9371342   0.02112439 -0.0085814937    156.11173   -12169.613    -9832.257 
    4800        0.048    295.84218    2.9271407 -0.0017604088 -0.048141734    152.92417   -12165.728   -9590.7951 
    4850       0.0485    296.73483    2.9994554 -0.013220513 -0.010107759    153.38559   -12165.487   -9920.4237 
    4900        0.049    298.65902    3.0311966  0.033527498  0.018518294    154.38023   -12165.763   -10277.475 
    4950       0.0495    296.73649     3.060541 -0.020126683   0.01653463    153.38645   -12164.051    -10189.83 
    5000         0.05    301.30061    3.0734637   0.01773603  0.012848565    155.74569   -12165.685   -10346.827 
    5050       0.0505    294.56096    3.0605447 -0.026243582 0.0011913543    152.26189   -12161.476   -10118.308 
    5100        0.051    298.18601    3.1364911 -0.0019808392 -4.8852984e-05    154.13573   -12162.611   -10448.205 
    5150       0.0515    301.16861    3.1650356  0.011005903  0.036959865    155.67746   -12163.406   -10710.004 
    5200        0.052    296.41011    3.1586666 -0.018497656 -0.00065356721    153.21774   -12160.199   -10465.051 
    5250       0.0525    295.63929    3.2024928  0.010794195 -0.011103068    152.81929   -12159.043   -10673.946 
    5300        0.053    298.74602    3.2604688 -0.027209565 -0.0050546971     154.4252   -12159.887   -10760.682 
    5350       0.0535     297.2744    3.2771101  0.037454602 -0.014331069     153.6645   -12158.356   -11000.779 
    5400        0.054    293.99819    3.2999451 -0.018520108  0.021594229    151.97099    -12155.89   -11010.064 
    5450       0.0545    299.17435    3.3402974  0.017040859 -0.015368037    154.64661   -12157.782   -11139.901 
    5500        0.055    298.56123    3.3382999 -0.026936149 -0.007013022    154.32968   -12156.678   -11014.503 
    5550       0.0555    297.17161    3.3795804 -0.0037221978 0.0077535741    153.61137    -12155.17   -11278.706 
    5600        0.056    299.76078    3.4387352  0.017891694  0.018566329    154.94974   -12155.709   -11583.977 
    5650       0.0565    300.43413    3.4794418   0.01176085  0.016211705     155.2978    -12155.25   -11691.381 
    5700        0.057    299.16959    3.4862385 0.00038918917 -0.0061947214    154.64415   -12153.786   -11601.443 
    5750       0.0575    300.29101    3.5054849  0.016713816 -0.026753015    155.22382   -12153.549   -11651.486 
    5800        0.058    298.48834    3.5459174  0.016748087 -0.0019411227      154.292   -12151.796   -11869.081 
    5850       0.0585    298.09418    3.5844597  0.036252802 0.0010624067    154.08826   -12150.767   -12072.583 
    5900        0.059    301.93519    3.5946217 0.0074608611  0.035222257    156.07372   -12151.921   -12124.349 
    5950       0.0595    295.03017    3.6086023  -0.03845971 -0.025541042    152.50444    -12147.51   -11815.338 
    6000         0.06    296.93275    3.6332917 -0.027114834 -0.019984764     153.4879   -12147.651   -11953.974 
    6050       0.0605    296.70438    3.6850273 3.718477e-05  0.036320107    153.36985   -12146.679   -12404.615 
    6100        0.061    299.90522    3.7178652  0.029766491  0.029294972     155.0244   -12147.479   -12589.755 
    6150       0.0615    295.22723    3.7322351 -0.010486913 -0.024322755     152.6063   -12144.204   -12324.751 
    6200        0.062    298.09148    3.7686726 -0.015775908 -0.013521883    154.08686   -12144.811   -12464.583 
    6250       0.0625    293.26137     3.786386 -0.002800885   0.02283335    151.59012   -12141.438   -12688.062 
    6300        0.063    295.38039    3.8088795  0.015787285 0.0085409107    152.68547   -12141.654   -12777.359 
    6350       0.0635     297.9304    3.8270925 -0.0035687008 -0.013786028     154.0036    -12142.09   -12699.126 
    6400        0.064    301.89429    3.8707897 -0.032730494 -0.0030961439    156.05258   -12143.247    -12783.21 
    6450       0.0645     298.3894    3.9028494 -0.00088840208  -0.01929582    154.24086   -12140.542   -12942.217 
    6500        0.065    291.67957    3.9335506  0.018488938  0.008294427    150.77247   -12136.171   -13201.113 
    6550       0.0655    299.44542     3.987927  0.057357148  0.023536808    154.78673   -12139.275   -13562.736 
    6600        0.066    299.45948    3.9831602 -0.012987254 -0.018087198    154.79399   -12138.371   -13173.619 
    6650       0.0665     296.8344    3.9682822 -0.039299382  -0.03877393    153.43706   -12136.093   -12967.363 
    6700        0.067    300.97093    4.0682823 -0.0075143801  0.011654791    155.57528   -12137.306   -13574.742 
    6750       0.0675    299.75527    4.0974042  0.052485799  0.033435452    154.94689   -12135.744   -13944.418 
    6800        0.068    295.97526     4.098352 -0.00025215723  0.042726114    152.99296   -12132.858   -13802.753 
    6850       0.0685    296.98296    4.1075461 -0.044552182 -0.014600682    153.51385   -12132.438   -13494.644 
    6900        0.069    297.38096    4.1402827 -0.002198853 -0.037867869    153.71958   -12131.691   -13667.387 
    6950       0.0695    292.15204    4.1589522 -0.0032924582 -0.0029771626     151.0167   -12128.041   -13842.275 
    7000         0.07    297.44008    4.2341118  0.045912605  0.027213863    153.75015   -12129.813   -14357.461 
    7050       0.0705    303.14099    4.2435131  0.035449065 0.0053478756    156.69701   -12131.799   -14281.033 
    7100        0.071    294.77717     4.225368 -0.091844067 -0.035929979    152.37366   -12126.502   -13658.646 
    7150       0.0715    292.78002    4.2798098 -0.0093899728 -0.030441516    151.34131   -12124.499   -14133.261 
    7200        0.072    297.64687    4.3398165 0.0068831113  0.034004884    153.85703    -12126.03   -14602.348 
    7250       0.0725    297.93298    4.3683542  0.049691823  0.010006271    154.00493    -12125.19   -14760.174 
    7300        0.073    296.53293    4.3615931 -0.012139281 -0.012973034    153.28123   -12123.474   -14454.936 
    7350       0.0735    292.68891    4.3882579 -0.018084788 -0.041532387    151.29421   -12120.487   -14428.802 
    7400        0.074    296.02931    4.4196275 -0.0094042307  0.022441041     153.0209   -12121.205   -14775.548 
    7450       0.0745    298.01909    4.4784984 0.0088111535   0.01824885    154.04944   -12121.217   -15018.528 
    7500        0.075    296.47026    4.4937561 -0.0064403639 0.00042720831    153.24884   -12119.401   -14959.143 
    7550       0.0755    300.03459    4.4999464 -0.030104365 -0.0057696656    155.09128   -12120.218   -14880.241 
    7600        0.076     294.4218     4.547915 -0.019962427 -0.014241646    152.18996   -12116.291   -15045.703 
    7650       0.0765    299.91198    4.5899859  0.044108123  0.025563022     155.0279    -12118.09    -15532.19 
    7700        0.077     294.5192    4.6074415  0.020369345 -0.0018573806    152.24031   -12114.265   -15419.845 
    7750       0.0775     294.9894    4.6000579 -0.041854126 -0.038192077    152.48336   -12113.461   -15066.706 
    7800        0.078    297.63568    4.6527842 0.0048123079 -0.018214657    153.85125   -12113.782   -15464.606 
    7850       0.0785     297.8808    4.6923257    0.0195507   0.02730992    153.97796    -12112.85   -15797.288 
    7900        0.079    300.32587    4.7473754  0.029806497 0.0092844182    155.24184   -12113.054   -15954.888 
    7950       0.0795    301.46572    4.7604841  0.011294249  0.029178819    155.83104   -12112.569   -16003.191 
    8000         0.08    293.09111    4.7333087  -0.04405788 -0.018688455    151.50211   -12107.164   -15568.541 
    8050       0.0805    296.74984    4.7888795 -0.021835274  0.018721681    153.39335   -12107.981   -15952.553 
    8100        0.081    292.94252    4.8119031 -0.0041163419 -0.0098420126    151.42531   -12104.927   -15993.149 
    8150       0.0815     296.2172     4.841128  0.014922754 -0.006012457    153.11802   -12105.533   -16166.794 
    8200        0.082    296.52231    4.8532286  0.019048705  -0.01953673    153.27574   -12104.597   -16175.802 
    8250       0.0825    303.22238    4.9296772 -0.017159723 0.0054731798    156.73908   -12106.955   -16393.302 
    8300        0.083    295.30648    4.9178034  0.028460809 -0.028322809    152.64726   -12101.756   -16393.138 
    8350       0.0835    297.07942    4.9350445  0.026084205  0.012697409    153.56371   -12101.569   -16579.421 
    8400        0.084    299.65318    5.0014105 0.00022437406  0.018499203    154.89412   -12101.777    -16733.78 
    8450       0.0845    297.01114    5.0121357 -0.054220485  0.014449385    153.52842   -12099.283   -16574.549 
    8500        0.085    293.94759    5.0112115 -0.010918334 0.00019012569    151.94484   -12096.574   -16668.278 
    8550       0.0855    298.67368    5.0893342  0.016352296 0.00042675186    154.38781   -12097.881   -17020.377 
    8600        0.086    297.71508     5.095294 -0.022523265  0.028945212     153.8923   -12096.247    -17005.72 
    8650       0.0865    298.49363    5.1180715  0.025599947 -0.010467868    154.29473   -12095.509   -17110.679 
    8700        0.087    298.55268    5.1184027  0.012531824 -0.016905693    154.32526   -12094.395   -17046.763 
    8750       0.0875    299.58496    5.1881916 0.0030640907 -0.0061278103    154.85886   -12093.778    -17283.76 
    8800        0.088    298.59767    5.2208994 0.0052817881  0.024389386    154.34851   -12092.101   -17501.902 
    8850       0.0885    290.46573    5.1995306 -0.013333481 -0.019013637    150.14502    -12086.74   -17223.945 
    8900        0.089    295.85554    5.2782778 0.0046181407 0.0077722675    152.93108   -12088.354   -17635.561 
    8950       0.0895     299.8698     5.283604  0.028054314 0.0028939523     155.0061   -12089.248   -17715.174 
    9000         0.09    296.66435    5.2889705 -0.025448265  -0.01286695    153.34916   -12086.414   -17502.184 
    9050       0.0905    301.88369    5.3303448 0.0042693679 0.0075292937     156.0471   -12087.927   -17807.145 
    9100        0.091    296.75712    5.3605184 0.00071299622 0.0050072312    153.39712   -12084.091   -17887.462 
    9150       0.0915    299.60317    5.4066692  0.014801061  0.040960579    154.86827    -12084.36   -18208.103 
    9200        0.092    297.80581    5.4268851 0.0085921137 0.0034317198    153.93919   -12082.231   -18129.697 
    9250       0.0925    291.65046    5.3870237 -0.056292372 -0.019901965    150.75743   -12077.847   -17702.765 
    9300        0.093    295.90308    5.4603642 -0.023287817 -0.039621849    152.95565    -12078.84   -17991.515 
    9350       0.0935     298.3588    5.5096352  0.051163929  0.022449978    154.22504   -12078.888    -18610.83 
    9400        0.094    293.62663    5.5212993  0.038131084  0.024981738    151.77893   -12075.212   -18614.707 
    9450       0.0945    297.73062    5.4926195  0.011190557 -0.013004675    153.90033   -12076.113   -18302.685 
    9500        0.095    293.83923    5.5341396 -0.049414196 -0.049286925    151.88882   -12072.864   -18118.128 
    9550       0.0955    299.03713    5.5984625 -0.023771367 -0.0047061887    154.57568   -12074.305   -18566.616 
    9600        0.096    293.96088    5.6053689 -0.011640123  0.033237796    151.95171   -12070.433   -18756.555 
    9650       0.0965    297.27398    5.6536273  0.031327171  0.039518311    153.66429   -12070.898   -19081.576 
    9700        0.097    297.69021    5.6695904 -0.011475075 0.0084648319    153.87944   -12069.857     -18888.6 
    9750       0.0975    291.97724    5.6426943 -0.058647472 -0.075517531    150.92634   -12065.641   -18361.764 
    9800        0.098    295.90592    5.7023687 0.0054492208 -0.0024965541    152.95712   -12066.414   -19017.738 
    9850       0.0985    301.01041    5.7862935  0.061507423  0.067989933    155.59569   -12067.772   -19719.303 
    9900        0.099    295.59023    5.7424211  0.022485188   0.01283263    152.79394   -12063.706    -19259.13 
    9950       0.0995    295.61075    5.7566489 -0.085006149 -0.053825262    152.80454   -12062.427   -18726.058 
   10000          0.1    296.70199     5.810089 -0.015946925 -0.029461184    153.36862   -12061.705   -19215.603 
   10050       0.1005    292.18863    5.8235703  0.062462343  0.026964123    151.03561   -12058.082   -19709.989 
   10100        0.101    299.03941    5.8842447  0.038889551  0.072234257    154.57686    -12060.33   -19984.562 
   10150       0.1015    296.12116    5.8611447 -0.029218568 -0.070160721    153.06838   -12057.515   -19205.885 
   10200        0.102    297.33214     5.869898 -0.027494476 -0.047601217    153.69435   -12056.832   -19316.008 
   10250       0.1025    302.20166    5.9444381  0.055698444  0.056383253    156.21146   -12058.042   -20188.399 
   10300        0.103    292.41977    5.9231597  0.017924224 0.0053739122    151.15509   -12051.668   -19821.526 
   10350       0.1035    295.77639    5.9306574 0.00095345168 0.0010662002    152.89016   -12052.089    -19775.59 
   10400        0.104     297.4493     6.007756 -0.038904726 -0.0096481833    153.75491   -12051.614    -19864.01 
   10450       0.1045    293.75248    6.0093022 -0.054723892 -0.0062468238    151.84398   -12048.369   -19827.772 
   10500        0.105    292.21665    6.0470119 5.000783e-05  0.020905701     151.0501   -12046.239   -20226.559 
   10550       0.1055    297.22308     6.092096  0.062730879  0.047028483    153.63798   -12047.479   -20672.851 
   10600        0.106    297.17165    6.0664803  0.018305915 -0.018521418    153.61139   -12046.111   -20220.883 
   10650       0.1065    298.17035    6.1064638 -0.083267531 -0.033069415    154.12763    -12045.26    -19967.09 
   10700        0.107     299.3884     6.159823  0.014666512 -0.017021791    154.75725   -12044.531   -20524.893 
   10750       0.1075     294.6078    6.2147941  0.039215187  0.054366935    152.28611    -12040.68   -21027.921 
   10800        0.108    287.99776    6.1826006  0.025408251 0.0051589932     148.8693   -12035.895    -20710.56 
   10850       0.1085    295.35303    6.2030693 -0.017297631 -0.017708754    152.67132   -12038.316    -20560.21 
   10900        0.109    291.84545    6.2424224  -0.05820608 -0.053200224    150.85822   -12035.107    -20436.72 
   10950       0.1095    301.21748    6.2907299  0.032322412  0.008783307    155.70272   -12038.555   -21106.119 
   11000         0.11    293.20778    6.2994813  0.044494545 0.00025384022    151.56242   -12033.017   -21147.432 
   11050       0.1105    294.84707    6.3344666 -0.00056274557  0.030864811    152.40979   -12032.467   -21215.896 
   11100        0.111    297.83268     6.366974 -0.021646698 -0.0063540892    153.95308   -12032.594   -21129.911 
   11150       0.1115    292.77589    6.3788564 -0.041371665 -0.067063708    151.33917   -12028.566   -20901.403 
   11200        0.112    296.63099    6.4378821  0.016123968  0.035358421    153.33192   -12029.134   -21631.215 
[...]
   11650       0.1165    291.14368    6.5746853  0.038069759 -0.025944718    150.49546   -12013.336   -21956.035 
   11700        0.117    299.51393    6.6220838  0.019049032  0.013461923    154.82214     -12016.2   -22181.983 
   11750       0.1175     291.7045    6.6447998 -0.0020617769 -0.060417093    150.78536   -12010.688    -21941.07 
   11800        0.118    297.60814    6.6868686  0.031209306 -0.023226823    153.83702   -12012.264    -22316.17 
   11850       0.1185    289.53633    6.6596441  0.032461824 -0.027149759    149.66461   -12006.626   -22216.521 
   11900        0.119    295.27576    6.6727457  0.023821321  0.021012106    152.63138   -12008.119   -22391.931 
   11950       0.1195    291.28665    6.7006814 -0.044127136 -0.013460921    150.56937   -12004.569   -22143.645 
   12000         0.12     295.1178     6.787114 -0.0089122906  0.019125517    152.54973   -12005.039   -22657.758 
   12050       0.1205    296.20107    6.7788304 -0.0017333439   0.02112616    153.10969   -12004.087   -22660.744 
   12100        0.121    294.79984    6.7601646 -0.011317375  0.025811759    152.38538   -12001.858   -22582.197 
   12150       0.1215    295.10798    6.7867753 -0.016720977  0.012081113    152.54466    -12000.51   -22607.118 
   12200        0.122    291.02568    6.8192181  -0.01287747 0.00086562431    150.43447   -11996.888   -22690.687 
   12250       0.1225    295.65526    6.8939462 0.0066888727  0.035765507    152.82755   -11997.754   -23121.335 
   12300        0.123    295.10855    6.9029535 -0.015822165 -0.0058034441    152.54495   -11995.937    -22937.76 
   12350       0.1235     290.5764     6.863399  -0.03056266 -0.027924813    150.20223   -11992.071   -22683.038 
   12400        0.124    290.58382    6.9318487  0.018835233 -0.016965591    150.20607   -11990.541   -23112.395 
   12450       0.1245    296.07233    7.0051393  0.029629781  0.026046339    153.04314   -11991.825   -23536.051 
   12500        0.125    292.78665    6.9732012  0.016914995 -0.036304513    151.34473   -11988.579   -23179.372 
   12550       0.1255    291.79112    6.9718075  0.029858133 -0.057042311    150.83013   -11986.519   -23148.744 
   12600        0.126    292.96245    7.0195169 -0.016487094  0.028654929    151.43561   -11985.571   -23438.949 
   12650       0.1265     295.7664    7.0523812 -0.00063809644  0.052209789      152.885   -11985.449   -23679.843 
   12700        0.127    292.42436    7.0472572 -0.021834066 -0.0082906778    151.15746   -11982.153   -23390.442 
   12750       0.1275    295.72895    7.1110634 -0.043373253 0.0025402227    152.86564   -11982.288   -23567.435 
   12800        0.128    293.27642    7.1408207  0.019733606  0.012277249     151.5979   -11979.439   -23909.438 
   12850       0.1285    289.59819    7.1338764 0.0095141766  0.062551677    149.69658   -11975.956   -24019.807 
   12900        0.129    292.79338     7.152763 -0.0076150862 -0.022672473    151.34821   -11976.031   -23741.585 
   12950       0.1295    291.24501     7.125545  -0.04020045 -0.051380419    150.54784    -11973.63   -23446.547 
   13000         0.13     296.1582    7.1725129 -0.0066466324   0.02223232    153.08753    -11974.58   -23960.329 
   13050       0.1305    292.24828    7.1731665  0.064078097 -0.0010841199    151.06644    -11970.96   -24120.535 
   13100        0.131    294.86863    7.2384441  0.037062504 -0.004150149    152.42093   -11970.707   -24237.855 
   13150       0.1315    288.89379    7.2187849 -0.0077575681 -0.034497085    149.33247   -11966.012   -23921.768 
   13200        0.132    294.96851    7.2828374 0.0075068135 -0.030562612    152.47256   -11967.537   -24199.272 
   13250       0.1325    290.54744    7.2957621 -0.024851568 -0.031942837    150.18726   -11963.639   -24129.892 
   13300        0.133    295.57593    7.3431525  0.043032314  0.082077647    152.78655   -11964.606   -24894.208 
   13350       0.1335    290.86998     7.275273 -0.0088009414  0.018142795    150.35398   -11960.549    -24282.05 
   13400        0.134    294.18986    7.2731946 -0.015575026 -0.029244893    152.07007   -11960.644   -24094.582 
   13450       0.1345    295.96895    7.3506021 -0.021808801 0.0026492702     152.9897    -11959.93   -24438.142 
   13500        0.135    293.06051    7.3668862 -0.016176436  0.026321631     151.4863    -11956.79   -24590.105 
   13550       0.1355    294.25415    7.4307474  0.041118432  0.032638429     152.1033   -11955.761   -25015.014 
   13600        0.136    286.65369    7.3874289 -0.018359565  0.014276511    148.17454   -11950.188   -24611.153 
   13650       0.1365    291.11647    7.4228671 -0.0013155659  0.002427905     150.4814   -11950.844   -24746.598 
   13700        0.137    288.05164    7.3965498 -0.032613968 -0.043427612    148.89715   -11947.611   -24401.694 
   13750       0.1375    292.75431    7.4766891 -0.0014941839 -0.012415067    151.32802    -11948.39   -24875.933 
   13800        0.138    298.72571    7.5869914  0.046387254  0.044916158     154.4147   -11949.788   -25594.316 
   13850       0.1385    288.66686    7.5188839  0.019381944 -0.039948927    149.21517   -11942.915    -24994.39 
   13900        0.139     289.1929    7.5417625   -0.0210712 -0.027889828    149.48708   -11941.515   -24976.005 
   13950       0.1395    291.20776    7.5086239 -0.025142324  0.013799718    150.52859   -11940.884   -24990.938 
   14000         0.14    288.62757    7.4961599 -0.034412593  0.019903634    149.19486   -11937.888   -24938.837 
   14050       0.1405    293.13938     7.583778  0.035868209  0.029094203    151.52706   -11938.546   -25495.801 
   14100        0.141     290.0205    7.5829603  0.063735095 -0.021733554    149.91488   -11935.245   -25416.539 
   14150       0.1415    289.76432    7.5377447  -0.04126216  -0.06978394    149.78246   -11933.427   -24755.662 
   14200        0.142    295.59775    7.5434636  0.025341673 -0.0038195194    152.79782    -11934.76   -25216.619 
   14250       0.1425     285.9299    7.5604614 -0.00060497999 0.0050923754     147.8004   -11928.078   -25216.496 
   14300        0.143    292.21822    7.5964037  0.054491875  0.071270766    151.05091   -11929.635   -25740.555 
   14350       0.1435    289.93602    7.5737629 -0.057832739  0.014968073    149.87121   -11926.756   -25102.994 
   14400        0.144    287.04835    7.5365198 -0.061428181 -0.057121859    148.37854   -11923.562   -24726.566 
   14450       0.1445    284.19051    7.5495538 -0.059733329 -0.021279005    146.90129   -11920.402   -24895.138 
   14500        0.145    288.16558    7.5783265  0.054723154  0.076725564    148.95605   -11920.758   -25699.251 
   14550       0.1455    291.61137    7.5561636  0.080152726  0.088771999    150.73722   -11920.841   -25750.294 
   14600        0.146    289.85663    7.5471442 0.0083539478 -0.053759336    149.83017   -11918.243   -25005.796 
   14650       0.1465    294.00194    7.5467128  -0.06691291  -0.10585777    151.97293   -11918.656   -24579.807 
   14700        0.147    293.10621    7.5334894 -0.0059854804 -0.021054923    151.50992   -11916.507   -25021.497 
   14750       0.1475    296.24759    7.5550282  0.096014322  0.061028251    153.13373   -11916.423   -25706.903 
   14800        0.148    290.40498    7.4277394   0.05561638  0.016551148    150.11362   -11911.729    -24999.69 
   14850       0.1485    288.10172    7.3012473  -0.03497542  -0.02411998    148.92304   -11908.893   -24140.506 
   14900        0.149    294.32195    7.1842485 -0.059423568 -0.024941785    152.13835   -11910.461   -23666.277 
   14950       0.1495    296.76342    7.0537024  -0.01344722 7.8206337e-05    153.40037    -11910.13   -23467.778 
   15000         0.15    301.05074    6.9225608 -2.2215356e-05  0.069444794    155.61653   -11910.788   -23306.611 
   15050       0.1505    303.74446    6.7588903  0.047780146 -0.0088763104    157.00895   -11910.673   -22659.314 
   15100        0.151    305.95763    6.5314507 0.0049990389 -0.050850459    158.15296   -11910.378   -21618.664 
   15150       0.1515    317.96631    6.3357153  0.019641393 -0.004580025    164.36038   -11915.216   -21169.256 
   15200        0.152    334.40181    6.1336627  0.064626178 -0.027019831    172.85608   -11922.443   -20570.897 
   15250       0.1525     330.9132    5.7099541 -0.028074123  0.033666606    171.05278   -11919.497   -19051.822 
   15300        0.153     333.9954    5.2761256 -0.031731053  0.042216408      172.646   -11920.091   -17622.036 
   15350       0.1535    340.24643     4.875887 -0.031727264  0.051794204    175.87723   -11922.506   -16319.846 
   15400        0.154     347.1037    4.5048484  -0.10211854  0.071403891    179.42183   -11925.436   -14913.779 
   15450       0.1545    352.16294    4.2550492 -0.019821982  0.060632013    182.03701   -11927.643   -14319.531 
   15500        0.155    356.04074    4.0497692 0.0049548624 -0.058488954    184.04149   -11929.313   -13320.784 
   15550       0.1555    349.27906    3.7803986 -0.016527014 -0.013818757     180.5463   -11925.591   -12500.176 
   15600        0.156    352.86456    3.6144329  0.030458311  0.032820061    182.39969   -11927.357   -12259.038 
   15650       0.1565    351.28885    3.4898556  0.058885861  0.030841554    181.58518   -11926.484   -11931.943 
   15700        0.157    359.81431    3.3481348  0.048614228 -0.021621133    185.99209   -11930.891   -11250.426 
   15750       0.1575    358.25374    3.2542581 -0.080410771 -0.062315815    185.18542   -11930.073   -10371.772 
   15800        0.158    351.64776    3.2461408 -0.044637529 -0.024230384    181.77071   -11926.665    -10590.91 
   15850       0.1585    365.43258    3.3611218    0.1385923  0.070253404    188.89624    -11933.77   -11899.892 
   15900        0.159    356.18795    3.2429111  0.085021825 -0.009491227    184.11758   -11929.015   -11061.472 
   15950       0.1595    367.23513    3.2086073 -0.036589559 -0.020138187      189.828   -11934.724   -10506.265 
   16000         0.16    369.03921    3.1463824 -0.054415171 -0.039834759    190.76055   -11935.664   -10173.775 
   16050       0.1605    364.77734    3.1095688 0.0075111012 -0.024420945    188.55754   -11933.516   -10308.863 
   16100        0.161     374.9955    3.1231874  0.055690196  0.096287027    193.83942   -11938.876   -10917.216 
   16150       0.1615    370.43878    3.0440332  -0.01675268  0.052658296      191.484    -11936.66   -10266.463 
   16200        0.162     379.9472    2.9830147 -0.083380023 0.0065516723    196.39901   -11941.752   -9687.2877 
   16250       0.1625    381.75139    2.8406501 -0.012791813  0.017652007    197.33161   -11942.916   -9485.0342 
   16300        0.163    387.75633    2.8302254  0.045464909  0.031327424    200.43563   -11946.321    -9690.059 
   16350       0.1635      380.647    2.6945348 0.00013645436 -0.031592585    196.76074    -11943.01   -8876.9289 
   16400        0.164    393.41563    2.6328625 -0.049535265 -0.013162398    203.36099   -11950.032   -8567.2161 
   16450       0.1645    392.56652    2.5530254 -0.049150135  -0.03178783    202.92208   -11950.016   -8240.2914 
   16500        0.165    384.79383    2.4580012 0.0066021944  0.026217792    198.90429   -11946.469   -8302.7374 
   16550       0.1655    389.58271    2.3970989   0.13635555  0.041472964    201.37971   -11949.436   -8583.0915 
   16600        0.166    385.68741    2.2665269  0.093195643 -0.067158243    199.36619    -11947.96    -7641.881 
   16650       0.1665    388.73528    2.2594979 -0.038898319  -0.15600367    200.94167   -11950.064   -6881.9865 
   16700        0.167    388.98643    2.2577586  -0.03060513 -0.082289337    201.07149    -11950.75    -7149.547 
   16750       0.1675    387.27067      2.32433   0.09330456  0.063019927    200.18459   -11950.401   -8268.8483 
   16800        0.168    393.34705    2.3420215   0.05491143   0.17712766    203.32554   -11954.065   -8580.2019 
   16850       0.1685    396.55582    2.2035521 -0.030887598 -0.016121238    204.98419     -11956.3   -7188.4776 
   16900        0.169    394.58069    2.1280886  -0.12977612  -0.10067196    203.96323   -11955.834   -6325.4684 
   16950       0.1695    400.91735    2.1925873 -0.033430859  -0.02774505    207.23872   -11959.746   -7104.7045 
   17000         0.17    394.89764     2.264705  0.071360291  0.083835906    204.12706   -11957.256   -8066.3374 
   17050       0.1705    395.66668     2.241282  0.019450786   0.09662997    204.52459   -11958.282   -7857.8758 
   17100        0.171    398.13126    2.1182491  0.036613132 -0.015888546    205.79856   -11960.214   -7129.9121 
   17150       0.1715    401.88665    2.0981744 -0.052099876 -0.012686386    207.73976   -11962.795   -6777.9606 
   17200        0.172    399.59267     2.013207 -0.093181999 -0.012778144    206.55397   -11962.287   -6357.4896 
   17250       0.1725    395.58799    1.9949157  0.071772917  0.018280964    204.48391   -11960.916   -6949.8987 
   17300        0.173    393.38632    2.0037989  0.093060101  0.036913981    203.34584   -11960.477   -7112.5765 
   17350       0.1735    395.13137    1.9316922  0.038184991  -0.12262676    204.24788   -11962.069   -6157.5014 
   17400        0.174    402.06298     1.856631  0.020635688 -0.0086274355    207.83091   -11966.383   -6228.7975 
   17450       0.1745    399.69859    1.8147092 -0.037552219 -0.014700231    206.60872   -11965.884    -5874.856 
   17500        0.175    403.15625     1.884352 -0.047606818    0.1243219    208.39603   -11968.375   -6536.8904 
   17550       0.1755    401.22557    1.8972651 -0.0094027589   0.11884337    207.39804   -11968.159   -6689.0192 
   17600        0.176    410.76049    1.8188612 0.0042750959   0.03659396    212.32675   -11973.918   -6199.1008 
   17650       0.1765    403.38154    1.6941391 -0.062362002  -0.14631946    208.51249   -11970.884   -4951.5255 
   17700        0.177    412.78342    1.7490896  0.004109317  -0.07250339    213.37242    -11976.55   -5602.3184 
   17750       0.1775    406.54684    1.7970101  0.073280501  0.075012074    210.14867   -11974.155   -6484.3421 
   17800        0.178    414.28915    1.7116786   0.15310039  0.086012531    214.15075   -11979.068   -6502.6384 
   17850       0.1785    415.90848    1.5858496 -0.075452787 -0.039684526     214.9878   -11980.798   -4902.3744 
   17900        0.179    413.48446    1.4865579 -0.082504522  -0.12588673     213.7348   -11980.427   -4260.5555 
   17950       0.1795    407.86792    1.4992881  0.012736875 -0.015400871    210.83155   -11978.457   -4988.7471 
   18000         0.18    410.67678    1.6155731   0.12760813  0.091056243    212.28347   -11980.804   -6114.1251 
   18050       0.1805    411.63399    1.5556018  0.078525824 -0.0098637551    212.77827   -11982.256   -5414.2129 
   18100        0.181     412.9606    1.4759851 -0.046155165   -0.0730436    213.46401   -11983.874   -4522.6212 
   18150       0.1815    408.88722    1.3858264  -0.05887722 -0.017457693    211.35843   -11982.699   -4364.9715 
   18200        0.182    416.19832      1.42513 -0.069886146  0.053337653    215.13762   -11987.419   -4695.2716 
   18250       0.1825    411.33346    1.4687162 -0.0041243296  0.060578047    212.62292   -11985.881   -5083.8996 
   18300        0.183    414.55808    1.4547559  0.030228134  0.078947712    214.28976   -11988.557   -5213.1057 
   18350       0.1835    421.76656    1.5288176 -0.036198306 -0.020064862    218.01591   -11993.289   -4908.5147 
   18400        0.184    416.01239    1.4510315 -0.012436882  -0.11221701    215.04151   -11991.308   -4421.2588 
   18450       0.1845    425.46083    1.5453912  0.089563814 -0.056754988    219.92552   -11997.203   -5260.6667 
   18500        0.185    415.58032    1.5083519   0.12374132 -0.036635779    214.81817   -11993.158   -5318.1914 
   18550       0.1855    422.30531    1.5292462   0.15902386   -0.0408232     218.2944    -11997.77   -5491.4895 
   18600        0.186    424.10202    1.5144232  0.038683231 -0.086198479    219.22313   -11999.836    -4889.693 
   18650       0.1865    422.99585    1.5385891 -0.060833711 -0.080759092    218.65134   -12000.335   -4656.6542 
   18700        0.187    430.00696    1.6075998 0.0083686453  0.068254973    222.27546    -12004.97   -5614.0782 
   18750       0.1875    421.81345    1.6196874 -0.0055798092   0.12985003    218.04015   -12001.715   -5813.1919 
   18800        0.188    415.97188    1.5865986  -0.05192571  0.077725925    215.02058   -11999.701   -5374.6627 
   18850       0.1885    416.84797    1.5626879 -0.093000289 0.0093873529    215.47343   -12001.164   -4930.2499 
   18900        0.189     419.9458     1.587316 -0.045906255 -0.030270778    217.07474   -12003.769     -5037.13 
   18950       0.1895    421.40611    1.6439288  0.042911147  0.043325961    217.82959   -12005.524   -5767.2198 
   19000         0.19    419.69754    1.6615049  0.076166296  0.085643181    216.94641   -12005.667   -6077.7146 
   19050       0.1905    413.82306    1.5806324 -0.0098263979  -0.10511917    213.90983   -12003.627   -4885.6227 
   19100        0.191    420.25619    1.6180495 -0.019227779 -0.023895354    217.23518   -12007.937   -5249.7545 
   19150       0.1915     409.9379    1.6224065  0.014977602 -0.070870656    211.90154   -12003.587   -5221.7114 
   19200        0.192    418.06456     1.673313   0.14240332   0.04883947     216.1023   -12008.774    -6215.186 
   19250       0.1925    412.60102    1.6863687 -0.041799896 -0.002739733    213.27814   -12006.936   -5472.7634 
   19300        0.193    412.49842    1.6679725 -0.041666258 -0.043176707     213.2251   -12007.809   -5277.0985 
   19350       0.1935    414.90837    1.7518972 -0.056667694  0.014987214    214.47083   -12009.987   -5700.7223 
   19400        0.194    400.99265    1.7713961 -0.024767066  0.034936122    207.27764   -12003.706   -5938.5504 
   19450       0.1945    408.98723    1.8252343   0.10267528   0.11623958    211.41013   -12008.729   -6813.8306 
   19500        0.195    413.27402    1.8186375 -0.00077461063 -0.013611421    213.62602   -12011.867   -6014.1715 
   19550       0.1955    419.64161    1.8275488  -0.11043674 -0.078615699     216.9175   -12016.014   -5461.6546 
   19600        0.196    404.95414    1.9084103 -0.0023830414 -0.025587754    209.32538   -12009.329   -6268.1318 
   19650       0.1965    398.12992    1.9153344  0.076578085  0.046173878    205.79786   -12006.642   -6793.6211 
   19700        0.197    411.18396    1.9376869  0.084449702  0.083550541    212.54564   -12014.255   -7018.9572 
   19750       0.1975      407.261     1.887242  -0.08873852 -0.070711908    210.51782   -12013.047   -5759.3052 
   19800        0.198    403.01732    1.8939903  -0.03481589  -0.07074281    208.32422    -12011.67   -5961.4388 
   19850       0.1985    399.12078    1.9291461   0.10127252   0.05996002    206.31005   -12010.452   -6967.9287 
   19900        0.199    402.59661    2.0334571  0.056675358  0.034164075    208.10675    -12013.04   -7080.9883 
   19950       0.1995    407.84452    2.0177533 -0.012194283 -0.027010766    210.81945   -12016.529   -6595.1608 
   20000          0.2    396.14346    1.9573931 -0.089230039 -0.021866938    204.77104   -12011.245   -6154.3205 
Loop time of 399.443 on 4 procs for 20000 steps with 4000 atoms

Pair  time (%) = 303.461 (75.971)
Neigh time (%) = 0.544091 (0.136212)
Comm  time (%) = 67.1045 (16.7995)
Outpt time (%) = 0.349781 (0.0875672)
Other time (%) = 27.9838 (7.0057)

Nlocal:    1000 ave 1017 max 975 min
Histogram: 1 0 0 0 0 1 0 0 1 1
Nghost:    3689.5 ave 3707 max 3668 min
Histogram: 1 0 0 0 1 0 0 1 0 1
Neighs:    68867 ave 70771 max 67656 min
Histogram: 1 0 1 1 0 0 0 0 0 1
FullNghs:  0 ave 0 max 0 min
Histogram: 4 0 0 0 0 0 0 0 0 0

Total # of neighbors = 275468
Ave neighs/atom = 68.867
Neighbor list builds = 89
Dangerous builds = 0

######################################
# SIMULATION DONE
print "All done"
All done
