LAMMPS (28 Jun 2014)
# Input file for uniaxial tensile loading of single crystal aluminum
# Mark Tschopp, November 2010

# ------------------------ INITIALIZATION ----------------------------
units 		metal
dimension	3
boundary	p	p	p
atom_style	atomic
variable latparam equal 4.05

# ----------------------- ATOM DEFINITION ----------------------------
lattice		fcc ${latparam}
lattice		fcc 4.05
Lattice spacing in x,y,z = 4.05 4.05 4.05
region		whole block 0 10 0 10 0 10
create_box	1 whole
Created orthogonal box = (0 0 0) to (40.5 40.5 40.5)
  1 by 2 by 2 MPI processor grid
lattice 	fcc ${latparam} orient x 1 0 0 orient y 0 1 0 orient z 0 0 1
lattice 	fcc 4.05 orient x 1 0 0 orient y 0 1 0 orient z 0 0 1
Lattice spacing in x,y,z = 4.05 4.05 4.05
create_atoms	1 region whole
Created 4000 atoms

# ------------------------ FORCE FIELDS ------------------------------
pair_style	eam/alloy
pair_coeff	* * Al99.PosFRho.PosRhoR.NegPhiR.eam.alloy Al

# ------------------------- SETTINGS ---------------------------------
compute csym all centro/atom fcc
compute peratom all pe/atom

######################################
# EQUILIBRATION
reset_timestep	0
timestep 0.001
velocity all create 300 12345 mom yes rot no
fix 1 all npt temp 300 300 1 iso 0 0 1 drag 1

# Set thermo output
thermo 1000
thermo_style custom step lx ly lz press pxx pyy pzz pe temp

# Run for at least 10 picosecond (assuming 1 fs timestep)
run 20000
Memory usage per processor = 3.04301 Mbytes
Step Lx Ly Lz Press Pxx Pyy Pzz PotEng Temp 
       0         40.5         40.5         40.5    2192.3231    2143.1899    2230.8539    2202.9253   -13445.584          300 
    1000    40.552785    40.552785    40.552785    857.05429    845.48837    829.21253    896.46196   -13366.687    165.27937 
    2000    40.566565    40.566565    40.566565    257.91789     190.3772    287.07312    296.30334   -13362.048    178.91685 
    3000    40.575484    40.575484    40.575484    96.076742    11.317682    191.21945    85.693093   -13355.555    189.35188 
    4000    40.583182    40.583182    40.583182    69.873241    21.864565    46.585796    141.16936    -13345.92    193.70135 
    5000     40.58819     40.58819     40.58819    175.98399    273.55176    234.65045    19.749753   -13339.819    204.64088 
    6000    40.595278    40.595278    40.595278    84.941625    82.383462   -13.082093    185.52351   -13332.919    213.52905 
    7000    40.603086    40.603086    40.603086   -36.110338    -58.63527      64.3981   -114.09385   -13327.251    224.04753 
    8000    40.608166    40.608166    40.608166   -12.967302   -64.054287    21.688486    3.4638946   -13324.543    239.28511 
    9000    40.612938    40.612938    40.612938   -18.558795   -74.429629    94.496012   -75.742768   -13321.676    253.02239 
   10000    40.621177    40.621177    40.621177   -75.675618   -55.203196   -48.502523   -123.32114   -13312.113     252.3801 
   11000     40.62616     40.62616     40.62616   -111.58121   -465.40345    131.98296   -1.3231516   -13308.813    262.29937 
   12000    40.627175    40.627175    40.627175   -3.4299292    102.23064   -24.578972   -87.941459   -13306.683     272.7931 
   13000    40.633021    40.633021    40.633021   -25.035264   -133.57082   -205.83391    264.29894   -13303.014    278.53522 
   14000    40.633695    40.633695    40.633695     113.9863   -129.07728    133.34358     337.6926   -13299.084    282.02909 
   15000    40.637726    40.637726    40.637726    176.74347    224.15457    126.45828    179.61757   -13295.544    284.56859 
   16000    40.637847    40.637847    40.637847    215.65069    400.69595    116.10632    130.14981   -13293.926    289.13865 
   17000    40.640429    40.640429    40.640429    67.518656    52.324684    164.06107   -13.829785   -13295.472    298.27044 
   18000    40.639086    40.639086    40.639086    240.57589     167.0843    481.65364    72.989718   -13293.223    298.57661 
   19000    40.646417    40.646417    40.646417   -85.989559   -128.86631   -207.15937    78.057009   -13291.516    298.48221 
   20000    40.646793    40.646793    40.646793   -125.76247   -272.66238   -94.584331   -10.040708    -13292.49    302.29694 
Loop time of 234.001 on 4 procs for 20000 steps with 4000 atoms

Pair  time (%) = 193.214 (82.5697)
Neigh time (%) = 0 (0)
Comm  time (%) = 28.0785 (11.9993)
Outpt time (%) = 0.00252098 (0.00107733)
Other time (%) = 12.7062 (5.42998)

Nlocal:    1000 ave 1000 max 1000 min
Histogram: 4 0 0 0 0 0 0 0 0 0
Nghost:    4235 ave 4235 max 4235 min
Histogram: 4 0 0 0 0 0 0 0 0 0
Neighs:    70000 ave 72653 max 67302 min
Histogram: 1 0 1 0 0 0 0 1 0 1
FullNghs:  0 ave 0 max 0 min
Histogram: 4 0 0 0 0 0 0 0 0 0

Total # of neighbors = 280000
Ave neighs/atom = 70
Neighbor list builds = 0
Dangerous builds = 0
unfix 1

# Store final cell length for strain calculations
variable tmp equal "lx"
variable L0 equal ${tmp}
variable L0 equal 40.6467927362438
print "Initial Length, L0: ${L0}"
Initial Length, L0: 40.6467927362438

######################################
# DEFORMATION
reset_timestep	0

fix		1 all npt temp 300 300 1 y 0 0 1 z 0 0 1 drag 1
variable srate equal 1.0e10
variable srate1 equal "v_srate / 1.0e12"
fix		2 all deform 1 x erate ${srate1} units box remap x
fix		2 all deform 1 x erate 0.01 units box remap x

# Output strain and stress info to file
# for units metal, pressure is in [bars] = 100 [kPa] = 1/10000 [GPa]
# p2, p3, p4 are in GPa
variable strain equal "(lx - v_L0)/v_L0"
variable p1 equal "v_strain"
variable p2 equal "-pxx/10000"
variable p3 equal "-pyy/10000"
variable p4 equal "-pzz/10000"
fix def1 all print 20 "${p1} ${p2} ${p3} ${p4}" file  Al99.PosFRho.PosRhoR.NegPhiR.eam.alloy.def1.txt screen no

# Use cfg for AtomEye
#dump 		1 all cfg 250 dump.tensile_*.cfg id type xs ys zs c_csym c_peratom fx fy fz
#dump_modify 1 element Al

# Display thermo
thermo 	1000
thermo_style	custom step v_strain temp v_p2 v_p3 v_p4 ke pe press

run		20000
Memory usage per processor = 3.04301 Mbytes
Step strain Temp p2 p3 p4 KinEng PotEng Press 
       0 -1.2236634e-15    302.29694  0.027266238 0.0094584331 0.0010040708    156.26071    -13292.49   -125.76247 
    1000         0.01    301.41762   0.64970048  0.021861359   0.03063096    155.80618   -13289.483   -2340.6427 
    2000         0.02      301.293    1.3023447  0.025917682  0.057705645    155.74176   -13284.078   -4619.8935 
    3000         0.03    301.27233    1.9052355 -0.016502303  0.015315762    155.73108   -13276.014   -6346.8297 
    4000         0.04    302.28064    2.5328705 -0.062658522 0.0047742759    156.25229   -13265.772   -8249.9543 
    5000         0.05    297.05319    3.1073209 -0.036799152 -0.042948613    153.55015   -13249.764   -10091.911 
    6000         0.06     300.6673    3.7193838  0.012513774 -0.015735424    155.41833   -13235.886   -12387.207 
    7000         0.07    301.93413    4.2737292   0.03900542  0.027528941    156.07317   -13218.466   -14467.545 
    8000         0.08    305.33279    4.8709435  0.046594465 -0.003071554    157.82998   -13199.807   -16381.555 
    9000         0.09    299.73746    5.4000658 -0.0023010922  0.023646294    154.93769   -13174.248    -18071.37 
   10000          0.1    291.12224    5.9241764 -0.023195638  -0.10248875    150.48438   -13144.845   -19328.307 
   11000         0.11    295.18531    6.4628825  0.024770242   0.01259703    152.58463   -13119.812   -21667.499 
   12000         0.12    291.01674    6.9937096 -0.013439991 -0.0018822453    150.42985   -13088.314   -23261.291 
   13000         0.13    293.50514    7.3570187 0.0074953362  0.015236989    151.71613   -13058.234    -24599.17 
   14000         0.14    297.23423    7.8377263 0.0016648841 -0.044032502    153.64374   -13026.859   -25984.529 
   15000         0.15    314.56448     7.407126 0.0019409491 0.0075982894    162.60194   -13001.427   -24722.217 
   16000         0.16    419.53108    2.6664545 -0.040481575  -0.02260679    216.86036    -13051.48    -8677.887 
   17000         0.17    411.24145    1.9795962 -0.063347223 -0.035500316    212.57536   -13062.581   -6269.1622 
   18000         0.18    419.52054    1.2000163  0.036394026 -0.060605691    216.85492   -13085.871   -3919.3489 
   19000         0.19    411.30173   0.90404436 -0.013149471  0.094975084    212.60652   -13102.248   -3286.2333 
   20000          0.2    408.30555   0.51259579 -0.074136235  0.021584885    211.05776   -13123.207   -1533.4815 
Loop time of 345.175 on 4 procs for 20000 steps with 4000 atoms

Pair  time (%) = 268.158 (77.6875)
Neigh time (%) = 0.493418 (0.142947)
Comm  time (%) = 53.022 (15.3609)
Outpt time (%) = 0.00284201 (0.000823353)
Other time (%) = 23.499 (6.80785)

Nlocal:    1000 ave 1006 max 992 min
Histogram: 1 0 0 1 0 0 0 0 0 2
Nghost:    3771.75 ave 3787 max 3753 min
Histogram: 1 0 0 0 0 1 1 0 0 1
Neighs:    69187.5 ave 70617 max 67738 min
Histogram: 1 0 1 0 0 0 0 0 1 1
FullNghs:  0 ave 0 max 0 min
Histogram: 4 0 0 0 0 0 0 0 0 0

Total # of neighbors = 276750
Ave neighs/atom = 69.1875
Neighbor list builds = 82
Dangerous builds = 0

######################################
# SIMULATION DONE
print "All done"
All done
