
# ----------------------- ATOM DEFINITION ----------------------------
lattice		fcc ${latparam}
lattice		fcc 4.05
Lattice spacing in x,y,z = 4.05 4.05 4.05
region		whole block 0 10 0 10 0 10
create_box	1 whole
Created orthogonal box = (0 0 0) to (40.5 40.5 40.5)
  1 by 2 by 2 MPI processor grid
lattice 	fcc ${latparam} orient x 1 0 0 orient y 0 1 0 orient z 0 0 1
lattice 	fcc 4.05 orient x 1 0 0 orient y 0 1 0 orient z 0 0 1
Lattice spacing in x,y,z = 4.05 4.05 4.05
create_atoms	1 region whole
Created 4000 atoms

# ------------------------ FORCE FIELDS ------------------------------

#****************USE THIS TO TEST******************
pair_style	eam/rad
pair_coeff 		* * Al99.PC0.05.eam.alloy.rad.txt Al # pc = 0.5   error generating


# to test with error = 0 use this potential
# pair_coeff	* * Al99.eam.alloy.005pcrad_NULL_noerror Al

#****************USE THIS TO RUN REFRENCE***********
# pair_style	eam/alloy
# pair_coeff	* * Al99.eam.alloy Al

# ------------------------- SETTINGS ---------------------------------
compute csym all centro/atom fcc
compute peratom all pe/atom

######################################
# EQUILIBRATION
reset_timestep	0
timestep	0.001 # default
# timestep	0.0001 # tiny time step
velocity all create 300 12345 mom yes rot no
fix 1 all npt temp 300 300 1 iso 0 0 1 drag 1

# Set thermo output
thermo 50
# thermo 1 # debug mode

# thermo_style custom step lx ly lz press pxx pyy pzz pe temp
# IMPLEMENTATION HERE

# VERSION add rad variables .v1 .v2
# thermo_style custom step lx ly lz press pxx pyy pzz pxxrad pyyrad pzzrad pe temp

# VERSION ublb separation .v3
thermo_style custom step lx ly lz press pxx pxxrad pyy pyyrad pzz pzzrad pe temp

# Run for at least 10 picosecond (assuming 1 fs timestep)
run 	20000 # default
Memory usage per processor = 5.63763 Mbytes
Step Lx Ly Lz Press Pxx Pxxrad Pyy Pyyrad Pzz Pzzrad PotEng Temp 
       0         40.5         40.5         40.5    2496.1233    2446.9902    242.99145    2534.6541    242.99145    2506.7256    242.99145       -13440          300 
      50      40.5611      40.5611      40.5611    907.43706    837.10986    242.47611    946.43161    242.54237    938.76971    242.54673   -13338.819    103.27149 
     100    40.636867    40.636867    40.636867   -4611.4186   -4606.0751    238.56239   -4633.2987    238.52954   -4594.8821    238.55066   -13373.529    171.80729 
     150    40.566371    40.566371    40.566371    544.64066    509.57779    241.68855    622.24374     241.6424    502.10046    241.71357   -13348.908    124.16109 
     200    40.511722    40.511722    40.511722    3547.2897    3643.2596    244.08403    3485.9867    244.13122    3512.6228     244.1103   -13355.216     137.9072 
     250    40.565785    40.565785    40.565785    166.93066    90.523527    241.66471    218.10474    241.60497    192.16371    241.61789   -13359.502    146.72328 
     300    40.611235    40.611235    40.611235   -2466.5664   -2412.8394    239.78229   -2483.9007    239.76233   -2502.9592    239.81169   -13360.111    149.21075 
     350    40.571353    40.571353    40.571353   -408.34084   -482.42607    241.31957   -346.38838    241.34668   -396.20806    241.30277   -13367.339    163.76556 
     400    40.532306    40.532306    40.532306    2225.5431    2279.8069    243.10063    2296.6157    243.14903    2100.2067    243.17957   -13359.854    150.41108 
     450    40.566044    40.566044    40.566044    2.0377845   -40.092854    241.60573   -31.888362    241.59482     78.09457    241.60405    -13363.08    157.36643 
     500    40.595966    40.595966    40.595966   -1611.3461   -1655.3283    240.39785   -1479.2164    240.42352   -1699.4934    240.38081   -13359.404    151.32857 
     550    40.570848    40.570848    40.570848   -161.85418   -150.03728    241.43032   -167.20465    241.42409   -168.32062    241.39831   -13360.736    154.75593 
     600    40.545092    40.545092    40.545092    1385.8336    1414.2998    242.53435    1433.0694    242.56272    1310.1316    242.48631   -13361.915    158.16074 
     650    40.566235    40.566235    40.566235    212.56633    184.02753    241.72674    245.48283    241.75429    208.18862    241.80035   -13358.104    151.74194 
     700    40.589999    40.589999    40.589999   -1217.4105   -1343.5854    240.66789   -1126.2179     240.6136   -1182.4283     240.6821   -13360.206    156.93263 
     750    40.572933    40.572933    40.572933   -250.38158   -286.45411    241.32678   -263.19279     241.3863   -201.49783    241.33541   -13360.538    158.57849 
     800    40.551356    40.551356    40.551356    1208.6566    1078.2928    242.38404    1322.2307    242.42655    1225.4462    242.39425   -13357.161    153.20685 
     850    40.567647    40.567647    40.567647     35.88215    27.354765    241.53988    95.437303    241.52417   -15.145617    241.54213   -13362.171    163.91834 
     900    40.586566    40.586566    40.586566   -905.95525   -936.83022    240.82407   -840.20578    240.79263   -940.82976    240.78775   -13360.501    161.82509 
     950    40.575685    40.575685    40.575685   -242.27646    -258.0676    241.34878   -191.53537    241.35967    -277.2264    241.37828   -13355.043     152.3172 
    1000    40.557624    40.557624    40.557624    865.78368    854.28577    241.98746     838.0004    241.96415    905.06486    242.02901   -13361.124    165.23426 
    1050    40.567354    40.567354    40.567354    296.20892     232.8234    241.76546     412.4804     241.8011    243.32297    241.77705   -13352.949    150.47937 
    1100    40.584443    40.584443    40.584443   -762.38408   -853.89575    240.88283   -674.30507    240.87421   -758.95143    240.83118   -13360.466    166.16585 
    1150    40.575983    40.575983    40.575983    -142.2806   -201.77341    241.38515   -30.014093    241.29657    -195.0543    241.28312    -13353.75    154.27323 
    1200    40.562401    40.562401    40.562401    595.06575    539.95132    241.91042    625.63845    241.82949    619.60749    241.83717    -13359.83    167.17798 
    1250    40.569413    40.569413    40.569413    166.79261    92.903564    241.64596    250.18713    241.65127    157.28713    241.65743   -13356.017    160.90148 
    1300    40.581899    40.581899    40.581899   -560.61752   -582.11355    240.98582   -449.93781    241.08991   -649.80119     241.0933   -13357.596    165.08945 
    1350    40.575948    40.575948    40.575948    -187.6128   -340.24911     241.2999   -119.43237    241.30944   -103.15693    241.31431   -13356.829    164.72703 
    1400    40.566127    40.566127    40.566127    565.86425    499.12344    241.80538    641.64272    241.76837    556.82658    241.83421   -13354.386    161.14085 
    1450    40.572988    40.572988    40.572988    -8.561472    -54.13345    241.44081   -9.1404528    241.43846    37.589487    241.39424   -13356.765    166.86433 
    1500    40.579794    40.579794    40.579794   -267.41446   -332.77441    241.21729   -176.15609    241.18437   -293.31287    241.20061   -13353.672    162.03422 
    1550    40.576834    40.576834    40.576834   -220.87916   -335.60203     241.2534   -207.98546    241.28735   -119.05001    241.24395    -13357.33    170.23169 
    1600     40.56902     40.56902     40.56902    377.81634    358.40758    241.71827    458.79305    241.70084    316.24838    241.70886   -13352.705    162.42694 
    1650    40.573333    40.573333    40.573333    121.60248    65.830518     241.4278    161.88969    241.45281    137.08722    241.46682     -13355.4    168.76756 
    1700    40.580701    40.580701    40.580701   -351.25931   -404.48696    241.21216   -356.71365    241.17973   -292.57732    241.23449   -13352.169    163.67705 
    1750    40.576849    40.576849    40.576849   -32.167301   -50.678233    241.29335   -63.920617    241.27623    18.096946     241.2925   -13355.552    171.33506 
    1800    40.570697    40.570697    40.570697    303.86959    205.87186    241.65324    337.67696    241.60504    368.05996    241.65788   -13351.254    164.18628 
    1850    40.573832    40.573832    40.573832    241.25661    160.65476    241.43961    291.81867    241.49612    271.29639    241.45259   -13351.989    166.73526 
    1900    40.582525    40.582525    40.582525   -408.49907   -517.11515    241.05566    -372.3218    241.00338   -336.06028    241.03009    -13355.88     175.4205 
    1950    40.579035    40.579035    40.579035   -121.18037    -78.31077    241.34976   -80.564036    241.37961    -204.6663    241.32756   -13350.032    165.23107 
    2000     40.57151     40.57151     40.57151    262.28188    197.36064    241.55172    289.69509     241.5069     299.7899    241.48445   -13356.433    178.77171 
    2050     40.57415     40.57415     40.57415    291.00696    438.91963    241.47229    282.96388    241.53585    151.13737    241.55249   -13349.034    165.59547 
    2100    40.583714    40.583714    40.583714   -349.64824   -571.69905    241.08684   -278.61218    241.11798   -198.63349    241.00508    -13352.82     174.0797 
    2150    40.580896    40.580896    40.580896   -115.46102   -185.78203    241.30158   -83.935203    241.26556   -76.665824    241.33405   -13348.342    166.55152 
    2200    40.573232    40.573232    40.573232    266.96923    327.53375    241.50108    145.53519    241.45879    327.83874    241.45018   -13352.358    175.46306 
    2250    40.574827    40.574827    40.574827    151.21048    253.25725     241.4639    168.12758    241.41873    32.246605    241.49135   -13351.993    175.91954 
    2300    40.582519    40.582519    40.582519   -229.92012   -262.55007    241.20148   -227.80284    241.14505   -199.40745    241.10065   -13351.098    175.32277 
    2350    40.582472    40.582472    40.582472   -261.47493   -230.22332    241.10118   -223.18601     241.0605   -331.01546    241.13937   -13351.015     176.3209 
    2400    40.575117    40.575117    40.575117    304.99838    318.71288    241.46474    230.82389    241.55805    365.45835    241.53969    -13348.88    173.33846 
    2450    40.576041    40.576041    40.576041    115.98281   -49.519186    241.46158    231.81908    241.46017    165.64854    241.42293   -13349.774    176.22576 
    2500    40.581993    40.581993    40.581993    -86.32248   -223.14465    241.20744   -50.962736    241.17241    15.139951    241.24865   -13348.601    175.08643 
    2550    40.583873    40.583873    40.583873   -280.78867    -329.5054    241.06475   -351.60669    241.03615   -161.25393    241.12036   -13350.803    180.51146 
    2600    40.577203    40.577203    40.577203    317.49535    231.68198    241.51275    393.67729    241.41137    327.12677    241.45382    -13345.69    171.77884 
    2650    40.578933    40.578933    40.578933    13.030925    144.96731    241.35456   -44.713472    241.36614   -61.161069     241.3459   -13350.912    183.01571 
    2700    40.583518    40.583518    40.583518   -174.83865   -293.93299    241.21112   -111.84152     241.1566   -118.74145    241.18861   -13346.798    176.21518 
    2750    40.582481    40.582481    40.582481   -39.748764   -65.184794    241.19908    -87.13603    241.15972    33.074533    241.21907   -13348.669    180.97912 
    2800    40.578705    40.578705    40.578705    108.86451   -19.945463    241.38247    191.66526    241.38072    154.87373     241.4266   -13346.376    177.70923 
    2850    40.579322    40.579322    40.579322    124.53218    81.912131    241.34476    124.60452    241.32485     167.0799    241.38208   -13349.584    185.05983 
    2900    40.584645    40.584645    40.584645   -69.825092    -152.5521    241.15922   -33.708358    241.13584   -23.214815    241.16612   -13345.868     179.0187 
    2950    40.585359    40.585359    40.585359   -182.56258   -154.04171    241.04969   -313.08375     241.0675   -80.562296    241.14595   -13345.484    179.44392 
    3000    40.580393    40.580393    40.580393    103.06038     17.74205    241.33156    199.86076    241.27591    91.578338    241.36847   -13349.988    189.30398 
    3050    40.580507    40.580507    40.580507    62.168107    44.094515    241.37447    20.509683     241.3809    121.90012    241.32382   -13345.218    181.21565 
    3100    40.584708    40.584708    40.584708   -107.42179   -223.08689    241.18736   -59.455111    241.20917   -39.723375    241.19868   -13347.434     186.6605 
    3150    40.585857    40.585857    40.585857   -139.90607   -193.02274    241.11357   -102.84206    241.13828    -123.8534    241.10731   -13344.327    181.78994 
    3200    40.582817    40.582817    40.582817    56.136466   -25.815173    241.19803    83.857537    241.21684    110.36703    241.22244   -13346.758    187.66531 
    3250    40.582883    40.582883    40.582883    202.40337    154.08445    241.29085    136.98617    241.24513    316.13948    241.31341   -13343.925    183.32635 
    3300    40.587578    40.587578    40.587578    -209.4339   -371.94849    241.04679   -87.698913    240.99187   -168.65429    241.01718   -13345.062    186.68197 
    3350    40.586577    40.586577    40.586577   -9.0566859   -69.573038    241.10946   -16.305688    241.09556    58.708669    241.10696    -13343.41    184.64018 
    3400    40.584833    40.584833    40.584833    -4.464904   -169.79656    241.16196    46.672382    241.15473    109.72947     241.1422   -13346.346    191.46455 
    3450    40.585451    40.585451    40.585451    9.8032381   -98.559471    241.13489    71.647379    241.18106    56.321806    241.09299   -13344.024    188.12534 
    3500    40.587697    40.587697    40.587697   -73.255431   -198.59139    241.06192   -60.277768    241.00131    39.102863    241.00451   -13344.644    190.47515 
    3550    40.586958    40.586958    40.586958    -56.96485   -70.538578    241.16797    6.9900731    241.08388   -107.34605    241.11162   -13342.497     187.4769 
    3600    40.585183    40.585183    40.585183    109.67337    96.750394    241.26127    58.529928    241.28854    173.73977    241.18019   -13342.391    188.41229 
    3650    40.586887    40.586887    40.586887   -3.9723187   -11.668849    241.14406   -45.333257    241.09902    45.085149    241.11564   -13342.044    188.88701 
    3700    40.588496    40.588496    40.588496   -27.142131   -83.336603    240.98797   -12.131481    241.04235    14.041689    241.01259   -13342.511    190.95338 
    3750    40.588371    40.588371    40.588371   -6.0911329    43.936973    240.98365   -56.088694    240.99993   -6.1216783    240.98817   -13342.317    191.72699 
    3800    40.587518    40.587518    40.587518    21.179747   -96.321442     241.1109    156.68462    241.12178    3.1760619    241.08412    -13342.31    192.86572 
    3850    40.588168    40.588168    40.588168    103.71552    51.378646    241.06811    75.437151    241.10634    184.33078     241.1317   -13339.435    188.43341 
    3900    40.590071    40.590071    40.590071   -61.991803    41.084916    241.02429   -163.63867    241.01971   -63.421652    240.98935   -13340.244    191.15887 
    3950     40.58905     40.58905     40.58905    26.629811   -116.89505     241.0521    111.68117    241.06407    85.103306     241.0759   -13340.459    192.71663 
    4000     40.58814     40.58814     40.58814    64.030856    18.996702    241.11916    37.882754    241.15657    135.21311    241.07924   -13340.476    193.89746 
    4050     40.58928     40.58928     40.58928    51.730888    26.058107    241.05389    48.279046    241.09512    80.855511    241.02835   -13339.217    192.61086 
    4100    40.591447    40.591447    40.591447    -69.41407   -80.629256    240.92586   -72.506139    240.95964   -55.106814    240.90513   -13342.948    200.98044 
    4150    40.591167    40.591167    40.591167     -59.3496   -170.66274    241.07174   -23.297654    241.04371    15.911595     240.9802    -13338.58    193.66416 
    4200    40.589402    40.589402    40.589402    126.45049    102.31182     241.1747    28.361074    241.12653    248.67858    241.09612   -13337.074    191.89142 
    4250    40.590375    40.590375    40.590375   -5.8786185    -95.14102    240.98898    71.464313    241.02751    6.0408519    241.00015   -13339.822    198.35283 
    4300    40.592312    40.592312    40.592312   -99.932489   -134.35608    240.90948   -92.003546    240.96707   -73.437843      240.917   -13339.728    199.31371 
    4350    40.591432    40.591432    40.591432    30.669897   -17.453823    240.98947    116.38325    240.98454   -6.9197307    240.99126   -13337.239    195.64072 
    4400    40.590868    40.590868    40.590868    6.1809803   -68.690877    240.96064    32.701826    240.97414    54.531992    240.98737   -13340.043     202.2069 
    4450    40.592123    40.592123    40.592123   -2.7294806    31.335042    240.96508   -35.521345    240.98717   -4.0021387     240.9696   -13337.875    199.15199 
    4500    40.593642    40.593642    40.593642   -65.462705    36.313648     240.9266   -97.154892    240.90513   -135.54687    240.89501    -13337.41     199.3838 
    4550    40.592338    40.592338    40.592338   -64.277171   -161.69941    240.93754   -86.840811    240.98625    55.708711    240.95881   -13338.207    202.07086 
    4600    40.590278    40.590278    40.590278     249.1077    320.61637    241.06999    284.38178    241.10396    142.32493    241.13556   -13335.472    197.91016 
    4650    40.594313    40.594313    40.594313   -36.483052   -43.388388    240.84465     7.304162    240.90194   -73.364929    240.84534   -13336.259    200.57068 
    4700    40.596271    40.596271    40.596271   -162.12355   -160.59482    240.76402   -175.19352    240.83311   -150.58232    240.81604   -13336.155    201.50807 
    4750    40.592916    40.592916    40.592916    73.064448    98.496599    240.97284    218.68878    241.00109   -97.992039    240.89912   -13336.665     203.6226 
    4800    40.592243    40.592243    40.592243    93.558524    177.60258    240.93141   -87.323114     241.0214    190.39611    240.93597   -13336.604    204.63746 
    4850    40.595451    40.595451    40.595451    4.2171739   -108.36622    240.84399    56.758562    240.85725    64.259175    240.89803   -13334.982    202.63372 
    4900     40.59738     40.59738     40.59738   -207.49532   -38.513481    240.74102   -236.77389    240.79997   -347.19859    240.81199   -13335.657    205.06988 
    4950    40.592949    40.592949    40.592949    160.16595    79.901741    240.97632    153.84852    240.98303    246.74758    241.06887   -13333.532    202.08895 
    5000    40.593071    40.593071    40.593071    183.41074     268.5787    240.98504     243.1868    240.96781    38.466717    240.99809   -13334.242    204.58527 
    5050    40.598517    40.598517    40.598517   -115.69735   -166.07939    240.66382     -169.547    240.82079   -11.465649    240.74299   -13334.019    205.27643 
    5100     40.59878     40.59878     40.59878   -111.70343    -8.370906     240.7623   -166.12906    240.75235   -160.61033    240.71264   -13332.452    203.37832 
    5150    40.594255    40.594255    40.594255    96.931121    101.97383     240.8978    87.628943    240.88732    101.19059    240.90738   -13334.964    209.35602 
    5200    40.594043    40.594043    40.594043    196.29774    273.67141    240.92162    221.69784    240.87215    93.523963    240.91843   -13335.021    210.58986 
    5250     40.59947     40.59947     40.59947   -89.380203   -116.97376     240.6735   -109.49403    240.78095    -41.67282    240.71267   -13330.257    202.50162 
    5300    40.599859    40.599859    40.599859   -145.25531   -136.63669    240.68723   -209.45351    240.69511   -89.675735    240.69482   -13332.957    208.84095 
    5350    40.595213    40.595213    40.595213    222.90062    257.82359    240.87063    316.73027      240.926    94.147998    240.89172   -13332.065    208.23568 
    5400    40.596174    40.596174    40.596174    152.99394    182.46696    240.84078    168.26953    240.89187    108.24535    240.86956   -13331.528    208.31029 
    5450    40.601169    40.601169    40.601169   -137.60144   -286.80303    240.69011   -30.046473    240.70678   -95.954809    240.68313   -13330.969    208.33875 
    5500    40.601195    40.601195    40.601195   -223.23281   -155.64611    240.61981   -294.77355    240.64388   -219.27877    240.63773   -13333.433    214.21786 
    5550    40.595615    40.595615    40.595615    182.19163    236.97313    240.86786    219.29512    240.86918    90.306631    240.84512   -13332.625    213.77091 
    5600     40.59647     40.59647     40.59647    157.71549    95.081188    240.83001    126.56426    240.90906    251.50101    240.90385    -13331.02    211.77575 
    5650    40.602086    40.602086    40.602086   -122.48126   -162.13077    240.68406   -127.35932    240.71399   -77.953682    240.72199   -13328.959    208.89658 
    5700    40.602031    40.602031    40.602031   -129.57349   -144.97713    240.58282    -92.19506    240.59326   -151.54828    240.65478   -13330.973    213.90323 
    5750    40.597351    40.597351    40.597351    249.95841     130.2933    240.82203    256.42866    240.84761    363.15327    240.85807   -13329.355    211.87752 
    5800    40.599001    40.599001    40.599001    81.368288    70.461749    240.77308    220.52608    240.74944   -46.882963    240.79558    -13329.51    213.28364 
    5850    40.603186    40.603186    40.603186   -204.96413   -200.81552    240.58756   -191.63639    240.67609   -222.44049     240.6085   -13330.974    217.21937 
    5900    40.602446    40.602446    40.602446   -126.97389   -248.41884    240.68609   -16.958909    240.69641   -115.54392    240.68805    -13329.54    215.52932 
    5950    40.598403    40.598403    40.598403     257.9828    272.70332    240.82952    348.64877     240.8291    152.59632    240.84683   -13327.614    212.91421 
    6000     40.60021     40.60021     40.60021    86.846298    101.33594    240.72397   -18.435667    240.82922    177.63862    240.77644   -13327.324    213.44455 
    6050     40.60381     40.60381     40.60381     -147.965   -193.76594    240.57682   -73.546053    240.56381   -176.58301    240.58469   -13330.172    220.05867 
    6100    40.602318    40.602318    40.602318    -26.95951    24.115571    240.68454    -126.5007    240.71439    21.506596    240.71984   -13327.624    216.21915 
    6150    40.600005    40.600005    40.600005    91.858136   -57.062472    240.72802     204.7372    240.74881    127.89968    240.74969   -13329.971    221.84627 
    6200    40.601871    40.601871    40.601871     18.81411    18.213485     240.7023    68.835547    240.73529   -30.606703    240.74659   -13326.581     216.3745 
    6250    40.604737    40.604737    40.604737   -124.00793   -72.865587    240.51723   -231.27249    240.57668   -67.885715    240.62223    -13327.32    218.88695 
    6300    40.603226    40.603226    40.603226    38.479186    -71.27144    240.62024     210.4996    240.60471   -23.790601    240.61041   -13327.339     220.0188 
    6350    40.602348    40.602348    40.602348    53.655171    168.57174    240.65502   -65.580559    240.68189    57.974335    240.65928   -13327.803    222.00053 
    6400    40.604389    40.604389    40.604389   -55.165601   -243.02272    240.63086    81.803234    240.67572   -4.2773159    240.62192    -13327.19    221.89227 
    6450    40.605242    40.605242    40.605242   -103.23012   -18.394609    240.56338   -201.09066    240.61706   -90.205083    240.68746   -13326.925    222.45568 
    6500    40.603815    40.603815    40.603815    39.068389   -146.98714    240.66966     -28.4868    240.62443    292.67911    240.70304   -13326.809    223.30103 
    6550     40.60387     40.60387     40.60387    22.403565    29.280286    240.67896    75.786435    240.66355   -37.856025    240.67984   -13324.708    220.30764 
    6600     40.60543     40.60543     40.60543    36.934272   -27.131059    240.57246    31.251669    240.64652     106.6822    240.54467   -13325.152    222.24729 
    6650    40.606492    40.606492    40.606492    27.935899   -38.026677    240.55412    291.58289    240.55796   -169.74852    240.57646   -13323.272    219.68455 
    6700    40.605902    40.605902    40.605902   -2.8302171   -32.479587    240.52705   -15.290284    240.53491    39.279221    240.55377   -13325.483    225.03079 
    6750    40.605041    40.605041    40.605041    116.28823    11.166754    240.59902    118.66357    240.64294    219.03438    240.66249     -13324.7    224.58162 
    6800    40.606317    40.606317    40.606317   -94.135085   -116.06994    240.53245   -53.083775     240.6318   -113.25154    240.63433   -13324.612    225.46738 
    6850    40.606909    40.606909    40.606909   -131.72414   -177.87527    240.49481   -112.67255    240.58963   -104.62461    240.54547   -13327.361    231.83937 
    6900    40.606457    40.606457    40.606457    38.770044   -42.543621    240.57988    139.77117    240.58668    19.082584    240.53268    -13323.81    226.02987 
    6950    40.607088    40.607088    40.607088    -35.87355   -57.864929    240.47306   -99.363756    240.50878    49.608035    240.47969   -13325.976    231.28561 
    7000    40.607798    40.607798    40.607798   -21.517973   -27.074967    240.59048    68.888779    240.60986   -106.36773    240.56198   -13321.758    224.17335 
    7050    40.608361    40.608361    40.608361   -85.333283   -62.294957    240.48406   -78.471956    240.53919   -115.23294    240.48274   -13324.227    229.99186 
    7100    40.607551    40.607551    40.607551  -0.32340728   -15.680349    240.46697    51.728357    240.54508    -37.01823    240.53553   -13323.223    229.10019 
    7150     40.60782     40.60782     40.60782    20.921777    45.317835    240.48588   -55.509065    240.51898    72.956561    240.53138   -13323.207    230.11782 
    7200    40.609482    40.609482    40.609482   -77.821672   -101.91746     240.3897    4.9611119    240.44323   -136.50867     240.5141   -13323.495    231.72021 
    7250    40.609913    40.609913    40.609913    50.433017   0.56460385    240.42368    75.008988    240.43712     75.72546    240.45442   -13321.183    228.29296 
    7300     40.60956     40.60956     40.60956    -69.90714   -13.571925    240.43696   -179.09254    240.53213   -17.056953    240.48458   -13321.826    230.56804 
    7350    40.608273    40.608273    40.608273    147.86894    124.22491    240.56199    181.66507    240.63332    137.71684    240.54257   -13319.822    227.72576 
    7400     40.61072     40.61072     40.61072   -38.902497   -22.541514    240.46077   -63.916036    240.46161   -30.249939    240.44336   -13321.343    231.69891 
    7450      40.6122      40.6122      40.6122   -125.41163   -226.57028    240.26593    -33.61997    240.30311   -116.04465    240.29632   -13322.895    235.72868 
    7500    40.610108    40.610108    40.610108   0.23229987   -85.457416    240.41782    5.8911509    240.45044    80.263165    240.42296   -13321.055    233.20319 
    7550    40.608593    40.608593    40.608593    216.78304    152.03962     240.5595    265.65517    240.56331    232.65434    240.58088   -13319.725    231.64868 
    7600    40.612333    40.612333    40.612333   -46.447022   -71.347699    240.33236    11.081953    240.35208    -79.07532    240.33546    -13319.66    232.54909 
    7650    40.614101    40.614101    40.614101    8.5688691   -63.097679      240.268    126.74828    240.34832   -37.943999    240.34912   -13317.293     228.9811 
    7700    40.612387    40.612387    40.612387   -98.768505   -57.973541    240.28269   -144.42907    240.40828   -93.902904    240.37193   -13319.588    234.44054 
    7750    40.607968    40.607968    40.607968    199.50031    202.77634    240.55717    254.41477     240.5843    141.30983    240.48713   -13320.441    237.10839 
    7800    40.611213    40.611213    40.611213    10.113906    81.539417    240.35607    -64.43268    240.49502     13.23498    240.44414   -13320.135    237.51591 
    7850    40.615802    40.615802    40.615802    -190.8177   -123.93483    240.21718   -155.49397    240.33039   -293.02431    240.27646   -13316.958    232.37563 
    7900    40.614071    40.614071    40.614071   -62.814506    -179.3342      240.247   -47.023971    240.34488    37.914647    240.34258   -13319.654    238.59408 
    7950    40.610522    40.610522    40.610522     61.91862    100.38714    240.49491    136.28653    240.49901   -50.917809     240.4548   -13320.447    241.13365 
    8000    40.612416    40.612416    40.612416    54.480615    36.677358    240.47124    96.889371    240.46956    29.875117    240.41651   -13318.108    237.59574 
    8050    40.616739    40.616739    40.616739   -201.42892   -220.49972    240.17638   -266.56184    240.23587   -117.22521    240.23147   -13317.484     237.3978 
    8100    40.613917    40.613917    40.613917   -29.516087   -62.473189    240.32631    8.6103831    240.35225   -34.685456    240.28271   -13318.824    240.98117 
    8150    40.611079    40.611079    40.611079    233.41268     250.2191    240.47088    199.26147    240.52197    250.75748    240.47866   -13316.499    237.46563 
    8200    40.615557    40.615557    40.615557   -73.482497   -143.76325    240.21688    121.83238    240.26679   -198.51662    240.22524   -13318.206    241.75524 
    8250    40.618041    40.618041    40.618041   -99.554299    28.475224    240.23756   -164.46411    240.28516   -162.67401    240.19096    -13314.28    235.13872 
    8300    40.614975    40.614975    40.614975    28.031927   -144.03934    240.29228    205.83186    240.34705    22.303256    240.30502   -13316.211    239.85171 
    8350    40.611951    40.611951    40.611951    171.74974    263.70158    240.41139    140.68604    240.43739    110.86162    240.49946   -13316.616    241.61323 
    8400    40.614453    40.614453    40.614453    143.17086  -0.11537715    240.36478    138.95256    240.42048     290.6754    240.35217   -13313.361    236.28983 
    8450    40.618979    40.618979    40.618979   -283.99859   -222.64095    240.12939   -181.34927    240.18847   -448.00554    240.20243   -13317.732     245.7156 
    8500    40.615661    40.615661    40.615661   -29.771671   -69.689884    240.29438    -99.93417    240.31314    80.309039    240.28855    -13315.56    242.47643 
    8550     40.61192     40.61192     40.61192    275.83701    274.34212    240.44461    321.67168    240.47995    231.49724    240.43308   -13315.123     242.6027 
    8600    40.616597    40.616597    40.616597   -150.21221    -307.5939    240.25509    22.330695    240.27957   -165.37342    240.19779   -13317.089    247.35868 
    8650     40.61938     40.61938     40.61938   -70.949903   -188.44591    240.13807   -23.889919    240.18613  -0.51388247     240.1602   -13313.832    242.01927 
    8700    40.618511    40.618511    40.618511   -118.97868   -41.616921    240.19578   -90.616415    240.23168   -224.70272    240.19254   -13314.804    244.84642 
    8750    40.615356    40.615356    40.615356    184.70792    24.093517    240.32447    267.47839    240.36164    262.55184    240.30433   -13312.664    241.65958 
    8800     40.61578     40.61578     40.61578    49.124551    51.019324    240.32874    85.170428    240.40841    11.183902    240.35592   -13313.827    244.86054 
    8850    40.617841    40.617841    40.617841   -30.004023   -14.969104    240.24267    14.218623    240.23998   -89.261589    240.22871    -13314.23    246.57563 
    8900    40.618905    40.618905    40.618905   -196.67237   -69.287145    240.18395   -267.14581    240.19228   -253.58416    240.14355   -13315.482    249.94202 
    8950    40.616633    40.616633    40.616633    113.56155     17.70615    240.33431    205.62112    240.28244    117.35737    240.28738   -13312.174    244.47327 
    9000    40.617981    40.617981    40.617981   -5.3782871   -96.290796    240.21122    102.10605    240.25777   -21.950111    240.18051   -13315.903    252.62496 
    9050    40.620148    40.620148    40.620148   -48.644761    26.770246    240.11571   -95.187336    240.16798   -77.517195    240.22677   -13311.498    245.02404 
    9100    40.620057    40.620057    40.620057   -49.592958   -174.28861    240.13576   -33.121107    240.12366    58.630846    240.14337   -13312.283    247.47347 
    9150     40.61758     40.61758     40.61758    150.26405    225.47259    240.24601    101.73932    240.28958    123.58025    240.29451   -13310.095    244.16108 
    9200     40.61774     40.61774     40.61774    72.268147    41.329583    240.25396    38.217779    240.22447    137.25708    240.26594   -13311.689    248.16871 
    9250    40.619622    40.619622    40.619622   -84.083887   -149.79255    240.13585    -69.87264    240.15307   -32.586469    240.15055   -13311.349    248.42467 
    9300    40.619538    40.619538    40.619538    119.50181    125.80622    240.15609     23.83651    240.19784    208.86271     240.2009   -13311.853    250.31265 
    9350    40.620623    40.620623    40.620623   -23.026387   -212.93313    240.13834    47.062092    240.20286    96.791877    240.15724   -13310.946    249.45277 
    9400    40.621651    40.621651    40.621651   -110.30374    55.349363    240.13266   -308.53971    240.11284   -77.720873      240.123    -13310.94    250.34293 
    9450    40.620796    40.620796    40.620796    119.80518    22.147835     240.1907    168.09362    240.25546    169.17409    240.19253   -13308.678    246.86507 
    9500    40.621436    40.621436    40.621436   -77.654363   -94.095478     240.0984   -169.62014     240.0992    30.752526    240.11344   -13312.361    254.89143 
    9550    40.620956    40.620956    40.620956    80.176844   -81.439503    240.12666    171.10941     240.1462    150.86063    240.15557   -13310.642     252.4677 
    9600    40.623082    40.623082    40.623082   -100.37971   -50.707541    240.04134   -83.798674    240.07482   -166.63292     240.0736   -13311.014    254.06807 
    9650     40.62368     40.62368     40.62368   -96.708169   -111.18675    240.06339   -146.71085    240.06483   -32.226906    239.99613   -13309.976    252.94982 
    9700    40.621786    40.621786    40.621786    25.766695   -101.68196    240.08209    193.85198    240.09118   -14.869939    240.13149   -13311.217    256.23031 
    9750    40.621617    40.621617    40.621617    63.783347    45.223363    240.14904    18.202269     240.2375    127.92441    240.10587   -13309.015    252.84887 
    9800    40.623567    40.623567    40.623567    30.108544   -256.64207    240.11182    218.38384     240.0495    128.58387    240.02676   -13308.817     253.3361 
    9850    40.625018    40.625018    40.625018   -209.09391   -204.87145    239.95866   -333.00963    240.02475   -89.400642    239.92917    -13310.94    258.31262 
    9900    40.622237    40.622237    40.622237    148.31384    127.49748    240.14177    211.31408    240.15948    106.12996    240.19895   -13307.278    252.08567 
    9950    40.623383    40.623383    40.623383     1.582774    69.834119    240.04034   -163.62004    240.02663    98.534248     239.9992   -13310.401     258.9926 
   10000     40.62607     40.62607     40.62607   -49.067764   -32.888182    239.95237    31.781308    239.95557   -146.09642    239.99729   -13306.221    251.76572 
   10050    40.625601    40.625601    40.625601   -111.26613   -260.75667    239.94026   -93.751589    240.00229    20.709871    239.95381   -13309.037    258.07207 
   10100     40.62165     40.62165     40.62165    194.77386    28.814092    240.17291    505.48434    240.17949    50.023147     240.1039   -13308.396    257.68142 
   10150    40.623957    40.623957    40.623957    148.65111    67.804204    240.07377    36.673761    240.12743    341.47535    240.08144   -13305.783    253.47093 
   10200    40.629076    40.629076    40.629076   -266.31898   -507.92354     239.8387   -161.58297    239.81756   -129.45043    239.81213     -13308.7    259.95316 
   10250    40.626239    40.626239    40.626239    139.51768    308.09578    240.00022    15.774635    239.96722    94.682613    240.05223    -13303.86    251.42496 
   10300    40.624167    40.624167    40.624167     -32.4434   -82.799664    240.09049   -62.479318    240.05503    47.948784    239.99149   -13309.107    262.41275 
   10350    40.623612    40.623612    40.623612     175.4361    204.33298    240.12471      258.726    240.12724     63.24931    240.04542   -13305.282     255.8423 
   10400    40.627102    40.627102    40.627102   -209.12009   -222.42107    239.89124   -245.20351    239.96496   -159.73569    239.86085   -13309.194    264.24465 
   10450    40.626953    40.626953    40.626953   -37.296466   -132.87675     239.9067     82.48944    239.92361   -61.502083    239.98536   -13306.088    259.05202 
   10500    40.625844    40.625844    40.625844     3.606221    -58.26973    239.97641   -86.758565    240.03606    155.84696    240.00469   -13306.912    261.45961 
   10550    40.625595    40.625595    40.625595    111.78184    112.94411    240.05088    309.47861    240.08557   -87.077194    240.01853    -13304.68    257.95671 
   10600    40.628278    40.628278    40.628278   -8.4171661     70.80722    239.95246   -24.293744     239.9133   -71.764974    239.91121    -13304.87    259.13252 
   10650    40.629525    40.629525    40.629525    -76.00165    29.818683    239.82768    -84.45566    239.80591   -173.36797    239.82224   -13304.625    259.46901 
   10700    40.627011    40.627011    40.627011    47.009139   -16.427123    239.91458    162.61651    239.88376   -5.1619706    239.91389   -13306.004    262.94252 
   10750    40.625683    40.625683    40.625683    101.81504    128.92511    240.07627    169.09554    240.07345    7.4244807    240.07941   -13304.619    261.05812 
   10800    40.628883    40.628883    40.628883   -57.759356   -232.59692    239.90995   -42.288746    239.91136     101.6076    239.86601   -13305.472    263.48864 
   10850    40.630171    40.630171    40.630171   -214.60569     -342.753    239.81381   -101.34117    239.86662    -199.7229    239.74085   -13305.818    264.95585 
   10900    40.625775    40.625775    40.625775    151.63751    78.462207    240.06043    158.15176    240.04087    218.29857    240.00048   -13303.888    262.00642 
   10950    40.625825    40.625825    40.625825    156.99311    351.87784    240.01107    28.857647     240.0125    90.243849    240.00217   -13304.334    263.65212 
   11000    40.629465    40.629465    40.629465   -4.6147152   -257.73613    239.84334    122.77483    239.84474    121.11715     239.8669   -13303.002    261.85318 
   11050    40.631044    40.631044    40.631044   -216.10871   -397.60634    239.79399   -158.54736    239.80575   -92.172443    239.80327   -13305.477     267.4096 
   11100    40.628304    40.628304    40.628304   -8.2088922    -27.43093    239.90837   -7.8096948    239.91508    10.613949    239.88677   -13304.539    266.35772 
   11150    40.626833    40.626833    40.626833    47.524497   -24.750529    239.95161    171.35739    239.99195   -4.0333658    239.91459   -13304.416    266.89007 
   11200    40.628827    40.628827    40.628827    66.135866   -26.759252    239.89115    -54.27607    239.93025    279.44292    239.87553   -13302.796     264.5124 
   11250    40.631237    40.631237    40.631237   -205.72997   -313.74178    239.79742   -196.51809    239.79755   -106.93004    239.76474   -13303.694    267.01032 
   11300    40.627988    40.627988    40.627988    145.36804    303.85977    239.97094    46.112924    240.00081    86.131426    239.98118   -13301.625    263.75624 
   11350    40.627598    40.627598    40.627598    123.42655    49.406004    239.99629     151.7312    239.99532    169.14245    239.88491     -13302.5    266.19717 
   11400    40.631013    40.631013    40.631013   -77.358293   -166.48749    239.76739    -50.58186    239.85643   -15.005531    239.81734   -13302.024    266.01716 
   11450    40.632363    40.632363    40.632363   -19.472944    -90.11872    239.72697   -33.678407    239.81119    65.378293    239.72356    -13300.91    264.60553 
   11500    40.630696    40.630696    40.630696   -3.0508462   -160.00149    239.81404    48.513397    239.81766    102.33555    239.78637   -13301.475    266.43476 
   11550    40.628804    40.628804    40.628804    126.34517    150.27522    239.87854    126.02328    239.87748    102.73703    239.91707   -13302.117    268.41079 
   11600    40.630261    40.630261    40.630261    73.233627   -189.57979    239.90448    117.34552    239.85351    291.93515    239.81705   -13300.928    266.82904 
   11650    40.634013    40.634013    40.634013   -181.24677   -102.18677    239.61452   -93.849952    239.66247   -347.70358    239.67892   -13302.663    270.90194 
   11700    40.633111    40.633111    40.633111   -58.957529   -187.11382    239.74609   -111.76711    239.82427    122.00834    239.73665   -13300.459     267.3539 
   11750    40.630416    40.630416    40.630416    24.711564   -45.483729     239.8396    126.59345    239.86813   -6.9750275    239.80833   -13302.282    271.58763 
   11800     40.63046     40.63046     40.63046    26.762155   -93.700409    239.78543     19.32279    239.83611    154.66408    239.78647   -13302.153    272.05155 
   11850    40.633042    40.633042    40.633042   -87.038853   -104.27361    239.72979    -134.4311    239.76953   -22.411855    239.76458   -13300.574    269.69782 
   11900    40.633192    40.633192    40.633192   -79.570443    23.165684    239.67747   -28.753296    239.76405   -233.12372    239.75566   -13299.843    268.98867 
   11950    40.631173    40.631173    40.631173    118.26227     10.00073    239.86543    122.41582    239.77526    222.37025    239.77387   -13301.134    272.18158 
   12000    40.632786    40.632786    40.632786   -78.056303    59.459661    239.75375   -129.93546    239.76367   -163.69311    239.70893   -13301.306    273.20595 
   12050    40.633253    40.633253    40.633253   -112.85073   -227.21485    239.68226   -134.45662    239.71172    23.119281    239.72332   -13301.911    275.06268 
   12100    40.631762    40.631762    40.631762    74.823908    125.98572    239.81454   -51.757588    239.83203     150.2436    239.78052   -13300.219    272.47072 
   12150    40.632564    40.632564    40.632564    51.699905    67.557455    239.74525    36.367176    239.75819    51.175083    239.75077   -13299.354    271.46837 
   12200    40.635215    40.635215    40.635215   -52.400902   -178.48675    239.65458   -65.642467    239.66242    86.926515    239.67968   -13298.614    270.70756 
   12250    40.635432    40.635432    40.635432   -130.77979   -126.65134    239.62578   -32.035334    239.66404   -233.65269    239.60534   -13301.017    276.02303 
   12300    40.632938    40.632938    40.632938    135.49607    51.613656    239.77954    68.905016     239.7777    285.96953     239.7686   -13298.193     271.2239 
   12350      40.6338      40.6338      40.6338    110.79204   -4.0624609     239.7007    156.24311     239.6883    180.19546      239.716   -13298.862    273.17917 
   12400    40.636491    40.636491    40.636491   -84.226133   -156.34843    239.60688   -53.223318    239.57941   -43.106656    239.59987   -13298.516    273.16508 
   12450     40.63608     40.63608     40.63608   -105.43112   -113.94969    239.67128    31.671273    239.69302   -234.01495    239.61499   -13299.057    274.85802 
   12500     40.63349     40.63349     40.63349    73.301941   -126.24504    239.68928     99.61075    239.78444    246.54011    239.68191   -13299.132    275.65091 
   12550    40.634765    40.634765    40.634765    108.36807    158.23465    239.69547    4.7940989    239.70877    162.07545    239.70191   -13297.624     273.3763 
   12600    40.638009    40.638009    40.638009   -209.13169   -344.18259    239.56319   -95.649934    239.60402   -187.56254    239.58657   -13298.598     275.8979 
   12650    40.635318    40.635318    40.635318    42.289504    47.830192     239.6906   -45.030418    239.65613    124.06874    239.71773   -13299.196    277.68473 
   12700    40.634776    40.634776    40.634776    50.474438   -38.278257    239.70631    52.429299    239.71929    137.27227    239.68135    -13298.83    277.60061 
   12750    40.637413    40.637413    40.637413   -54.674044    116.52329    239.63888   -89.556189    239.56879   -190.98924    239.55749   -13297.222    275.11887 
   12800    40.637637    40.637637    40.637637    17.392318    -212.4068    239.70876    113.15086    239.63056     151.4329    239.55801   -13296.433    274.21775 
   12850    40.636444    40.636444    40.636444   -3.2089293    27.118558    239.72222   -64.830864    239.71736    28.085518    239.68821   -13296.615    275.18459 
   12900    40.635496    40.635496    40.635496    112.85919   -16.130395    239.66646    171.77843    239.67376    182.92953    239.69336   -13296.632    275.83382 
   12950     40.63761     40.63761     40.63761    70.575063    60.800672    239.58099    54.946595    239.54936    95.977923    239.64549   -13296.897    276.95357 
   13000    40.639634    40.639634    40.639634   -170.17992   -259.99103    239.46676   -351.17303    239.47519    100.62431     239.4866   -13298.108    279.90085 
   13050    40.637291    40.637291    40.637291   -3.4885987   -69.042692    239.63727    144.65744    239.59043   -86.080541    239.62335    -13297.37    279.07051 
   13100    40.635236    40.635236    40.635236    285.64911    315.25233    239.80795    260.62272    239.79489    281.07229    239.69726   -13293.252    271.69647 
   13150    40.639057    40.639057    40.639057   -181.74363   -167.99126    239.52993   -151.01727    239.57562   -226.22236    239.48452   -13298.159     281.7789 
   13200     40.63981     40.63981     40.63981    56.183701   -181.40784    239.53475    247.79395    239.55895      102.165    239.49556   -13294.232    274.76961 
   13250    40.638489    40.638489    40.638489   -86.426982   -235.51017    239.56466   -189.17544    239.59435    165.40466    239.63778   -13297.241    281.17201 
   13300    40.635856    40.635856    40.635856    92.943918    58.114107    239.69585    243.30267    239.69984    -22.58502    239.71864   -13296.341    280.00382 
   13350    40.637821    40.637821    40.637821   -11.807637   -71.060899    239.64006   -55.137929    239.60008    90.775916    239.56673   -13297.248    282.32932 
   13400    40.640089    40.640089    40.640089   -244.51189   -222.86359    239.57565   -325.95106    239.48364     -184.721     239.5205   -13296.377    281.21349 
   13450    40.637708    40.637708    40.637708    224.67057    299.08332    239.67964    228.42859    239.61897     146.4998    239.59033   -13293.736    276.66879 
   13500    40.638508    40.638508    40.638508   -35.183139   -224.25489    239.62266   -23.668273    239.56015    142.37375    239.50781    -13294.82     279.3269 
   13550    40.638004    40.638004    40.638004   -29.545736   -110.31045    239.59959    48.517033     239.5915   -26.843796    239.56428   -13296.986    284.07303 
   13600    40.637313    40.637313    40.637313    2.9985382    -20.30025    239.60621   -156.28401    239.71668    185.57988    239.58518   -13296.215    283.12797 
   13650    40.638396    40.638396    40.638396   -14.068008   -114.53994    239.59846    18.101605    239.63011    54.234306    239.63343   -13294.578    280.50422 
   13700     40.63977     40.63977     40.63977   -24.028045   -31.566892    239.56661   -88.182613    239.59329     47.66537    239.61112   -13294.035    279.99381 
   13750     40.63924     40.63924     40.63924    52.050265    -17.10691    239.56677   -89.977532    239.62689    263.23524    239.57436   -13293.941    280.34795 
   13800    40.638391    40.638391    40.638391    110.32958    153.57904    239.62645  -0.92167679    239.61318    178.33139    239.66253   -13292.726    278.53424 
   13850    40.638572    40.638572    40.638572     76.64713   -45.554201     239.6161    116.22915    239.58607    159.26645    239.61889   -13294.325    282.15374 
   13900    40.640473    40.640473    40.640473     9.791836   -57.548615    239.50396    19.475116    239.51167    67.449007     239.4943   -13293.875     281.8037 
   13950    40.642547    40.642547    40.642547   -155.24301   -131.91731    239.41649   -131.80256     239.4676   -202.00915     239.4328   -13295.158    284.80494 
   14000     40.64039     40.64039     40.64039   -35.655012   -332.61646    239.57508     52.87647    239.56687    172.77495    239.56363   -13293.769    282.62806 
   14050    40.638549    40.638549    40.638549    49.507167    87.248983    239.60881    4.9390984    239.56587    56.333419    239.61954   -13295.744    286.96311 
   14100    40.639947    40.639947    40.639947      2.72087    13.003139    239.60091   -31.598315    239.54476    26.757785    239.53222   -13294.216    284.51509 
   14150    40.641101    40.641101    40.641101    30.233658   -3.9348283    239.50612    187.21131    239.48758   -92.575504    239.43575   -13291.686    280.12516 
   14200    40.641083    40.641083    40.641083   -50.158484   -149.02153    239.51619   -41.156181    239.50116    39.702255    239.49557   -13294.162    285.40899 
   14250    40.641189    40.641189    40.641189    22.345014    12.646576    239.50326   -142.41608     239.5347    196.80455    239.55484   -13294.206    285.98202 
   14300    40.641404    40.641404    40.641404    104.07924    43.143855    239.51246    68.220708    239.60818    200.87317    239.54009   -13290.024    278.38251 
   14350    40.641892    40.641892    40.641892    -1.845087   -72.708735    239.53566   -198.09654    239.45894    265.27002    239.50776   -13293.086    284.79306 
   14400    40.641417    40.641417    40.641417   -36.180675   -153.97295    239.53152   -44.451724    239.37627    89.882649    239.49302   -13295.188     289.3449 
   14450    40.640686    40.640686    40.640686    108.74009    143.41713     239.5986    101.92335    239.60999    80.879783     239.4599   -13291.498    282.67855 
   14500    40.643262    40.643262    40.643262   -14.583012    32.320591    239.46503   -48.607513    239.49127   -27.462113    239.45271   -13292.327    284.74998 
   14550    40.642986    40.642986    40.642986   -37.790055   -226.65181    239.46339     65.67136    239.47617     47.61028    239.44169   -13292.161    284.89494 
   14600    40.640718    40.640718    40.640718    64.243243    64.196799     239.6307   -6.1570565    239.58518    134.68999    239.57976   -13292.745    286.48662 
   14650    40.641474    40.641474    40.641474    18.583595    65.058129    239.56506   -126.14258     239.5691    116.83524     239.5267   -13292.072    285.64295 
   14700    40.643283    40.643283    40.643283   -80.770125     20.17634    239.52097   -145.49623    239.43433   -116.99048    239.45909   -13293.395    288.65391 
   14750      40.6432      40.6432      40.6432    18.825638    12.131751    239.50761   -5.8742923    239.44409    50.219456    239.44957    -13291.05    284.57408 
   14800    40.641828    40.641828    40.641828    59.688144     13.38137    239.45598   -6.9829497    239.54963    172.66601    239.49676   -13291.847    286.56654 
   14850    40.641895    40.641895    40.641895    66.260735    -31.36407    239.50038    59.560317    239.53598    170.58596    239.51677   -13291.946     287.1986 
   14900    40.644253    40.644253    40.644253    -137.8918   -28.810621    239.37048   -283.00416    239.40832   -101.86061    239.37332   -13293.074    289.82247 
   14950    40.643903    40.643903    40.643903   -25.902299   -149.35746    239.43582   -19.989706    239.36453     91.64027    239.43779   -13291.409    287.03537 
   15000    40.641649    40.641649    40.641649     121.2001    369.62337    239.49806   -105.35529    239.51741    99.332208    239.48516    -13291.13    286.92694 
   15050    40.640804    40.640804    40.640804    124.25808    130.95532    239.58368    266.91166    239.56758   -25.092751    239.59001   -13290.189    285.52842 
   15100    40.643721    40.643721    40.643721    68.421529    56.283599    239.45006    34.445267    239.48346    114.53572    239.41211    -13289.81    285.21211 
   15150    40.646227    40.646227    40.646227   -260.38134   -424.20211    239.29625   -211.45708    239.35161   -145.48484    239.31222   -13291.683    289.25668 
   15200    40.641762    40.641762    40.641762    130.30459    204.55067     239.5391    116.31639    239.55265    70.046715    239.58828   -13290.562    287.49797 
   15250    40.641099    40.641099    40.641099    98.566659     46.09651    239.53695    79.674937    239.55243    169.92853    239.51212   -13292.078    290.84329 
   15300    40.644544    40.644544    40.644544   -118.84699    75.931577    239.37152   -140.47862    239.41777   -291.99393    239.39862   -13292.477    292.02294 
   15350    40.645904    40.645904    40.645904   -177.19528   -169.86276    239.33662   -274.56886    239.37284   -87.154236    239.40202   -13291.589    290.70199 
   15400    40.643297    40.643297    40.643297    83.933268    152.76898    239.48445      41.9908    239.49345    57.040018    239.53601   -13289.785    287.61095 
   15450    40.643212    40.643212    40.643212   -47.128333    -3.393349    239.44623   -127.31612    239.43643   -10.675524    239.33698   -13293.994    296.15045 
   15500    40.644556    40.644556    40.644556   -10.913815    130.34848    239.42561   -50.513648    239.41304   -112.57628    239.47845   -13289.964    288.73837 
   15550    40.645592    40.645592    40.645592   -114.97909   -134.85099    239.41934   -47.571431    239.36275   -162.51484    239.39167   -13290.329    289.82883 
   15600    40.643746    40.643746    40.643746    55.880874    222.32778    239.41291   -81.345277    239.45072    26.660114    239.40276   -13290.832    291.18802 
   15650    40.643304    40.643304    40.643304    147.72957    187.86622    239.54648    99.284361    239.51134    156.03812    239.46104   -13288.079    286.24089 
   15700    40.645435    40.645435    40.645435   -95.613541    108.29415    239.37421   -140.73087     239.3494    -254.4039    239.33031   -13291.127    292.51058 
   15750    40.645221    40.645221    40.645221   -119.59063   -210.43333    239.32882     -83.1876    239.34523   -65.150955    239.46615    -13290.72    292.09127 
   15800     40.64282     40.64282     40.64282    128.44945    151.43527    239.41818   -10.250141    239.48922    244.16322    239.50461   -13290.004    291.06987 
   15850    40.643562    40.643562    40.643562    255.12946    184.87633    239.55422    204.18276    239.57394    376.32928    239.48479    -13286.28     284.2209 
   15900    40.648933    40.648933    40.648933   -203.49251    -85.01199    239.26811   -224.27456     239.2385   -301.19097    239.25715   -13289.703    291.20079 
   15950    40.647235    40.647235    40.647235   -177.93799   -277.47371    239.27512   -130.23204    239.23511   -126.10822    239.28022   -13291.204    294.46058 
   16000    40.641642    40.641642    40.641642    253.28201    245.03511    239.54849    116.57843    239.52455    398.23248    239.50879   -13290.572    293.59034 
   16050     40.64468     40.64468     40.64468    44.585677   -2.5265583    239.37483    193.21688    239.45076   -56.933291    239.44154   -13289.491    291.84188 
   16100    40.648092    40.648092    40.648092   -96.521565   -56.646929    239.29241   -213.35102    239.30434   -19.566745    239.30664   -13287.606    288.53645 
   16150    40.646183    40.646183    40.646183   -124.85479    -223.7641     239.3341    -140.8099    239.39298   -9.9903647     239.3058   -13291.657    296.70436 
   16200    40.643683    40.643683    40.643683    260.25256    311.88632    239.47125    121.74351    239.49267    347.12785    239.46386   -13286.817    287.67145 
   16250    40.647248    40.647248    40.647248   -64.881933    27.348632    239.32742   -187.98853    239.29036   -34.005901    239.27375   -13289.246    292.70305 
   16300    40.647707    40.647707    40.647707   -300.11993   -413.03993    239.24347   -163.64314    239.20984    -323.6767    239.24276   -13292.628    299.56755 
   16350    40.643982    40.643982    40.643982     184.8353    291.46572     239.4034    92.583257    239.47625    170.45693    239.38835   -13288.662    292.21654 
   16400    40.646359    40.646359    40.646359   -120.05301   -36.129501    239.29594   -117.08587    239.35805   -206.94367    239.31809   -13290.463    296.02097 
   16450    40.646194    40.646194    40.646194     131.3871    117.35014    239.25338    123.33839    239.39525    153.47277    239.32253   -13286.527    288.71751 
   16500    40.645997    40.645997    40.645997    19.115891    199.68744    239.35524   -44.688078    239.38988   -97.651693    239.27746   -13287.923    291.72469 
   16550    40.645018    40.645018    40.645018      139.161    245.82592    239.41218    67.598466     239.4611     104.0586    239.44294   -13286.999    290.23117 
   16600    40.646961    40.646961    40.646961   -47.628543   -26.188985    239.33796   -115.06211    239.32465   -1.6345282    239.32978   -13288.658    293.73898 
   16650    40.647639    40.647639    40.647639   -163.65753   -132.37627    239.27889   -199.92358    239.30998   -158.67272      239.296   -13289.088    294.86789 
   16700    40.644928    40.644928    40.644928    90.328838    3.7104478    239.39234    156.31857    239.35272     110.9575    239.37112   -13289.441    295.84883 
   16750    40.645008    40.645008    40.645008    66.487621    308.01568    239.45637   -9.2102034    239.43963   -99.342608    239.41356   -13287.397    292.18604 
   16800    40.646982    40.646982    40.646982   -28.647079    -1.732685      239.333   -113.97574    239.34182    29.767187    239.28475   -13288.147    293.92404 
   16850    40.647575    40.647575    40.647575   -113.98103   -112.42947    239.30757   -158.39772     239.2905   -71.115905    239.28839   -13289.385     296.6021 
   16900     40.64558     40.64558     40.64558    185.06392    171.88758    239.41372    257.47412    239.42603    125.83005     239.3873   -13286.361    291.02729 
   16950    40.646624    40.646624    40.646624   -8.3386466    105.91063    239.31258   -153.59331     239.3668    22.666735    239.33585   -13288.359    295.16891 
   17000    40.647892    40.647892    40.647892     -84.9798   -202.79434    239.25755   -84.437064    239.29782    32.292003    239.34808   -13288.971    296.61817 
   17050    40.647433    40.647433    40.647433   -41.121248    62.970544    239.33622    -258.0537    239.35115    71.719408    239.31532   -13287.587    294.20613 
   17100    40.646208    40.646208    40.646208    51.590538   -157.36983    239.42085    181.58593    239.36153    130.55551    239.36998   -13288.503    296.24409 
   17150     40.64691     40.64691     40.64691   -65.900093    88.764333    239.28805   -136.20971    239.38654    -150.2549      239.301   -13288.567    296.63092 
   17200    40.647071    40.647071    40.647071   -5.7301942    85.350031     239.3775   -56.817588    239.34987   -45.723026    239.30672   -13287.799    295.40475 
   17250    40.647511    40.647511    40.647511    -25.19417   -189.67004    239.27699    87.685232     239.3235    26.402299    239.33491   -13287.151     294.4074 
   17300    40.646197    40.646197    40.646197    51.128973   -28.626207     239.3681   -66.967949    239.45792    248.98108    239.40096   -13286.795    293.97096 
   17350    40.645704    40.645704    40.645704     25.76403    133.32117    239.35899   -41.976564    239.35468    -14.05252    239.43271   -13287.693    295.95127 
   17400    40.646821    40.646821    40.646821    88.993293   -51.853742    239.29769    109.37425    239.37767    209.45937    239.32283   -13287.471    295.76596 
   17450    40.649304    40.649304    40.649304    -91.48287    7.8513218     239.1935   -111.95574    239.28621   -170.34419    239.26338   -13287.294    295.65469 
   17500     40.64965     40.64965     40.64965   -125.92975   -340.24098    239.15571    26.244848    239.28539   -63.793135    239.23657   -13288.019    297.29323 
   17550    40.646417    40.646417    40.646417    4.3014998   -46.704835    239.33884   -108.84987    239.37052     168.4592     239.2959   -13288.223    297.92335 
   17600    40.644359    40.644359    40.644359    139.68143    106.22348    239.44548    162.31823    239.44025    150.50258    239.42198   -13287.957    297.64168 
   17650    40.647422    40.647422    40.647422    14.878034    216.79361    239.36716   -132.52787    239.38165   -39.631644    239.32985   -13285.756    293.60247 
   17700    40.650624    40.650624    40.650624   -138.79927   -55.326369    239.15806   -197.14582    239.22316   -163.92561    239.17467   -13288.721    299.56013 
   17750    40.649172    40.649172    40.649172   -36.150917    61.241998    239.25876    19.197546    239.31452    -188.8923    239.27797    -13286.87    296.19526 
   17800    40.646619    40.646619    40.646619    134.11957     266.8086    239.39975    61.829198    239.46683    73.720902    239.36076   -13285.681    294.11104 
   17850    40.648224    40.648224    40.648224   -10.097739   -112.46807    239.32376   -4.1572798     239.3079    86.332135    239.25374   -13287.112    297.09284 
   17900    40.649757    40.649757    40.649757   -213.19533    -135.9982    239.21721   -465.20502    239.18177   -38.382757    239.19766   -13288.333    299.66476 
   17950    40.646153    40.646153    40.646153     133.7404    157.47713    239.36876    242.56937    239.35902    1.1747135     239.3518   -13286.412    296.14748 
   18000    40.646559    40.646559    40.646559    169.63043    205.26381    239.37902    36.418296    239.35991    267.20919    239.30714   -13287.075    297.62351 
   18050    40.652159    40.652159    40.652159   -295.84138   -172.97238    239.08272   -283.00239    239.13109   -431.54937    239.11113    -13288.39     300.3592 
   18100    40.650501    40.650501    40.650501    -73.75406   -73.999733    239.24763    -130.0967    239.25049   -17.165743    239.22803   -13285.795    295.52623 
   18150    40.646245    40.646245    40.646245    96.166344    155.87866    239.42409   -60.233594    239.38533    192.85397    239.32451   -13287.652    299.30984 
   18200    40.646927    40.646927    40.646927    175.47057    206.98394    239.37241     341.3466    239.36953   -21.918825    239.32192   -13285.156    294.66771 
   18250    40.652093    40.652093    40.652093   -179.84718   -56.152416    239.10558   -468.95038     239.1151   -14.438737    239.15372   -13286.688    297.81787 
   18300     40.65108     40.65108     40.65108   -146.48119   -204.13115    239.17075   -120.05816    239.20249   -115.25425    239.19851   -13286.354    297.34563 
   18350    40.647339    40.647339    40.647339    152.34576    345.38026     239.3082    116.05076    239.43936   -4.3937254    239.29645   -13287.164    299.08915 
   18400    40.648314    40.648314    40.648314    39.840227    111.98087     239.2823    -97.70683     239.4085    105.24664    239.26376   -13284.387    293.89244 
   18450    40.649518    40.649518    40.649518   -43.171992   -2.8361551    239.18711     129.5971    239.28723   -256.27692    239.20645   -13286.612    298.36329 
   18500    40.648505    40.648505    40.648505    101.24795    218.24174    239.30547    15.561833    239.33202     69.94029    239.26594    -13284.19    293.83806 
   18550    40.648958    40.648958    40.648958   -52.247421   -4.6820598    239.25794   -196.79381    239.19781    44.733607    239.24355   -13288.345    302.03487 
   18600    40.649113    40.649113    40.649113   -56.733612   -3.5033343    239.26987   -90.042583    239.27477    -76.65492    239.24562   -13286.397    298.41916 
   18650    40.648364    40.648364    40.648364    68.655145    224.00438    239.31445   -188.23487    239.33954    170.19593    239.30111   -13286.073    297.94127 
   18700    40.650336    40.650336    40.650336   -80.376999   -141.46978    239.19327   -13.513316    239.24691     -86.1479    239.20384   -13285.705    297.38366 
   18750    40.650298    40.650298    40.650298   -128.58808   -83.145517    239.17364    -205.1903    239.21876   -97.428425    239.10347   -13287.988     301.9554 
   18800    40.646816    40.646816    40.646816    138.77851    312.50042    239.37164    83.938646    239.40343     19.89647    239.35831   -13284.734    295.80138 
   18850    40.648234    40.648234    40.648234    30.728254   -38.662071    239.32158   -7.3471006    239.33201    138.19393    239.29946   -13286.842    300.01921 
   18900    40.650992    40.650992    40.650992    -42.95928    148.55719    239.17136   -127.39375    239.17699   -150.04128    239.21091   -13285.424    297.41421 
   18950    40.650288    40.650288    40.650288   -100.85335    -181.3983    239.22616    62.860203    239.20832   -184.02196    239.18563   -13286.265    299.17496 
   19000    40.647024    40.647024    40.647024    214.95262    284.83887    239.34641    51.056801    239.38532    308.96218    239.31264   -13285.026    296.90714 
   19050    40.649705    40.649705    40.649705   -81.133724   -129.00732    239.22525    75.547217    239.18588   -189.94107    239.17674   -13286.857    300.57186 
   19100    40.651126    40.651126    40.651126   -101.32617   -31.477654     239.1806   -154.66723    239.19776   -117.83362    239.13096    -13287.34    301.62988 
   19150    40.650514    40.650514    40.650514   -61.937819   -59.029845    239.21962   -54.942506    239.17835   -71.841107    239.13588    -13286.17    299.48627 
   19200    40.648958    40.648958    40.648958   -40.202422     28.23678    239.21999   -47.031317    239.30021   -101.81273    239.21234   -13287.908    302.96654 
   19250    40.648297    40.648297    40.648297    193.92933    110.86583    239.31977    160.24061    239.32582    310.68154    239.28389   -13283.866     295.2575 
   19300    40.653967    40.653967    40.653967   -319.65063   -433.94692    238.97647   -265.61363    239.01002   -259.39133     239.0261   -13288.426    304.19497 
   19350    40.650697    40.650697    40.650697   -50.380578    75.039162    239.19871    -108.3705    239.19319   -117.81039    239.22503   -13284.214    296.15027 
   19400    40.645481    40.645481    40.645481    233.31821   -13.523612    239.47085    276.96417    239.41925    436.51408    239.41432   -13286.245    300.18916 
   19450    40.648108    40.648108    40.648108    86.601651    177.74298    239.29742     85.95445    239.34569   -3.8924808    239.30637   -13284.204    296.34544 
   19500    40.652051    40.652051    40.652051   -87.655979    -108.3931    239.12221   -28.882256    239.16314   -125.69258    239.12212   -13283.979    296.00928 
   19550    40.652947    40.652947    40.652947   -162.69022   -207.64374    239.11077   -247.02321    239.09217   -33.403704    239.05392   -13286.868    301.69673 
   19600    40.648603    40.648603    40.648603    123.89806     187.6444    239.25854    253.36595    239.30166   -69.316182    239.23083   -13284.234    296.69118 
   19650    40.646314    40.646314    40.646314    152.06679    299.51493    239.39781    114.99572    239.40421    41.689733    239.36478    -13285.08    298.41695 
   19700    40.648757    40.648757    40.648757   -6.5061867   -21.901854    239.30693    105.41324    239.27178   -103.02995    239.26947   -13285.998    300.27426 
   19750    40.650718    40.650718    40.650718   -105.49055   -89.223316    239.17443   -108.47253    239.16148   -118.77579    239.16057   -13285.718     299.8116 
   19800    40.650581    40.650581    40.650581  -0.49329861    115.55627    239.20336    120.12138     239.1864   -237.15754    239.16468   -13285.414    299.30153 
   19850    40.649939    40.649939    40.649939   -90.391231   -73.085082    239.17217   -203.69606    239.20289    5.6074539    239.21579   -13286.062    300.63334 
   19900    40.648117    40.648117    40.648117    37.872772    145.97849    239.28312    105.26909    239.32802   -137.62926    239.24871   -13286.943    302.41409 
   19950    40.648134    40.648134    40.648134   -71.534231   -120.29811    239.28458   -29.231516    239.28906   -65.073071    239.25996    -13286.23    301.10262 
   20000    40.648392    40.648392    40.648392    206.27109     236.8314    239.23009    298.12899    239.28083    83.852874    239.27433   -13283.071    295.05319 
Loop time of 931.112 on 4 procs for 20000 steps with 4000 atoms

Pair  time (%) = 864.931 (92.8922)
Neigh time (%) = 0 (0)
Comm  time (%) = 46.5054 (4.99461)
Outpt time (%) = 0.0586735 (0.00630144)
Other time (%) = 19.6174 (2.10688)

Nlocal:    1000 ave 1000 max 1000 min
Histogram: 4 0 0 0 0 0 0 0 0 0
Nghost:    4235 ave 4235 max 4235 min
Histogram: 4 0 0 0 0 0 0 0 0 0
Neighs:    70000 ave 72653 max 67302 min
Histogram: 1 0 1 0 0 0 0 1 0 1
FullNghs:  0 ave 0 max 0 min
Histogram: 4 0 0 0 0 0 0 0 0 0

Total # of neighbors = 280000
Ave neighs/atom = 70
Neighbor list builds = 0
Dangerous builds = 0
# run 	200000

# Use this if debug
# run 	1000
# run 200
unfix 1

# Store final cell length for strain calculations
variable tmp equal "lx"
variable L0 equal ${tmp}
variable L0 equal 40.6483922577475
print "Initial Length, L0: ${L0}"
Initial Length, L0: 40.6483922577475

######################################
# DEFORMATION
reset_timestep	0
set atom * xrad 0 yrad 0 zrad 0 vxrad 0 vyrad 0 vzrad 0
  4000 settings made for xrad
  4000 settings made for yrad
  4000 settings made for zrad
  4000 settings made for vxrad
  4000 settings made for vyrad
  4000 settings made for vzrad
fix		1 all npt temp 300 300 1 y 0 0 1 z 0 0 1 drag 1

variable srate equal 1.0e10
# variable srate equal 1.0e9 # tiny time step

variable srate1 equal "v_srate / 1.0e12"
fix		2 all deform 1 x erate ${srate1} units box remap x
fix		2 all deform 1 x erate 0.01 units box remap x

# Output strain and stress info to file
# for units metal, pressure is in [bars] = 100 [kPa] = 1/10000 [GPa]
# p2, p3, p4 are in GPa
variable strain equal "(lx - v_L0)/v_L0"
variable p1 equal "v_strain"
variable p2 equal "-pxx/10000"
variable p3 equal "-pyy/10000"
variable p4 equal "-pzz/10000"

# fix def1 all print 100 "${p1} ${p2} ${p3} ${p4}" file Al99.eam_rad.alloy.def1.txt screen no
# IMPLEMENTATION HERE
variable p5 equal "-pxxrad/10000"

# VERSION add rad variables
variable p6 equal "-pyyrad/10000"
variable p7 equal "-pzzrad/10000"

# VERSION ublb coupled/decoupled scheme
# variable p6 equal "-pxxub/10000"
# variable p7 equal "-pxxlb/10000"

fix def1 all print 20 "${p1} ${p2} ${p3} ${p4} ${p5} ${p6} ${p7}" file Al99.eam_rad.alloy.def1.txt screen no

# Use cfg for AtomEye
# dump 		1 all cfg 250 dump.tensile_*.cfg mass type xs ys zs c_csym c_peratom fx fy fz
# dump_modify 1 element Al

# print output to a text file every n timesteps
# dump		2 all custom 50 dump.xyz_rvf_rad.tensile_*.txt mass type id x y z vx vy vz fx fy fz xrad yrad zrad vxrad vyrad vzrad fxrad fyrad fzrad # use for rad developement
# dump		2 all custom 50 dump.xyz_rvf_rad.tensile_*.txt mass type id x y z vx vy vz fx fy fz xrad yrad zrad vxrad vyrad vzrad fxrad fyrad fzrad xub yub zub vxub vyub vzub fxub fyub fzub xlb ylb zlb vxlb vylb vzlb fxlb fylb fzlb # use for ublb developement

# Display thermo
thermo 	50
# thermo 1
# thermo_style	custom step v_strain temp v_p2 v_p3 v_p4 ke pe press

# IMPLEMENTATION HERE
thermo_style	custom step v_strain temp v_p2 v_p3 v_p4 v_p5 v_p6 v_p7 ke pe press
run	20000
Memory usage per processor = 5.63763 Mbytes
Step strain Temp p2 p3 p4 p5 p6 p7 KinEng PotEng Press 
       0            0    295.05319  -0.02368314 -0.029812899 -0.0083852874 -0.023923009 -0.023928083 -0.023927433    152.51633   -13283.071    206.27109 
      50       0.0005    305.27076  0.076385928  0.026700653   0.02544381 -0.023896461 -0.023898284 -0.023897709    157.79791   -13288.296   -428.43464 
     100        0.001    295.42717   0.06301276   0.02872752  0.009142002 -0.023895832 -0.023898185          nan    152.70965   -13283.145   -336.27427 
     150       0.0015    303.35582   0.10391563  0.021016666 -0.016979124 -0.023900089 -0.023903985 -0.023903088    156.80806   -13287.176    -359.8439 
     200        0.002    301.05276   0.11977248 -0.063221078 0.0076251495 -0.023895932 -0.023914758          nan    155.61758   -13285.908   -213.92183 
     250       0.0025    295.64903   0.15045177 -0.011141413 -0.017034305 -0.023869249 -0.023892991 -0.023885209    152.82433   -13283.033   -407.58686 
     300        0.003    297.59578   0.20177241  0.017257887  0.043740917 -0.023850296 -0.023863836          nan    153.83063   -13283.947   -875.90403 
     350       0.0035    297.90159   0.21457242  0.016962525  0.013201642 -0.023842505  -0.02387359 -0.023877746     153.9887   -13284.012   -815.78861 
     400        0.004     302.2837   0.23780181 -0.012340809 -0.030440108 -0.023858886 -0.023890421          nan    156.25386   -13286.167   -650.06963 
     450       0.0045    301.24938   0.28630656 0.0061301808 -0.035861067 -0.023849518 -0.023878258 -0.023885886    155.71922   -13285.519   -855.25223 
     500        0.005    296.61352   0.31253741 0.0079158149  0.014220882 -0.023816966 -0.023860174          nan    153.32289   -13283.004   -1115.5803 
     550       0.0055    304.12293   0.37536467  0.015063377  0.046358205 -0.023797355 -0.023839746 -0.023832399    157.20458   -13286.755   -1455.9542 
     600        0.006    295.36034   0.37703246 -0.0086069583 -0.0076705015 -0.023810011 -0.023856209          nan     152.6751   -13282.091   -1202.5167 
     650       0.0065    302.92334   0.41996667 -0.011519301 -0.00041694971 -0.023803653 -0.023846126 -0.023845927     156.5845   -13285.854   -1360.1014 
     700        0.007    298.20205   0.43576674 -0.025363065 -0.014081269 -0.023798598 -0.023845864          nan    154.14402   -13283.265   -1321.0747 
     750       0.0075    295.82411   0.48498769  0.015544159  0.011999991 -0.023775799 -0.023827325 -0.023826747    152.91483   -13281.879   -1708.4395 
     800        0.008    302.13311   0.52029438  0.027130983  0.018111419 -0.023760815 -0.023812405          nan    156.17602   -13284.977   -1885.1226 
     850       0.0085    301.09945   0.55422916  0.003843732 -0.016729839 -0.023763393  -0.02382155 -0.023818791    155.64172    -13284.27   -1804.4768 
     900        0.009    300.31698   0.57208332 0.0015430849 -0.0065144422 -0.023757139 -0.023820173          nan    155.23725   -13283.688   -1890.3732 
     950       0.0095    301.07859    0.6263659 0.0012301972 -0.0057598621 -0.023737767 -0.023810769 -0.023803807    155.63093   -13283.895   -2072.7874 
    1000         0.01    301.50988   0.65335757 0.0023734946  0.040408462 -0.023724927 -0.023787687          nan    155.85387   -13283.925   -2320.4651 
    1050       0.0105    297.02491   0.66836506 0.0044850551 -0.0080675322 -0.023722807 -0.023795794 -0.023788343    153.53554   -13281.404    -2215.942 
    1100        0.011    299.92421   0.69534003    0.0050105 0.0089962338 -0.023722743 -0.023797418          nan    155.03422   -13282.701   -2364.4892 
    1150       0.0115    300.93967   0.72842287 -0.0066764886 -0.023511094 -0.023724228 -0.023799584 -0.023793012    155.55912   -13283.011    -2327.451 
    1200        0.012    298.11516   0.74283245 0.0023225495 -0.0056781198 -0.023714138 -0.023779875          nan     154.0991   -13281.331   -2464.9229 
    1250       0.0125    296.09534   0.80074317 -0.00015762297  0.016038089 -0.023695022 -0.023770423  -0.02376757    153.05503    -13280.06   -2722.0788 
    1300        0.013    300.38579   0.81874177 -0.0076835348  0.011580456 -0.023694021 -0.023771157          nan    155.27282   -13282.048    -2742.129 
    1350       0.0135    294.35458   0.84512009 -0.031162971 -0.024399982 -0.023687638 -0.023775774 -0.023774138    152.15522   -13278.691   -2631.8571 
    1400        0.014    298.92375   0.91345678 0.0073932019  -0.01098955 -0.023667968 -0.023750612          nan    154.51707   -13280.801   -3032.8681 
    1450       0.0145    299.86146   0.92245658  0.044193515  0.026805922 -0.023649023  -0.02373141 -0.023731947    155.00178   -13281.031     -3311.52 
    1500        0.015    297.04973   0.96477228 -0.0038140823 0.0042775993 -0.023657363 -0.023742522          nan    153.54837   -13279.319   -3217.4527 
    1550       0.0155    301.32705   0.97107154 -0.017055583 -0.023224235 -0.023660998 -0.023750846 -0.023750894    155.75936   -13281.256   -3102.6391 
    1600        0.016    300.47997    1.0189589 -0.0051068267 -0.018145599 -0.023655516  -0.02374496          nan     155.3215   -13280.543   -3319.0216 
    1650       0.0165    298.70423    1.0694414  0.016005424  0.029115908 -0.023622374 -0.023712872 -0.023715602     154.4036    -13279.34    -3715.209 
    1700        0.017     299.1915    1.1279416  0.018829441  0.025145113 -0.023609112 -0.023702747          nan    154.65547   -13279.296   -3906.3871 
    1750       0.0175    302.96186    1.1236282 0.0049706753 -0.0038490882 -0.023624304  -0.02371277 -0.023709946    156.60442   -13280.943   -3749.1659 
    1800        0.018    297.54899    1.1340796 -0.038355047 -0.0038681782 -0.023621371 -0.023720856          nan    153.80644   -13277.838   -3639.5214 
    1850       0.0185    300.18284     1.202559  0.024060562 -0.025380846 -0.023600644 -0.023701428 -0.023691899    155.16791   -13278.883   -4004.1291 
    1900        0.019      301.905    1.2428105  0.013249417  0.042858646 -0.023577415 -0.023674289          nan    156.05811   -13279.452   -4329.7287 
    1950       0.0195    297.56463    1.2595106  0.020898741 0.0060602864 -0.023583099 -0.023686286 -0.023678102    153.81452   -13276.881   -4288.2322 
    2000         0.02    301.39312     1.287643 -0.020410125 0.0014033429 -0.023589639 -0.023688801          nan    155.79352   -13278.523   -4228.7873 
    2050       0.0205    297.39065    1.3212022  -0.02259175 -0.028835303 -0.023582162  -0.02369124  -0.02368429     153.7246   -13276.109   -4232.5839 
    2100        0.021    296.57933    1.3530512  0.024545494   0.01259576 -0.023558036 -0.023655754          nan    153.30522    -13275.34    -4633.975 
    2150       0.0215    301.86389      1.42285  0.014651572  0.018754474 -0.023554549 -0.023664479 -0.023659919    156.03686   -13277.716    -4854.187 
    2200        0.022     300.8428     1.412048 0.0012920287 -0.0021998856 -0.023562994 -0.023672654          nan    155.50905   -13276.825   -4703.8004 
    2250       0.0225    299.02725    1.4321461 -0.0040392456  -0.02995493 -0.023555615 -0.023671907 -0.023667996    154.57057   -13275.515   -4660.5065 
    2300        0.023    297.44991    1.4709187 0.0051088264 -0.0080936701 -0.023536935 -0.023647742          nan    153.75522   -13274.321   -4893.1129 
    2350       0.0235    299.76275    1.5253658  0.011264959  0.029684555 -0.023522282 -0.023634273 -0.023634571    154.95076   -13275.137   -5221.0509 
    2400        0.024    297.54615     1.539138 -0.0043798112  0.014949503 -0.023524274   -0.0236434          nan    153.80497   -13273.602   -5165.6921 
    2450       0.0245    299.17032    1.5501475 -0.023600856 -0.029707099 -0.023533663 -0.023653663 -0.023639345    154.64453   -13274.046    -4989.465 
    2500        0.025    297.21842    1.5902559  -0.03311447 0.0058390706  -0.02351932 -0.023643179          nan    153.63556    -13272.64   -5209.9351 
    2550       0.0255    301.31341    1.6512509  0.029887397  0.021011691 -0.023496935 -0.023616857 -0.023606656    155.75231   -13274.349   -5673.8333 
    2600        0.026    296.45283    1.6611498 -0.012557481  0.027613457 -0.023490298 -0.023612044          nan    153.23982   -13271.422   -5587.3527 
    2650       0.0265    301.29272    1.6973705  0.028162696 -0.018934186 -0.023497089 -0.023617341 -0.023604567    155.74162   -13273.502   -5688.6633 
[...]
   13800        0.138    291.25069    7.7123916  0.021712303 -0.0064641626 -0.021651674  -0.02211387          nan    150.55078   -13025.096   -25758.799 
   13850       0.1385    288.55819    7.6958233 -0.022898302 -0.084094538 -0.021652091 -0.022125898 -0.022127803      149.159   -13022.024   -25296.101 
   13900        0.139    292.21313    7.7793834 -0.018596694  0.033121535 -0.021618465  -0.02208886          nan    151.04827   -13022.219   -25979.694 
   13950       0.1395    292.80851    7.7626524   0.03200342  0.059693509 -0.021595188 -0.022069443 -0.022064676    151.35603   -13020.818   -26181.164 
   14000         0.14    290.78192    7.7739784 -0.018391636 0.00024523942 -0.021596445 -0.022084054          nan    150.30847   -13018.072   -25852.773 
   14050       0.1405    292.55995    7.8008559 -0.054400551  0.010070867 -0.021603053 -0.022086219 -0.022081858    151.22755   -13017.273   -25855.087 
   14100        0.141    290.98435    7.8449078 0.0028284285 -0.032554213 -0.021582249 -0.022070098          nan    150.41311   -13014.743   -26050.607 
   14150       0.1415    296.18122    7.8575383  0.043051585  0.037247456  -0.02156431 -0.022045494 -0.022054682    153.09942   -13015.707   -26459.458 
   14200        0.142    294.12159    7.8437331  -0.02390802 -0.0041379011 -0.021558377  -0.02204294          nan    152.03478   -13012.916   -26052.291 
   14250       0.1425    287.19968    7.7478812 -0.033567345 -0.002019977 -0.021551408 -0.022028335 -0.022030363    148.45677   -13007.631   -25707.646 
   14300        0.143    293.71432    7.8738105  0.019746234  0.023631537 -0.021526893 -0.022004029          nan    151.82426   -13009.286   -26390.628 
   14350       0.1435     291.4975    7.9045649 0.0057878559  0.018934398 -0.021511277 -0.021996656 -0.022010991    150.67836   -13006.402   -26430.957 
   14400        0.144     294.6357    7.8741604 -0.046018615 0.00047032948 -0.021518978 -0.022004297          nan    152.30053   -13006.298   -26095.374 
   14450       0.1445    292.14967    7.8781755 0.0080106477 -0.008594513 -0.021500715 -0.021980458 -0.022007179    151.01547   -13003.285   -26258.639 
   14500        0.145     290.8319    7.8916896  0.021238627 -0.0060794099 -0.021473473 -0.021955703          nan     150.3343   -13000.867   -26356.163 
   14550       0.1455     289.7379     7.878053  0.036487353 -0.022518208  -0.02146161 -0.021932408 -0.021968894     149.7688   -12998.563    -26306.74 
   14600        0.146    291.05198    7.8755564 0.0084610282 -0.023920782 -0.021450815 -0.021932736          nan    150.44807    -12997.51   -26200.322 
   14650       0.1465    290.14168    7.8880396  0.011861846  -0.01807914 -0.021438517 -0.021920331  -0.02193684    149.97752   -12995.301   -26272.741 
   14700        0.147    289.85403    7.8562697  0.029594156 -0.0032762703 -0.021422766 -0.021897079          nan    149.82883   -12993.412   -26275.292 
   14750       0.1475    284.83157    7.7802611 0.0071037338 -0.022309076 -0.021417143 -0.021896806 -0.021913517    147.23266   -12989.101   -25883.519 
   14800        0.148    295.22257    7.7739472  0.010271893 -0.036002251  -0.02141326 -0.021901659          nan    152.60389   -12992.754    -25827.39 
   14850       0.1485    291.85515    7.6392409 -0.022401768 0.0090253166 -0.021398886 -0.021885514 -0.021879614    150.86323    -12989.31   -25419.548 
   14900        0.149    295.96817    7.5426105  0.010334563   0.05186927 -0.021378265 -0.021861258          nan     152.9893   -12989.735   -25349.381 
   14950       0.1495    295.25224    7.4039377  0.010039178 -0.001891253 -0.021383059 -0.021857723 -0.021846568    152.61922   -12987.716   -24706.952 
   15000         0.15    304.02056    7.2650055 -0.071123596  0.034185168 -0.021396229 -0.021875329          nan    157.15167   -12990.627   -24093.557 
   15050       0.1505    309.56698    7.1267705 -0.049078844  0.019062772 -0.021379045 -0.021855251 -0.021842411    160.01867   -12991.928   -23655.848 
   15100        0.151    306.69809     6.911152 -0.068385816   0.01273007 -0.021341893  -0.02181825          nan    158.53572   -12988.961   -22851.654 
   15150       0.1515    319.26741    6.7401749  0.038975677  0.063540545 -0.021304422 -0.021772939 -0.021764914    165.03294   -12994.037    -22808.97 
   15200        0.152    319.28619    6.4117552  0.048372635 0.0019629842 -0.021309471 -0.021758757          nan    165.04264   -12992.724   -21540.303 
   15250       0.1525     335.4747    6.0896801  0.031858152 -0.071686451 -0.021345598  -0.02178051 -0.021803779    173.41067   -12999.863   -20166.173 
   15300        0.153    337.88645    5.7313163 -0.0086257228 -0.056823532  -0.02134849 -0.021782031          nan    174.65733   -13000.039   -18886.224 
   15350       0.1535    334.72084    5.3875431  0.072478331  -0.03801648 -0.021330104 -0.021748193 -0.021766786    173.02099   -12997.514    -18073.35 
   15400        0.154     342.0304    5.0719578  0.057930295  0.068710984  -0.02134161 -0.021742809          nan    176.79939   -13000.538   -17328.664 
   15450       0.1545     346.5106    4.7211677  0.004679539 -0.010202206 -0.021387828 -0.021785291 -0.021785162    179.11525   -13002.263   -15718.817 
   15500        0.155    347.72231    4.3780797 -0.065055253 -0.0039264244 -0.021432354 -0.021822194          nan     179.7416   -13002.419    -14363.66 
   15550       0.1555    345.72085    4.1566868 -0.078497099  0.058041973 -0.021434932 -0.021811948 -0.021796166    178.70702   -13001.037   -13787.439 
   15600        0.156    352.91346    4.0470676 -0.00032413902   0.11750658 -0.021433807 -0.021790159          nan    182.42496   -13004.544   -13880.834 
   15650       0.1565    355.30306    3.9546563  -0.03687998  0.018411789 -0.021464977  -0.02180568 -0.021808812    183.66017   -13005.686   -13120.627 
   15700        0.157    353.64653    3.7956129  0.017236398 -0.020414122 -0.021499634 -0.021818479          nan     182.8039   -13004.714   -12641.451 
   15750       0.1575    361.69497    3.7141687   0.06307154  0.023943058 -0.021526563 -0.021827666 -0.021844467    186.96422   -13008.807   -12670.611 
   15800        0.158    360.52666    3.6251051   0.01936415 -0.059177906 -0.021579908 -0.021876909          nan    186.36031   -13008.159   -11950.971 
   15850       0.1585    364.75668    3.6227972  0.032174451 -0.079266508 -0.021603258 -0.021891176  -0.02190039    188.54686   -13010.272   -11919.017 
   15900        0.159    362.85533    3.5756819 -0.044065223  0.017372756 -0.021592785 -0.021880343          nan    187.56403   -13009.253   -11829.965 
   15950       0.1595    363.19391    3.5803512 -0.013534165  0.076080543  -0.02156601 -0.021850128  -0.02185347    187.73904   -13009.373   -12142.992 
   16000         0.16    359.91317    3.4550027  0.011224552  0.079797756 -0.021571969  -0.02185217          nan    186.04319   -13007.653   -11820.083 
   16050       0.1605    360.95119    3.4214138 -0.010860946  0.021842636 -0.021610635 -0.021890575 -0.021884706    186.57975   -13008.178   -11441.318 
   16100        0.161    364.10444    3.3476955 -0.043325111 -0.037770807 -0.021653329 -0.021913584          nan    188.20971   -13009.804   -10888.665 
   16150       0.1615    368.76526    3.2747162 -0.028793028 0.0003051527 -0.021655172 -0.021908792 -0.021920043    190.61894   -13012.249   -10820.761 
   16200        0.162    368.50231    3.3067163  0.061524771 -0.056567645 -0.021626726 -0.021888537          nan    190.48302   -13012.162   -11038.911 
   16250       0.1625     360.1726    3.3071438  0.061398264 -0.051713849 -0.021609391 -0.021862913 -0.021883994    186.17729   -13007.922   -11056.094 
   16300        0.163    363.11155    3.2374907  0.042433084  0.043106488 -0.021621159 -0.021872263          nan    187.69647   -13009.558   -11076.768 
   16350       0.1635    362.59563    3.1608747 -0.039909799 -0.011993331 -0.021675047 -0.021922357 -0.021941627    187.42979   -13009.419   -10363.239 
   16400        0.164    368.58005    3.1163309 -0.054304993  -0.06283763 -0.021698679 -0.021940441          nan     190.5232   -13012.631   -9997.2944 
   16450       0.1645    372.76075    3.1361261  0.029011491  0.050938188 -0.021671548 -0.021901028  -0.02192504    192.68425   -13014.936   -10720.253 
   16500        0.165    363.92767    3.0526071   0.04346032  0.049082515 -0.021663538 -0.021890448          nan    188.11833   -13010.527   -10483.833 
   16550       0.1655    375.26214    3.0226861  0.042125017  0.027289623 -0.021693437  -0.02191236 -0.021934455    193.97725   -13016.577   -10307.003 
   16600        0.166    371.62968    2.9128993 -0.031234485 -0.049523321 -0.021735592 -0.021959351          nan    192.09959   -13014.888   -9440.4717 
   16650       0.1665    367.44987    2.7947826 -0.066465404  0.023118567 -0.021741466 -0.021964714 -0.021967274      189.939    -13012.95   -9171.4525 
   16700        0.167    375.99725    2.7648834 0.0035489738  0.063080841 -0.021724884 -0.021956274          nan    194.35723   -13017.633   -9438.3774 
   16750       0.1675    371.57801    2.6312173  0.039958914 0.0070719807 -0.021746587 -0.021956878 -0.021967996    192.07288   -13015.646   -8927.4941 
   16800        0.168    374.14634    2.5423812 -0.004835991 -0.015992686 -0.021776842 -0.021987391          nan    193.40048   -13017.298    -8405.175 
   16850       0.1685      381.124     2.481223 -0.040733142  0.049126321 -0.021795555 -0.022009727 -0.022022008    197.00731   -13021.273   -8298.7207 
   16900        0.169    377.06017    2.3996955  0.025391186 -0.063563393 -0.021819777 -0.022022219          nan    194.90667    -13019.55   -7871.7444 
   16950       0.1695     383.5371    2.2911985   0.09374905 -0.029740813 -0.021836736 -0.022023721 -0.022035297    198.25467   -13023.327   -7850.6892 
   17000         0.17    379.69442    2.2146934  0.060914119 0.0058934643 -0.021871633 -0.022056885          nan    196.26834   -13021.827   -7605.0034 
   17050       0.1705    383.21702    2.0259605 -0.057646675 -0.0090487664 -0.021935253 -0.022121859 -0.022115606    198.08922   -13024.158   -6530.8835 
   17100        0.171    382.15449    1.9527077 -0.078602414 -0.0060991189 -0.021971068 -0.022147352          nan    197.53998   -13024.114   -6226.6871 
   17150       0.1715    390.65633    1.8887578 -0.029227298  0.061931236  -0.02196587 -0.022131509 -0.022118579    201.93468   -13029.068   -6404.8723 
   17200        0.172    392.76807    1.8357501 -0.0016333964  0.068984594 -0.021967897 -0.022132351          nan    203.02626   -13030.769    -6343.671 
   17250       0.1725    389.99611    1.7162119 -0.054745577  0.099005688 -0.022005232 -0.022156582 -0.022143042     201.5934   -13030.018   -5868.2401 
   17300        0.173    387.15937    1.5332674 -0.020325244 -0.0051990511 -0.022045144   -0.0221887          nan    200.12706   -13029.259   -5025.8105 
   17350       0.1735    385.15763    1.5110376 -0.036093519  -0.10308301 -0.022060462 -0.022207101 -0.022222128    199.09234   -13028.855   -4572.8701 
   17400        0.174    390.57938    1.5910174 -0.0060414409  0.025585585 -0.022025446 -0.022173655          nan     201.8949   -13032.353   -5368.5386 
   17450       0.1745     384.1063    1.5527367  0.056312722  0.040261646 -0.022008246 -0.022149407 -0.022159892    198.54889   -13029.683   -5497.7035 
   17500        0.175    391.28815    1.4632812  0.087926805 0.0058239707 -0.022052315  -0.02217699          nan    202.26127   -13034.099   -5190.1067 
   17550       0.1755    395.84288    1.4590561   0.07744611 -0.087129541 -0.022116704 -0.022240061 -0.022259713    204.61566   -13037.179   -4831.2421 
   17600        0.176    395.75652    1.4574467 0.0016722445  -0.12201378 -0.022148756 -0.022282237          nan    204.57102   -13037.887   -4457.0171 
   17650       0.1765    392.83818    1.4650782 -0.018908973 -0.037848887  -0.02212154  -0.02225563 -0.022256269     203.0625   -13037.153   -4694.4012 
   17700        0.177    398.90382    1.6160879  0.095692735  0.055333214 -0.022058003 -0.022215052          nan     206.1979   -13041.051   -5890.3797 
   17750       0.1775    402.05164    1.6190144  0.041591843   0.12626917 -0.022089219 -0.022237726 -0.022222994    207.82504   -13043.454   -5956.2515 
   17800        0.178    406.51766    1.3685035  -0.06015576  0.045226521 -0.022198067 -0.022333167          nan    210.13358   -13046.554   -4511.9142 
   17850       0.1785    403.12593    1.2814832  -0.15996605 -0.069381455 -0.022249948 -0.022397917 -0.022370766    208.38036   -13045.607   -3507.1191 
   17900        0.179    403.86429     1.362311 -0.033662106  0.028568733  -0.02219966 -0.022340631          nan    208.76202   -13046.859   -4524.0589 
   17950       0.1795    404.93553    1.4269753  0.056394132   0.13666424 -0.022143387 -0.022287349 -0.022268688    209.31576   -13048.273   -5400.1122 
   18000         0.18    407.81479    1.3546732   0.13564015  0.061893527 -0.022179815 -0.022317786          nan    210.80408   -13050.677   -5174.0228 
   18050       0.1805      411.591    1.2389993 -0.010407261  -0.05374392 -0.022283009 -0.022422849 -0.022418419    212.75605   -13053.548   -3916.1603 
   18100        0.181    409.64188    1.1754713 -0.057073209  -0.20378237 -0.022343879 -0.022479733          nan    211.74852   -13053.432   -3048.7192 
   18150       0.1815    411.17805    1.2158507  0.009822922 -0.056779603  -0.02229645 -0.022423318 -0.022427686    212.54259   -13055.232   -3896.3133 
   18200        0.182    405.70759    1.2827927   0.11026115  0.084096093 -0.022227604 -0.022343531          nan    209.71484   -13053.351   -4923.8331 
   18250       0.1825    414.08035    1.3014939  0.063108558   0.13471345  -0.02224286 -0.022364311 -0.022354808    214.04282   -13058.655   -4997.7197 
   18300        0.183    411.14037    1.1682992   -0.1015738 -0.025194645 -0.022338588 -0.022458456          nan    212.52311   -13058.092   -3471.7692 
   18350       0.1835    407.68327    1.1290221  -0.11180324 -0.074161023 -0.022366663 -0.022484916 -0.022489749    210.73609   -13057.243   -3143.5262 
   18400        0.184    413.40339    1.1873292  0.031672072  0.061322204 -0.022311395 -0.022425379          nan    213.69289   -13061.185    -4267.745 
   18450       0.1845    409.51187    1.1821528   0.13072436  0.020107133 -0.022312524 -0.022410685 -0.022419891    211.68132   -13060.176   -4443.2809 
   18500        0.185     411.4069    1.0979031  0.067985641 -0.036154967 -0.022372946 -0.022468124          nan    212.66088    -13062.21   -3765.7792 
   18550       0.1855    418.28181    1.0097126  0.017648244  -0.09057091 -0.022457217 -0.022548976 -0.022547908     216.2146   -13066.824   -3122.6331 
   18600        0.186    415.78492   0.95073773 -0.074940763 -0.031755127 -0.022481181  -0.02257456          nan    214.92393   -13066.586   -2813.4728 
   18650       0.1865     414.6891   0.96743062 -0.014297429 -0.011833429 -0.022452047  -0.02252396 -0.022532076    214.35749   -13067.087   -3137.6659 
   18700        0.187    407.15103    1.0483484  0.025364924   0.10177936 -0.022410164  -0.02249995          nan    210.46097   -13064.222   -3918.3091 
   18750       0.1875    417.02863    1.0167717 -0.039711883  0.048223459 -0.022420543 -0.022521681 -0.022502007    215.56682   -13070.375    -3417.611 
   18800        0.188    414.42847    0.9619183 -0.049335527  0.018947268 -0.022451482 -0.022549133          nan    214.22277   -13070.102   -3105.1001 
   18850       0.1885    418.13968   0.91723668  0.036316617 -0.062688048  -0.02246902 -0.022557443 -0.022560716    216.14113   -13073.089   -2969.5508 
   18900        0.189    413.13697   0.95666965   0.08651165 -0.061218342 -0.022463684 -0.022542824          nan    213.55518   -13071.573   -3273.2099 
   18950       0.1895    414.62588    1.0968674  0.075894004 0.0045338374 -0.022447787 -0.022544773 -0.022544228    214.32481   -13073.424   -3924.3174 
   19000         0.19    404.68701    1.0785285 -0.049953746 -0.010254662 -0.022457333 -0.022573244          nan     209.1873   -13069.318   -3394.4004 
   19050       0.1905     417.9898     1.167389 -0.037750638  0.063169018 -0.022450056 -0.022563297  -0.02255168    216.06366   -13077.205   -3976.0246 
   19100        0.191    408.74635    1.0938976 -0.044617618   0.05119539 -0.022460418 -0.022573947          nan    211.28562   -13073.469   -3668.2512 
   19150       0.1915    412.61364    1.1561929 -0.026460128 0.0098700505 -0.022461851 -0.022582275  -0.02257797    213.28466   -13076.513   -3798.6761 
   19200        0.192    424.29872    1.2267294  0.020991878 -0.00087700265 -0.022457457 -0.022573297          nan    219.32481   -13083.591   -4156.1477 
   19250       0.1925    413.85043    1.2587886  0.057799821 -0.079879113 -0.022458087 -0.022574438 -0.022592062    213.92397   -13079.232   -4122.3643 
   19300        0.193    416.40341    1.3043736   0.12121524 -0.057169341 -0.022456876 -0.022555085          nan    215.24364   -13081.596   -4561.3984 
   19350       0.1935    414.41568    1.3480591  0.039266983 -0.089024876 -0.022457754 -0.022573865 -0.022586036    214.21615   -13081.651   -4327.6707 
   19400        0.194    416.73492     1.305128  0.022209319  0.052278979 -0.022457629  -0.02257071          nan      215.415   -13083.883   -4598.7209 
   19450       0.1945    411.51137    1.2689652 -0.046798522  0.060517901 -0.022471579 -0.022591638 -0.022569342    212.71489   -13082.152   -4275.6152 
   19500        0.195    409.75983    1.1540679 -0.038616738  0.067029986 -0.022505375 -0.022614173          nan    211.80949   -13082.239   -3941.6039 
   19550       0.1955    408.79631    1.1350381 -0.013343913 -0.052341632   -0.0225316 -0.022633321  -0.02262851    211.31144   -13082.765   -3564.5086 
   19600        0.196    410.44065    1.2025847 -0.046174651 -0.028864944 -0.022515997 -0.022626859          nan    212.16142   -13084.609   -3758.4838 
   19650       0.1965    406.29645    1.2361511 0.0033384422  0.048176759 -0.022482305 -0.022599932 -0.022584273    210.01923   -13083.467   -4292.2212 
   19700        0.197    411.18681     1.194101  0.066357446  0.078022778 -0.022482351 -0.022591165          nan    212.54712   -13087.005    -4461.604 
   19750       0.1975    412.89506    1.1645585  0.025107153  -0.01793132 -0.022539647 -0.022643953 -0.022641019    213.43013   -13088.926    -3905.781 
   19800        0.198    404.05349    1.0724971  -0.11986189  -0.12866493 -0.022590011 -0.022699387          nan    208.85982   -13085.358   -2746.5677 
   19850       0.1985    406.43138    1.1333225  0.031244558 -0.083534394 -0.022536146  -0.02264496 -0.022648347    210.08898   -13087.618   -3603.4424 
   19900        0.199    412.73965    1.2414044   0.13286855   0.08738096 -0.022464709  -0.02257097          nan     213.3498   -13091.886   -4872.1798 
   19950       0.1995    410.58819    1.2056831   0.02645145   0.11659084 -0.022503971  -0.02261182 -0.022608636    212.23768   -13091.811   -4495.7512 
   20000          0.2    410.43872    1.1150869 -0.084432827 -0.058750672  -0.02259099 -0.022711435          nan    212.16042    -13092.73   -3239.6782 
Loop time of 1058.7 on 4 procs for 20000 steps with 4000 atoms

Pair  time (%) = 999.038 (94.3642)
Neigh time (%) = 0.464395 (0.0438645)
Comm  time (%) = 40.4825 (3.82378)
Outpt time (%) = 0.0832493 (0.00786332)
Other time (%) = 18.6366 (1.76033)

Nlocal:    1000 ave 1012 max 982 min
Histogram: 1 0 0 0 0 1 0 0 1 1
Nghost:    3723.25 ave 3736 max 3709 min
Histogram: 1 0 0 1 0 0 0 1 0 1
Neighs:    68902.8 ave 71691 max 65731 min
Histogram: 1 0 0 1 0 0 0 1 0 1
FullNghs:  0 ave 0 max 0 min
Histogram: 4 0 0 0 0 0 0 0 0 0

Total # of neighbors = 275611
Ave neighs/atom = 68.9027
Neighbor list builds = 85
Dangerous builds = 0

######################################
# SIMULATION DONE
print "All done"
All done
