
# ----------------------- ATOM DEFINITION ----------------------------
lattice		fcc ${latparam}
lattice		fcc 4.05
Lattice spacing in x,y,z = 4.05 4.05 4.05
region		whole block 0 10 0 10 0 10
create_box	1 whole
Created orthogonal box = (0 0 0) to (40.5 40.5 40.5)
  1 by 2 by 2 MPI processor grid
lattice 	fcc ${latparam} orient x 1 0 0 orient y 0 1 0 orient z 0 0 1
lattice 	fcc 4.05 orient x 1 0 0 orient y 0 1 0 orient z 0 0 1
Lattice spacing in x,y,z = 4.05 4.05 4.05
create_atoms	1 region whole
Created 4000 atoms

# ------------------------ FORCE FIELDS ------------------------------

#****************USE THIS TO TEST******************
pair_style	eam/rad
pair_coeff 		* * Al99.PC0.1.eam.alloy.rad.txt Al # pc = 0.5   error generating


# to test with error = 0 use this potential
# pair_coeff	* * Al99.eam.alloy.005pcrad_NULL_noerror Al

#****************USE THIS TO RUN REFRENCE***********
# pair_style	eam/alloy
# pair_coeff	* * Al99.eam.alloy Al

# ------------------------- SETTINGS ---------------------------------
compute csym all centro/atom fcc
compute peratom all pe/atom

######################################
# EQUILIBRATION
reset_timestep	0
timestep	0.001 # default
# timestep	0.0001 # tiny time step
velocity all create 300 12345 mom yes rot no
fix 1 all npt temp 300 300 1 iso 0 0 1 drag 1

# Set thermo output
thermo 50
# thermo 1 # debug mode

# thermo_style custom step lx ly lz press pxx pyy pzz pe temp
# IMPLEMENTATION HERE

# VERSION add rad variables .v1 .v2
# thermo_style custom step lx ly lz press pxx pyy pzz pxxrad pyyrad pzzrad pe temp

# VERSION ublb separation .v3
thermo_style custom step lx ly lz press pxx pxxrad pyy pyyrad pzz pzzrad pe temp

# Run for at least 10 picosecond (assuming 1 fs timestep)
run 	20000 # default
Memory usage per processor = 5.63763 Mbytes
Step Lx Ly Lz Press Pxx Pxxrad Pyy Pyyrad Pzz Pzzrad PotEng Temp 
       0         40.5         40.5         40.5    2496.1233    2446.9902    575.11888    2534.6541    575.11888    2506.7256    575.11888       -13440          300 
      50      40.5611      40.5611      40.5611    907.43706    837.10986    574.75465    946.43161     574.9342    938.76971    574.94892   -13338.819    103.27149 
     100    40.636867    40.636867    40.636867   -4611.4186   -4606.0751    565.17948   -4633.2987     565.0904   -4594.8821    565.14292   -13373.529    171.80729 
     150    40.566371    40.566371    40.566371    544.64066    509.57779    572.60004    622.24374    572.46134    502.10046    572.67171   -13348.908    124.16109 
     200    40.511722    40.511722    40.511722    3547.2897    3643.2596    578.29084    3485.9867    578.43315    3512.6228    578.36688   -13355.216     137.9072 
     250    40.565785    40.565785    40.565785    166.93066    90.523527    572.54568    218.10474    572.36746    192.16371    572.40859   -13359.502    146.72328 
     300    40.611235    40.611235    40.611235   -2466.5664   -2412.8394     568.1224   -2483.9007    568.07498   -2502.9592    568.20401   -13360.111    149.21075 
     350    40.571353    40.571353    40.571353   -408.34084   -482.42607    571.69646   -346.38838    571.77028   -396.20806    571.64224   -13367.339    163.76556 
     400    40.532306    40.532306    40.532306    2225.5431    2279.8069    575.93853    2296.6157    576.08214    2100.2067     576.1781   -13359.854    150.41108 
     450    40.566044    40.566044    40.566044    2.0377845   -40.092854    572.39298   -31.888362    572.35617     78.09457    572.37843    -13363.08    157.36643 
     500    40.595966    40.595966    40.595966   -1611.3461   -1655.3283    569.56962   -1479.2164    569.62745   -1699.4934     569.5068   -13359.404    151.32857 
     550    40.570848    40.570848    40.570848   -161.85418   -150.03728    571.98555   -167.20465    571.96954   -168.32062    571.88772   -13360.736    154.75593 
     600    40.545092    40.545092    40.545092    1385.8336    1414.2998    574.59533    1433.0694    574.68035    1310.1316     574.4551   -13361.915    158.16074 
     650    40.566235    40.566235    40.566235    212.56633    184.02753    572.73748    245.48283    572.80745    208.18862    572.93503   -13358.104    151.74194 
     700    40.589999    40.589999    40.589999   -1217.4105   -1343.5854    570.22568   -1126.2179    570.05493   -1182.4283    570.24026   -13360.206    156.93263 
     750    40.572933    40.572933    40.572933   -250.38158   -286.45411    571.72663   -263.19279    571.90328   -201.49783    571.74473   -13360.538    158.57849 
     800    40.551356    40.551356    40.551356    1208.6566    1078.2928    574.30183    1322.2307    574.40735    1225.4462    574.31547   -13357.161    153.20685 
     850    40.567647    40.567647    40.567647     35.88215    27.354765    572.23819    95.437303    572.19203   -15.145617    572.24163   -13362.171    163.91834 
     900    40.586566    40.586566    40.586566   -905.95525   -936.83022    570.58607   -840.20578    570.49208   -940.82976    570.47804   -13360.501    161.82509 
     950    40.575685    40.575685    40.575685   -242.27646    -258.0676    571.84745   -191.53537    571.86244    -277.2264    571.92918   -13355.043     152.3172 
    1000    40.557624    40.557624    40.557624    865.78368    854.28577    573.29752     838.0004    573.22801    905.06486    573.40611   -13361.124    165.23426 
    1050    40.567354    40.567354    40.567354    296.20892     232.8234    572.86741     412.4804    572.94692    243.32297    572.88984   -13352.949    150.47937 
    1100    40.584443    40.584443    40.584443   -762.38408   -853.89575    570.70918   -674.30507    570.66951   -758.95143    570.55278   -13360.466    166.16585 
    1150    40.575983    40.575983    40.575983    -142.2806   -201.77341    571.96049   -30.014093    571.68891    -195.0543    571.65634    -13353.75    154.27323 
    1200    40.562401    40.562401    40.562401    595.06575    539.95132    573.17782    625.63845    572.93971    619.60749    572.95921    -13359.83    167.17798 
    1250    40.569413    40.569413    40.569413    166.79261    92.903564    572.56607    250.18713    572.57725    157.28713    572.59863   -13356.017    160.90148 
    1300    40.581899    40.581899    40.581899   -560.61752   -582.11355    570.94202   -449.93781    571.22904   -649.80119     571.2636   -13357.596    165.08945 
    1350    40.575948    40.575948    40.575948    -187.6128   -340.24911    571.71827   -119.43237    571.73391   -103.15693    571.74291   -13356.829    164.72703 
    1400    40.566127    40.566127    40.566127    565.86425    499.12344    572.94829    641.64272     572.8359    556.82658    573.02927   -13354.386    161.14085 
    1450    40.572988    40.572988    40.572988    -8.561472    -54.13345    572.04511   -9.1404528    572.05287    37.589487    571.90677   -13356.765    166.86433 
    1500    40.579794    40.579794    40.579794   -267.41446   -332.77441    571.55061   -176.15609    571.45558   -293.31287    571.49937   -13353.672    162.03422 
    1550    40.576834    40.576834    40.576834   -220.87916   -335.60203    571.60126   -207.98546    571.69838   -119.05001    571.56306    -13357.33    170.23169 
    1600     40.56902     40.56902     40.56902    377.81634    358.40758    572.74868    458.79305    572.69539    316.24838    572.72984   -13352.705    162.42694 
    1650    40.573333    40.573333    40.573333    121.60248    65.830518    572.02261    161.88969    572.08541    137.08722    572.12896     -13355.4    168.76756 
    1700    40.580701    40.580701    40.580701   -351.25931   -404.48696    571.55866   -356.71365    571.45768   -292.57732    571.60766   -13352.169    163.67705 
    1750    40.576849    40.576849    40.576849   -32.167301   -50.678233    571.71023   -63.920617    571.65986    18.096946     571.6996   -13355.552    171.33506 
    1800    40.570697    40.570697    40.570697    303.86959    205.87186    572.61101    337.67696     572.4551    368.05996    572.60179   -13351.254    164.18628 
    1850    40.573832    40.573832    40.573832    241.25661    160.65476    572.05802    291.81867    572.21094    271.29639    572.08357   -13351.989    166.73526 
    1900    40.582525    40.582525    40.582525   -408.49907   -517.11515    571.16295    -372.3218    570.99995   -336.06028    571.06727    -13355.88     175.4205 
    1950    40.579035    40.579035    40.579035   -121.18037    -78.31077    571.91214   -80.564036    571.98902    -204.6663    571.84111   -13350.032    165.23107 
    2000     40.57151     40.57151     40.57151    262.28188    197.36064    572.34196    289.69509    572.20714     299.7899    572.13751   -13356.433    178.77171 
    2050     40.57415     40.57415     40.57415    291.00696    438.91963    572.13933    282.96388    572.33674    151.13737    572.37539   -13349.034    165.59547 
    2100    40.583714    40.583714    40.583714   -349.64824   -571.69905    571.27573   -278.61218    571.34014   -198.63349    571.00482    -13352.82     174.0797 
    2150    40.580896    40.580896    40.580896   -115.46102   -185.78203    571.81543   -83.935203    571.69904   -76.665824    571.88156   -13348.342    166.55152 
    2200    40.573232    40.573232    40.573232    266.96923    327.53375      572.223    145.53519    572.10112    327.83874    572.06681   -13352.358    175.46306 
    2250    40.574827    40.574827    40.574827    151.21048    253.25725    572.14515    168.12758     572.0105    32.246605    572.22683   -13351.993    175.91954 
    2300    40.582519    40.582519    40.582519   -229.92012   -262.55007    571.55995   -227.80284    571.39419   -199.40745    571.26793   -13351.098    175.32277 
    2350    40.582472    40.582472    40.582472   -261.47493   -230.22332    571.26876   -223.18601    571.14537   -331.01546    571.37379   -13351.015     176.3209 
    2400    40.575117    40.575117    40.575117    304.99838    318.71288    572.14571    230.82389       572.42    365.45835    572.35402    -13348.88    173.33846 
    2450    40.576041    40.576041    40.576041    115.98281   -49.519186    572.17293    231.81908    572.15594    165.64854    572.03849   -13349.774    176.22576 
    2500    40.581993    40.581993    40.581993    -86.32248   -223.14465    571.56494   -50.962736    571.46031    15.139951    571.65788   -13348.601    175.08643 
    2550    40.583873    40.583873    40.583873   -280.78867    -329.5054    571.20238   -351.60669    571.10678   -161.25393    571.33808   -13350.803    180.51146 
    2600    40.577203    40.577203    40.577203    317.49535    231.68198     572.3353    393.67729    572.02547    327.12677    572.14987    -13345.69    171.77884 
    2650    40.578933    40.578933    40.578933    13.030925    144.96731    571.91262   -44.713472    571.95296   -61.161069    571.88821   -13350.912    183.01571 
    2700    40.583518    40.583518    40.583518   -174.83865   -293.93299    571.61216   -111.84152    571.43417   -118.74145    571.52195   -13346.798    176.21518 
    2750    40.582481    40.582481    40.582481   -39.748764   -65.184794     571.5462    -87.13603    571.42979    33.074533    571.58308   -13348.669    180.97912 
    2800    40.578705    40.578705    40.578705    108.86451   -19.945463    571.99374    191.66526    571.98037    154.87373    572.11102   -13346.376    177.70923 
    2850    40.579322    40.579322    40.579322    124.53218    81.912131    571.90189    124.60452    571.83667     167.0799    571.99178   -13349.584    185.05983 
    2900    40.584645    40.584645    40.584645   -69.825092    -152.5521     571.4756   -33.708358    571.39868   -23.214815    571.47563   -13345.868     179.0187 
    2950    40.585359    40.585359    40.585359   -182.56258   -154.04171    571.17926   -313.08375    571.22681   -80.562296     571.4319   -13345.484    179.44392 
    3000    40.580393    40.580393    40.580393    103.06038     17.74205    571.88993    199.86076    571.71583    91.578338    571.98069   -13349.988    189.30398 
    3050    40.580507    40.580507    40.580507    62.168107    44.094515    572.00412    20.509683    572.02917    121.90012    571.83838   -13345.218    181.21565 
    3100    40.584708    40.584708    40.584708   -107.42179   -223.08689    571.55487   -59.455111    571.61355   -39.723375    571.57411   -13347.434     186.6605 
    3150    40.585857    40.585857    40.585857   -139.90607   -193.02274    571.36826   -102.84206    571.43064    -123.8534    571.34209   -13344.327    181.78994 
    3200    40.582817    40.582817    40.582817    56.136466   -25.815173    571.54671    83.857537    571.58878    110.36703    571.60417   -13346.758    187.66531 
    3250    40.582883    40.582883    40.582883    202.40337    154.08445     571.8142    136.98617    571.67668    316.13948    571.85877   -13343.925    183.32635 
    3300    40.587578    40.587578    40.587578    -209.4339   -371.94849    571.22004   -87.698913    571.03255   -168.65429    571.11202   -13345.062    186.68197 
    3350    40.586577    40.586577    40.586577   -9.0566859   -69.573038    571.36556   -16.305688    571.32582    58.708669    571.34269    -13343.41    184.64018 
    3400    40.584833    40.584833    40.584833    -4.464904   -169.79656    571.49455    46.672382    571.46202    109.72947    571.40971   -13346.346    191.46455 
    3450    40.585451    40.585451    40.585451    9.8032381   -98.559471    571.42536    71.647379    571.53587    56.321806    571.28472   -13344.024    188.12534 
    3500    40.587697    40.587697    40.587697   -73.255431   -198.59139    571.26414   -60.277768    571.07808    39.102863    571.06822   -13344.644    190.47515 
    3550    40.586958    40.586958    40.586958    -56.96485   -70.538578    571.53956    6.9900731    571.29032   -107.34605    571.36347   -13342.497     187.4769 
    3600    40.585183    40.585183    40.585183    109.67337    96.750394    571.76324    58.529928    571.84494    173.73977    571.51812   -13342.391    188.41229 
    3650    40.586887    40.586887    40.586887   -3.9723187   -11.668849    571.46086   -45.333257    571.34933    45.085149    571.37026   -13342.044    188.88701 
    3700    40.588496    40.588496    40.588496   -27.142131   -83.336603    571.05324   -12.131481    571.20568    14.041689    571.11173   -13342.511    190.95338 
    3750    40.588371    40.588371    40.588371   -6.0911329    43.936973    571.03104   -56.088694     571.0907   -6.1216783    571.04048   -13342.317    191.72699 
    3800    40.587518    40.587518    40.587518    21.179747   -96.321442    571.39096    156.68462    571.40905    3.1760619    571.29679    -13342.31    192.86572 
    3850    40.588168    40.588168    40.588168    103.71552    51.378646    571.28013    75.437151    571.38602    184.33078    571.42546   -13339.435    188.43341 
    3900    40.590071    40.590071    40.590071   -61.991803    41.084916    571.17571   -163.63867    571.17781   -63.421652    571.07274   -13340.244    191.15887 
    3950     40.58905     40.58905     40.58905    26.629811   -116.89505    571.25354    111.68117    571.27842    85.103306    571.29124   -13340.459    192.71663 
    4000     40.58814     40.58814     40.58814    64.030856    18.996702    571.41471    37.882754    571.52609    135.21311    571.28681   -13340.476    193.89746 
    4050     40.58928     40.58928     40.58928    51.730888    26.058107    571.25318    48.279046    571.37346    80.855511    571.16335   -13339.217    192.61086 
    4100    40.591447    40.591447    40.591447    -69.41407   -80.629256    570.94366   -72.506139    571.04312   -55.106814     570.8745   -13342.948    200.98044 
    4150    40.591167    40.591167    40.591167     -59.3496   -170.66274    571.34892   -23.297654    571.25729    15.911595    571.06244    -13338.58    193.66416 
    4200    40.589402    40.589402    40.589402    126.45049    102.31182    571.59452    28.361074    571.46385    248.67858    571.34308   -13337.074    191.89142 
    4250    40.590375    40.590375    40.590375   -5.8786185    -95.14102    571.09743    71.464313    571.19754    6.0408519    571.11565   -13339.822    198.35283 
    4300    40.592312    40.592312    40.592312   -99.932489   -134.35608    570.90552   -92.003546    571.06737   -73.437843    570.90341   -13339.728    199.31371 
    4350    40.591432    40.591432    40.591432    30.669897   -17.453823    571.11305    116.38325    571.09051   -6.9197307     571.1156   -13337.239    195.64072 
    4400    40.590868    40.590868    40.590868    6.1809803   -68.690877    571.02215    32.701826    571.05307    54.531992    571.08029   -13340.043     202.2069 
    4450    40.592123    40.592123    40.592123   -2.7294806    31.335042    571.05369   -35.521345    571.12217   -4.0021387    571.06176   -13337.875    199.15199 
    4500    40.593642    40.593642    40.593642   -65.462705    36.313648    570.96807   -97.154892     570.9097   -135.54687    570.88554    -13337.41     199.3838 
    4550    40.592338    40.592338    40.592338   -64.277171   -161.69941    570.98681   -86.840811    571.12134    55.708711    571.02314   -13338.207    202.07086 
    4600    40.590278    40.590278    40.590278     249.1077    320.61637    571.29458    284.38178    571.40673    142.32493    571.49139   -13335.472    197.91016 
    4650    40.594313    40.594313    40.594313   -36.483052   -43.388388    570.74783     7.304162    570.90639   -73.364929    570.75826   -13336.259    200.57068 
    4700    40.596271    40.596271    40.596271   -162.12355   -160.59482    570.55956   -175.19352    570.76715   -150.58232    570.69859   -13336.155    201.50807 
    4750    40.592916    40.592916    40.592916    73.064448    98.496599    571.08656    218.68878    571.16101   -97.992039    570.88545   -13336.665     203.6226 
    4800    40.592243    40.592243    40.592243    93.558524    177.60258     570.9444   -87.323114    571.23503    190.39611    570.95584   -13336.604    204.63746 
    4850    40.595451    40.595451    40.595451    4.2171739   -108.36622    570.77177    56.758562    570.80166    64.259175    570.91751   -13334.982    202.63372 
    4900     40.59738     40.59738     40.59738   -207.49532   -38.513481    570.49486   -236.77389    570.68295   -347.19859    570.73264   -13335.657    205.06988 
    4950    40.592949    40.592949    40.592949    160.16595    79.901741    571.09532    153.84852    571.10792    246.74758    571.34923   -13333.532    202.08895 
    5000    40.593071    40.593071    40.593071    183.41074     268.5787    571.10307     243.1868    571.07087    38.466717    571.17523   -13334.242    204.58527 
    5050    40.598517    40.598517    40.598517   -115.69735   -166.07939    570.31887     -169.547     570.7715   -11.465649    570.52773   -13334.019    205.27643 
    5100     40.59878     40.59878     40.59878   -111.70343    -8.370906    570.58816   -166.12906     570.5819   -160.61033    570.45832   -13332.452    203.37832 
    5150    40.594255    40.594255    40.594255    96.931121    101.97383    570.89981    87.628943    570.87135    101.19059    570.92093   -13334.964    209.35602 
    5200    40.594043    40.594043    40.594043    196.29774    273.67141    570.94791    221.69784    570.81878    93.523963    570.95358   -13335.021    210.58986 
    5250     40.59947     40.59947     40.59947   -89.380203   -116.97376    570.35308   -109.49403    570.66043    -41.67282    570.46588   -13330.257    202.50162 
    5300    40.599859    40.599859    40.599859   -145.25531   -136.63669    570.39521   -209.45351     570.4408   -89.675735    570.41999   -13332.957    208.84095 
    5350    40.595213    40.595213    40.595213    222.90062    257.82359    570.82227    316.73027    570.99174    94.147998    570.90637   -13332.065    208.23568 
    5400    40.596174    40.596174    40.596174    152.99394    182.46696    570.76491    168.26953    570.91722    108.24535    570.84575   -13331.528    208.31029 
    5450    40.601169    40.601169    40.601169   -137.60144   -286.80303    570.44856   -30.046473    570.47979   -95.954809    570.41025   -13330.969    208.33875 
    5500    40.601195    40.601195    40.601195   -223.23281   -155.64611    570.24689   -294.77355    570.31675   -219.27877    570.29071   -13333.433    214.21786 
    5550    40.595615    40.595615    40.595615    182.19163    236.97313     570.8358    219.29512    570.83925    90.306631    570.76959   -13332.625    213.77091 
    5600     40.59647     40.59647     40.59647    157.71549    95.081188    570.75195    126.56426    570.96477    251.50101    570.93893    -13331.02    211.77575 
    5650    40.602086    40.602086    40.602086   -122.48126   -162.13077     570.4447   -127.35932    570.51392   -77.953682    570.54401   -13328.959    208.89658 
    5700    40.602031    40.602031    40.602031   -129.57349   -144.97713    570.15106    -92.19506    570.17693   -151.54828    570.35554   -13330.973    213.90323 
    5750    40.597351    40.597351    40.597351    249.95841     130.2933    570.74618    256.42866    570.79491    363.15327     570.8181   -13329.355    211.87752 
    5800    40.599001    40.599001    40.599001    81.368288    70.461749    570.63229    220.52608    570.54534   -46.882963    570.70166    -13329.51    213.28364 
    5850    40.603186    40.603186    40.603186   -204.96413   -200.81552    570.20487   -191.63639    570.43618   -222.44049    570.24287   -13330.974    217.21937 
    5900    40.602446    40.602446    40.602446   -126.97389   -248.41884     570.4642   -16.958909    570.47909   -115.54392    570.44266    -13329.54    215.52932 
    5950    40.598403    40.598403    40.598403     257.9828    272.70332    570.77556    348.64877    570.76339    152.59632    570.82428   -13327.614    212.91421 
    6000     40.60021     40.60021     40.60021    86.846298    101.33594    570.50982   -18.435667    570.81777    177.63862    570.64446   -13327.324    213.44455 
    6050     40.60381     40.60381     40.60381     -147.965   -193.76594    570.17441   -73.546053     570.1214   -176.58301    570.19108   -13330.172    220.05867 
    6100    40.602318    40.602318    40.602318    -26.95951    24.115571    570.43553    -126.5007    570.52831    21.506596    570.54153   -13327.624    216.21915 
    6150    40.600005    40.600005    40.600005    91.858136   -57.062472    570.53289     204.7372    570.56761    127.89968    570.58251   -13329.971    221.84627 
    6200    40.601871    40.601871    40.601871     18.81411    18.213485    570.48047    68.835547    570.56389   -30.606703    570.61587   -13326.581     216.3745 
    6250    40.604737    40.604737    40.604737   -124.00793   -72.865587     570.0131   -231.27249    570.17825   -67.885715    570.30694    -13327.32    218.88695 
    6300    40.603226    40.603226    40.603226    38.479186    -71.27144    570.28966     210.4996    570.20608   -23.790601     570.2459   -13327.339     220.0188 
    6350    40.602348    40.602348    40.602348    53.655171    168.57174    570.35793   -65.580559    570.44048    57.974335    570.36394   -13327.803    222.00053 
    6400    40.604389    40.604389    40.604389   -55.165601   -243.02272     570.3453    81.803234    570.44388   -4.2773159    570.29454    -13327.19    221.89227 
    6450    40.605242    40.605242    40.605242   -103.23012   -18.394609    570.14822   -201.09066    570.31112   -90.205083    570.51417   -13326.925    222.45568 
    6500    40.603815    40.603815    40.603815    39.068389   -146.98714    570.43623     -28.4868     570.3009    292.67911    570.50945   -13326.809    223.30103 
    6550     40.60387     40.60387     40.60387    22.403565    29.280286     570.4478    75.786435    570.40012   -37.856025     570.4583   -13324.708    220.30764 
    6600     40.60543     40.60543     40.60543    36.934272   -27.131059     570.1794    31.251669    570.39432     106.6822    570.09412   -13325.152    222.24729 
    6650    40.606492    40.606492    40.606492    27.935899   -38.026677    570.15297    291.58289    570.13936   -169.74852    570.20538   -13323.272    219.68455 
    6700    40.605902    40.605902    40.605902   -2.8302171   -32.479587    570.06059   -15.290284    570.08814    39.279221    570.12577   -13325.483    225.03079 
    6750    40.605041    40.605041    40.605041    116.28823    11.166754    570.25511    118.66357    570.37263    219.03438    570.40734     -13324.7    224.58162 
    6800    40.606317    40.606317    40.606317   -94.135085   -116.06994    570.07523   -53.083775    570.37364   -113.25154    570.37622   -13324.612    225.46738 
    6850    40.606909    40.606909    40.606909   -131.72414   -177.87527    569.99095   -112.67255    570.27101   -104.62461    570.13756   -13327.361    231.83937 
    6900    40.606457    40.606457    40.606457    38.770044   -42.543621    570.21555    139.77117    570.23857    19.082584    570.08373    -13323.81    226.02987 
    6950    40.607088    40.607088    40.607088    -35.87355   -57.864929    569.92212   -99.363756    570.04414    49.608035    569.93626   -13325.976    231.28561 
    7000    40.607798    40.607798    40.607798   -21.517973   -27.074967    570.26624    68.888779    570.32298   -106.36773    570.19361   -13321.758    224.17335 
    7050    40.608361    40.608361    40.608361   -85.333283   -62.294957    569.97754   -78.471956    570.14654   -115.23294    569.98768   -13324.227    229.99186 
    7100    40.607551    40.607551    40.607551  -0.32340728   -15.680349    569.91454    51.728357    570.13263    -37.01823    570.11473   -13323.223    229.10019 
    7150     40.60782     40.60782     40.60782    20.921777    45.317835    569.96751   -55.509065    570.08284    72.956561     570.1058   -13323.207    230.11782 
    7200    40.609482    40.609482    40.609482   -77.821672   -101.91746    569.72538    4.9611119     569.8806   -136.50867    570.10115   -13323.495    231.72021 
    7250    40.609913    40.609913    40.609913    50.433017   0.56460385    569.82619    75.008988    569.87941     75.72546    569.92562   -13321.183    228.29296 
    7300     40.60956     40.60956     40.60956    -69.90714   -13.571925    569.85562   -179.09254    570.15212   -17.056953    570.00085   -13321.826    230.56804 
    7350    40.608273    40.608273    40.608273    147.86894    124.22491     570.1919    181.66507    570.39232    137.71684    570.13709   -13319.822    227.72576 
    7400     40.61072     40.61072     40.61072   -38.902497   -22.541514    569.95536   -63.916036    569.97044   -30.249939    569.91091   -13321.343    231.69891 
    7450      40.6122      40.6122      40.6122   -125.41163   -226.57028    569.44469    -33.61997    569.53562   -116.04465    569.51548   -13322.895    235.72868 
    7500    40.610108    40.610108    40.610108   0.23229987   -85.457416    569.83596    5.8911509    569.92115    80.263165    569.82664   -13321.055    233.20319 
    7550    40.608593    40.608593    40.608593    216.78304    152.03962    570.19503    265.65517    570.20512    232.65434     570.2473   -13319.725    231.64868 
    7600    40.612333    40.612333    40.612333   -46.447022   -71.347699    569.61711    11.081953    569.67822    -79.07532    569.62836    -13319.66    232.54909 
    7650    40.614101    40.614101    40.614101    8.5688691   -63.097679    569.47192    126.74828    569.69731   -37.943999    569.70199   -13317.293     228.9811 
    7700    40.612387    40.612387    40.612387   -98.768505   -57.973541    569.47161   -144.42907    569.85272   -93.902904    569.72634   -13319.588    234.44054 
    7750    40.607968    40.607968    40.607968    199.50031    202.77634    570.17798    254.41477    570.25826    141.30983    569.96787   -13320.441    237.10839 
    7800    40.611213    40.611213    40.611213    10.113906    81.539417    569.66624    -64.43268    570.07544     13.23498    569.91204   -13320.135    237.51591 
    7850    40.615802    40.615802    40.615802    -190.8177   -123.93483    569.35181   -155.49397    569.67947   -293.02431    569.53984   -13316.958    232.37563 
    7900    40.614071    40.614071    40.614071   -62.814506    -179.3342    569.42435   -47.023971    569.69323    37.914647    569.68207   -13319.654    238.59408 
    7950    40.610522    40.610522    40.610522     61.91862    100.38714    570.03789    136.28653    570.07077   -50.917809    569.94321   -13320.447    241.13365 
    8000    40.612416    40.612416    40.612416    54.480615    36.677358    570.02287    96.889371    570.01295    29.875117    569.86161   -13318.108    237.59574 
    8050    40.616739    40.616739    40.616739   -201.42892   -220.49972    569.25621   -266.56184    569.43889   -117.22521    569.41226   -13317.484     237.3978 
    8100    40.613917    40.613917    40.613917   -29.516087   -62.473189    569.64328    8.6103831    569.70705   -34.685456    569.51367   -13318.824    240.98117 
    8150    40.611079    40.611079    40.611079    233.41268     250.2191    569.98652    199.26147    570.13305    250.75748    570.00355   -13316.499    237.46563 
    8200    40.615557    40.615557    40.615557   -73.482497   -143.76325    569.36471    121.83238    569.48122   -198.51662    569.39106   -13318.206    241.75524 
    8250    40.618041    40.618041    40.618041   -99.554299    28.475224    569.44756   -164.46411    569.60223   -162.67401    569.32132    -13314.28    235.13872 
    8300    40.614975    40.614975    40.614975    28.031927   -144.03934    569.56661    205.83186    569.70428    22.303256    569.58728   -13316.211    239.85171 
    8350    40.611951    40.611951    40.611951    171.74974    263.70158    569.83122    140.68604    569.91941    110.86162    570.07858   -13316.616    241.61323 
    8400    40.614453    40.614453    40.614453    143.17086  -0.11537715    569.75901    138.95256    569.91493     290.6754    569.69144   -13313.361    236.28983 
    8450    40.618979    40.618979    40.618979   -283.99859   -222.64095    569.17105   -181.34927    569.35101   -448.00554    569.38861   -13317.732     245.7156 
    8500    40.615661    40.615661    40.615661   -29.771671   -69.689884    569.57509    -99.93417     569.6486    80.309039    569.54297    -13315.56    242.47643 
    8550     40.61192     40.61192     40.61192    275.83701    274.34212    569.92437    321.67168    570.03908    231.49724    569.89027   -13315.123     242.6027 
    8600    40.616597    40.616597    40.616597   -150.21221    -307.5939    569.50301    22.330695    569.55689   -165.37342    569.31032   -13317.089    247.35868 
    8650     40.61938     40.61938     40.61938   -70.949903   -188.44591    569.21857   -23.889919    569.34333  -0.51388247    569.24828   -13313.832    242.01927 
    8700    40.618511    40.618511    40.618511   -118.97868   -41.616921    569.35068   -90.616415    569.47204   -224.70272    569.32696   -13314.804    244.84642 
    8750    40.615356    40.615356    40.615356    184.70792    24.093517    569.65634    267.47839    569.75723    262.55184    569.57117   -13312.664    241.65958 
    8800     40.61578     40.61578     40.61578    49.124551    51.019324    569.67818    85.170428    569.90753    11.183902       569.74   -13313.827    244.86054 
    8850    40.617841    40.617841    40.617841   -30.004023   -14.969104    569.47923    14.218623    569.46851   -89.261589    569.43116    -13314.23    246.57563 
    8900    40.618905    40.618905    40.618905   -196.67237   -69.287145    569.32506   -267.14581    569.36169   -253.58416    569.20919   -13315.482    249.94202 
    8950    40.616633    40.616633    40.616633    113.56155     17.70615    569.72502    205.62112    569.54608    117.35737    569.56636   -13312.174    244.47327 
    9000    40.617981    40.617981    40.617981   -5.3782871   -96.290796    569.39481    102.10605    569.52107   -21.950111    569.29789   -13315.903    252.62496 
    9050    40.620148    40.620148    40.620148   -48.644761    26.770246    569.15452   -95.187336    569.30922   -77.517195    569.46604   -13311.498    245.02404 
    9100    40.620057    40.620057    40.620057   -49.592958   -174.28861    569.21295   -33.121107    569.18271    58.630846    569.21184   -13312.283    247.47347 
    9150     40.61758     40.61758     40.61758    150.26405    225.47259    569.45621    101.73932    569.60211    123.58025    569.59791   -13310.095    244.16108 
    9200     40.61774     40.61774     40.61774    72.268147    41.329583    569.50282    38.217779     569.4157    137.25708    569.51685   -13311.689    248.16871 
    9250    40.619622    40.619622    40.619622   -84.083887   -149.79255    569.20719    -69.87264    569.25551   -32.586469    569.23123   -13311.349    248.42467 
    9300    40.619538    40.619538    40.619538    119.50181    125.80622    569.24711     23.83651    569.38839    208.86271    569.36376   -13311.853    250.31265 
    9350    40.620623    40.620623    40.620623   -23.026387   -212.93313    569.24244    47.062092    569.41366    96.791877    569.26628   -13310.946    249.45277 
    9400    40.621651    40.621651    40.621651   -110.30374    55.349363    569.21863   -308.53971    569.19318   -77.720873    569.19569    -13310.94    250.34293 
    9450    40.620796    40.620796    40.620796    119.80518    22.147835    569.38003    168.09362    569.55782    169.17409    569.37726   -13308.678    246.86507 
    9500    40.621436    40.621436    40.621436   -77.654363   -94.095478    569.12707   -169.62014    569.14697    30.752526    569.15935   -13312.361    254.89143 
    9550    40.620956    40.620956    40.620956    80.176844   -81.439503    569.20062    171.10941    569.25503    150.86063     569.2754   -13310.642     252.4677 
    9600    40.623082    40.623082    40.623082   -100.37971   -50.707541    568.99902   -83.798674    569.10435   -166.63292    569.09697   -13311.014    254.06807 
    9650     40.62368     40.62368     40.62368   -96.708169   -111.18675    569.07084   -146.71085    569.08308   -32.226906    568.87288   -13309.976    252.94982 
    9700    40.621786    40.621786    40.621786    25.766695   -101.68196    569.09836    193.85198    569.10821   -14.869939     569.2357   -13311.217    256.23031 
    9750    40.621617    40.621617    40.621617    63.783347    45.223363    569.26913    18.202269    569.52711    127.92441    569.15136   -13309.015    252.84887 
    9800    40.623567    40.623567    40.623567    30.108544   -256.64207     569.2226    218.38384    569.02113    128.58387    568.95139   -13308.817     253.3361 
    9850    40.625018    40.625018    40.625018   -209.09391   -204.87145    568.80651   -333.00963    569.01101   -89.400642    568.70103    -13310.94    258.31262 
    9900    40.622237    40.622237    40.622237    148.31384    127.49748    569.25809    211.31408    569.32057    106.12996    569.41583   -13307.278    252.08567 
    9950    40.623383    40.623383    40.623383     1.582774    69.834119    568.99885   -163.62004    568.97421    98.534248    568.87463   -13310.401     258.9926 
   10000     40.62607     40.62607     40.62607   -49.067764   -32.888182    568.79226    31.781308    568.80856   -146.09642    568.92944   -13306.221    251.76572 
   10050    40.625601    40.625601    40.625601   -111.26613   -260.75667    568.76893   -93.751589    568.93525    20.709871    568.78076   -13309.037    258.07207 
   10100     40.62165     40.62165     40.62165    194.77386    28.814092    569.34112    505.48434    569.34245    50.023147    569.14999   -13308.396    257.68142 
   10150    40.623957    40.623957    40.623957    148.65111    67.804204    569.10815    36.673761    569.25533    341.47535    569.10181   -13305.783    253.47093 
   10200    40.629076    40.629076    40.629076   -266.31898   -507.92354    568.54452   -161.58297    568.46602   -129.45043    568.45927     -13308.7    259.95316 
   10250    40.626239    40.626239    40.626239    139.51768    308.09578      568.918    15.774635    568.84433    94.682613    569.09005    -13303.86    251.42496 
   10300    40.624167    40.624167    40.624167     -32.4434   -82.799664    569.17576   -62.479318    569.04885    47.948784    568.85919   -13309.107    262.41275 
   10350    40.623612    40.623612    40.623612     175.4361    204.33298    569.23812      258.726    569.24034     63.24931    569.00814   -13305.282     255.8423 
   10400    40.627102    40.627102    40.627102   -209.12009   -222.42107    568.64612   -245.20351     568.8585   -159.73569    568.55613   -13309.194    264.24465 
   10450    40.626953    40.626953    40.626953   -37.296466   -132.87675    568.67986     82.48944    568.72661   -61.502083    568.91822   -13306.088    259.05202 
   10500    40.625844    40.625844    40.625844     3.606221    -58.26973    568.87178   -86.758565    569.03201    155.84696    568.92638   -13306.912    261.45961 
   10550    40.625595    40.625595    40.625595    111.78184    112.94411    569.06948    309.47861    569.15403   -87.077194    568.97736    -13304.68    257.95671 
   10600    40.628278    40.628278    40.628278   -8.4171661     70.80722    568.83217   -24.293744    568.73188   -71.764974     568.7107    -13304.87    259.13252 
   10650    40.629525    40.629525    40.629525    -76.00165    29.818683    568.50524    -84.45566     568.4515   -173.36797     568.4876   -13304.625    259.46901 
   10700    40.627011    40.627011    40.627011    47.009139   -16.427123    568.70768    162.61651    568.61495   -5.1619706    568.69813   -13306.004    262.94252 
   10750    40.625683    40.625683    40.625683    101.81504    128.92511    569.14487    169.09554    569.12734    7.4244807     569.1453   -13304.619    261.05812 
   10800    40.628883    40.628883    40.628883   -57.759356   -232.59692    568.75173   -42.288746    568.73494     101.6076    568.59005   -13305.472    263.48864 
   10850    40.630171    40.630171    40.630171   -214.60569     -342.753    568.49217   -101.34117    568.62169    -199.7229    568.27357   -13305.818    264.95585 
   10900    40.625775    40.625775    40.625775    151.63751    78.462207    569.09957    158.15176    569.03802    218.29857    568.91233   -13303.888    262.00642 
   10950    40.625825    40.625825    40.625825    156.99311    351.87784    568.93377    28.857647     568.9633    90.243849    568.93844   -13304.334    263.65212 
   11000    40.629465    40.629465    40.629465   -4.6147152   -257.73613    568.55932    122.77483    568.54388    121.11715    568.61221   -13303.002    261.85318 
   11050    40.631044    40.631044    40.631044   -216.10871   -397.60634    568.45245   -158.54736    568.47662   -92.172443    568.47264   -13305.477     267.4096 
   11100    40.628304    40.628304    40.628304   -8.2088922    -27.43093    568.70155   -7.8096948    568.74072    10.613949    568.65575   -13304.539    266.35772 
   11150    40.626833    40.626833    40.626833    47.524497   -24.750529    568.79689    171.35739    568.91767   -4.0333658    568.70255   -13304.416    266.89007 
   11200    40.628827    40.628827    40.628827    66.135866   -26.759252    568.66084    -54.27607    568.79884    279.44292    568.61221   -13302.796     264.5124 
   11250    40.631237    40.631237    40.631237   -205.72997   -313.74178    568.44861   -196.51809    568.46108   -106.93004    568.35146   -13303.694    267.01032 
   11300    40.627988    40.627988    40.627988    145.36804    303.85977    568.86199    46.112924    568.96729    86.131426    568.90578   -13301.625    263.75624 
   11350    40.627598    40.627598    40.627598    123.42655    49.406004    568.94494     151.7312    568.94293    169.14245    568.62161     -13302.5    266.19717 
   11400    40.631013    40.631013    40.631013   -77.358293   -166.48749    568.37035    -50.58186    568.60707   -15.005531    568.49679   -13302.024    266.01716 
   11450    40.632363    40.632363    40.632363   -19.472944    -90.11872    568.26393   -33.678407    568.51166    65.378293     568.2555    -13300.91    264.60553 
   11500    40.630696    40.630696    40.630696   -3.0508462   -160.00149    568.49102    48.513397    568.49284    102.33555    568.38996   -13301.475    266.43476 
   11550    40.628804    40.628804    40.628804    126.34517    150.27522    568.61917    126.02328    568.63162    102.73703     568.7432   -13302.117    268.41079 
   11600    40.630261    40.630261    40.630261    73.233627   -189.57979    568.73251    117.34552    568.57748    291.93515    568.48538   -13300.928    266.82904 
   11650    40.634013    40.634013    40.634013   -181.24677   -102.18677    567.96657   -93.849952     568.1157   -347.70358    568.18809   -13302.663    270.90194 
   11700    40.633111    40.633111    40.633111   -58.957529   -187.11382    568.34008   -111.76711    568.56401    122.00834    568.30339   -13300.459     267.3539 
   11750    40.630416    40.630416    40.630416    24.711564   -45.483729    568.55643    126.59345    568.62448   -6.9750275    568.47028   -13302.282    271.58763 
   11800     40.63046     40.63046     40.63046    26.762155   -93.700409    568.39643     19.32279    568.53754    154.66408    568.40378   -13302.153    272.05155 
   11850    40.633042    40.633042    40.633042   -87.038853   -104.27361    568.28728    -134.4311    568.40988   -22.411855    568.39033   -13300.574    269.69782 
   11900    40.633192    40.633192    40.633192   -79.570443    23.165684    568.12247   -28.753296    568.38404   -233.12372    568.38504   -13299.843    268.98867 
   11950    40.631173    40.631173    40.631173    118.26227     10.00073    568.65242    122.41582    568.38338    222.37025    568.36642   -13301.134    272.18158 
   12000    40.632786    40.632786    40.632786   -78.056303    59.459661    568.34473   -129.93546    568.38479   -163.69311     568.2328   -13301.306    273.20595 
   12050    40.633253    40.633253    40.633253   -112.85073   -227.21485    568.17129   -134.45662    568.23722    23.119281    568.27344   -13301.911    275.06268 
   12100    40.631762    40.631762    40.631762    74.823908    125.98572    568.49558   -51.757588    568.55238     150.2436    568.40324   -13300.219    272.47072 
   12150    40.632564    40.632564    40.632564    51.699905    67.557455    568.32313    36.367176    568.34125    51.175083    568.34924   -13299.354    271.46837 
   12200    40.635215    40.635215    40.635215   -52.400902   -178.48675     568.1279   -65.642467    568.12327    86.926515    568.17252   -13298.614    270.70756 
   12250    40.635432    40.635432    40.635432   -130.77979   -126.65134    568.04631   -32.035334    568.13709   -233.65269    567.99503   -13301.017    276.02303 
   12300    40.632938    40.632938    40.632938    135.49607    51.613656    568.43654    68.905016    568.41371    285.96953    568.37871   -13298.193     271.2239 
   12350      40.6338      40.6338      40.6338    110.79204   -4.0624609    568.21978    156.24311     568.1659    180.19546     568.2573   -13298.862    273.17917 
   12400    40.636491    40.636491    40.636491   -84.226133   -156.34843    568.00687   -53.223318    567.92085   -43.106656    567.98136   -13298.516    273.16508 
   12450     40.63608     40.63608     40.63608   -105.43112   -113.94969     568.1804    31.671273    568.23613   -234.01495    568.03033   -13299.057    274.85802 
   12500     40.63349     40.63349     40.63349    73.301941   -126.24504    568.18741     99.61075    568.45102    246.54011    568.15655   -13299.132    275.65091 
   12550    40.634765    40.634765    40.634765    108.36807    158.23465    568.21218    4.7940989    568.26417    162.07545    568.23187   -13297.624     273.3763 
   12600    40.638009    40.638009    40.638009   -209.13169   -344.18259    567.92279   -95.649934    568.01007   -187.56254    567.98966   -13298.598     275.8979 
   12650    40.635318    40.635318    40.635318    42.289504    47.830192    568.21973   -45.030418    568.13435    124.06874    568.28846   -13299.196    277.68473 
   12700    40.634776    40.634776    40.634776    50.474438   -38.278257    568.26419    52.429299    568.29107    137.27227     568.1753    -13298.83    277.60061 
   12750    40.637413    40.637413    40.637413   -54.674044    116.52329    568.09605   -89.556189    567.92101   -190.98924    567.88389   -13297.222    275.11887 
   12800    40.637637    40.637637    40.637637    17.392318    -212.4068    568.33432    113.15086    568.07904     151.4329    567.87193   -13296.433    274.21775 
   12850    40.636444    40.636444    40.636444   -3.2089293    27.118558    568.32579   -64.830864    568.32537    28.085518    568.22585   -13296.615    275.18459 
   12900    40.635496    40.635496    40.635496    112.85919   -16.130395    568.15336    171.77843    568.16882    182.92953    568.22842   -13296.632    275.83382 
   12950     40.63761     40.63761     40.63761    70.575063    60.800672    567.94399    54.946595    567.86316    95.977923    568.13953   -13296.897    276.95357 
   13000    40.639634    40.639634    40.639634   -170.17992   -259.99103    567.67299   -351.17303    567.71092    100.62431    567.71253   -13298.108    279.90085 
   13050    40.637291    40.637291    40.637291   -3.4885987   -69.042692    568.10863    144.65744    567.96571   -86.080541    568.06681    -13297.37    279.07051 
   13100    40.635236    40.635236    40.635236    285.64911    315.25233    568.53852    260.62272    568.51058    281.07229    568.22781   -13293.252    271.69647 
   13150    40.639057    40.639057    40.639057   -181.74363   -167.99126    567.83337   -151.01727    567.97799   -226.22236     567.7053   -13298.159     281.7789 
   13200     40.63981     40.63981     40.63981    56.183701   -181.40784    567.87026    247.79395    567.91289      102.165    567.74936   -13294.232    274.76961 
   13250    40.638489    40.638489    40.638489   -86.426982   -235.51017    567.92924   -189.17544    568.02235    165.40466    568.11601   -13297.241    281.17201 
   13300    40.635856    40.635856    40.635856    92.943918    58.114107    568.24108    243.30267    568.24132    -22.58502    568.32007   -13296.341    280.00382 
   13350    40.637821    40.637821    40.637821   -11.807637   -71.060899    568.12295   -55.137929    568.01756    90.775916    567.90897   -13297.248    282.32932 
   13400    40.640089    40.640089    40.640089   -244.51189   -222.86359    567.99191   -325.95106    567.73316     -184.721    567.81636   -13296.377    281.21349 
   13450    40.637708    40.637708    40.637708    224.67057    299.08332    568.22263    228.42859    568.05346     146.4998    567.96979   -13293.736    276.66879 
   13500    40.638508    40.638508    40.638508   -35.183139   -224.25489     568.0938   -23.668273    567.90218    142.37375    567.74866    -13294.82     279.3269 
   13550    40.638004    40.638004    40.638004   -29.545736   -110.31045    568.02088    48.517033    567.98409   -26.843796    567.91324   -13296.986    284.07303 
   13600    40.637313    40.637313    40.637313    2.9985382    -20.30025    568.00909   -156.28401    568.35045    185.57988     567.9472   -13296.215    283.12797 
   13650    40.638396    40.638396    40.638396   -14.068008   -114.53994    568.01014    18.101605     568.1105    54.234306    568.10494   -13294.578    280.50422 
   13700     40.63977     40.63977     40.63977   -24.028045   -31.566892    567.93533   -88.182613    568.02542     47.66537    568.07665   -13294.035    279.99381 
   13750     40.63924     40.63924     40.63924    52.050265    -17.10691    567.93961   -89.977532    568.11802    263.23524    567.93415   -13293.941    280.34795 
   13800    40.638391    40.638391    40.638391    110.32958    153.57904    568.08044  -0.92167679     568.0579    178.33139    568.18351   -13292.726    278.53424 
   13850    40.638572    40.638572    40.638572     76.64713   -45.554201    568.07154    116.22915    567.96531    159.26645    568.07368   -13294.325    282.15374 
   13900    40.640473    40.640473    40.640473     9.791836   -57.548615    567.79586    19.475116    567.79579    67.449007    567.74939   -13293.875     281.8037 
   13950    40.642547    40.642547    40.642547   -155.24301   -131.91731    567.57412   -131.80256     567.7161   -202.00915     567.6283   -13295.158    284.80494 
   14000     40.64039     40.64039     40.64039   -35.655012   -332.61646    568.00378     52.87647    567.95852    172.77495    567.93589   -13293.769    282.62806 
   14050    40.638549    40.638549    40.638549    49.507167    87.248983    568.04415    4.9390984    567.92952    56.333419    568.07882   -13295.744    286.96311 
   14100    40.639947    40.639947    40.639947      2.72087    13.003139    568.03946   -31.598315    567.88704    26.757785    567.85215   -13294.216    284.51509 
   14150    40.641101    40.641101    40.641101    30.233658   -3.9348283     567.7992    187.21131    567.72943   -92.575504    567.60843   -13291.686    280.12516 
   14200    40.641083    40.641083    40.641083   -50.158484   -149.02153     567.8392   -41.156181    567.79461    39.702255    567.76363   -13294.162    285.40899 
   14250    40.641189    40.641189    40.641189    22.345014    12.646576    567.79703   -142.41608    567.90736    196.80455    567.92133   -13294.206    285.98202 
   14300    40.641404    40.641404    40.641404    104.07924    43.143855    567.81266    68.220708    568.09916    200.87317    567.88803   -13290.024    278.38251 
   14350    40.641892    40.641892    40.641892    -1.845087   -72.708735    567.89874   -198.09654    567.70422    265.27002    567.79677   -13293.086    284.79306 
   14400    40.641417    40.641417    40.641417   -36.180675   -153.97295    567.89725   -44.451724    567.44781    89.882649    567.75953   -13295.188     289.3449 
   14450    40.640686    40.640686    40.640686    108.74009    143.41713    568.05492    101.92335    568.08459    80.879783    567.65318   -13291.498    282.67855 
   14500    40.643262    40.643262    40.643262   -14.583012    32.320591    567.72813   -48.607513    567.80481   -27.462113     567.6892   -13292.327    284.74998 
   14550    40.642986    40.642986    40.642986   -37.790055   -226.65181    567.73066     65.67136    567.74815     47.61028    567.64456   -13292.161    284.89494 
   14600    40.640718    40.640718    40.640718    64.243243    64.196799    568.13137   -6.1570565    568.02589    134.68999    568.00087   -13292.745    286.48662 
   14650    40.641474    40.641474    40.641474    18.583595    65.058129    567.97756   -126.14258    568.00194    116.83524    567.86169   -13292.072    285.64295 
   14700    40.643283    40.643283    40.643283   -80.770125     20.17634    567.87407   -145.49623    567.65047   -116.99048      567.707   -13293.395    288.65391 
   14750      40.6432      40.6432      40.6432    18.825638    12.131751    567.83635   -5.8742923    567.66778    50.219456    567.67902    -13291.05    284.57408 
   14800    40.641828    40.641828    40.641828    59.688144     13.38137    567.66455   -6.9829497    567.95173    172.66601    567.78148   -13291.847    286.56654 
   14850    40.641895    40.641895    40.641895    66.260735    -31.36407     567.7965    59.560317    567.89719    170.58596    567.84469   -13291.946     287.1986 
   14900    40.644253    40.644253    40.644253    -137.8918   -28.810621    567.46673   -283.00416    567.60917   -101.86061    567.48899   -13293.074    289.82247 
   14950    40.643903    40.643903    40.643903   -25.902299   -149.35746    567.64817   -19.989706    567.43917     91.64027    567.64387   -13291.409    287.03537 
   15000    40.641649    40.641649    40.641649     121.2001    369.62337    567.75667   -105.35529    567.85286    99.332208    567.74831    -13291.13    286.92694 
   15050    40.640804    40.640804    40.640804    124.25808    130.95532    568.00445    266.91166    567.94677   -25.092751    568.04442   -13290.189    285.52842 
   15100    40.643721    40.643721    40.643721    68.421529    56.283599    567.68949    34.445267     567.7829    114.53572    567.58036    -13289.81    285.21211 
   15150    40.646227    40.646227    40.646227   -260.38134   -424.20211    567.30386   -211.45708     567.4619   -145.48484    567.34075   -13291.683    289.25668 
   15200    40.641762    40.641762    40.641762    130.30459    204.55067    567.89324    116.31639    567.93773    70.046715     568.0525   -13290.562    287.49797 
   15250    40.641099    40.641099    40.641099    98.566659     46.09651    567.87346    79.674937    567.93112    169.92853    567.81649   -13292.078    290.84329 
   15300    40.644544    40.644544    40.644544   -118.84699    75.931577    567.45558   -140.47862    567.62516   -291.99393    567.58256   -13292.477    292.02294 
   15350    40.645904    40.645904    40.645904   -177.19528   -169.86276    567.40066   -274.56886    567.51262   -87.154236    567.61199   -13291.589    290.70199 
   15400    40.643297    40.643297    40.643297    83.933268    152.76898    567.76432      41.9908    567.80596    57.040018     567.9405   -13289.785    287.61095 
   15450    40.643212    40.643212    40.643212   -47.128333    -3.393349     567.6594   -127.31612    567.65437   -10.675524    567.36351   -13293.994    296.15045 
   15500    40.644556    40.644556    40.644556   -10.913815    130.34848    567.62573   -50.513648    567.60196   -112.57628     567.7972   -13289.964    288.73837 
   15550    40.645592    40.645592    40.645592   -114.97909   -134.85099     567.6354   -47.571431     567.4703   -162.51484    567.56778   -13290.329    289.82883 
   15600    40.643746    40.643746    40.643746    55.880874    222.32778    567.56137   -81.345277    567.70049    26.660114    567.56418   -13290.832    291.18802 
   15650    40.643304    40.643304    40.643304    147.72957    187.86622    567.93262    99.284361    567.85476    156.03812     567.7061   -13288.079    286.24089 
   15700    40.645435    40.645435    40.645435   -95.613541    108.29415    567.48289   -140.73087    567.45046    -254.4039    567.40287   -13291.127    292.51058 
   15750    40.645221    40.645221    40.645221   -119.59063   -210.43333    567.37105     -83.1876    567.42134   -65.150955    567.76664    -13290.72    292.09127 
   15800     40.64282     40.64282     40.64282    128.44945    151.43527    567.57016   -10.250141    567.79402    244.16322    567.81857   -13290.004    291.06987 
   15850    40.643562    40.643562    40.643562    255.12946    184.87633     567.9649    204.18276    568.03597    376.32928    567.75982    -13286.28     284.2209 
   15900    40.648933    40.648933    40.648933   -203.49251    -85.01199    567.25807   -224.27456    567.19086   -301.19097     567.2486   -13289.703    291.20079 
   15950    40.647235    40.647235    40.647235   -177.93799   -277.47371    567.26532   -130.23204    567.14033   -126.10822    567.28558   -13291.204    294.46058 
   16000    40.641642    40.641642    40.641642    253.28201    245.03511     567.9184    116.57843    567.87418    398.23248    567.80077   -13290.572    293.59034 
   16050     40.64468     40.64468     40.64468    44.585677   -2.5265583    567.48734    193.21688    567.70932   -56.933291    567.68439   -13289.491    291.84188 
   16100    40.648092    40.648092    40.648092   -96.521565   -56.646929    567.31438   -213.35102    567.37301   -19.566745    567.36081   -13287.606    288.53645 
   16150    40.646183    40.646183    40.646183   -124.85479    -223.7641    567.40726    -140.8099    567.58398   -9.9903647    567.32968   -13291.657    296.70436 
   16200    40.643683    40.643683    40.643683    260.25256    311.88632    567.73198    121.74351    567.81652    347.12785    567.71543   -13286.817    287.67145 
   16250    40.647248    40.647248    40.647248   -64.881933    27.348632    567.39024   -187.98853    567.31533   -34.005901    567.25155   -13289.246    292.70305 
   16300    40.647707    40.647707    40.647707   -300.11993   -413.03993    567.19559   -163.64314    567.08532    -323.6767    567.18146   -13292.628    299.56755 
   16350    40.643982    40.643982    40.643982     184.8353    291.46572    567.54849    92.583257    567.78119    170.45693    567.51636   -13288.662    292.21654 
   16400    40.646359    40.646359    40.646359   -120.05301   -36.129501    567.28521   -117.08587    567.48406   -206.94367    567.36539   -13290.463    296.02097 
   16450    40.646194    40.646194    40.646194     131.3871    117.35014    567.17597    123.33839    567.56908    153.47277    567.36506   -13286.527    288.71751 
   16500    40.645997    40.645997    40.645997    19.115891    199.68744    567.43878   -44.688078    567.55705   -97.651693    567.24448   -13287.923    291.72469 
   16550    40.645018    40.645018    40.645018      139.161    245.82592    567.59744    67.598466      567.739     104.0586    567.69589   -13286.999    290.23117 
   16600    40.646961    40.646961    40.646961   -47.628543   -26.188985    567.42032   -115.06211    567.39627   -1.6345282     567.4154   -13288.658    293.73898 
   16650    40.647639    40.647639    40.647639   -163.65753   -132.37627    567.27442   -199.92358    567.36729   -158.67272    567.34123   -13289.088    294.86789 
   16700    40.644928    40.644928    40.644928    90.328838    3.7104478    567.54922    156.31857    567.43352     110.9575    567.47577   -13289.441    295.84883 
   16750    40.645008    40.645008    40.645008    66.487621    308.01568    567.70229   -9.2102034    567.68562   -99.342608    567.61892   -13287.397    292.18604 
   16800    40.646982    40.646982    40.646982   -28.647079    -1.732685    567.40615   -113.97574    567.44652    29.767187    567.27779   -13288.147    293.92404 
   16850    40.647575    40.647575    40.647575   -113.98103   -112.42947    567.35206   -158.39772    567.31824   -71.115905    567.30022   -13289.385     296.6021 
   16900     40.64558     40.64558     40.64558    185.06392    171.88758    567.61971    257.47412    567.65299    125.83005    567.53326   -13286.361    291.02729 
   16950    40.646624    40.646624    40.646624   -8.3386466    105.91063    567.33572   -153.59331    567.52979    22.666735     567.4066   -13288.359    295.16891 
   17000    40.647892    40.647892    40.647892     -84.9798   -202.79434    567.23857   -84.437064    567.33996    32.292003    567.47166   -13288.971    296.61817 
   17050    40.647433    40.647433    40.647433   -41.121248    62.970544    567.43378    -258.0537    567.50758    71.719408    567.36051   -13287.587    294.20613 
   17100    40.646208    40.646208    40.646208    51.590538   -157.36983    567.65809    181.58593    567.48319    130.55551    567.49314   -13288.503    296.24409 
   17150     40.64691     40.64691     40.64691   -65.900093    88.764333    567.27956   -136.20971    567.57509    -150.2549    567.32928   -13288.567    296.63092 
   17200    40.647071    40.647071    40.647071   -5.7301942    85.350031     567.5384   -56.817588    567.47248   -45.723026    567.35108   -13287.799    295.40475 
   17250    40.647511    40.647511    40.647511    -25.19417   -189.67004     567.2776    87.685232    567.38666    26.402299    567.43107   -13287.151     294.4074 
   17300    40.646197    40.646197    40.646197    51.128973   -28.626207    567.49563   -66.967949    567.76734    248.98108    567.58324   -13286.795    293.97096 
   17350    40.645704    40.645704    40.645704     25.76403    133.32117    567.45538   -41.976564    567.45586    -14.05252     567.6857   -13287.693    295.95127 
   17400    40.646821    40.646821    40.646821    88.993293   -51.853742    567.32009    109.37425    567.53861    209.45937    567.37408   -13287.471    295.76596 
   17450    40.649304    40.649304    40.649304    -91.48287    7.8513218    567.05093   -111.95574     567.3315   -170.34419    567.27971   -13287.294    295.65469 
   17500     40.64965     40.64965     40.64965   -125.92975   -340.24098    566.97986    26.244848    567.31229   -63.793135    567.20533   -13288.019    297.29323 
   17550    40.646417    40.646417    40.646417    4.3014998   -46.704835    567.42119   -108.84987    567.51446     168.4592    567.30671   -13288.223    297.92335 
   17600    40.644359    40.644359    40.644359    139.68143    106.22348    567.69029    162.31823    567.66887    150.50258    567.61756   -13287.957    297.64168 
   17650    40.647422    40.647422    40.647422    14.878034    216.79361    567.50048   -132.52787    567.56371   -39.631644    567.42479   -13285.756    293.60247 
   17700    40.650624    40.650624    40.650624   -138.79927   -55.326369    566.99232   -197.14582    567.18531   -163.92561    567.05491   -13288.721    299.56013 
   17750    40.649172    40.649172    40.649172   -36.150917    61.241998    567.23562    19.197546    567.40209    -188.8923    567.31898    -13286.87    296.19526 
   17800    40.646619    40.646619    40.646619    134.11957     266.8086    567.57464    61.829198    567.78174    73.720902     567.5036   -13285.681    294.11104 
   17850    40.648224    40.648224    40.648224   -10.097739   -112.46807    567.40774   -4.1572798    567.37104    86.332135    567.21715   -13287.112    297.09284 
   17900    40.649757    40.649757    40.649757   -213.19533    -135.9982    567.12976   -465.20502    567.06037   -38.382757    567.08233   -13288.333    299.66476 
   17950    40.646153    40.646153    40.646153     133.7404    157.47713     567.4924    242.56937    567.46688    1.1747135     567.4635   -13286.412    296.14748 
   18000    40.646559    40.646559    40.646559    169.63043    205.26381    567.53072    36.418296    567.49646    267.20919    567.31535   -13287.075    297.62351 
   18050    40.652159    40.652159    40.652159   -295.84138   -172.97238    566.79154   -283.00239     566.9623   -431.54937     566.8954    -13288.39     300.3592 
   18100    40.650501    40.650501    40.650501    -73.75406   -73.999733    567.24036    -130.0967    567.26353   -17.165743    567.16881   -13285.795    295.52623 
   18150    40.646245    40.646245    40.646245    96.166344    155.87866    567.64936   -60.233594    567.57545    192.85397    567.36055   -13287.652    299.30984 
   18200    40.646927    40.646927    40.646927    175.47057    206.98394    567.52245     341.3466    567.49955   -21.918825    567.39511   -13285.156    294.66771 
   18250    40.652093    40.652093    40.652093   -179.84718   -56.152416    566.86832   -468.95038    566.92356   -14.438737    566.98501   -13286.688    297.81787 
   18300     40.65108     40.65108     40.65108   -146.48119   -204.13115    567.04694   -120.05816    567.11433   -115.25425    567.11711   -13286.354    297.34563 
   18350    40.647339    40.647339    40.647339    152.34576    345.38026    567.34672    116.05076    567.72623   -4.3937254    567.32014   -13287.164    299.08915 
   18400    40.648314    40.648314    40.648314    39.840227    111.98087    567.28088    -97.70683    567.66535    105.24664    567.22636   -13284.387    293.89244 
   18450    40.649518    40.649518    40.649518   -43.171992   -2.8361551    567.04976     129.5971    567.32876   -256.27692    567.11671   -13286.612    298.36329 
   18500    40.648505    40.648505    40.648505    101.24795    218.24174    567.36293    15.561833    567.44366     69.94029    567.23548    -13284.19    293.83806 
   18550    40.648958    40.648958    40.648958   -52.247421   -4.6820598    567.25852   -196.79381    567.07298    44.733607    567.19666   -13288.345    302.03487 
   18600    40.649113    40.649113    40.649113   -56.733612   -3.5033343    567.29438   -90.042583    567.28719    -76.65492    567.20072   -13286.397    298.41916 
   18650    40.648364    40.648364    40.648364    68.655145    224.00438    567.39473   -188.23487    567.46845    170.19593    567.34598   -13286.073    297.94127 
   18700    40.650336    40.650336    40.650336   -80.376999   -141.46978    567.10388   -13.513316    567.22588     -86.1479    567.10368   -13285.705    297.38366 
   18750    40.650298    40.650298    40.650298   -128.58808   -83.145517    567.04048    -205.1903    567.16551   -97.428425    566.81567   -13287.988     301.9554 
   18800    40.646816    40.646816    40.646816    138.77851    312.50042    567.51224    83.938646    567.62087     19.89647    567.47656   -13284.734    295.80138 
   18850    40.648234    40.648234    40.648234    30.728254   -38.662071    567.41307   -7.3471006    567.43392    138.19393    567.33322   -13286.842    300.01921 
   18900    40.650992    40.650992    40.650992    -42.95928    148.55719     567.0251   -127.39375    567.05322   -150.04128    567.15268   -13285.424    297.41421 
   18950    40.650288    40.650288    40.650288   -100.85335    -181.3983    567.19558    62.860203    567.11226   -184.02196    567.05744   -13286.265    299.17496 
   19000    40.647024    40.647024    40.647024    214.95262    284.83887    567.45747    51.056801    567.57721    308.96218    567.32018   -13285.026    296.90714 
   19050    40.649705    40.649705    40.649705   -81.133724   -129.00732    567.17976    75.547217    567.04118   -189.94107     567.0149   -13286.857    300.57186 
   19100    40.651126    40.651126    40.651126   -101.32617   -31.477654    567.07265   -154.66723    567.11844   -117.83362    566.90787    -13287.34    301.62988 
   19150    40.650514    40.650514    40.650514   -61.937819   -59.029845     567.1743   -54.942506    567.04709   -71.841107     566.9112    -13286.17    299.48627 
   19200    40.648958    40.648958    40.648958   -40.202422     28.23678    567.13945   -47.031317    567.37067   -101.81273    567.09457   -13287.908    302.96654 
   19250    40.648297    40.648297    40.648297    193.92933    110.86583    567.40892    160.24061    567.43302    310.68154    567.26659   -13283.866     295.2575 
   19300    40.653967    40.653967    40.653967   -319.65063   -433.94692    566.56271   -265.61363    566.64342   -259.39133    566.66092   -13288.426    304.19497 
   19350    40.650697    40.650697    40.650697   -50.380578    75.039162    567.09581    -108.3705    567.09045   -117.81039    567.17828   -13284.214    296.15027 
   19400    40.645481    40.645481    40.645481    233.31821   -13.523612    567.80187    276.96417    567.61876    436.51408    567.59391   -13286.245    300.18916 
   19450    40.648108    40.648108    40.648108    86.601651    177.74298    567.32218     85.95445    567.46869   -3.8924808    567.35887   -13284.204    296.34544 
   19500    40.652051    40.652051    40.652051   -87.655979    -108.3931     566.9181   -28.882256    567.02857   -125.69258    566.91458   -13283.979    296.00928 
   19550    40.652947    40.652947    40.652947   -162.69022   -207.64374    566.90822   -247.02321    566.86225   -33.403704    566.72577   -13286.868    301.69673 
   19600    40.648603    40.648603    40.648603    123.89806     187.6444    567.23644    253.36595    567.34676   -69.316182    567.15656   -13284.234    296.69118 
   19650    40.646314    40.646314    40.646314    152.06679    299.51493    567.56888    114.99572    567.60196    41.689733      567.496    -13285.08    298.41695 
   19700    40.648757    40.648757    40.648757   -6.5061867   -21.901854     567.3817    105.41324    567.26731   -103.02995     567.2749   -13285.998    300.27426 
   19750    40.650718    40.650718    40.650718   -105.49055   -89.223316    567.04609   -108.47253     567.0048   -118.77579    566.98959   -13285.718     299.8116 
   19800    40.650581    40.650581    40.650581  -0.49329861    115.55627    567.11717    120.12138    567.06401   -237.15754    567.01519   -13285.414    299.30153 
   19850    40.649939    40.649939    40.649939   -90.391231   -73.085082    567.02484   -203.69606    567.11768    5.6074539    567.11957   -13286.062    300.63334 
   19900    40.648117    40.648117    40.648117    37.872772    145.97849    567.29624    105.26909    567.42723   -137.62926    567.18906   -13286.943    302.41409 
   19950    40.648134    40.648134    40.648134   -71.534231   -120.29811    567.29425   -29.231516    567.31921   -65.073071    567.22224    -13286.23    301.10262 
   20000    40.648392    40.648392    40.648392    206.27109     236.8314    567.13678    298.12899    567.28826    83.852874    567.26002   -13283.071    295.05319 
Loop time of 1101.39 on 4 procs for 20000 steps with 4000 atoms

Pair  time (%) = 994.827 (90.3248)
Neigh time (%) = 0 (0)
Comm  time (%) = 72.6364 (6.59498)
Outpt time (%) = 0.114003 (0.0103508)
Other time (%) = 33.8111 (3.06986)

Nlocal:    1000 ave 1000 max 1000 min
Histogram: 4 0 0 0 0 0 0 0 0 0
Nghost:    4235 ave 4235 max 4235 min
Histogram: 4 0 0 0 0 0 0 0 0 0
Neighs:    70000 ave 72653 max 67302 min
Histogram: 1 0 1 0 0 0 0 1 0 1
FullNghs:  0 ave 0 max 0 min
Histogram: 4 0 0 0 0 0 0 0 0 0

Total # of neighbors = 280000
Ave neighs/atom = 70
Neighbor list builds = 0
Dangerous builds = 0
# run 	200000

# Use this if debug
# run 	1000
# run 200
unfix 1

# Store final cell length for strain calculations
variable tmp equal "lx"
variable L0 equal ${tmp}
variable L0 equal 40.6483922577475
print "Initial Length, L0: ${L0}"
Initial Length, L0: 40.6483922577475

######################################
# DEFORMATION
reset_timestep	0
set atom * xrad 0 yrad 0 zrad 0 vxrad 0 vyrad 0 vzrad 0
  4000 settings made for xrad
  4000 settings made for yrad
  4000 settings made for zrad
  4000 settings made for vxrad
  4000 settings made for vyrad
  4000 settings made for vzrad
fix		1 all npt temp 300 300 1 y 0 0 1 z 0 0 1 drag 1

variable srate equal 1.0e10
# variable srate equal 1.0e9 # tiny time step

variable srate1 equal "v_srate / 1.0e12"
fix		2 all deform 1 x erate ${srate1} units box remap x
fix		2 all deform 1 x erate 0.01 units box remap x

# Output strain and stress info to file
# for units metal, pressure is in [bars] = 100 [kPa] = 1/10000 [GPa]
# p2, p3, p4 are in GPa
variable strain equal "(lx - v_L0)/v_L0"
variable p1 equal "v_strain"
variable p2 equal "-pxx/10000"
variable p3 equal "-pyy/10000"
variable p4 equal "-pzz/10000"

# fix def1 all print 100 "${p1} ${p2} ${p3} ${p4}" file Al99.eam_rad.alloy.def1.txt screen no
# IMPLEMENTATION HERE
variable p5 equal "-pxxrad/10000"

# VERSION add rad variables
variable p6 equal "-pyyrad/10000"
variable p7 equal "-pzzrad/10000"

# VERSION ublb coupled/decoupled scheme
# variable p6 equal "-pxxub/10000"
# variable p7 equal "-pxxlb/10000"

fix def1 all print 20 "${p1} ${p2} ${p3} ${p4} ${p5} ${p6} ${p7}" file Al99.eam_rad.alloy.def1.txt screen no

# Use cfg for AtomEye
# dump 		1 all cfg 250 dump.tensile_*.cfg mass type xs ys zs c_csym c_peratom fx fy fz
# dump_modify 1 element Al

# print output to a text file every n timesteps
# dump		2 all custom 50 dump.xyz_rvf_rad.tensile_*.txt mass type id x y z vx vy vz fx fy fz xrad yrad zrad vxrad vyrad vzrad fxrad fyrad fzrad # use for rad developement
# dump		2 all custom 50 dump.xyz_rvf_rad.tensile_*.txt mass type id x y z vx vy vz fx fy fz xrad yrad zrad vxrad vyrad vzrad fxrad fyrad fzrad xub yub zub vxub vyub vzub fxub fyub fzub xlb ylb zlb vxlb vylb vzlb fxlb fylb fzlb # use for ublb developement

# Display thermo
thermo 	50
# thermo 1
# thermo_style	custom step v_strain temp v_p2 v_p3 v_p4 ke pe press

# IMPLEMENTATION HERE
thermo_style	custom step v_strain temp v_p2 v_p3 v_p4 v_p5 v_p6 v_p7 ke pe press
run	20000
Memory usage per processor = 5.63763 Mbytes
Step strain Temp p2 p3 p4 p5 p6 p7 KinEng PotEng Press 
       0            0    295.05319  -0.02368314 -0.029812899 -0.0083852874 -0.056713678 -0.056728826 -0.056726002    152.51633   -13283.071    206.27109 
      50       0.0005    305.27076  0.076385928  0.026700653   0.02544381 -0.056654039 -0.056657137 -0.056654623    157.79791   -13288.296   -428.43464 
     100        0.001    295.42717   0.06301276   0.02872752  0.009142002          nan -0.056659961          nan    152.70965   -13283.145   -336.27427 
     150       0.0015    303.35582   0.10391563  0.021016666 -0.016979124 -0.056663136 -0.056673033 -0.056667536    156.80806   -13287.176    -359.8439 
     200        0.002    301.05276   0.11977248 -0.063221078 0.0076251495          nan -0.056698915          nan    155.61758   -13285.908   -213.92183 
     250       0.0025    295.64903   0.15045177 -0.011141413 -0.017034305  -0.05658413 -0.056650894 -0.056626532    152.82433   -13283.033   -407.58686 
     300        0.003    297.59578   0.20177241  0.017257887  0.043740917          nan -0.056579394          nan    153.83063   -13283.947   -875.90403 
     350       0.0035    297.90159   0.21457242  0.016962525  0.013201642 -0.056518152 -0.056606101  -0.05661618     153.9887   -13284.012   -815.78861 
     400        0.004     302.2837   0.23780181 -0.012340809 -0.030440108          nan -0.056646502          nan    156.25386   -13286.167   -650.06963 
     450       0.0045    301.24938   0.28630656 0.0061301808 -0.035861067 -0.056539287 -0.056616791 -0.056635164    155.71922   -13285.519   -855.25223 
     500        0.005    296.61352   0.31253741 0.0079158149  0.014220882          nan -0.056577015          nan    153.32289   -13283.004   -1115.5803 
     550       0.0055    304.12293   0.37536467  0.015063377  0.046358205 -0.056411499  -0.05652722 -0.056506154    157.20458   -13286.755   -1455.9542 
     600        0.006    295.36034   0.37703246 -0.0086069583 -0.0076705015          nan -0.056570185          nan     152.6751   -13282.091   -1202.5167 
     650       0.0065    302.92334   0.41996667 -0.011519301 -0.00041694971  -0.05642612 -0.056541618 -0.056539495     156.5845   -13285.854   -1360.1014 
     700        0.007    298.20205   0.43576674 -0.025363065 -0.014081269          nan  -0.05654235          nan    154.14402   -13283.265   -1321.0747 
     750       0.0075    295.82411   0.48498769  0.015544159  0.011999991 -0.056359502 -0.056502151 -0.056497931    152.91483   -13281.879   -1708.4395 
     800        0.008    302.13311   0.52029438  0.027130983  0.018111419          nan -0.056463215          nan    156.17602   -13284.977   -1885.1226 
     850       0.0085    301.09945   0.55422916  0.003843732 -0.016729839 -0.056329975 -0.056487785 -0.056479073    155.64172    -13284.27   -1804.4768 
     900        0.009    300.31698   0.57208332 0.0015430849 -0.0065144422          nan -0.056487152          nan    155.23725   -13283.688   -1890.3732 
     950       0.0095    301.07859    0.6263659 0.0012301972 -0.0057598621 -0.056269263 -0.056468859 -0.056446025    155.63093   -13283.895   -2072.7874 
    1000         0.01    301.50988   0.65335757 0.0023734946  0.040408462          nan -0.056409893          nan    155.85387   -13283.925   -2320.4651 
    1050       0.0105    297.02491   0.66836506 0.0044850551 -0.0080675322 -0.056232698 -0.056433889 -0.056409462    153.53554   -13281.404    -2215.942 
    1100        0.011    299.92421   0.69534003    0.0050105 0.0089962338          nan -0.056437387          nan    155.03422   -13282.701   -2364.4892 
    1150       0.0115    300.93967   0.72842287 -0.0066764886 -0.023511094 -0.056239181   -0.0564446 -0.056423053    155.55912   -13283.011    -2327.451 
    1200        0.012    298.11516   0.74283245 0.0023225495 -0.0056781198          nan -0.056393528          nan     154.0991   -13281.331   -2464.9229 
    1250       0.0125    296.09534   0.80074317 -0.00015762297  0.016038089 -0.056170812 -0.056374133 -0.056364844    153.05503    -13280.06   -2722.0788 
    1300        0.013    300.38579   0.81874177 -0.0076835348  0.011580456          nan -0.056377216          nan    155.27282   -13282.048    -2742.129 
    1350       0.0135    294.35458   0.84512009 -0.031162971 -0.024399982  -0.05615226   -0.0563892 -0.056383844    152.15522   -13278.691   -2631.8571 
    1400        0.014    298.92375   0.91345678 0.0073932019  -0.01098955          nan -0.056329628          nan    154.51707   -13280.801   -3032.8681 
    1450       0.0145    299.86146   0.92245658  0.044193515  0.026805922 -0.056063038 -0.056286446 -0.056284411    155.00178   -13281.031     -3311.52 
    1500        0.015    297.04973   0.96477228 -0.0038140823 0.0042775993          nan -0.056310978          nan    153.54837   -13279.319   -3217.4527 
    1550       0.0155    301.32705   0.97107154 -0.017055583 -0.023224235 -0.056090204 -0.056331398 -0.056330197    155.75936   -13281.256   -3102.6391 
    1600        0.016    300.47997    1.0189589 -0.0051068267 -0.018145599          nan -0.056321606          nan     155.3215   -13280.543   -3319.0216 
    1650       0.0165    298.70423    1.0694414  0.016005424  0.029115908 -0.056003424 -0.056243758 -0.056251125     154.4036    -13279.34    -3715.209 
    1700        0.017     299.1915    1.1279416  0.018829441  0.025145113          nan -0.056219701          nan    154.65547   -13279.296   -3906.3871 
    1750       0.0175    302.96186    1.1236282 0.0049706753 -0.0038490882 -0.056008841 -0.056245035 -0.056233503    156.60442   -13280.943   -3749.1659 
    1800        0.018    297.54899    1.1340796 -0.038355047 -0.0038681782          nan -0.056263234          nan    153.80644   -13277.838   -3639.5214 
    1850       0.0185    300.18284     1.202559  0.024060562 -0.025380846 -0.055954871  -0.05622063 -0.056190137    155.16791   -13278.883   -4004.1291 
    1900        0.019      301.905    1.2428105  0.013249417  0.042858646          nan -0.056151274          nan    156.05811   -13279.452   -4329.7287 
    1950       0.0195    297.56463    1.2595106  0.020898741 0.0060602864  -0.05591469 -0.056187478 -0.056161505    153.81452   -13276.881   -4288.2322 
    2000         0.02    301.39312     1.287643 -0.020410125 0.0014033429          nan -0.056189268          nan    155.79352   -13278.523   -4228.7873 
    2050       0.0205    297.39065    1.3212022  -0.02259175 -0.028835303  -0.05591498 -0.056198976 -0.056179045     153.7246   -13276.109   -4232.5839 
    2100        0.021    296.57933    1.3530512  0.024545494   0.01259576          nan   -0.0561131          nan    153.30522    -13275.34    -4633.975 
    2150       0.0215    301.86389      1.42285  0.014651572  0.018754474 -0.055853295 -0.056137915 -0.056124577    156.03686   -13277.716    -4854.187 
    2200        0.022     300.8428     1.412048 0.0012920287 -0.0021998856          nan -0.056158423          nan    155.50905   -13276.825   -4703.8004 
    2250       0.0225    299.02725    1.4321461 -0.0040392456  -0.02995493 -0.055854363 -0.056157117 -0.056146129    154.57057   -13275.515   -4660.5065 
    2300        0.023    297.44991    1.4709187 0.0051088264 -0.0080936701          nan -0.056099333          nan    153.75522   -13274.321   -4893.1129 
    2350       0.0235    299.76275    1.5253658  0.011264959  0.029684555 -0.055779759 -0.056068852 -0.056070186    154.95076   -13275.137   -5221.0509 
    2400        0.024    297.54615     1.539138 -0.0043798112  0.014949503          nan -0.056092992          nan    153.80497   -13273.602   -5165.6921 
    2450       0.0245    299.17032    1.5501475 -0.023600856 -0.029707099 -0.055806941 -0.056120342 -0.056076384    154.64453   -13274.046    -4989.465 
    2500        0.025    297.21842    1.5902559  -0.03311447 0.0058390706          nan -0.056095611          nan    153.63556    -13272.64   -5209.9351 
    2550       0.0255    301.31341    1.6512509  0.029887397  0.021011691 -0.055723531 -0.056034179  -0.05600321    155.75231   -13274.349   -5673.8333 
    2600        0.026    296.45283    1.6611498 -0.012557481  0.027613457          nan -0.056020679          nan    153.23982   -13271.422   -5587.3527 
    2650       0.0265    301.29272    1.6973705  0.028162696 -0.018934186 -0.055726525 -0.056036338 -0.055997946    155.74162   -13273.502   -5688.6633 
[...]
   13800        0.138    291.25069    7.7123916  0.021712303 -0.0064641626          nan -0.052596015          nan    150.55078   -13025.096   -25758.799 
   13850       0.1385    288.55819    7.6958233 -0.022898302 -0.084094538  -0.05168434 -0.052626995 -0.052632427      149.159   -13022.024   -25296.101 
   13900        0.139    292.21313    7.7793834 -0.018596694  0.033121535          nan -0.052534536          nan    151.04827   -13022.219   -25979.694 
   13950       0.1395    292.80851    7.7626524   0.03200342  0.059693509 -0.051551047  -0.05249338  -0.05247982    151.35603   -13020.818   -26181.164 
   14000         0.14    290.78192    7.7739784 -0.018391636 0.00024523942          nan -0.052527458          nan    150.30847   -13018.072   -25852.773 
   14050       0.1405    292.55995    7.8008559 -0.054400551  0.010070867  -0.05157285 -0.052530719 -0.052519323    151.22755   -13017.273   -25855.087 
   14100        0.141    290.98435    7.8449078 0.0028284285 -0.032554213          nan -0.052493041          nan    150.41311   -13014.743   -26050.607 
   14150       0.1415    296.18122    7.8575383  0.043051585  0.037247456 -0.051483566 -0.052434682 -0.052463318    153.09942   -13015.707   -26459.458 
   14200        0.142    294.12159    7.8437331  -0.02390802 -0.0041379011          nan -0.052423416          nan    152.03478   -13012.916   -26052.291 
   14250       0.1425    287.19968    7.7478812 -0.033567345 -0.002019977 -0.051449106 -0.052386988 -0.052398805    148.45677   -13007.631   -25707.646 
   14300        0.143    293.71432    7.8738105  0.019746234  0.023631537          nan -0.052329261          nan    151.82426   -13009.286   -26390.628 
   14350       0.1435     291.4975    7.9045649 0.0057878559  0.018934398  -0.05135901 -0.052308512 -0.052356795    150.67836   -13006.402   -26430.957 
   14400        0.144     294.6357    7.8741604 -0.046018615 0.00047032948          nan -0.052325403          nan    152.30053   -13006.298   -26095.374 
   14450       0.1445    292.14967    7.8781755 0.0080106477 -0.008594513  -0.05133351 -0.052267297 -0.052352718    151.01547   -13003.285   -26258.639 
   14500        0.145     290.8319    7.8916896  0.021238627 -0.0060794099          nan -0.052206377          nan     150.3343   -13000.867   -26356.163 
   14550       0.1455     289.7379     7.878053  0.036487353 -0.022518208  -0.05124076 -0.052147834 -0.052261322     149.7688   -12998.563    -26306.74 
   14600        0.146    291.05198    7.8755564 0.0084610282 -0.023920782          nan  -0.05214893          nan    150.44807    -12997.51   -26200.322 
   14650       0.1465    290.14168    7.8880396  0.011861846  -0.01807914  -0.05118686 -0.052120775 -0.052181024    149.97752   -12995.301   -26272.741 
   14700        0.147    289.85403    7.8562697  0.029594156 -0.0032762703          nan  -0.05206512          nan    149.82883   -12993.412   -26275.292 
   14750       0.1475    284.83157    7.7802611 0.0071037338 -0.022309076 -0.051131226 -0.052065672 -0.052120404    147.23266   -12989.101   -25883.519 
   14800        0.148    295.22257    7.7739472  0.010271893 -0.036002251          nan -0.052081401          nan    152.60389   -12992.754    -25827.39 
   14850       0.1485    291.85515    7.6392409 -0.022401768 0.0090253166 -0.051083589 -0.052043359 -0.052029879    150.86323    -12989.31   -25419.548 
   14900        0.149    295.96817    7.5426105  0.010334563   0.05186927          nan  -0.05198679          nan     152.9893   -12989.735   -25349.381 
   14950       0.1495    295.25224    7.4039377  0.010039178 -0.001891253 -0.051039153 -0.051976128 -0.051939466    152.61922   -12987.716   -24706.952 
   15000         0.15    304.02056    7.2650055 -0.071123596  0.034185168          nan -0.052016999          nan    157.15167   -12990.627   -24093.557 
   15050       0.1505    309.56698    7.1267705 -0.049078844  0.019062772 -0.051019449 -0.051964327 -0.051926874    160.01867   -12991.928   -23655.848 
   15100        0.151    306.69809     6.911152 -0.068385816   0.01273007          nan -0.051870535          nan    158.53572   -12988.961   -22851.654 
   15150       0.1515    319.26741    6.7401749  0.038975677  0.063540545  -0.05082445 -0.051763721 -0.051740251    165.03294   -12994.037    -22808.97 
   15200        0.152    319.28619    6.4117552  0.048372635 0.0019629842          nan  -0.05172031          nan    165.04264   -12992.724   -21540.303 
   15250       0.1525     335.4747    6.0896801  0.031858152 -0.071686451 -0.050894953 -0.051767427 -0.051828628    173.41067   -12999.863   -20166.173 
   15300        0.153    337.88645    5.7313163 -0.0086257228 -0.056823532          nan -0.051765994          nan    174.65733   -13000.039   -18886.224 
   15350       0.1535    334.72084    5.3875431  0.072478331  -0.03801648 -0.050823155 -0.051686526 -0.051734249    173.02099   -12997.514    -18073.35 
   15400        0.154     342.0304    5.0719578  0.057930295  0.068710984          nan -0.051674298          nan    176.79939   -13000.538   -17328.664 
   15450       0.1545     346.5106    4.7211677  0.004679539 -0.010202206 -0.050930988 -0.051774877 -0.051771304    179.11525   -13002.263   -15718.817 
   15500        0.155    347.72231    4.3780797 -0.065055253 -0.0039264244          nan -0.051861725          nan     179.7416   -13002.419    -14363.66 
   15550       0.1555    345.72085    4.1566868 -0.078497099  0.058041973 -0.051014718 -0.051834235 -0.051794763    178.70702   -13001.037   -13787.439 
   15600        0.156    352.91346    4.0470676 -0.00032413902   0.11750658          nan -0.051781433          nan    182.42496   -13004.544   -13880.834 
   15650       0.1565    355.30306    3.9546563  -0.03687998  0.018411789 -0.051073759 -0.051808273 -0.051823714    183.66017   -13005.686   -13120.627 
   15700        0.157    353.64653    3.7956129  0.017236398 -0.020414122          nan -0.051836612          nan     182.8039   -13004.714   -12641.451 
   15750       0.1575    361.69497    3.7141687   0.06307154  0.023943058  -0.05121212 -0.051857274 -0.051907128    186.96422   -13008.807   -12670.611 
   15800        0.158    360.52666    3.6251051   0.01936415 -0.059177906          nan -0.051973588          nan    186.36031   -13008.159   -11950.971 
   15850       0.1585    364.75668    3.6227972  0.032174451 -0.079266508 -0.051388891 -0.052003428 -0.052031281    188.54686   -13010.272   -11919.017 
   15900        0.159    362.85533    3.5756819 -0.044065223  0.017372756          nan -0.051973665          nan    187.56403   -13009.253   -11829.965 
   15950       0.1595    363.19391    3.5803512 -0.013534165  0.076080543   -0.0512975 -0.051901298 -0.051919506    187.73904   -13009.373   -12142.992 
   16000         0.16    359.91317    3.4550027  0.011224552  0.079797756          nan -0.051905739          nan    186.04319   -13007.653   -11820.083 
   16050       0.1605    360.95119    3.4214138 -0.010860946  0.021842636 -0.051398624 -0.051997417 -0.051991303    186.57975   -13008.178   -11441.318 
   16100        0.161    364.10444    3.3476955 -0.043325111 -0.037770807          nan -0.052047845          nan    188.20971   -13009.804   -10888.665 
   16150       0.1615    368.76526    3.2747162 -0.028793028 0.0003051527 -0.051497407 -0.052031613 -0.052075025    190.61894   -13012.249   -10820.761 
   16200        0.162    368.50231    3.3067163  0.061524771 -0.056567645          nan -0.051985706          nan    190.48302   -13012.162   -11038.911 
   16250       0.1625     360.1726    3.3071438  0.061398264 -0.051713849 -0.051387264 -0.051920238 -0.051988843    186.17729   -13007.922   -11056.094 
   16300        0.163    363.11155    3.2374907  0.042433084  0.043106488          nan -0.051942458          nan    187.69647   -13009.558   -11076.768 
   16350       0.1635    362.59563    3.1608747 -0.039909799 -0.011993331 -0.051536689 -0.052061908 -0.052130817    187.42979   -13009.419   -10363.239 
   16400        0.164    368.58005    3.1163309 -0.054304993  -0.06283763          nan  -0.05210531          nan     190.5232   -13012.631   -9997.2944 
   16450       0.1645    372.76075    3.1361261  0.029011491  0.050938188 -0.051525193 -0.052012583 -0.052092218    192.68425   -13014.936   -10720.253 
   16500        0.165    363.92767    3.0526071   0.04346032  0.049082515          nan -0.051988819          nan    188.11833   -13010.527   -10483.833 
   16550       0.1655    375.26214    3.0226861  0.042125017  0.027289623 -0.051574338 -0.052037699 -0.052102513    193.97725   -13016.577   -10307.003 
   16600        0.166    371.62968    2.9128993 -0.031234485 -0.049523321          nan -0.052147112          nan    192.09959   -13014.888   -9440.4717 
   16650       0.1665    367.44987    2.7947826 -0.066465404  0.023118567 -0.051684064 -0.052153924 -0.052171171      189.939    -13012.95   -9171.4525 
   16700        0.167    375.99725    2.7648834 0.0035489738  0.063080841          nan -0.052131461          nan    194.35723   -13017.633   -9438.3774 
   16750       0.1675    371.57801    2.6312173  0.039958914 0.0070719807 -0.051689702 -0.052128816 -0.052162957    192.07288   -13015.646   -8927.4941 
   16800        0.168    374.14634    2.5423812 -0.004835991 -0.015992686          nan -0.052196013          nan    193.40048   -13017.298    -8405.175 
   16850       0.1685      381.124     2.481223 -0.040733142  0.049126321 -0.051804063 -0.052243514 -0.052285083    197.00731   -13021.273   -8298.7207 
   16900        0.169    377.06017    2.3996955  0.025391186 -0.063563393          nan -0.052275928          nan    194.90667    -13019.55   -7871.7444 
   16950       0.1695     383.5371    2.2911985   0.09374905 -0.029740813  -0.05189543 -0.052278394 -0.052310544    198.25467   -13023.327   -7850.6892 
   17000         0.17    379.69442    2.2146934  0.060914119 0.0058934643          nan -0.052355378          nan    196.26834   -13021.827   -7605.0034 
   17050       0.1705    383.21702    2.0259605 -0.057646675 -0.0090487664 -0.052121955 -0.052510996 -0.052501917    198.08922   -13024.158   -6530.8835 
   17100        0.171    382.15449    1.9527077 -0.078602414 -0.0060991189          nan -0.052573334          nan    197.53998   -13024.114   -6226.6871 
   17150       0.1715    390.65633    1.8887578 -0.029227298  0.061931236 -0.052182303 -0.052541055 -0.052507656    201.93468   -13029.068   -6404.8723 
   17200        0.172    392.76807    1.8357501 -0.0016333964  0.068984594          nan -0.052542386          nan    203.02626   -13030.769    -6343.671 
   17250       0.1725    389.99611    1.7162119 -0.054745577  0.099005688 -0.052262419 -0.052595521 -0.052565307     201.5934   -13030.018   -5868.2401 
   17300        0.173    387.15937    1.5332674 -0.020325244 -0.0051990511          nan -0.052669329          nan    200.12706   -13029.259   -5025.8105 
   17350       0.1735    385.15763    1.5110376 -0.036093519  -0.10308301 -0.052388078 -0.052708382 -0.052755556    199.09234   -13028.855   -4572.8701 
   17400        0.174    390.57938    1.5910174 -0.0060414409  0.025585585          nan -0.052624039          nan     201.8949   -13032.353   -5368.5386 
   17450       0.1745     384.1063    1.5527367  0.056312722  0.040261646 -0.052264634 -0.052566378 -0.052613828    198.54889   -13029.683   -5497.7035 
   17500        0.175    391.28815    1.4632812  0.087926805 0.0058239707          nan -0.052633252          nan    202.26127   -13034.099   -5190.1067 
   17550       0.1755    395.84288    1.4590561   0.07744611 -0.087129541 -0.052518938 -0.052784562 -0.052849563    204.61566   -13037.179   -4831.2421 
   17600        0.176    395.75652    1.4574467 0.0016722445  -0.12201378          nan -0.052881909          nan    204.57102   -13037.887   -4457.0171 
   17650       0.1765    392.83818    1.4650782 -0.018908973 -0.037848887 -0.052531552 -0.052818632 -0.052839626     203.0625   -13037.153   -4694.4012 
   17700        0.177    398.90382    1.6160879  0.095692735  0.055333214          nan -0.052723169          nan     206.1979   -13041.051   -5890.3797 
   17750       0.1775    402.05164    1.6190144  0.041591843   0.12626917 -0.052455504 -0.052780131 -0.052755637    207.82504   -13043.454   -5956.2515 
   17800        0.178    406.51766    1.3685035  -0.06015576  0.045226521          nan -0.053011477          nan    210.13358   -13046.554   -4511.9142 
   17850       0.1785    403.12593    1.2814832  -0.15996605 -0.069381455 -0.052826403 -0.053162578 -0.053105129    208.38036   -13045.607   -3507.1191 
   17900        0.179    403.86429     1.362311 -0.033662106  0.028568733          nan -0.053024859          nan    208.76202   -13046.859   -4524.0589 
   17950       0.1795    404.93553    1.4269753  0.056394132   0.13666424 -0.052576958 -0.052897536 -0.052863173    209.31576   -13048.273   -5400.1122 
   18000         0.18    407.81479    1.3546732   0.13564015  0.061893527          nan -0.052973281          nan    210.80408   -13050.677   -5174.0228 
   18050       0.1805      411.591    1.2389993 -0.010407261  -0.05374392 -0.052900122 -0.053214613 -0.053217463    212.75605   -13053.548   -3916.1603 
   18100        0.181    409.64188    1.1754713 -0.057073209  -0.20378237          nan -0.053347039          nan    211.74852   -13053.432   -3048.7192 
   18150       0.1815    411.17805    1.2158507  0.009822922 -0.056779603 -0.052930041 -0.053212508 -0.053243302    212.54259   -13055.232   -3896.3133 
   18200        0.182    405.70759    1.2827927   0.11026115  0.084096093          nan -0.053024197          nan    209.71484   -13053.351   -4923.8331 
   18250       0.1825    414.08035    1.3014939  0.063108558   0.13471345 -0.052804831 -0.053069965 -0.053071135    214.04282   -13058.655   -4997.7197 
   18300        0.183    411.14037    1.1682992   -0.1015738 -0.025194645          nan -0.053291291          nan    212.52311   -13058.092   -3471.7692 
   18350       0.1835    407.68327    1.1290221  -0.11180324 -0.074161023   -0.0530965 -0.053354746  -0.05338856    210.73609   -13057.243   -3143.5262 
   18400        0.184    413.40339    1.1873292  0.031672072  0.061322204          nan -0.053215907          nan    213.69289   -13061.185    -4267.745 
   18450       0.1845    409.51187    1.1821528   0.13072436  0.020107133 -0.052969482 -0.053182812  -0.05322171    211.68132   -13060.176   -4443.2809 
   18500        0.185     411.4069    1.0979031  0.067985641 -0.036154967          nan -0.053318305          nan    212.66088    -13062.21   -3765.7792 
   18550       0.1855    418.28181    1.0097126  0.017648244  -0.09057091 -0.053308369 -0.053515091 -0.053520193     216.2146   -13066.824   -3122.6331 
   18600        0.186    415.78492   0.95073773 -0.074940763 -0.031755127          nan -0.053576622          nan    214.92393   -13066.586   -2813.4728 
   18650       0.1865     414.6891   0.96743062 -0.014297429 -0.011833429 -0.053293142 -0.053458442 -0.053483266    214.35749   -13067.087   -3137.6659 
   18700        0.187    407.15103    1.0483484  0.025364924   0.10177936          nan -0.053399429          nan    210.46097   -13064.222   -3918.3091 
   18750       0.1875    417.02863    1.0167717 -0.039711883  0.048223459 -0.053220888 -0.053445151 -0.053409086    215.56682   -13070.375    -3417.611 
   18800        0.188    414.42847    0.9619183 -0.049335527  0.018947268          nan -0.053508683          nan    214.22277   -13070.102   -3105.1001 
   18850       0.1885    418.13968   0.91723668  0.036316617 -0.062688048 -0.053330304 -0.053536173 -0.053556952    216.14113   -13073.089   -2969.5508 
   18900        0.189    413.13697   0.95666965   0.08651165 -0.061218342          nan -0.053500264          nan    213.55518   -13071.573   -3273.2099 
   18950       0.1895    414.62588    1.0968674  0.075894004 0.0045338374 -0.053283396  -0.05350483 -0.053520081    214.32481   -13073.424   -3924.3174 
   19000         0.19    404.68701    1.0785285 -0.049953746 -0.010254662          nan -0.053569802          nan     209.1873   -13069.318   -3394.4004 
   19050       0.1905     417.9898     1.167389 -0.037750638  0.063169018  -0.05328993 -0.053544742  -0.05353142    216.06366   -13077.205   -3976.0246 
   19100        0.191    408.74635    1.0938976 -0.044617618   0.05119539          nan -0.053571156          nan    211.28562   -13073.469   -3668.2512 
   19150       0.1915    412.61364    1.1561929 -0.026460128 0.0098700505 -0.053317338 -0.053590875 -0.053591703    213.28466   -13076.513   -3798.6761 
   19200        0.192    424.29872    1.2267294  0.020991878 -0.00087700265          nan -0.053570234          nan    219.32481   -13083.591   -4156.1477 
   19250       0.1925    413.85043    1.2587886  0.057799821 -0.079879113 -0.053309975 -0.053572993 -0.053632018    213.92397   -13079.232   -4122.3643 
   19300        0.193    416.40341    1.3043736   0.12121524 -0.057169341          nan -0.053526559          nan    215.24364   -13081.596   -4561.3984 
   19350       0.1935    414.41568    1.3480591  0.039266983 -0.089024876 -0.053312034 -0.053572444 -0.053618345    214.21615   -13081.651   -4327.6707 
   19400        0.194    416.73492     1.305128  0.022209319  0.052278979          nan -0.053568276          nan      215.415   -13083.883   -4598.7209 
   19450       0.1945    411.51137    1.2689652 -0.046798522  0.060517901  -0.05334088  -0.05361889 -0.053575098    212.71489   -13082.152   -4275.6152 
   19500        0.195    409.75983    1.1540679 -0.038616738  0.067029986          nan -0.053672902          nan    211.80949   -13082.239   -3941.6039 
   19550       0.1955    408.79631    1.1350381 -0.013343913 -0.052341632 -0.053479388 -0.053719296 -0.053708376    211.31144   -13082.765   -3564.5086 
   19600        0.196    410.44065    1.2025847 -0.046174651 -0.028864944          nan -0.053700994          nan    212.16142   -13084.609   -3758.4838 
   19650       0.1965    406.29645    1.2361511 0.0033384422  0.048176759 -0.053364866 -0.053639222 -0.053604424    210.01923   -13083.467   -4292.2212 
   19700        0.197    411.18681     1.194101  0.066357446  0.078022778          nan -0.053615266          nan    212.54712   -13087.005    -4461.604 
   19750       0.1975    412.89506    1.1645585  0.025107153  -0.01793132 -0.053493847 -0.053738962  -0.05373732    213.43013   -13088.926    -3905.781 
   19800        0.198    404.05349    1.0724971  -0.11986189  -0.12866493          nan -0.053868556          nan    208.85982   -13085.358   -2746.5677 
   19850       0.1985    406.43138    1.1333225  0.031244558 -0.083534394 -0.053484533 -0.053744551 -0.053756651    210.08898   -13087.618   -3603.4424 
   19900        0.199    412.73965    1.2414044   0.13286855   0.08738096          nan -0.053569668          nan     213.3498   -13091.886   -4872.1798 
   19950       0.1995    410.58819    1.2056831   0.02645145   0.11659084 -0.053407481 -0.053665667  -0.05366771    212.23768   -13091.811   -4495.7512 
   20000          0.2    410.43872    1.1150869 -0.084432827 -0.058750672          nan -0.053904989          nan    212.16042    -13092.73   -3239.6782 
Loop time of 1148.8 on 4 procs for 20000 steps with 4000 atoms

Pair  time (%) = 1065.96 (92.7893)
Neigh time (%) = 0.464603 (0.0404425)
Comm  time (%) = 53.7486 (4.67868)
Outpt time (%) = 0.332542 (0.0289469)
Other time (%) = 28.2902 (2.46259)

Nlocal:    1000 ave 1012 max 982 min
Histogram: 1 0 0 0 0 1 0 0 1 1
Nghost:    3723.25 ave 3736 max 3709 min
Histogram: 1 0 0 1 0 0 0 1 0 1
Neighs:    68902.8 ave 71691 max 65731 min
Histogram: 1 0 0 1 0 0 0 1 0 1
FullNghs:  0 ave 0 max 0 min
Histogram: 4 0 0 0 0 0 0 0 0 0

Total # of neighbors = 275611
Ave neighs/atom = 68.9027
Neighbor list builds = 85
Dangerous builds = 0

######################################
# SIMULATION DONE
print "All done"
All done
