
# ----------------------- ATOM DEFINITION ----------------------------
lattice		fcc ${latparam}
lattice		fcc 4.05
Lattice spacing in x,y,z = 4.05 4.05 4.05
region		whole block 0 10 0 10 0 10
create_box	1 whole
Created orthogonal box = (0 0 0) to (40.5 40.5 40.5)
  1 by 2 by 2 MPI processor grid
lattice 	fcc ${latparam} orient x 1 0 0 orient y 0 1 0 orient z 0 0 1
lattice 	fcc 4.05 orient x 1 0 0 orient y 0 1 0 orient z 0 0 1
Lattice spacing in x,y,z = 4.05 4.05 4.05
create_atoms	1 region whole
Created 4000 atoms

# ------------------------ FORCE FIELDS ------------------------------

#****************USE THIS TO TEST******************
pair_style	eam/rad
pair_coeff 		* * Al99.PC0.05.eam.alloy.rad.txt Al # pc = 0.5   error generating

# to test with error = 0 use this potential
# pair_coeff	* * Al99.eam.alloy.005pcrad_NULL_noerror Al

#****************USE THIS TO RUN REFRENCE***********
# pair_style	eam/alloy
# pair_coeff	* * Al99.eam.alloy Al

# ------------------------- SETTINGS ---------------------------------
compute csym all centro/atom fcc
compute peratom all pe/atom

######################################
# EQUILIBRATION
reset_timestep	0
timestep	0.001 # default
# timestep	0.0001 # tiny time step
velocity all create 300 12345 mom yes rot no
fix 1 all npt temp 300 300 1 iso 0 0 1 drag 1

# Set thermo output
thermo 50
# thermo 1 # debug mode

# thermo_style custom step lx ly lz press pxx pyy pzz pe temp
# IMPLEMENTATION HERE

# VERSION add rad variables .v1 .v2
# thermo_style custom step lx ly lz press pxx pyy pzz pxxrad pyyrad pzzrad pe temp

# VERSION ublb separation .v3
thermo_style custom step lx ly lz press pxx pxxrad pyy pyyrad pzz pzzrad pe temp

# Run for at least 10 picosecond (assuming 1 fs timestep)
run 	20000 # default
Memory usage per processor = 5.63763 Mbytes
Step Lx Ly Lz Press Pxx Pxxrad Pyy Pyyrad Pzz Pzzrad PotEng Temp 
       0         40.5         40.5         40.5    2496.1233    2446.9902    242.99145    2534.6541    242.99145    2506.7256     485.9829       -13440          300 
      50      40.5611      40.5611      40.5611    907.43706    837.10986    7381.5585    946.43161    7487.7411    938.76971    486.42329   -13338.819    103.27149 
     100    40.636867    40.636867    40.636867   -4611.4186   -4606.0751    13780.807   -4633.2987    13252.525   -4594.8821     479.5076   -13373.529    171.80729 
     150    40.566371    40.566371    40.566371    544.64066    509.57779    9026.1954    622.24374    9252.5149    502.10046     485.1132   -13348.908    124.16109 
     200    40.511722    40.511722    40.511722    3547.2897    3643.2596    10860.242    3485.9867    10380.248    3512.6228    490.08713   -13355.216     137.9072 
     250    40.565785    40.565785    40.565785    166.93066    90.523527    11249.612    218.10474    11261.155    192.16371    485.22843   -13359.502    146.72328 
     300    40.611235    40.611235    40.611235   -2466.5664   -2412.8394    11040.017   -2483.9007    11450.697   -2502.9592    481.58254   -13360.111    149.21075 
     350    40.571353    40.571353    40.571353   -408.34084   -482.42607    12108.722   -346.38838    12713.706   -396.20806    484.88141   -13367.339    163.76556 
     400    40.532306    40.532306    40.532306    2225.5431    2279.8069    11214.686    2296.6157    11144.533    2100.2067    488.41824   -13359.854    150.41108 
     450    40.566044    40.566044    40.566044    2.0377845   -40.092854    11835.479   -31.888362     12129.64     78.09457    485.31632    -13363.08    157.36643 
     500    40.595966    40.595966    40.595966   -1611.3461   -1655.3283    11159.811   -1479.2164    11461.573   -1699.4934    482.76094   -13359.404    151.32857 
     550    40.570848    40.570848    40.570848   -161.85418   -150.03728    11534.607   -167.20465    11743.779   -168.32062    484.85615   -13360.736    154.75593 
     600    40.545092    40.545092    40.545092    1385.8336    1414.2998    11720.172    1433.0694    12094.693    1310.1316    487.10337   -13361.915    158.16074 
     650    40.566235    40.566235    40.566235    212.56633    184.02753    11436.956    245.48283    11260.266    208.18862    485.58705   -13358.104    151.74194 
     700    40.589999    40.589999    40.589999   -1217.4105   -1343.5854    12064.813   -1126.2179    12010.693   -1182.4283    483.48714   -13360.206    156.93263 
     750    40.572933    40.572933    40.572933   -250.38158   -286.45411     12078.64   -263.19279    12172.497   -201.49783    484.86688   -13360.538    158.57849 
     800    40.551356    40.551356    40.551356    1208.6566    1078.2928    11443.426    1322.2307    11771.147    1225.4462     486.8594   -13357.161    153.20685 
     850    40.567647    40.567647    40.567647     35.88215    27.354765    12670.278    95.437303    12827.967   -15.145617    485.35193   -13362.171    163.91834 
     900    40.586566    40.586566    40.586566   -905.95525   -936.83022     12285.06   -840.20578      12465.3   -940.82976     483.7801   -13360.501    161.82509 
     950    40.575685    40.575685    40.575685   -242.27646    -258.0676    11892.904   -191.53537    11445.651    -277.2264    484.82252   -13355.043     152.3172 
    1000    40.557624    40.557624    40.557624    865.78368    854.28577    12655.245     838.0004    12481.414    905.06486    486.30611   -13361.124    165.23426 
    1050    40.567354    40.567354    40.567354    296.20892     232.8234     11494.36     412.4804    11629.593    243.32297    485.57008   -13352.949    150.47937 
    1100    40.584443    40.584443    40.584443   -762.38408   -853.89575    12662.402   -674.30507    12614.629   -758.95143    483.93876   -13360.466    166.16585 
    1150    40.575983    40.575983    40.575983    -142.2806   -201.77341    11521.315   -30.014093    11362.756    -195.0543    484.64981    -13353.75    154.27323 
    1200    40.562401    40.562401    40.562401    595.06575    539.95132    13169.836    625.63845    12612.746    619.60749    485.96842    -13359.83    167.17798 
    1250    40.569413    40.569413    40.569413    166.79261    92.903564    12278.498    250.18713    12637.682    157.28713    485.51092   -13356.017    160.90148 
    1300    40.581899    40.581899    40.581899   -560.61752   -582.11355    12725.552   -449.93781    12607.676   -649.80119    484.46732   -13357.596    165.08945 
    1350    40.575948    40.575948    40.575948    -187.6128   -340.24911     12801.09   -119.43237    13191.236   -103.15693    485.01631   -13356.829    164.72703 
    1400    40.566127    40.566127    40.566127    565.86425    499.12344    12118.517    641.64272    12406.684    556.82658    485.80863   -13354.386    161.14085 
    1450    40.572988    40.572988    40.572988    -8.561472    -54.13345    13239.819   -9.1404528    12915.224    37.589487    485.05131   -13356.765    166.86433 
    1500    40.579794    40.579794    40.579794   -267.41446   -332.77441    12421.077   -176.15609    12510.677   -293.31287    484.54948   -13353.672    162.03422 
    1550    40.576834    40.576834    40.576834   -220.87916   -335.60203    12934.611   -207.98546    12878.382   -119.05001    484.86367    -13357.33    170.23169 
    1600     40.56902     40.56902     40.56902    377.81634    358.40758    12447.351    458.79305    12590.154    316.24838    485.60191   -13352.705    162.42694 
    1650    40.573333    40.573333    40.573333    121.60248    65.830518    12989.487    161.88969    12956.603    137.08722    485.25869     -13355.4    168.76756 
    1700    40.580701    40.580701    40.580701   -351.25931   -404.48696    12600.126   -356.71365    12358.908   -292.57732    484.74072   -13352.169    163.67705 
    1750    40.576849    40.576849    40.576849   -32.167301   -50.678233    13113.228   -63.920617    13025.747    18.096946    484.92369   -13355.552    171.33506 
    1800    40.570697    40.570697    40.570697    303.86959    205.87186    12169.327    337.67696    12475.765    368.05996    485.57681   -13351.254    164.18628 
    1850    40.573832    40.573832    40.573832    241.25661    160.65476    13172.157    291.81867    12524.439    271.29639    485.17105   -13351.989    166.73526 
    1900    40.582525    40.582525    40.582525   -408.49907   -517.11515    13232.531    -372.3218     13647.36   -336.06028    484.42287    -13355.88     175.4205 
    1950    40.579035    40.579035    40.579035   -121.18037    -78.31077    12758.485   -80.564036    12526.452    -204.6663    484.89858   -13350.032    165.23107 
    2000     40.57151     40.57151     40.57151    262.28188    197.36064    13938.914    289.69509    13680.525     299.7899    485.44191   -13356.433    178.77171 
    2050     40.57415     40.57415     40.57415    291.00696    438.91963    12337.325    282.96388    12704.842    151.13737    485.27965   -13349.034    165.59547 
    2100    40.583714    40.583714    40.583714   -349.64824   -571.69905     13230.75   -278.61218    14127.002   -198.63349    484.46686    -13352.82     174.0797 
    2150    40.580896    40.580896    40.580896   -115.46102   -185.78203    12706.377   -83.935203    12431.337   -76.665824    484.91179   -13348.342    166.55152 
    2200    40.573232    40.573232    40.573232    266.96923    327.53375    13719.825    145.53519    12946.169    327.83874    485.29512   -13352.358    175.46306 
    2250    40.574827    40.574827    40.574827    151.21048    253.25725    13568.304    168.12758    13145.511    32.246605    485.37312   -13351.993    175.91954 
    2300    40.582519    40.582519    40.582519   -229.92012   -262.55007    13692.756   -227.80284    13512.391   -199.40745    484.68747   -13351.098    175.32277 
    2350    40.582472    40.582472    40.582472   -261.47493   -230.22332    13317.494   -223.18601    13737.011   -331.01546    484.62826   -13351.015     176.3209 
    2400    40.575117    40.575117    40.575117    304.99838    318.71288    13336.785    230.82389     13329.09    365.45835    485.46827    -13348.88    173.33846 
    2450    40.576041    40.576041    40.576041    115.98281   -49.519186    13255.195    231.81908    13706.841    165.64854    485.29578   -13349.774    176.22576 
    2500    40.581993    40.581993    40.581993    -86.32248   -223.14465    13695.043   -50.962736    13323.337    15.139951    484.87337   -13348.601    175.08643 
    2550    40.583873    40.583873    40.583873   -280.78867    -329.5054    14460.013   -351.60669    14125.423   -161.25393    484.81554   -13350.803    180.51146 
    2600    40.577203    40.577203    40.577203    317.49535    231.68198    13343.742    393.67729    12992.395    327.12677    485.30217    -13345.69    171.77884 
    2650    40.578933    40.578933    40.578933    13.030925    144.96731    14222.702   -44.713472    13907.682   -61.161069      485.096   -13350.912    183.01571 
    2700    40.583518    40.583518    40.583518   -174.83865   -293.93299     13235.31   -111.84152    13781.934   -118.74145    484.77442   -13346.798    176.21518 
    2750    40.582481    40.582481    40.582481   -39.748764   -65.184794    14279.373    -87.13603    13924.829    33.074533    484.95336   -13348.669    180.97912 
    2800    40.578705    40.578705    40.578705    108.86451   -19.945463    13678.761    191.66526    13794.431    154.87373    485.28028   -13346.376    177.70923 
    2850    40.579322    40.579322    40.579322    124.53218    81.912131    14183.973    124.60452    14463.167     167.0799     485.2977   -13349.584    185.05983 
    2900    40.584645    40.584645    40.584645   -69.825092    -152.5521     13851.54   -33.708358    13852.409   -23.214815    484.78588   -13345.868     179.0187 
    2950    40.585359    40.585359    40.585359   -182.56258   -154.04171     14238.25   -313.08375    13526.619   -80.562296    484.73037   -13345.484    179.44392 
    3000    40.580393    40.580393    40.580393    103.06038     17.74205    14738.604    199.86076    14786.236    91.578338    485.33286   -13349.988    189.30398 
    3050    40.580507    40.580507    40.580507    62.168107    44.094515    14204.863    20.509683    14277.191    121.90012    485.17706   -13345.218    181.21565 
    3100    40.584708    40.584708    40.584708   -107.42179   -223.08689    13947.638   -59.455111    14403.791   -39.723375    484.93446   -13347.434     186.6605 
    3150    40.585857    40.585857    40.585857   -139.90607   -193.02274    14250.452   -102.84206    14372.863    -123.8534    484.76466   -13344.327    181.78994 
    3200    40.582817    40.582817    40.582817    56.136466   -25.815173    14552.241    83.857537    14184.548    110.36703    485.00027   -13346.758    187.66531 
    3250    40.582883    40.582883    40.582883    202.40337    154.08445    14087.017    136.98617    13937.003    316.13948     485.1576   -13343.925    183.32635 
    3300    40.587578    40.587578    40.587578    -209.4339   -371.94849    14197.112   -87.698913    14248.681   -168.65429    484.63788   -13345.062    186.68197 
    3350    40.586577    40.586577    40.586577   -9.0566859   -69.573038      14298.7   -16.305688    14600.968    58.708669    484.69256    -13343.41    184.64018 
    3400    40.584833    40.584833    40.584833    -4.464904   -169.79656    14902.047    46.672382    15503.649    109.72947    484.88771   -13346.346    191.46455 
    3450    40.585451    40.585451    40.585451    9.8032381   -98.559471    14634.524    71.647379    14591.104    56.321806    484.74668   -13344.024    188.12534 
    3500    40.587697    40.587697    40.587697   -73.255431   -198.59139    14582.088   -60.277768    14562.423    39.102863    484.57716   -13344.644    190.47515 
    3550    40.586958    40.586958    40.586958    -56.96485   -70.538578     14348.37    6.9900731    14718.089   -107.34605    484.73774   -13342.497     187.4769 
    3600    40.585183    40.585183    40.585183    109.67337    96.750394    14937.071    58.529928    14301.971    173.73977    484.95984   -13342.391    188.41229 
    3650    40.586887    40.586887    40.586887   -3.9723187   -11.668849    14421.273   -45.333257    14760.643    45.085149    484.80071   -13342.044    188.88701 
    3700    40.588496    40.588496    40.588496   -27.142131   -83.336603    14733.545   -12.131481    14949.356    14.041689    484.61854   -13342.511    190.95338 
    3750    40.588371    40.588371    40.588371   -6.0911329    43.936973    14925.223   -56.088694    14648.973   -6.1216783    484.54781   -13342.317    191.72699 
    3800    40.587518    40.587518    40.587518    21.179747   -96.321442    14451.105    156.68462    15317.204    3.1760619    484.85942    -13342.31    192.86572 
    3850    40.588168    40.588168    40.588168    103.71552    51.378646    14258.067    75.437151    14871.691    184.33078    484.82674   -13339.435    188.43341 
    3900    40.590071    40.590071    40.590071   -61.991803    41.084916    15037.552   -163.63867    14870.406   -63.421652    484.51449   -13340.244    191.15887 
    3950     40.58905     40.58905     40.58905    26.629811   -116.89505    14899.965    111.68117    15046.782    85.103306     484.8081   -13340.459    192.71663 
    4000     40.58814     40.58814     40.58814    64.030856    18.996702    14787.529    37.882754    15054.921    135.21311    484.79465   -13340.476    193.89746 
    4050     40.58928     40.58928     40.58928    51.730888    26.058107    15199.404    48.279046    15045.658    80.855511    484.74842   -13339.217    192.61086 
    4100    40.591447    40.591447    40.591447    -69.41407   -80.629256     15612.26   -72.506139    15543.683   -55.106814    484.60911   -13342.948    200.98044 
    4150    40.591167    40.591167    40.591167     -59.3496   -170.66274    15170.774   -23.297654      15305.3    15.911595    484.56823    -13338.58    193.66416 
    4200    40.589402    40.589402    40.589402    126.45049    102.31182    14733.511    28.361074    14693.063    248.67858    484.75853   -13337.074    191.89142 
    4250    40.590375    40.590375    40.590375   -5.8786185    -95.14102    15723.977    71.464313    15309.963    6.0408519    484.67297   -13339.822    198.35283 
    4300    40.592312    40.592312    40.592312   -99.932489   -134.35608    15315.867   -92.003546    15606.911   -73.437843    484.51979   -13339.728    199.31371 
    4350    40.591432    40.591432    40.591432    30.669897   -17.453823    14725.947    116.38325    15485.317   -6.9197307    484.70187   -13337.239    195.64072 
    4400    40.590868    40.590868    40.590868    6.1809803   -68.690877    15832.242    32.701826    16243.279    54.531992    484.85963   -13340.043     202.2069 
    4450    40.592123    40.592123    40.592123   -2.7294806    31.335042    15785.226   -35.521345    15403.375   -4.0021387    484.68884   -13337.875    199.15199 
    4500    40.593642    40.593642    40.593642   -65.462705    36.313648    15153.709   -97.154892    15503.772   -135.54687    484.48163    -13337.41     199.3838 
    4550    40.592338    40.592338    40.592338   -64.277171   -161.69941    15938.875   -86.840811    16201.117    55.708711    484.75749   -13338.207    202.07086 
    4600    40.590278    40.590278    40.590278     249.1077    320.61637    15431.432    284.38178    15643.244    142.32493    485.05105   -13335.472    197.91016 
    4650    40.594313    40.594313    40.594313   -36.483052   -43.388388    15913.471     7.304162    16012.944   -73.364929    484.52552   -13336.259    200.57068 
    4700    40.596271    40.596271    40.596271   -162.12355   -160.59482    15966.807   -175.19352    15754.347   -150.58232    484.43468   -13336.155    201.50807 
    4750    40.592916    40.592916    40.592916    73.064448    98.496599    16143.215    218.68878    16281.293   -97.992039    484.56355   -13336.665     203.6226 
    4800    40.592243    40.592243    40.592243    93.558524    177.60258     16103.44   -87.323114    16037.594    190.39611    484.71407   -13336.604    204.63746 
    4850    40.595451    40.595451    40.595451    4.2171739   -108.36622     15958.76    56.758562    16674.912    64.259175    484.67583   -13334.982    202.63372 
    4900     40.59738     40.59738     40.59738   -207.49532   -38.513481    16347.173   -236.77389    16297.528   -347.19859    484.52672   -13335.657    205.06988 
    4950    40.592949    40.592949    40.592949    160.16595    79.901741    15674.806    153.84852    16266.644    246.74758    484.98708   -13333.532    202.08895 
    5000    40.593071    40.593071    40.593071    183.41074     268.5787    16168.051     243.1868    16125.809    38.466717    484.88219   -13334.242    204.58527 
    5050    40.598517    40.598517    40.598517   -115.69735   -166.07939    16107.196     -169.547    16202.314   -11.465649    484.38671   -13334.019    205.27643 
    5100     40.59878     40.59878     40.59878   -111.70343    -8.370906    16179.222   -166.12906    16277.246   -160.61033    484.29732   -13332.452    203.37832 
    5150    40.594255    40.594255    40.594255    96.931121    101.97383    16496.619    87.628943    16807.625    101.19059    484.69285   -13334.964    209.35602 
    5200    40.594043    40.594043    40.594043    196.29774    273.67141      16683.8    221.69784     16801.15    93.523963    484.78785   -13335.021    210.58986 
    5250     40.59947     40.59947     40.59947   -89.380203   -116.97376    15770.158   -109.49403    16538.538    -41.67282    484.28168   -13330.257    202.50162 
    5300    40.599859    40.599859    40.599859   -145.25531   -136.63669    16049.657   -209.45351    16560.958   -89.675735    484.31951   -13332.957    208.84095 
    5350    40.595213    40.595213    40.595213    222.90062    257.82359    16195.544    316.73027    16664.507    94.147998    484.60819   -13332.065    208.23568 
    5400    40.596174    40.596174    40.596174    152.99394    182.46696    16323.286    168.26953    16744.605    108.24535     484.6907   -13331.528    208.31029 
    5450    40.601169    40.601169    40.601169   -137.60144   -286.80303     16197.03   -30.046473    16845.397   -95.954809    484.26717   -13330.969    208.33875 
    5500    40.601195    40.601195    40.601195   -223.23281   -155.64611    17181.298   -294.77355    16847.655   -219.27877    484.27031   -13333.433    214.21786 
    5550    40.595615    40.595615    40.595615    182.19163    236.97313    16848.439    219.29512     16983.08    90.306631     484.6905   -13332.625    213.77091 
    5600     40.59647     40.59647     40.59647    157.71549    95.081188    17067.125    126.56426    16287.731    251.50101    484.67531    -13331.02    211.77575 
    5650    40.602086    40.602086    40.602086   -122.48126   -162.13077    16160.067   -127.35932    16250.815   -77.953682     484.3386   -13328.959    208.89658 
    5700    40.602031    40.602031    40.602031   -129.57349   -144.97713    16890.176    -92.19506     16754.74   -151.54828    484.32847   -13330.973    213.90323 
    5750    40.597351    40.597351    40.597351    249.95841     130.2933     16481.69    256.42866    16446.608    363.15327    484.68884   -13329.355    211.87752 
    5800    40.599001    40.599001    40.599001    81.368288    70.461749    16250.726    220.52608     16235.44   -46.882963    484.49262    -13329.51    213.28364 
    5850    40.603186    40.603186    40.603186   -204.96413   -200.81552    17495.688   -191.63639    16996.114   -222.44049    484.26071   -13330.974    217.21937 
    5900    40.602446    40.602446    40.602446   -126.97389   -248.41884    16633.427   -16.958909    17399.539   -115.54392     484.3486    -13329.54    215.52932 
    5950    40.598403    40.598403    40.598403     257.9828    272.70332    16533.958    348.64877    16670.951    152.59632    484.64199   -13327.614    212.91421 
    6000     40.60021     40.60021     40.60021    86.846298    101.33594    17174.873   -18.435667    17095.428    177.63862    484.61214   -13327.324    213.44455 
    6050     40.60381     40.60381     40.60381     -147.965   -193.76594    17314.557   -73.546053    17709.135   -176.58301    484.26885   -13330.172    220.05867 
    6100    40.602318    40.602318    40.602318    -26.95951    24.115571    17335.814    -126.5007    17203.658    21.506596    484.54571   -13327.624    216.21915 
    6150    40.600005    40.600005    40.600005    91.858136   -57.062472    17648.097     204.7372    17852.534    127.89968    484.60919   -13329.971    221.84627 
    6200    40.601871    40.601871    40.601871     18.81411    18.213485    16976.517    68.835547    17142.274   -30.606703    484.51412   -13326.581     216.3745 
    6250    40.604737    40.604737    40.604737   -124.00793   -72.865587    18045.529   -231.27249    17187.826   -67.885715    484.32472    -13327.32    218.88695 
    6300    40.603226    40.603226    40.603226    38.479186    -71.27144    17248.757     210.4996    17923.254   -23.790601    484.28232   -13327.339     220.0188 
    6350    40.602348    40.602348    40.602348    53.655171    168.57174    17437.204   -65.580559    17450.657    57.974335    484.34403   -13327.803    222.00053 
    6400    40.604389    40.604389    40.604389   -55.165601   -243.02272    18094.585    81.803234    17664.775   -4.2773159     484.4484    -13327.19    221.89227 
    6450    40.605242    40.605242    40.605242   -103.23012   -18.394609    17864.748   -201.09066    17968.874   -90.205083    484.49894   -13326.925    222.45568 
    6500    40.603815    40.603815    40.603815    39.068389   -146.98714    17849.163     -28.4868     18042.16    292.67911    484.61572   -13326.809    223.30103 
    6550     40.60387     40.60387     40.60387    22.403565    29.280286    18171.099    75.786435    17831.603   -37.856025    484.47775   -13324.708    220.30764 
    6600     40.60543     40.60543     40.60543    36.934272   -27.131059    17982.338    31.251669    17854.895     106.6822    484.23201   -13325.152    222.24729 
    6650    40.606492    40.606492    40.606492    27.935899   -38.026677    17032.562    291.58289      17360.6   -169.74852    484.08167   -13323.272    219.68455 
    6700    40.605902    40.605902    40.605902   -2.8302171   -32.479587    17748.623   -15.290284    18056.836    39.279221    484.19922   -13325.483    225.03079 
    6750    40.605041    40.605041    40.605041    116.28823    11.166754    17488.768    118.66357    17550.064    219.03438    484.48589     -13324.7    224.58162 
    6800    40.606317    40.606317    40.606317   -94.135085   -116.06994    17738.963   -53.083775    18231.382   -113.25154    484.41543   -13324.612    225.46738 
    6850    40.606909    40.606909    40.606909   -131.72414   -177.87527     18658.44   -112.67255    19012.038   -104.62461    484.37219   -13327.361    231.83937 
    6900    40.606457    40.606457    40.606457    38.770044   -42.543621    17536.012    139.77117     18479.27    19.082584    484.25642    -13323.81    226.02987 
    6950    40.607088    40.607088    40.607088    -35.87355   -57.864929    18401.906   -99.363756    18776.646    49.608035    484.24468   -13325.976    231.28561 
    7000    40.607798    40.607798    40.607798   -21.517973   -27.074967    17264.806    68.888779    17890.989   -106.36773    484.24001   -13321.758    224.17335 
    7050    40.608361    40.608361    40.608361   -85.333283   -62.294957    17917.376   -78.471956    18292.302   -115.23294    484.25988   -13324.227    229.99186 
    7100    40.607551    40.607551    40.607551  -0.32340728   -15.680349    17509.165    51.728357    18404.086    -37.01823    484.28811   -13323.223    229.10019 
    7150     40.60782     40.60782     40.60782    20.921777    45.317835    18003.077   -55.509065    18725.752    72.956561    484.36773   -13323.207    230.11782 
    7200    40.609482    40.609482    40.609482   -77.821672   -101.91746     18449.73    4.9611119    18413.828   -136.50867    484.27654   -13323.495    231.72021 
    7250    40.609913    40.609913    40.609913    50.433017   0.56460385    17975.862    75.008988    18570.785     75.72546    484.16427   -13321.183    228.29296 
    7300     40.60956     40.60956     40.60956    -69.90714   -13.571925    18227.958   -179.09254    18016.555   -17.056953    484.17483   -13321.826    230.56804 
    7350    40.608273    40.608273    40.608273    147.86894    124.22491    18234.422    181.66507    17870.924    137.71684    484.28897   -13319.822    227.72576 
    7400     40.61072     40.61072     40.61072   -38.902497   -22.541514    18125.556   -63.916036    18149.288   -30.249939    484.04441   -13321.343    231.69891 
    7450      40.6122      40.6122      40.6122   -125.41163   -226.57028    18651.645    -33.61997    19005.828   -116.04465    483.89467   -13322.895    235.72868 
    7500    40.610108    40.610108    40.610108   0.23229987   -85.457416    18798.074    5.8911509    18861.345    80.263165    484.20214   -13321.055    233.20319 
    7550    40.608593    40.608593    40.608593    216.78304    152.03962     18421.14    265.65517    18488.417    232.65434     484.3976   -13319.725    231.64868 
    7600    40.612333    40.612333    40.612333   -46.447022   -71.347699    18321.395    11.081953    18916.088    -79.07532    483.90277    -13319.66    232.54909 
    7650    40.614101    40.614101    40.614101    8.5688691   -63.097679    17430.921    126.74828    18371.463   -37.943999    483.90781   -13317.293     228.9811 
    7700    40.612387    40.612387    40.612387   -98.768505   -57.973541    18466.925   -144.42907    19021.987   -93.902904     483.9601   -13319.588    234.44054 
    7750    40.607968    40.607968    40.607968    199.50031    202.77634    18425.813    254.41477     19217.05    141.30983    484.22538   -13320.441    237.10839 
    7800    40.611213    40.611213    40.611213    10.113906    81.539417    18732.043    -64.43268    18770.111     13.23498    484.19708   -13320.135    237.51591 
    7850    40.615802    40.615802    40.615802    -190.8177   -123.93483    18953.109   -155.49397    18803.675   -293.02431    483.82627   -13316.958    232.37563 
    7900    40.614071    40.614071    40.614071   -62.814506    -179.3342    18979.823   -47.023971    19151.392    37.914647    484.10689   -13319.654    238.59408 
    7950    40.610522    40.610522    40.610522     61.91862    100.38714    18826.047    136.28653    19107.445   -50.917809    484.32525   -13320.447    241.13365 
    8000    40.612416    40.612416    40.612416    54.480615    36.677358    19248.442    96.889371    18865.174    29.875117    484.16711   -13318.108    237.59574 
    8050    40.616739    40.616739    40.616739   -201.42892   -220.49972    19047.546   -266.56184    19036.427   -117.22521    483.78662   -13317.484     237.3978 
    8100    40.613917    40.613917    40.613917   -29.516087   -62.473189    19201.626    8.6103831    19622.098   -34.685456    484.07314   -13318.824    240.98117 
    8150    40.611079    40.611079    40.611079    233.41268     250.2191    18733.465    199.26147    18920.856    250.75748    484.31024   -13316.499    237.46563 
    8200    40.615557    40.615557    40.615557   -73.482497   -143.76325    19364.563    121.83238    19183.817   -198.51662    483.77471   -13318.206    241.75524 
    8250    40.618041    40.618041    40.618041   -99.554299    28.475224     18802.32   -164.46411    19029.065   -162.67401    483.72336    -13314.28    235.13872 
    8300    40.614975    40.614975    40.614975    28.031927   -144.03934    19380.763    205.83186    19141.619    22.303256    483.94804   -13316.211    239.85171 
    8350    40.611951    40.611951    40.611951    171.74974    263.70158    19545.885    140.68604    19453.987    110.86162    484.23134   -13316.616    241.61323 
    8400    40.614453    40.614453    40.614453    143.17086  -0.11537715    18897.174    138.95256    19111.381     290.6754    484.13723   -13313.361    236.28983 
    8450    40.618979    40.618979    40.618979   -283.99859   -222.64095    18831.172   -181.34927    19945.005   -448.00554    483.76794   -13317.732     245.7156 
    8500    40.615661    40.615661    40.615661   -29.771671   -69.689884     19733.77    -99.93417     19895.58    80.309039    483.94352    -13315.56    242.47643 
    8550     40.61192     40.61192     40.61192    275.83701    274.34212    19392.697    321.67168    18796.735    231.49724    484.19358   -13315.123     242.6027 
    8600    40.616597    40.616597    40.616597   -150.21221    -307.5939    19742.439    22.330695    19970.845   -165.37342    483.84886   -13317.089    247.35868 
    8650     40.61938     40.61938     40.61938   -70.949903   -188.44591    18991.297   -23.889919    19072.421  -0.51388247    483.58957   -13313.832    242.01927 
    8700    40.618511    40.618511    40.618511   -118.97868   -41.616921     19328.43   -90.616415    20069.468   -224.70272    483.69689   -13314.804    244.84642 
    8750    40.615356    40.615356    40.615356    184.70792    24.093517    19203.405    267.47839    19633.882    262.55184    483.98592   -13312.664    241.65958 
    8800     40.61578     40.61578     40.61578    49.124551    51.019324    18803.842    85.170428    18776.231    11.183902    484.07004   -13313.827    244.86054 
    8850    40.617841    40.617841    40.617841   -30.004023   -14.969104     19720.46    14.218623    19738.266   -89.261589    483.86928    -13314.23    246.57563 
    8900    40.618905    40.618905    40.618905   -196.67237   -69.287145    19868.735   -267.14581    19266.941   -253.58416    483.78776   -13315.482    249.94202 
    8950    40.616633    40.616633    40.616633    113.56155     17.70615    19031.257    205.62112    19576.813    117.35737    483.94131   -13312.174    244.47327 
    9000    40.617981    40.617981    40.617981   -5.3782871   -96.290796    20781.446    102.10605    20144.721   -21.950111    483.91736   -13315.903    252.62496 
    9050    40.620148    40.620148    40.620148   -48.644761    26.770246    19688.994   -95.187336    20034.458   -77.517195    483.84723   -13311.498    245.02404 
    9100    40.620057    40.620057    40.620057   -49.592958   -174.28861    19125.921   -33.121107    19618.653    58.630846    483.69196   -13312.283    247.47347 
    9150     40.61758     40.61758     40.61758    150.26405    225.47259    19166.924    101.73932    18996.638    123.58025    483.90815   -13310.095    244.16108 
    9200     40.61774     40.61774     40.61774    72.268147    41.329583    19787.655    38.217779    20058.057    137.25708    483.99625   -13311.689    248.16871 
    9250    40.619622    40.619622    40.619622   -84.083887   -149.79255    19716.243    -69.87264    20557.462   -32.586469    483.80724   -13311.349    248.42467 
    9300    40.619538    40.619538    40.619538    119.50181    125.80622    20392.868     23.83651    19928.779    208.86271     483.8991   -13311.853    250.31265 
    9350    40.620623    40.620623    40.620623   -23.026387   -212.93313    20319.174    47.062092    19761.606    96.791877    483.80078   -13310.946    249.45277 
    9400    40.621651    40.621651    40.621651   -110.30374    55.349363    19968.557   -308.53971    19609.998   -77.720873    483.73989    -13310.94    250.34293 
    9450    40.620796    40.620796    40.620796    119.80518    22.147835    19840.024    168.09362    19690.129    169.17409    483.95226   -13308.678    246.86507 
    9500    40.621436    40.621436    40.621436   -77.654363   -94.095478    20270.269   -169.62014    20319.366    30.752526    483.84932   -13312.361    254.89143 
    9550    40.620956    40.620956    40.620956    80.176844   -81.439503    19957.638    171.10941    20723.351    150.86063    483.79917   -13310.642     252.4677 
    9600    40.623082    40.623082    40.623082   -100.37971   -50.707541    20253.809   -83.798674    19531.766   -166.63292    483.61005   -13311.014    254.06807 
    9650     40.62368     40.62368     40.62368   -96.708169   -111.18675    19698.746   -146.71085    20151.391   -32.226906    483.61634   -13309.976    252.94982 
    9700    40.621786    40.621786    40.621786    25.766695   -101.68196    20251.977    193.85198    20527.143   -14.869939    483.79503   -13311.217    256.23031 
    9750    40.621617    40.621617    40.621617    63.783347    45.223363    20590.418    18.202269     20632.02    127.92441    483.84353   -13309.015    252.84887 
    9800    40.623567    40.623567    40.623567    30.108544   -256.64207    19996.704    218.38384    20397.213    128.58387    483.65563   -13308.817     253.3361 
    9850    40.625018    40.625018    40.625018   -209.09391   -204.87145    20890.435   -333.00963    21172.559   -89.400642    483.54989    -13310.94    258.31262 
    9900    40.622237    40.622237    40.622237    148.31384    127.49748    19821.716    211.31408    20016.386    106.12996    483.82606   -13307.278    252.08567 
    9950    40.623383    40.623383    40.623383     1.582774    69.834119    21191.627   -163.62004    21364.367    98.534248     483.7595   -13310.401     258.9926 
   10000     40.62607     40.62607     40.62607   -49.067764   -32.888182     20120.65    31.781308    19863.238   -146.09642    483.43885   -13306.221    251.76572 
   10050    40.625601    40.625601    40.625601   -111.26613   -260.75667    20802.924   -93.751589    20479.086    20.709871    483.56003   -13309.037    258.07207 
   10100     40.62165     40.62165     40.62165    194.77386    28.814092      20831.6    505.48434    21074.681    50.023147    483.87032   -13308.396    257.68142 
   10150    40.623957    40.623957    40.623957    148.65111    67.804204    20020.879    36.673761    20239.901    341.47535    483.72371   -13305.783    253.47093 
   10200    40.629076    40.629076    40.629076   -266.31898   -507.92354    20604.204   -161.58297    20772.601   -129.45043    483.35762     -13308.7    259.95316 
   10250    40.626239    40.626239    40.626239    139.51768    308.09578      20098.9    15.774635    20239.344    94.682613    483.65859    -13303.86    251.42496 
   10300    40.624167    40.624167    40.624167     -32.4434   -82.799664    21352.893   -62.479318    20694.853    47.948784    483.67361   -13309.107    262.41275 
   10350    40.623612    40.623612    40.623612     175.4361    204.33298    20214.151      258.726    20657.993     63.24931     483.5144   -13305.282     255.8423 
   10400    40.627102    40.627102    40.627102   -209.12009   -222.42107    21524.861   -245.20351    21871.063   -159.73569    483.57821   -13309.194    264.24465 
   10450    40.626953    40.626953    40.626953   -37.296466   -132.87675    20469.415     82.48944    20795.286   -61.502083    483.59393   -13306.088    259.05202 
   10500    40.625844    40.625844    40.625844     3.606221    -58.26973    21156.385   -86.758565    21213.482    155.84696    483.81391   -13306.912    261.45961 
   10550    40.625595    40.625595    40.625595    111.78184    112.94411    20895.932    309.47861     20349.15   -87.077194    483.57979    -13304.68    257.95671 
   10600    40.628278    40.628278    40.628278   -8.4171661     70.80722    20531.451   -24.293744    20689.568   -71.764974    483.39452    -13304.87    259.13252 
   10650    40.629525    40.629525    40.629525    -76.00165    29.818683    21090.762    -84.45566    20575.976   -173.36797    483.21967   -13304.625    259.46901 
   10700    40.627011    40.627011    40.627011    47.009139   -16.427123    21099.653    162.61651    21304.243   -5.1619706    483.42886   -13306.004    262.94252 
   10750    40.625683    40.625683    40.625683    101.81504    128.92511    20889.661    169.09554    21533.075    7.4244807    483.79992   -13304.619    261.05812 
   10800    40.628883    40.628883    40.628883   -57.759356   -232.59692    22098.812   -42.288746    21042.002     101.6076    483.53474   -13305.472    263.48864 
   10850    40.630171    40.630171    40.630171   -214.60569     -342.753    21647.445   -101.34117    21046.029    -199.7229    483.19299   -13305.818    264.95585 
   10900    40.625775    40.625775    40.625775    151.63751    78.462207    21102.665    158.15176     21253.23    218.29857    483.63081   -13303.888    262.00642 
   10950    40.625825    40.625825    40.625825    156.99311    351.87784    21085.029    28.857647    20820.723    90.243849    483.65849   -13304.334    263.65212 
   11000    40.629465    40.629465    40.629465   -4.6147152   -257.73613    21028.743    122.77483    21666.724    121.11715    483.50535   -13303.002    261.85318 
   11050    40.631044    40.631044    40.631044   -216.10871   -397.60634    21840.486   -158.54736    21524.788   -92.172443    483.51756   -13305.477     267.4096 
   11100    40.628304    40.628304    40.628304   -8.2088922    -27.43093    21960.715   -7.8096948    21520.078    10.613949    483.56938   -13304.539    266.35772 
   11150    40.626833    40.626833    40.626833    47.524497   -24.750529    21439.324    171.35739    21844.404   -4.0333658    483.61333   -13304.416    266.89007 
   11200    40.628827    40.628827    40.628827    66.135866   -26.759252    21493.063    -54.27607    21751.399    279.44292    483.60183   -13302.796     264.5124 
   11250    40.631237    40.631237    40.631237   -205.72997   -313.74178    21459.369   -196.51809    21425.936   -106.93004    483.36681   -13303.694    267.01032 
   11300    40.627988    40.627988    40.627988    145.36804    303.85977    21020.686    46.112924    21702.545    86.131426    483.59082   -13301.625    263.75624 
   11350    40.627598    40.627598    40.627598    123.42655    49.406004     21746.22     151.7312     21643.38    169.14245    483.70726     -13302.5    266.19717 
   11400    40.631013    40.631013    40.631013   -77.358293   -166.48749    21181.698    -50.58186    22099.552   -15.005531    483.36158   -13302.024    266.01716 
   11450    40.632363    40.632363    40.632363   -19.472944    -90.11872    21375.139   -33.678407    21113.452    65.378293    483.15277    -13300.91    264.60553 
   11500    40.630696    40.630696    40.630696   -3.0508462   -160.00149    21540.823    48.513397     21708.89    102.33555    483.39507   -13301.475    266.43476 
   11550    40.628804    40.628804    40.628804    126.34517    150.27522    21555.381    126.02328    21149.209    102.73703    483.69378   -13302.117    268.41079 
   11600    40.630261    40.630261    40.630261    73.233627   -189.57979    21427.043    117.34552    22377.081    291.93515    483.63184   -13300.928    266.82904 
   11650    40.634013    40.634013    40.634013   -181.24677   -102.18677    21891.839   -93.849952    22513.708   -347.70358    483.18763   -13302.663    270.90194 
   11700    40.633111    40.633111    40.633111   -58.957529   -187.11382     21331.91   -111.76711    22046.418    122.00834    483.40866   -13300.459     267.3539 
   11750    40.630416    40.630416    40.630416    24.711564   -45.483729    21845.575    126.59345    22122.373   -6.9750275    483.42895   -13302.282    271.58763 
   11800     40.63046     40.63046     40.63046    26.762155   -93.700409    22224.497     19.32279    22870.448    154.66408    483.53242   -13302.153    272.05155 
   11850    40.633042    40.633042    40.633042   -87.038853   -104.27361    21910.574    -134.4311    22196.785   -22.411855    483.53273   -13300.574    269.69782 
   11900    40.633192    40.633192    40.633192   -79.570443    23.165684    21538.088   -28.753296    21933.553   -233.12372      483.211   -13299.843    268.98867 
   11950    40.631173    40.631173    40.631173    118.26227     10.00073    22263.382    122.41582    22723.549    222.37025    483.51062   -13301.134    272.18158 
   12000    40.632786    40.632786    40.632786   -78.056303    59.459661    21918.852   -129.93546    21747.528   -163.69311    483.35382   -13301.306    273.20595 
   12050    40.633253    40.633253    40.633253   -112.85073   -227.21485    22030.957   -134.45662    22546.115    23.119281     483.3619   -13301.911    275.06268 
   12100    40.631762    40.631762    40.631762    74.823908    125.98572    22536.928   -51.757588    22067.708     150.2436    483.54484   -13300.219    272.47072 
   12150    40.632564    40.632564    40.632564    51.699905    67.557455    22244.161    36.367176    22255.517    51.175083    483.38358   -13299.354    271.46837 
   12200    40.635215    40.635215    40.635215   -52.400902   -178.48675    22006.911   -65.642467     21406.63    86.926515    483.23324   -13298.614    270.70756 
   12250    40.635432    40.635432    40.635432   -130.77979   -126.65134    23042.756   -32.035334    22233.972   -233.65269    483.12925   -13301.017    276.02303 
   12300    40.632938    40.632938    40.632938    135.49607    51.613656    22073.248    68.905016    22015.625    285.96953    483.46786   -13298.193     271.2239 
   12350      40.6338      40.6338      40.6338    110.79204   -4.0624609    22065.256    156.24311    22133.063    180.19546    483.33009   -13298.862    273.17917 
   12400    40.636491    40.636491    40.636491   -84.226133   -156.34843    22286.754   -53.223318    22233.478   -43.106656    483.07438   -13298.516    273.16508 
   12450     40.63608     40.63608     40.63608   -105.43112   -113.94969    21725.828    31.671273    22783.949   -234.01495    483.18315   -13299.057    274.85802 
   12500     40.63349     40.63349     40.63349    73.301941   -126.24504    22269.587     99.61075    22701.517    246.54011    483.35001   -13299.132    275.65091 
   12550    40.634765    40.634765    40.634765    108.36807    158.23465    22177.986    4.7940989    22283.972    162.07545    483.29671   -13297.624     273.3763 
   12600    40.638009    40.638009    40.638009   -209.13169   -344.18259    22128.658   -95.649934    22671.976   -187.56254    483.16958   -13298.598     275.8979 
   12650    40.635318    40.635318    40.635318    42.289504    47.830192    22156.386   -45.030418    22385.153    124.06874    483.31241   -13299.196    277.68473 
   12700    40.634776    40.634776    40.634776    50.474438   -38.278257    21918.238    52.429299    22478.957    137.27227    483.40108    -13298.83    277.60061 
   12750    40.637413    40.637413    40.637413   -54.674044    116.52329    22664.241   -89.556189    21681.791   -190.98924    483.02528   -13297.222    275.11887 
   12800    40.637637    40.637637    40.637637    17.392318    -212.4068    22257.617    113.15086    22995.614     151.4329    483.13026   -13296.433    274.21775 
   12850    40.636444    40.636444    40.636444   -3.2089293    27.118558    22470.423   -64.830864    21773.212    28.085518    483.25943   -13296.615    275.18459 
   12900    40.635496    40.635496    40.635496    112.85919   -16.130395    22515.169    171.77843    23453.712    182.92953    483.34021   -13296.632    275.83382 
   12950     40.63761     40.63761     40.63761    70.575063    60.800672    22258.191    54.946595    22420.296    95.977923    483.22661   -13296.897    276.95357 
   13000    40.639634    40.639634    40.639634   -170.17992   -259.99103     23178.16   -351.17303    23109.981    100.62431    483.09316   -13298.108    279.90085 
   13050    40.637291    40.637291    40.637291   -3.4885987   -69.042692    22444.292    144.65744    23204.521   -86.080541    483.21133    -13297.37    279.07051 
   13100    40.635236    40.635236    40.635236    285.64911    315.25233    21916.485    260.62272    22115.382    281.07229    483.29974   -13293.252    271.69647 
   13150    40.639057    40.639057    40.639057   -181.74363   -167.99126    23221.171   -151.01727    23011.487   -226.22236    482.89974   -13298.159     281.7789 
   13200     40.63981     40.63981     40.63981    56.183701   -181.40784    21699.539    247.79395    23117.306      102.165    483.01626   -13294.232    274.76961 
   13250    40.638489    40.638489    40.638489   -86.426982   -235.51017    22920.044   -189.17544     23125.69    165.40466    483.41058   -13297.241    281.17201 
   13300    40.635856    40.635856    40.635856    92.943918    58.114107    22606.544    243.30267    23107.634    -22.58502    483.40585   -13296.341    280.00382 
   13350    40.637821    40.637821    40.637821   -11.807637   -71.060899    22738.247   -55.137929    22608.587    90.775916    483.18688   -13297.248    282.32932 
   13400    40.640089    40.640089    40.640089   -244.51189   -222.86359    22532.214   -325.95106      22707.4     -184.721    482.96232   -13296.377    281.21349 
   13450    40.637708    40.637708    40.637708    224.67057    299.08332    23074.411    228.42859    22670.186     146.4998    483.10585   -13293.736    276.66879 
   13500    40.638508    40.638508    40.638508   -35.183139   -224.25489    22620.266   -23.668273    22894.667    142.37375    482.96782    -13294.82     279.3269 
   13550    40.638004    40.638004    40.638004   -29.545736   -110.31045    22796.064    48.517033    23434.177   -26.843796    483.14431   -13296.986    284.07303 
   13600    40.637313    40.637313    40.637313    2.9985382    -20.30025    23354.964   -156.28401    23067.665    185.57988    483.24692   -13296.215    283.12797 
   13650    40.638396    40.638396    40.638396   -14.068008   -114.53994    22615.163    18.101605    23007.511    54.234306    483.22021   -13294.578    280.50422 
   13700     40.63977     40.63977     40.63977   -24.028045   -31.566892    22564.828   -88.182613    22568.125     47.66537    483.14834   -13294.035    279.99381 
   13750     40.63924     40.63924     40.63924    52.050265    -17.10691    23246.871   -89.977532    22869.287    263.23524    483.21551   -13293.941    280.34795 
   13800    40.638391    40.638391    40.638391    110.32958    153.57904    22812.837  -0.92167679    22327.424    178.33139    483.27768   -13292.726    278.53424 
   13850    40.638572    40.638572    40.638572     76.64713   -45.554201    23569.758    116.22915    23107.032    159.26645    483.27524   -13294.325    282.15374 
   13900    40.640473    40.640473    40.640473     9.791836   -57.548615    22892.008    19.475116    23078.679    67.449007    483.16903   -13293.875     281.8037 
   13950    40.642547    40.642547    40.642547   -155.24301   -131.91731    23306.177   -131.80256    23544.116   -202.00915    482.95645   -13295.158    284.80494 
   14000     40.64039     40.64039     40.64039   -35.655012   -332.61646    21877.141     52.87647    23338.902    172.77495    483.24917   -13293.769    282.62806 
   14050    40.638549    40.638549    40.638549    49.507167    87.248983    24008.162    4.9390984    23357.651    56.333419    483.43779   -13295.744    286.96311 
   14100    40.639947    40.639947    40.639947      2.72087    13.003139     23102.37   -31.598315    22797.887    26.757785    483.16918   -13294.216    284.51509 
   14150    40.641101    40.641101    40.641101    30.233658   -3.9348283    23059.572    187.21131     22624.81   -92.575504    482.71288   -13291.686    280.12516 
   14200    40.641083    40.641083    40.641083   -50.158484   -149.02153    23542.208   -41.156181    23186.533    39.702255    482.97706   -13294.162    285.40899 
   14250    40.641189    40.641189    40.641189    22.345014    12.646576    22790.853   -142.41608    23392.853    196.80455    483.16764   -13294.206    285.98202 
   14300    40.641404    40.641404    40.641404    104.07924    43.143855    21963.074    68.220708    22357.434    200.87317    483.03932   -13290.024    278.38251 
   14350    40.641892    40.641892    40.641892    -1.845087   -72.708735    22906.131   -198.09654    22306.925    265.27002    483.02937   -13293.086    284.79306 
   14400    40.641417    40.641417    40.641417   -36.180675   -153.97295    23639.309   -44.451724    23620.887    89.882649    483.10744   -13295.188     289.3449 
   14450    40.640686    40.640686    40.640686    108.74009    143.41713    23727.093    101.92335    23258.849    80.879783    482.94495   -13291.498    282.67855 
   14500    40.643262    40.643262    40.643262   -14.583012    32.320591    23352.592   -48.607513    23636.155   -27.462113    482.85478   -13292.327    284.74998 
   14550    40.642986    40.642986    40.642986   -37.790055   -226.65181     22797.83     65.67136    23413.414     47.61028    482.98486   -13292.161    284.89494 
   14600    40.640718    40.640718    40.640718    64.243243    64.196799    23568.124   -6.1570565    23235.272    134.68999    483.19741   -13292.745    286.48662 
   14650    40.641474    40.641474    40.641474    18.583595    65.058129    24710.419   -126.14258    23392.483    116.83524     483.1561   -13292.072    285.64295 
   14700    40.643283    40.643283    40.643283   -80.770125     20.17634    23616.467   -145.49623     24297.69   -116.99048    482.97094   -13293.395    288.65391 
   14750      40.6432      40.6432      40.6432    18.825638    12.131751    22945.949   -5.8742923    22484.596    50.219456    482.86115    -13291.05    284.57408 
   14800    40.641828    40.641828    40.641828    59.688144     13.38137    23344.049   -6.9829497    23566.518    172.66601    483.16033   -13291.847    286.56654 
   14850    40.641895    40.641895    40.641895    66.260735    -31.36407    23105.153    59.560317    23764.644    170.58596    483.19548   -13291.946     287.1986 
   14900    40.644253    40.644253    40.644253    -137.8918   -28.810621    24031.348   -283.00416    23926.425   -101.86061    482.86184   -13293.074    289.82247 
   14950    40.643903    40.643903    40.643903   -25.902299   -149.35746    22854.251   -19.989706    23480.152     91.64027    482.91569   -13291.409    287.03537 
   15000    40.641649    40.641649    40.641649     121.2001    369.62337    23628.846   -105.35529    23466.059    99.332208    483.07395    -13291.13    286.92694 
   15050    40.640804    40.640804    40.640804    124.25808    130.95532    23011.404    266.91166    23140.171   -25.092751    483.15367   -13290.189    285.52842 
   15100    40.643721    40.643721    40.643721    68.421529    56.283599    23481.438    34.445267    23036.085    114.53572    482.95114    -13289.81    285.21211 
   15150    40.646227    40.646227    40.646227   -260.38134   -424.20211    23758.552   -211.45708     23247.31   -145.48484    482.79433   -13291.683    289.25668 
   15200    40.641762    40.641762    40.641762    130.30459    204.55067    22980.401    116.31639      23325.4    70.046715    483.28284   -13290.562    287.49797 
   15250    40.641099    40.641099    40.641099    98.566659     46.09651    23744.072    79.674937    23746.971    169.92853    483.27973   -13292.078    290.84329 
   15300    40.644544    40.644544    40.644544   -118.84699    75.931577    23523.208   -140.47862    23617.862   -291.99393    482.96438   -13292.477    292.02294 
   15350    40.645904    40.645904    40.645904   -177.19528   -169.86276    24197.502   -274.56886    23696.413   -87.154236    483.14503   -13291.589    290.70199 
   15400    40.643297    40.643297    40.643297    83.933268    152.76898    23494.992      41.9908    23803.133    57.040018    483.20787   -13289.785    287.61095 
   15450    40.643212    40.643212    40.643212   -47.128333    -3.393349     24246.74   -127.31612     24221.16   -10.675524    482.96596   -13293.994    296.15045 
   15500    40.644556    40.644556    40.644556   -10.913815    130.34848    23444.308   -50.513648     23681.34   -112.57628    483.03292   -13289.964    288.73837 
   15550    40.645592    40.645592    40.645592   -114.97909   -134.85099    23765.812   -47.571431    24422.152   -162.51484    482.94539   -13290.329    289.82883 
   15600    40.643746    40.643746    40.643746    55.880874    222.32778    23858.819   -81.345277    23790.549    26.660114    482.92416   -13290.832    291.18802 
   15650    40.643304    40.643304    40.643304    147.72957    187.86622    23393.655    99.284361     23978.25    156.03812    483.07247   -13288.079    286.24089 
   15700    40.645435    40.645435    40.645435   -95.613541    108.29415    23959.328   -140.73087    23853.495    -254.4039    482.88566   -13291.127    292.51058 
   15750    40.645221    40.645221    40.645221   -119.59063   -210.43333    23998.476     -83.1876    24612.058   -65.150955    483.16758    -13290.72    292.09127 
   15800     40.64282     40.64282     40.64282    128.44945    151.43527    24402.885   -10.250141    23631.558    244.16322    483.17625   -13290.004    291.06987 
   15850    40.643562    40.643562    40.643562    255.12946    184.87633    23193.351    204.18276    23761.138    376.32928    483.17174    -13286.28     284.2209 
   15900    40.648933    40.648933    40.648933   -203.49251    -85.01199     23529.55   -224.27456    24150.441   -301.19097    482.59024   -13289.703    291.20079 
   15950    40.647235    40.647235    40.647235   -177.93799   -277.47371    23929.067   -130.23204    23756.867   -126.10822    482.66948   -13291.204    294.46058 
   16000    40.641642    40.641642    40.641642    253.28201    245.03511      23824.3    116.57843    24429.614    398.23248    483.30714   -13290.572    293.59034 
   16050     40.64468     40.64468     40.64468    44.585677   -2.5265583    23348.162    193.21688    23970.987   -56.933291    483.00188   -13289.491    291.84188 
   16100    40.648092    40.648092    40.648092   -96.521565   -56.646929    23304.298   -213.35102    23335.267   -19.566745     482.6371   -13287.606    288.53645 
   16150    40.646183    40.646183    40.646183   -124.85479    -223.7641     24691.01    -140.8099    24110.878   -9.9903647    482.90797   -13291.657    296.70436 
   16200    40.643683    40.643683    40.643683    260.25256    311.88632    23713.104    121.74351    22915.721    347.12785    483.01205   -13286.817    287.67145 
   16250    40.647248    40.647248    40.647248   -64.881933    27.348632    24035.508   -187.98853    24284.835   -34.005901    482.73578   -13289.246    292.70305 
   16300    40.647707    40.647707    40.647707   -300.11993   -413.03993    23873.979   -163.64314     24645.18    -323.6767    482.69756   -13292.628    299.56755 
   16350    40.643982    40.643982    40.643982     184.8353    291.46572     23891.21    92.583257    23648.948    170.45693    482.95777   -13288.662    292.21654 
   16400    40.646359    40.646359    40.646359   -120.05301   -36.129501     23134.03   -117.08587    24133.406   -206.94367    482.77564   -13290.463    296.02097 
   16450    40.646194    40.646194    40.646194     131.3871    117.35014    22954.174    123.33839    23671.314    153.47277    482.70538   -13286.527    288.71751 
   16500    40.645997    40.645997    40.645997    19.115891    199.68744    23588.306   -44.688078    24018.799   -97.651693    482.74243   -13287.923    291.72469 
   16550    40.645018    40.645018    40.645018      139.161    245.82592    23634.528    67.598466    23500.373     104.0586    483.03592   -13286.999    290.23117 
   16600    40.646961    40.646961    40.646961   -47.628543   -26.188985    24298.459   -115.06211    23842.096   -1.6345282    482.91614   -13288.658    293.73898 
   16650    40.647639    40.647639    40.647639   -163.65753   -132.37627    24242.622   -199.92358    24001.789   -158.67272     482.8309   -13289.088    294.86789 
   16700    40.644928    40.644928    40.644928    90.328838    3.7104478    23680.728    156.31857    24567.235     110.9575    482.94328   -13289.441    295.84883 
   16750    40.645008    40.645008    40.645008    66.487621    308.01568    23574.477   -9.2102034    23576.928   -99.342608    482.99566   -13287.397    292.18604 
   16800    40.646982    40.646982    40.646982   -28.647079    -1.732685    24120.727   -113.97574    24266.641    29.767187    482.80926   -13288.147    293.92404 
   16850    40.647575    40.647575    40.647575   -113.98103   -112.42947    23580.084   -158.39772    24305.763   -71.115905    482.77616   -13289.385     296.6021 
   16900     40.64558     40.64558     40.64558    185.06392    171.88758     23230.06    257.47412    23657.822    125.83005    482.89531   -13286.361    291.02729 
   16950    40.646624    40.646624    40.646624   -8.3386466    105.91063    24065.122   -153.59331    24414.145    22.666735    482.87144   -13288.359    295.16891 
   17000    40.647892    40.647892    40.647892     -84.9798   -202.79434    23933.257   -84.437064     24339.23    32.292003     482.8139   -13288.971    296.61817 
   17050    40.647433    40.647433    40.647433   -41.121248    62.970544    24338.915    -258.0537     24513.35    71.719408    482.91802   -13287.587    294.20613 
   17100    40.646208    40.646208    40.646208    51.590538   -157.36983    23636.531    181.58593    24779.108    130.55551    483.00965   -13288.503    296.24409 
   17150     40.64691     40.64691     40.64691   -65.900093    88.764333    24474.687   -136.20971    24409.346    -150.2549    482.71151   -13288.567    296.63092 
   17200    40.647071    40.647071    40.647071   -5.7301942    85.350031    23714.752   -56.817588    24131.855   -45.723026    482.66667   -13287.799    295.40475 
   17250    40.647511    40.647511    40.647511    -25.19417   -189.67004    24141.151    87.685232    24220.875    26.402299    482.83468   -13287.151     294.4074 
   17300    40.646197    40.646197    40.646197    51.128973   -28.626207    24169.779   -66.967949    23906.335    248.98108     483.1593   -13286.795    293.97096 
   17350    40.645704    40.645704    40.645704     25.76403    133.32117    23779.752   -41.976564    24138.428    -14.05252    483.05223   -13287.693    295.95127 
   17400    40.646821    40.646821    40.646821    88.993293   -51.853742    23493.822    109.37425    24699.671    209.45937    483.01538   -13287.471    295.76596 
   17450    40.649304    40.649304    40.649304    -91.48287    7.8513218    24662.724   -111.95574    24024.091   -170.34419    482.79541   -13287.294    295.65469 
   17500     40.64965     40.64965     40.64965   -125.92975   -340.24098     24392.62    26.244848    25128.012   -63.793135    482.88819   -13288.019    297.29323 
   17550    40.646417    40.646417    40.646417    4.3014998   -46.704835     24801.56   -108.84987    24819.082     168.4592    482.97765   -13288.223    297.92335 
   17600    40.644359    40.644359    40.644359    139.68143    106.22348    24706.126    162.31823    24418.746    150.50258    483.22058   -13287.957    297.64168 
   17650    40.647422    40.647422    40.647422    14.878034    216.79361    24260.981   -132.52787     23832.22   -39.631644    482.91912   -13285.756    293.60247 
   17700    40.650624    40.650624    40.650624   -138.79927   -55.326369    24101.726   -197.14582     25199.61   -163.92561    482.73318   -13288.721    299.56013 
   17750    40.649172    40.649172    40.649172   -36.150917    61.241998    24203.379    19.197546    24456.922    -188.8923    482.82986    -13286.87    296.19526 
   17800    40.646619    40.646619    40.646619    134.11957     266.8086      24527.1    61.829198    24287.661    73.720902    483.01746   -13285.681    294.11104 
   17850    40.648224    40.648224    40.648224   -10.097739   -112.46807    24623.301   -4.1572798     24411.63    86.332135    482.92566   -13287.112    297.09284 
   17900    40.649757    40.649757    40.649757   -213.19533    -135.9982    24333.833   -465.20502    24346.316   -38.382757    482.69173   -13288.333    299.66476 
   17950    40.646153    40.646153    40.646153     133.7404    157.47713    24558.121    242.56937    24744.383    1.1747135    482.84455   -13286.412    296.14748 
   18000    40.646559    40.646559    40.646559    169.63043    205.26381    24023.168    36.418296    25160.699    267.20919    482.92475   -13287.075    297.62351 
   18050    40.652159    40.652159    40.652159   -295.84138   -172.97238    24089.287   -283.00239     24051.93   -431.54937    482.37709    -13288.39     300.3592 
   18100    40.650501    40.650501    40.650501    -73.75406   -73.999733    24620.799    -130.0967    24415.693   -17.165743    482.71615   -13285.795    295.52623 
   18150    40.646245    40.646245    40.646245    96.166344    155.87866    24187.761   -60.233594    24668.065    192.85397    482.90254   -13287.652    299.30984 
   18200    40.646927    40.646927    40.646927    175.47057    206.98394     23622.32     341.3466    24549.103   -21.918825    482.73909   -13285.156    294.66771 
   18250    40.652093    40.652093    40.652093   -179.84718   -56.152416    24126.231   -468.95038    24175.164   -14.438737    482.54472   -13286.688    297.81787 
   18300     40.65108     40.65108     40.65108   -146.48119   -204.13115    24122.534   -120.05816    23907.684   -115.25425    482.57582   -13286.354    297.34563 
   18350    40.647339    40.647339    40.647339    152.34576    345.38026    24402.369    116.05076     24231.49   -4.3937254    482.79834   -13287.164    299.08915 
   18400    40.648314    40.648314    40.648314    39.840227    111.98087    23906.892    -97.70683    24311.507    105.24664      482.715   -13284.387    293.89244 
   18450    40.649518    40.649518    40.649518   -43.171992   -2.8361551    23871.028     129.5971    24043.738   -256.27692    482.55337   -13286.612    298.36329 
   18500    40.648505    40.648505    40.648505    101.24795    218.24174     23930.16    15.561833    23908.166     69.94029    482.60817    -13284.19    293.83806 
   18550    40.648958    40.648958    40.648958   -52.247421   -4.6820598    24608.811   -196.79381    23892.716    44.733607    482.66231   -13288.345    302.03487 
   18600    40.649113    40.649113    40.649113   -56.733612   -3.5033343    25112.422   -90.042583    24032.881    -76.65492    482.80881   -13286.397    298.41916 
   18650    40.648364    40.648364    40.648364    68.655145    224.00438    25093.864   -188.23487     24240.19    170.19593    482.92125   -13286.073    297.94127 
   18700    40.650336    40.650336    40.650336   -80.376999   -141.46978    24084.884   -13.513316    24197.745     -86.1479    482.46686   -13285.705    297.38366 
   18750    40.650298    40.650298    40.650298   -128.58808   -83.145517    24063.972    -205.1903    24099.369   -97.428425    482.41526   -13287.988     301.9554 
   18800    40.646816    40.646816    40.646816    138.77851    312.50042    24147.999    83.938646    23662.334     19.89647    482.78556   -13284.734    295.80138 
   18850    40.648234    40.648234    40.648234    30.728254   -38.662071    24705.476   -7.3471006    23947.581    138.19393    482.88447   -13286.842    300.01921 
   18900    40.650992    40.650992    40.650992    -42.95928    148.55719    24206.259   -127.39375     24372.36   -150.04128    482.51625   -13285.424    297.41421 
   18950    40.650288    40.650288    40.650288   -100.85335    -181.3983    24069.665    62.860203    24655.312   -184.02196    482.57549   -13286.265    299.17496 
   19000    40.647024    40.647024    40.647024    214.95262    284.83887    24800.035    51.056801    23682.092    308.96218    482.74973   -13285.026    296.90714 
   19050    40.649705    40.649705    40.649705   -81.133724   -129.00732    25164.183    75.547217    24524.965   -189.94107    482.45591   -13286.857    300.57186 
   19100    40.651126    40.651126    40.651126   -101.32617   -31.477654    25100.497   -154.66723    24760.346   -117.83362    482.47405    -13287.34    301.62988 
   19150    40.650514    40.650514    40.650514   -61.937819   -59.029845    24684.561   -54.942506    23828.805   -71.841107    482.46901    -13286.17    299.48627 
   19200    40.648958    40.648958    40.648958   -40.202422     28.23678    24163.043   -47.031317    24178.193   -101.81273    482.60322   -13287.908    302.96654 
   19250    40.648297    40.648297    40.648297    193.92933    110.86583    23502.379    160.24061    23985.889    310.68154    482.62634   -13283.866     295.2575 
   19300    40.653967    40.653967    40.653967   -319.65063   -433.94692    25226.821   -265.61363    24576.121   -259.39133    482.36311   -13288.426    304.19497 
   19350    40.650697    40.650697    40.650697   -50.380578    75.039162    24009.383    -108.3705    24203.231   -117.81039    482.56671   -13284.214    296.15027 
   19400    40.645481    40.645481    40.645481    233.31821   -13.523612    24327.793    276.96417    24996.876    436.51408    483.12275   -13286.245    300.18916 
   19450    40.648108    40.648108    40.648108    86.601651    177.74298    24719.206     85.95445    24376.584   -3.8924808    482.81555   -13284.204    296.34544 
   19500    40.652051    40.652051    40.652051   -87.655979    -108.3931     24413.02   -28.882256    24185.186   -125.69258     482.4291   -13283.979    296.00928 
   19550    40.652947    40.652947    40.652947   -162.69022   -207.64374    24406.592   -247.02321    24785.233   -33.403704    482.36906   -13286.868    301.69673 
   19600    40.648603    40.648603    40.648603    123.89806     187.6444    24325.784    253.36595    24563.526   -69.316182    482.58783   -13284.234    296.69118 
   19650    40.646314    40.646314    40.646314    152.06679    299.51493    23880.312    114.99572    24057.451    41.689733    482.83227    -13285.08    298.41695 
   19700    40.648757    40.648757    40.648757   -6.5061867   -21.901854    23955.059    105.41324    25297.032   -103.02995    482.76042   -13285.998    300.27426 
   19750    40.650718    40.650718    40.650718   -105.49055   -89.223316    24940.472   -108.47253    24217.579   -118.77579    482.62645   -13285.718     299.8116 
   19800    40.650581    40.650581    40.650581  -0.49329861    115.55627     24513.19    120.12138    23840.612   -237.15754    482.49673   -13285.414    299.30153 
   19850    40.649939    40.649939    40.649939   -90.391231   -73.085082    24748.161   -203.69606    23807.719    5.6074539    482.53297   -13286.062    300.63334 
   19900    40.648117    40.648117    40.648117    37.872772    145.97849     24226.93    105.26909    24761.904   -137.62926    482.71033   -13286.943    302.41409 
   19950    40.648134    40.648134    40.648134   -71.534231   -120.29811    23829.257   -29.231516    25201.018   -65.073071     482.7026    -13286.23    301.10262 
   20000    40.648392    40.648392    40.648392    206.27109     236.8314    23184.232    298.12899    24207.119    83.852874     482.6609   -13283.071    295.05319 
Loop time of 896.145 on 4 procs for 20000 steps with 4000 atoms

Pair  time (%) = 830.546 (92.6798)
Neigh time (%) = 0 (0)
Comm  time (%) = 46.3711 (5.1745)
Outpt time (%) = 0.264552 (0.0295211)
Other time (%) = 18.964 (2.11617)

Nlocal:    1000 ave 1000 max 1000 min
Histogram: 4 0 0 0 0 0 0 0 0 0
Nghost:    4235 ave 4235 max 4235 min
Histogram: 4 0 0 0 0 0 0 0 0 0
Neighs:    70000 ave 72653 max 67302 min
Histogram: 1 0 1 0 0 0 0 1 0 1
FullNghs:  0 ave 0 max 0 min
Histogram: 4 0 0 0 0 0 0 0 0 0

Total # of neighbors = 280000
Ave neighs/atom = 70
Neighbor list builds = 0
Dangerous builds = 0
# run 	200000

# Use this if debug
# run 	1000
# run 200
unfix 1

# Store final cell length for strain calculations
variable tmp equal "lx"
variable L0 equal ${tmp}
variable L0 equal 40.6483922577475
print "Initial Length, L0: ${L0}"
Initial Length, L0: 40.6483922577475

######################################
# DEFORMATION
reset_timestep	0
set atom * xrad 0 yrad 0 zrad 0 vxrad 0 vyrad 0 vzrad 0
  4000 settings made for xrad
  4000 settings made for yrad
  4000 settings made for zrad
  4000 settings made for vxrad
  4000 settings made for vyrad
  4000 settings made for vzrad
fix		1 all npt temp 300 300 1 y 0 0 1 z 0 0 1 drag 1

variable srate equal 1.0e10
# variable srate equal 1.0e9 # tiny time step

variable srate1 equal "v_srate / 1.0e12"
fix		2 all deform 1 x erate ${srate1} units box remap x
fix		2 all deform 1 x erate 0.01 units box remap x

# Output strain and stress info to file
# for units metal, pressure is in [bars] = 100 [kPa] = 1/10000 [GPa]
# p2, p3, p4 are in GPa
variable strain equal "(lx - v_L0)/v_L0"
variable p1 equal "v_strain"
variable p2 equal "-pxx/10000"
variable p3 equal "-pyy/10000"
variable p4 equal "-pzz/10000"

# fix def1 all print 100 "${p1} ${p2} ${p3} ${p4}" file Al99.eam_rad.alloy.def1.txt screen no
# IMPLEMENTATION HERE
variable p5 equal "-pxxrad/10000"

# VERSION add rad variables
variable p6 equal "-pyyrad/10000"
variable p7 equal "-pzzrad/10000"

# VERSION ublb coupled/decoupled scheme
# variable p6 equal "-pxxub/10000"
# variable p7 equal "-pxxlb/10000"

fix def1 all print 20 "${p1} ${p2} ${p3} ${p4} ${p5} ${p6} ${p7}" file Al99.eam_rad.alloy.def1.txt screen no

# Use cfg for AtomEye
# dump 		1 all cfg 250 dump.tensile_*.cfg mass type xs ys zs c_csym c_peratom fx fy fz
# dump_modify 1 element Al

# print output to a text file every n timesteps
# dump		2 all custom 50 dump.xyz_rvf_rad.tensile_*.txt mass type id x y z vx vy vz fx fy fz xrad yrad zrad vxrad vyrad vzrad fxrad fyrad fzrad # use for rad developement
# dump		2 all custom 50 dump.xyz_rvf_rad.tensile_*.txt mass type id x y z vx vy vz fx fy fz xrad yrad zrad vxrad vyrad vzrad fxrad fyrad fzrad xub yub zub vxub vyub vzub fxub fyub fzub xlb ylb zlb vxlb vylb vzlb fxlb fylb fzlb # use for ublb developement

# Display thermo
thermo 	50
# thermo 1
# thermo_style	custom step v_strain temp v_p2 v_p3 v_p4 ke pe press

# IMPLEMENTATION HERE
thermo_style	custom step v_strain temp v_p2 v_p3 v_p4 v_p5 v_p6 v_p7 ke pe press
run	20000
Memory usage per processor = 5.63763 Mbytes
Step strain Temp p2 p3 p4 p5 p6 p7 KinEng PotEng Press 
       0            0    295.05319  -0.02368314 -0.029812899 -0.0083852874 -0.023923009 -0.023928083          nan    152.51633   -13283.071    206.27109 
      50       0.0005    305.27076  0.076385928  0.026700653   0.02544381   -2.5207095   -2.4879584          nan    157.79791   -13288.296   -428.43464 
     100        0.001    295.42717   0.06301276   0.02872752  0.009142002 -0.024332339 -0.024307287          nan    152.70965   -13283.145   -336.27427 
     150       0.0015    303.35582   0.10391563  0.021016666 -0.016979124   -2.5211586   -2.5212472          nan    156.80806   -13287.176    -359.8439 
     200        0.002    301.05276   0.11977248 -0.063221078 0.0076251495 -0.024323715 -0.024358918          nan    155.61758   -13285.908   -213.92183 
     250       0.0025    295.64903   0.15045177 -0.011141413 -0.017034305   -2.4632125   -2.4450359          nan    152.82433   -13283.033   -407.58686 
     300        0.003    297.59578   0.20177241  0.017257887  0.043740917 -0.024270365 -0.024304419          nan    153.83063   -13283.947   -875.90403 
     350       0.0035    297.90159   0.21457242  0.016962525  0.013201642   -2.4105358   -2.3986294          nan     153.9887   -13284.012   -815.78861 
     400        0.004     302.2837   0.23780181 -0.012340809 -0.030440108 -0.024286885 -0.024316947          nan    156.25386   -13286.167   -650.06963 
     450       0.0045    301.24938   0.28630656 0.0061301808 -0.035861067   -2.4338928   -2.4352413          nan    155.71922   -13285.519   -855.25223 
     500        0.005    296.61352   0.31253741 0.0079158149  0.014220882 -0.024263349 -0.024281649          nan    153.32289   -13283.004   -1115.5803 
     550       0.0055    304.12293   0.37536467  0.015063377  0.046358205   -2.4446316   -2.5244566          nan    157.20458   -13286.755   -1455.9542 
     600        0.006    295.36034   0.37703246 -0.0086069583 -0.0076705015 -0.024233606 -0.024273607          nan     152.6751   -13282.091   -1202.5167 
     650       0.0065    302.92334   0.41996667 -0.011519301 -0.00041694971   -2.4508768   -2.4762034          nan     156.5845   -13285.854   -1360.1014 
     700        0.007    298.20205   0.43576674 -0.025363065 -0.014081269 -0.024221048 -0.024269572          nan    154.14402   -13283.265   -1321.0747 
     750       0.0075    295.82411   0.48498769  0.015544159  0.011999991   -2.4712821   -2.3651851          nan    152.91483   -13281.879   -1708.4395 
     800        0.008    302.13311   0.52029438  0.027130983  0.018111419 -0.024191124 -0.024247056          nan    156.17602   -13284.977   -1885.1226 
     850       0.0085    301.09945   0.55422916  0.003843732 -0.016729839    -2.417817   -2.5075791          nan    155.64172    -13284.27   -1804.4768 
     900        0.009    300.31698   0.57208332 0.0015430849 -0.0065144422 -0.024185933  -0.02425659          nan    155.23725   -13283.688   -1890.3732 
     950       0.0095    301.07859    0.6263659 0.0012301972 -0.0057598621   -2.4471934   -2.4942785          nan    155.63093   -13283.895   -2072.7874 
    1000         0.01    301.50988   0.65335757 0.0023734946  0.040408462 -0.024139959 -0.024234291          nan    155.85387   -13283.925   -2320.4651 
    1050       0.0105    297.02491   0.66836506 0.0044850551 -0.0080675322   -2.4519809   -2.4553869          nan    153.53554   -13281.404    -2215.942 
    1100        0.011    299.92421   0.69534003    0.0050105 0.0089962338 -0.024152159 -0.024230169          nan    155.03422   -13282.701   -2364.4892 
    1150       0.0115    300.93967   0.72842287 -0.0066764886 -0.023511094   -2.4039471   -2.4351656          nan    155.55912   -13283.011    -2327.451 
    1200        0.012    298.11516   0.74283245 0.0023225495 -0.0056781198 -0.024139702 -0.024212943          nan     154.0991   -13281.331   -2464.9229 
    1250       0.0125    296.09534   0.80074317 -0.00015762297  0.016038089   -2.4601133   -2.3147702          nan    153.05503    -13280.06   -2722.0788 
    1300        0.013    300.38579   0.81874177 -0.0076835348  0.011580456 -0.024121612 -0.024204432          nan    155.27282   -13282.048    -2742.129 
    1350       0.0135    294.35458   0.84512009 -0.031162971 -0.024399982   -2.3404322   -2.4299436          nan    152.15522   -13278.691   -2631.8571 
    1400        0.014    298.92375   0.91345678 0.0073932019  -0.01098955  -0.02409869 -0.024182826          nan    154.51707   -13280.801   -3032.8681 
    1450       0.0145    299.86146   0.92245658  0.044193515  0.026805922   -2.3935764   -2.4174193          nan    155.00178   -13281.031     -3311.52 
    1500        0.015    297.04973   0.96477228 -0.0038140823 0.0042775993 -0.024079156 -0.024181481          nan    153.54837   -13279.319   -3217.4527 
    1550       0.0155    301.32705   0.97107154 -0.017055583 -0.023224235   -2.4938935   -2.4170724          nan    155.75936   -13281.256   -3102.6391 
    1600        0.016    300.47997    1.0189589 -0.0051068267 -0.018145599 -0.024083715 -0.024165081          nan     155.3215   -13280.543   -3319.0216 
    1650       0.0165    298.70423    1.0694414  0.016005424  0.029115908   -2.3716066   -2.3962225          nan     154.4036    -13279.34    -3715.209 
    1700        0.017     299.1915    1.1279416  0.018829441  0.025145113 -0.024033582 -0.024132203          nan    154.65547   -13279.296   -3906.3871 
    1750       0.0175    302.96186    1.1236282 0.0049706753 -0.0038490882   -2.4704559   -2.4460185          nan    156.60442   -13280.943   -3749.1659 
    1800        0.018    297.54899    1.1340796 -0.038355047 -0.0038681782 -0.024045241 -0.024152038          nan    153.80644   -13277.838   -3639.5214 
    1850       0.0185    300.18284     1.202559  0.024060562 -0.025380846   -2.4588378    -2.458787          nan    155.16791   -13278.883   -4004.1291 
    1900        0.019      301.905    1.2428105  0.013249417  0.042858646 -0.024012818 -0.024116113          nan    156.05811   -13279.452   -4329.7287 
    1950       0.0195    297.56463    1.2595106  0.020898741 0.0060602864   -2.4630188    -2.344724          nan    153.81452   -13276.881   -4288.2322 
    2000         0.02    301.39312     1.287643 -0.020410125 0.0014033429 -0.024024198 -0.024121825          nan    155.79352   -13278.523   -4228.7873 
    2050       0.0205    297.39065    1.3212022  -0.02259175 -0.028835303    -2.413283   -2.3856226          nan     153.7246   -13276.109   -4232.5839 
    2100        0.021    296.57933    1.3530512  0.024545494   0.01259576 -0.023985161 -0.024073902          nan    153.30522    -13275.34    -4633.975 
    2150       0.0215    301.86389      1.42285  0.014651572  0.018754474   -2.5185759   -2.5024025          nan    156.03686   -13277.716    -4854.187 
    2200        0.022     300.8428     1.412048 0.0012920287 -0.0021998856 -0.023987873 -0.024104948          nan    155.50905   -13276.825   -4703.8004 
    2250       0.0225    299.02725    1.4321461 -0.0040392456  -0.02995493   -2.4573115   -2.4291628          nan    154.57057   -13275.515   -4660.5065 
    2300        0.023    297.44991    1.4709187 0.0051088264 -0.0080936701 -0.023971946 -0.024060576          nan    153.75522   -13274.321   -4893.1129 
    2350       0.0235    299.76275    1.5253658  0.011264959  0.029684555   -2.5061618   -2.4260627          nan    154.95076   -13275.137   -5221.0509 
    2400        0.024    297.54615     1.539138 -0.0043798112  0.014949503 -0.023954775 -0.024051413          nan    153.80497   -13273.602   -5165.6921 
    2450       0.0245    299.17032    1.5501475 -0.023600856 -0.029707099   -2.4560497   -2.4183001          nan    154.64453   -13274.046    -4989.465 
    2500        0.025    297.21842    1.5902559  -0.03311447 0.0058390706 -0.023940527 -0.024064909          nan    153.63556    -13272.64   -5209.9351 
    2550       0.0255    301.31341    1.6512509  0.029887397  0.021011691   -2.4801843   -2.4615339          nan    155.75231   -13274.349   -5673.8333 
    2600        0.026    296.45283    1.6611498 -0.012557481  0.027613457 -0.023920284 -0.024031287          nan    153.23982   -13271.422   -5587.3527 
    2650       0.0265    301.29272    1.6973705  0.028162696 -0.018934186   -2.4915226   -2.4478888          nan    155.74162   -13273.502   -5688.6633 
[...]
   13800        0.138    291.25069    7.7123916  0.021712303 -0.0064641626 -0.022049296 -0.022517057          nan    150.55078   -13025.096   -25758.799 
   13850       0.1385    288.55819    7.6958233 -0.022898302 -0.084094538   -2.2579634   -2.2949702          nan      149.159   -13022.024   -25296.101 
   13900        0.139    292.21313    7.7793834 -0.018596694  0.033121535 -0.022010266 -0.022495854          nan    151.04827   -13022.219   -25979.694 
   13950       0.1395    292.80851    7.7626524   0.03200342  0.059693509   -2.2637537   -2.2356189          nan    151.35603   -13020.818   -26181.164 
   14000         0.14    290.78192    7.7739784 -0.018391636 0.00024523942 -0.021981021 -0.022484063          nan    150.30847   -13018.072   -25852.773 
   14050       0.1405    292.55995    7.8008559 -0.054400551  0.010070867   -2.2427018     -2.29717          nan    151.22755   -13017.273   -25855.087 
   14100        0.141    290.98435    7.8449078 0.0028284285 -0.032554213 -0.021974232 -0.022467414          nan    150.41311   -13014.743   -26050.607 
   14150       0.1415    296.18122    7.8575383  0.043051585  0.037247456   -2.2853247   -2.3085442          nan    153.09942   -13015.707   -26459.458 
   14200        0.142    294.12159    7.8437331  -0.02390802 -0.0041379011 -0.021950728 -0.022445161          nan    152.03478   -13012.916   -26052.291 
   14250       0.1425    287.19968    7.7478812 -0.033567345 -0.002019977   -2.1987407   -2.2416521          nan    148.45677   -13007.631   -25707.646 
   14300        0.143    293.71432    7.8738105  0.019746234  0.023631537 -0.021932538 -0.022401763          nan    151.82426   -13009.286   -26390.628 
   14350       0.1435     291.4975    7.9045649 0.0057878559  0.018934398   -2.3167084   -2.3407082          nan    150.67836   -13006.402   -26430.957 
   14400        0.144     294.6357    7.8741604 -0.046018615 0.00047032948 -0.021904391 -0.022425874          nan    152.30053   -13006.298   -26095.374 
   14450       0.1445    292.14967    7.8781755 0.0080106477 -0.008594513   -2.2514192   -2.2942494          nan    151.01547   -13003.285   -26258.639 
   14500        0.145     290.8319    7.8916896  0.021238627 -0.0060794099 -0.021863054 -0.022352419          nan     150.3343   -13000.867   -26356.163 
   14550       0.1455     289.7379     7.878053  0.036487353 -0.022518208    -2.316646   -2.2751639          nan     149.7688   -12998.563    -26306.74 
   14600        0.146    291.05198    7.8755564 0.0084610282 -0.023920782  -0.02183202 -0.022332128          nan    150.44807    -12997.51   -26200.322 
   14650       0.1465    290.14168    7.8880396  0.011861846  -0.01807914   -2.3291952   -2.2839832          nan    149.97752   -12995.301   -26272.741 
   14700        0.147    289.85403    7.8562697  0.029594156 -0.0032762703 -0.021808722 -0.022296826          nan    149.82883   -12993.412   -26275.292 
   14750       0.1475    284.83157    7.7802611 0.0071037338 -0.022309076    -2.245094   -2.1919941          nan    147.23266   -12989.101   -25883.519 
   14800        0.148    295.22257    7.7739472  0.010271893 -0.036002251 -0.021803858 -0.022299853          nan    152.60389   -12992.754    -25827.39 
   14850       0.1485    291.85515    7.6392409 -0.022401768 0.0090253166   -2.3331323   -2.2575676          nan    150.86323    -12989.31   -25419.548 
   14900        0.149    295.96817    7.5426105  0.010334563   0.05186927 -0.021777885 -0.022263858          nan     152.9893   -12989.735   -25349.381 
   14950       0.1495    295.25224    7.4039377  0.010039178 -0.001891253   -2.3340917   -2.2898733          nan    152.61922   -12987.716   -24706.952 
   15000         0.15    304.02056    7.2650055 -0.071123596  0.034185168  -0.02181805 -0.022289366          nan    157.15167   -12990.627   -24093.557 
   15050       0.1505    309.56698    7.1267705 -0.049078844  0.019062772   -2.4513675   -2.4118097          nan    160.01867   -12991.928   -23655.848 
   15100        0.151    306.69809     6.911152 -0.068385816   0.01273007 -0.021776615 -0.022236292          nan    158.53572   -12988.961   -22851.654 
   15150       0.1515    319.26741    6.7401749  0.038975677  0.063540545   -2.5162739   -2.3962184          nan    165.03294   -12994.037    -22808.97 
   15200        0.152    319.28619    6.4117552  0.048372635 0.0019629842   -0.0217789 -0.022188073          nan    165.04264   -12992.724   -21540.303 
   15250       0.1525     335.4747    6.0896801  0.031858152 -0.071686451   -2.6705705   -2.5785642          nan    173.41067   -12999.863   -20166.173 
   15300        0.153    337.88645    5.7313163 -0.0086257228 -0.056823532 -0.021843413 -0.022233501          nan    174.65733   -13000.039   -18886.224 
   15350       0.1535    334.72084    5.3875431  0.072478331  -0.03801648   -2.6215956   -2.5148324          nan    173.02099   -12997.514    -18073.35 
   15400        0.154     342.0304    5.0719578  0.057930295  0.068710984 -0.021856981 -0.022199966          nan    176.79939   -13000.538   -17328.664 
   15450       0.1545     346.5106    4.7211677  0.004679539 -0.010202206   -2.7810459   -2.6415672          nan    179.11525   -13002.263   -15718.817 
   15500        0.155    347.72231    4.3780797 -0.065055253 -0.0039264244 -0.021953366 -0.022291037          nan     179.7416   -13002.419    -14363.66 
   15550       0.1555    345.72085    4.1566868 -0.078497099  0.058041973   -2.7596779   -2.6598404          nan    178.70702   -13001.037   -13787.439 
   15600        0.156    352.91346    4.0470676 -0.00032413902   0.11750658 -0.021948448 -0.022259753          nan    182.42496   -13004.544   -13880.834 
   15650       0.1565    355.30306    3.9546563  -0.03687998  0.018411789   -2.7840772   -2.7373698          nan    183.66017   -13005.686   -13120.627 
   15700        0.157    353.64653    3.7956129  0.017236398 -0.020414122 -0.022014907 -0.022290233          nan     182.8039   -13004.714   -12641.451 
   15750       0.1575    361.69497    3.7141687   0.06307154  0.023943058   -2.8640309   -2.7300324          nan    186.96422   -13008.807   -12670.611 
   15800        0.158    360.52666    3.6251051   0.01936415 -0.059177906 -0.022105616 -0.022371603          nan    186.36031   -13008.159   -11950.971 
   15850       0.1585    364.75668    3.6227972  0.032174451 -0.079266508   -2.9718974   -2.8124151          nan    188.54686   -13010.272   -11919.017 
   15900        0.159    362.85533    3.5756819 -0.044065223  0.017372756 -0.022092644 -0.022373465          nan    187.56403   -13009.253   -11829.965 
   15950       0.1595    363.19391    3.5803512 -0.013534165  0.076080543   -2.8641928   -2.8857247          nan    187.73904   -13009.373   -12142.992 
   16000         0.16    359.91317    3.4550027  0.011224552  0.079797756 -0.022077142 -0.022355973          nan    186.04319   -13007.653   -11820.083 
   16050       0.1605    360.95119    3.4214138 -0.010860946  0.021842636   -2.9081593   -2.8746794          nan    186.57975   -13008.178   -11441.318 
   16100        0.161    364.10444    3.3476955 -0.043325111 -0.037770807 -0.022163478 -0.022414776          nan    188.20971   -13009.804   -10888.665 
   16150       0.1615    368.76526    3.2747162 -0.028793028 0.0003051527   -2.9469861   -2.9017993          nan    190.61894   -13012.249   -10820.761 
   16200        0.162    368.50231    3.3067163  0.061524771 -0.056567645 -0.022136544 -0.022400782          nan    190.48302   -13012.162   -11038.911 
   16250       0.1625     360.1726    3.3071438  0.061398264 -0.051713849   -2.9270296   -2.8549134          nan    186.17729   -13007.922   -11056.094 
   16300        0.163    363.11155    3.2374907  0.042433084  0.043106488 -0.022132847 -0.022371474          nan    187.69647   -13009.558   -11076.768 
   16350       0.1635    362.59563    3.1608747 -0.039909799 -0.011993331   -2.9095307   -2.9752192          nan    187.42979   -13009.419   -10363.239 
   16400        0.164    368.58005    3.1163309 -0.054304993  -0.06283763 -0.022204628 -0.022463915          nan     190.5232   -13012.631   -9997.2944 
   16450       0.1645    372.76075    3.1361261  0.029011491  0.050938188   -2.9683375   -2.9678485          nan    192.68425   -13014.936   -10720.253 
   16500        0.165    363.92767    3.0526071   0.04346032  0.049082515 -0.022161523 -0.022406824          nan    188.11833   -13010.527   -10483.833 
   16550       0.1655    375.26214    3.0226861  0.042125017  0.027289623   -3.0006875   -2.9845416          nan    193.97725   -13016.577   -10307.003 
   16600        0.166    371.62968    2.9128993 -0.031234485 -0.049523321 -0.022261543 -0.022476931          nan    192.09959   -13014.888   -9440.4717 
   16650       0.1665    367.44987    2.7947826 -0.066465404  0.023118567   -2.9365467   -2.8990972          nan      189.939    -13012.95   -9171.4525 
   16700        0.167    375.99725    2.7648834 0.0035489738  0.063080841  -0.02224639 -0.022498015          nan    194.35723   -13017.633   -9438.3774 
   16750       0.1675    371.57801    2.6312173  0.039958914 0.0070719807   -2.9971008   -2.9532717          nan    192.07288   -13015.646   -8927.4941 
   16800        0.168    374.14634    2.5423812 -0.004835991 -0.015992686 -0.022306478 -0.022512071          nan    193.40048   -13017.298    -8405.175 
   16850       0.1685      381.124     2.481223 -0.040733142  0.049126321    -2.979804   -3.1541712          nan    197.00731   -13021.273   -8298.7207 
   16900        0.169    377.06017    2.3996955  0.025391186 -0.063563393  -0.02236097 -0.022535722          nan    194.90667    -13019.55   -7871.7444 
   16950       0.1695     383.5371    2.2911985   0.09374905 -0.029740813   -3.0805842   -3.1849141          nan    198.25467   -13023.327   -7850.6892 
   17000         0.17    379.69442    2.2146934  0.060914119 0.0058934643  -0.02241599 -0.022569357          nan    196.26834   -13021.827   -7605.0034 
   17050       0.1705    383.21702    2.0259605 -0.057646675 -0.0090487664   -3.1346369   -3.1150623          nan    198.08922   -13024.158   -6530.8835 
   17100        0.171    382.15449    1.9527077 -0.078602414 -0.0060991189 -0.022523833 -0.022666449          nan    197.53998   -13024.114   -6226.6871 
   17150       0.1715    390.65633    1.8887578 -0.029227298  0.061931236   -3.1602616   -3.1596946          nan    201.93468   -13029.068   -6404.8723 
   17200        0.172    392.76807    1.8357501 -0.0016333964  0.068984594 -0.022513518 -0.022680703          nan    203.02626   -13030.769    -6343.671 
   17250       0.1725    389.99611    1.7162119 -0.054745577  0.099005688   -3.1579234   -3.1964526          nan     201.5934   -13030.018   -5868.2401 
   17300        0.173    387.15937    1.5332674 -0.020325244 -0.0051990511 -0.022606689 -0.022728136          nan    200.12706   -13029.259   -5025.8105 
   17350       0.1735    385.15763    1.5110376 -0.036093519  -0.10308301   -3.1300791   -3.1013096          nan    199.09234   -13028.855   -4572.8701 
   17400        0.174    390.57938    1.5910174 -0.0060414409  0.025585585  -0.02257571 -0.022708052          nan     201.8949   -13032.353   -5368.5386 
   17450       0.1745     384.1063    1.5527367  0.056312722  0.040261646   -3.0688736   -3.0987344          nan    198.54889   -13029.683   -5497.7035 
   17500        0.175    391.28815    1.4632812  0.087926805 0.0058239707  -0.02260892 -0.022723555          nan    202.26127   -13034.099   -5190.1067 
   17550       0.1755    395.84288    1.4590561   0.07744611 -0.087129541    -3.176058   -3.1698059          nan    204.61566   -13037.179   -4831.2421 
   17600        0.176    395.75652    1.4574467 0.0016722445  -0.12201378 -0.022696958 -0.022855158          nan    204.57102   -13037.887   -4457.0171 
   17650       0.1765    392.83818    1.4650782 -0.018908973 -0.037848887    -3.249409   -3.1312572          nan     203.0625   -13037.153   -4694.4012 
   17700        0.177    398.90382    1.6160879  0.095692735  0.055333214 -0.022630197 -0.022778777          nan     206.1979   -13041.051   -5890.3797 
   17750       0.1775    402.05164    1.6190144  0.041591843   0.12626917   -3.3420965   -3.1077624          nan    207.82504   -13043.454   -5956.2515 
   17800        0.178    406.51766    1.3685035  -0.06015576  0.045226521 -0.022781469 -0.022888148          nan    210.13358   -13046.554   -4511.9142 
   17850       0.1785    403.12593    1.2814832  -0.15996605 -0.069381455   -3.3317207   -3.2394311          nan    208.38036   -13045.607   -3507.1191 
   17900        0.179    403.86429     1.362311 -0.033662106  0.028568733 -0.022780381 -0.022902645          nan    208.76202   -13046.859   -4524.0589 
   17950       0.1795    404.93553    1.4269753  0.056394132   0.13666424   -3.2239037   -3.2359843          nan    209.31576   -13048.273   -5400.1122 
   18000         0.18    407.81479    1.3546732   0.13564015  0.061893527 -0.022779462 -0.022881527          nan    210.80408   -13050.677   -5174.0228 
   18050       0.1805      411.591    1.2389993 -0.010407261  -0.05374392    -3.304524   -3.3717581          nan    212.75605   -13053.548   -3916.1603 
   18100        0.181    409.64188    1.1754713 -0.057073209  -0.20378237    -0.022947 -0.023046893          nan    211.74852   -13053.432   -3048.7192 
   18150       0.1815    411.17805    1.2158507  0.009822922 -0.056779603   -3.3364842   -3.4311682          nan    212.54259   -13055.232   -3896.3133 
   18200        0.182    405.70759    1.2827927   0.11026115  0.084096093 -0.022828584 -0.022902581          nan    209.71484   -13053.351   -4923.8331 
   18250       0.1825    414.08035    1.3014939  0.063108558   0.13471345   -3.4038487   -3.3645301          nan    214.04282   -13058.655   -4997.7197 
   18300        0.183    411.14037    1.1682992   -0.1015738 -0.025194645 -0.022918536 -0.023039769          nan    212.52311   -13058.092   -3471.7692 
   18350       0.1835    407.68327    1.1290221  -0.11180324 -0.074161023   -3.3330751   -3.3329056          nan    210.73609   -13057.243   -3143.5262 
   18400        0.184    413.40339    1.1873292  0.031672072  0.061322204 -0.022906754 -0.022997843          nan    213.69289   -13061.185    -4267.745 
   18450       0.1845    409.51187    1.1821528   0.13072436  0.020107133   -3.3578081   -3.3052875          nan    211.68132   -13060.176   -4443.2809 
   18500        0.185     411.4069    1.0979031  0.067985641 -0.036154967 -0.022957913 -0.023060658          nan    212.66088    -13062.21   -3765.7792 
   18550       0.1855    418.28181    1.0097126  0.017648244  -0.09057091   -3.4003561   -3.4090232          nan     216.2146   -13066.824   -3122.6331 
   18600        0.186    415.78492   0.95073773 -0.074940763 -0.031755127 -0.023080446 -0.023174334          nan    214.92393   -13066.586   -2813.4728 
   18650       0.1865     414.6891   0.96743062 -0.014297429 -0.011833429   -3.4278933   -3.4432048          nan    214.35749   -13067.087   -3137.6659 
   18700        0.187    407.15103    1.0483484  0.025364924   0.10177936 -0.023006028 -0.023065955          nan    210.46097   -13064.222   -3918.3091 
   18750       0.1875    417.02863    1.0167717 -0.039711883  0.048223459   -3.4134021   -3.4435012          nan    215.56682   -13070.375    -3417.611 
   18800        0.188    414.42847    0.9619183 -0.049335527  0.018947268 -0.023040045 -0.023145705          nan    214.22277   -13070.102   -3105.1001 
   18850       0.1885    418.13968   0.91723668  0.036316617 -0.062688048   -3.5001367   -3.4361659          nan    216.14113   -13073.089   -2969.5508 
   18900        0.189    413.13697   0.95666965   0.08651165 -0.061218342  -0.02306681 -0.023114653          nan    213.55518   -13071.573   -3273.2099 
   18950       0.1895    414.62588    1.0968674  0.075894004 0.0045338374   -3.4103001   -3.3280001          nan    214.32481   -13073.424   -3924.3174 
   19000         0.19    404.68701    1.0785285 -0.049953746 -0.010254662 -0.023014254 -0.023143741          nan     209.1873   -13069.318   -3394.4004 
   19050       0.1905     417.9898     1.167389 -0.037750638  0.063169018   -3.3946716   -3.4416467          nan    216.06366   -13077.205   -3976.0246 
   19100        0.191    408.74635    1.0938976 -0.044617618   0.05119539 -0.023052313 -0.023146211          nan    211.28562   -13073.469   -3668.2512 
   19150       0.1915    412.61364    1.1561929 -0.026460128 0.0098700505   -3.4245865   -3.4033041          nan    213.28466   -13076.513   -3798.6761 
   19200        0.192    424.29872    1.2267294  0.020991878 -0.00087700265 -0.023072191 -0.023164238          nan    219.32481   -13083.591   -4156.1477 
   19250       0.1925    413.85043    1.2587886  0.057799821 -0.079879113    -3.437961   -3.3186292          nan    213.92397   -13079.232   -4122.3643 
   19300        0.193    416.40341    1.3043736   0.12121524 -0.057169341 -0.023025129 -0.023156797          nan    215.24364   -13081.596   -4561.3984 
   19350       0.1935    414.41568    1.3480591  0.039266983 -0.089024876    -3.339092   -3.4516243          nan    214.21615   -13081.651   -4327.6707 
   19400        0.194    416.73492     1.305128  0.022209319  0.052278979 -0.023062726 -0.023156935          nan      215.415   -13083.883   -4598.7209 
   19450       0.1945    411.51137    1.2689652 -0.046798522  0.060517901   -3.4236761   -3.4001897          nan    212.71489   -13082.152   -4275.6152 
   19500        0.195    409.75983    1.1540679 -0.038616738  0.067029986 -0.023095868 -0.023208612          nan    211.80949   -13082.239   -3941.6039 
   19550       0.1955    408.79631    1.1350381 -0.013343913 -0.052341632   -3.2436763   -3.4042168          nan    211.31144   -13082.765   -3564.5086 
   19600        0.196    410.44065    1.2025847 -0.046174651 -0.028864944 -0.023123167 -0.023184615          nan    212.16142   -13084.609   -3758.4838 
   19650       0.1965    406.29645    1.2361511 0.0033384422  0.048176759   -3.3518546   -3.2426876          nan    210.01923   -13083.467   -4292.2212 
   19700        0.197    411.18681     1.194101  0.066357446  0.078022778 -0.023077367 -0.023172247          nan    212.54712   -13087.005    -4461.604 
   19750       0.1975    412.89506    1.1645585  0.025107153  -0.01793132   -3.3522856   -3.2740026          nan    213.43013   -13088.926    -3905.781 
   19800        0.198    404.05349    1.0724971  -0.11986189  -0.12866493 -0.023160771 -0.023290576          nan    208.85982   -13085.358   -2746.5677 
   19850       0.1985    406.43138    1.1333225  0.031244558 -0.083534394   -3.2235228   -3.4050427          nan    210.08898   -13087.618   -3603.4424 
   19900        0.199    412.73965    1.2414044   0.13286855   0.08738096 -0.023053918 -0.023141141          nan     213.3498   -13091.886   -4872.1798 
   19950       0.1995    410.58819    1.2056831   0.02645145   0.11659084   -3.3567936   -3.3250175          nan    212.23768   -13091.811   -4495.7512 
   20000          0.2    410.43872    1.1150869 -0.084432827 -0.058750672 -0.023182236 -0.023274338          nan    212.16042    -13092.73   -3239.6782 
Loop time of 1042.31 on 4 procs for 20000 steps with 4000 atoms

Pair  time (%) = 969.555 (93.0198)
Neigh time (%) = 0.466661 (0.0447717)
Comm  time (%) = 41.6252 (3.99355)
Outpt time (%) = 0.198824 (0.0190753)
Other time (%) = 30.4648 (2.92281)

Nlocal:    1000 ave 1012 max 982 min
Histogram: 1 0 0 0 0 1 0 0 1 1
Nghost:    3723.25 ave 3736 max 3709 min
Histogram: 1 0 0 1 0 0 0 1 0 1
Neighs:    68902.8 ave 71691 max 65731 min
Histogram: 1 0 0 1 0 0 0 1 0 1
FullNghs:  0 ave 0 max 0 min
Histogram: 4 0 0 0 0 0 0 0 0 0

Total # of neighbors = 275611
Ave neighs/atom = 68.9027
Neighbor list builds = 85
Dangerous builds = 0

######################################
# SIMULATION DONE
print "All done"
All done
