LAMMPS (28 Jun 2014)
# Input file for uniaxial tensile loading of single crystal aluminum
# Mark Tschopp, November 2010

# ------------------------ INITIALIZATION ----------------------------
units 		metal
dimension	3
boundary	p	p	p
atom_style	atomic
variable latparam equal 4.05

# ----------------------- ATOM DEFINITION ----------------------------
lattice		fcc ${latparam}
lattice		fcc 4.05
Lattice spacing in x,y,z = 4.05 4.05 4.05
region		whole block 0 10 0 10 0 10
create_box	1 whole
Created orthogonal box = (0 0 0) to (40.5 40.5 40.5)
  1 by 2 by 2 MPI processor grid
lattice 	fcc ${latparam} orient x 1 0 0 orient y 0 1 0 orient z 0 0 1
lattice 	fcc 4.05 orient x 1 0 0 orient y 0 1 0 orient z 0 0 1
Lattice spacing in x,y,z = 4.05 4.05 4.05
create_atoms	1 region whole
Created 4000 atoms

# ------------------------ FORCE FIELDS ------------------------------
pair_style	eam/alloy
pair_coeff	* * Al99.NegFRho.PosRhoR.NegPhiR.eam.alloy Al

# ------------------------- SETTINGS ---------------------------------
compute csym all centro/atom fcc
compute peratom all pe/atom

######################################
# EQUILIBRATION
reset_timestep	0
timestep 0.001
velocity all create 300 12345 mom yes rot no
fix 1 all npt temp 300 300 1 iso 0 0 1 drag 1

# Set thermo output
thermo 1000
thermo_style custom step lx ly lz press pxx pyy pzz pe temp

# Run for at least 10 picosecond (assuming 1 fs timestep)
run 20000
Memory usage per processor = 3.04301 Mbytes
Step Lx Ly Lz Press Pxx Pyy Pzz PotEng Temp 
       0         40.5         40.5         40.5    2192.3411     2143.208    2230.8719    2202.9434   -13454.224          300 
    1000    40.552722    40.552722    40.552722    857.99897    846.47559    830.16203    897.35929   -13375.326    165.27921 
    2000    40.566493    40.566493    40.566493    258.99725    191.42022    288.29587    297.27566    -13370.69    178.92274 
    3000    40.575403    40.575403    40.575403    97.378203    12.829213      192.422    86.883395    -13364.19    189.34254 
    4000    40.583101    40.583101    40.583101    70.793508    22.690011    47.627045    142.06347   -13354.563    193.70926 
    5000    40.588125    40.588125    40.588125    175.53508    273.42737    234.29911    18.878768   -13348.457    204.63887 
    6000     40.59521     40.59521     40.59521    84.337131     80.63233   -13.128426    185.50749   -13341.558     213.5286 
    7000    40.603004    40.603004    40.603004   -35.560922   -57.815557    64.411081   -113.27829   -13335.889    224.04605 
    8000    40.608103    40.608103    40.608103   -15.021672   -69.727462    20.303149    4.3592971   -13333.206    239.32962 
    9000    40.612842    40.612842    40.612842   -17.359793   -71.667003    97.639663   -78.052039    -13330.29    252.97181 
   10000     40.62105     40.62105     40.62105   -73.124626   -52.934974   -47.494173   -118.94473   -13320.787    252.44515 
   11000    40.626008    40.626008    40.626008   -105.11083   -458.59368    140.46163    2.7995483   -13317.342    262.08443 
   12000    40.627243    40.627243    40.627243    -16.50584    83.543744   -35.745856   -97.315406   -13315.311    272.76941 
   13000    40.633047    40.633047    40.633047   -36.075741   -145.12231    -222.0228    258.91789   -13311.817    278.84918 
   14000    40.633365    40.633365    40.633365    157.50719   -85.742535    155.48549     402.7786   -13307.289    281.18238 
   15000    40.637409    40.637409    40.637409    177.47681    240.27187    116.25046    175.90809   -13304.307    284.79883 
   16000    40.637987    40.637987    40.637987    209.10067    358.45291    147.52008    121.32902   -13302.686    289.35774 
   17000    40.640028    40.640028    40.640028    123.37909    101.92255    131.44954    136.76518   -13303.299     296.6837 
   18000    40.643136    40.643136    40.643136    25.182481   -28.237918    239.95739   -136.17203   -13300.958    296.80904 
   19000    40.646905    40.646905    40.646905   -108.46635   -56.783049   -176.40011   -92.215882   -13299.781    297.74974 
   20000    40.643434    40.643434    40.643434    228.33548    122.71255    431.05925    131.23463   -13297.621    295.46164 
Loop time of 431.402 on 4 procs for 20000 steps with 4000 atoms

Pair  time (%) = 277.162 (64.2468)
Neigh time (%) = 0 (0)
Comm  time (%) = 98.4321 (22.8168)
Outpt time (%) = 0.0411013 (0.00952738)
Other time (%) = 55.767 (12.9269)

Nlocal:    1000 ave 1000 max 1000 min
Histogram: 4 0 0 0 0 0 0 0 0 0
Nghost:    4235 ave 4235 max 4235 min
Histogram: 4 0 0 0 0 0 0 0 0 0
Neighs:    70000 ave 72653 max 67302 min
Histogram: 1 0 1 0 0 0 0 1 0 1
FullNghs:  0 ave 0 max 0 min
Histogram: 4 0 0 0 0 0 0 0 0 0

Total # of neighbors = 280000
Ave neighs/atom = 70
Neighbor list builds = 0
Dangerous builds = 0
unfix 1

# Store final cell length for strain calculations
variable tmp equal "lx"
variable L0 equal ${tmp}
variable L0 equal 40.6434336993305
print "Initial Length, L0: ${L0}"
Initial Length, L0: 40.6434336993305

######################################
# DEFORMATION
reset_timestep	0

fix		1 all npt temp 300 300 1 y 0 0 1 z 0 0 1 drag 1
variable srate equal 1.0e10
variable srate1 equal "v_srate / 1.0e12"
fix		2 all deform 1 x erate ${srate1} units box remap x
fix		2 all deform 1 x erate 0.01 units box remap x

# Output strain and stress info to file
# for units metal, pressure is in [bars] = 100 [kPa] = 1/10000 [GPa]
# p2, p3, p4 are in GPa
variable strain equal "(lx - v_L0)/v_L0"
variable p1 equal "v_strain"
variable p2 equal "-pxx/10000"
variable p3 equal "-pyy/10000"
variable p4 equal "-pzz/10000"
fix def1 all print 20 "${p1} ${p2} ${p3} ${p4}" file  Al99.NegFRho.PosRhoR.NegPhiR.eam.alloy.def1.txt screen no

# Use cfg for AtomEye
#dump 		1 all cfg 250 dump.tensile_*.cfg id type xs ys zs c_csym c_peratom fx fy fz
#dump_modify 1 element Al

# Display thermo
thermo 	1000
thermo_style	custom step v_strain temp v_p2 v_p3 v_p4 ke pe press

run		20000
Memory usage per processor = 3.04301 Mbytes
Step strain Temp p2 p3 p4 KinEng PotEng Press 
       0 1.048941e-15    295.46164 -0.012271255 -0.043105925 -0.013123463    152.72746   -13297.621    228.33548 
    1000         0.01    298.46957    0.6464545 -0.034197736  0.027535367     154.2823   -13296.587   -2132.6404 
    2000         0.02    298.64476    1.2494836 -0.0023831525 -0.016390942    154.37286   -13291.353   -4102.3651 
    3000         0.03    306.85247    1.8974995  0.005426055 0.0019037486    158.61551   -13287.589   -6349.4311 
    4000         0.04    295.24475    2.5205625  0.012550673  0.021300669    152.61535   -13270.863   -8514.7129 
    5000         0.05    300.59148    3.1150557  0.028233616 -0.0013806999    155.37914   -13260.323   -10473.029 
    6000         0.06    296.78443     3.674663 -0.0016550927 -0.015665138    153.41123    -13242.63   -12191.143 
    7000         0.07    299.85661    4.2988479 -0.0056691213  0.001197429    154.99927   -13226.169   -14314.587 
    8000         0.08    297.66749    4.8611989 0.0070781762 0.0012142994    153.86769   -13204.649   -16231.638 
    9000         0.09    298.89741    5.3926351 -0.0040175894  0.011862705    154.50346   -13182.604   -18001.601 
   10000          0.1    296.13409    5.9553975  0.003717239 -0.029532786    153.07506   -13156.223   -19765.273 
   11000         0.11    300.18014    6.5117506  0.086347064  0.079207164    155.16651   -13131.175   -22257.683 
   12000         0.12    297.37901    6.9828524 -0.0019529059  0.032399507    153.71858   -13100.431   -23377.663 
   13000         0.13    294.63132    7.3955917  0.021403846 -0.028212808    152.29827   -13067.595   -24629.276 
   14000         0.14    294.06677    7.7893969  0.046442966  0.027278735    152.00644   -13034.023   -26210.395 
   15000         0.15    294.25882    7.9432089 -0.028285878 -0.092461168    152.10571   -12999.222   -26074.873 
   16000         0.16     368.4404    3.6144616  0.063324341  0.016660383    190.45101   -13019.312   -12314.821 
   17000         0.17      378.478    2.3222215  -0.10031555  -0.03949076    195.63956   -13029.439   -7274.7173 
   18000         0.18    384.88374    2.0287751 -0.0091314508  0.032670053    198.95076   -13043.609   -6841.0458 
   19000         0.19    399.15074    1.6139656  0.058019698  0.073588217    206.32554   -13064.379   -5818.5785 
   20000          0.2    399.05078    1.4344894  0.043811628 -0.024051808    206.27387   -13080.869   -4847.4974 
Loop time of 322.175 on 4 procs for 20000 steps with 4000 atoms

Pair  time (%) = 265.502 (82.4094)
Neigh time (%) = 0.480523 (0.14915)
Comm  time (%) = 38.7572 (12.0299)
Outpt time (%) = 0.00335306 (0.00104076)
Other time (%) = 17.4315 (5.41058)

Nlocal:    1000 ave 1007 max 993 min
Histogram: 1 0 1 0 0 0 0 1 0 1
Nghost:    3749.25 ave 3755 max 3742 min
Histogram: 1 0 0 0 1 0 0 1 0 1
Neighs:    68891 ave 71215 max 67338 min
Histogram: 2 0 0 0 0 1 0 0 0 1
FullNghs:  0 ave 0 max 0 min
Histogram: 4 0 0 0 0 0 0 0 0 0

Total # of neighbors = 275564
Ave neighs/atom = 68.891
Neighbor list builds = 82
Dangerous builds = 0

######################################
# SIMULATION DONE
print "All done"
All done
