LAMMPS (28 Jun 2014)
# Input file for uniaxial tensile loading of single crystal aluminum
# Mark Tschopp, November 2010

# ------------------------ INITIALIZATION ----------------------------
units 		metal
dimension	3
boundary	p	p	p
atom_style	atomic
variable latparam equal 4.05

# ----------------------- ATOM DEFINITION ----------------------------
lattice		fcc ${latparam}
lattice		fcc 4.05
Lattice spacing in x,y,z = 4.05 4.05 4.05
region		whole block 0 10 0 10 0 10
create_box	1 whole
Created orthogonal box = (0 0 0) to (40.5 40.5 40.5)
  1 by 2 by 2 MPI processor grid
lattice 	fcc ${latparam} orient x 1 0 0 orient y 0 1 0 orient z 0 0 1
lattice 	fcc 4.05 orient x 1 0 0 orient y 0 1 0 orient z 0 0 1
Lattice spacing in x,y,z = 4.05 4.05 4.05
create_atoms	1 region whole
Created 4000 atoms

# ------------------------ FORCE FIELDS ------------------------------
pair_style	eam/alloy
pair_coeff	* * Al99.NegFRho.NegRhoR.NegPhiR.eam.alloy Al

# ------------------------- SETTINGS ---------------------------------
compute csym all centro/atom fcc
compute peratom all pe/atom

######################################
# EQUILIBRATION
reset_timestep	0
timestep 0.001
velocity all create 300 12345 mom yes rot no
fix 1 all npt temp 300 300 1 iso 0 0 1 drag 1

# Set thermo output
thermo 1000
thermo_style custom step lx ly lz press pxx pyy pzz pe temp

# Run for at least 10 picosecond (assuming 1 fs timestep)
run 20000
Memory usage per processor = 3.04301 Mbytes
Step Lx Ly Lz Press Pxx Pyy Pzz PotEng Temp 
       0         40.5         40.5         40.5    2154.6743    2105.5411    2193.2051    2165.2765   -13454.224          300 
    1000    40.552122    40.552122    40.552122    857.53319    846.15168    829.62929    896.81861   -13375.317    165.27784 
    2000    40.565877    40.565877    40.565877    258.75157    190.48909    289.17233     296.5933   -13370.693     178.9464 
    3000    40.574787    40.574787    40.574787    97.742087    13.217919    192.20946    87.798888   -13364.157    189.29561 
    4000    40.582499    40.582499    40.582499      72.2679    23.383574      49.0424    144.37773   -13354.538    193.67863 
    5000    40.587574    40.587574    40.587574    170.57274    271.76015    229.52021    10.437846   -13348.449    204.63857 
    6000    40.594644    40.594644    40.594644    81.646455    72.472826   -11.838303    184.30484   -13341.557    213.54167 
    7000    40.602434    40.602434    40.602434   -38.316706   -63.335594    61.570185   -113.18471   -13335.833    223.95163 
    8000    40.607668    40.607668    40.607668   -31.747619    -88.80379   0.23662242     -6.67569   -13333.385    239.69067 
    9000    40.612238    40.612238    40.612238   -17.264744   -63.212271    102.41512   -90.997078   -13330.179    252.77004 
   10000    40.620507    40.620507    40.620507   -82.902174   -64.873025   -60.011472   -123.82203   -13320.912    252.69853 
   11000    40.625728    40.625728    40.625728   -116.47345   -465.21441    140.30689   -24.512836   -13317.254    261.92495 
   12000    40.626695    40.626695    40.626695   -5.1012089    89.572122   -24.012055   -80.863694   -13315.417    272.98303 
   13000    40.632187    40.632187    40.632187   -40.556918   -165.07577   -185.87864    229.28366   -13312.116    279.43475 
   14000     40.63283     40.63283     40.63283    145.07989   -85.800349    163.36432    357.67569   -13307.354    281.31811 
   15000    40.637043    40.637043    40.637043    154.59786    129.49905    103.97754      230.317   -13304.455     285.0976 
   16000    40.636952    40.636952    40.636952     114.1857    218.59797    148.40298   -24.443863   -13304.321    292.54245 
   17000    40.640783    40.640783    40.640783    22.189111    55.891271    48.651963   -37.975901    -13304.39    298.82969 
   18000    40.643065    40.643065    40.643065   -30.866878   -172.88868    143.75124   -63.463194   -13303.129    300.98932 
   19000    40.643533    40.643533    40.643533    8.7161864    283.11313    -250.0115   -6.9530738   -13301.279    300.63841 
   20000    40.644644    40.644644    40.644644   -69.718792    176.72167   -39.787895   -346.09015   -13299.457    299.03399 
Loop time of 280.712 on 4 procs for 20000 steps with 4000 atoms

Pair  time (%) = 225.418 (80.3022)
Neigh time (%) = 0 (0)
Comm  time (%) = 46.5457 (16.5813)
Outpt time (%) = 0.00263405 (0.000938346)
Other time (%) = 8.74576 (3.11556)

Nlocal:    1000 ave 1000 max 1000 min
Histogram: 4 0 0 0 0 0 0 0 0 0
Nghost:    4235 ave 4235 max 4235 min
Histogram: 4 0 0 0 0 0 0 0 0 0
Neighs:    70000 ave 72653 max 67302 min
Histogram: 1 0 1 0 0 0 0 1 0 1
FullNghs:  0 ave 0 max 0 min
Histogram: 4 0 0 0 0 0 0 0 0 0

Total # of neighbors = 280000
Ave neighs/atom = 70
Neighbor list builds = 0
Dangerous builds = 0
unfix 1

# Store final cell length for strain calculations
variable tmp equal "lx"
variable L0 equal ${tmp}
variable L0 equal 40.6446438724681
print "Initial Length, L0: ${L0}"
Initial Length, L0: 40.6446438724681

######################################
# DEFORMATION
reset_timestep	0

fix		1 all npt temp 300 300 1 y 0 0 1 z 0 0 1 drag 1
variable srate equal 1.0e10
variable srate1 equal "v_srate / 1.0e12"
fix		2 all deform 1 x erate ${srate1} units box remap x
fix		2 all deform 1 x erate 0.01 units box remap x

# Output strain and stress info to file
# for units metal, pressure is in [bars] = 100 [kPa] = 1/10000 [GPa]
# p2, p3, p4 are in GPa
variable strain equal "(lx - v_L0)/v_L0"
variable p1 equal "v_strain"
variable p2 equal "-pxx/10000"
variable p3 equal "-pyy/10000"
variable p4 equal "-pzz/10000"
fix def1 all print 20 "${p1} ${p2} ${p3} ${p4}" file  Al99.NegFRho.NegRhoR.NegPhiR.eam.alloy.def1.txt screen no

# Use cfg for AtomEye
#dump 		1 all cfg 250 dump.tensile_*.cfg id type xs ys zs c_csym c_peratom fx fy fz
#dump_modify 1 element Al

# Display thermo
thermo 	1000
thermo_style	custom step v_strain temp v_p2 v_p3 v_p4 ke pe press

run		20000
Memory usage per processor = 3.04301 Mbytes
Step strain Temp p2 p3 p4 KinEng PotEng Press 
       0 -5.2445489e-16    299.03399 -0.017672167 0.0039787895  0.034609015    154.57405   -13299.457   -69.718792 
    1000         0.01    294.71395   0.62351092 0.0055821232 -0.016376019    152.34098   -13294.728   -2042.3901 
    2000         0.02    295.70577    1.2462975 -0.0058160429 0.0046688956    152.85366   -13289.856    -4150.501 
    3000         0.03    298.50905    1.9078485 -0.0081288018 -0.0069017111    154.30271   -13283.203   -6309.3933 
    4000         0.04    305.04015     2.568663  0.051298144  0.036290915    157.67871   -13275.793   -8854.1736 
    5000         0.05    293.68838    3.0958899 -0.044539049 -0.059822198    151.81085   -13256.648   -9971.7623 
    6000         0.06    293.45427    3.6943184 -0.00036247272 -0.032848802    151.68983   -13240.775    -12203.69 
    7000         0.07    296.90922    4.2794587  0.009306988 -0.00082539054    153.47574   -13224.447   -14293.134 
    8000         0.08    297.09305    4.8181568  -0.04781529 -0.0048892081    153.57076    -13204.08   -15884.841 
    9000         0.09    296.03277     5.361445 -0.029171779 -0.065745295    153.02269   -13180.908   -17555.093 
   10000          0.1    293.35914    5.9272032  0.055546569  0.021053928    151.64066   -13154.703   -20012.679 
   11000         0.11    296.64885    6.5078113  0.044174652  0.043157794    153.34115   -13129.265   -21983.813 
   12000         0.12    293.80826     6.976869 -0.009566814 -0.025519134    151.87281   -13098.445   -23139.277 
   13000         0.13    291.59013    7.4096537   0.01899872  0.031479392    150.72624   -13065.947   -24867.106 
   14000         0.14    299.52758    7.8403585 -0.042780493 -0.018247958     154.8292   -13036.744     -25931.1 
   15000         0.15    302.75274    7.3882208  0.032700035 0.0042575148    156.49632   -13003.954   -24750.595 
   16000         0.16     402.2095    2.1250698  0.085783258  0.012033794    207.90665   -13048.162   -7409.6229 
   17000         0.17    423.01472    1.5531334   0.10114008   0.10072746     218.6611   -13075.295   -5850.0032 
   18000         0.18    435.81106   0.72900164 -0.018729815 -0.073744752    225.27567   -13107.403   -2121.7569 
   19000         0.19    425.62257   0.83587242  0.025806052 -0.0079024255    220.00912   -13127.581   -2845.9202 
   20000          0.2    413.81441   0.97891204  0.017591243 -0.058925489    213.90535   -13145.083   -3125.2593 
Loop time of 336.698 on 4 procs for 20000 steps with 4000 atoms

Pair  time (%) = 270.937 (80.4689)
Neigh time (%) = 0.506961 (0.150569)
Comm  time (%) = 55.1318 (16.3743)
Outpt time (%) = 0.00340253 (0.00101056)
Other time (%) = 10.1186 (3.00526)

Nlocal:    1000 ave 1011 max 988 min
Histogram: 1 0 1 0 0 0 0 0 1 1
Nghost:    3750.5 ave 3761 max 3729 min
Histogram: 1 0 0 0 0 0 0 1 0 2
Neighs:    69272 ave 70567 max 67265 min
Histogram: 1 0 0 0 1 0 0 0 0 2
FullNghs:  0 ave 0 max 0 min
Histogram: 4 0 0 0 0 0 0 0 0 0

Total # of neighbors = 277088
Ave neighs/atom = 69.272
Neighbor list builds = 86
Dangerous builds = 0

######################################
# SIMULATION DONE
print "All done"
All done
