
# ----------------------- ATOM DEFINITION ----------------------------
lattice		fcc ${latparam}
lattice		fcc 4.05
Lattice spacing in x,y,z = 4.05 4.05 4.05
region		whole block 0 12 0 12 0 12
create_box	1 whole
Created orthogonal box = (0 0 0) to (48.6 48.6 48.6)
  1 by 2 by 2 MPI processor grid
lattice 	fcc ${latparam} orient x 1 0 0 orient y 0 1 0 orient z 0 0 1
lattice 	fcc 4.05 orient x 1 0 0 orient y 0 1 0 orient z 0 0 1
Lattice spacing in x,y,z = 4.05 4.05 4.05
create_atoms	1 region whole
Created 6912 atoms

# ------------------------ FORCE FIELDS ------------------------------

#****************USE THIS TO TEST******************
pair_style	eam/rad
pair_coeff 		* * Al99.PC0.05.eam.alloy.rad.txt Al # pc = 0.5   error generating

# to test with error = 0 use this potential
# pair_coeff	* * Al99.eam.alloy.005pcrad_NULL_noerror Al

#****************USE THIS TO RUN REFRENCE***********
# pair_style	eam/alloy
# pair_coeff	* * Al99.eam.alloy Al

# ------------------------- SETTINGS ---------------------------------
compute csym all centro/atom fcc
compute peratom all pe/atom

######################################
# EQUILIBRATION
reset_timestep	0
timestep	0.001 # default
# timestep	0.0001 # tiny time step
velocity all create 300 12345 mom yes rot no
fix 1 all npt temp 300 300 1 iso 0 0 1 drag 1

# Set thermo output
thermo 50
# thermo 1 # debug mode

# thermo_style custom step lx ly lz press pxx pyy pzz pe temp
# IMPLEMENTATION HERE

# VERSION add rad variables .v1 .v2
# thermo_style custom step lx ly lz press pxx pyy pzz pxxrad pyyrad pzzrad pe temp

# VERSION ublb separation .v3
thermo_style custom step lx ly lz press pxx pxxrad pyy pyyrad pzz pzzrad pe temp

# Run for at least 10 picosecond (assuming 1 fs timestep)
run 	20000 # default
Memory usage per processor = 5.71603 Mbytes
Step Lx Ly Lz Press Pxx Pxxrad Pyy Pyyrad Pzz Pzzrad PotEng Temp 
       0         48.6         48.6         48.6     2496.386    2451.7623    242.99145    2520.4586    242.99145     2516.937     485.9829    -23224.32          300 
      50    48.673041    48.673041    48.673041     852.0468    911.67896    401.67087    844.53941    311.01171    799.92203    485.01045   -23050.764    104.74463 
     100    48.760912    48.760912    48.760912   -4427.7962   -4413.3731    125.26887   -4459.8044    250.84854    -4410.211    477.43557   -23108.062    170.21443 
     150    48.680077    48.680077    48.680077    530.62794    530.21765    323.70859    500.30673    324.64406    561.35944    483.40312   -23066.334    123.52598 
     200    48.621044    48.621044    48.621044    3170.2645    3242.0508    199.88347    3091.5624    196.55982    3177.1802    487.64052   -23079.827     139.9894 
     250    48.678635    48.678635    48.678635    199.58148    154.01236    371.44209    236.89273    244.03754    207.83935    483.28806   -23084.585    145.80114 
     300    48.725258    48.725258    48.725258   -2178.1679   -2165.6282    250.77977   -2199.2204    399.44217   -2169.6551    480.09771   -23089.638    152.49909 
     350    48.684235    48.684235    48.684235   -315.82879   -243.16682    311.67839   -383.71805    146.20678   -320.60149    482.70192   -23097.254     161.5629 
     400    48.646576    48.646576    48.646576    1781.6578    1761.2488    100.45505    1811.2289    31.359346    1772.4958    485.71634   -23088.241    152.43278 
     450    48.679957    48.679957    48.679957    83.754641     89.85984    170.33081    45.655735    471.95887    115.74835    483.27554   -23086.824    151.55301 
     500    48.709624    48.709624    48.709624   -1335.2159   -1340.1186    305.60177   -1305.8483    239.76525   -1359.6809    481.10852   -23086.094    151.73053 
     550    48.683988    48.683988    48.683988   -30.668778   -66.660112   -133.07853   -57.839798    234.32704    32.493577    482.95405   -23085.967    152.42232 
     600    48.660027    48.660027    48.660027    1109.3946    1186.5281    364.87256    1091.0112     276.5449    1050.6447      484.624   -23088.624    156.41975 
     650    48.681759    48.681759    48.681759    47.144583    8.9360318    45.969941    54.220992    247.82013    78.276726    483.09332   -23088.562    157.24015 
     700    48.702912    48.702912    48.702912   -1040.4161   -1022.6996     282.6518   -1069.3919    282.89233   -1029.1568    481.63279   -23087.614    157.20847 
     750    48.684252    48.684252    48.684252   -101.89735   -137.63719    106.01082   -84.077018    402.84541   -83.977851    483.05577   -23087.759    158.30199 
     800    48.666245    48.666245    48.666245    851.69778    870.69784     177.1184    760.34249    281.24002    924.05302    484.31388   -23085.415    156.68343 
     850    48.682879    48.682879    48.682879    45.283585    25.461638    204.67294    39.147155    422.50001    71.241963     483.1437   -23083.675    155.69778 
     900    48.698988    48.698988    48.698988    -721.1681   -686.86327    394.95006   -765.90698    40.655778   -710.73405    481.86249   -23087.802     161.3492 
     950    48.685507    48.685507    48.685507   -32.580848   -12.530709   -66.164563   -40.348487    365.46693   -44.863348    483.05292   -23079.104    152.58073 
    1000    48.671563    48.671563    48.671563    691.27509    765.77142    188.70086    660.35012    134.15334    647.70372    483.78697   -23085.847    161.16557 
    1050    48.684022    48.684022    48.684022    74.817226    94.491596    78.299354    104.49433    153.26766    25.465748    483.14152   -23080.529    156.20485 
    1100    48.697693    48.697693    48.697693   -663.58464   -679.68316    282.30412   -753.26963   -109.84825   -557.80112     482.0085   -23084.844    162.04398 
    1150    48.687134    48.687134    48.687134   -79.935003   -98.377647    321.22624   -72.973264     536.8324   -68.454097    482.66645   -23085.934    164.28171 
    1200    48.675453    48.675453    48.675453    561.02538    558.39683    106.77846     478.7594    46.949063     645.9199    483.76444   -23077.106    155.41991 
    1250    48.685417    48.685417    48.685417     96.38082    133.48517    229.11547    109.50391    368.70665    46.153388    482.92473   -23083.868    164.00561 
    1300    48.696961    48.696961    48.696961   -456.10644   -399.24351    320.25278   -471.92398    321.92513   -497.15183    482.26334   -23077.425    157.81784 
    1350    48.688634    48.688634    48.688634   -90.679121   -73.650483    181.23885   -127.29516    202.78156   -71.091716     482.6531   -23082.599     164.6358 
    1400    48.678121    48.678121    48.678121    507.69178     554.4714    193.01254    450.35808    253.92184    518.24587    483.47424   -23078.751    161.36299 
    1450    48.687497    48.687497    48.687497   -39.138775   -61.107462    155.99763   -98.736247    172.45254    42.427384    482.82504   -23081.559    165.52548 
    1500    48.696039    48.696039    48.696039   -413.41528   -358.07579     414.2765   -394.42103    134.08195   -487.74902    482.43504   -23080.844      165.759 
    1550    48.688594    48.688594    48.688594    49.904932    37.730511    239.67108   -14.366551    285.77684    126.35083    482.84312   -23076.154    161.52792 
    1600    48.682005    48.682005    48.682005    283.34848    305.27237    187.90614    272.37586    142.95997    272.39721    483.13683   -23081.157    168.18889 
    1650    48.688818    48.688818    48.688818    22.617655    45.220742    451.23183   -15.654054    229.40166    38.286277    482.91747   -23077.566    165.17243 
    1700    48.696716    48.696716    48.696716   -419.98244   -422.07482    493.95835   -468.50319    252.21757    -369.3693    482.22362   -23078.631    167.40314 
    1750    48.688437    48.688437    48.688437    113.95733    121.23645    107.52392    22.212473    428.74206    198.42307    482.73316   -23073.967    163.23073 
    1800    48.683612    48.683612    48.683612    292.48559    319.41225    309.23522    251.85441    81.475085    306.19012    483.17526   -23079.124    170.04105 
    1850    48.690979    48.690979    48.690979      -9.9818     80.45051     198.2799   -125.24851     183.6446    14.852602    482.73041   -23073.041    164.25807 
    1900    48.695967    48.695967    48.695967   -238.49055   -237.41566     291.1059   -221.47249    68.267779    -256.5835    482.40737   -23073.504     165.8295 
    1950    48.690166    48.690166    48.690166   -43.070144     41.20675    150.92159   -153.91493    282.82152    -16.50225    482.84821   -23079.215    173.25033 
    2000    48.685677    48.685677    48.685677     271.2924    271.23704     394.8605    257.78745    469.81123     284.8527    483.04138   -23075.736    170.39345 
    2050    48.692008    48.692008    48.692008    5.4531145    33.546903    282.36511   -106.54599    195.03751    89.358431    482.82076   -23070.257    165.31075 
    2100    48.697232    48.697232    48.697232    -287.6662   -168.69834    215.65664   -317.09351    263.62978   -377.20676    482.27356   -23074.848     171.4769 
    2150    48.691551    48.691551    48.691551    64.695751    65.796814    221.77184    34.374024    135.36367    93.916414     482.6792   -23073.969    171.55453 
    2200    48.688092    48.688092    48.688092    223.57465    305.76422    171.39978    230.24148    301.35989    134.71826    483.11146   -23071.192    169.47559 
    2250    48.693774    48.693774    48.693774   -57.380572    -69.75465    262.98813   -82.221987    237.27628   -20.165079    482.50574    -23074.24    173.93859 
    2300    48.697159    48.697159    48.697159   -210.68621   -152.00421    324.65523    -279.3065    95.135044   -200.74792    482.39438   -23070.663    170.97301 
    2350    48.693152    48.693152    48.693152    17.461266    25.624941    260.64659    2.8112201    414.25224    23.947636    482.63452   -23073.305    174.96954 
    2400    48.690298    48.690298    48.690298    187.25914    296.17305    247.76491    111.04422    51.787091    154.56014    482.93107   -23069.644    171.92734 
    2450    48.695367    48.695367    48.695367   -23.203615   -5.5040328    183.63671   -23.977577    53.218349   -40.129234    482.49001   -23070.863    174.32548 
    2500    48.698396    48.698396    48.698396   -200.97573   -98.690438   0.20974104   -291.80944    25.247248   -212.42731    482.46037    -23069.11    173.42138 
    2550    48.693469    48.693469    48.693469    36.694567    62.768406    352.26742   -53.698338    318.52183    101.01363    482.64171   -23070.785    176.32704 
    2600    48.691137    48.691137    48.691137     263.3279     406.6238    173.59236     114.4684     258.2438     268.8915    482.81267   -23068.115    174.39571 
    2650    48.697984    48.697984    48.697984   -119.59855   -116.59912     244.8706   -122.95046     138.1335   -119.24608    482.45775   -23067.871    175.15541 
    2700    48.700224    48.700224    48.700224   -230.50409   -158.40968    125.23714   -385.65864    69.249443   -147.44397    482.03626   -23070.193    178.81608 
    2750    48.694038    48.694038    48.694038    88.988852    63.040704    294.75649     202.0181     341.8062    1.9077469    482.57181   -23067.638    176.99606 
    2800    48.693162    48.693162    48.693162    241.30503    261.00963    10.438381    248.05928    19.948539    214.84618    482.65188   -23066.323    176.57268 
    2850    48.699852    48.699852    48.699852   -216.12366   -179.51913    245.67015   -243.74919     212.0432   -225.10265    482.30947   -23067.963    179.46269 
    2900    48.699914    48.699914    48.699914   -127.17633   -66.144695    289.54859   -254.33937    230.18491   -61.044923    482.28035   -23065.867    178.15324 
    2950    48.695501    48.695501    48.695501    136.19866    180.30983    205.41663    145.43206    117.86662    82.854078    482.54867   -23066.624    180.05697 
    3000    48.696462    48.696462    48.696462    80.378497    18.329346    536.82838    100.59097    133.69493    122.21518    482.60867   -23064.854    179.11003 
    3050    48.701308    48.701308    48.701308   -159.69051   -137.12854    176.51141   -162.98782   -38.809774   -178.95518    482.12739   -23066.697    182.23551 
    3100    48.699853    48.699853    48.699853   -32.211386    7.4970339    78.568711   -90.224403    390.43249   -13.906789    482.39864   -23063.176    179.33645 
    3150    48.696965    48.696965    48.696965    68.226798    116.07246     454.1452    68.018868    333.88416    20.589062    482.49221   -23064.512    181.88021 
    3200     48.69801     48.69801     48.69801    164.26096    161.44271    48.681156    127.69818    388.09948    203.64198    482.54094   -23060.183    178.08861 
    3250    48.702899    48.702899    48.702899    -240.0724     -225.462    349.94718   -249.93001   -57.742543   -244.82519      482.172   -23066.154    185.81101 
    3300    48.700603    48.700603    48.700603    23.111695    40.430998    382.49124    34.790454    226.65991   -5.8863667    482.36835   -23059.266     179.1516 
    3350    48.698334    48.698334    48.698334    82.712772    163.77831    240.92647    10.162988    254.65908    74.197013    482.41278   -23063.293    184.70745 
    3400     48.69993     48.69993     48.69993    52.771586    121.34773    195.71481    34.558092    259.47424    2.4089332    482.24509   -23060.815    182.98483 
    3450    48.703205    48.703205    48.703205    -96.85624   -83.775447    279.85133    -77.96745      477.267   -128.82582    481.99066   -23060.376    183.54135 
    3500     48.70201     48.70201     48.70201   -36.806736    -30.03124    109.57272   -21.540897    185.70351   -58.848072    482.21133   -23062.108    186.53442 
    3550    48.699492    48.699492    48.699492    170.23598    227.68321    210.80952    193.30302   -151.71086    89.721712    482.53888   -23057.263    182.15291 
    3600    48.702258    48.702258    48.702258   -86.461352   -109.99909    342.34564   -152.09546    515.28504    2.7104932    482.25801   -23063.178    189.82546 
    3650     48.70392     48.70392     48.70392   -68.668754    -13.54673    55.330193   -61.272813    428.15108   -131.18672    482.26069   -23057.876    184.92579 
    3700    48.702548    48.702548    48.702548   -18.731632    56.015523    385.16188   -142.06352    446.63893    29.853103    482.24582    -23059.21    187.47848 
    3750      48.7004      48.7004      48.7004    163.04015    237.09956    279.43826    167.63917    143.91678    84.381716    482.45203    -23056.77    185.78811 
    3800    48.703741    48.703741    48.703741   -4.1383697    23.304867    437.09634    14.633499    454.42789   -50.353474    482.21202   -23057.401    187.54203 
    3850    48.705829    48.705829    48.705829   -44.958358    28.023303    212.49878   -101.16316    422.96152    -61.73522    481.99804    -23055.16     186.0868 
    3900    48.704139    48.704139    48.704139   -10.494754   -69.204537    255.87631   -51.039495    275.35778     88.75977    482.20514     -23057.3    189.52604 
    3950    48.701966    48.701966    48.701966    151.91265    203.19988    287.85864    57.152283    176.08732     195.3858    482.44315   -23054.495    187.43459 
    4000    48.704531    48.704531    48.704531    27.257068    22.802097    274.02231   -24.532807    442.20576    83.501914    482.25775   -23055.315    189.39556 
    4050    48.707937    48.707937    48.707937    -135.3897   -142.51167    244.89359   -77.766212    333.09799   -185.89122    481.90022   -23057.013    192.33778 
    4100    48.706227    48.706227    48.706227   -33.211251    56.316026     3.351086   -137.40789    107.21486   -18.541889    481.97207   -23055.904    192.15069 
    4150    48.703129    48.703129    48.703129    146.46063    114.63175    287.25362    173.85084    522.60076    150.89931     482.3647   -23054.066    191.13753 
    4200    48.705338    48.705338    48.705338   -14.198573    37.036491    292.36829   -59.616611    139.57757   -20.015599    482.17639   -23054.575    192.74643 
    4250    48.707873    48.707873    48.707873   -48.619682   -10.738218     72.44591   -58.640729    93.217776   -76.480098    482.22585   -23050.459    189.18026 
    4300    48.708021    48.708021    48.708021    -71.47148   -48.596638    452.46258     -27.8045    717.02907    -138.0133     481.9713   -23054.857    195.14745 
    4350    48.705458    48.705458    48.705458    63.737234     125.9259   -37.692429   -12.939068    273.72202    78.224869    482.14844   -23052.915    194.02008 
    4400    48.705546    48.705546    48.705546    59.002937     103.2883    212.47168     59.44931    143.53018    14.271204    482.09692   -23054.338     196.6605 
    4450    48.709199    48.709199    48.709199    -72.89735    43.472176    384.68395   -168.73365    215.73459   -93.430572    481.85925   -23052.021    195.10243 
    4500    48.709992    48.709992    48.709992   -62.262826   -4.4683372    133.52192   -88.105552     178.2353   -94.214587    481.86892   -23050.348    194.27189 
    4550    48.707492    48.707492    48.707492    39.697805    75.475628   -27.134227    30.079692    300.57227    13.538096    482.00834   -23051.082    196.13285 
    4600    48.706709    48.706709    48.706709     60.40358    64.234795    394.14183    31.469078    366.48167    85.506867    482.05823   -23052.103    198.32523 
    4650    48.708958    48.708958    48.708958    33.704243    191.73979    431.54337   -132.19024    380.56169    41.563181    482.03625   -23047.718    194.44587 
    4700    48.710962    48.710962    48.710962    -27.75816   -36.661123    537.97391     5.248281     402.5772   -51.861636    481.82361   -23047.861    195.64989 
    4750    48.710854    48.710854    48.710854   -58.083649    4.5107352    324.46076   -73.969253    290.88304   -104.79243    481.84178   -23048.622    197.53738 
    4800     48.70916     48.70916     48.70916    58.163947    66.429591    142.47954    14.223558    375.70451    93.838692    481.93434   -23049.787    199.88646 
    4850    48.708912    48.708912    48.708912    42.444235    160.00018    95.937314   -59.991801   -73.276054    27.324322    481.99266   -23048.249    199.19907 
    4900    48.710788    48.710788    48.710788   -11.377852   -17.568849    251.29106    -26.80871    259.45418    10.244003    481.89892   -23046.464    198.23601 
    4950    48.712392    48.712392    48.712392   -92.154675   -41.159982    125.60385   -71.287004    220.88801   -164.01704     481.7714   -23050.283    203.54605 
    5000    48.711487    48.711487    48.711487   -6.1328866    65.331073    97.911078   -41.941543    55.191317    -41.78819    481.84991   -23046.329    200.15248 
    5050    48.710748    48.710748    48.710748    55.071847    149.64775    263.92273    -50.24174    57.591827     65.80953     481.8987    -23045.36    200.10204 
    5100    48.712087    48.712087    48.712087   -3.8423891    9.0715651    324.21372   -10.019264    63.627572   -10.579468    481.98483    -23046.26    202.14121 
    5150    48.713296    48.713296    48.713296   -6.5150057    98.881791    352.34569   -93.266524    442.55316   -25.160284    481.79907    -23043.27    199.82653 
    5200    48.713044    48.713044    48.713044   -4.9045659    48.193319    271.72633   -99.984226    417.22539     37.07721    481.73448   -23045.816    203.71421 
    5250    48.712097    48.712097    48.712097    45.631277    110.66047     181.8768  -0.98276298    454.42107    27.216124    481.88394   -23043.262    201.88598 
    5300    48.712838    48.712838    48.712838    10.222252    9.2224678    196.59038   -15.639272    154.19456    37.083562    481.74322   -23045.632    205.56433 
    5350     48.71426     48.71426     48.71426   -83.286142   -107.75919   -109.37334   -73.320388    240.25451   -68.778845    481.79441   -23044.988    205.87143 
    5400     48.71465     48.71465     48.71465   -17.735564    40.647081    547.15273   -27.463219    234.86141   -66.390555    481.66974   -23043.395    205.11159 
    5450    48.714613    48.714613    48.714613    21.308331    148.39907    165.31542   -77.699466    131.54729   -6.7746076    481.65616   -23040.805    203.24582 
    5500    48.713384    48.713384    48.713384    63.498502    44.006508    207.33365    64.576837    317.90594     81.91216    481.93384   -23039.826    203.17784 
    5550    48.713955    48.713955    48.713955    92.583592    121.25403     132.0857    108.02564    363.11555    48.471108    481.93982   -23039.402    203.72028 
    5600    48.716884    48.716884    48.716884   -123.14978   -88.612504     179.6597   -258.77853     320.4514   -22.058316     481.4891   -23042.768    208.51606 
    5650    48.715781    48.715781    48.715781   -34.417487    -3.425837    115.55037   -5.8906203     230.5169   -93.936005    481.66492   -23041.031    207.59182 
    5700    48.714325    48.714325    48.714325    30.082849    108.56369    456.93666     18.52338   -64.555057   -36.838526    481.64811   -23043.089    210.91808 
    5750    48.716304    48.716304    48.716304   -41.794827   -134.14463    296.87363    11.871266    468.25324   -3.1111129    481.66745    -23039.06    207.42525 
    5800    48.716989    48.716989    48.716989     46.17322   -40.914046   -219.01227    109.23201    58.616976    70.201699    481.64543    -23037.96    207.22119 
    5850    48.716842    48.716842    48.716842   -15.194046   -31.183943    248.55191   -20.284635    125.75242    5.8864411    481.61906    -23038.16    208.45732 
    5900    48.715935    48.715935    48.715935    47.700677    70.916622    301.87895    38.743747    215.15842    33.441661    481.69144   -23038.772    210.16316 
    5950    48.716972    48.716972    48.716972   -36.649946    8.0052481    109.31358   -7.8865321    -69.28185   -110.06855    481.64344   -23040.228    212.80463 
    6000    48.718824    48.718824    48.718824   -33.982674    -20.31286    102.32604   -53.017209    277.90426   -28.617952    481.59605   -23034.638    207.55307 
    6050    48.718426    48.718426    48.718426   -14.591404    22.237832    239.68758   -110.22244     145.7124    44.210398    481.48628   -23037.103    211.32859 
    6100    48.716768    48.716768    48.716768    95.892389    71.652623    105.95852    175.76088    302.10356    40.263665    481.67723   -23037.107    212.35244 
    6150    48.718638    48.718638    48.718638      33.1445    71.697395    5.3034695   -9.6537607    475.99573    37.389866    481.60167   -23034.548    210.49305 
    6200    48.720271    48.720271    48.720271   -72.467962   -43.124419   -78.034666   -93.181639    312.84982   -81.097827    481.51303   -23035.791    212.89929 
    6250    48.718766    48.718766    48.718766    93.579165    142.25427   -19.738466    111.06807    347.88207    27.415158    481.51325    -23033.21    211.01287 
    6300    48.719324    48.719324    48.719324    43.819091    157.30654    39.245682   -46.851325    222.87392    21.002052     481.5347    -23035.14    214.18135 
    6350    48.720303    48.720303    48.720303   -90.116467   -133.81921    188.28541   -56.306399    427.18908   -80.223792    481.47095   -23037.038    217.31156 
    6400     48.72031     48.72031     48.72031    17.443789    100.10833   -134.78337      -16.696     196.6657   -31.080967    481.49604   -23030.839    211.36681 
    6450    48.720137    48.720137    48.720137    62.153282    1.8089834    -156.1322    138.81325     276.1426    45.837615    481.51075   -23033.138    214.95068 
    6500    48.720581    48.720581    48.720581    31.066997    93.578896    188.03988    62.024362    319.29224   -62.402266    481.54966    -23031.74    214.37943 
    6550    48.722727    48.722727    48.722727   -24.512683   -4.4244302    4.0573528    -87.71663    368.49331    18.603012    481.21095   -23032.724    216.48276 
    6600    48.722669    48.722669    48.722669   -57.490337   -94.389998    363.68233    69.897579    44.274983   -147.97859    481.31481   -23031.773     216.4179 
    6650    48.720387    48.720387    48.720387     123.0368    164.40172    70.507708    46.976332    353.36591    157.73235    481.55241    -23031.45    217.04947 
    6700    48.722597    48.722597    48.722597   -35.195879    92.315215    363.77192   -22.627301    476.43968   -175.27555    481.40215   -23030.896     217.4203 
    6750    48.724661    48.724661    48.724661   -72.385364   -57.716605    306.07753   -82.754625    204.23525   -76.684863    481.13506    -23031.51    219.10062 
    6800    48.723306    48.723306    48.723306   -48.991299   -82.617263     109.6799   -55.533774    389.33203   -8.8228601    481.24373   -23031.063    219.59583 
    6850    48.721175    48.721175    48.721175    137.57172     217.8469    196.24364    155.69014    502.94114    39.178131    481.56506   -23030.209    219.62205 
    6900    48.724282    48.724282    48.724282   -15.588173   -63.522166     213.2535    38.891265    391.42944   -22.133618    481.16085   -23029.791    220.14096 
    6950    48.726984    48.726984    48.726984   -92.227141   -115.72216    468.29809   -40.382168    200.42677   -120.57709    481.08626   -23027.578    218.65396 
    7000    48.725203    48.725203    48.725203    17.091947   -51.225606    490.31031    67.229121    172.01592    35.272326     481.2562    -23027.33    219.35537 
    7050    48.722616    48.722616    48.722616    34.049456    31.319057    96.867015    -85.27826     1.136997    156.10757    481.24492    -23030.38     223.7551 
    7100    48.723496    48.723496    48.723496    206.40276    285.86276    395.87677    219.00635    374.94907    114.33918    481.38578   -23024.092    217.69411 
    7150    48.728357    48.728357    48.728357    -248.1268   -314.15246    216.26815   -227.83131     376.1163   -202.39663    480.99187   -23029.216    224.41387 
    7200    48.725352    48.725352    48.725352    64.869048    57.849271    283.10211    9.1007129    57.070233    127.65716    481.29946   -23024.233    219.80307 
    7250    48.723959    48.723959    48.723959    22.175271   -54.704654    319.57709    89.824683    287.86592    31.405784    481.33167   -23028.855    225.95559 
    7300    48.725396    48.725396    48.725396    114.00326    114.66951    160.04633    137.84856    279.81703    89.491718    481.29978   -23026.139    223.88861 
    7350    48.729976    48.729976    48.729976   -133.08475   -170.94032    226.34774   -110.86583    220.20171    -117.4481    480.99675   -23024.285     222.7817 
    7400    48.728925    48.728925    48.728925   -99.703103   -34.780911    238.31265   -55.188888   -14.628121   -209.13951    481.02689   -23026.342    226.05512 
    7450    48.724608    48.724608    48.724608    166.57647    106.37867    218.45455    167.01017    506.94534    226.34058     481.3304   -23022.813    223.06971 
    7500    48.726172    48.726172    48.726172    -4.525935    89.375117    620.41382   -27.209763    39.576088   -75.743159    481.11755   -23027.383    229.15768 
    7550    48.728787    48.728787    48.728787     33.08135    -44.53937    177.62258    68.074919    398.64879    75.708501    481.15306   -23019.447    221.23381 
    7600     48.72947     48.72947     48.72947     -165.817   -157.09638    198.91994   -191.99609    -56.21337   -148.35852    480.89054   -23025.991    229.51907 
    7650     48.72523     48.72523     48.72523    211.63777     211.4111    173.29419      258.325   -50.869998    165.17719    481.25509   -23022.742    226.84355 
    7700    48.727307    48.727307    48.727307    53.414515    126.70569      408.119     100.8151    111.10989   -67.277243    481.25617   -23021.123    225.98527 
    7750    48.731429    48.731429    48.731429   -141.69908   -85.390674    356.30364   -176.36295     338.7908   -163.34361    480.97257   -23022.216    228.16106 
    7800    48.730181    48.730181    48.730181   -74.930575   -130.18239    309.84828    -32.40949    342.45305   -62.199844    481.11954   -23021.149    227.91643 
    7850    48.726264    48.726264    48.726264    168.47699    262.68705    206.45257    124.23584    224.00652    118.50807    481.25625   -23020.495    228.14031 
    7900    48.728745    48.728745    48.728745    100.08533    39.283319    203.46742    153.23175    506.82326    107.74091     481.1398    -23018.14    226.45557 
    7950    48.733178    48.733178    48.733178   -157.58796   -155.14999    351.98254   -96.147081    396.95268    -221.4668    480.77404   -23021.594    231.27251 
    8000    48.731093    48.731093    48.731093   -45.151895   -91.709048   -79.404271    8.0127741   -24.594167   -51.759411    480.99509   -23021.672    232.29708 
    8050    48.728895    48.728895    48.728895    53.722566    81.172305    357.38672    -38.95199    445.37409    118.94738     481.0616   -23022.902    234.61462 
    8100    48.731159    48.731159    48.731159   0.52036475    1.8664917    42.972503    67.325339    161.05774   -67.630736    481.12725   -23017.134    229.09434 
    8150     48.73377     48.73377     48.73377    -130.9396    -98.67145    274.49422   -183.96565     88.63574    -110.1817    480.80226   -23021.148     234.5284 
    8200    48.732225    48.732225    48.732225   -1.1241948   -17.411529    200.88531   -9.4352624     159.8633    23.474207    480.90101   -23016.219    229.94866 
    8250    48.730081    48.730081    48.730081    137.78896    133.40913     243.3609    168.65028    152.03272    111.30747    481.12026   -23016.758     231.4887 
    8300    48.732078    48.732078    48.732078     74.63119    90.110452   -179.23558    71.452781    124.09366    62.330337    480.99372    -23016.71    232.36265 
    8350    48.735275    48.735275    48.735275   -163.54146   -175.53372    691.58517   -149.64454    144.19754   -165.44612    480.79892   -23016.698    233.27552 
    8400    48.732977    48.732977    48.732977    50.554949    71.351476    188.16451    167.76123   -35.467696   -87.447861    481.06656   -23014.236    231.44146 
    8450    48.731614    48.731614    48.731614    129.02195    69.689663    136.50663    171.32415    573.84442    146.05204    480.87449   -23015.651    233.95797 
    8500    48.734443    48.734443    48.734443   -26.110938    20.500865    -40.29022   -4.6476322     278.9308   -94.186047     480.7222   -23017.183     236.5931 
    8550    48.736348    48.736348    48.736348   -70.417947   -80.665799    712.75412    14.661026    120.67668   -145.24907    480.60724   -23014.408     234.4058 
    8600    48.734329    48.734329    48.734329   -47.703746    22.909499    368.40469    -12.58396    187.54089   -153.43678     480.9468   -23015.289    236.30471 
    8650    48.732381    48.732381    48.732381    123.50192    198.06682    349.71721    186.69773    205.08112   -14.258808    480.89267   -23015.349    237.28553 
    8700    48.735556    48.735556    48.735556   -38.484082   -184.23022    12.332152    8.3235532     223.6603    60.454416    480.76378   -23014.296    237.01602 
    8750    48.736956    48.736956    48.736956    -80.58042   -49.271862    185.80951   -112.02305    151.51904   -80.446352    480.64854   -23013.907    237.49501 
    8800    48.735098    48.735098    48.735098    77.084585   -23.454731     627.1378    242.36176    253.62528    12.346726    480.86841   -23011.476    235.67909 
    8850      48.7352      48.7352      48.7352    37.708942    112.92323    25.792024   -63.114826    268.20824    63.318424    480.75114   -23012.236    237.43239 
    8900    48.736474    48.736474    48.736474    46.288738    19.980034    460.82325    69.339058    176.91919    49.547122    480.84401   -23009.288    235.03335 
    8950    48.736798    48.736798    48.736798   -48.570787     1.065559   -118.75707   -96.587164    170.26379   -50.190756    480.71179   -23013.648    240.81914 
    9000    48.735673    48.735673    48.735673    43.067211    57.762843   -66.203175    55.122391     608.7312      16.3164    480.81936   -23012.065    239.93696 
    9050    48.737013    48.737013    48.737013   -3.5838671    66.090365    103.92541    32.759978    541.97963   -109.60194    480.73131    -23009.07    237.47575 
    9100    48.738689    48.738689    48.738689   -91.315937   -104.53738    337.07545    49.319172     288.5176   -218.72961    480.60732    -23013.05    242.82271 
    9150    48.738074    48.738074    48.738074   -36.554764   -105.79384     538.2822    10.440284    -89.71637   -14.310737     480.5674   -23011.242       241.69 
    9200    48.736523    48.736523    48.736523    58.876046    64.804757    330.53823    102.99717    217.23465    8.8262068    480.79222    -23010.11    241.30911 
    9250    48.737284    48.737284    48.737284    73.239787    13.486534    549.56301    53.425147   -13.913608    152.80768    480.75035   -23008.685    240.59794 
    9300    48.739854    48.739854    48.739854   -32.543012    47.809921    219.01096    15.313135    265.45098   -160.75209    480.57246    -23008.78    241.58094 
    9350    48.739768    48.739768    48.739768   -11.622034   -88.075869    131.77542    59.142063    431.34119    -5.932295    480.50365   -23009.077    242.79531 
    9400    48.738041    48.738041    48.738041    94.783209    95.524764    554.49767     251.5242    49.869896   -62.699337    480.72838   -23006.031    240.25753 
    9450    48.739294    48.739294    48.739294   0.97898542   -31.926627    383.70828    -88.76287   -172.50418    123.62645    480.63632   -23008.748    244.16468 
    9500    48.741237    48.741237    48.741237   -57.642205   -91.745276    364.05181    97.258506    213.15582   -178.43985    480.42976   -23007.429    243.55909 
    9550    48.740384    48.740384    48.740384   -40.168805    112.72366    42.443642   -184.99714    440.94313   -48.232934    480.55285   -23007.851    244.90301 
    9600    48.738631    48.738631    48.738631    102.86632     114.7189    37.823806    109.80382    242.14333     84.07625    480.65788    -23006.73    244.51177 
    9650    48.740838    48.740838    48.740838    20.114516    165.26103   -7.1757761   -84.936822     358.2667   -19.980657    480.46594    -23005.38    243.86183 
    9700    48.742703    48.742703    48.742703    -89.17118   -100.85105    207.83016   -58.061163    340.91248   -108.60133    480.30162   -23007.123    246.67137 
    9750     48.74119     48.74119     48.74119    1.2701581    119.71837    14.869831   -43.091068    384.73118   -72.816827    480.50918   -23006.576    246.90882 
    9800     48.74101     48.74101     48.74101    25.438493    133.54276    42.794817     -46.2771    116.78033   -10.950184    480.50594   -23006.413    247.57316 
    9850     48.74296     48.74296     48.74296   -84.484781   -80.649671    174.07213   -50.978914    126.46525   -121.82576    480.34474    -23007.14    249.24186 
    9900    48.743127    48.743127    48.743127   -30.596131    154.86101    295.80832    -166.3251    192.59416   -80.324303    480.50783   -23002.315    244.68415 
    9950    48.741235    48.741235    48.741235    127.33009    137.55296    502.70562      207.245    -60.17535     37.19232    480.42746   -23002.622     245.8762 
   10000    48.742731    48.742731    48.742731    37.772334    68.321153    447.73377   -41.933086    79.669155    86.928934    480.42094   -23002.856    246.97215 
   10050     48.74597     48.74597     48.74597   -172.83583   -177.57921    176.60818   -237.25299    204.47879   -103.67529    480.21747   -23004.404    249.54726 
   10100    48.743567    48.743567    48.743567   -1.6921312    54.975441    27.179082   -23.642805    118.83335    -36.40903    480.32503   -23004.531    250.52727 
   10150    48.741393    48.741393    48.741393    79.317197    95.678619   -43.366162    18.180592    47.348347    124.09238    480.57689    -23002.36    248.92545 
   10200     48.74322     48.74322     48.74322     32.57833    39.096856    60.473691     115.3113    432.24994   -56.673168    480.45813     -23002.1    249.46484 
   10250    48.746285    48.746285    48.746285   -91.113364   -38.140904    321.33887   -79.308438    575.38266   -155.89075    480.17916   -23002.962    251.25331 
   10300    48.745815    48.745815    48.745815   -47.525796   -49.036023     151.4793   -154.86274    252.86713    61.321378    480.18719   -23003.096    252.22719 
   10350    48.743739    48.743739    48.743739    13.173936   -5.3589996    372.51575    90.496774    391.67592   -45.615966    480.35107   -23002.219      252.059 
   10400    48.743855    48.743855    48.743855    114.12933    63.767807    111.89537    59.801089     370.0772    218.81909    480.37282   -22999.036    249.31103 
   10450    48.747399    48.747399    48.747399   -147.81831   -154.03116    246.69947   -188.25168    289.11244   -101.17209    480.02468   -23002.453    253.94887 
   10500    48.746152    48.746152    48.746152    54.436907    37.525487    148.10824    105.70573    750.63706    20.079501    480.18142   -22998.609    250.45983 
   10550    48.744317    48.744317    48.744317    52.138779   -11.100588    752.74563    112.81424    162.25415    54.702691    480.25201   -22999.668    252.45208 
   10600    48.744968    48.744968    48.744968    96.295092    107.30133    145.02382      107.983    305.90707    73.600949    480.33979   -22998.881    252.37223 
   10650    48.748347    48.748347    48.748347   -132.55413   -83.108329    4.9742692   -58.032324    234.71354   -256.52173    480.07708   -23001.021    255.56723 
   10700    48.747983    48.747983    48.747983    -144.9972   -314.88414     152.8193    -112.8914   -235.35853     -7.21606    480.04644   -23001.337     256.7174 
   10750      48.7447      48.7447      48.7447    127.09512    166.95248   -25.725459    89.215684    313.51392    125.11721     480.3415   -22998.678    254.54142 
   10800    48.745949    48.745949    48.745949    4.2084405   -180.46296    472.29596    67.814297    375.22826    125.27398    480.28378   -22998.886    255.55994 
   10850     48.74907     48.74907     48.74907   -15.108261    19.497009     271.5661   -71.446427    317.57535    6.6246351    480.03989   -22995.707    252.78941 
   10900    48.749902    48.749902    48.749902   -109.07063   -72.291594    244.59331   -140.12375    321.04447   -114.79655    479.98721   -22996.722    254.71122 
   10950    48.746148    48.746148    48.746148    113.17708    102.80421    265.57877     -4.49558    203.58472    241.22261    480.21194    -22997.33    256.17493 
   11000    48.746279    48.746279    48.746279    29.381746    35.291281    502.65551    34.995511     169.8353    17.858447    480.13836   -22999.422    259.29312 
   11050     48.74927     48.74927     48.74927   -3.9477335    -26.17393    701.24794   -71.596985    454.14303    85.927714    480.05166   -22995.241    255.38531 
   11100     48.75046     48.75046     48.75046   -85.833852   -152.36131    295.79124   -47.957584    197.87167   -57.182661    479.91583    -22994.78    255.63779 
   11150    48.748081    48.748081    48.748081    71.342057    92.091651     339.8661    107.43953    224.86314     14.49499    480.10072   -22995.171    256.84166 
   11200    48.747679    48.747679    48.747679    131.63033    111.38736   -3.9449331   0.77246553    168.20219    282.73116    480.21543   -22992.128    254.20172 
   11250    48.750879    48.750879    48.750879   -29.589164    54.557095   -31.761781    25.187185    423.15639   -168.51177    480.01483   -22994.344     257.4429 
   11300    48.751726    48.751726    48.751726    -107.6606   -198.96825    27.159609   -121.00025    129.42881   -3.0132972    479.93781   -22995.687    259.70477 
   11350    48.749485    48.749485    48.749485   -22.863493    40.889807    356.52329    45.567953     265.9243   -155.04824    479.92226   -22996.812    261.71974 
   11400    48.749461    48.749461    48.749461    87.362749    79.560954    556.23918    54.960204    291.81563    127.56709    480.11837   -22993.824    259.12977 
   11450    48.751584    48.751584    48.751584    6.7385575    1.8116094    177.06437    -11.42629    323.19117    29.830353    479.91433   -22990.927    256.63686 
   11500    48.753024    48.753024    48.753024   -117.96047   -104.54329    465.85483   -114.89064    221.98945   -134.44747    479.59145   -22996.002    263.06042 
   11550    48.751024    48.751024    48.751024    1.1282512    89.151604      226.922   -25.125105     80.84224   -60.641745    479.90823   -22993.574    261.08768 
   11600    48.750089    48.750089    48.750089    43.600027   -10.595246   -219.59977        60.33    309.77631    81.065328    479.95966    -22993.24    261.44052 
   11650    48.752148    48.752148    48.752148   -112.40062   -131.13786    197.38743    38.012675    478.71216   -244.07667    479.91882   -22995.304    264.48936 
   11700    48.752568    48.752568    48.752568   -55.653186   -5.3602146    96.963584   -41.351732    233.84564   -120.24761    479.76925   -22994.375    264.17567 
   11750    48.751213    48.751213    48.751213    95.110183    82.265827    65.887069    108.91236    324.98825     94.15236    479.95297   -22989.437    259.37887 
   11800    48.751823    48.751823    48.751823     114.7845    260.44381    349.82052    115.01027    409.15765   -31.100569    479.94684   -22988.942    259.53989 
   11850    48.755111    48.755111    48.755111    -70.15804   -16.801922    156.48551   -131.42505    215.88832   -62.247146    479.80477   -22988.088    259.30905 
   11900    48.754561    48.754561    48.754561   -46.726035   -29.568348    219.37204    10.325098    281.20019   -120.93486    479.76822    -22991.47    263.81449 
   11950    48.752065    48.752065    48.752065    107.53599    126.17928    501.39827     106.9402    382.81923    89.488499    479.93898   -22988.232    260.90201 
   12000    48.753518    48.753518    48.753518   -41.921227   -164.43384    122.64736    113.02819    480.65327   -74.358024    479.75214   -22994.069    268.15229 
   12050    48.754935    48.754935    48.754935   -17.250252    79.730172    175.66253   -72.992709   -46.271781   -58.488219    479.57836    -22989.88    264.17017 
   12100    48.754503    48.754503    48.754503    44.219559    27.379786    487.75894   -47.986644    100.89126    153.26553    479.93641   -22986.782    261.40479 
   12150     48.75467     48.75467     48.75467    58.764341   0.19193316     385.4962    138.88525    312.15184    37.215844    479.76123   -22987.411    262.80271 
   12200    48.755976    48.755976    48.755976   -35.661083   -109.92944    410.77431   -48.715904    281.08994    51.662091    479.67876   -22988.609    264.84227 
   12250     48.75573     48.75573     48.75573   -41.713061   -57.194007    95.754013   -15.544379    196.44311   -52.400797    479.83913   -22989.101    266.08262 
   12300    48.755088    48.755088    48.755088   -29.461158    -141.4674    87.074689   -41.427527   -71.585587    94.511456    479.71094   -22989.534     267.2564 
   12350    48.754639    48.754639    48.754639   -24.391849    50.665225    17.437583   -69.598229    250.92819   -54.242543    479.76276   -22990.017    268.48801 
   12400    48.755317    48.755317    48.755317    83.109776    28.208449     330.0806    169.03307    403.34768    52.087814    479.80538   -22986.108    264.78772 
   12450     48.75824     48.75824     48.75824   -151.63112   -114.82671    217.80924   -263.72472    188.99021   -76.341935    479.59339   -22989.343    269.08936 
   12500    48.756303    48.756303    48.756303    86.364124   -53.658056    426.25138    173.52809    485.80447    139.22234    479.75079   -22983.043    262.71008 
   12550    48.755384    48.755384    48.755384     47.20149   -33.218622    595.23028    40.754955    317.22681    134.06814    479.82334   -22987.421    268.28546 
   12600    48.756271    48.756271    48.756271    72.107985    36.362019    103.54917    15.311931    87.470913    164.65001    479.74318   -22985.053    266.30049 
   12650     48.75878     48.75878     48.75878   -135.51743   -273.73386    294.59331   -97.858055    104.14911   -34.960369    479.48163   -22986.084    268.11972 
   12700     48.75684     48.75684     48.75684   -8.0401115    5.3747519    258.26944   -36.707702   -24.737193    7.2126156    479.64517   -22987.266    270.10275 
   12750    48.755467    48.755467    48.755467    128.94427   -4.3300643    179.54607    129.85787    470.21656    261.30499    479.82034   -22985.009    268.23301 
   12800    48.759241    48.759241    48.759241   -157.33117   -314.10896    353.72599   -5.6334891    205.78369   -152.25105    479.41487   -22986.965    271.07488 
   12850    48.758807    48.758807    48.758807    22.232607    4.9592243    -119.1166     39.39387      111.031    22.344728    479.56021   -22982.591      266.827 
   12900    48.756879    48.756879    48.756879   -39.389439   -126.91023    181.73083    46.890503   -58.312693    -38.14859    479.59725   -22985.833    271.10454 
   12950    48.754675    48.754675    48.754675    240.20106    182.89176     415.4668    191.19933    258.29117    346.51209    479.82594   -22983.775    269.44335 
   13000    48.759975    48.759975    48.759975   -45.850702   -171.37726    441.52294    -49.96524    486.65865    83.790393    479.49359   -22982.205    268.31372 
   13050    48.763028    48.763028    48.763028   -217.22938   -167.66075   -97.531506   -253.90318    377.54395    -230.1242    479.24219   -22984.736    271.78527 
   13100    48.758045    48.758045    48.758045    61.178518   -60.898087    366.22472    144.16285    465.10715     100.2708    479.61173   -22984.171     271.7817 
   13150    48.756655    48.756655    48.756655    195.36177    201.32613    425.07281    181.43659    116.81068    203.32258    479.78578   -22982.896    270.98278 
   13200    48.761345    48.761345    48.761345    -164.0258    -221.8966   -81.260514   -186.08619     282.5935   -84.094621    479.41267   -22983.972    272.81083 
   13250    48.761982    48.761982    48.761982   -61.242059   -28.854596    444.53906   -67.987216    108.66298   -86.884365    479.23177   -22981.589     270.7621 
   13300    48.759655    48.759655    48.759655   -1.4175521   -44.946113    165.67965   -90.938303   -30.432698    131.63176    479.57926   -22983.637    273.67565 
   13350    48.757944    48.757944    48.757944    162.57413     107.2536     160.3741    187.56104    198.45405    192.90776     479.6528   -22980.665    270.95829 
   13400    48.761342    48.761342    48.761342   -86.225802   -73.489276    315.47427   -67.284445    439.80769   -117.90369    479.39889   -22984.301    275.63917 
   13450    48.762346    48.762346    48.762346   -2.6865727   -19.543899   -42.889661   -104.51874   -76.015416    116.00292    479.37333   -22978.795    270.07928 
   13500    48.760905    48.760905    48.760905     10.34466    4.1239291    233.62386   -33.166107    253.25921    60.076157      479.521   -22980.858    272.98865 
   13550    48.759646    48.759646    48.759646   -8.4226869   -190.55435    161.39637    73.340301   -47.236476    91.945987    479.60712   -22982.252    275.14676 
   13600    48.760721    48.760721    48.760721    119.45214    135.38204     124.8839    28.483799      270.707     194.4906     479.4992    -22979.09    272.20375 
   13650    48.763928    48.763928    48.763928   -171.96911    -182.5508    550.80016    -170.3028     87.55625   -163.05373    479.25762   -22982.126    276.19283 
   13700    48.762004    48.762004    48.762004    28.059002    32.135713    285.82202    28.502163   -159.67042    23.539129    479.33062   -22978.902    273.16931 
   13750    48.760335    48.760335    48.760335   -18.386718   -116.42034    99.104601    131.41475    339.02754   -70.154568    479.58938   -22982.917    278.25051 
   13800    48.760693    48.760693    48.760693    163.25154    207.04234    263.51528    115.87634    -70.47867    166.83593    479.57554   -22977.348    272.59241 
   13850    48.765377    48.765377    48.765377   -159.98305   -380.71631    68.638177   -17.111731   -17.807161    -82.12112     479.1492   -22979.504    275.58342 
   13900    48.763581    48.763581    48.763581    -69.92738    14.889693    194.86564    -172.2418     -60.7234   -52.430032    479.23267   -22977.816    274.26791 
   13950    48.759197    48.759197    48.759197    198.70994    37.528519     430.9096    328.13235    465.10867    230.46895     479.5671   -22979.066    276.23675 
   14000    48.762199    48.762199    48.762199    57.842898    228.91759    153.68765   -96.527768   -38.507601    41.138876    479.47246   -22977.405     274.9388 
   14050    48.766548    48.766548    48.766548   -157.31452   -213.74171    454.62015   -171.66311    564.02491   -86.538745     479.1316   -22978.063    276.24001 
   14100     48.76416     48.76416     48.76416   -14.757866   -65.012593    239.29357     21.05272    621.12688  -0.31372514    479.32832   -22976.829    275.41462 
   14150    48.760811    48.760811    48.760811    142.45332    158.04931    400.73862    146.95348    691.37965    122.35715    479.49768   -22978.382    277.71143 
   14200      48.7629      48.7629      48.7629    124.99481    114.48896    505.94813   0.96997579    3.2791165    259.52548    479.28505   -22975.801    275.37533 
   14250    48.767806    48.767806    48.767806   -156.03348   -270.14548    303.18011   -102.64382    528.64001   -95.311142    479.07653   -22976.084    276.24317 
   14300    48.764891    48.764891    48.764891   -83.870844    16.172737    163.42111   -252.10082    207.73137   -15.684453    479.25272   -22979.429    280.52993 
   14350    48.760782    48.760782    48.760782    126.37166    117.91295   -66.246767    191.67749    373.77339    69.524552    479.55815   -22976.043     277.2768 
   14400    48.763435    48.763435    48.763435     32.26501   -53.129426    331.07571    19.977592    571.13124    129.94687    479.23139   -22977.786    279.76772 
   14450    48.766879    48.766879    48.766879   -101.01194   -18.316901   -325.65759   -207.50302    199.30188   -77.215902    479.14331   -22975.686    277.94823 
   14500    48.765743    48.765743    48.765743    -102.2345   -181.29903    69.385399   -140.16424   -163.21396    14.759761    479.22193   -22977.524    280.53336 
   14550    48.762112    48.762112    48.762112    204.71246    157.31651    50.746316    228.12318    85.552289    228.69771     479.4749   -22974.319    277.47046 
   14600    48.764934    48.764934    48.764934   -13.868742   -16.919243    378.67218   -55.858868    259.51008    31.171885    479.18168   -22974.582    278.28552 
   14650    48.766874    48.766874    48.766874   -138.26091   -201.52928    91.642982   -123.75596   -17.226963   -89.497483    479.15126    -22978.21    282.86865 
   14700    48.765228    48.765228    48.765228    2.2428694   -59.107303    241.64222     126.3544    232.91696    -60.51849    479.18774   -22974.669    279.41249 
   14750    48.764422    48.764422    48.764422     133.6238    61.234006    442.17463    130.22901    458.95223    209.40838    479.18174   -22974.597    279.84703 
   14800    48.766691    48.766691    48.766691    -52.37333   -87.642658    216.20041    3.8478999    142.94199   -73.325232    479.17796   -22975.261    281.09609 
   14850    48.768624    48.768624    48.768624   -94.097786   -188.57613    173.46882   -154.03742    482.23893    60.320186     478.9855   -22974.729      281.004 
   14900    48.767952    48.767952    48.767952   -169.09061   -12.401599    344.27977   -315.26007    302.68155   -179.61016    478.99176   -22979.354    286.68404 
   14950    48.763957    48.763957    48.763957    264.78177    116.00404    128.30612    419.02135    347.05866    259.31993    479.41583   -22969.954     276.6566 
   15000     48.76812     48.76812     48.76812   -69.563632   -146.42762    394.23651   -1.4485486    394.23485   -60.814731    478.99416   -22975.552    283.41295 
   15050    48.770371    48.770371    48.770371   -202.81721    -238.8058    269.96019   -173.25952    651.96743    -196.3863    478.78007   -22975.546    283.90006 
   15100    48.765077    48.765077    48.765077    219.26329    124.20716    195.76947    286.49541    47.359416    247.08731    479.25996   -22969.076    277.13891 
   15150    48.765203    48.765203    48.765203    89.979409    97.932726   -211.03976    89.468962    374.94901    82.536538    479.35282   -22974.077    283.21575 
   15200    48.769176    48.769176    48.769176   -11.116562   -147.07871    14.059802    95.856917     327.2907    17.872103    479.11396   -22969.597    278.67239 
   15250    48.770168    48.770168    48.770168   -197.87391   -261.58835    241.52394   -119.04671    483.79223   -212.98666    478.78601   -22975.913     286.2165 
   15300    48.765832    48.765832    48.765832    137.10212    93.726871     374.8454      124.681    70.383793    192.89848    479.21441   -22971.705    281.97762 
   15350    48.766995    48.766995    48.766995     6.443881   -55.739438    53.861402    147.86747     548.0301   -72.796387    479.18124   -22973.776    284.76597 
   15400    48.769896    48.769896    48.769896   -67.261897    -44.00069     434.7278   -58.977529   -20.031812   -98.807472    478.86886   -22971.824     283.0424 
   15450    48.770795    48.770795    48.770795   -126.38169   -201.48345    237.80321   -80.596035    186.09997   -97.065595    478.99742   -22972.753    284.54165 
   15500    48.767554    48.767554    48.767554    122.55782    75.946429    48.298351    26.384059    327.79264    265.34297     479.0408    -22970.52    282.49901 
   15550     48.76755     48.76755     48.76755    47.068829    70.970946    86.098901    -25.80388    479.99176    96.039421    479.03502   -22970.324    282.73234 
   15600    48.769113    48.769113    48.769113   -49.601289   -314.94725    385.64454    57.258511    313.36629    108.88487    478.99228   -22974.324    287.66232 
   15650    48.769058    48.769058    48.769058    -43.72359    89.243634   -112.36004   -220.25087    119.97924  -0.16353643    479.02362   -22970.967    284.34385 
   15700    48.768495    48.768495    48.768495    2.3021315   -95.102662   -46.983108    16.894122     231.4589    85.114935    479.14316   -22971.124    284.96064 
   15750    48.768399    48.768399    48.768399   -18.710285   -33.143664    -273.3393   -19.413267   -80.850115   -3.5739237    479.03697   -22970.763    284.99022 
   15800    48.768731    48.768731    48.768731   -31.412138   -144.45047    150.10747   -34.749403   -166.88709    84.963458    479.03024   -22972.104    286.92276 
   15850    48.769502    48.769502    48.769502    3.7486121   -41.349074    325.91416    39.355076    309.80051    13.239835    478.94076   -22969.518    284.45851 
   15900    48.769642    48.769642    48.769642    14.011822    68.836626    448.87069   -149.20894    352.59011    122.40778    479.01277   -22969.592    284.97248 
   15950    48.768476    48.768476    48.768476    143.67193    68.512201     44.32461    240.91769    372.75081     121.5859    479.03532   -22966.433    281.85595 
   16000    48.770711    48.770711    48.770711   -119.64321   -145.99705   -19.353079   -247.33352      100.779    34.400933    478.89222   -22971.442    287.87973 
   16050    48.770224    48.770224    48.770224    -24.34395   -112.80802    385.88664   -72.384858    332.81606    112.16103     479.0507   -22968.303    284.77888 
   16100    48.769203    48.769203    48.769203    37.884755   -76.499963    405.74508    38.600755    81.510296    151.55347    479.10775   -22968.618    285.54692 
   16150    48.769506    48.769506    48.769506   -7.5073264   -49.229588    -36.07239   -34.779179    391.46331    61.486788    478.95065   -22971.255    288.91466 
   16200     48.76954     48.76954     48.76954    106.72676    52.095552    499.28415    154.82153    245.32472    113.26321    479.03112   -22965.667    283.06441 
   16250    48.770839    48.770839    48.770839   -46.942155   -99.265185    229.52762   -27.033685   -81.482432   -14.527594    479.03111   -22968.432    286.56378 
   16300    48.769598    48.769598    48.769598    51.473826    36.468482   -239.34193    17.254926   -31.896743    100.69807    479.04486   -22967.312    285.70569 
   16350    48.769767    48.769767    48.769767   -10.485094   -102.97529    359.88768    12.090414    420.08093    59.429597    479.02655   -22969.598    288.65876 
   16400    48.771513    48.771513    48.771513    14.100085    5.0567687   -175.25722   -73.721355    235.55194    110.96484    478.83883   -22967.935    287.18917 
   16450    48.772791    48.772791    48.772791   -161.78285   -286.15813    555.02748     -191.842    144.41971    -7.348407    478.80227   -22970.272    290.19341 
   16500    48.769935    48.769935    48.769935     50.79708    57.524056    238.60633    -43.56986     304.1275    138.43704     479.0733   -22968.088    288.13034 
   16550    48.770325    48.770325    48.770325    48.370882    110.69674    99.813591     10.33475    125.16562    24.081155    479.00034    -22969.72    290.34175 
   16600    48.772494    48.772494    48.772494   -56.351144   -165.86015     178.4607   -122.72793    23.623401    119.53465    478.86237    -22965.27    285.73506 
   16650    48.771516    48.771516    48.771516    34.733867    117.17692   -123.74176   -130.78469    187.92915    117.80937    478.95895   -22965.164     285.9911 
   16700    48.770054    48.770054    48.770054    73.462583   -172.22754    235.49149    72.546875   -36.954066    320.06842    478.90573   -22966.647     288.0253 
   16750    48.771386    48.771386    48.771386    89.752596    172.17182   -89.248905    -3.497828    606.69285    100.58379    478.86812   -22966.038     287.7127 
   16800     48.77536     48.77536     48.77536   -221.05233   -208.86471    404.27655   -309.85512      238.983   -144.43716     478.6292   -22969.232    291.65233 
   16850    48.772668    48.772668    48.772668    -35.76116    155.00979    520.85428   -109.85253    367.16713   -152.44074    478.77991   -22966.851    289.34783 
   16900    48.768658    48.768658    48.768658    115.68656     214.7652    779.86016    -89.14561    297.63597     221.4401    479.01751   -22968.944    292.04934 
   16950    48.770522    48.770522    48.770522    48.543687    145.96999   -140.27349    11.043448    540.53664   -11.382373    479.02806   -22966.147    289.26888 
   17000    48.774766    48.774766    48.774766   -241.56563   -208.85282    214.06946   -296.95441    634.32187   -218.88964    478.62127   -22968.443    292.18828 
   17050    48.772792    48.772792    48.772792    -7.912087   -50.838876    655.82722    121.03697    442.68297   -93.934352    478.85543   -22965.507    289.24588 
   17100    48.770222    48.770222    48.770222    114.97347    207.19208    280.52321    15.162155    207.31759    122.56618    479.14831   -22964.281    288.22336 
   17150    48.770872    48.770872    48.770872    125.26032    267.13285   -107.34644    5.1334063    280.50451    103.51469    479.04939   -22966.305    290.83248 
   17200    48.775459    48.775459    48.775459   -104.29051   -213.84706     9.535396   -131.37293   -221.14542    32.348461    478.81317   -22964.179     288.7879 
   17250    48.774854    48.774854    48.774854   -170.12729   -122.46793    274.82508   -146.67108    116.71817   -241.24288    478.63466   -22968.558    294.02779 
   17300    48.769485    48.769485    48.769485    192.50428    155.14489    334.08805    83.127771    21.181895    339.24018    479.12918   -22965.107    290.49348 
   17350    48.771943    48.771943    48.771943   -12.417448   -141.28018   -114.82052   -31.820242    266.01756    135.84807    478.88412   -22966.674    292.57586 
   17400    48.775006    48.775006    48.775006   -108.57596   -148.72601    133.89194    11.067915    -76.98289   -188.06978    478.76116   -22965.781    291.89716 
   17450    48.774527    48.774527    48.774527   -70.332829   -3.4412459    571.91086   -175.70196    401.01468   -31.855281    478.64376   -22965.836     292.2784 
   17500    48.772401    48.772401    48.772401    11.847967    14.303498    117.33266    73.446007   -151.25741   -52.205604    478.97312   -22964.627    291.24453 
   17550    48.771594    48.771594    48.771594    92.629131    97.108399    619.00085    69.921836    404.46922    110.85716    478.86557   -22965.502    292.53735 
   17600    48.774817    48.774817    48.774817   -77.755272   -28.913959    599.17952   -36.954793    692.47988   -167.39706    478.77806   -22964.159    291.34425 
   17650    48.775644    48.775644    48.775644   -51.265631   -85.020999    180.06641   -54.337326    180.75487    -14.43857    478.61611   -22963.452    290.86602 
   17700    48.773549    48.773549    48.773549    89.851615   0.80068109    576.45013    64.892954    134.56065    203.86121     478.8942   -22965.012    292.91844 
   17750    48.774525    48.774525    48.774525    42.323694    72.531736    576.57088    1.9285559    207.27684    52.510789    478.87311   -22962.952    290.91047 
   17800    48.776435    48.776435    48.776435   -142.06947   -254.36884    164.88305    -91.03256    337.32671      -80.807    478.53398   -22963.755     292.1093 
   17850    48.773069    48.773069    48.773069    55.922287    213.76152    141.63914   -59.482903    383.55292    13.488247    478.75645   -22967.317     296.3902 
   17900    48.772317    48.772317    48.772317    192.00618    242.19742   -21.637321    232.57988  -0.54326392    101.24124    478.99124   -22960.381    288.90669 
   17950    48.777517    48.777517    48.777517   -140.67799    -141.3108    506.92202   -207.07296    136.04327    -73.65021    478.68931       -22965    294.36554 
   18000    48.777654    48.777654    48.777654   -186.37819   -295.29987    274.06359   -105.78835    166.57787   -158.04634    478.44142   -22963.466    292.93023 
   18050     48.77227     48.77227     48.77227    247.88272    219.89368    49.575014    272.04798   -19.108189    251.70649    478.93481   -22961.391    290.89309 
   18100    48.774347    48.774347    48.774347   -15.201224   -93.307449    192.54102   -6.6478955    326.59223    54.351673    478.86155   -22964.337    294.46994 
   18150    48.777139    48.777139    48.777139   -73.796235    11.821877    195.62699     63.23753    108.01288   -296.44811    478.60267   -22962.564    292.76426 
   18200    48.776701    48.776701    48.776701   -39.502592   -209.24006    250.81353    58.541138    26.889757    32.191144    478.57219   -22961.328    291.65355 
   18250    48.774762    48.774762    48.774762    35.580832    150.27919    286.33325    129.82667    143.13746   -173.36336    478.78779   -22962.179    292.87866 
   18300    48.773484    48.773484    48.773484    142.61056    41.887725    13.610844    197.17707    545.53666     188.7669    478.88451   -22963.014    294.08328 
   18350    48.776829    48.776829    48.776829   -40.810631   -190.84381    423.21828   -9.6868418    237.25178    78.098753    478.71257   -22962.825    294.13315 
   18400    48.779687    48.779687    48.779687   -152.61164   -132.53672    314.49698   -84.018791    343.29507   -241.27942    478.40409   -22963.706    295.38248 
   18450    48.776444    48.776444    48.776444   -11.702118   -110.99632    895.15907    -57.82372    319.96269    133.71369    478.65562   -22962.038    293.77452 
   18500    48.772811    48.772811    48.772811     329.2691    551.26439    107.16923    280.97809    206.62166    155.56481    478.86662    -22959.58    291.27656 
   18550     48.77852     48.77852     48.77852   -165.34168   -401.97236   -260.91332   -65.753884    309.50562   -28.298792     478.5134   -22963.805    296.25641 
   18600    48.779455    48.779455    48.779455   -119.66699    -62.95623    313.81591   -207.93587    130.64242   -88.108882    478.48116   -22961.699    294.14643 
   18650    48.775328    48.775328    48.775328     82.13257   -83.635736    268.76737   -44.072132   -146.15334    374.10558    478.83315   -22961.514    294.18614 
   18700    48.775123    48.775123    48.775123    31.059662    59.708962    449.54379   -64.190274     448.9824    97.660299    478.72606   -22963.986    297.19847 
   18750    48.777788    48.777788    48.777788    77.769834   -11.373497    283.03067    55.108636    46.147993    189.57436    478.65888   -22956.724    289.30871 
   18800    48.779704    48.779704    48.779704   -131.79883    -194.0432    233.16786   -98.083582    17.961359    -103.2697    478.48157   -22962.486    295.99857 
   18850    48.776437    48.776437    48.776437    30.898465    181.96768    25.253994   -99.232545    155.91265    9.9602643    478.66354   -22961.134    294.71693 
   18900    48.776044    48.776044    48.776044    72.915046     112.1016     442.7141    2.4951607   -226.71076    104.14838    478.66241   -22962.391    296.35955 
   18950    48.778923    48.778923    48.778923   -25.669289    61.272216    169.42687   -180.87355   -268.81896    42.593465     478.5638   -22959.941    293.85082 
   19000    48.778454    48.778454    48.778454   -5.0976752   -46.430897    335.33407    51.585856    302.29488   -20.447985    478.56715   -22959.913     294.0482 
   19050    48.776582    48.776582    48.776582     7.288887    9.9035808    307.41066   -46.241175    443.53845    58.204255    478.55783   -22963.045    297.77852 
   19100    48.776516    48.776516    48.776516    69.256027   -133.26836    409.76709    233.84845    241.82893    107.18799    478.73661   -22960.934    295.63535 
   19150    48.779356    48.779356    48.779356    -54.83531    106.70285    337.31764   -246.82495    289.83216   -24.383828    478.50142   -22959.522    294.26972 
   19200    48.779472    48.779472    48.779472   -7.2523698   -34.879758    202.45809   -56.707929    499.72024    69.830577    478.40226    -22959.56    294.52893 
   19250    48.776523    48.776523    48.776523    7.3744575   0.12284448    594.79481    92.576646    464.42411   -70.576118    478.67747   -22961.929    297.38938 
   19300    48.775781    48.775781    48.775781    65.152796    48.619541   -269.82824    125.44796    310.58918    21.390887    478.66878    -22960.44    295.92826 
   19350    48.778536    48.778536    48.778536     22.96611   -29.488866    207.50037    123.65785   -15.088227   -25.270648    478.41382   -22960.906    296.65566 
   19400    48.780622    48.780622    48.780622   -181.21668   -102.32376    458.63548   -221.50197    314.59149    -219.8243    478.50015   -22958.186    293.81098 
   19450    48.776649    48.776649    48.776649    68.345401   -12.116937    592.46971    117.96894    317.46076    99.184206    478.59401   -22961.113    297.28712 
   19500    48.775419    48.775419    48.775419    175.10829    177.57473    228.80955    179.37583   -236.51175    168.37431    478.71671   -22959.862      296.084 
   19550    48.780618    48.780618    48.780618   -98.837073   -117.66137    87.520645   -227.21237    358.30825    48.362521    478.24101   -22960.686    297.20132 
   19600    48.781354    48.781354    48.781354   -101.55272   -119.44971    53.175691   -143.22015    197.71453   -41.988307    478.24166   -22958.161    294.56577 
   19650    48.776121    48.776121    48.776121    80.937737    91.982439    235.38617    49.895176     288.3367     100.9356    478.64999   -22959.629    296.39582 
   19700    48.774402    48.774402    48.774402    133.82943   -3.8631968    388.94984    126.30256    338.91949    279.04892    478.74356   -22961.814    299.02758 
   19750    48.780056    48.780056    48.780056   -27.018332    95.305962    745.58662   -122.13579    80.771493   -54.225165    478.43706   -22960.808    298.07596 
   19800     48.78383     48.78383     48.78383   -264.13221   -325.99302    165.03012    -309.3478     31.81176   -157.05582    478.07581   -22960.709     298.1407 
   19850    48.777495    48.777495    48.777495    80.851959    41.066062    649.75395    166.19623    273.15294    35.293584    478.54976   -22957.551    294.77138 
   19900    48.774248    48.774248    48.774248    176.87192    217.24233    322.33603    26.565723    660.38689     286.8077    478.73053   -22961.153    298.97759 
   19950    48.779544    48.779544    48.779544  -0.83747837   -105.76191    251.58107    20.190231    177.15763    83.059239    478.50282   -22958.146    295.77962 
   20000    48.782905    48.782905    48.782905    -132.5963   -120.90582    70.716168   -241.03413    170.71728   -35.848933    478.35335   -22956.783    294.42241 
Loop time of 1480.35 on 4 procs for 20000 steps with 6912 atoms

Pair  time (%) = 1384.36 (93.5161)
Neigh time (%) = 0 (0)
Comm  time (%) = 67.894 (4.58635)
Outpt time (%) = 0.629659 (0.0425345)
Other time (%) = 27.4606 (1.85501)

Nlocal:    1728 ave 1728 max 1728 min
Histogram: 4 0 0 0 0 0 0 0 0 0
Nghost:    5549 ave 5549 max 5549 min
Histogram: 4 0 0 0 0 0 0 0 0 0
Neighs:    120960 ave 124780 max 117085 min
Histogram: 1 0 1 0 0 0 0 1 0 1
FullNghs:  0 ave 0 max 0 min
Histogram: 4 0 0 0 0 0 0 0 0 0

Total # of neighbors = 483840
Ave neighs/atom = 70
Neighbor list builds = 0
Dangerous builds = 0
# run 	200000

# Use this if debug
# run 	1000
# run 200
unfix 1

# Store final cell length for strain calculations
variable tmp equal "lx"
variable L0 equal ${tmp}
variable L0 equal 48.782905480623
print "Initial Length, L0: ${L0}"
Initial Length, L0: 48.782905480623

######################################
# DEFORMATION
reset_timestep	0
set atom * xrad 0 yrad 0 zrad 0 vxrad 0 vyrad 0 vzrad 0
  6912 settings made for xrad
  6912 settings made for yrad
  6912 settings made for zrad
  6912 settings made for vxrad
  6912 settings made for vyrad
  6912 settings made for vzrad
fix		1 all npt temp 300 300 1 y 0 0 1 z 0 0 1 drag 1

variable srate equal 1.0e10
# variable srate equal 1.0e9 # tiny time step

variable srate1 equal "v_srate / 1.0e12"
fix		2 all deform 1 x erate ${srate1} units box remap x
fix		2 all deform 1 x erate 0.01 units box remap x

# Output strain and stress info to file
# for units metal, pressure is in [bars] = 100 [kPa] = 1/10000 [GPa]
# p2, p3, p4 are in GPa
variable strain equal "(lx - v_L0)/v_L0"
variable p1 equal "v_strain"
variable p2 equal "-pxx/10000"
variable p3 equal "-pyy/10000"
variable p4 equal "-pzz/10000"

# fix def1 all print 100 "${p1} ${p2} ${p3} ${p4}" file Al99.eam_rad.alloy.def1.txt screen no
# IMPLEMENTATION HERE
variable p5 equal "-pxxrad/10000"

# VERSION add rad variables
variable p6 equal "-pyyrad/10000"
variable p7 equal "-pzzrad/10000"

# VERSION ublb coupled/decoupled scheme
# variable p6 equal "-pxxub/10000"
# variable p7 equal "-pxxlb/10000"

fix def1 all print 20 "${p1} ${p2} ${p3} ${p4} ${p5} ${p6} ${p7}" file Al99.eam_rad.alloy.def1.txt screen no

# Use cfg for AtomEye
# dump 		1 all cfg 250 dump.tensile_*.cfg mass type xs ys zs c_csym c_peratom fx fy fz
# dump_modify 1 element Al

# print output to a text file every n timesteps
# dump		2 all custom 50 dump.xyz_rvf_rad.tensile_*.txt mass type id x y z vx vy vz fx fy fz xrad yrad zrad vxrad vyrad vzrad fxrad fyrad fzrad # use for rad developement
# dump		2 all custom 50 dump.xyz_rvf_rad.tensile_*.txt mass type id x y z vx vy vz fx fy fz xrad yrad zrad vxrad vyrad vzrad fxrad fyrad fzrad xub yub zub vxub vyub vzub fxub fyub fzub xlb ylb zlb vxlb vylb vzlb fxlb fylb fzlb # use for ublb developement

# Display thermo
thermo 	50
# thermo 1
# thermo_style	custom step v_strain temp v_p2 v_p3 v_p4 ke pe press

# IMPLEMENTATION HERE
thermo_style	custom step v_strain temp v_p2 v_p3 v_p4 v_p5 v_p6 v_p7 ke pe press
run	20000
Memory usage per processor = 5.71889 Mbytes
Step strain Temp p2 p3 p4 p5 p6 p7 KinEng PotEng Press 
       0 -4.3696213e-16    294.42241  0.012090582  0.024103413 0.0035848933 -0.023908529 -0.023908623          nan    263.01251   -22956.783    -132.5963 
      50       0.0005    295.33576  0.078089519  0.026289372  0.014579731  -0.01579267 -0.081611168          nan    263.82841   -22957.494   -396.52874 
     100        0.001    300.19273  0.079307839 -0.0060134967  0.014027974 -0.023895141 -0.023902906          nan    268.16722   -22961.701   -291.07439 
     150       0.0015    296.64056  0.081284654 -0.013273406 0.00014421154 -0.0068934784 -0.041822432          nan    264.99402   -22958.382   -227.18487 
     200        0.002    300.31323   0.14122088 -0.014259365 -0.018619634 -0.023884477 -0.023910788          nan    268.27488   -22961.489   -361.13961 
     250       0.0025    294.53422   0.18527318  0.018278998 -0.00065450614 -0.012800407 -0.025430549          nan    263.11239   -22956.132   -676.32556 
     300        0.003    295.92217   0.21972622  0.020581645  0.024873053 -0.023841679 -0.023865038          nan    264.35226   -22957.154   -883.93639 
     350       0.0035     297.4606    0.2319061 -0.0057615724 -0.0057608541 -0.042962649 -0.036503177          nan    265.72657   -22958.302   -734.61225 
     400        0.004    295.16568   0.23443856 -0.022615856 -0.016421359 -0.023855988 -0.023890276          nan    263.67648   -22956.005   -651.33781 
     450       0.0045    297.57972   0.30737003  -0.01802179 -0.0023253027    0.0118312 -0.012772351          nan    265.83298   -22957.903   -956.74314 
     500        0.005    300.86619   0.33573859  0.023443792  0.030422666   -0.0238131 -0.023858082          nan    268.76884   -22960.563   -1298.6835 
     550       0.0055    298.29979   0.37735503 0.0093063668  0.024078021 -0.013025335 -0.023330578          nan    266.47623    -22957.98   -1369.1314 
     600        0.006    297.46425   0.38752585 0.0063780934 -0.020931922 -0.023808206 -0.023853144          nan    265.72983    -22956.92   -1243.2401 
     650       0.0065    295.79509   0.41561707 -0.0047353192 -0.024490109 -0.0030412253 -0.012821591          nan    264.23874     -22955.1   -1287.9721 
     700        0.007    297.24252   0.44311835 0.0017731224 -0.011871961 -0.023788299 -0.023847162          nan    265.53176   -22956.057   -1443.3984 
     750       0.0075    300.97052   0.49970933  0.035927835  0.019644639 -0.057223667 -0.045137198          nan    268.86204   -22959.028   -1850.9394 
     800        0.008    294.34279   0.51320319 -0.012319015 0.0085432455 -0.023777175 -0.023825143          nan    262.94138   -22952.745   -1698.0914 
     850       0.0085    297.08985   0.55047897 -0.010955113 -0.015489729 -0.0032749354 -0.025298113          nan    265.39537   -22954.811   -1746.7804 
     900        0.009    298.21644   0.59149926  -0.02104811 0.0091122583 -0.023750454 -0.023813924          nan    266.40177   -22955.414    -1931.878 
     950       0.0095     297.4322   0.62915472  0.027583383  0.018692431 0.0023921566 -0.016795618          nan     265.7012   -22954.298   -2251.4351 
    1000         0.01    297.49266   0.66665883 -0.0072261886  0.024564068 -0.023731771 -0.023795138          nan    265.75521   -22953.929    -2279.989 
    1050       0.0105    296.25608   0.66837981 0.0029688931 -0.017643121 -0.057363497 -0.027769598          nan    264.65055   -22952.383   -2179.0186 
    1100        0.011     298.6668   0.70132904 -0.0022158583 -0.0083765424 -0.023725557 -0.023801717          nan    266.80408   -22954.081   -2302.4555 
    1150       0.0115    296.66819   0.74821784 0.0075799998 -0.026965735 -0.063196568 -0.0037199545          nan     265.0187   -22951.839   -2429.4403 
    1200        0.012    298.03769   0.79875889 0.0037700197  0.023461974 -0.023695036 -0.023769409          nan     266.2421   -22952.587    -2753.303 
    1250       0.0125    300.10342    0.8144265 0.0064063072  0.032395052 -0.026661603   0.02793093          nan    268.08745   -22953.947   -2844.0929 
    1300        0.013    300.11928   0.84626798 0.0036983382 -0.0099357726  -0.02369154 -0.023765552          nan    268.10162   -22953.463   -2800.1018 
    1350       0.0135    301.20106   0.86205453 -0.0050040613 0.0081398855 -0.072463123 -0.038540029          nan    269.06799   -22953.921   -2883.9679 
    1400        0.014    296.88312   0.92575336 0.0021857943 -0.0054823402 -0.023668317 -0.023747794          nan     265.2107   -22949.541   -3074.8561 
    1450       0.0145    299.01579    0.9409577  0.012525796  0.028414975 -0.032894978 -0.0077459864          nan    267.11584   -22950.916   -3272.9949 
    1500        0.015    297.58973   0.96649204 -0.0020404599 0.0017535111 -0.023661981 -0.023753322          nan    265.84193   -22949.105   -3220.6836 
    1550       0.0155    301.44548   0.99420002 -0.020364834  0.020425795  0.035088445 -0.013664208          nan    269.28633   -22951.997   -3314.2033 
    1600        0.016    298.08266    1.0265851  0.018207081 -0.023699798 -0.023641387  -0.02373459          nan    266.28226   -22948.432   -3403.6414 
    1650       0.0165    299.08517    1.0927887  0.016448132   0.02476324 -0.018836089 -0.029911913          nan    267.17782   -22948.749   -3780.0001 
    1700        0.017     294.3183    1.0849322  0.017094225 -0.016503827 -0.023628296 -0.023722642          nan     262.9195   -22943.911   -3618.4087 
    1750       0.0175    300.01199    1.1196112 -0.0078083748 -0.011369546 -0.024212285  0.012325776          nan    268.00577   -22948.404   -3668.1108 
    1800        0.018    295.63528    1.1332693 -0.00082817483 -0.016117438 -0.023618472 -0.023716559          nan    264.09598   -22943.899    -3721.079 
    1850       0.0185    302.05272    1.2138533 -0.0083498532 0.0073757415  0.032498442  0.010708992          nan    269.82879   -22949.018   -4042.9305 
    1900        0.019    297.28359    1.2225608 -0.0022412515  0.026355956 -0.023599274 -0.023698178          nan    265.56845   -22944.134   -4155.5849 
    1950       0.0195    297.46472    1.2715496 -0.0025257135  0.026675865 -0.025381964 -0.021784351          nan    265.73025   -22943.665   -4318.9993 
    2000         0.02    299.24477    1.2753475 0.0024742404 -0.0015624753 -0.023592507 -0.023691762          nan     267.3204   -22944.612   -4254.1974 
    2050       0.0205    298.42048    1.3167482 -0.013839989 -0.027935528  0.019580747  -0.04114355          nan    266.58404   -22943.222   -4249.9091 
    2100        0.021    296.18991    1.3511535 0.0081329827 -0.019187499 -0.023567792  -0.02367663          nan    264.59144   -22940.567   -4466.9967 
    2150       0.0215    300.40674    1.4036719  0.030961518  0.021799312 0.0037043568  -0.02958159          nan    268.35841   -22943.655   -4854.7756 
    2200        0.022    296.68443    1.4217363 0.0021040985 0.0032496512 -0.023550645 -0.023657432          nan     265.0332   -22939.651   -4756.9668 
    2250       0.0225    295.78536    1.4272522 -0.0087129819 -0.012842636 -0.042284574 -0.0046126533          nan    264.23005   -22938.162   -4685.6551 
    2300        0.023    298.28169    1.4737972 -0.028912289 -0.0090624085 -0.023550032 -0.023660415          nan    266.46007   -22939.683   -4786.0748 
    2350       0.0235    298.20585    1.5067833 -0.013924467  0.032712686 -0.057090065  0.020437745          nan    266.39232   -22938.904   -5085.2384 
    2400        0.024    301.97864    1.5513312 0.0019924445  0.010352486 -0.023529077 -0.023638404          nan    269.76261   -22941.556   -5212.2539 
    2450       0.0245    299.84064    1.5767893  0.011008771 0.0092582246   0.01498194 -0.041312806          nan     267.8527   -22938.915   -5323.5211 
    2500        0.025    302.44067    1.5945245   0.02630236 -0.015743401 -0.023524124 -0.023630507          nan    270.17535   -22940.496   -5350.2781 
    2550       0.0255    294.20809    1.6283368 -0.020066621 -0.019287241 -0.030175234 -0.019788842          nan    262.82105   -22932.392   -5296.6097 
    2600        0.026    301.05513     1.684284  0.021245501 0.0063255091 -0.023493788 -0.023604984          nan    268.93763   -22937.742   -5706.1833 
    2650       0.0265    298.40883    1.7041091 0.0068520582 0.0058606626 0.0020021418 -0.042088043          nan    266.57364   -22934.605   -5722.7395 
[...]
   13800        0.138    288.75226    7.6826753  0.026910678  0.028673142 -0.021625897 -0.022089226          nan    257.94726    -22505.39   -25794.197 
   13850       0.1385    292.52418    7.7141569  0.018490275 -0.024841704 -0.050612442 -0.036121589          nan    261.31678   -22505.862   -25692.685 
   13900        0.139    293.30152    7.6781311 -0.010780338 -0.047368452 -0.021639551  -0.02211847          nan     262.0112   -22503.637   -25399.941 
   13950       0.1395     291.9536     7.711752  0.012193307 -0.011030103 -0.039931864   -0.0312031          nan    260.80707   -22499.536   -25709.717 
   14000         0.14     291.4108    7.7690803    0.0218621  0.056092387 -0.021586138 -0.022061578          nan    260.32218   -22496.121   -26156.783 
   14050       0.1405    295.28589     7.823112  0.025723195  0.022614282  0.021409007 -0.025428831          nan    263.78387   -22496.653   -26238.165 
   14100        0.141    293.23286    7.7798242 -0.026811373 -0.055683363 -0.021609875 -0.022085565          nan    261.94986    -22491.87   -25657.765 
   14150       0.1415    288.62122    7.7819928 -0.050466451 -0.042912123 -0.014332885  -0.05361163          nan     257.8302   -22484.822   -25628.714 
   14200        0.142     290.6879    7.8638476  0.050267189  0.023499378  -0.02153577 -0.022016484          nan     259.6764   -22483.724   -26458.714 
   14250       0.1425     290.7588    7.8974955  0.039524747  0.044864766 -0.015789987 -0.010814096          nan    259.73974   -22480.819   -26606.283 
   14300        0.143    290.49929    7.8643036 -0.017125579 -0.010667569 -0.021526579 -0.022033623          nan    259.50791   -22477.629   -26121.702 
   14350       0.1435     291.6346    7.8823146 -0.020504342 -0.059263446 -0.072208713  -0.03884929          nan     260.5221   -22475.661   -26008.489 
   14400        0.144    292.96853    7.9276076 -0.017755623 0.0061107435  -0.02151047 -0.022012014          nan    261.71373   -22473.879   -26386.542 
   14450       0.1445    293.90158    7.9492826  0.039718238  0.057504335 -0.015540691 -0.034117322          nan    262.54724   -22471.724   -26821.684 
   14500        0.145    290.66347    7.9371476  0.026290807  0.036956844 -0.021463999  -0.02196307          nan    259.65457    -22465.84   -26667.984 
   14550       0.1455    286.41374    7.8929189 -0.044381796  -0.06510265 -0.011505679 0.0098158624          nan    255.85822   -22459.057   -25944.782 
   14600        0.146     289.6108    7.9534965 -0.048063016 -0.00065363401 -0.021469645 -0.021963372          nan    258.71421   -22458.917   -26349.266 
   14650       0.1465    288.93004    7.9886411 -0.0023973253   0.03717726 -0.043998938 -0.00053325485          nan    258.10608   -22455.298   -26744.737 
   14700        0.147    292.35925            8  0.036231541  0.049656302 -0.021409985 -0.021908309          nan    261.16945   -22455.349   -26952.959 
   14750       0.1475    289.10093    7.9590408 -0.013898297 -0.0077400069 0.00085642997 0.0070729633          nan    258.25874   -22449.435   -26458.008 
   14800        0.148    286.50514    7.9379335 -0.055245835 -0.022473319 -0.021424643 -0.021931306          nan    255.93987   -22444.108   -26200.715 
   14850       0.1485    290.30468    7.9880813 0.0082192861 -0.010271872  0.004831871 -0.0081455633          nan    259.33407   -22444.483   -26620.096 
   14900        0.149    289.76187    7.9823206  0.028590785 0.0018129954 -0.021370071 -0.021870309          nan    258.84916   -22440.975   -26709.081 
   14950       0.1495    287.02215    7.9569833  0.025679307 -0.011448932 0.0074832162 -0.012048994          nan    256.40172    -22435.51   -26570.712 
   15000         0.15    286.64011    7.8998013 -0.0014300613 -0.040457421 -0.021368103 -0.021856153          nan    256.06044    -22432.16   -26193.046 
   15050       0.1505    287.12861     7.853488 -0.012862347 -0.010203755  -0.04541699 -0.044796171          nan    256.49683   -22429.608   -26101.406 
   15100        0.151    290.73093    7.8277531  0.016412554   0.03045508 -0.021325004 -0.021817314          nan    259.71484   -22429.848   -26248.736 
   15150       0.1515    297.47807    7.7498197  0.046617728 -0.016075336 -0.031531355 -0.0017630931          nan    265.74218   -22432.931    -25934.54 
   15200        0.152    298.05194    7.5657749 -0.010824981 -0.038100858 -0.021349588 -0.021832644          nan    266.25483   -22430.556   -25056.164 
   15250       0.1525    299.54449    7.3938292 -0.025285874 0.0017161319 -0.028735545 -0.034585913          nan    267.58815   -22429.071   -24567.532 
   15300        0.153    300.98747    7.1601028  0.047057515  0.028303791 -0.021287678  -0.02175583          nan    268.87718   -22427.628   -24118.214 
   15350       0.1535    310.39201     6.888042  0.063536847  0.061977152 -0.028466085   -0.0334785          nan    277.27841   -22433.439    -23378.52 
   15400        0.154    314.67146    6.4979756 -0.012496204 -0.056318759 -0.021331598 -0.021778354          nan    281.10132   -22434.844   -21430.536 
   15450       0.1545    327.24075     6.106468 -0.018855626 -0.049710048 -0.0058476955 -0.023484404          nan    292.32968   -22443.858   -20126.341 
   15500        0.155    334.59841    5.6925948  0.010586238 0.00070186307 -0.021341662 -0.021762974          nan     298.9024   -22448.491   -19012.943 
   15550       0.1555    349.31948    5.2244488  0.072064551  0.031236145 -0.044121176 -0.029406897          nan    312.05298   -22460.039   -17759.165 
   15600        0.156     355.3336    4.7600565  0.044606313 -0.0016305111 -0.021367562 -0.021760052          nan     317.4255   -22464.197   -16010.108 
   15650       0.1565    363.47722    4.2966342 -0.002745487 -0.070271172  0.037945177  0.015167013          nan    324.70033   -22470.653   -14078.725 
   15700        0.157    368.61477    3.8993044  0.013338811 -0.016097132 -0.021459237 -0.021811545          nan    329.28979   -22474.771   -12988.487 
   15750       0.1575    369.41292    3.5104797  0.015809887  0.068616328 -0.024592727 -0.024148129          nan    330.00279   -22475.308    -11983.02 
   15800        0.158    375.30828    3.1087533  0.023732088  0.074296379 -0.021548064 -0.021850637          nan    335.26922    -22480.67   -10689.273 
   15850       0.1585    377.76992     2.714652 -0.078490557   0.03643966   -0.0154791 -0.002583823          nan    337.46824   -22483.165   -8908.6704 
   15900        0.159    376.48192    2.5219164  -0.13185484 -0.010023048 -0.021708669  -0.02196933          nan    336.31765   -22482.355   -7933.4618 
   15950       0.1595    380.93366    2.4002567   0.04042512  0.014181532 -0.047587834 -0.019849198          nan    340.29447   -22486.734   -8182.8778 
   16000         0.16    375.42356    2.2150486   0.11495709  0.028577692 -0.021727337 -0.021918189          nan     335.3722   -22482.226   -7861.9445 
   16050       0.1605    384.21577    2.0661152  0.025885535 -0.0010954844 -0.059523124 0.0024816574          nan    343.22643   -22490.605   -6969.6841 
   16100        0.161    382.06102    1.8941556 -0.029935343 -0.081797895 -0.021860695 -0.022041698          nan    341.30155   -22489.203    -5941.408 
   16150       0.1615    384.10512    1.8174558  0.026064013 -0.0099060132 -0.038142433  -0.04979421          nan    343.12758   -22491.672   -6112.0459 
   16200        0.162    384.47271    1.7367083  0.037526137  0.045268797 -0.021894352 -0.022045953          nan    343.45595   -22492.749   -6065.0107 
   16250       0.1625    385.04187    1.6995017 -0.023643905  0.010577643 -0.010144185 -0.037439248          nan    343.96439   -22494.064   -5621.4516 
   16300        0.163    388.14448    1.6993474 -0.079658137 -0.0038421661 -0.021963343 -0.022131638          nan    346.73601    -22497.67    -5386.157 
   16350       0.1635    391.99377    1.7149367 0.0041808273 -0.034294332  -0.01177331 -0.015002317          nan    350.17464   -22502.001   -5616.0775 
   16400        0.164    395.09251    1.6855153  0.073030563  0.068483477 -0.021935194 -0.022104689          nan    352.94281   -22505.711   -6090.0979 
   16450       0.1645    389.52753    1.6229367 -0.026757925 -0.0033455374 0.0063039663  -0.08766158          nan    347.97151   -22501.733   -5309.4441 
   16500        0.165    392.07354    1.5645568 -0.057103367  0.025753812 -0.021997186 -0.022165618          nan     350.2459   -22505.017    -5110.691 
   16550       0.1655    394.46555    1.6218289 -0.027663951 0.0043644653 -0.00016012647 -0.0043302282          nan    352.38273    -22508.17   -5328.4315 
   16600        0.166    392.60842    1.6927813 -0.022761615   0.02122733 -0.021981188 -0.022147925          nan    350.72373   -22507.523   -5637.4901 
   16650       0.1665    395.53237    1.8055204  0.051080321  0.034375335 -0.024252476 -0.023118139          nan    353.33574   -22511.128   -6303.2535 
   16700        0.167      395.153    1.7707006  0.048984847  0.022584508 -0.021989699 -0.022153188          nan    352.99684   -22511.796   -6140.8999 
   16750       0.1675    396.17518    1.7054824 -0.039500866 -0.024085014 -0.026762125 -0.0076291457          nan    353.90997   -22513.727   -5472.9883 
   16800        0.168    389.67323    1.6989832   -0.0849006 -0.056388829 -0.022036195 -0.022207684          nan    348.10167   -22508.929   -5192.3127 
   16850       0.1685    397.34189    1.7582293 -0.00029760606  0.093829854 -0.0024417422 -0.069089314          nan    354.95221   -22516.844   -6172.5386 
   16900        0.169    391.89852    1.8392689  0.021581336  0.037471997 -0.021980541 -0.022154614          nan    350.08956    -22513.07   -6327.7406 
   16950       0.1695     396.1292    1.7995122 -0.032150481 0.0044032173 -0.080108347 -0.029047714          nan     353.8689   -22517.915   -5905.8831 
   17000         0.17    400.59785    1.7555823  0.022742241  -0.02380874 -0.022011561 -0.022185499          nan    357.86082   -22522.965   -5848.3859 
   17050       0.1705    398.90313    1.7254575  0.038777737 -0.034720387 -0.006537924 -0.031716793          nan    356.34689   -22522.526   -5765.0495 
   17100        0.171    398.76299    1.7279209 -0.021446827 0.0032208425 -0.022030089 -0.022200612          nan     356.2217   -22523.504    -5698.983 
   17150       0.1715    398.13241    1.6687542  0.027875407   0.03073286 -0.0062775182 -0.022594184          nan    355.65839   -22524.069   -5757.8747 
   17200        0.172    394.43559    1.6565309 -0.017436251  0.024942964 -0.022043725 -0.022198643          nan    352.35596   -22521.901   -5546.7922 
   17250       0.1725    402.09926    1.6763526 -0.019804257  0.049306872 0.0076047148 -0.0080456631          nan    359.20205   -22529.896   -5686.1841 
   17300        0.173    398.26906    1.5680766 -0.029838546  0.029934548 -0.022093538 -0.022230415          nan    355.78046   -22527.627    -5227.242 
   17350       0.1735    394.90819    1.5142694 -0.062088489  0.020855484 -0.067146435  -0.02957462          nan    352.77814   -22525.859   -4910.1212 
   17400        0.174    401.52169    1.5337286  0.043584562 -0.029430199 -0.022099325 -0.022247227          nan    358.68609   -22532.963     -5159.61 
   17450       0.1745    406.97001    1.5486535  0.058863393 -0.0085530688 -0.085916309 -0.035486317          nan    363.55318   -22538.988   -5329.8794 
   17500        0.175    397.84795     1.533348  0.020708208  0.022944204 -0.022119332 -0.022230035          nan    355.40428   -22532.054   -5256.6681 
   17550       0.1755     399.2178    1.4876212  0.044015129 -0.024268781  -0.02304806  0.012829984          nan      356.628   -22534.492   -5024.5585 
   17600        0.176    403.36423    1.4685605  0.024656215 -0.0090536755 -0.022156526 -0.022287694          nan    360.33207   -22539.409   -4947.2101 
   17650       0.1765    398.42297    1.4521946 -0.063278589 -0.036599979 0.0090305902 -0.0065379532          nan    355.91796   -22536.232   -4507.7202 
   17700        0.177    398.86731    1.4943303  0.013047831  0.016907347 -0.022132195 -0.022267738          nan     356.3149   -22537.855   -5080.9515 
   17750       0.1775    401.68618    1.4913261  0.067798979   0.10237101 -0.0098587502 -0.079417971          nan    358.83303   -22541.609   -5538.3203 
   17800        0.178    395.81289    1.4569681 -0.0082520029 -0.024561112  -0.02217095 -0.022298282          nan    353.58633    -22537.63   -4747.1834 
   17850       0.1785    395.67966    1.3873598 -0.013466828  -0.10108806 -0.022241032 -0.031586234          nan    353.46731   -22538.726   -4242.6831 
   17900        0.179    395.62514    1.4386352 -0.027731464 -0.014570421 -0.022185575 -0.022325373          nan    353.41861   -22539.912   -4654.4442 
   17950       0.1795    394.54812    1.4948823  0.048411908  0.069021338 -0.0083949496 -0.0077173298          nan    352.45649   -22540.152   -5374.3852 
   18000         0.18    399.22127    1.4866673  0.027718992   0.01757213 -0.022155261  -0.02229648          nan    356.63109   -22545.551    -5106.528 
   18050       0.1805    397.58542    1.4074578 -0.048225123 0.0081853242 -0.042961225  0.021026186          nan    355.16976   -22545.297   -4558.0601 
   18100        0.181    394.33455    1.3830889 -0.026886787 -0.0069466518 -0.022217623 -0.022328805          nan     352.2657   -22543.614   -4497.5184 
   18150       0.1815    398.37842    1.3981841    0.0327587 0.0067723351 -0.026418965 -0.048289675          nan    355.87816   -22548.449   -4792.3837 
   18200        0.182    392.51968    1.4399454 0.0081682388 -0.068047851 -0.022197873 -0.022332618          nan    350.64445   -22544.435   -4600.2193 
   18250       0.1825     398.6401     1.458477  0.047919526  0.028171495 -0.006060423 -0.027534314          nan    356.11192   -22551.103   -5115.2268 
   18300        0.183    391.01128    1.4553953  -0.02796104  0.054949077 -0.022192246 -0.022321811          nan    349.29697   -22545.481   -4941.2778 
   18350       0.1835    393.66159     1.439493 -0.047413482 0.0017328556 -0.010643478 -0.009211122          nan    351.66453   -22549.009   -4646.0414 
   18400        0.184    388.95954      1.39404 -0.019367082 0.0070084999 -0.022219166 -0.022339283          nan    347.46411    -22545.99   -4605.6047 
   18450       0.1845    391.57713    1.4318708 -0.0034201163 0.0033009616 -0.030853815 -0.045616422          nan    349.80246   -22549.503   -4772.5056 
   18500        0.185    389.44709    1.3953486   0.03650524 -0.024219432 -0.022205768 -0.022337893          nan    347.89965   -22548.761   -4692.1146 
   18550       0.1855    393.81558    1.4031904  0.022439323 -0.0032283624 -0.030815362 -0.030734195          nan    351.80209    -22553.84    -4741.338 
   18600        0.186    392.42886    1.3986356 -0.0040093531  0.013567801 -0.022226596 -0.022354072          nan    350.56332   -22553.775     -4693.98 
   18650       0.1865    394.20238    1.3629492 -0.039317944 -0.0027711603 -0.014765702 -0.048570964          nan    352.14763    -22556.54   -4402.8669 
   18700        0.187    387.24341    1.4240971 -0.017168752 -0.023385227 -0.022213309 -0.022358954          nan    345.93107   -22551.494   -4611.8105 
   18750       0.1875    394.93958    1.5097344  0.013494518  0.061687038 -0.075500396 -0.038057268          nan    352.80618    -22559.51   -5283.0531 
   18800        0.188     393.3827    1.4978211  0.034726502  0.045367404 -0.022201361 -0.022333043          nan     351.4154   -22559.287   -5259.7165 
   18850       0.1885     392.8799    1.4256763 -0.027676304 0.0046474514 -0.001050272 -0.049356807          nan    350.96624    -22560.02   -4675.4915 
   18900        0.189     393.3354    1.3555611  0.013657044 -0.062259619 -0.022277322 -0.022400517          nan    351.37314   -22561.579   -4356.5283 
   18950       0.1895    391.40318    1.3685601 -0.023391762 -0.015021984 -0.027030107 -0.011061549          nan    349.64706    -22561.03   -4433.8213 
   19000         0.19    395.24929    1.3664655  0.024363821  0.021590514  -0.02227793 -0.022378684          nan    353.08285    -22565.66    -4708.066 
   19050       0.1905    386.67635    1.3173922  0.041574728  0.018483682 -0.024527689 -0.0026847374          nan    345.42451   -22559.201    -4591.502 
   19100        0.191    393.58212    1.2799425 -0.0080193603 -0.053990483 -0.022312514 -0.022407339          nan    351.59354   -22566.572   -4059.7756 
   19150       0.1915    393.53923    1.2405492 -0.040479773 -0.0099716341 -0.027712953  -0.02234645          nan    351.55523   -22567.734   -3966.9928 
   19200        0.192    392.30508    1.2554616 -0.024221646  0.035639307 -0.022283506 -0.022407184          nan    350.45274   -22567.839   -4222.9308 
   19250       0.1925    393.99002    1.3564542 -0.015325606   0.10413797  -0.05575027 -0.0036507081          nan    351.95793   -22570.567   -4817.5553 
   19300        0.193    393.68692    1.3312268  0.028216406  0.048747502 -0.022304303 -0.022404748          nan    351.68716   -22571.566   -4693.9689 
   19350       0.1935     386.8148    1.2955111 -0.030175014  -0.10014279  0.015193015  0.008901347          nan    345.54818    -22566.57   -3883.9775 
   19400        0.194    396.03269    1.3585527 -0.011363802 -0.016982834 -0.022324868 -0.022438881          nan    353.78268   -22575.966   -4434.0202 
   19450       0.1945    390.27147     1.387284  0.029374774 -0.0047448568   0.04113351  -0.01050708          nan    348.63609    -22571.99   -4706.3798 
   19500        0.195    394.13428    1.4226049   0.12127652 0.0040247441 -0.022278838  -0.02240329          nan     352.0868   -22576.602   -5159.6873 
   19550       0.1955    391.92528    1.3436539  0.073998943 -0.029582169  0.014870889 -0.0048618161          nan    350.11346   -22575.854   -4626.9022 
   19600        0.196    392.97631    1.2916053  -0.02774753 -0.078605297 -0.022366381 -0.022486525          nan    351.05237   -22578.015   -3950.8416 
   19650       0.1965    394.75876    1.3392753 -0.090597307   0.04906128 -0.032114422 -0.024271577          nan    352.64465   -22580.738   -4325.7975 
   19700        0.197    387.05513    1.3901872 -0.060708061   0.11649728 -0.022296762 -0.022441763          nan    345.76287    -22574.98   -4819.9213 
   19750       0.1975    386.91418    1.3817974  0.045952869   0.05769473 -0.031123898 -0.011959444          nan    345.63696   -22576.012   -4951.4832 
   19800        0.198     387.5193    1.3246187  0.005480054 0.0070825892 -0.022323117 -0.022435823          nan    346.17753   -22577.721   -4457.2712 
   19850       0.1985    388.56334    1.2948145 -0.016916325 -0.086228684  0.015093105 -0.029053233          nan    347.11019   -22579.772   -3972.2317 
   19900        0.199    389.45843    1.3108945 -0.048736236 0.0067739814 -0.022347788 -0.022474426          nan    347.90978   -22581.718   -4229.7741 
   19950       0.1995    386.87487     1.329797  0.024628871  0.044053469  0.019399454 -0.0012369292          nan    345.60184   -22580.562   -4661.5978 
   20000          0.2    386.11333    1.3084429  0.064872239  0.032070004 -0.022334403 -0.022423881          nan    344.92155   -22581.036   -4684.6172 
Loop time of 1759.91 on 4 procs for 20000 steps with 6912 atoms

Pair  time (%) = 1637.19 (93.027)
Neigh time (%) = 0.885818 (0.0503331)
Comm  time (%) = 64.1906 (3.64738)
Outpt time (%) = 0.358243 (0.0203558)
Other time (%) = 57.2847 (3.25497)

Nlocal:    1728 ave 1758 max 1698 min
Histogram: 1 0 0 0 1 1 0 0 0 1
Nghost:    4958.5 ave 4980 max 4924 min
Histogram: 1 0 0 0 0 0 1 0 1 1
Neighs:    118842 ave 120713 max 116474 min
Histogram: 1 0 0 0 0 0 2 0 0 1
FullNghs:  0 ave 0 max 0 min
Histogram: 4 0 0 0 0 0 0 0 0 0

Total # of neighbors = 475369
Ave neighs/atom = 68.7745
Neighbor list builds = 92
Dangerous builds = 0

######################################
# SIMULATION DONE
print "All done"
All done
