
# ----------------------- ATOM DEFINITION ----------------------------
lattice		fcc ${latparam}
lattice		fcc 4.05
Lattice spacing in x,y,z = 4.05 4.05 4.05
region		whole block 0 14 0 14 0 14
create_box	1 whole
Created orthogonal box = (0 0 0) to (56.7 56.7 56.7)
  1 by 2 by 2 MPI processor grid
lattice 	fcc ${latparam} orient x 1 0 0 orient y 0 1 0 orient z 0 0 1
lattice 	fcc 4.05 orient x 1 0 0 orient y 0 1 0 orient z 0 0 1
Lattice spacing in x,y,z = 4.05 4.05 4.05
create_atoms	1 region whole
Created 10976 atoms

# ------------------------ FORCE FIELDS ------------------------------

#****************USE THIS TO TEST******************
pair_style	eam/rad
pair_coeff 		* * Al99.PC0.05.eam.alloy.rad.txt Al # pc = 0.5   error generating

# to test with error = 0 use this potential
# pair_coeff	* * Al99.eam.alloy.005pcrad_NULL_noerror Al

#****************USE THIS TO RUN REFRENCE***********
# pair_style	eam/alloy
# pair_coeff	* * Al99.eam.alloy Al

# ------------------------- SETTINGS ---------------------------------
compute csym all centro/atom fcc
compute peratom all pe/atom

######################################
# EQUILIBRATION
reset_timestep	0
timestep	0.001 # default
# timestep	0.0001 # tiny time step
velocity all create 300 12345 mom yes rot no
fix 1 all npt temp 300 300 1 iso 0 0 1 drag 1

# Set thermo output
thermo 50
# thermo 1 # debug mode

# thermo_style custom step lx ly lz press pxx pyy pzz pe temp
# IMPLEMENTATION HERE

# VERSION add rad variables .v1 .v2
# thermo_style custom step lx ly lz press pxx pyy pzz pxxrad pyyrad pzzrad pe temp

# VERSION ublb separation .v3
thermo_style custom step lx ly lz press pxx pxxrad pyy pyyrad pzz pzzrad pe temp

# Run for at least 10 picosecond (assuming 1 fs timestep)
run 	20000 # default
Memory usage per processor = 5.80699 Mbytes
Step Lx Ly Lz Press Pxx Pxxrad Pyy Pyyrad Pzz Pzzrad PotEng Temp 
       0         56.7         56.7         56.7    2496.5196    2454.4963    242.99145    2519.8171    242.99145    2515.2453     485.9829    -36879.36          300 
      50    56.784859    56.784859    56.784859    902.09853    998.94619    336.52249    861.90863    230.21995    845.44078    485.09919   -36603.807    104.79024 
     100    56.885066    56.885066    56.885066   -4306.9915   -4305.3116    346.07654   -4298.2013    301.94934   -4317.4617    477.66678   -36693.797    169.48504 
     150    56.794165    56.794165    56.794165    499.51447    541.75107    399.26835    473.93504    207.04647    482.85731    483.40159   -36629.356    124.08705 
     200    56.732407    56.732407    56.732407    2848.6888    2841.3292      265.754    2840.1988    316.47641    2864.5384     487.2356   -36648.826    138.99861 
     250    56.791772    56.791772    56.791772      162.813    148.62455     312.9267    202.83345    347.42455    136.98101    483.36881   -36659.532    147.00042 
     300    56.837362    56.837362    56.837362   -1784.9005   -1752.9576    228.00466   -1802.5487    206.79579   -1799.1952    480.72451   -36664.505    151.36635 
     350    56.798011    56.798011    56.798011   -343.34692   -308.44403    323.67381   -330.12831    195.18459   -391.46843    482.87422   -36678.755    161.95211 
     400    56.760076    56.760076    56.760076    1513.7688    1531.0644    354.48383    1473.5106    467.82671    1536.7313    485.40582   -36663.857    152.32121 
     450    56.792604    56.792604    56.792604    91.791936    92.441628    176.26983    98.298277    197.05782    84.635902    483.32364   -36662.091     151.7901 
     500    56.822718    56.822718    56.822718   -1101.2584   -1095.7792    184.85083    -1101.353    172.34203   -1106.6429    481.49606   -36659.955    151.20573 
     550    56.799016    56.799016    56.799016   -88.274292   -55.419951    292.38273   -186.17716    159.74739   -23.225762    482.99281    -36661.39    153.02203 
     600    56.774001    56.774001    56.774001    857.57303    848.55267     186.3926    914.11147    281.72159    810.05495      484.548   -36667.442    158.21602 
     650    56.792244    56.792244    56.792244     201.8819     184.0495    289.63357    162.26066     222.2108    259.33554    483.53148   -36659.397    153.38348 
     700    56.815679    56.815679    56.815679   -863.47295    -853.2323    344.41894   -843.12697    201.41965   -894.05959    481.95974   -36660.483    155.08104 
     750     56.79954     56.79954     56.79954   -138.86796   -140.35725    312.44835   -131.66214    218.54301   -144.58448    482.90161   -36662.181    157.14995 
     800    56.779969    56.779969    56.779969    742.36954    749.83042    207.02907     683.4876    160.99897    793.79061     484.1357   -36659.129    155.93389 
     850    56.794346    56.794346    56.794346    128.98364    137.93134    350.88331    125.01194     210.6043    124.00765      483.361   -36660.641    157.89694 
     900    56.812641    56.812641    56.812641   -590.64813   -559.07401    344.48052   -679.07684    300.23124   -533.79353     482.3371   -36653.023    153.45426 
     950    56.802032    56.802032    56.802032   -175.40181   -249.95955    410.17738   -91.157204     348.6381   -185.08868    482.80566   -36659.638    159.02515 
    1000    56.785499    56.785499    56.785499     503.1207    491.57291    216.96533     526.3538    191.97927    491.43541    483.77016   -36661.883    161.54845 
    1050    56.794444    56.794444    56.794444    217.86986    245.38872    250.93961    189.89687    144.34072    218.32398    483.38569   -36650.753    154.62858 
    1100    56.810552    56.810552    56.810552   -541.47595   -515.72507    220.67008   -560.96887    256.83871    -547.7339    482.34955   -36659.361    161.63198 
    1150    56.802078    56.802078    56.802078   -155.40533   -149.31378    202.61852   -181.61257    143.73794   -135.28965    482.75976   -36660.918    163.66699 
    1200     56.78923     56.78923     56.78923    470.87317    467.50457    326.22366    502.22108    232.52469    442.89385    483.80099   -36647.038    154.82072 
    1250    56.797682    56.797682    56.797682    119.32274    114.49144     73.31929    122.82547    112.94869    120.65131    483.12568   -36655.956    162.04526 
    1300     56.80929     56.80929     56.80929   -374.65972   -426.63131    249.65002   -322.91615    153.01451   -374.43171    482.54517   -36649.032     158.1179 
    1350    56.802656    56.802656    56.802656   -131.67424   -123.69907    278.29209   -151.29544    216.53685   -120.02822    482.84801   -36656.521    164.32607 
    1400    56.792253    56.792253    56.792253     333.7521    344.99452    138.01225    360.26481    140.90161    295.99696     483.5683    -36652.58    162.50957 
    1450    56.799093    56.799093    56.799093    138.39769    156.43558    141.82231     59.32061     352.6398    199.43688    483.18608   -36647.828    160.08835 
    1500    56.809623    56.809623    56.809623   -395.03134   -333.37419    255.37771   -398.55063    383.77753   -453.16919    482.46387   -36653.387    164.97469 
    1550     56.80318     56.80318     56.80318    24.732353  -0.91167841    311.13406    26.036089    274.60736    49.072649    482.90923   -36645.151    160.10329 
    1600    56.796324    56.796324    56.796324    208.86929    252.66911    410.38861    194.83136    99.413254     179.1074    483.20884   -36654.461    167.63598 
    1650    56.801231    56.801231    56.801231      70.0307    61.680608    334.50906    43.508846    186.70553    104.90265    483.02003   -36645.671    162.38179 
    1700    56.808933    56.808933    56.808933   -270.45522   -273.87922    224.81673   -228.37574    316.97273   -309.11069    482.67676   -36647.885    164.89895 
    1750    56.804735    56.804735    56.804735   -59.461898   -86.922931    194.38815    -98.30916    385.75485    6.8463964    482.82488    -36649.31    166.85283 
    1800    56.798162    56.798162    56.798162    226.71822    267.17271     285.6307    252.39978     311.4008    160.58216     483.2365   -36645.527    165.14801 
    1850    56.801538    56.801538    56.801538    119.80034    140.63399    199.24189    113.67452    239.05918    105.09252    483.03483    -36644.63    165.47466 
    1900    56.809836    56.809836    56.809836   -214.86873   -185.47779    159.75958   -211.01714    146.09002   -248.11124    482.59225   -36646.288    167.59094 
    1950    56.808329    56.808329    56.808329   -144.12638   -141.83771    160.82393   -135.50137    323.10218   -155.04008    482.70544   -36643.579    166.63493 
    2000    56.800682    56.800682    56.800682    212.40029    151.34683    335.21834    259.31391    274.91614    226.54014    483.10616   -36643.425    167.49409 
    2050    56.802521    56.802521    56.802521    100.65499    75.249048    212.90819    56.190505    327.04244    170.52543    482.95354   -36643.741     168.6746 
    2100    56.809571    56.809571    56.809571    -146.8269   -80.335646    238.93867   -127.99001    70.653737   -232.15503    482.59633   -36640.815    167.57057 
    2150    56.808895    56.808895    56.808895   -165.27325   -191.13675    456.78239   -166.54245     398.1073   -138.14054     482.5913   -36644.098    170.83838 
    2200    56.801313    56.801313    56.801313    222.08781    255.75477    312.08736     244.7199    335.20808    165.78875    483.20342   -36634.804     165.2564 
    2250    56.803543    56.803543    56.803543    119.59981    150.43417    204.21856    95.565628    143.92197    112.79964    482.93388   -36645.922    174.04965 
    2300    56.811357    56.811357    56.811357   -177.10421   -205.43945    285.97579   -186.68732     258.4546   -139.18586     482.6772   -36634.934    167.26935 
    2350    56.810834    56.810834    56.810834   -147.57357   -119.78179    87.014495   -148.60926     362.5775   -174.32964    482.57575   -36642.182    173.33274 
    2400    56.804038    56.804038    56.804038    197.44655    212.01527     365.0727     196.5496    183.65885    183.77479    483.03726   -36634.813    169.10765 
    2450    56.805659    56.805659    56.805659    99.580396    86.934756    177.52417    111.74025    282.96289    100.06618    482.89715   -36639.839    173.61106 
    2500    56.812136    56.812136    56.812136   -157.16811    -130.0075     259.5287   -133.15348   -40.433433   -208.34334    482.44594   -36638.445    173.59141 
    2550    56.811276    56.811276    56.811276   -86.471514   -117.97122    144.88629   -107.48598    450.28726   -33.957338    482.53847   -36635.105    172.20581 
    2600    56.806512    56.806512    56.806512    84.228888    137.95082    175.74948    101.39973    80.275828    13.336109     482.9806   -36636.206    173.93935 
    2650    56.807459    56.807459    56.807459     189.9063    165.27678    228.60799    150.92293    395.95842    253.51919     482.8943   -36630.259    170.70949 
    2700    56.814656    56.814656    56.814656   -194.41013   -148.31935    223.35278   -166.55308    445.25381   -268.35797    482.34123   -36634.286     174.5138 
    2750     56.81318     56.81318     56.81318   -50.885643    -31.91255    189.35316   -72.238321    384.50331   -48.506057    482.55863   -36632.943    174.53856 
    2800    56.808273    56.808273    56.808273    120.07452    77.423285    289.87778    147.71871    128.74656    135.08155    482.85307   -36632.175    174.95634 
    2850    56.809386    56.809386    56.809386    64.598916    93.289406    164.35844    49.252297    201.91358    51.255046    482.64167   -36635.363    178.17319 
    2900    56.814028    56.814028    56.814028   -55.129096   -78.864562    126.92185   -23.927303    373.76293   -62.595424    482.50375   -36628.162    174.06308 
    2950    56.814566    56.814566    56.814566   -136.69039   -121.09987    100.14935   -138.22883    224.79344   -150.74247    482.44376    -36632.76    178.27162 
    3000    56.810436    56.810436    56.810436    109.18596    170.82853    303.26388    82.313316    270.70102    74.416023    482.84366   -36627.321    175.39548 
    3050    56.811695    56.811695    56.811695    20.251311     45.62127    105.60415    28.352535    243.36078   -13.219872     482.6596   -36633.224    180.52378 
    3100    56.814668    56.814668    56.814668   -22.502512    59.902641    191.08136   -81.618592    166.16152   -45.791584    482.50551   -36625.036    175.72114 
    3150    56.814591    56.814591    56.814591   -35.232453   -56.415597    333.07548   -62.292386    332.49846    13.010624    482.37434   -36627.386    178.34874 
    3200    56.812239    56.812239    56.812239    90.408292    160.66081    206.01195    76.940756    577.71223    33.623312    482.60586   -36626.453    178.65798 
    3250    56.813104    56.813104    56.813104    22.961587     6.770234    476.41731    44.998436    302.62601    17.116089    482.63762   -36626.931    179.95943 
    3300    56.815222    56.815222    56.815222   -33.469201   -23.912364    357.98569   -21.628313    299.93232   -54.866925    482.45467    -36624.85    179.46152 
    3350     56.81547     56.81547     56.81547   -25.746731   -25.939475     198.0184   -66.221943    286.43286    14.921226    482.46905   -36626.345    181.48254 
    3400     56.81445     56.81445     56.81445    33.843209    20.163178    230.08189    3.6846816    282.30361    77.681767    482.63418   -36623.713      180.591 
    3450    56.815405    56.815405    56.815405    22.937435    74.244986    365.07834    6.2431304    188.39163    -11.67581    482.45334   -36623.977    181.74162 
    3500    56.817351    56.817351    56.817351   -84.758116   -7.0286601    104.63125   -112.68599    123.35762    -134.5597    482.31426   -36624.288     182.9346 
    3550     56.81621     56.81621     56.81621   -19.992649   -22.654179    387.18336    5.2074259    183.43644   -42.531193    482.43609   -36626.071    185.15775 
    3600    56.815602    56.815602    56.815602    62.134913    102.05969    287.32331     96.33748    216.80427   -11.992432    482.54802   -36619.622    181.57613 
    3650    56.817749    56.817749    56.817749   -21.981849   -32.824025    164.91482   -62.313942    288.36241    29.192421    482.35076   -36622.046    184.25338 
    3700    56.818585    56.818585    56.818585    20.576408     -9.14837    258.59214    58.205133    206.51946    12.672462    482.34253   -36617.535    182.04252 
    3750    56.818699    56.818699    56.818699   -43.632583    59.035682    275.39694   -90.581382    39.370094    -99.35205    482.32881   -36618.972    184.02075 
    3800    56.816887    56.816887    56.816887    83.562808    74.779099     303.8422    120.44089    271.25502    55.468432    482.46972    -36618.35    184.54917 
    3850    56.817924    56.817924    56.817924    -33.09368    62.598131     222.5559   -69.980935    218.79275   -91.898236    482.43395    -36619.45    186.29073 
    3900    56.818517    56.818517    56.818517    44.629959    -61.09072    418.69134    93.302172     321.0724    101.67842    482.35409   -36615.198    184.26597 
    3950    56.820277    56.820277    56.820277   -75.500498    80.567175    453.01834   -150.85782    70.550473   -156.21085    482.23064   -36618.567    187.59759 
    4000    56.818961    56.818961    56.818961   -3.7770912   -60.200129    1.2259061    21.493653    380.70498    27.375202    482.26398   -36618.094    188.24366 
    4050    56.817582    56.817582    56.817582    73.757411    92.072684    164.19855    124.00241    451.48947    5.1971405    482.39562    -36614.79    186.87303 
    4100    56.819967    56.819967    56.819967    17.817512    66.644366    330.19872   -10.256969    160.69794   -2.9348596    482.29479    -36615.54     188.3738 
    4150    56.822251    56.822251    56.822251   -49.465144   -33.893451    105.77512  -0.32570531    41.179759   -114.17628    482.23405   -36612.746    187.36599 
    4200    56.821996    56.821996    56.821996   -33.529823    19.149617    39.598303   -32.741396    194.90941   -86.997689    482.19531   -36612.256    187.98551 
    4250    56.819964    56.819964    56.819964    50.098739    146.10926    141.02541    32.823337    474.01917   -28.636376     482.3335   -36614.199    190.32293 
    4300    56.820632    56.820632    56.820632    64.912277    62.766518     237.5377    87.491558    333.16208    44.478754    482.23654   -36609.728    188.13535 
    4350    56.823611    56.823611    56.823611    -58.39621   -31.140897     42.43631   -73.925314    353.77364   -70.122418    482.08345   -36613.227     191.5677 
    4400    56.823259    56.823259    56.823259   -9.0427375    78.854089    294.15918   -72.116352    82.763943    -33.86595    482.13357   -36609.141    189.65047 
    4450    56.822138    56.822138    56.822138    56.918326    59.648655    498.46462    46.011883    108.17303     65.09444    482.27126   -36609.657     190.9818 
    4500    56.822493    56.822493    56.822493     77.48494     81.01056    189.69948    30.516858    234.25892     120.9274    482.22321   -36607.546    190.45783 
    4550    56.824715    56.824715    56.824715   -83.059038   -83.381745    28.711202   -76.207965    198.28939   -89.587404    482.08737   -36610.122    193.23604 
    4600    56.823997    56.823997    56.823997    30.055534    45.312323    213.23664   -17.828612    128.98346    62.682891    482.20127   -36605.622    191.03117 
    4650    56.823985    56.823985    56.823985    10.785894    35.608394    320.98036   -53.049642    358.38893    49.798929    482.16824   -36607.771    193.50116 
    4700    56.825125    56.825125    56.825125   -35.181355   -79.387804    290.10874   -50.998502    313.82035    24.842242    481.99625   -36608.818    195.20666 
    4750    56.825408    56.825408    56.825408   -13.021697    32.129655    334.15799   -2.5216482    18.600683   -68.673097    482.06034   -36607.626    195.32824 
    4800    56.825224    56.825224    56.825224    26.421248    75.432699    149.19134   -48.484882    343.63028    52.315926    482.14288   -36603.167    193.15013 
    4850    56.825395    56.825395    56.825395    38.815424    47.281607    323.91423    15.986633    123.99426    53.178033    482.11537   -36603.314     194.2155 
    4900    56.826447    56.826447    56.826447    12.525212  -0.10950453    47.721259   -27.068108    285.67904    64.753248    482.08926   -36603.265    195.13621 
    4950    56.827025    56.827025    56.827025   -34.159233   -65.767832    82.304347    37.927447    236.11067   -74.637313    482.01976   -36602.003    195.20947 
    5000    56.826764    56.826764    56.826764    38.145329    59.881707    40.575699   -22.042354    558.79734    76.596634    482.06335     -36602.8    196.72743 
    5050    56.827639    56.827639    56.827639   -79.478654   -77.603486    459.50117   -78.354051    166.58397   -82.478424    482.02772   -36604.845    199.13332 
    5100    56.826552    56.826552    56.826552    17.012551    42.983495    296.85865   -17.871701    148.75367     25.92586    482.06616   -36601.642    197.83325 
    5150    56.826641    56.826641    56.826641    62.852475    47.628594    263.39888    85.596847    304.50073    55.331985    482.12443   -36599.148     197.0341 
    5200    56.828869    56.828869    56.828869   -100.09446   -34.194426    62.805627   -136.41262    299.85273   -129.67635    481.87978   -36602.107    200.07479 
    5250    56.828622    56.828622    56.828622    35.387857    20.353323    115.75885    64.423688       324.15    21.386561    481.93547   -36598.621      198.576 
    5300    56.829253    56.829253    56.829253   -20.328524   -41.128295    463.84967    17.351121    448.03049   -37.208397    481.91934   -36599.584    200.21399 
    5350    56.830268    56.830268    56.830268   -6.7244489   -47.055805    487.96152   -7.6169841    206.09412    34.499442    481.87037   -36597.724    199.85127 
    5400    56.830263    56.830263    56.830263   -47.150556   -4.3288913    376.88547   -28.785953     369.0354   -108.33682    481.90134   -36597.505    200.66006 
    5450     56.82875     56.82875     56.82875    62.311852    29.596818    245.60061    80.504935    156.95833    76.833802    482.05371   -36594.218    199.28944 
    5500    56.829679    56.829679    56.829679    11.113108    56.462825     373.5018    13.029437    268.30496   -36.152938     481.9722   -36596.722    202.01252 
    5550    56.831164    56.831164    56.831164    10.212174    24.493259    122.67001    62.804326    455.24426   -56.661063    481.84675   -36593.796    200.90222 
    5600    56.831854    56.831854    56.831854   -43.200361     70.49338    231.85456   -100.96228    105.55053   -99.132183    481.74732   -36595.792    203.26658 
    5650    56.829702    56.829702    56.829702    62.122766    66.922577    294.92204    76.931183    136.26383    42.514539    482.07276   -36591.352     201.0894 
    5700    56.830376    56.830376    56.830376    90.499452    118.91219      31.1576    88.140474    374.11113    64.445694    481.98884   -36590.971    201.76369 
    5750    56.833678    56.833678    56.833678   -53.949935   -67.386511    218.91844   -41.318186     120.0839   -53.145107     481.7975   -36590.789    202.59202 
    5800    56.833086    56.833086    56.833086   -17.443168    18.640278    432.98265     1.601541    92.126351   -72.571323    481.74275   -36591.628    204.12867 
    5850    56.831668    56.831668    56.831668    21.588045    104.69248    62.642865   -1.9532295    88.894544   -37.975117    481.86568   -36593.275    206.23968 
    5900    56.833042    56.833042    56.833042   -10.044456   -51.790523    301.88802   -26.983696    189.38538    48.640851    481.71424   -36592.862    206.89137 
    5950    56.835719    56.835719    56.835719   -95.641188   -11.295904    284.00416   -153.93025    192.11331   -121.69741    481.69891   -36591.107    206.60204 
    6000    56.835469    56.835469    56.835469   -28.910472   -55.322506    373.36938   -51.562022    256.91511    20.153111    481.60106   -36589.228    206.22335 
    6050    56.833792    56.833792    56.833792    4.4468802   -13.273139    130.20281   -14.786089    333.63599    41.399869    481.60848   -36591.988    209.11802 
    6100     56.83334     56.83334     56.83334    81.670586    156.31433    232.18461    72.355332    269.69235    16.342095    481.83908   -36585.851    205.73458 
    6150    56.836103    56.836103    56.836103    6.9606108    42.499517    53.798423   -95.351665     121.4063     73.73398    481.73614   -36583.229     204.8259 
    6200    56.837187    56.837187    56.837187   -85.683342   -58.746043    255.33522   -119.57313    8.1810035   -78.730852    481.58401   -36587.826    209.01139 
    6250    56.835224    56.835224    56.835224    46.557464    11.000205    225.38876    102.03221    46.094115     26.63998    481.72841   -36586.464    208.98991 
    6300    56.835566    56.835566    56.835566    22.125043    17.103128    257.63361    33.197947    205.59494    16.074055    481.59971   -36587.504    210.66813 
    6350    56.837503    56.837503    56.837503    5.2271789    86.083859    267.55783   -79.903922    120.79382    9.5015994    481.63365   -36582.128    207.81466 
    6400    56.838923    56.838923    56.838923   -61.703902   -59.176325    131.40196    -74.08968    321.13681     -51.8457    481.48734   -36583.059    209.40881 
    6450    56.836761    56.836761    56.836761    56.396771    88.837311    237.56884    51.569539    488.78538    28.783464    481.75307   -36578.652    207.24096 
    6500    56.836108    56.836108    56.836108    49.211136   -24.838062    147.40696    91.962389    127.70817     80.50908    481.65032   -36585.172    212.76915 
    6550    56.838454    56.838454    56.838454   -1.2242697    86.582859    374.20263    -38.88591    252.05862   -51.369758    481.42568   -36580.595    210.47932 
    6600    56.839994    56.839994    56.839994   -59.870032   -17.199496    469.11026   -58.927804    179.71263    -103.4828     481.4757   -36580.512    211.35667 
    6650    56.838715    56.838715    56.838715    -36.53991   -66.152555    483.44727   -66.132468    101.96748    22.665292    481.54922   -36583.116    214.11978 
    6700    56.837653    56.837653    56.837653    48.353054    83.638153    161.11592    91.985822    195.03553   -30.564814    481.65492   -36579.102    212.21985 
    6750    56.839513    56.839513    56.839513   -29.270936   -37.189601    278.37487   -78.341109    331.31907    27.717902    481.45613   -36581.904    215.12928 
    6800    56.841066    56.841066    56.841066   -27.690294    21.344941    189.01597   -26.669752    287.02348    -77.74607     481.4678   -36578.832    213.89257 
    6850    56.840841    56.840841    56.840841   -79.412144   -63.207777    291.99306   -119.94333    294.24419   -55.085321    481.46008   -36579.623     215.3783 
    6900    56.838307    56.838307    56.838307    125.62454    173.93467    422.79897    122.99403    167.82383    79.944913    481.68753    -36574.73    212.85514 
    6950    56.840922    56.840922    56.840922   -27.583068    8.5269478    376.64682   -93.896212     144.3459    2.6200617    481.52953   -36578.108    216.15684 
    7000     56.84355     56.84355     56.84355   -78.813867   -49.875381    173.44623   -48.257275    115.74763   -138.30894    481.33317   -36577.526    216.67301 
    7050    56.842369    56.842369    56.842369   -29.831921   -2.4035377    432.22385    0.4535994    254.27212   -87.545825    481.37883   -36574.636    215.55852 
    7100    56.841144    56.841144    56.841144    18.095139    5.3815645    161.42513    35.431048    252.56067    13.472803    481.45557   -36577.254    218.32475 
    7150    56.841853    56.841853    56.841853     74.02273    142.27436    158.74007    10.184172    255.28674    69.609655    481.46373   -36570.558    214.52697 
    7200    56.844136    56.844136    56.844136   -84.718317   -173.26202    208.86319    27.274815   -150.32631   -108.16774    481.28263   -36575.306    218.79281 
    7250    56.842781    56.842781    56.842781    61.081133    74.973469    539.29215    8.7315841    293.60506    99.538347    481.40279   -36570.546    216.35732 
    7300    56.842824    56.842824    56.842824    9.9311418    40.584082    324.00331    15.125693    453.16861   -25.916349    481.43506    -36572.28    218.49125 
    7350    56.844445    56.844445    56.844445   -5.1000228    13.511658    8.8887664   -52.870357    294.23473     24.05863    481.25294   -36572.403    219.49535 
    7400    56.844932    56.844932    56.844932    6.7807896    -19.81658    313.79662    92.444764    290.43219   -52.285815     481.2728   -36567.925    217.25048 
    7450    56.845196    56.845196    56.845196   -33.953192   -47.871966    601.25603   -1.8206271   -46.319172   -52.166982    481.26114   -36570.389    219.89354 
    7500    56.844349    56.844349    56.844349    61.584437    128.99101    159.11469   -56.200387   -40.376781    111.96268    481.25398   -36568.318    219.34903 
    7550    56.845377    56.845377    56.845377    -26.47981    11.161814    312.67963   -44.107721    137.57908   -46.493521    481.28951   -36569.707    221.23597 
    7600    56.845895    56.845895    56.845895    24.289188    17.957796    377.80672    17.051605    -6.469926    37.858163    481.29683   -36567.298    220.44913 
    7650    56.845724    56.845724    56.845724   -4.6138572   -16.183617     512.2431    9.4486186    302.21988   -7.1065727    481.24817   -36566.614     220.8707 
    7700    56.845572    56.845572    56.845572     37.04861    90.512447    148.01397   -19.102755    88.311411    39.736137    481.30106   -36565.665    221.10437 
    7750    56.846259    56.846259    56.846259     31.87068    16.585386    118.43143     49.49833    354.25769    29.528323    481.31552   -36562.473    219.75672 
    7800    56.847283    56.847283    56.847283   -52.020832   -24.613647     292.9196   -62.853994    327.04182   -68.594854    481.19016   -36569.616    225.69392 
    7850    56.847821    56.847821    56.847821   -53.068473   -155.14515    98.604638    29.182226    123.45672   -33.242494      481.167   -36566.415     224.3339 
    7900    56.846915    56.846915    56.846915    6.4147915    123.26922    260.66346   -128.56465    313.62113    24.539801    481.17053   -36567.423    225.95089 
    7950    56.847204    56.847204    56.847204    2.6732696    5.7306465    285.42936   -22.913786    240.80592    25.202948    481.26478   -36563.023    223.73679 
    8000    56.848235    56.848235    56.848235   -19.302297   -39.483374    196.23404     47.61011     416.0128   -66.033628    481.12432   -36562.119     223.9973 
    8050    56.848381    56.848381    56.848381    2.5413274   -31.801816     404.9108   -42.517043    128.13795    81.942841    481.18986   -36564.746    226.74195 
    8100    56.849428    56.849428    56.849428   -13.064817    61.818735     672.6286   -9.9016425    87.139841   -91.111543    481.16694   -36560.412    224.57892 
    8150    56.849918    56.849918    56.849918   -1.5112566   -12.717261    55.516315    41.696862    502.51809    -33.51337    481.04687   -36559.674    224.94523 
    8200    56.849628    56.849628    56.849628   0.84488228    17.307874    310.20787    4.3877269    276.91194   -19.160954     481.0549   -36561.257    226.95346 
    8250    56.849403    56.849403    56.849403   -29.905704   -39.518304    360.61136   -10.896355   -8.1924264   -39.302452    481.15239   -36558.918    226.18667 
    8300    56.849121    56.849121    56.849121     52.03452    112.34156    319.16496    28.907556    120.74958     14.85444    481.16711   -36558.526    226.79595 
    8350    56.850498    56.850498    56.850498    1.1136224   -38.200408    234.71095    1.0060852    72.405022     40.53519    481.07046   -36559.113    228.09591 
    8400    56.852008    56.852008    56.852008    -49.73858    3.7715073    166.66199   -72.316596    244.77514   -80.670651    480.96724   -36560.144    229.70153 
    8450    56.852167    56.852167    56.852167   -46.970025   -86.744564    48.132625    33.550086    52.200692   -87.715597    481.02328   -36556.694    228.14968 
    8500    56.851005    56.851005    56.851005     80.66316    149.65051    241.64011    55.970375     95.49005    36.368592    481.03846   -36555.688     228.3191 
    8550     56.85178     56.85178     56.85178    43.098919    73.636639    246.32926    60.299207    171.76873   -4.6390878    481.08282   -36553.166    227.41461 
    8600    56.853684    56.853684    56.853684   -62.527142   -32.620803    444.31916   -7.7784827    579.94109   -147.18214    480.91432   -36557.545    231.37648 
    8650    56.853352    56.853352    56.853352   -54.810131    -38.09181    233.35585   -97.230377    332.27392   -29.108205    480.91878   -36555.339    230.69017 
    8700    56.851777    56.851777    56.851777    57.351269    83.767126    187.95304     143.8738    60.948962   -55.587118    480.98704   -36555.655     231.7864 
    8750    56.852298    56.852298    56.852298     53.47167    157.20548     -22.4409    49.977405    47.981856   -46.767879    481.01273   -36553.086    230.84571 
    8800    56.854658    56.854658    56.854658    12.525858   -68.642565    191.77781     59.77739   -96.436818    46.442749    480.91152   -36550.328    229.76459 
    8850    56.856032    56.856032    56.856032   -97.914841   -24.964722    24.286568   -165.74703    154.10564   -103.03277    480.84491   -36554.174    233.34105 
    8900    56.853011    56.853011    56.853011    86.985605    116.74187   -26.220659    120.88361    287.27221    23.331331    480.99066   -36549.193    230.68843 
    8950    56.852752    56.852752    56.852752    43.310976     66.67455    476.43854    97.313596    348.79252   -34.055219    480.98338   -36554.393    235.21666 
    9000    56.856027    56.856027    56.856027   -34.744341   -12.770337    145.27538   -10.443599     220.2344   -81.019086    480.83437    -36549.71    232.76866 
    9050    56.857701    56.857701    56.857701   -98.795279   -90.378524    262.24479   -20.592726    143.86678   -185.41459    480.79563   -36549.926    233.78176 
    9100     56.85447     56.85447     56.85447    61.588367    95.269547    409.49864   0.21579166    379.86226    89.279762    480.95971   -36547.306    232.78602 
    9150    56.853832    56.853832    56.853832    104.62124    83.584872    36.114687    153.53306    410.72306    76.745781    480.94593    -36548.71    234.63202 
    9200    56.857402    56.857402    56.857402    -74.12141   -17.922546    381.32602   -113.43995    242.71675   -91.001733    480.75826   -36550.584    236.80488 
    9250    56.858281    56.858281    56.858281   -21.664656    12.531836    120.64562   -22.488838    315.65398   -55.036966    480.79564   -36544.417    233.30188 
    9300    56.857061    56.857061    56.857061   -14.670366    11.389467    247.30476   -14.238474    279.56947   -41.162092     480.7581   -36548.393    236.95215 
    9350    56.855451    56.855451    56.855451    179.03332    293.18646      359.766    98.503148    86.850988    145.41036    480.92273   -36542.077    233.34848 
    9400    56.858931    56.858931    56.858931   -48.330915   -80.119583    152.71077   -20.798809    140.92056   -44.074353    480.75198   -36543.424    235.13415 
    9450    56.860053    56.860053    56.860053   -62.019081    71.776319    302.57451   -177.68385    110.40185   -80.149714    480.71307   -36544.395    236.65916 
    9500    56.857363    56.857363    56.857363    22.144485      132.798    39.068214   -23.244274    287.08885    -43.12027    480.82041   -36544.959     237.8969 
    9550    56.856718    56.856718    56.856718    88.130772    6.5372717    183.28211    83.265386    210.54813    174.58966    480.85639   -36543.834     237.9386 
    9600    56.860512    56.860512    56.860512   -58.123824   -7.9858301    127.54568   -155.78403    322.51499   -10.601614    480.59805   -36545.919    240.24223 
    9650    56.860916    56.860916    56.860916   -93.302354   -46.686435    424.42131   -74.977827    257.44694    -158.2428     480.6565   -36542.017    238.32636 
    9700    56.857253    56.857253    56.857253    144.07492     194.7485    137.87634     9.211564     409.7765     228.2647    480.93037    -36538.83    236.90287 
    9750    56.858936    56.858936    56.858936    46.091304   -13.778146    186.84872    78.138092     138.9919    73.913966     480.7043   -36544.506    241.73059 
    9800    56.863063    56.863063    56.863063   -98.435868   -93.690357    184.65422   -144.10596    114.26937   -57.511289    480.56776   -36539.211    238.82299 
    9850    56.863398    56.863398    56.863398   -166.44632   -179.36678    372.26309   -189.96593    405.57213   -130.00627    480.39583   -36544.697    243.50753 
    9900    56.858424    56.858424    56.858424     154.6618    270.05072    441.88786    39.171054    410.54241    154.76364    480.85076   -36537.051    238.94449 
    9950    56.859051    56.859051    56.859051    105.68897   -24.106795    376.22637    222.96105    280.17813    118.21267     480.8475   -36537.101    239.79416 
   10000    56.864491    56.864491    56.864491   -142.01079   -15.189103    278.30625   -194.73627    300.91759   -216.10699    480.46242   -36541.157    243.47305 
   10050    56.864017    56.864017    56.864017   -100.58665   -103.34204    261.90325   -148.12735    82.048397   -50.290552    480.44756   -36538.363    242.31793 
   10100    56.860065    56.860065    56.860065    99.031098    120.48734     181.5322    140.57911    137.27823    36.026836    480.75193   -36539.302    243.78778 
   10150    56.861316    56.861316    56.861316    94.920897    208.18636    293.48885    2.5628354    303.30037    74.013497    480.75082   -36534.772    241.40333 
   10200    56.866052    56.866052    56.866052   -160.16343   -259.04395    363.67142   -103.60708     362.4624   -117.83925    480.41438   -36539.644     245.6404 
   10250    56.864812    56.864812    56.864812   -26.597891   -15.466019    187.67525   -46.329533    142.82394   -17.998121    480.47753    -36533.43    242.06683 
   10300    56.861445    56.861445    56.861445    149.76929    126.29124    211.54114    141.06916    242.66014    181.94746    480.61249   -36533.981     243.2582 
   10350    56.862821    56.862821    56.862821    11.487024    51.906567    382.06323    56.814679    343.18582   -74.260174    480.60243    -36534.68    244.55298 
   10400    56.865893    56.865893    56.865893   -35.474758   -12.459707    430.49655   -17.783992    436.27154   -76.180575    480.36902   -36532.537    243.83525 
   10450    56.866326    56.866326    56.866326   -51.546655   -89.188483    119.68605   -32.574048    234.32237   -32.877432    480.32407   -36535.173    246.49081 
   10500    56.864493    56.864493    56.864493    47.091711    83.029365    81.852403    43.683905    172.40326    14.561862    480.45936   -36530.875    244.24843 
   10550    56.865536    56.865536    56.865536    13.125265   -9.8126416     255.3116   -31.079632     114.1144    80.268068    480.39303   -36534.847    247.83816 
   10600    56.867189    56.867189    56.867189   -40.285396   -58.533814    143.36616   -71.440551   -35.493346    9.1181759    480.39186   -36529.547    244.88805 
   10650    56.866544    56.866544    56.866544   -18.510448   -60.434257    107.01923   -10.587505    273.73257    15.490418    480.47198   -36531.633    247.14421 
   10700    56.865061    56.865061    56.865061    33.536942    47.157644     322.7377    2.4967929    409.50084     50.95639    480.39968   -36534.489    249.94018 
   10750    56.867196    56.867196    56.867196   0.12503737   -8.5946339    85.500907   -34.294356    207.83087    43.264102    480.25633   -36530.161    247.66722 
   10800    56.869507    56.869507    56.869507   -99.133764   -105.07185    218.22698   -45.764678    319.53922   -146.56476    480.25722   -36530.212    248.48353 
   10850     56.86729     56.86729     56.86729  0.080019596    61.348077    6.3487569   -60.368734   -40.752555  -0.73928425    480.35196   -36529.742    248.92105 
   10900    56.866329    56.866329    56.866329    78.433456    76.985378    89.130725    118.89892     123.6575    39.416073      480.447   -36528.432    248.76914 
   10950    56.869308    56.869308    56.869308   -57.767166    25.148891      379.279   -105.80808    178.14025   -92.642312    480.34852   -36527.111     248.6038 
   11000    56.869779    56.869779    56.869779   -91.992592    -97.54218    357.33269    -5.355358    333.52202   -173.08024    480.26234   -36527.205    249.44124 
   11050     56.86616     56.86616     56.86616    177.64919    197.87623    270.99955    157.66529    287.64828    177.40605    480.47952    -36523.86    247.85071 
   11100    56.868122    56.868122    56.868122   -14.480279   -38.943133    316.33189    7.9216503    314.99563   -12.419354    480.31765   -36528.225    251.68765 
   11150    56.870895    56.870895    56.870895   -47.086327   -41.688967    408.02083    45.607891    229.63008   -145.17791    480.20838   -36524.672    249.94351 
   11200    56.870861    56.870861    56.870861   -104.78092   -135.90639    164.70541   -90.136313    378.45045   -88.300072    480.19248   -36527.959    253.01625 
   11250    56.867992    56.867992    56.867992    80.906383   -4.3126116    57.231523    142.35539    178.64661    104.67637     480.4011   -36525.763    252.21917 
   11300     56.86846     56.86846     56.86846    65.605904    93.841189    6.8210303    23.717776     182.5581    79.258747    480.36743   -36521.399    249.89766 
   11350    56.871106    56.871106    56.871106   -6.8129354     18.12323    21.757335    39.509997    403.31604   -78.072033    480.14272   -36522.876     251.6836 
   11400    56.872009    56.872009    56.872009   -51.276761   -42.002175    468.00806   -43.549156   -33.025856   -68.278952    480.11902   -36522.258    251.99223 
   11450    56.869785    56.869785    56.869785    110.31365   -23.285011    279.99633    179.32469   -227.23603    174.90128    480.35954   -36519.156    250.54758 
   11500    56.870827    56.870827    56.870827    9.5936307   -24.980564    409.00787     5.408319    35.393387    48.353137    480.20947   -36524.096    254.76989 
   11550    56.873401    56.873401    56.873401   -36.903003   -95.946526    316.01549    16.419421    304.71719   -31.181905     480.1333    -36520.69    253.10383 
   11600    56.873767    56.873767    56.873767   -131.43001   -22.182242    216.71747   -228.87976    93.772822   -143.22802    479.88781   -36524.429    256.47714 
   11650    56.870768    56.870768    56.870768    39.895285    81.191456    403.94091    74.332659    373.84318    -35.83826    480.17704   -36519.263    253.56795 
   11700    56.870642    56.870642    56.870642    116.35714    45.884615    334.95191    212.79541    326.58095     90.39139    480.24331   -36520.309    255.04007 
   11750    56.874513    56.874513    56.874513   -63.424314   -126.60176    371.17399    -70.14658    286.44062    6.4753977    480.04661    -36516.31    252.94374 
   11800    56.875355    56.875355    56.875355   -46.467621   -124.81582    388.97594    17.302101    186.13545   -31.889145    480.03283   -36517.383    254.42658 
   11850    56.872232    56.872232    56.872232    11.273582    5.6962853    374.65295   -58.665426     241.8681    86.789888    480.01727   -36523.065    259.15449 
   11900    56.871383    56.871383    56.871383    131.23855     122.7201    459.34133    134.17837     124.7259    136.81718    480.22746   -36515.889    254.80974 
   11950    56.875942    56.875942    56.875942   -58.773173   -89.044764    266.56203    46.925168     252.3734   -134.19992    480.04988   -36516.043    255.63296 
   12000    56.877243    56.877243    56.877243   -112.75466   -166.64461    103.15132   -63.296873    226.63993    -108.3225    479.94231   -36517.685    257.49977 
   12050    56.873147    56.873147    56.873147    30.408748    -40.79625    497.23454    73.423791    21.391479    58.598702     480.0583    -36518.19     258.5689 
   12100    56.871671    56.871671    56.871671    78.478824    47.418831    303.12012    171.36936    208.78673    16.648278    480.23986   -36518.697    259.63154 
   12150    56.876291    56.876291    56.876291    25.244223   -87.837616    233.12689    25.323282    54.942314      138.247    480.01968   -36511.572    255.30816 
   12200    56.879789    56.879789    56.879789   -226.38531   -268.72931    280.89338   -284.52783    171.57641    -125.8988    479.72374   -36516.693    259.62406 
   12250      56.8744      56.8744      56.8744    82.328458    82.536055    229.21783    43.289565    122.39227    121.15975    480.11202   -36513.706    258.21483 
   12300    56.873284    56.873284    56.873284    98.238805    102.61493    168.49491    90.400461   -44.826865    101.70102    480.03803   -36516.042    260.56037 
   12350    56.878201    56.878201    56.878201   -90.078247   -48.878113    27.594576    -211.4649    142.58515   -9.8917284    479.86292   -36513.119    259.19362 
   12400    56.879037    56.879037    56.879037   -110.77093   -177.64656    339.56717    -61.00398    282.22705   -93.662263    479.72808   -36512.978    259.78949 
   12450    56.874417    56.874417    56.874417    111.06738    93.587059    84.550014   -6.5624922    336.70445    246.17757    480.12097   -36511.412    259.37022 
   12500    56.874435    56.874435    56.874435    73.470654    67.603124    324.14993       112.65    92.635097    40.158833    480.00633   -36513.708    261.67062 
   12550    56.878852    56.878852    56.878852   -72.342631   -74.556477    465.18655   -169.99685    338.97646     27.52543    479.81997   -36511.151    260.54548 
   12600    56.880396    56.880396    56.880396   -113.40605   -136.41379    229.61109   -111.61178     299.9975   -92.192588     479.7459   -36510.586    260.82595 
   12650    56.876809    56.876809    56.876809    94.900239    51.106993    522.33569    102.13513    290.99958     131.4586     480.0107   -36509.516    260.74703 
   12700    56.876831    56.876831    56.876831    114.29304    104.93348    416.94199     52.91547   -189.97877    185.03016    480.00524   -36508.534    260.72966 
   12750    56.880955    56.880955    56.880955   -117.61029   -247.83019    409.31315   -103.61401    509.10079   -1.3866525    479.72653   -36510.399    262.71518 
   12800    56.880292    56.880292    56.880292     -74.6217    -127.3411     479.4996   -87.819847     286.6805   -8.7041567    479.73287   -36508.402    261.97231 
   12850     56.87693     56.87693     56.87693    1.9888575   -81.001986    528.76847   -46.088433      348.806    133.05699    479.87746   -36513.031     265.9018 
   12900    56.876706    56.876706    56.876706     190.3332    135.19266    318.39203     164.5141    295.48322    271.29284    480.05051   -36507.282    262.50415 
   12950    56.882883    56.882883    56.882883   -137.55546   -142.03366    25.030704   -145.21792    131.02109   -125.41481    479.67967   -36504.888    261.47154 
   13000    56.881865    56.881865    56.881865   -65.635646   -118.89377    6.1066643   -105.50936    526.64017    27.496196    479.69677   -36507.297     263.8234 
   13050    56.877028    56.877028    56.877028    172.86677    152.03358    144.12303    185.09563    324.06048    181.47109    480.01279   -36503.199    261.58511 
   13100    56.879123    56.879123    56.879123    47.774233    22.971729     269.6969     51.28416    387.53864    69.066811    479.79881   -36506.812    264.78001 
   13150    56.883432    56.883432    56.883432   -94.522645   -80.953606    191.44217   -164.16606    285.98038   -38.448267    479.61777   -36506.489    265.20091 
   13200    56.882902    56.882902    56.882902   -102.95001   -202.48202    655.53424   -98.462739    440.57413   -7.9052703    479.64106   -36506.679    265.97758 
   13250    56.879345    56.879345    56.879345    91.447866    91.588398    4.5809264    26.421968     236.7263    156.33323    479.90947   -36504.664    265.19617 
   13300    56.880694    56.880694    56.880694    45.362014   -34.526738    300.87031   -21.428192    209.59537    192.04097    479.75851   -36503.804    265.22997 
   13350    56.883482    56.883482    56.883482   -43.744955     30.30167    478.25206   -149.44213    511.96839   -12.094406    479.66774   -36503.078    265.35302 
   13400    56.883273    56.883273    56.883273   -83.270707   -250.81007    296.70408    -69.75202    457.90839    70.749973    479.63637   -36502.819    265.79797 
   13450    56.880651    56.880651    56.880651    94.995331    87.080967    32.466114    26.766256     194.5662    171.13877    479.76877   -36505.268    268.15402 
   13500    56.882817    56.882817    56.882817    11.039394   -85.394829    248.32145   -1.2770372    -113.5292    119.79005    479.73481    -36501.22    265.91984 
   13550    56.885608    56.885608    56.885608   -126.19796   -185.37594    508.70642   -179.35941    423.41424   -13.858531    479.50295   -36503.521    268.16696 
   13600    56.883271    56.883271    56.883271    7.7697774   -20.829806    222.97461    14.108163    186.98596    30.030976    479.68782   -36502.467    268.03814 
   13650    56.880992    56.880992    56.880992    129.73929    134.60778    645.54523    52.275088    63.182989    202.33501     479.8583   -36497.797     265.3611 
   13700    56.883536    56.883536    56.883536    20.036436   -37.388856    2.1414746    13.804319   -311.20972    83.693844    479.76485   -36499.037    266.84377 
   13750    56.886699    56.886699    56.886699   -119.60191   -21.258941    296.53074   -184.20056     261.5136   -153.34624    479.46715   -36500.644    268.58652 
   13800    56.884057    56.884057    56.884057    57.499664    11.151808    326.27072    108.74949    174.74972    52.597694    479.54802   -36495.958    265.89087 
   13850    56.882384    56.882384    56.882384    41.858702    50.551686    36.606693   -58.438601    342.99702    133.46302    479.72612   -36502.253     270.9349 
   13900    56.883933    56.883933    56.883933    20.025314    46.874906     92.55214   -10.333844    372.77583    23.534881    479.59522   -36499.628    269.68676 
   13950    56.887095    56.887095    56.887095   -81.994839   -39.117717   -8.5912751   -99.861373     347.1005   -107.00543    479.37735   -36499.046    269.87428 
   14000    56.885961    56.885961    56.885961   -15.150204    35.574007    569.58096   -120.44713    116.68762    39.422512    479.52867   -36497.156    269.13761 
   14050    56.883223    56.883223    56.883223     71.72275   -26.049342   -70.551702    115.22173   -62.024451    125.99586    479.63793   -36498.583    270.73053 
   14100    56.884343    56.884343    56.884343    47.340636   -3.1082221    93.785561   -57.011195    354.76971    202.14132    479.67695    -36495.75    269.31997 
   14150    56.887212    56.887212    56.887212   -55.697285   -25.085652    50.028153   -2.3125438   -52.208526   -139.69366    479.53529   -36496.282    270.27759 
   14200    56.886997    56.886997    56.886997    3.9619965    -13.11553    716.62053   -83.996182    237.00521     108.9977    479.42347   -36493.867    269.15885 
   14250    56.885501    56.885501    56.885501    26.191782   -54.725124    59.605518    81.992712    325.58987    51.307757    479.53138   -36495.107    270.61429 
   14300    56.885732    56.885732    56.885732    122.64097    26.009676     45.04396    12.225796   -182.85627    329.68743    479.60266   -36493.471    270.03763 
   14350    56.888853    56.888853    56.888853   -78.200624   -120.07071    296.56326   -116.43934    198.25175    1.9081829     479.3526   -36495.543     272.0728 
   14400    56.888301    56.888301    56.888301    34.735356     24.40051    359.98096    85.186215    323.92211   -5.3806591    479.36827   -36493.947    271.51493 
   14450    56.887517    56.887517    56.887517   -37.240188    10.622599    223.70837   -203.19189    506.70304    80.848725    479.43173   -36495.427    273.12083 
   14500    56.886974    56.886974    56.886974    68.439582   -1.9800165    480.55093    66.640628    109.46415    140.65813    479.53439    -36493.29    272.17676 
   14550    56.889182    56.889182    56.889182   -55.682303    -39.50121    62.839341   -136.77517    356.02004    9.2294733    479.47272   -36494.711    273.73873 
   14600    56.889012    56.889012    56.889012   -28.985119   -59.231916    143.15681   -98.993684    284.83671    71.270241    479.39234   -36491.986    272.37513 
   14650    56.887361    56.887361    56.887361    78.585364    133.42277    180.28344   -1.5960223    351.34016    103.92935    479.50717   -36491.714    272.73443 
   14700     56.88862     56.88862     56.88862   -58.734077   -109.27115    144.76412   -81.900589    324.82482    14.969513    479.32746   -36496.283    276.50653 
   14750    56.888985    56.888985    56.888985    2.8537523   -3.9073304    100.39173   -66.283683   -51.740094     78.75227    479.40884   -36490.696    273.11182 
   14800    56.888907    56.888907    56.888907   -19.161858    63.275425    304.96605   -60.661225   -184.39152   -60.099773    479.39286   -36491.934    274.52754 
   14850    56.888173    56.888173    56.888173    109.46163    47.787793    482.24664   -58.210391    312.80291     338.8075     479.3572   -36490.365    273.96442 
   14900    56.890606    56.890606    56.890606   -95.053114   0.02339692    234.20764   -116.76286    363.88011   -168.41988    479.28374   -36492.375    275.92029 
   14950    56.889994    56.889994    56.889994   -5.0220196   -183.77503    297.69196    -38.54847    229.39038    207.25744    479.32477   -36488.616    273.80589 
   15000    56.888459    56.888459    56.888459    46.855633    78.737891    43.532476    36.647109   -85.391552    25.181898    479.41095    -36490.19    275.44536 
   15050    56.888954    56.888954    56.888954   -9.6023083   -45.904425     305.7765   -87.367039   -191.23464    104.46454    479.41519   -36491.154    276.65452 
   15100    56.890451    56.890451    56.890451   -56.774675   -103.84046    701.64359   -109.49569    385.20334    43.012124    479.41536   -36489.274    275.85398 
   15150    56.890424    56.890424    56.890424   -48.379254   -153.65101    267.55226   -105.85689    477.15049    114.37015    479.35497     -36491.3    277.80969 
   15200    56.888784    56.888784    56.888784    87.634494    6.1356522    197.78855    60.741603   -12.181047    196.02623    479.40336    -36488.51    276.36227 
   15250    56.889785    56.889785    56.889785    17.949486    16.762174    294.13683   -57.338962    429.12079    94.425247    479.36916   -36487.023    275.82512 
   15300    56.891642    56.891642    56.891642   -16.241548    -170.6282    219.16148   -33.433419    583.05718    155.33698    479.32516    -36484.64    274.65311 
   15350    56.891835    56.891835    56.891835   -91.586952    -42.59379    100.99214   -185.66837     179.8719   -46.498693    479.14476   -36491.454    279.96609 
   15400    56.888615    56.888615    56.888615     93.52794     17.90775    465.01978    101.62042    116.41115    161.05564    479.46333   -36484.232     275.3798 
   15450    56.889808    56.889808    56.889808    24.496751    21.211802    517.52248   -41.941334    297.61606    94.219784    479.34024   -36492.192    281.49334 
   15500    56.893711    56.893711    56.893711   -79.327417    17.560948    70.059223   -208.20825   -23.227965   -47.334947     479.1842   -36483.487    275.85208 
   15550    56.894081    56.894081    56.894081   -110.56586   -192.66487    189.12875   -118.01076    148.14697   -21.021957    479.15144   -36486.493    278.46794 
   15600    56.890352    56.890352    56.890352    75.978322    172.69339    4.7603465   -12.268976   -42.363462    67.510555    479.38252   -36485.173    278.03425 
   15650    56.890031    56.890031    56.890031     96.64499   -45.235391    308.87333    164.63391    469.71314    170.53645    479.36643   -36487.039    279.84381 
   15700    56.894261    56.894261    56.894261   -64.779364  -0.62616814   -166.80706    -189.6787    424.00093   -4.0332253    479.10039    -36483.87    278.09467 
   15750    56.895239    56.895239    56.895239   -153.86075   -166.33989    200.78019   -226.81014    501.13317   -68.432202    479.14266   -36484.831    279.25601 
   15800    56.890182    56.890182    56.890182    109.47489    85.922129    452.80665    101.99214    326.29801    140.51039     479.3918   -36485.302     280.0696 
   15850     56.89035     56.89035     56.89035    129.72671    269.95725    98.021145   -35.161723    180.41164    154.38459    479.46015   -36481.614    277.94646 
   15900    56.895714    56.895714    56.895714   -120.26386   -167.85487    275.91883   -169.06464    502.69163   -23.872081    478.98415   -36484.823    280.68573 
   15950    56.895102    56.895102    56.895102      1.02705    5.6256019    87.534118   -127.80941     20.20251    125.26495    479.07684   -36479.801     277.6167 
   16000    56.892119    56.892119    56.892119    4.7798054   -50.749444   -4.5923752    72.843386    352.70082   -7.7545262    479.26858    -36484.82     281.6239 
   16050    56.890863    56.890863    56.890863    132.03736    130.46402   -139.29024    177.70368    278.04121    87.944372    479.36324   -36482.017    280.11367 
   16100    56.895353    56.895353    56.895353   -124.30315   -227.30463    161.01512   -141.70884    22.195065   -3.8959851    479.07842    -36484.77     282.5132 
   16150    56.896306    56.896306    56.896306   -35.547615   -21.799319    372.23243   -9.2031044    434.40403   -75.640422    478.97088   -36479.637    279.35484 
   16200    56.894415    56.894415    56.894415    3.8988613    38.419817    131.08891   -105.90283    161.50978    79.179594    479.16231   -36483.752    282.71271 
   16250    56.893072    56.893072    56.893072    79.305946    22.663096    165.20339    120.62195    550.87848     94.63279    479.26593     -36480.1    280.59077 
   16300     56.89519     56.89519     56.89519   -9.8924863   -0.6872959    320.95895    86.985758   -128.93764   -115.97592    479.03968    -36481.33    281.90493 
   16350    56.897382    56.897382    56.897382   -61.315561   -189.29669    634.81577    -54.13282    360.77737    59.482827    478.97039   -36480.244    281.58518 
   16400    56.896242    56.896242    56.896242   -51.190417   -111.86702    82.077266    23.031555    110.31173   -64.735788    479.10585   -36480.512    282.22032 
   16450    56.892598    56.892598    56.892598    91.000737    76.839873    184.33641    61.303641     39.42518     134.8587    479.25297   -36482.957    284.38789 
   16500    56.893676    56.893676    56.893676    113.26595     101.7218   -145.76175    4.2529178    370.77596    233.82312    479.30844   -36477.056    280.65897 
   16550    56.899087    56.899087    56.899087   -166.69439   -76.455215    11.273166   -196.12207    366.13411   -227.50588    478.89744   -36480.716    283.67129 
   16600     56.89754     56.89754     56.89754   -82.928843   -94.856268    595.59306   -91.094291    402.34108   -62.835969    479.03752   -36477.149    281.58546 
   16650    56.893507    56.893507    56.893507    85.482249     70.02492    146.72035     183.6632   -114.76767    2.7586236    479.25058   -36482.221     285.5919 
   16700    56.895371    56.895371    56.895371    29.242499   -36.844139    102.42887   -34.295597   -236.34988    158.86723    479.12742    -36480.65    284.91048 
   16750    56.899242    56.899242    56.899242   -133.97359   -189.87329   -2.5233558   -149.70926    308.96016   -62.338205    478.81933   -36480.302    285.08948 
   16800     56.89736     56.89736     56.89736    -42.21128   -152.62765    151.60119    55.818335    353.45612   -29.824528    479.03421   -36475.564    282.16438 
   16850    56.893391    56.893391    56.893391    126.68614    143.15799   -129.78255    51.078636    264.51641    185.82179    479.27887   -36477.734    284.10823 
   16900    56.894884    56.894884    56.894884    18.389256    33.022407    139.86264    31.334208    48.536593    -9.188847    479.09206   -36480.696    286.60557 
   16950    56.898539    56.898539    56.898539   -12.804635   -73.880937    308.38174    24.667248    102.78475    10.799782    478.98415   -36471.667    280.64556 
   17000    56.898567    56.898567    56.898567    -166.8334   -318.53861    261.78106   -114.40747    248.62927   -67.554108    478.93747   -36480.812    287.49934 
   17050    56.894072    56.894072    56.894072    174.08261    181.10178    366.44716    128.37928   -121.22715    212.76676    479.15252   -36477.414    285.50288 
   17100    56.897545    56.897545    56.897545   -33.210443   -10.415349    528.10031   -95.581551     376.3917    6.3655691     479.0846   -36476.858    285.51089 
   17150    56.900399    56.900399    56.900399    -127.7804   -230.66536    562.17382    33.370157    172.44746   -186.04601    478.86504   -36475.928    285.25104 
   17200     56.89737     56.89737     56.89737    14.858068    48.547291     285.2168    7.7513973    31.433568   -11.724484    479.05702   -36475.227    285.15371 
   17250    56.895166    56.895166    56.895166    118.24412    37.743761   -46.854611    149.12933    215.83618    167.85926     479.1731    -36475.58    285.79471 
   17300    56.898769    56.898769    56.898769    35.926509    39.911572    85.134074    106.52294    419.65248    -38.65499    479.03692   -36471.852    283.55397 
   17350    56.901476    56.901476    56.901476   -180.36056   -141.64241    274.06502   -192.22136    230.32788    -207.2179    478.68372    -36477.36    287.82397 
   17400    56.897641    56.897641    56.897641    74.546656   -22.614377    10.146913    196.49332    413.68078     49.76102    478.93987   -36473.785    285.68451 
   17450    56.896932    56.896932    56.896932    49.535166    165.97287    415.38609    43.716308    84.968855   -61.083679    479.05294   -36476.859    288.23247 
   17500         56.9         56.9         56.9   -81.307318   -117.66651     439.7847   -13.920099    237.06699   -112.33534    478.88385   -36475.984    287.99008 
   17550    56.900448    56.900448    56.900448   -51.675045   -47.685359   -108.02342   -80.208059    373.30326   -27.131718    478.82447   -36474.303    287.17715 
   17600    56.898187    56.898187    56.898187    14.245509   -24.822849    83.338347    14.056305    217.53838     53.50307    478.96609   -36474.852    287.93118 
   17650    56.897512    56.897512    56.897512    92.916973    34.009693    86.239644    134.24025     396.7647    110.50098    479.12552   -36469.551    284.55683 
   17700    56.900523    56.900523    56.900523   -65.221952   -31.546235     329.6831   -58.522486   -21.882894   -105.59713    478.78555   -36475.898    289.39429 
   17750    56.901025    56.901025    56.901025    50.774743   -71.077213    326.51575    115.03504    122.29626     108.3664    478.79943   -36467.539    283.86121 
   17800    56.900786    56.900786    56.900786   -60.399228   -59.232473    17.679375   -121.02071     383.1843  -0.94450644    478.89302   -36472.929    288.01699 
   17850    56.898885    56.898885    56.898885    51.889462    21.461743   -106.86635    70.720234   -33.949277    63.486408    478.96574   -36474.015    289.13842 
   17900     56.89887     56.89887     56.89887   -1.8572999   -57.578366    78.447044    39.687414    517.19174    12.319053    478.92716   -36476.015     290.9011 
   17950    56.901286    56.901286    56.901286   -84.676158   -101.36299    104.72555    -39.34843      391.172   -113.31705    478.79643   -36470.845    287.60354 
   18000    56.900863    56.900863    56.900863   -7.2039125   -133.93108    138.96773    67.836861    257.79532    44.482481    478.75329   -36472.136    288.86297 
   18050    56.899079    56.899079    56.899079    33.890866    21.778321    123.17762    93.262497     423.5941    -13.36822    478.89871   -36471.793    288.96082 
   18100    56.899822    56.899822    56.899822    79.771296    17.590111    245.71514    35.900828    98.305422    185.82295    478.92678   -36469.364    287.58767 
   18150    56.902796    56.902796    56.902796   -119.96418   -35.861939    203.86329   -156.49004   -5.8450957   -167.54057    478.73472   -36473.081    290.54298 
   18200    56.901628    56.901628    56.901628   -16.542004   -129.92454    205.08459    53.932955    204.99032    26.365573    478.80578   -36470.705    289.20074 
   18250    56.899576    56.899576    56.899576    106.97648    67.395059   -13.454172    122.83403    441.25551    130.70034    478.92441   -36467.606    287.34527 
   18300    56.901164    56.901164    56.901164   -15.706688    -89.67526    92.328409    63.422843    181.54828   -20.867649    478.80292   -36472.438    291.08109 
   18350    56.901959    56.901959    56.901959   -19.834482   -127.18268    818.73987   -10.441325    40.206821    78.120562     478.8647   -36466.372     287.1258 
   18400    56.901838    56.901838    56.901838    -57.22142    -79.76832    214.61369   -10.526403    79.505524   -81.369537    478.83158   -36472.805    291.98154 
   18450    56.900672    56.900672    56.900672    14.577977   -46.539506    319.81181    18.723834    155.82258    71.549601    478.94507    -36469.86    290.22739 
   18500    56.900791    56.900791    56.900791    64.472862   -6.9038745    60.088749    115.04193    101.02906    85.280529    478.82262   -36467.652    288.98767 
   18550    56.902627    56.902627    56.902627   -68.282136   -66.280978     357.2449    23.901883    415.54415   -162.46731    478.82944   -36470.486    291.30047 
   18600    56.902356    56.902356    56.902356    30.544851   -103.07124    295.87863    162.63439    230.47288    32.071408    478.77135   -36465.289    287.94819 
   18650    56.902716    56.902716    56.902716   -29.087181     26.46055    319.38071    29.573316    331.33738   -143.29541     478.7619   -36470.661    292.04574 
   18700    56.902556    56.902556    56.902556   -38.740462   -148.43534    443.04221    33.970324   -29.495858   -1.7563655    478.66797   -36470.863    292.49436 
   18750    56.902017    56.902017    56.902017    40.209098     50.13563    266.39934     143.0576    149.97898   -72.565936     478.7161   -36467.328    290.30636 
   18800    56.902739    56.902739    56.902739   -44.561075   -166.50627    108.05663      59.4161    233.35048   -26.593058    478.78463   -36468.328    291.31118 
   18850    56.902455    56.902455    56.902455    7.6091179   -6.3864649    245.38936    111.12675    456.83569   -81.912932    478.80318   -36466.434    290.27402 
   18900    56.902478    56.902478    56.902478   -52.684446   -208.10316    129.19637    86.497832    225.56295   -36.448012     478.6883   -36471.431    294.09244 
   18950    56.901924    56.901924    56.901924    150.88448    107.23343    475.45353    256.76477    104.49233    88.655248    478.82657   -36460.623    286.76389 
   19000    56.904845    56.904845    56.904845   -56.082955   -131.49194    506.69535    9.0974236    215.81051   -45.854344     478.6046   -36466.406    291.13058 
   19050     56.90388     56.90388     56.90388    21.734336    94.764283    273.01524    82.619778    363.25449   -112.18105    478.67402   -36465.708    290.92348 
   19100    56.902119    56.902119    56.902119    58.887463   -45.623564     388.3154    60.423422    154.19493    161.86253    478.80017   -36465.271    290.89615 
   19150     56.90299     56.90299     56.90299     77.58439     9.296725    134.30042    188.42152    255.23382    35.034926    478.77022   -36465.306    291.19772 
   19200    56.906701    56.906701    56.906701   -179.68072   -208.29894     134.4181   -116.05113    132.44959   -214.69209    478.53096   -36469.856    294.68024 
   19250    56.904597    56.904597    56.904597    -67.91332   -152.49575    179.54843    54.704163    55.349855   -105.94837    478.59183   -36468.426    293.94645 
   19300    56.900673    56.900673    56.900673     156.6538     142.3088     303.9385    216.66298    222.93646    110.98963    478.89394   -36462.905    290.32298 
   19350    56.903949    56.903949    56.903949   -21.897213     3.875611     492.7644   -84.124337    420.71964    14.557088    478.76277     -36466.2    292.91438 
   19400     56.90604     56.90604     56.90604   -24.660184   -147.61785    317.79494    95.144586    401.22071   -21.507287    478.57467   -36462.244    290.39448 
   19450    56.904176    56.904176    56.904176    30.321321    116.72935     40.57744    30.787828    99.320771   -56.553218    478.76555   -36461.182    289.91054 
   19500    56.902541    56.902541    56.902541    65.386947   -19.019564    252.20932    158.47369    370.03889    56.706712    478.72692   -36465.346    293.11156 
   19550    56.903713    56.903713    56.903713    37.964816    61.996981    155.01477  -0.40581315    280.90521    52.303281    478.66235   -36464.588    292.83634 
   19600    56.906517    56.906517    56.906517    -163.8516   -125.91828   -9.1783079    -117.7395    33.595927   -247.89703    478.54196   -36468.109    295.57511 
   19650    56.904206    56.904206    56.904206    36.818347   -41.071972    77.507361    27.799236    434.53604    123.72778     478.6575    -36463.33    292.45932 
   19700    56.903019    56.903019    56.903019    10.535685     72.77921    499.54279    119.03947    249.15744   -160.21162    478.81832   -36467.166    295.41402 
   19750    56.904016    56.904016    56.904016    48.565688   -63.054086    433.67126    124.97374   -133.74995    83.777405    478.80564   -36462.063    292.06514 
   19800    56.907156    56.907156    56.907156    -111.9198   -72.951335    157.74151    -27.14055    285.46945   -235.66751    478.44132   -36463.167    293.09177 
   19850    56.904496    56.904496    56.904496    62.852719   -109.97575    342.39251    127.03046    197.40949    171.50344    478.78115   -36461.237    291.97365 
   19900    56.902451    56.902451    56.902451    93.848379    77.373843    437.27548    155.30352    206.81321     48.86777    478.86913   -36464.455    294.48097 
   19950    56.905626    56.905626    56.905626   -14.679569   -76.713473    299.82183    142.89491    614.60439   -110.22014    478.57433   -36464.807    294.96662 
   20000    56.907236    56.907236    56.907236   -156.57533   -113.86783    182.37676   -220.05685    248.25665   -135.80132    478.54323   -36465.179    295.46089 
Loop time of 2268.6 on 4 procs for 20000 steps with 10976 atoms

Pair  time (%) = 2133.34 (94.0376)
Neigh time (%) = 0 (0)
Comm  time (%) = 90.9722 (4.01005)
Outpt time (%) = 0.674216 (0.0297194)
Other time (%) = 43.6172 (1.92265)

Nlocal:    2744 ave 2744 max 2744 min
Histogram: 4 0 0 0 0 0 0 0 0 0
Nghost:    7043 ave 7043 max 7043 min
Histogram: 4 0 0 0 0 0 0 0 0 0
Neighs:    192080 ave 197279 max 186816 min
Histogram: 1 0 1 0 0 0 0 1 0 1
FullNghs:  0 ave 0 max 0 min
Histogram: 4 0 0 0 0 0 0 0 0 0

Total # of neighbors = 768320
Ave neighs/atom = 70
Neighbor list builds = 0
Dangerous builds = 0
# run 	200000

# Use this if debug
# run 	1000
# run 200
unfix 1

# Store final cell length for strain calculations
variable tmp equal "lx"
variable L0 equal ${tmp}
variable L0 equal 56.9072358451624
print "Initial Length, L0: ${L0}"
Initial Length, L0: 56.9072358451624

######################################
# DEFORMATION
reset_timestep	0
set atom * xrad 0 yrad 0 zrad 0 vxrad 0 vyrad 0 vzrad 0
  10976 settings made for xrad
  10976 settings made for yrad
  10976 settings made for zrad
  10976 settings made for vxrad
  10976 settings made for vyrad
  10976 settings made for vzrad
fix		1 all npt temp 300 300 1 y 0 0 1 z 0 0 1 drag 1

variable srate equal 1.0e10
# variable srate equal 1.0e9 # tiny time step

variable srate1 equal "v_srate / 1.0e12"
fix		2 all deform 1 x erate ${srate1} units box remap x
fix		2 all deform 1 x erate 0.01 units box remap x

# Output strain and stress info to file
# for units metal, pressure is in [bars] = 100 [kPa] = 1/10000 [GPa]
# p2, p3, p4 are in GPa
variable strain equal "(lx - v_L0)/v_L0"
variable p1 equal "v_strain"
variable p2 equal "-pxx/10000"
variable p3 equal "-pyy/10000"
variable p4 equal "-pzz/10000"

# fix def1 all print 100 "${p1} ${p2} ${p3} ${p4}" file Al99.eam_rad.alloy.def1.txt screen no
# IMPLEMENTATION HERE
variable p5 equal "-pxxrad/10000"

# VERSION add rad variables
variable p6 equal "-pyyrad/10000"
variable p7 equal "-pzzrad/10000"

# VERSION ublb coupled/decoupled scheme
# variable p6 equal "-pxxub/10000"
# variable p7 equal "-pxxlb/10000"

fix def1 all print 20 "${p1} ${p2} ${p3} ${p4} ${p5} ${p6} ${p7}" file Al99.eam_rad.alloy.def1.txt screen no

# Use cfg for AtomEye
# dump 		1 all cfg 250 dump.tensile_*.cfg mass type xs ys zs c_csym c_peratom fx fy fz
# dump_modify 1 element Al

# print output to a text file every n timesteps
# dump		2 all custom 50 dump.xyz_rvf_rad.tensile_*.txt mass type id x y z vx vy vz fx fy fz xrad yrad zrad vxrad vyrad vzrad fxrad fyrad fzrad # use for rad developement
# dump		2 all custom 50 dump.xyz_rvf_rad.tensile_*.txt mass type id x y z vx vy vz fx fy fz xrad yrad zrad vxrad vyrad vzrad fxrad fyrad fzrad xub yub zub vxub vyub vzub fxub fyub fzub xlb ylb zlb vxlb vylb vzlb fxlb fylb fzlb # use for ublb developement

# Display thermo
thermo 	50
# thermo 1
# thermo_style	custom step v_strain temp v_p2 v_p3 v_p4 ke pe press

# IMPLEMENTATION HERE
thermo_style	custom step v_strain temp v_p2 v_p3 v_p4 v_p5 v_p6 v_p7 ke pe press
run	20000
Memory usage per processor = 5.80699 Mbytes
Step strain Temp p2 p3 p4 p5 p6 p7 KinEng PotEng Press 
       0 1.2485982e-16    295.46089  0.011386783  0.022005685  0.013580132 -0.023931508 -0.023927989          nan    419.14972   -36465.179   -156.57533 
      50       0.0005    293.27274  0.057687975 0.0094716523  0.035426005 -0.011244232 0.00050504974          nan    416.04553   -36461.903   -341.95211 
     100        0.001    295.32862  0.076317447  0.027763491 0.0067757458 -0.023908526 -0.023910258          nan    418.96207   -36464.588   -369.52228 
     150       0.0015    293.83637   0.08997412  -0.01774816 -0.015297265  -0.03515721 -0.041225545          nan    416.84512    -36462.19   -189.76232 
     200        0.002    295.05614   0.13183994 -0.018516257  -0.03038331 -0.023894999 -0.023912689          nan    418.57551   -36463.586    -276.4679 
     250       0.0025    294.73529   0.20813863   0.02588544  0.013726901 -0.037170518  -0.01304438          nan    418.12035   -36462.748   -825.83657 
     300        0.003    294.53211   0.21659017  0.039304955   0.03387894 -0.023849597 -0.023873405          nan    417.83211   -36462.033   -965.91354 
     350       0.0035    291.94931   0.22239965 -0.019201956 0.0037376044 -0.040346484 -0.032744898          nan    414.16807   -36457.917   -689.78432 
     400        0.004    295.70627   0.25237531 -0.027170251  -0.02392998 -0.023874786  -0.02389824          nan    419.49782   -36462.737   -670.91693 
     450       0.0045    292.68531   0.29202952 -0.023491838 -0.010331117 -0.036295929 -0.015166105          nan    415.21219   -36457.917   -860.68854 
     500        0.005      292.482   0.35850609  0.019357532   0.01531217 -0.023814465  -0.02384861          nan    414.92376    -36457.05    -1310.586 
     550       0.0055    295.92075    0.3867294  0.045450563  0.041480782 -0.022929466 -0.018087443          nan    419.80208   -36461.315   -1578.8692 
     600        0.006    292.20901    0.3789053 -0.028725815 -0.011564242 -0.023822642 -0.023866664          nan    414.53649   -36455.415   -1128.7175 
     650       0.0065    296.18503   0.39848394 -0.023293402 -0.045250679 0.0010781047  -0.02933818          nan      420.177    -36460.38   -1099.7995 
     700        0.007    295.51506   0.46512284 0.0074086378 -0.003844022 -0.023798561 -0.023840156          nan    419.22655   -36458.747   -1562.2915 
     750       0.0075    292.64248     0.513846  0.027516936  0.027330985 -0.0063171999 -0.040928255          nan    415.15142   -36453.948   -1895.6464 
     800        0.008    296.41895   0.54268207  0.032511559  0.015154699 -0.023757923 -0.023815579          nan    420.50884   -36458.574   -1967.8278 
     850       0.0085    292.59701   0.54007776  -0.03363451 -0.015864837 -0.038105151 -0.016318818          nan    415.08692   -36452.399   -1635.2614 
     900        0.009    295.07787   0.56016248 -0.033815601 -0.019787595 -0.023777714 -0.023835929          nan    418.60635   -36455.139   -1688.5309 
     950       0.0095    297.02455   0.63079113 -0.0017021252  0.014841645 -0.0010923275  0.017244814          nan    421.36797   -36457.105   -2146.4355 
    1000         0.01    295.03759   0.66349274   0.02775836  0.037666319 -0.023719784 -0.023786528          nan     418.5492   -36453.478   -2429.7247 
    1050       0.0105    294.15311   0.68581031 0.0052588853 -0.00063910556 -0.036394304  -0.05233361          nan    417.29445   -36451.398   -2301.4336 
    1100        0.011    295.53332   0.69960463 -0.0017277438 -0.027028374 -0.023733824 -0.023803516          nan    419.25246   -36452.504   -2236.1617 
    1150       0.0115    292.66809   0.72355413 -0.020295756 -0.018589432 -0.018187443 -0.027609099          nan    415.18776   -36447.581   -2282.2298 
    1200        0.012    294.53672   0.78045285  0.016450376 0.0014808566 -0.023699645 -0.023773905          nan    417.83866    -36449.36   -2661.2803 
    1250       0.0125    295.60234   0.81107946  0.016678115  0.029100695 -0.041614668 -0.0030546894          nan    419.35037   -36449.985   -2856.1942 
    1300        0.013    294.76048   0.85176015 -0.019984258 -0.016228112 -0.023698322  -0.02377647          nan    418.15609    -36447.89   -2718.4926 
    1350       0.0135    298.05156   0.87830813 -0.0024854693 0.0032443436 -0.0099412793 0.0029530125          nan    422.82491   -36451.631   -2930.2233 
    1400        0.014    295.09491   0.89336657  0.017964663 -5.2913956e-05 -0.023678429  -0.02375997          nan    418.63053    -36446.51   -3037.5944 
    1450       0.0145    298.72412   0.94521544 -0.0040091964  0.016848399 -0.0087773085  0.028923916          nan    423.77903   -36450.715   -3193.5155 
    1500        0.015    295.69921    0.9494761 0.0033108082 0.0013225805 -0.023675989 -0.023753281          nan     419.4878   -36445.476    -3180.365 
    1550       0.0155    297.77775    1.0064101 -0.010525734 -0.0080838691 -0.042335282 -0.034574322          nan    422.43647   -36447.455   -3292.6683 
    1600        0.016    293.46688    1.0384923 -0.0063931646 -0.0080269744 -0.023642549 -0.023736113          nan    416.32095   -36440.358   -3413.5737 
    1650       0.0165    295.08776    1.0741857   0.01407183  0.022765425 -0.010609287 -0.012196731          nan    418.62038   -36441.659   -3703.4099 
    1700        0.017    295.59899     1.095631 0.0011802077  0.012010819 -0.023629846 -0.023714932          nan    419.34562   -36441.379   -3696.0736 
    1750       0.0175    295.02411    1.1106474 -0.0034155846 -0.025584683 -6.8460485e-06 -0.023626759          nan    418.53008   -36439.542   -3605.4905 
    1800        0.018    297.01713    1.1336487 -0.015525408 -0.0075209269 -0.023625812 -0.023726513          nan    421.35744   -36441.339   -3702.0079 
    1850       0.0185    300.17469    1.2136081   0.01693093  0.009021607 -0.070244108 -0.013580772          nan    425.83685   -36444.763   -4131.8687 
    1900        0.019    297.59555    1.2395656  0.016744376  0.027394894 -0.023593507 -0.023694061          nan      422.178   -36440.038   -4279.0163 
    1950       0.0195    298.39526    1.2563342  0.016793025  0.013007001 -0.0010777929  -0.03648408          nan     423.3125   -36440.093   -4287.1142 
    2000         0.02    295.72362    1.2558001 -0.027208958 -0.021504302 -0.023597278 -0.023698965          nan    419.52242   -36435.211   -4023.6229 
    2050       0.0205    296.20355    1.3003895 -0.0047702722 -0.010082862 -0.012160796 -0.022669805          nan    420.20327   -36434.781   -4285.1212 
    2100        0.021    298.17352    1.3489254   0.03515663  0.012070137 -0.023572367  -0.02366699          nan    422.99793   -36436.455   -4653.8404 
    2150       0.0215    298.76655    1.3873449 0.0049521174  0.016708745 -0.035886758 -0.036013515          nan    423.83922   -36436.162   -4696.6857 
    2200        0.022    296.78942    1.3942373 0.0048185234 -0.0076853575 -0.023560435 -0.023671989          nan    421.03441   -36432.205   -4637.9017 
    2250       0.0225    297.79753    1.4334741 -0.017478562 -0.0031714277 -0.027489218 -0.015494221          nan    422.46453   -36432.468   -4709.4138 
    2300        0.023    296.71425    1.4599895 -0.012727055  0.007527436  -0.02354833 -0.023663104          nan    420.92777   -36429.751   -4849.2995 
    2350       0.0235    299.91865    1.5161718  0.010189809 0.0083513142 -0.050385394 -0.028025006          nan    425.47362   -36433.095   -5115.7096 
    2400        0.024    296.41066    1.5402632  0.011921529  0.012230047 -0.023518039  -0.02363444          nan    420.49708   -36426.913   -5214.7159 
    2450       0.0245    294.47641    1.5593634 -0.00029469463 -0.0050295662   0.01248683 -0.033317459          nan    417.75309   -36422.936   -5180.1305 
    2500        0.025     296.3824    1.5864188 0.0076580227 -0.022102143 -0.023519685 -0.023634275          nan      420.457   -36424.396   -5239.9157 
    2550       0.0255    298.40447    1.6311695 -0.013509533 -0.00055213534 -0.0048116696 -0.019787602          nan    423.32556   -36426.011   -5390.3596 
    2600        0.026    297.53336    1.6582787 -0.0024034006 0.0079950822 -0.023503068  -0.02361782          nan    422.08978   -36423.498   -5546.2344 
    2650       0.0265    296.22877    1.6927174  0.014513097 0.0044758221 -0.017308276 -0.037094052          nan    420.23905   -36420.366   -5705.6878 
[...]
   13800        0.138    296.30988    7.7264835 -0.0027485387 0.0014745999 -0.021664219  -0.02214374          nan    420.35411    -35751.54   -25750.699 
   13850       0.1385       288.96    7.6998112 -0.034259768 -0.027161205 -0.046839816 -0.044960402          nan    409.92735   -35736.542   -25461.301 
   13900        0.139    293.85696    7.7812373  0.035025019  0.033328983  -0.02161218 -0.022096138          nan    416.87432   -35738.891   -26165.304 
   13950       0.1395    289.89032    7.7814708  0.023370264  0.035296534 -0.043434856 -0.028082693          nan    411.24713   -35728.648   -26133.792 
   14000         0.14    289.97753    7.7489252 -0.018827889 -0.011569022 -0.021619725 -0.022108609          nan    411.37085   -35724.164   -25728.428 
   14050       0.1405    289.98138    7.7846782 -0.041597514 -0.044381697 -0.033859718 -0.013656772          nan    411.37631    -35719.53    -25662.33 
   14100        0.141    295.03898    7.8491131  0.017537104 0.0018052168 -0.021576053 -0.022073389          nan    418.55117   -35722.062   -26228.185 
   14150       0.1415    289.83869    7.8484485   0.02580111  0.024830215 -0.053104862  0.024175015          nan    411.17389   -35710.016   -26330.266 
   14200        0.142    287.48236    7.8108341 0.0085789913  0.010934354 -0.021550259  -0.02202605          nan    407.83112   -35702.023   -26101.158 
   14250       0.1425    288.99463    7.8412594 -0.0067648427 -0.012278153 -0.020828849 -0.0061078017          nan    409.97648   -35699.511   -26074.055 
   14300        0.143    292.33699    7.8939512 -0.013743638 -0.014108475 -0.021543182 -0.022037332          nan    414.71806   -35699.554    -26220.33 
   14350       0.1435    290.77098     7.910269 -0.0070699886 -0.00059011484 -0.021990449 -0.020717644          nan    412.49647   -35692.626    -26342.03 
   14400        0.144    290.48838    7.9195567  0.028659963  0.010205896 -0.021503672 -0.021993415          nan    412.09556   -35687.517   -26528.075 
   14450       0.1445    291.70634    7.9319108  0.022068791 0.0095060177 -0.027068543 -0.014937731          nan    413.82339   -35684.536   -26544.952 
   14500        0.145     290.3184    7.9384843 -0.018436775 -0.0032479938 -0.021492961 -0.021985968          nan    411.85442   -35677.838   -26389.332 
   14550       0.1455     289.9328    7.9352757 -0.015114984 -0.012575446 -0.012779553  0.015047787          nan    411.30739   -35672.567   -26358.618 
   14600        0.146    291.72175    7.9901279 0.0050393041  0.028825262 -0.021455897 -0.021959973          nan    413.84526   -35670.363   -26746.642 
   14650       0.1465    290.11336    8.0253642  0.014348781  0.047754679  -0.03383809 -0.024213238          nan    411.56354   -35663.309   -26958.225 
   14700        0.147    288.79943    8.0297227  0.010749372 -0.011207202  -0.02143138 -0.021943031          nan    409.69956   -35656.672   -26764.216 
   14750       0.1475    290.26495    8.0182761 -0.00074894018 -0.034965089 -0.010219554 -0.014524965          nan    411.77859   -35653.958    -26608.54 
   14800        0.148    289.62924    7.9982341 -0.013213696  -0.03457433 -0.021419597 -0.021938119          nan    410.87675   -35648.292   -26501.487 
   14850       0.1485    286.96169    8.0185381  0.011143968  0.021288624 -0.037263153 -0.037510001          nan    407.09249    -35639.74   -26836.569 
   14900        0.149    288.98118    8.0558972  0.057960849  0.049637762  -0.02135682 -0.021867161          nan     409.9574   -35637.804   -27211.653 
   14950       0.1495    289.01778    7.9996903 -0.014742261 -0.0039228924 -0.023092358 -0.024018247          nan    410.00932   -35633.085   -26603.417 
   15000         0.15    286.62174    7.9692228 -0.082468419 -0.040347847 -0.021387281  -0.02190798          nan    406.61023   -35624.891   -26154.689 
   15050       0.1505    292.46993    8.0166851 0.0033424006  0.012080427 -0.057559097 0.00074201713          nan    414.90664   -35628.411   -26773.693 
   15100        0.151    287.89803    7.9844486  0.053813876  0.037807227 -0.021314522 -0.021815811          nan     408.4208   -35617.137   -26920.232 
   15150       0.1515    290.38834    7.9629307  0.022582597  0.028063389 0.0024728421 -0.039781396          nan    411.95364   -35615.915   -26711.922 
   15200        0.152    294.28424    7.8321697 -0.026459244 -0.0055005615 -0.021342633 -0.021850446          nan    417.48048   -35616.731     -26000.7 
   15250       0.1525    290.47009    7.7014074 -0.082931084  -0.03448637 -0.036380052  0.021422051          nan    412.06961   -35606.676   -25279.966 
   15300        0.153     296.6385    7.6319036  0.050008002  0.023540494 -0.021281826 -0.021770263          nan     420.8203   -35610.867    -25684.84 
   15350       0.1535    299.41614    7.4387776  0.064281831  0.050601561 -0.019007266 -0.00022081743          nan    424.76074   -35610.332    -25178.87 
   15400        0.154    301.29052    7.1592265 -0.017327003 -0.0064242405 -0.021279986 -0.021760923          nan     427.4198   -35608.713   -23784.918 
   15450       0.1545    308.72795    6.9173589 -0.051089066 -0.029140471 -0.028808667 -0.045405583          nan    437.97076   -35615.146   -22790.431 
   15500        0.155    319.92192    6.6649972 0.0026873248   0.01730906 -0.021278672 -0.021734886          nan    453.85087   -35627.159   -22283.312 
   15550       0.1555    322.06963    6.3248071  0.010005928  0.032679379  -0.02329119 -0.050715912          nan    456.89767   -35626.628   -21224.975 
   15600        0.156    328.55422    5.9077002  0.027397498  0.005701724 -0.021263396 -0.021690671          nan    466.09691   -35632.644   -19802.665 
   15650       0.1565     340.8582    5.5442611  0.021091368  0.005564779 -0.033105892 -0.060363983          nan     483.5517   -35647.318   -18569.724 
   15700        0.157    346.27958    5.0842955 -0.031775185  0.023820014 -0.021313757 -0.021716917          nan    491.24263   -35652.705   -16921.135 
   15750       0.1575    355.18296     4.635059  0.025094704 -0.0039712163 -0.026252778  0.022865535          nan    503.87324   -35663.569   -15520.608 
   15800        0.158    361.10523    4.1971544  0.017246741  0.020451469 -0.021369583 -0.021731806          nan    512.27475   -35670.744   -14116.176 
   15850       0.1585    369.55096    3.7466142   0.02074527  0.038331722 -0.027988219 -0.030471406          nan    524.25612    -35682.06   -12685.637 
   15900        0.159     375.5655    3.3742521 -0.021095012  0.059274151 -0.021487492 -0.021806113          nan    532.78852   -35690.376   -11374.771 
   15950       0.1595    379.04177    3.0432665 -0.014446619 -0.021673653 -0.023298173 -0.0084002355          nan    537.72006   -35695.371   -10023.821 
   16000         0.16    379.92678    2.8276468  0.010064476 -0.041742038 -0.021611816 -0.021889626          nan    538.97556   -35696.778   -9319.8974 
   16050       0.1605    387.54055     2.629365 0.0053976331 -0.005522166 -0.031314779 -0.026178136          nan    549.77669   -35707.895   -8764.1349 
   16100        0.161    386.68562    2.4122732  0.039903063   0.05222917 -0.021668264 -0.021898261          nan    548.56386   -35707.132   -8348.0181 
   16150       0.1615    389.44281    2.2004563  0.026635087  0.070211302 -0.032496369 -0.0029384758          nan    552.47529   -35711.714   -7657.6755 
   16200        0.162    390.16052    1.9870604  -0.01937689  0.019113238 -0.021818846 -0.022009635          nan    553.49345   -35713.576   -6622.6559 
   16250       0.1625    394.06034    1.8625449 -0.013048892 -0.068258688  0.013222293 -0.042594837          nan    559.02586   -35720.043   -5937.4577 
   16300        0.163     397.9926    1.8009305 -0.0021458278 -0.027445366 -0.021887647 -0.022074309          nan    564.60428    -35726.73   -5904.4643 
   16350       0.1635    401.40609    1.7957831  0.013860253  0.033540539 0.0091622999 0.0017583385          nan    569.44676   -35732.836   -6143.9463 
   16400        0.164    399.58754    1.7638636  0.011513189   0.05053043 -0.021883928 -0.022060133          nan    566.86691   -35731.643   -6086.3573 
   16450       0.1645    405.36139     1.723638 -0.0034006896  0.035872435 0.0041621635 -0.035145054          nan    575.05787   -35741.296   -5853.6991 
   16500        0.165     398.0605    1.6686895 -0.020190414 -0.017259672  -0.02196204 -0.022116348          nan     564.7006   -35732.428   -5437.4647 
   16550       0.1655    406.51705    1.7426292 -0.008646618 -0.0024595852  0.012927761 0.0056167737          nan    576.69732   -35745.959   -5771.7433 
   16600        0.166    405.32867     1.730211  0.013699956 -0.0003380409 -0.021967167 -0.022127992          nan    575.01144   -35745.843   -5811.9098 
   16650       0.1665    406.59924    1.7183125    0.0420151 0.0065652145 -0.045166279 -0.0032373935          nan    576.81392   -35749.278   -5889.6428 
   16700        0.167    407.51475    1.6777445  0.041000754 -0.034329629  -0.02201176 -0.022145778          nan    578.11269   -35752.262   -5614.7186 
   16750       0.1675    407.82254    1.6354209  0.014368307 -0.029455367 -0.021966123  -0.06350812          nan    578.54933    -35754.43   -5401.1128 
   16800        0.168    403.83679    1.5675996 -0.028416259 0.0098043631 -0.022040411 -0.022177254          nan    572.89502   -35750.554   -5163.2925 
   16850       0.1685    412.57274    1.5842888 0.0067690676   0.01401804 -0.0097740948 -0.068674721          nan     585.2881   -35764.753   -5350.2531 
   16900        0.169    406.63033    1.5628295 -0.018169853  0.051586882 -0.022047638 -0.022203262          nan    576.85803    -35758.15   -5320.8218 
   16950       0.1695    409.86583    1.5422848 -0.00080168736  0.016815172 -0.047554358 -0.031473889          nan    581.44801   -35764.622   -5194.3276 
   17000         0.17    413.08292    1.4859646 0.0057949976  0.019213777 -0.022101173 -0.022238045          nan    586.01186   -35771.107   -5036.5778 
   17050       0.1705    406.19138    1.4508524 -0.014719966 -0.039549717 0.0034215185  0.012404192          nan    576.23532   -35763.234   -4655.2757 
   17100        0.171    413.86931    1.4770525  0.015324763  0.041949202 -0.022098669 -0.022246354          nan    587.12745   -35776.077   -5114.4214 
   17150       0.1715    412.50221    1.4690727 -0.067223309   0.05927853   -0.0393197 -0.021684461          nan    585.18805   -35776.152   -4870.4263 
   17200        0.172    411.38542    1.4585425   -0.0402102  0.034977637 -0.022105657 -0.022255038          nan    583.60374   -35776.665   -4844.3666 
   17250       0.1725    411.14693    1.3940659 -0.0068661703 0.0073449551 -0.0025656891  0.027939157          nan     583.2654   -35778.413   -4648.4824 
   17300        0.173    411.27109    1.3577092  0.071411831 0.0044979415 -0.022108994 -0.022245029          nan    583.44155    -35780.59   -4778.7299 
   17350       0.1735    409.24467    1.3283691  0.021427888 0.00078017032 -0.061729397 0.0053056777          nan     580.5668    -35779.78   -4501.9238 
   17400        0.174    407.79077    1.2902152 -0.019359244 -0.033973845 -0.022166025 -0.022291648          nan    578.50426   -35779.733   -4122.9403 
   17450       0.1745    409.64402    1.2880231   0.02784765 -0.019019509 -0.052001315  0.011784461          nan    581.13333   -35784.431   -4322.8374 
   17500        0.175    408.54452    1.3171809 0.0080497279 -0.00073097733 -0.022170425 -0.022290987          nan    579.57355   -35784.929   -4414.9989 
   17550       0.1755     411.0385    1.3251673   0.03833705  0.013007667 -0.003548464  0.016270725          nan    583.11159    -35790.56   -4588.3734 
   17600        0.176    404.61257    1.3204611  0.018842217 -0.070001359 -0.022179504 -0.022305044          nan    573.99556   -35783.533   -4231.0067 
   17650       0.1765     410.7671    1.3272333  0.045537407 -0.031600715 -0.002123369 -0.018912681          nan    582.72657    -35794.36   -4470.5666 
   17700        0.177    410.77912    1.2984699 0.0050552697   0.01886508 -0.022175407 -0.022307984          nan    582.74362   -35796.494   -4407.9674 
   17750       0.1775    405.87036    1.2809837 -0.051061548  0.060217982 -0.029761392 -0.052860905          nan     575.7799   -35791.571   -4300.4669 
   17800        0.178    410.09707    1.2650152 -0.013359407  0.068870941 -0.022199597 -0.022326928          nan    581.77604   -35799.636   -4401.7559 
   17850       0.1785    406.27031    1.2220397 -0.078646859  0.014455914 -0.029691902 -0.044510771          nan    576.34728   -35796.322    -3859.496 
   17900        0.179    412.48993    1.2166644 0.0077532856 0.0019136803 -0.022221303 -0.022328027          nan    585.17063   -35807.268   -4087.7714 
   17950       0.1795    404.77749    1.2472991  0.056447597 -0.018268344 -0.053585793 -0.0087621524          nan    574.22953   -35798.385   -4284.9279 
   18000         0.18    404.59168    1.2683907 0.0045549183 -0.015451653 -0.022201433 -0.022334472          nan    573.96593   -35800.184   -4191.6465 
   18050       0.1805    406.24532    1.2785388 -0.019264735    0.0195639 -0.029821416 -0.026984873          nan    576.31183   -35804.553   -4262.7933 
   18100        0.181    401.89463    1.3194536 -0.006541122 0.0022045589 -0.022203146 -0.022333406          nan    570.13982   -35800.421   -4383.7235 
   18150       0.1815    404.14414    1.2998056 -0.011477391  0.042437356 -0.033044788 -0.022138055          nan    573.33104     -35805.6   -4435.8852 
   18200        0.182    402.69466     1.304922 -0.0082823506 -0.016952631 -0.022209651 -0.022344721          nan    571.27477   -35805.558   -4265.6232 
   18250       0.1825    404.66663    1.2871054 -0.0047798632 -0.0021487542 -0.059723467 0.0084884501          nan    574.07226   -35810.335   -4267.2558 
   18300        0.183    404.58946    1.2923382  0.012759673 0.00025999061 -0.022212054 -0.022332899          nan    573.96279   -35812.233    -4351.193 
   18350       0.1835    403.44418    1.2525263  0.014775288 -0.0035062623 -0.043584799 -0.031622133          nan    572.33806   -35812.604   -4212.6512 
   18400        0.184    404.68895    1.2837895  -0.03612358  0.029918596 -0.022213682 -0.022355831          nan    574.10393   -35816.376   -4258.6151 
   18450       0.1845     403.0725    1.2671802 0.0032072494  0.017435908 0.0070901345 -0.040346142          nan    571.81078   -35816.078   -4292.7445 
   18500        0.185    404.69095    1.2529339  0.015144581 -0.013482451 -0.022231462 -0.022352667          nan    574.10677   -35820.385   -4181.9867 
   18550       0.1855    401.99799    1.2339585  0.041586476 -0.029730402 -0.041538332 -0.055704777          nan    570.28644   -35818.544   -4152.7152 
   18600        0.186    400.82536    1.2703028 0.0055480561 -0.039046025 -0.022237574 -0.022354766          nan    568.62291   -35818.852   -4122.6828 
   18650       0.1865     402.2406    1.3418276 -0.0059898593 -0.0094712951  0.018616319 -0.0094848157          nan    570.63062   -35822.771   -4421.2214 
   18700        0.187    398.75275    1.3671674  0.016542326  0.059735802 -0.022210707 -0.022328664          nan    565.68265   -35819.695    -4811.485 
   18750       0.1875    403.43544    1.3421725 0.0091452405  0.057807971 -0.022515802 -0.013766216          nan    572.32566   -35828.255   -4697.0856 
   18800        0.188    399.69444    1.2887816  -0.06009271 -0.027013274 -0.022252817 -0.022381756          nan    567.01857   -35824.825   -4005.5855 
   18850       0.1885    404.30493    1.2994755 -0.017934796 -0.032438439 -0.038073463 -0.029108679          nan    573.55915   -35833.254   -4163.6744 
   18900        0.189    393.39198    1.2819174  0.016664238  0.038376275 -0.022219709 -0.022348236          nan    558.07771   -35819.684   -4456.5263 
   18950       0.1895    400.18654    1.3486323  0.041089674  0.025774137 -0.0080791514 -0.021894525          nan    567.71667   -35831.197   -4718.3204 
   19000         0.19    397.88018    1.3380786 -0.0024057504 -0.0065765941 -0.022238671 -0.022377597          nan     564.4448   -35829.759   -4430.3207 
   19050       0.1905    395.72265    1.2608355  0.033726215 -0.076005524 -0.011645103 -0.011446756          nan    561.38405   -35828.523   -4061.8541 
   19100        0.191    395.84596    1.3014359 -0.020275048 0.0054240521 -0.022253421 -0.022374491          nan    561.55899   -35830.531   -4288.6163 
   19150       0.1915    399.14672    1.2925455  0.017427547  0.062836666   0.02750157 -0.061764997          nan    566.24154   -35837.029   -4576.0325 
   19200        0.192    400.52984     1.306795 -0.018733426  0.037956805  -0.02226165  -0.02239054          nan    568.20368   -35840.839   -4420.0611 
   19250       0.1925    396.51276    1.3183496 -0.037382034  -0.04583756 -0.024186801 -0.028285466          nan    562.50494    -35836.96   -4117.1002 
   19300        0.193    394.27349    1.3503012 0.0064326352 -0.020853792 -0.022246624 -0.022367629          nan    559.32823   -35835.576   -4452.9333 
   19350       0.1935    392.57904    1.3727875  0.068722683   0.04101264 -0.013264284 -0.014184511          nan    556.92444   -35834.898   -4941.7429 
   19400        0.194    394.18691    1.3814851  0.070259378 -0.016144152 -0.022243692 -0.022372329          nan    559.20541   -35838.954   -4785.3344 
   19450       0.1945    397.82924    1.3256543 -0.043462659 -0.043144624 -0.018202886 -0.016021721          nan    564.37253   -35845.888   -4130.1568 
   19500        0.195    391.95499    1.2864335 -0.047492329 -0.020975516 -0.022303423 -0.022412286          nan    556.03915   -35839.297   -4059.8855 
   19550       0.1955    394.98576    1.3571342  0.002894658  0.022816038 -0.045208366 -0.035197317          nan    560.33869   -35845.319   -4609.4829 
   19600        0.196    388.71922    1.3657999  0.034857979  0.054085438 -0.022239608  -0.02235767          nan    551.44878   -35838.123   -4849.1444 
   19650       0.1965    391.48875    1.3591392 0.0010046413   0.02211426 -0.052777433 -0.0083130858          nan    555.37773   -35843.742   -4607.5272 
   19700        0.197    388.63259    1.3483387 -0.0036523267 -0.060029417 -0.022278243 -0.022402376          nan    551.32588   -35841.348   -4282.1898 
   19750       0.1975    389.20137    1.3823025  -0.02686557  0.013266564 -0.013647045 -0.033646242          nan    552.13278   -35843.774   -4562.3451 
   19800        0.198    393.53346    1.3897544  0.032311664 0.0084938129 -0.022250094 -0.022388673          nan     558.2784   -35851.548   -4768.5328 
   19850       0.1985    383.94661    1.3787722 -0.013984136 -0.022041509 -0.037507515 -0.045609881          nan    544.67822   -35839.571   -4475.8219 
   19900        0.199    383.94404    1.3643796 0.0080654404 0.0023176823 -0.022243933 -0.022372973          nan    544.67457   -35841.164   -4582.5425 
   19950       0.1995    390.89761    1.3717939  0.047137796  0.022691103 -0.024022866  0.024155023          nan    554.53911   -35852.622   -4805.4094 
   20000          0.2    385.31393    1.3706464 -0.015604183 -0.033765673 -0.022269477 -0.022400791          nan    546.61793   -35846.284   -4404.2551 
Loop time of 2893.6 on 4 procs for 20000 steps with 10976 atoms

Pair  time (%) = 2688 (92.8949)
Neigh time (%) = 1.69389 (0.0585394)
Comm  time (%) = 109.949 (3.79973)
Outpt time (%) = 0.480678 (0.0166118)
Other time (%) = 93.4681 (3.23017)

Nlocal:    2744 ave 2762 max 2722 min
Histogram: 1 0 1 0 0 0 0 0 0 2
Nghost:    6334 ave 6398 max 6276 min
Histogram: 2 0 0 0 0 0 0 0 1 1
Neighs:    188234 ave 189874 max 186804 min
Histogram: 2 0 0 0 0 0 0 1 0 1
FullNghs:  0 ave 0 max 0 min
Histogram: 4 0 0 0 0 0 0 0 0 0

Total # of neighbors = 752936
Ave neighs/atom = 68.5984
Neighbor list builds = 110
Dangerous builds = 0

######################################
# SIMULATION DONE
print "All done"
All done
