LAMMPS (28 Jun 2014)
# Input file for uniaxial tensile loading of single crystal aluminum
# Mark Tschopp, November 2010

# ------------------------ INITIALIZATION ----------------------------
units 		metal
dimension	3
boundary	p	p	p
atom_style	atomic
variable latparam equal 4.05

# ----------------------- ATOM DEFINITION ----------------------------
lattice		fcc ${latparam}
lattice		fcc 4.05
Lattice spacing in x,y,z = 4.05 4.05 4.05
region		whole block 0 10 0 10 0 10
create_box	1 whole
Created orthogonal box = (0 0 0) to (40.5 40.5 40.5)
  1 by 2 by 2 MPI processor grid
lattice 	fcc ${latparam} orient x 1 0 0 orient y 0 1 0 orient z 0 0 1
lattice 	fcc 4.05 orient x 1 0 0 orient y 0 1 0 orient z 0 0 1
Lattice spacing in x,y,z = 4.05 4.05 4.05
create_atoms	1 region whole
Created 4000 atoms

# ------------------------ FORCE FIELDS ------------------------------
pair_style	eam/alloy
pair_coeff	* * Al99.PosFRho.ZeroRhoR.NegPhiR.eam.alloy Al

# ------------------------- SETTINGS ---------------------------------
compute csym all centro/atom fcc
compute peratom all pe/atom

######################################
# EQUILIBRATION
reset_timestep	0
timestep 0.001
velocity all create 300 12345 mom yes rot no
fix 1 all npt temp 300 300 1 iso 0 0 1 drag 1

# Set thermo output
thermo 1000
thermo_style custom step lx ly lz press pxx pyy pzz pe temp

# Run for at least 10 picosecond (assuming 1 fs timestep)
run 20000
Memory usage per processor = 3.04301 Mbytes
Step Lx Ly Lz Press Pxx Pyy Pzz PotEng Temp 
       0         40.5         40.5         40.5    2173.5077    2124.3745    2212.0385      2184.11   -13445.584          300 
    1000    40.552485    40.552485    40.552485    856.82349    845.32841    828.95022    896.19184   -13366.683    165.27868 
    2000    40.566258    40.566258    40.566258    257.79272     189.9054    287.50614    295.96662    -13362.05      178.929 
    3000    40.575176    40.575176    40.575176    96.256871    11.503931     191.1244    86.142279   -13355.539    189.32933 
    4000    40.582882    40.582882    40.582882    70.613209    22.198705    47.318861    142.32206   -13345.907    193.68576 
    5000    40.587915    40.587915    40.587915    173.54261    272.78725    232.30449    15.536074   -13339.814     204.6397 
    6000    40.594995    40.594995    40.594995    83.629681    78.303111   -12.440936    185.02687   -13332.917    213.53293 
    7000    40.602802    40.602802    40.602802   -37.470918   -61.427312    63.063877   -114.04932   -13327.223    224.00029 
    8000    40.607949    40.607949    40.607949   -21.508115   -73.784666    11.434424   -2.1741034   -13324.637    239.47341 
    9000    40.612636    40.612636    40.612636   -18.461885   -70.200043    96.907603   -82.093213   -13321.625    252.93088 
   10000    40.620905    40.620905    40.620905    -80.70984   -61.116492   -55.011361   -126.00167   -13312.177    252.51006 
   11000    40.626016    40.626016    40.626016   -117.32544   -469.41155    132.47698   -15.041742   -13308.772    262.22602 
   12000    40.626885    40.626885    40.626885    2.4315684    106.09429   -18.492391   -80.307191   -13306.747     272.9219 
   13000    40.632574    40.632574    40.632574    -25.39054   -141.00078   -186.74843     251.5776   -13303.128    278.75841 
   14000    40.633315    40.633315    40.633315    118.02541   -117.80709    148.54319    323.34013   -13299.113    282.08989 
   15000    40.637291    40.637291    40.637291    188.22109    183.09668    139.05137     242.5152   -13295.626    284.73176 
   16000    40.637459    40.637459    40.637459    177.89492    342.78239    136.41538    54.486995   -13294.352    289.97274 
   17000    40.640373    40.640373    40.640373    41.437838     120.4169    132.44566   -128.54904   -13296.475    300.22619 
   18000    40.640955    40.640955    40.640955     199.8021    148.15636    518.85864   -67.608707   -13291.682    295.58882 
   19000    40.642487    40.642487    40.642487    98.468373    127.40828   -24.000945    191.99779    -13290.38    296.26328 
   20000    40.645458    40.645458    40.645458   -50.702456     15.31758    56.990105   -224.41505   -13291.683    300.62082 
Loop time of 226.417 on 4 procs for 20000 steps with 4000 atoms

Pair  time (%) = 193.411 (85.4228)
Neigh time (%) = 0 (0)
Comm  time (%) = 26.0358 (11.499)
Outpt time (%) = 0.00289291 (0.00127769)
Other time (%) = 6.96664 (3.07691)

Nlocal:    1000 ave 1000 max 1000 min
Histogram: 4 0 0 0 0 0 0 0 0 0
Nghost:    4235 ave 4235 max 4235 min
Histogram: 4 0 0 0 0 0 0 0 0 0
Neighs:    70000 ave 72653 max 67302 min
Histogram: 1 0 1 0 0 0 0 1 0 1
FullNghs:  0 ave 0 max 0 min
Histogram: 4 0 0 0 0 0 0 0 0 0

Total # of neighbors = 280000
Ave neighs/atom = 70
Neighbor list builds = 0
Dangerous builds = 0
unfix 1

# Store final cell length for strain calculations
variable tmp equal "lx"
variable L0 equal ${tmp}
variable L0 equal 40.6454582735242
print "Initial Length, L0: ${L0}"
Initial Length, L0: 40.6454582735242

######################################
# DEFORMATION
reset_timestep	0

fix		1 all npt temp 300 300 1 y 0 0 1 z 0 0 1 drag 1
variable srate equal 1.0e10
variable srate1 equal "v_srate / 1.0e12"
fix		2 all deform 1 x erate ${srate1} units box remap x
fix		2 all deform 1 x erate 0.01 units box remap x

# Output strain and stress info to file
# for units metal, pressure is in [bars] = 100 [kPa] = 1/10000 [GPa]
# p2, p3, p4 are in GPa
variable strain equal "(lx - v_L0)/v_L0"
variable p1 equal "v_strain"
variable p2 equal "-pxx/10000"
variable p3 equal "-pyy/10000"
variable p4 equal "-pzz/10000"
fix def1 all print 20 "${p1} ${p2} ${p3} ${p4}" file  Al99.PosFRho.ZeroRhoR.NegPhiR.eam.alloy.def1.txt screen no

# Use cfg for AtomEye
#dump 		1 all cfg 250 dump.tensile_*.cfg id type xs ys zs c_csym c_peratom fx fy fz
#dump_modify 1 element Al

# Display thermo
thermo 	1000
thermo_style	custom step v_strain temp v_p2 v_p3 v_p4 ke pe press

run		20000
Memory usage per processor = 3.04301 Mbytes
Step strain Temp p2 p3 p4 KinEng PotEng Press 
       0 -6.9925917e-16    300.62082 -0.001531758 -0.0056990105  0.022441505     155.3943   -13291.683   -50.702456 
    1000         0.01    302.11676   0.64362649    0.0123875  0.023992436    156.16757   -13289.947   -2266.6881 
    2000         0.02     297.5122     1.260704 -0.025389247 0.0017758332    153.78743   -13282.216   -4123.6352 
    3000         0.03    300.36304    1.8977462  0.010198579 0.0052986822    155.26106   -13275.562   -6377.4782 
    4000         0.04    293.04449    2.5110544 -0.034030363 -0.016246923    151.47801    -13261.07   -8202.5904 
    5000         0.05    298.63789    3.0914495 -0.0099335335 -0.0024748827    154.36931    -13250.63    -10263.47 
    6000         0.06    299.96973    3.7151484 0.0042737458 -0.0069727373    155.05775    -13235.56   -12374.832 
    7000         0.07     298.5326    4.2993461  0.032287557 0.0073359729    154.31488    -13216.72   -14463.232 
    8000         0.08     300.9816    4.8569799 -0.00063033773  0.010802753     155.5808   -13197.563   -16223.841 
    9000         0.09    292.57501    5.3916368 -0.037221138 -0.026967754    151.23533     -13170.5    -17758.16 
   10000          0.1    296.92979     5.932086 -0.019419774 -0.011193913    153.48637   -13147.866   -19671.574 
   11000         0.11    299.10109    6.4632714 -0.014579516 0.0010232655    154.60874   -13121.899    -21499.05 
   12000         0.12    292.15606     6.930427  0.019336966 -0.013991897    151.01877   -13089.038    -23119.24 
   13000         0.13    296.32938    7.4150225 -0.016078682 0.0035127142    153.17601    -13059.79   -24674.855 
   14000         0.14     296.5678    7.8123074 -0.043032576 -0.055326784    153.29925   -13026.542    -25713.16 
   15000         0.15    285.44761    8.0711578 -0.00060483431 -0.0066926044     147.5511   -12985.788   -26879.535 
   16000         0.16    364.42268    3.9367822 -0.084465567   0.12000479    188.37421   -12997.171   -13241.071 
   17000         0.17    398.28089    1.5166298   0.03820342 -0.050502328     205.8759   -13025.048   -5014.4363 
   18000         0.18    414.63618    1.4611544 -0.0031436726 -0.038887331    214.33014   -13051.625   -4730.4112 
   19000         0.19    410.09611    1.5846885 -0.099799139 -0.050868566    211.98332   -13068.442   -4780.0694 
   20000          0.2    397.19889    1.9668573   0.12046981  0.077446806     205.3166   -13078.203   -7215.9132 
Loop time of 293.873 on 4 procs for 20000 steps with 4000 atoms

Pair  time (%) = 248.243 (84.4727)
Neigh time (%) = 0.458058 (0.155869)
Comm  time (%) = 34.7728 (11.8326)
Outpt time (%) = 0.00286561 (0.000975119)
Other time (%) = 10.3967 (3.53783)

Nlocal:    1000 ave 1037 max 985 min
Histogram: 2 1 0 0 0 0 0 0 0 1
Nghost:    3737 ave 3787 max 3709 min
Histogram: 2 0 0 0 1 0 0 0 0 1
Neighs:    68892 ave 72340 max 67106 min
Histogram: 1 1 1 0 0 0 0 0 0 1
FullNghs:  0 ave 0 max 0 min
Histogram: 4 0 0 0 0 0 0 0 0 0

Total # of neighbors = 275568
Ave neighs/atom = 68.892
Neighbor list builds = 77
Dangerous builds = 0

######################################
# SIMULATION DONE
print "All done"
All done
