LAMMPS (28 Jun 2014)
# Input file for uniaxial tensile loading of single crystal aluminum
# Mark Tschopp, November 2010

# ------------------------ INITIALIZATION ----------------------------
units 		metal
dimension	3
boundary	p	p	p
atom_style	atomic
variable latparam equal 4.05

# ----------------------- ATOM DEFINITION ----------------------------
lattice		fcc ${latparam}
lattice		fcc 4.05
Lattice spacing in x,y,z = 4.05 4.05 4.05
region		whole block 0 10 0 10 0 10
create_box	1 whole
Created orthogonal box = (0 0 0) to (40.5 40.5 40.5)
  1 by 2 by 2 MPI processor grid
lattice 	fcc ${latparam} orient x 1 0 0 orient y 0 1 0 orient z 0 0 1
lattice 	fcc 4.05 orient x 1 0 0 orient y 0 1 0 orient z 0 0 1
Lattice spacing in x,y,z = 4.05 4.05 4.05
create_atoms	1 region whole
Created 4000 atoms

# ------------------------ FORCE FIELDS ------------------------------
pair_style	eam/alloy
pair_coeff	* * Al99.negFRho.eam.alloy Al

# ------------------------- SETTINGS ---------------------------------
compute csym all centro/atom fcc
compute peratom all pe/atom

######################################
# EQUILIBRATION
reset_timestep	0
timestep 0.001
velocity all create 300 12345 mom yes rot no
fix 1 all npt temp 300 300 1 iso 0 0 1 drag 1

# Set thermo output
thermo 50
thermo_style custom step lx ly lz press pxx pyy pzz pe temp

# Run for at least 10 picosecond (assuming 1 fs timestep)
run 20000
Memory usage per processor = 3.04301 Mbytes
Step Lx Ly Lz Press Pxx Pyy Pzz PotEng Temp 
       0         40.5         40.5         40.5    2496.1243    2446.9912    2534.6552    2506.7266    -13444.32          300 
      50    40.561088    40.561088    40.561088    906.31227    835.98649    945.30454    937.64579    -13343.14    103.27302 
     100    40.636816    40.636816    40.636816   -4610.5156   -4605.1684   -4632.4017   -4593.9767    -13377.85    171.80975 
     150    40.566319    40.566319    40.566319    546.06885    511.00567    623.67813    503.52275   -13353.229    124.16323 
     200    40.511712    40.511712    40.511712    3546.8596    3642.8305     3485.554    3512.1944   -13359.536    137.90664 
     250    40.565794    40.565794    40.565794    164.87566    88.454902    216.06528    190.10681   -13363.821    146.72239 
     300    40.611201    40.611201    40.611201   -2466.5013   -2412.7701   -2483.8483   -2502.8855   -13364.431     149.2103 
     350    40.571289    40.571289    40.571289   -406.00588   -480.09726   -344.04688   -393.87349   -13371.659     163.7664 
     400    40.532285    40.532285    40.532285    2225.5845    2279.8742    2296.6252    2100.2541   -13364.175    150.41324 
     450    40.566057    40.566057    40.566057  -0.19743284   -42.320463   -34.127091    75.855256   -13367.399    157.36507 
     500    40.595939    40.595939    40.595939   -1611.6138   -1655.5841   -1479.4962   -1699.7612   -13363.725    151.33115 
     550    40.570783    40.570783    40.570783   -159.53742   -147.72274   -164.88975   -165.99977   -13365.055    154.75584 
     600    40.545065    40.545065    40.545065     1386.061    1414.5147    1433.3064    1310.3619   -13366.235    158.16292 
     650    40.566247    40.566247    40.566247    210.33641    181.81064    243.23268    205.96593   -13362.422    151.73943 
     700    40.589973    40.589973    40.589973   -1217.6936   -1343.9135   -1126.4597   -1182.7077   -13364.526     156.9335 
     750    40.572869    40.572869    40.572869   -248.15939   -284.22495   -260.99265   -199.26056    -13364.86    158.58246 
     800    40.551328    40.551328    40.551328    1208.9808    1078.6113    1322.5907    1225.7403   -13361.479    153.20372 
     850    40.567658    40.567658    40.567658    33.747208    25.250324    93.282375   -17.291075    -13366.49    163.91848 
     900    40.586543    40.586543    40.586543   -906.33317     -937.219   -840.60286   -941.17766   -13364.822    161.82837 
     950    40.575622    40.575622    40.575622   -240.30556   -256.08647   -189.55175   -275.27847   -13359.365    152.32236 
    1000    40.557592    40.557592    40.557592    866.26278    854.78686     838.4798    905.52169   -13365.444    165.23415 
    1050    40.567363    40.567363    40.567363    294.09355    230.70221    410.33296    241.24548   -13357.268    150.47871 
    1100    40.584421    40.584421    40.584421   -762.79881    -854.2879   -674.68141   -759.42712   -13364.786    166.16827 
    1150    40.575922    40.575922    40.575922   -140.32514   -199.81093   -28.082225   -193.08226    -13358.07    154.27396 
    1200    40.562367    40.562367    40.562367    595.58899    540.45409     626.2025    620.11036   -13364.149    167.17743 
    1250    40.569418    40.569418    40.569418    164.84619    91.002284    248.18097    155.35533   -13360.337    160.90235 
    1300    40.581877    40.581877    40.581877   -561.01793   -582.52191   -450.29716   -650.23473   -13361.915    165.08841 
    1350    40.575889    40.575889    40.575889   -185.86457   -338.51017   -117.67573   -101.40781   -13361.152    164.73295 
    1400    40.566093    40.566093    40.566093    566.28277    499.57057    642.12014     557.1576   -13358.706    161.14035 
    1450    40.572988    40.572988    40.572988   -10.278895    -55.82079   -10.872857    35.856961   -13361.087    166.86804 
    1500    40.579772    40.579772    40.579772   -267.79687   -333.10101    -176.5959   -293.69369    -13357.99    162.03131 
    1550    40.576779    40.576779    40.576779   -219.35489   -334.12818   -206.44377   -117.49272   -13361.653    170.23847 
    1600    40.568985    40.568985    40.568985    378.33747    358.93605    459.29989    316.77645   -13357.023    162.42361 
    1650    40.573332    40.573332    40.573332    119.91626    64.167742    160.22867    135.35238   -13359.723    168.77297 
    1700    40.580678    40.580678    40.580678   -351.63725   -404.87308   -357.08501   -292.95366   -13356.486    163.67225 
    1750    40.576795    40.576795    40.576795   -30.758863   -49.226081   -62.630939    19.580432   -13359.875    171.34166 
    1800    40.570661    40.570661    40.570661    304.34565     206.3174    338.20544    368.51412   -13355.574    164.18729 
    1850    40.573828    40.573828    40.573828    239.79365     159.3287    290.31664    269.73562   -13356.307    166.73276 
    1900    40.582503    40.582503    40.582503   -408.90193   -517.53207   -372.63015   -336.54357   -13360.198    175.41747 
    1950    40.578981    40.578981    40.578981   -119.78226   -76.861385   -79.222023   -203.26339   -13354.353    165.23401 
    2000    40.571473    40.571473    40.571473    262.81511    197.86982    290.30302    300.27248   -13360.754    178.77499 
    2050    40.574146    40.574146    40.574146    289.38485    437.31245    281.22364    149.61845   -13353.356    165.59993 
    2100    40.583693    40.583693    40.583693   -350.13502   -572.07792   -279.08281   -199.24433    -13357.14    174.07976 
    2150    40.580841    40.580841    40.580841   -113.94341   -184.29688   -82.502264   -75.031073    -13352.66    166.54828 
    2200    40.573194    40.573194    40.573194    267.64368    328.18135    146.31814    328.43153   -13356.676    175.46107 
    2250    40.574823    40.574823    40.574823    149.70637    251.90754    166.54109    30.670477   -13356.314    175.92173 
    2300    40.582498    40.582498    40.582498   -230.46854   -263.08879    -228.3077   -200.00913   -13355.417    175.32173 
    2350    40.582418    40.582418    40.582418   -260.25849   -229.07828   -222.02606   -329.67113    -13355.34    176.33135 
    2400    40.575077    40.575077    40.575077    305.54701    319.31318     231.4293    365.89856     -13353.2    173.33951 
    2450    40.576032    40.576032    40.576032    114.86567   -50.673857    230.68359    164.58727   -13354.091    176.21951 
    2500    40.581974    40.581974    40.581974   -87.231364   -224.01329   -51.782127    14.101329   -13352.926    175.09611 
    2550    40.583821    40.583821    40.583821   -279.47963   -328.12766   -350.29754   -160.01369   -13355.124     180.5143 
    2600    40.577163    40.577163    40.577163    318.19499    232.37927    394.35152    327.85417   -13350.008    171.77537 
    2650    40.578924    40.578924    40.578924    11.739242    143.73925   -45.898685   -62.622835   -13355.232    183.01606 
    2700    40.583496    40.583496    40.583496   -175.49833   -294.47554   -112.49333   -119.52612    -13351.12    176.21979 
    2750     40.58243     40.58243     40.58243   -38.606253   -64.098038   -86.032856    34.312134   -13352.989     180.9799 
    2800    40.578664    40.578664    40.578664    109.60892   -19.215998    192.36235    155.68039   -13350.693    177.70351 
    2850     40.57931     40.57931     40.57931    123.29326    80.694297    123.39002    165.79545   -13353.906    185.06391 
    2900    40.584624    40.584624    40.584624   -70.557322   -153.32007   -34.260987   -24.090906   -13350.191    179.02561 
    2950    40.585308    40.585308    40.585308   -181.32073   -152.68871   -311.82309    -79.45041     -13349.8    179.43796 
    3000    40.580351    40.580351    40.580351    103.71531    18.494909    200.47818     92.17283   -13354.306    189.29985 
    3050    40.580493    40.580493    40.580493    60.979578    42.859719    19.453759    120.62526   -13349.541    181.22321 
    3100    40.584685    40.584685    40.584685   -108.04343   -223.69754   -60.165059   -40.267698   -13351.756    186.66444 
    3150    40.585808    40.585808    40.585808   -138.90992   -192.07326   -101.91546   -122.74105    -13348.65     181.7963 
    3200    40.582777    40.582777    40.582777    56.447358   -25.450926    84.234074    110.55893   -13351.081    187.67148 
    3250    40.582868    40.582868    40.582868    201.30712    152.99978    135.96849    314.95309   -13348.246    183.32936 
    3300    40.587553    40.587553    40.587553    -209.7849   -372.30775   -88.107076   -168.93988   -13349.381    186.67999 
    3350    40.586529    40.586529    40.586529   -8.1823978    -68.64045   -15.284776    59.378032   -13347.726    184.63332 
    3400     40.58479     40.58479     40.58479    -3.725842   -169.09666    47.308485    110.61065   -13350.667    191.46685 
    3450    40.585431    40.585431    40.585431    8.8990287    -99.48523    70.662977    55.519339   -13348.345    188.12831 
    3500    40.587674    40.587674    40.587674   -73.838806   -199.15708    -60.74274    38.383397   -13348.965    190.47912 
    3550    40.586914    40.586914    40.586914   -56.331833   -69.993452    7.6075147   -106.60956   -13346.818    187.48093 
    3600    40.585141    40.585141    40.585141    110.29749    97.365114    59.108062     174.4193    -13346.71    188.40982 
    3650    40.586865    40.586865    40.586865   -4.7227069   -12.170669   -46.197712     44.20026    -13346.37     188.8978 
    3700    40.588471    40.588471    40.588471   -27.555736   -83.680499   -12.535441    13.548733   -13346.828    190.94847 
    3750    40.588328    40.588328    40.588328   -5.7961966    44.102563   -55.804091   -5.6870614   -13346.641    191.73582 
    3800    40.587475    40.587475    40.587475     21.57558   -95.864053    157.07086    3.5199346   -13346.632     192.8691 
    3850    40.588143    40.588143    40.588143    103.07604    50.769977    74.653701    183.80444   -13343.759    188.44242 
    3900    40.590046    40.590046    40.590046   -62.610833    40.611084   -164.35418   -64.089408   -13344.563    191.15836 
    3950    40.589007    40.589007    40.589007    27.153167   -116.20342    111.88637    85.776549   -13344.778    192.71579 
    4000    40.588098    40.588098    40.588098    64.497577    19.404082    38.420848     135.6678   -13344.798    193.90086 
    4050    40.589257    40.589257    40.589257    51.248449    25.442258    48.039905    80.263185   -13343.533    192.60261 
    4100    40.591419    40.591419    40.591419   -69.664761   -80.874535   -72.983048   -55.136699   -13347.265    200.97436 
    4150    40.591123    40.591123    40.591123    -59.23355   -170.67189   -23.122119    16.093361   -13342.907    193.67856 
    4200    40.589359    40.589359    40.589359    127.06541    103.05697    28.727123    249.41213   -13341.393    191.88979 
    4250    40.590348    40.590348    40.590348   -6.1790181   -95.260514    71.022847    5.7006128    -13344.14    198.34892 
    4300    40.592285    40.592285    40.592285   -100.59397   -135.09061    -92.53519   -74.156109   -13344.052    199.32068 
    4350     40.59139     40.59139     40.59139    31.205579   -16.902311    116.71982   -6.2007763   -13341.559    195.64111 
    4400    40.590826    40.590826    40.590826    6.6115091   -68.532513    33.398181    54.968859   -13344.362    202.20577 
    4450    40.592095    40.592095    40.592095     -3.28119    30.939981   -36.524337   -4.2592139   -13342.197    199.15618 
    4500    40.593611    40.593611    40.593611   -65.873583    35.956567   -97.819885   -135.75743   -13341.734    199.39326 
    4550    40.592294    40.592294    40.592294   -63.911293   -161.26861   -86.684896    56.219624   -13342.529    202.07421 
    4600    40.590239    40.590239    40.590239    249.14332    320.23019    284.79979    142.39999   -13339.796    197.91854 
    4650    40.594284    40.594284    40.594284    -36.80694   -43.476369    6.7540055   -73.698457   -13340.577    200.56803 
    4700    40.596237    40.596237    40.596237   -162.23662   -160.76382   -175.18579   -150.76025   -13340.473    201.50387 
    4750    40.592872    40.592872    40.592872    73.621113    98.941444    219.23078   -97.308886   -13340.982    203.61882 
    4800    40.592205    40.592205    40.592205    93.533968    177.79144   -87.410639     190.2211   -13340.928    204.64663 
    4850    40.595422    40.595422    40.595422    3.6113025    -109.0443     56.01127    63.866938   -13339.306    202.64103 
    4900    40.597345    40.597345    40.597345   -207.98717   -39.101328   -237.84353   -347.01666   -13339.985    205.08636 
    4950    40.592903    40.592903    40.592903    160.95912    80.662339    155.11004    247.10498   -13337.851    202.08727 
    5000    40.593037    40.593037    40.593037     183.2293     268.6068    243.04575    38.035343   -13338.561    204.58326 
    5050    40.598491    40.598491    40.598491   -116.49093   -166.74395   -170.48294   -12.245887   -13338.342    205.28445 
    5100    40.598737    40.598737    40.598737   -111.07713   -7.8258836   -165.53787   -159.86764   -13336.763    203.36114 
    5150    40.594207    40.594207    40.594207    97.720491    102.27293    88.374519    102.51403   -13339.282    209.35387 
    5200    40.594013    40.594013    40.594013     195.3601     272.6937    220.86947     92.51714   -13339.353    210.61341 
    5250    40.599442    40.599442    40.599442   -89.811422   -117.65393   -109.84769   -41.932644   -13334.576    202.50045 
    5300    40.599819    40.599819    40.599819   -145.62303   -136.97433   -209.49706    -90.39771   -13337.287    208.86063 
    5350    40.595166    40.595166    40.595166     223.6527    258.72546    316.88344    95.349196   -13336.383    208.23192 
    5400     40.59614     40.59614     40.59614    153.33247    182.74669    168.92478    108.32594    -13335.84    208.29579 
    5450    40.601144    40.601144    40.601144   -138.29576   -287.77738    -30.37066   -96.739241   -13335.285    208.33154 
    5500    40.601149    40.601149    40.601149   -222.38807   -154.99117   -293.65897   -218.51408   -13337.747    214.20702 
    5550    40.595567    40.595567    40.595567    182.52062    237.27328    219.63045    90.658132   -13336.951    213.78299 
    5600     40.59644     40.59644     40.59644      157.147    94.672585    125.77542    250.99299   -13335.348    211.79154 
    5650    40.602058    40.602058    40.602058   -123.03855   -162.32652    -128.1091   -78.680024   -13333.276    208.89188 
    5700    40.601986    40.601986    40.601986   -129.34872   -144.61217   -92.050023   -151.38397   -13335.295    213.90662 
    5750    40.597305    40.597305    40.597305     250.5391    130.91004    256.95859    363.74866    -13333.68    211.88744 
    5800    40.598969    40.598969    40.598969    81.458581    70.521877    220.96594   -47.112071   -13333.822    213.26896 
    5850    40.603156    40.603156    40.603156   -205.44023   -201.57974   -192.14874   -222.59222   -13335.288    217.20714 
    5900    40.602402    40.602402    40.602402   -126.90743   -248.51907   -16.324151   -115.87906   -13333.875      215.559 
    5950    40.598354    40.598354    40.598354     258.6176    273.99856      348.843    153.01123   -13331.932    212.91013 
    6000    40.600175    40.600175    40.600175    86.588898    100.46577   -18.410972     177.7119   -13331.642    213.44218 
    6050    40.603779    40.603779    40.603779   -148.22075   -193.63945   -74.013582   -177.00922   -13334.486    220.04814 
    6100    40.602275    40.602275    40.602275   -26.639411    24.358353   -126.43437    22.157783   -13331.938    216.20753 
    6150    40.599958    40.599958    40.599958    92.494687   -56.630462     205.6736    128.44092   -13334.291    221.84755 
    6200    40.601837    40.601837    40.601837    18.568803    17.872629    69.041983   -31.208202   -13330.899    216.36943 
    6250    40.604704    40.604704    40.604704   -124.56023   -73.529399   -231.73117   -68.420111   -13331.646    218.89971 
    6300    40.603183    40.603183    40.603183    39.202624   -70.572122    211.74478   -23.564786   -13331.651    220.00369 
    6350    40.602306    40.602306    40.602306    53.751458    168.23471   -65.367856    58.387515   -13332.121    221.99672 
    6400    40.604349    40.604349    40.604349   -55.439569   -243.17494    81.579026   -4.7227966   -13331.513    221.89724 
    6450      40.6052      40.6052      40.6052   -103.47438   -18.986403    -201.5502   -89.886525    -13331.25    222.46662 
    6500    40.603771    40.603771    40.603771    39.021336   -146.99683   -28.093213    292.15405   -13331.137    223.31611 
    6550    40.603832    40.603832    40.603832    22.042125    28.755279    74.882205   -37.511107   -13329.033    220.31919 
    6600    40.605393    40.605393    40.605393    36.207321    -27.87781    30.779493    105.72028   -13329.487    222.27627 
    6650    40.606444    40.606444    40.606444    29.025189   -37.002217    292.92062   -168.84284   -13327.576    219.65454 
    6700    40.605859    40.605859    40.605859   -2.4240784   -32.130046   -15.745056    40.602867   -13329.797    225.02086 
    6750    40.605008    40.605008    40.605008    116.36161    11.335642    119.31736    218.43181   -13329.006    224.55556 
    6800     40.60628     40.60628     40.60628   -93.868105   -116.13673   -52.494725   -112.97286   -13328.925    225.45321 
    6850    40.606862    40.606862    40.606862   -131.32641   -178.83183   -111.31088   -103.83652   -13331.689    231.85465 
    6900    40.606421    40.606421    40.606421    38.571513   -43.067485    139.12918    19.652847   -13328.133    226.03641 
    6950    40.607062    40.607062    40.607062   -36.947233   -59.321632   -100.21811    48.698038   -13330.302    231.29717 
    7000    40.607758    40.607758    40.607758   -21.328672    -26.75419     68.91337    -106.1452   -13326.077    224.17187 
    7050    40.608309    40.608309    40.608309    -84.04873   -61.649737   -76.259247   -114.23721   -13328.546    229.98902 
    7100    40.607515    40.607515    40.607515  -0.19111972   -15.628225    52.362256    -37.30739    -13327.54    229.09454 
    7150    40.607795    40.607795    40.607795    20.515556    44.314396   -56.163334    73.395606   -13327.519     230.1033 
    7200    40.609439    40.609439    40.609439   -77.593394   -101.90691    5.3245381   -136.19781   -13327.817    231.72559 
    7250    40.609862    40.609862    40.609862    50.746692   0.78693256    74.857153     76.59599   -13325.507    228.30196 
    7300    40.609522    40.609522    40.609522   -69.632501   -13.287412   -178.94032    -16.66977   -13326.145    230.56765 
    7350    40.608247    40.608247    40.608247    146.65234    123.74763    179.64715    136.56224   -13324.145    227.73163 
    7400    40.610673    40.610673    40.610673   -38.281922   -22.580774   -63.640396   -28.624595   -13325.649    231.67132 
    7450    40.612148    40.612148    40.612148   -124.88066   -225.90652   -33.084298   -115.65116   -13327.225    235.74788 
    7500    40.610072    40.610072    40.610072  -0.43128481   -85.773023    4.7911911    79.687978   -13325.379    233.21155 
    7550    40.608562    40.608562    40.608562    216.24573    151.00053    265.76303    231.97363   -13324.053    231.66293 
    7600    40.612294    40.612294    40.612294   -46.426639   -71.988341    11.381669   -78.673244   -13323.983    232.55638 
    7650    40.614059    40.614059    40.614059    8.8835293   -61.839727    125.80639   -37.316078    -13321.61    228.97709 
    7700    40.612348    40.612348    40.612348   -98.686775   -58.723797   -144.00716   -93.329369   -13323.902    234.43018 
    7750    40.607925    40.607925    40.607925     200.8627    204.46281     255.4435     142.6818   -13324.744     237.0762 
    7800    40.611185    40.611185    40.611185    9.8016688    81.382606   -64.717563    12.739964   -13324.459    237.52517 
    7850    40.615774    40.615774    40.615774   -191.40511   -124.09765   -157.02128   -293.09641   -13321.283    232.38613 
    7900    40.614025    40.614025    40.614025   -62.102593    -179.1083   -46.149284      38.9498   -13323.966     238.5774 
    7950    40.610475    40.610475    40.610475    62.677656    101.03865    136.99801   -50.003687   -13324.761    241.12404 
    8000    40.612382    40.612382    40.612382    53.279227    33.795662    95.946774    30.095244   -13322.444     237.6268 
    8050    40.616701    40.616701    40.616701     -202.199   -220.26933   -268.08523   -118.24244   -13321.805    237.39964 
    8100    40.613861    40.613861    40.613861   -28.509088   -61.589701    9.2514156   -33.188978   -13323.145    240.98402 
    8150     40.61103     40.61103     40.61103    233.47842    249.84752    199.70931    250.87844   -13320.828    237.48284 
    8200    40.615521    40.615521    40.615521   -73.386033   -143.82916    121.85351   -198.18244   -13322.507    241.71829 
    8250    40.618016    40.618016    40.618016   -100.65587    26.597796   -165.92186   -162.64355   -13318.607    235.15346 
    8300    40.614932    40.614932    40.614932    28.226808   -143.63924    204.93644    23.383229   -13320.529    239.84816 
    8350    40.611892    40.611892    40.611892    172.23953    264.82938    141.22481     110.6644   -13320.952    241.64418 
    8400    40.614411    40.614411    40.614411    143.27378  -0.47998747    139.53482    290.76651   -13317.676    236.28073 
    8450    40.618952    40.618952    40.618952   -283.98271   -222.01512   -182.27562   -447.65739   -13322.029    245.67017 
    8500     40.61562     40.61562     40.61562   -29.722427   -69.515897   -99.949253    80.297869   -13319.881    242.47859 
    8550    40.611863    40.611863    40.611863    277.50438    277.73526    321.83534    232.94254   -13319.428    242.57313 
    8600    40.616558    40.616558    40.616558   -151.92957   -309.88126    20.220891   -166.12835   -13321.441    247.42182 
    8650    40.619343    40.619343    40.619343   -71.431358   -187.73923   -25.275303   -1.2795372   -13318.158    242.03082 
    8700    40.618476    40.618476    40.618476   -120.62314   -42.801349   -92.556177   -226.51189   -13319.153    244.90151 
    8750    40.615303    40.615303    40.615303    185.46264     25.72149    267.10949    263.55694    -13316.98    241.65359 
    8800    40.615729    40.615729    40.615729    50.888116    53.215669    86.777255    12.671426   -13318.117    244.80251 
    8850    40.617808    40.617808    40.617808    -30.80238   -14.856182    12.162586   -89.713544   -13318.553    246.58194 
    8900    40.618856    40.618856    40.618856   -195.53973   -67.607384   -265.30004   -253.71177   -13319.781    249.90035 
    8950    40.616582    40.616582    40.616582    113.00238    17.965672    204.34452    116.69696   -13316.512    244.50927 
    9000    40.617933    40.617933    40.617933   -4.5963542    -95.13354    103.63468   -22.290207   -13320.214     252.6076 
    9050    40.620116    40.620116    40.620116    -50.50819    25.090271   -97.661318   -78.953523   -13315.842    245.07073 
    9100    40.620013    40.620013    40.620013   -50.334328   -175.27465   -34.856252    59.127921    -13316.62    247.50605 
    9150    40.617528    40.617528    40.617528    150.39751    225.82616    102.86498    122.50138   -13314.424    244.17821 
    9200    40.617694    40.617694    40.617694    72.122778    40.996049    37.599068    137.77322   -13316.012    248.17411 
    9250    40.619568    40.619568    40.619568   -83.537729   -149.91688   -69.000586   -31.695718   -13315.666    248.41757 
    9300    40.619494    40.619494    40.619494    120.46975    126.67123    23.861624    210.87641   -13316.149    250.26675 
    9350    40.620595    40.620595    40.620595   -24.100845   -214.74798    45.537445    96.907996   -13315.269    249.45925 
    9400    40.621598    40.621598    40.621598   -109.71683    55.581197   -308.41645   -76.315229   -13315.248    250.31987 
    9450    40.620736    40.620736    40.620736     120.8409     22.19482    170.42055    169.90733   -13312.993     246.8544 
    9500    40.621397    40.621397    40.621397   -77.519287   -93.065526   -171.12703    31.634689    -13316.66    254.85142 
    9550    40.620933    40.620933    40.620933    79.327071    -81.20205    170.15005    149.03321   -13314.956    252.45784 
    9600    40.623031    40.623031    40.623031   -100.84308   -50.102997    -86.04464   -166.38159   -13315.353    254.10406 
    9650    40.623611    40.623611    40.623611   -95.343006   -110.96988   -144.62733   -30.431807   -13314.309    252.97344 
    9700    40.621764    40.621764    40.621764    25.009388   -100.82382    190.98965   -15.137661    -13315.54    256.23657 
    9750    40.621608    40.621608    40.621608     61.82229    41.284998    16.642704    127.53917   -13313.343    252.86346 
    9800    40.623506    40.623506    40.623506    30.410462    -255.4127    219.69411    126.94998   -13313.154    253.36877 
    9850    40.624926    40.624926    40.624926   -206.08521   -201.26683   -330.95022   -86.038579   -13315.247    258.28786 
    9900    40.622206    40.622206    40.622206     147.6041    125.79812    211.87665    105.13753   -13311.603     252.0956 
    9950    40.623376    40.623376    40.623376  -0.42384791    67.949262   -166.78988    97.569072    -13314.73     259.0097 
   10000    40.626015    40.626015    40.626015   -49.157624   -32.861578    30.951217   -145.56251   -13310.566    251.81557 
   10050    40.625531    40.625531    40.625531   -110.03002   -258.07802   -93.036617     21.02458   -13313.359    258.07635 
   10100    40.621619    40.621619    40.621619    194.56964    29.973579    503.57591    50.159418   -13312.729    257.70793 
   10150    40.623938    40.623938    40.623938    145.94725    65.640674    34.447353    337.75373   -13310.103     253.4705 
   10200    40.629004    40.629004    40.629004    -264.6863   -505.09729    -162.1479   -126.81372   -13313.016    259.94545 
   10250     40.62616     40.62616     40.62616    141.53988    312.02135    18.428172    94.170133   -13308.175    251.41551 
   10300    40.624125    40.624125    40.624125   -32.344459   -84.136805   -62.712905    49.816334   -13313.433    262.42346 
   10350    40.623594    40.623594    40.623594    172.70758    202.75451    253.54615     61.82209   -13309.596    255.83103 
   10400    40.627033    40.627033    40.627033   -205.61342   -220.58873   -241.21577   -155.03575   -13313.505    264.22698 
   10450    40.626898    40.626898    40.626898   -37.429918   -130.78867    80.602386   -62.103473   -13310.433     259.1004 
   10500    40.625828    40.625828    40.625828    3.2276333    -56.14097    -89.23594    155.05981   -13311.212    261.41963 
   10550    40.625574    40.625574    40.625574    109.56765    109.80614    308.97789   -90.081088   -13309.004    257.96343 
   10600     40.62819     40.62819     40.62819     -5.57493     74.08888   -21.535518   -69.278152   -13309.189    259.12938 
   10650    40.629451    40.629451    40.629451   -73.679434    32.566007   -82.041732   -171.56258   -13308.935    259.44986 
   10700    40.626997    40.626997    40.626997    44.773251   -15.326096    156.17491   -6.5290629   -13310.328    262.95027 
   10750    40.625648    40.625648    40.625648       100.06    125.47897    170.68243    4.0186021   -13308.949    261.07576 
   10800    40.628802    40.628802    40.628802   -58.426552   -229.38844   -46.796987    100.90577   -13309.843    263.58621 
   10850    40.630099    40.630099    40.630099    -213.6106   -343.11306   -99.407447   -198.31129   -13310.153    264.98387 
   10900    40.625745    40.625745    40.625745     150.4986    77.611104    157.18886    216.69583   -13308.196    261.98304 
   10950    40.625768    40.625768    40.625768    156.76362    353.07019    27.530492     89.69018   -13308.653    263.65157 
   11000    40.629368    40.629368    40.629368  -0.11426933   -253.79354    129.13114    124.31959   -13307.274    261.76091 
   11050    40.630993    40.630993    40.630993   -217.88269    -399.6109   -160.18599   -93.851177   -13309.824    267.46062 
   11100    40.628262    40.628262    40.628262   -9.3326989   -28.857691   -7.0779272    7.9375212   -13308.861    266.36194 
   11150    40.626794    40.626794    40.626794    48.260902    -19.98268    170.24953   -5.4841417   -13308.756     266.9282 
   11200    40.628793    40.628793    40.628793    64.888751   -30.822233   -53.107993    278.59648    -13307.15    264.57804 
   11250    40.631193    40.631193    40.631193   -207.95842   -315.73707   -198.44193   -109.69626   -13308.043    267.06571 
   11300    40.627928    40.627928    40.627928    143.69852     302.1612    44.658057    84.276301   -13305.981    263.82541 
   11350    40.627511    40.627511    40.627511    125.71152    50.075277    156.07154    170.98775   -13306.805    266.16723 
   11400    40.630951    40.630951    40.630951    -77.64338   -170.97429   -48.180304   -13.775542   -13306.367    266.05998 
   11450    40.632352    40.632352    40.632352    -21.05402   -96.432387   -33.019175    66.289503   -13305.221    264.58746 
   11500    40.630659    40.630659    40.630659   -2.7385825   -159.78824     51.18355    100.38894   -13305.793    266.43011 
   11550    40.628705    40.628705    40.628705    129.64342    153.18461    126.83306    108.91261    -13306.43    268.39678 
   11600    40.630189    40.630189    40.630189    75.909789   -185.57507    122.17312    291.13132   -13305.204      266.744 
   11650    40.633999    40.633999    40.633999   -186.16415   -108.41901   -99.723013   -350.35041   -13306.999    270.93267 
   11700    40.633023    40.633023    40.633023   -57.086625   -189.15738    -105.3802     123.2777   -13304.779    267.35254 
   11750    40.630312    40.630312    40.630312    30.676885   -41.212864    135.21573   -1.9722079   -13306.578    271.54029 
   11800    40.630497    40.630497    40.630497    18.552128   -101.12616    12.841813    143.94073   -13306.538    272.17707 
   11850     40.63302     40.63302     40.63302     -88.6844   -111.12968   -132.63756   -22.285961   -13304.898    269.70378 
   11900     40.63307     40.63307     40.63307   -74.236516    28.286932   -22.760076    -228.2364   -13304.124    268.91232 
   11950    40.631096    40.631096    40.631096    119.60046    13.512358    124.39754    220.89149   -13305.474    272.22046 
   12000    40.632793    40.632793    40.632793   -84.254542    49.151671   -135.66871   -166.24658   -13305.629    273.21134 
   12050    40.633188    40.633188    40.633188   -117.43202   -237.81085    -134.9709    20.485698   -13306.358    275.30744 
   12100    40.631602    40.631602    40.631602     84.04447    135.32362   -38.520169    155.32996   -13304.474     272.3438 
   12150    40.632564    40.632564    40.632564    46.907035    63.421999     31.70558    45.593528   -13303.682    271.48311 
   12200    40.635229    40.635229    40.635229   -56.970594   -181.75113   -74.566022    85.405368    -13302.97    270.77459 
   12250    40.635301    40.635301    40.635301   -126.98037   -124.21489   -27.257878   -229.46833   -13305.346    276.03952 
   12300    40.632797    40.632797    40.632797     142.6746    58.076778    72.254867    297.69217   -13302.501     271.2003 
   12350    40.633845    40.633845    40.633845    102.55971    -13.44082    153.18166    167.93829   -13303.213    273.23784 
   12400    40.636482    40.636482    40.636482    -87.24183   -163.75188    -55.45505   -42.518559   -13302.822    273.13723 
   12450    40.635932    40.635932    40.635932   -97.197179   -101.71826    42.075066   -231.94834   -13303.372    274.84827 
   12500    40.633427    40.633427    40.633427    75.134112   -132.97311    105.73657    252.63887   -13303.451    275.64844 
   12550     40.63479     40.63479     40.63479    105.43321    163.36697   -4.4740909    157.40674   -13301.877     273.2445 
   12600    40.637986    40.637986    40.637986   -206.86903    -343.9125   -92.497793   -184.19678   -13302.821    275.70911 
   12650    40.635202    40.635202    40.635202     44.82839    45.536898   -42.598586    131.54686   -13303.553    277.75465 
   12700    40.634652    40.634652    40.634652    52.453186   -39.843273    56.945338    140.25749   -13303.205    277.70656 
   12750    40.637427    40.637427    40.637427    -65.19515     104.8411   -100.90256   -199.52399   -13301.678    275.38045 
   12800    40.637607    40.637607    40.637607    10.997542   -216.12152    105.56254     143.5516   -13300.855     274.4132 
   12850     40.63628     40.63628     40.63628    6.8785948    35.986264    -57.91162     42.56114   -13300.897    275.10968 
   12900    40.635474    40.635474    40.635474    109.25708   -13.780851    160.35049    181.20161   -13300.966    275.85858 
   12950    40.637677    40.637677    40.637677    66.732329    53.736538    46.039514    100.42093    -13301.18    276.88052 
   13000    40.639596    40.639596    40.639596   -167.40013   -259.81861   -349.73554    107.35376   -13302.364    279.77516 
   13050    40.637122    40.637122    40.637122    3.4388224   -55.712966    150.18984   -84.160406    -13301.73    279.14745 
   13100    40.635142    40.635142    40.635142    291.32207    326.67987    251.61582    295.67052   -13297.501    271.55719 
   13150    40.639089    40.639089    40.639089   -189.11579   -174.38122   -158.76989   -234.19625   -13302.483    281.78511 
   13200    40.639726    40.639726    40.639726    56.634704   -184.96944    249.55908    105.31447   -13298.588    274.83687 
   13250    40.638273    40.638273    40.638273    -76.78589   -236.33926   -168.14201     174.1236   -13301.532    281.11332 
   13300    40.635725    40.635725    40.635725    95.016413    61.494533    241.51988   -17.965179   -13300.711    280.09767 
   13350    40.637852    40.637852    40.637852   -15.928174   -71.109513   -59.531617    82.856606   -13301.544    282.28126 
   13400    40.640068    40.640068    40.640068   -249.88025   -228.55831   -336.33756   -184.74487    -13300.77     281.3522 
   13450     40.63754     40.63754     40.63754    232.73943    302.03027    242.33979    153.84824   -13298.092    276.73528 
   13500    40.638463    40.638463    40.638463   -33.542086   -221.17402   -23.566028    144.11379   -13299.065     279.1783 
   13550    40.638062    40.638062    40.638062   -37.307726   -115.93807     40.93112   -36.916228   -13301.258    283.97778 
   13600    40.637212    40.637212    40.637212    17.869247   -7.8282226   -148.84814     210.2841   -13300.277    282.62543 
   13650    40.638321    40.638321    40.638321   -13.036002   -110.16967    24.097807     46.96386   -13298.941    280.58565 
   13700    40.639791    40.639791    40.639791   -27.618392   -37.148367   -96.188343    50.481534   -13298.361    280.00408 
   13750    40.639294    40.639294    40.639294    39.917974   -24.748859   -110.30598    254.80876   -13298.375    280.56507 
   13800    40.638263    40.638263    40.638263     106.0514    151.43146   -14.033503    180.75624   -13297.193     278.8161 
   13850    40.638417    40.638417    40.638417     83.62549    -31.30239    120.02376     162.1551   -13298.677    282.21336 
   13900    40.640436    40.640436    40.640436    17.115241   -57.713549    24.995171      84.0641   -13297.998    281.41918 
   13950    40.642553    40.642553    40.642553   -162.23456   -139.91899   -133.88197   -212.90271   -13299.586    285.01108 
   14000    40.640321    40.640321    40.640321    -33.03526   -328.85667     60.49743    169.25346   -13298.138     282.7204 
   14050    40.638488    40.638488    40.638488    48.728792    90.055012    6.6327804    49.498585       -13300    286.83693 
   14100    40.639863    40.639863    40.639863   -2.0155148    23.113655   -47.429217    18.269018   -13298.628    284.69086 
   14150     40.64097     40.64097     40.64097    35.081491    5.4684905    180.72925   -80.953264   -13296.041    280.19062 
   14200    40.641052    40.641052    40.641052   -44.764398   -143.84263   -25.978739     35.52817   -13298.365    285.18077 
   14250    40.641353    40.641353    40.641353    12.938767    9.2365536   -144.72877    174.30851   -13298.602     286.1272 
   14300    40.641415    40.641415    40.641415     89.62648    25.191466    62.571931    181.11604    -13294.51    278.70343 
   14350    40.641511    40.641511    40.641511    16.954186   -43.354304   -173.78212    267.99898     -13297.3    284.58729 
   14400    40.641199    40.641199    40.641199   -22.321336   -137.59182   -29.976169    100.60398   -13299.438    289.20687 
   14450    40.640804    40.640804    40.640804    102.28929    129.34989    97.912576    79.605409   -13295.705     282.4588 
   14500    40.643311    40.643311    40.643311   -30.178347    14.986528   -57.812139   -47.709431   -13296.655     284.7647 
   14550    40.642568    40.642568    40.642568   -19.996299   -218.10922    102.92017    55.200158   -13296.498    284.92646 
   14600    40.640393    40.640393    40.640393    73.451011    69.621165    3.7428176    146.98905   -13297.123    286.59583 
   14650    40.641594    40.641594    40.641594    1.4714428    48.434699   -129.10214    85.081765   -13296.387    285.62938 
   14700    40.643449    40.643449    40.643449    -101.6324   -4.0635606   -168.16314    -132.6705    -13297.83    288.87403 
   14750    40.642888    40.642888    40.642888     31.54017    29.935099    4.2897228    60.395688   -13295.348    284.52809 
   14800    40.641361    40.641361    40.641361    78.782539    42.343742     12.26774    181.73613   -13295.914    286.07385 
   14850    40.641803    40.641803    40.641803    62.129885   -44.078152    83.698134    146.76967   -13296.299     287.2596 
   14900     40.64443     40.64443     40.64443   -158.59842   -40.369127   -304.79566   -130.63046   -13297.357    289.74586 
   14950     40.64373     40.64373     40.64373   -18.353121   -149.05505    12.080823    81.914864   -13295.783    287.13737 
   15000    40.641356    40.641356    40.641356    125.62374    379.78277   -114.31309    111.40153   -13295.403    286.83137 
   15050    40.640788    40.640788    40.640788     110.2116    119.77056    253.04677   -42.182519   -13294.845    286.17398 
   15100    40.643719    40.643719    40.643719    57.769856    40.793462    27.513968    105.00214   -13294.168    285.28083 
   15150    40.646041    40.646041    40.646041   -226.00579    -395.1233   -166.91069   -115.98339   -13295.706    288.67809 
   15200    40.642004    40.642004    40.642004    123.52297    170.48645    125.90228    74.180184   -13294.648    287.04143 
   15250     40.64137     40.64137     40.64137    93.419434    45.661409    65.354576    169.24232   -13296.393    290.83077 
   15300    40.644405    40.644405    40.644405   -105.67673    54.483917    -91.57326   -279.94086   -13296.762    291.95047 
   15350    40.645811    40.645811    40.645811   -178.59574   -168.48949     -279.457   -87.840733   -13296.039    290.95036 
   15400    40.643394    40.643394    40.643394    69.196534    106.70682    38.089307    62.793475   -13294.396    288.16896 
   15450    40.643202    40.643202    40.643202   -35.083883    -5.469804   -88.560997   -11.220847   -13298.055    295.64575 
   15500      40.6445      40.6445      40.6445   -29.554491    85.371687   -37.775518   -136.25964   -13294.515    289.18242 
   15550    40.645239    40.645239    40.645239    -89.79955    -111.0239   -37.995397   -120.37935   -13294.649    289.82488 
   15600    40.643878    40.643878    40.643878    49.021538    225.78217   -80.112859    1.3953048   -13295.104     291.0913 
   15650    40.643646    40.643646    40.643646    149.33006     200.9007    114.11247    132.97702   -13292.278    286.00327 
   15700     40.64562     40.64562     40.64562   -83.040447    154.22657   -102.37777   -300.97014   -13295.318    292.25586 
   15750     40.64538     40.64538     40.64538    -135.2623   -228.13945   -62.904281   -114.74317   -13294.975    291.96173 
   15800    40.642784    40.642784    40.642784    135.32437    186.77399    -2.772815    221.97193   -13294.489    291.38336 
   15850    40.643801    40.643801    40.643801    256.21382    169.05586    205.52277    394.06282   -13290.457    283.93791 
   15900    40.649317    40.649317    40.649317   -233.53965   -91.241187   -252.96374   -356.41401   -13294.125    291.39382 
   15950    40.646892    40.646892    40.646892   -155.05999   -285.84056    -61.85853   -117.48089    -13295.35    294.11779 
   16000    40.641431    40.641431    40.641431    252.56516     277.7288    79.690126    400.27654   -13295.093    293.97464 
   16050    40.645064    40.645064    40.645064     23.55982   -27.182655    217.11469   -119.25257   -13293.807    291.82744 
   16100    40.648312    40.648312    40.648312   -125.61005   -69.419127   -258.46615   -48.944867    -13292.07     288.8097 
   16150    40.645791    40.645791    40.645791   -86.168834   -156.34792   -94.261632    -7.896954   -13296.009    296.76083 
   16200    40.643679    40.643679    40.643679    245.00459    265.41501    117.14834    352.45043   -13291.348    288.07614 
   16250    40.647579    40.647579    40.647579   -82.333546   -17.044283    -178.3576   -51.598753   -13293.599     292.7637 
   16300    40.647728    40.647728    40.647728   -329.53293   -456.26235   -206.14245   -326.19399   -13297.256    300.15923 
   16350    40.643136    40.643136    40.643136    248.44011    359.34704    190.97846    194.99484   -13292.769    291.79915 
   16400    40.646444    40.646444    40.646444   -130.37774   -54.601479   -154.86309   -181.66864   -13294.484    295.43622 
   16450    40.646904    40.646904    40.646904    67.944068    22.809974    138.48286    42.539372   -13291.592    290.15557 
   16500    40.645836    40.645836    40.645836    16.001217     196.0468   -65.863199   -82.179947   -13292.117    291.47661 
   16550    40.644162    40.644162    40.644162    177.14528    262.67794    120.17116    148.58675   -13291.819    291.19519 
   16600    40.646768    40.646768    40.646768    -27.33386     2.189126   -81.831794   -2.3589113   -13292.592    292.98472 
   16650    40.648548    40.648548    40.648548   -230.22252   -225.46117   -233.95174   -231.25466   -13293.709    295.44421 
   16700    40.644835    40.644835    40.644835    74.821046    28.540754    118.10748    77.814906   -13293.955    296.21662 
   16750    40.643829    40.643829    40.643829    118.23014     303.8373    134.50587   -83.652746   -13292.041    292.80555 
   16800    40.646942    40.646942    40.646942   -32.286251    2.3205197   -130.59163    31.412359   -13292.842    294.64282 
   16850    40.648463    40.648463    40.648463    -160.0093   -166.24302   -152.89318   -160.89171   -13293.299    295.81099 
   16900    40.645422    40.645422    40.645422    183.69063    161.06097    298.10766    91.903274   -13290.416    290.50963 
   16950    40.645444    40.645444    40.645444    84.572212    181.39834    46.611236    25.707061   -13292.354    294.53433 
   17000    40.647823    40.647823    40.647823   -48.371236   -189.73286   -18.054974    62.674122    -13292.69    295.45009 
   17050    40.648926    40.648926    40.648926    -165.4901   -105.20625   -280.12764   -111.13639     -13293.1    296.50848 
   17100    40.646344    40.646344    40.646344    10.545177   -216.39844    122.24755    125.78642   -13293.482    297.51043 
   17150    40.645422    40.645422    40.645422    22.053843    111.76562   -4.4746504   -41.129439   -13292.656    296.17398 
   17200    40.647282    40.647282    40.647282    3.3276625    88.761891    2.8285728   -81.607476   -13292.049    295.26074 
   17250    40.649045    40.649045    40.649045    -120.4878     -362.212    28.566424   -27.817841   -13291.133      293.744 
   17300    40.645369    40.645369    40.645369    81.515874    20.374565    -28.76657    252.93963   -13291.705    295.09862 
   17350    40.644055    40.644055    40.644055    140.63494    200.62085    172.64152    48.642435   -13291.352    294.65918 
   17400    40.647869    40.647869    40.647869    8.3580934   -139.42305   -1.8358006    166.33313   -13291.738    295.64867 
   17450    40.650294    40.650294    40.650294   -185.08835   -104.42456   -140.02576   -310.81473   -13291.859    296.11713 
   17500    40.647493    40.647493    40.647493    27.163061   -165.07432    124.58705    121.97645   -13291.533    295.72102 
   17550    40.645251    40.645251    40.645251     105.9518    28.948249    86.025412    202.88174   -13292.024    296.90651 
   17600    40.646721    40.646721    40.646721    33.794084   -6.6879978    99.201965    8.8682857   -13292.105    297.29376 
   17650    40.649002    40.649002    40.649002   -75.645036    142.17955   -178.01359   -191.10107   -13290.035     293.5108 
   17700    40.648532    40.648532    40.648532   -35.115496    3.7705832   -48.093691    -61.02338   -13293.454    300.34531 
   17750    40.647488    40.647488    40.647488    26.897822    50.335875    101.16407   -70.806478   -13291.602    296.98081 
   17800     40.64835     40.64835     40.64835    48.339071    219.69515   -3.9237239   -70.754217   -13289.631    293.38456 
   17850    40.650011    40.650011    40.650011   -63.108486   -234.55002    42.264282    2.9602851   -13290.874    296.00712 
   17900    40.648188    40.648188    40.648188   -104.65986     32.43371   -404.36083    57.947549   -13291.821    298.04669 
   17950    40.644486    40.644486    40.644486    283.36035     218.8694    452.52889    178.68277   -13289.872     294.4797 
   18000    40.648486    40.648486    40.648486    44.728768    81.273026   0.31372927     52.59955   -13291.501     297.8255 
   18050    40.653082    40.653082    40.653082   -333.67989   -238.60915    -305.3685   -457.06204   -13292.453    299.86165 
   18100    40.648309    40.648309    40.648309    47.637591    122.52627   -5.2834116     25.66992   -13290.137    295.56395 
   18150    40.645391    40.645391    40.645391    135.57139    216.53112   -34.909062     225.0921   -13292.579    300.48357 
   18200    40.649173    40.649173    40.649173     21.36261    27.651404    208.32353    -171.8871   -13289.844    295.37982 
   18250    40.652626    40.652626    40.652626   -167.42389   -99.139852   -405.44768    2.3158605   -13289.676    295.23786 
   18300    40.649377    40.649377    40.649377   -115.12311   -226.53344   -37.040443   -81.795462   -13291.877    299.67066 
   18350    40.645474    40.645474    40.645474    253.17472     416.0591    242.22053    101.24453   -13291.251    298.63765 
   18400    40.649289    40.649289    40.649289    17.438061     48.53024   -81.222981    85.006925   -13288.421     293.3335 
   18450    40.652053    40.652053    40.652053   -248.29736   -177.98195   -70.270398   -496.63973   -13291.969    300.36564 
   18500    40.647607    40.647607    40.647607    224.64029     257.0445    153.47256     263.4038   -13287.842    292.53994 
   18550    40.647536    40.647536    40.647536    42.138583    159.50975   -59.743583    26.649586   -13292.093    300.92228 
   18600    40.649725    40.649725    40.649725   -57.662289   -27.911798   -102.85919   -42.215881   -13290.762    298.50028 
   18650    40.650037    40.650037    40.650037   -23.971853    126.58504   -282.77477    84.274166   -13289.851    296.88752 
   18700    40.649827    40.649827    40.649827    -134.8755   -85.555862   -72.410198   -246.66044   -13292.323    301.82656 
   18750    40.647894    40.647894    40.647894    31.778295    23.717824    -1.940702    73.557762   -13291.632    300.63999 
   18800    40.647429    40.647429    40.647429    52.705728    196.54338    100.09256   -138.51875   -13290.356    298.31486 
   18850    40.649627    40.649627    40.649627   -7.6472701   -80.048955   -30.071618    87.178763   -13290.124    298.00511 
   18900    40.650986    40.650986    40.650986   -68.990004     52.01251   -69.949164   -189.03336   -13290.517    298.90304 
   18950    40.648142    40.648142    40.648142    61.838889    49.037423    98.494287    37.984959   -13288.863    295.83291 
   19000    40.647327    40.647327    40.647327     223.5163    200.24659    268.10941     202.1929   -13289.657    297.49543 
   19050    40.651965    40.651965    40.651965   -169.66397    -179.1673   -89.918858   -239.90576   -13289.641    297.59022 
   19100    40.650355    40.650355    40.650355   -48.721411    25.603392   -98.435233   -73.332392   -13290.896    300.13477 
   19150    40.647806    40.647806    40.647806     89.97725    191.01207    108.13932   -29.219644     -13290.2    298.90774 
   19200    40.649382    40.649382    40.649382    2.9878508    133.13931   -91.926419   -32.249334   -13290.832     300.2472 
   19250    40.651315    40.651315    40.651315   -39.660289   -178.21985   -29.549021       88.788   -13288.507    295.86083 
   19300    40.651747    40.651747    40.651747   -193.88293   -270.48611   -184.48919    -126.6735   -13292.369    303.44821 
   19350    40.646732    40.646732    40.646732    230.77949    400.56349    124.89546     166.8795   -13287.552    294.22811 
   19400    40.648237    40.648237    40.648237   -71.888139   -200.11559   -84.169486    68.620659   -13292.927    304.72938 
   19450    40.651134    40.651134    40.651134   -39.681695    41.122753   -23.400691   -136.76715   -13288.918    297.07522 
   19500    40.651042    40.651042    40.651042   -125.61714   -43.870448   -200.28139    -132.6996   -13291.558    302.27972 
   19550    40.649337    40.649337    40.649337    74.926678   -94.569508    194.13948    125.21006    -13288.89    297.21145 
   19600    40.650125    40.650125    40.650125   -33.999817    37.531471    43.401189   -182.93211   -13289.347    298.19101 
   19650    40.649038    40.649038    40.649038    29.457168    66.071168    82.304741   -60.004404   -13289.684    298.92916 
   19700    40.647598    40.647598    40.647598    130.34556    113.03417    403.34377   -125.34125    -13289.18    298.03744 
   19750    40.648858    40.648858    40.648858    73.121615     54.17046   -7.8308127     173.0252   -13288.972    297.71331 
   19800    40.651503    40.651503    40.651503   -17.291067    105.51291    64.555297   -221.94141   -13287.733    295.39811 
   19850     40.65165     40.65165     40.65165   -131.22707   -98.455892   -230.85873   -64.366584   -13289.431    298.76417 
   19900    40.647559    40.647559    40.647559    84.607942    245.21314    80.568966   -71.958276   -13291.153    302.17289 
   19950    40.647301    40.647301    40.647301     1.472447   -89.374852    191.60295    -97.81076   -13292.063    304.00724 
   20000    40.650262    40.650262    40.650262    46.997333    200.29494    41.828567   -101.13151   -13288.601    297.37703 
Loop time of 427.848 on 4 procs for 20000 steps with 4000 atoms

Pair  time (%) = 302.489 (70.7001)
Neigh time (%) = 0 (0)
Comm  time (%) = 90.9502 (21.2576)
Outpt time (%) = 0.371451 (0.0868185)
Other time (%) = 34.0376 (7.95553)

Nlocal:    1000 ave 1000 max 1000 min
Histogram: 4 0 0 0 0 0 0 0 0 0
Nghost:    4235 ave 4235 max 4235 min
Histogram: 4 0 0 0 0 0 0 0 0 0
Neighs:    70000 ave 72653 max 67302 min
Histogram: 1 0 1 0 0 0 0 1 0 1
FullNghs:  0 ave 0 max 0 min
Histogram: 4 0 0 0 0 0 0 0 0 0

Total # of neighbors = 280000
Ave neighs/atom = 70
Neighbor list builds = 0
Dangerous builds = 0
unfix 1

# Store final cell length for strain calculations
variable tmp equal "lx"
variable L0 equal ${tmp}
variable L0 equal 40.6502618423502
print "Initial Length, L0: ${L0}"
Initial Length, L0: 40.6502618423502

######################################
# DEFORMATION
reset_timestep	0

fix		1 all npt temp 300 300 1 y 0 0 1 z 0 0 1 drag 1
variable srate equal 1.0e10
variable srate1 equal "v_srate / 1.0e12"
fix		2 all deform 1 x erate ${srate1} units box remap x
fix		2 all deform 1 x erate 0.01 units box remap x

# Output strain and stress info to file
# for units metal, pressure is in [bars] = 100 [kPa] = 1/10000 [GPa]
# p2, p3, p4 are in GPa
variable strain equal "(lx - v_L0)/v_L0"
variable p1 equal "v_strain"
variable p2 equal "-pxx/10000"
variable p3 equal "-pyy/10000"
variable p4 equal "-pzz/10000"
fix def1 all print 20 "${p1} ${p2} ${p3} ${p4}" file  Al99.negFRho.eam.alloy.def1.txt screen no

# Use cfg for AtomEye
#dump 		1 all cfg 250 dump.tensile_*.cfg id type xs ys zs c_csym c_peratom fx fy fz
#dump_modify 1 element Al

# Display thermo
thermo 	50
thermo_style	custom step v_strain temp v_p2 v_p3 v_p4 ke pe press

run		20000
Memory usage per processor = 3.04301 Mbytes
Step strain Temp p2 p3 p4 KinEng PotEng Press 
       0 8.7397068e-16    297.37703 -0.020029494 -0.0041828567  0.010113151    153.71755   -13288.601    46.997333 
      50       0.0005    302.72494    0.0725208  0.021654162  0.023607681    156.48195   -13291.309   -392.60881 
     100        0.001    296.76324  0.052841324   0.02743144  0.022329336    153.40028   -13288.166     -342.007 
     150       0.0015    305.20416  0.096552189 0.0015056255 -0.025242886    157.76348   -13292.463   -242.71643 
     200        0.002    299.18305  0.093617307 -0.022324865 -0.024408819    154.65111   -13289.276   -156.27874 
     250       0.0025    298.91553    0.1621579 -0.0073359028 0.0034054867    154.51282   -13289.057   -527.42494 
     300        0.003    300.95318   0.20958884  0.045803894  0.047958915    155.56611   -13290.019   -1011.1722 
     350       0.0035    294.36125   0.20916723 -0.0032239254 -0.0060798276    152.15866   -13286.516   -666.21159 
     400        0.004    300.16192   0.23933057 -0.025053787 -0.016195267     155.1571   -13289.408   -660.27173 
     450       0.0045    300.32554   0.29837321 -0.019629583 -0.046194271    155.24167   -13289.379   -775.16453 
     500        0.005    299.55536   0.31170128  0.037311107  0.055345292    154.84356   -13288.859   -1347.8589 
     550       0.0055    300.31403   0.35269868  0.016221379  0.019060769    155.23572   -13289.126   -1293.2694 
     600        0.006    300.30455   0.37200095 -0.0036476174 -0.0088969815    155.23082   -13288.988   -1198.1878 
     650       0.0065    301.77558   0.40701309 -0.015567049 -0.0096762202    155.99121   -13289.603   -1272.5661 
     700        0.007    294.75956   0.43730995 -0.018347259 0.0015039273    152.36455   -13285.828   -1401.5554 
     750       0.0075    297.61067   0.46244083  0.026039693  0.016438752    153.83832   -13287.146   -1683.0642 
     800        0.008    301.31015    0.5273069 -0.010977808 0.0094788524    155.75063   -13288.895   -1752.6931 
     850       0.0085    304.10605   0.51778616  0.012305337  0.021237832    157.19586   -13290.172   -1837.7644 
     900        0.009    297.76529   0.53938837 -0.0025634327 -0.038742159    153.91825   -13286.719   -1660.2759 
     950       0.0095     301.8173   0.60790439 0.0029802819 -0.0076048542    156.01278   -13288.631   -2010.9327 
    1000         0.01    298.75057   0.63381995  0.034329775  0.020291904    154.42755   -13286.856   -2294.8054 
    1050       0.0105    294.12009   0.66642434  -0.01361586  0.014222771      152.034   -13284.263   -2223.4375 
    1100        0.011    300.86091   0.70988024 -0.023123679 -0.007157737    155.51841   -13287.531   -2265.3294 
    1150       0.0115    297.76878   0.73509263 -0.040243907 0.0005761634    153.92006   -13285.716    -2318.083 
    1200        0.012     296.1886   0.75198951  0.029237576 0.0047137731    153.10324   -13284.681   -2619.8029 
    1250       0.0125    301.32155   0.80546022  0.030954977  0.020192295    155.75652   -13287.101   -2855.3583 
    1300        0.013    297.97538   0.82191367  -0.01996573 -0.020311381    154.02685   -13285.135   -2605.4552 
    1350       0.0135    301.02549    0.8581958 -0.018804397 -0.026193066    155.60349   -13286.464   -2710.6611 
    1400        0.014    300.04374    0.9339442  0.016499916   0.01058345      155.096   -13285.698   -3203.4252 
    1450       0.0145    293.87563   0.91703531  0.012518899  0.032125922    151.90764   -13282.249   -3205.6004 
    1500        0.015    297.81927   0.96103976 -0.016374275  0.019854344    153.94615   -13284.027   -3215.0661 
    1550       0.0155      300.933   0.97610871 -0.014375722  -0.02497025    155.55567    -13285.36   -3122.5424 
    1600        0.016    305.25647    1.0331503  0.018282296 -0.014786259    157.79052   -13287.313    -3455.488 
    1650       0.0165    301.81924    1.1008461  0.015181534  0.023760046    156.01378   -13285.247   -3799.2923 
    1700        0.017    301.79603    1.1366822   0.05302375  0.039704259    156.00178   -13284.931   -4098.0342 
    1750       0.0175    303.88452    1.1230415 -0.0022021926  0.023757717    157.08135   -13285.711   -3815.3233 
    1800        0.018    292.58198    1.1208487 -0.056596294 -0.056451456    151.23894   -13279.556   -3359.3366 
    1850       0.0185    296.57279    1.1715394 -0.0046003447  -0.02342312    153.30183   -13281.306   -3811.7199 
    1900        0.019    297.63644    1.2328422  0.034809255 0.0023376667    153.85164   -13281.532   -4233.2971 
    1950       0.0195    295.59804    1.2652265  0.020364446  0.025688404    152.79797   -13280.148   -4370.9311 
    2000         0.02    300.60541    1.2874364 -0.013907637 -0.0098691108    155.38634     -13282.4   -4212.1987 
    2050       0.0205    297.61863    1.2714352 -0.017049576 -0.019578774    153.84244   -13280.514    -4116.023 
    2100        0.021    301.68316    1.3580882 -0.026866924  0.012758865    155.94344   -13282.264   -4479.9337 
    2150       0.0215    300.82134    1.3861323  0.027112504  0.014855593    155.49796   -13281.462   -4760.3345 
    2200        0.022    302.90451    1.4444897  0.023682623  0.036161904    156.57477   -13282.172   -5014.4476 
    2250       0.0225    297.51808    1.4366267  0.011703891 -0.019684341    153.79046   -13279.017   -4762.1543 
    2300        0.023    297.26735    1.4663117 -0.021951533 -0.019989396    153.66086   -13278.508   -4747.9025 
    2350       0.0235    302.62915    1.5078419 -0.0047873471 0.0051173978    156.43243    -13280.89     -5027.24 
    2400        0.024    290.88808     1.533577 -0.012027821 -0.012573279    150.36334   -13274.433   -5029.9197 
    2450       0.0245     297.6144    1.5779111  0.020955276  0.012397848    153.84025   -13277.511   -5370.8806 
    2500        0.025    299.90108    1.5772948 -0.014092647  0.018102051    155.02227   -13278.293   -5271.0141 
    2550       0.0255    301.82425    1.6397972 -0.016390389 -0.030881213    156.01637   -13278.879   -5308.4186 
    2600        0.026    304.18316    1.6799575 0.0063384035  0.012691206    157.23572   -13279.681   -5663.2903 
    2650       0.0265     293.2366    1.6800587  0.040997786 0.0027476999    151.57732   -13273.599    -5746.014 
    2700        0.027    300.80766    1.7255503 -0.0015802275  0.019483034    155.49089   -13277.081   -5811.5102 
    2750       0.0275     298.1944    1.7326778  -0.03535759  -0.02173907    154.14006   -13275.293   -5585.2703 
    2800        0.028    302.82377    1.7780027 0.0056191845 0.00051791816    156.53303   -13277.248   -5947.1328 
    2850       0.0285    301.62695    1.8425458  0.028329143 0.00059691946    155.91439   -13276.175   -6238.2396 
    2900        0.029    294.97065    1.8360663  0.019704791  0.047043305    152.47367    -13272.28   -6342.7145 
    2950       0.0295    308.57119    1.8665544 -0.0047556548 -0.010362902    159.50394   -13278.848    -6171.453 
    3000         0.03     296.1199    1.8766477 -0.052224856 -0.023616263    153.06773   -13271.943   -6002.6886 
    3050       0.0305    296.50075    1.9282838 -0.003254708  0.013865345    153.26459   -13271.671   -6462.9815 
    3100        0.031    294.47446    1.9792319  0.033979503  0.014990647    152.21718   -13270.136   -6760.6734 
    3150       0.0315    303.32477    2.0102821  0.026384712 0.0034287138    156.79201   -13274.222   -6800.3183 
    3200        0.032    295.80199    1.9995193 -0.017818597 -0.044101882     152.9034    -13269.84   -6458.6628 
    3250       0.0325    303.56185    2.0614693  0.029806066  0.013540574    156.91455   -13273.352   -7016.0532 
    3300        0.033    297.98914    2.1020982 -0.017881905   0.01673243    154.03396   -13269.962   -7003.1624 
    3350       0.0335    299.86728    2.1296387 0.0086491192  0.012637503    155.00479   -13270.416   -7169.7512 
    3400        0.034     293.0983    2.1364729 -0.031596641 0.0069870911    151.50583   -13266.402   -7039.5445 
    3450       0.0345    303.72331    2.1801452 0.0059056791  0.012198769    156.99802   -13271.369   -7327.4987 
    3500        0.035    298.52408    2.2156157 -0.031140115  0.011133206    154.31047   -13268.143   -7318.6958 
    3550       0.0355    300.57393    2.2545955  0.022923747 0.0061987657    155.37007   -13268.668   -7612.3933 
    3600        0.036    295.53998    2.2813001  0.019894927 -0.026487115    152.76796   -13265.516   -7582.3598 
    3650       0.0365    298.02141    2.2904736  0.018819535 -0.012603018    154.05064   -13266.244   -7655.6336 
    3700        0.037    297.40726     2.344456 -0.009392192 -0.012261067    153.73318   -13265.366   -7742.6757 
    3750       0.0375    301.46358      2.35401  0.017100563  0.018474168    155.82994   -13266.901   -7965.2824 
    3800        0.038    297.42234    2.4063891 -0.016604576 -0.0026247862    153.74097   -13264.241   -7957.1991 
    3850       0.0385    299.51858     2.410361 -0.0063695037  0.015077425    154.82455   -13264.752   -8063.5631 
    3900        0.039    300.91399    2.4753377 -0.031844926 0.0046365407    155.54585    -13264.89    -8160.431 
    3950       0.0395    302.73797    2.5056046 0.0035885195  0.058923724    156.48868   -13265.243   -8560.3894 
    4000         0.04    296.07504     2.511818  0.023486274 0.0037251927    153.04454   -13261.207   -8463.4315 
    4050       0.0405    300.39592     2.541492  0.011975774 -0.011482477    155.27805   -13262.834   -8473.2843 
    4100        0.041    296.11794    2.5520324 -0.026121015 -0.052622497    153.06671   -13260.013   -8244.2964 
    4150       0.0415    299.38003    2.6106694 0.0058288514 0.0011543744    154.75293   -13261.086   -8725.5088 
    4200        0.042    298.81083    2.6545569  0.039323399  0.013830757     154.4587    -13260.17   -9025.7034 
    4250       0.0425    296.86957    2.6713911 0.0018293762  0.032521555    153.45524   -13258.541   -9019.1402 
    4300        0.043    301.63671    2.6880182 -0.015834032 -0.018782387    155.91943   -13260.365   -8844.6727 
    4350       0.0435    297.05372    2.6829542 -0.0096925064 -0.018986213    153.55043    -13257.36   -8847.5851 
    4400        0.044    301.82507    2.7557628 -0.0016824603   0.03305719     156.0168   -13259.184   -9290.4586 
    4450       0.0445    300.74537    2.8043739  0.034640619  0.021472105    155.45869   -13257.972   -9534.9552 
    4500        0.045    297.36528    2.8190041 -0.011347373   0.02193939    153.71148   -13255.562   -9431.9871 
    4550       0.0455    297.06765    2.8662528 -0.025435863 -0.014180284    153.55763   -13254.734   -9422.1221 
    4600        0.046    299.99431    2.8731718  0.023013915 0.0064849763    155.07045   -13255.568   -9675.5689 
    4650       0.0465    292.98843    2.8866895 -0.010434643 -0.0019516052    151.44903   -13251.272   -9581.0107 
    4700        0.047    301.50871    2.9460897 0.0016627949 -0.028235386    155.85327   -13254.985   -9731.7236 
    4750       0.0475    293.90881    2.9314568  0.022459623 -0.033410996    151.92479   -13250.371    -9735.018 
    4800        0.048    299.60379    3.0271868 0.0087582732  0.017677145    154.86859   -13252.612   -10178.741 
    4850       0.0485    294.73167    3.0212973 -0.0032996689 -0.0018147875    152.35013   -13249.384   -10053.943 
    4900        0.049    304.67857      3.06432 -0.0017268059  0.030254275     157.4918   -13253.815   -10309.492 
    4950       0.0495    302.55997    3.0921607 -0.032853658 -0.001019912    156.39667   -13251.999    -10194.29 
    5000         0.05    295.91779    3.1117362 0.0025248972  0.014045018    152.96325   -13247.843   -10427.687 
    5050       0.0505    299.65918    3.1936112  0.022238691  0.024611663    154.89722   -13249.038   -10801.538 
    5100        0.051    296.85353    3.1562889 -0.0068331834  0.034378124    153.44695   -13246.852   -10612.779 
    5150       0.0515    298.82732    3.1815397   -0.0167116 -0.042902952    154.46722   -13247.129   -10406.417 
    5200        0.052     297.2476    3.2032082 -0.020452789 -0.029709399    153.65065    -13245.56   -10510.153 
    5250       0.0525      296.145    3.2642711  0.031632988 -0.010737896     153.0807   -13244.237   -10950.554 
    5300        0.053    299.30528    3.3128954  0.064025008 0.0022200433    154.71429   -13245.106   -11263.802 
    5350       0.0535    298.72203    3.3282831 -0.0067520724  0.012608859     154.4128   -13244.042     -11113.8 
    5400        0.054    297.62763     3.315967 -0.036748167 -0.041221987    153.84709   -13242.702   -10793.323 
    5450       0.0545    300.26594    3.3962237 -0.018365216  0.010993717    155.21086   -13243.288   -11296.174 
    5500        0.055    298.89695    3.4437808  0.021258904  0.061878341    154.50322   -13241.788   -11756.394 
    5550       0.0555    299.53688    3.4597939  0.029046764  0.025302385      154.834   -13241.325    -11713.81 
    5600        0.056    299.16085    3.4386401 -0.024312625 -0.0041542366    154.63963   -13240.338   -11367.244 
    5650       0.0565    297.29184    3.4883537 -0.052810889 -0.046295877    153.67352   -13238.567    -11297.49 
    5700        0.057    294.35979    3.5259754  0.001957095  0.015312483    152.15791   -13236.244   -11810.816 
    5750       0.0575    298.93167    3.5979578  0.047495888  0.055114868    154.52116   -13237.784   -12335.229 
    5800        0.058    298.96473    3.5838685  0.018250608  0.009120616    154.53825   -13236.986   -12037.466 
    5850       0.0585    300.30229    3.5810026 -0.033241161 -0.056058164    155.22965   -13236.844   -11639.011 
    5900        0.059    291.77483    3.6154476 -0.019777147 -0.065531357    150.82171   -13231.608    -11767.13 
    5950       0.0595    304.04443    3.7183633  0.061229615  0.058739353    157.16401   -13237.106   -12794.441 
    6000         0.06    296.72425    3.7237012  0.034609052  0.029135076    153.38013    -13232.48   -12624.818 
    6050       0.0605    299.45313    3.6974327  -0.02227384 -0.023956301    154.79071   -13233.042   -12170.675 
    6100        0.061    299.29195    3.7390205 -0.048627258 -0.044955802     154.7074   -13232.101   -12151.458 
    6150       0.0615    299.72747    3.8148862 -0.0088691729  0.030989137    154.93252   -13231.466   -12790.021 
    6200        0.062      297.599    3.8298236  0.044415536  0.075988756    153.83229   -13229.494   -13167.426 
    6250       0.0625    297.61386    3.8344067 -0.014327759 0.0078908065    153.83997    -13228.64   -12759.899 
    6300        0.063    301.90335    3.8742898  -0.02011014 -0.034583925    156.05726   -13229.969   -12731.986 
    6350       0.0635     297.0446    3.8812584 -0.0082394348 -0.025523972    153.54572   -13226.577   -12824.983 
    6400        0.064    302.92701    3.9741199  0.053907897  0.021276259     156.5864   -13228.725    -13497.68 
    6450       0.0645    296.13279    3.9781489  0.050346314  0.027765016    153.07439   -13224.309   -13520.867 
    6500        0.065    299.80896    3.9967667 0.0036310902 -0.034650016    154.97465   -13225.308   -13219.159 
    6550       0.0655    303.62462    4.0339486 -0.023351552 -0.0038136427    156.94701   -13226.363   -13355.945 
    6600        0.066    294.66355    4.0304732 -0.025306922 0.0023598411    152.31492   -13220.816   -13358.421 
    6650       0.0665    297.25221    4.0799346  0.014980134  0.016567879    153.65303   -13221.237   -13704.942 
    6700        0.067     298.0311    4.1256483  0.016535696   0.03732161    154.05565   -13220.714   -13931.685 
    6750       0.0675    296.03933     4.137062 -0.020622492 -0.027715205    153.02608   -13218.752   -13629.081 
    6800        0.068    297.66603    4.1439701 -0.0037184931 0.00084301818    153.86694   -13218.658   -13803.649 
    6850       0.0685    296.52545    4.1740357 0.0049387157 -0.00019906478    153.27736   -13217.132   -13929.251 
    6900        0.069    301.72327    4.2216107  0.034840783  0.024653102    155.96417    -13218.87   -14270.349 
    6950       0.0695    291.87169    4.1819036 -0.026354367 -0.028330827    150.87178   -13212.831   -13757.395 
    7000         0.07    299.52535     4.276118 0.0030850361 -0.015126988    154.82804   -13215.827   -14213.587 
    7050       0.0705    298.26369    4.2920856 -0.017317511 -0.0024462224    154.17588   -13214.208   -14241.073 
    7100        0.071    296.11176    4.3171084 0.0063562754   0.01830145    153.06352   -13212.126   -14472.554 
    7150       0.0715    293.48197    4.3694906 -0.011811257  0.019966663    151.70415   -13209.793   -14592.153 
    7200        0.072    297.44876    4.3793908 -0.031172401 0.0022066953    153.75463   -13210.862   -14501.417 
    7250       0.0725    300.19616    4.4138972 -0.014445016  0.013857263    155.17479   -13211.297   -14711.032 
    7300        0.073     295.0285     4.441702 0.0074702103 -0.040514046    152.50357   -13207.629   -14695.527 
    7350       0.0735    301.27954    4.4985956  0.028946086  0.024815169    155.73481   -13209.854   -15174.523 
    7400        0.074    296.88574    4.5249131  0.024472473 -0.012240988     153.4636   -13206.571   -15123.815 
    7450       0.0745    299.02168    4.5118023  0.019328173 -0.018388155    154.56769   -13206.667   -15042.474 
    7500        0.075    294.81519    4.5616172 -0.015292611 -0.026322958    152.39331   -13203.476   -15066.672 
    7550       0.0755    298.27181    4.5998111 -0.020282681   0.01257382    154.18008   -13204.239   -15307.007 
    7600        0.076    297.65816    4.5990072    0.0159983  0.015779884    153.86287   -13202.893   -15435.951 
    7650       0.0765    292.05521    4.6044165 -0.010827934 0.0077198666    150.96664    -13198.97   -15337.695 
    7700        0.077    302.38276     4.645918 -0.026913437 -0.0017561716    156.30507   -13203.271   -15390.828 
    7750       0.0775    291.76312    4.6643962 -0.028065243 -0.022174282    150.81566   -13196.741   -15380.522 
    7800        0.078    297.82191     4.743893  0.026683181 0.0027179842    153.94752   -13198.821   -15910.981 
    7850       0.0785    303.08972    4.7982826  0.059157893  0.036243046    156.67051   -13200.479   -16312.278 
    7900        0.079      294.435    4.7435153 -0.020136113 -0.037609656    152.19678   -13194.955   -15619.232 
    7950       0.0795    300.66029    4.7685841 -0.019784937  -0.04664039    155.41471   -13197.112   -15673.863 
    8000         0.08    299.31475    4.8360559  0.004257514 0.0057931655    154.71918   -13195.349   -16153.689 
    8050       0.0805    298.73742    4.8758263  0.020150224  0.043004726    154.42075   -13193.972   -16463.271 
    8100        0.081    297.86184    4.8859719 -0.017006643  0.041295866    153.96816   -13192.441   -16367.537 
    8150       0.0815    295.61061    4.8941698 -0.025644304 0.0047950235    152.80447   -13190.192   -16244.402 
    8200        0.082    298.25322    4.9369854 -0.026729152 -0.0072595397    154.17047   -13190.468   -16343.322 
    8250       0.0825    297.11476    4.9872209 0.0035214301 -0.016025645    153.58199   -13188.781   -16582.389 
    8300        0.083    297.86167    5.0327377  0.038982361  0.022341027    153.96807   -13188.053   -16980.204 
    8350       0.0835     295.5722    5.0037251  0.013275067 0.0034376845    152.78461   -13185.762   -16734.793 
    8400        0.084    298.23916    5.0482171 -0.0080234298 -0.055407034     154.1632   -13186.022   -16615.955 
    8450       0.0845    299.38244    5.0541433 -0.0065021134 -0.00084810179    154.75417   -13185.492   -16822.644 
    8500        0.085    294.86619    5.1068717  0.034693995  0.010664222    152.41967   -13182.034     -17174.1 
    8550       0.0855    298.31534    5.1586471 0.0038631781  0.015156626    154.20258   -13182.678    -17258.89 
    8600        0.086    296.15488    5.1399259 -0.016826803 -0.032134433    153.08581    -13180.42   -16969.882 
    8650       0.0865     298.4389    5.1729181 -0.030624824   0.02483881    154.26644   -13180.455   -17223.774 
    8700        0.087    299.26679    5.2350764 -0.026197001  0.042988785    154.69439   -13179.732   -17506.227 
    8750       0.0875    299.88724    5.2699638  0.027840288  0.039724719    155.01511   -13178.893   -17791.763 
    8800        0.088    299.53727    5.2985121 -0.019240236  0.025517865    154.83421   -13177.549   -17682.632 
    8850       0.0885    297.60071    5.2728545 0.00071298547 -0.027228836    153.83318   -13175.379   -17487.796 
    8900        0.089    297.77722    5.3288759 0.0070138045 -0.012596534    153.92441   -13174.291   -17744.311 
    8950       0.0895    296.35512    5.3717676  0.029988058 -0.027624365    153.18931    -13172.37   -17913.771 
    9000         0.09     298.7784    5.3884788  0.038391499 -0.009052773    154.44194   -13172.433   -18059.392 
    9050       0.0905    293.97285    5.3980555  0.025994006 -0.037976951    151.95789   -13168.765   -17953.575 
    9100        0.091    297.23726    5.4513167 -0.040408407  -0.01308213     153.6453   -13169.256   -17992.754 
    9150       0.0915    300.69433    5.5136056  0.022823383  0.049307188     155.4323   -13169.825   -18619.121 
    9200        0.092      296.073     5.498065 0.0023609895  0.030606059    153.04348    -13166.22   -18436.773 
    9250       0.0925    294.70727    5.5173391 -0.052980057 -0.0037022627    152.33752   -13164.296   -18202.189 
    9300        0.093    298.72331    5.5406204 -0.030344031 -0.0071752139    154.41346   -13165.148    -18343.67 
    9350       0.0935    298.80758     5.584953   0.01910714  0.013385336    154.45702   -13163.964   -18724.818 
    9400        0.094    295.83312    5.5924043 0.0077012101 0.0040803696    152.91949   -13161.196    -18680.62 
    9450       0.0945    296.69847    5.6256189 -0.0064823547  -0.03353474     153.3668   -13160.412   -18618.673 
    9500        0.095    296.60683    5.6514933 -0.010922041  0.010208684    153.31943   -13159.121   -18835.933 
    9550       0.0955    296.46186    5.6652073  0.019931008  0.014655083    153.24449   -13157.804   -18999.311 
    9600        0.096    292.22047    5.6790915 -0.0029845689 -0.0038421098    151.05207   -13154.362   -18907.549 
    9650       0.0965     295.4596    5.7052935 -0.028205412 -0.021626233    152.72641   -13154.779    -18851.54 
    9700        0.097    297.02227    5.7707166 -0.022438185 -0.022413525    153.53417   -13154.322   -19086.216 
    9750       0.0975    300.24114    5.8021129  0.049817161  0.054018214    155.19805   -13154.714   -19686.494 
    9800        0.098    296.19881    5.8391631  0.042348903 -0.036109514    153.10852   -13151.345   -19484.675 
    9850       0.0985    298.60291    5.8348725 -0.020679246  0.013459071    154.35122   -13151.304   -19425.508 
    9900        0.099    297.24538    5.8416203 -0.0087595935   -0.0445686     153.6495   -13149.317   -19294.307 
    9950       0.0995    299.29105    5.8811914  0.033308427 -0.022306826    154.70693   -13149.094   -19640.643 
   10000          0.1    294.18593    5.9030445 -0.0092328777  0.017014335    152.06804   -13145.165   -19702.753 
   10050       0.1005     292.8831    5.9108663 -0.0039613783    0.0312534    151.39459   -13143.187   -19793.861 
   10100        0.101    300.70073    5.9796722 0.0061414631  0.030441561    155.43561   -13145.922   -20054.184 
   10150       0.1015    297.36894    5.9460154 -0.044958641  0.015167735    153.71337   -13142.891   -19720.748 
   10200        0.102    296.66055    5.9931835 -0.058730566  -0.01815998     153.3472   -13141.219   -19720.976 
   10250       0.1025    297.59365    6.0652644  0.048068763   0.01588315    153.82953   -13140.375   -20430.721 
   10300        0.103    296.09723    6.0831951  0.034073739  0.017166106    153.05601   -13138.268   -20448.116 
   10350       0.1035    293.54617    6.1043815 -0.011064374 -0.045449799    151.73734   -13135.616   -20159.558 
   10400        0.104    298.30903    6.1356393  0.020139431  -0.02548117    154.19931   -13136.732   -20434.325 
   10450       0.1045    296.12101    6.1687874 0.0060091797  0.009284491     153.0683    -13134.25   -20613.604 
   10500        0.105    297.77759    6.1687043  0.026256578  0.025102639    153.92461   -13133.755   -20733.545 
   10550       0.1055    296.90183    6.1681224 -0.054610266 0.0015975385    153.47192   -13131.951   -20383.699 
   10600        0.106    294.52244    6.2478275 0.0088562096  -0.02417334    152.24198   -13129.361   -20775.035 
   10650       0.1065    299.66207    6.3063077  0.028309161  0.035499472    154.89872   -13130.634   -21233.721 
   10700        0.107    296.34949    6.2909279  0.024210538  0.036553082    153.18641   -13127.547   -21172.305 
   10750       0.1075    298.84171    6.2773493 -0.011661166 -0.030198028    154.47466   -13127.462   -20784.967 
   10800        0.108    296.82603    6.2879969 -0.028420642 -0.050187043    153.43273   -13125.038   -20697.964 
   10850       0.1085    298.30123    6.3810894  0.013767202  0.034181713    154.19528   -13124.416   -21430.128 
   10900        0.109     295.2763     6.423948   0.05900678  0.034240154    152.63166   -13121.445   -21723.983 
   10950       0.1095     292.3291    6.4062983 -0.014200368 -0.023713855    151.10822   -13118.526   -21227.947 
   11000         0.11    295.35607     6.413246 -0.055915919 -0.011414218     152.6729   -13118.676   -21153.053 
   11050       0.1105    297.49471    6.4636445 -0.016194448 -0.026649453    153.77838   -13118.376   -21402.669 
   11100        0.111    297.19466    6.5441103  0.011759046  0.081558818    153.62328   -13116.795    -22124.76 
   11150       0.1115     297.7701    6.5245767  0.043943667  0.081365716    153.92073   -13115.667   -22166.287 
   11200        0.112    298.69303    6.5287254 -0.0036089803 -0.045183662    154.39781    -13114.72   -21599.776 
[...]
   11600        0.116    295.86676    6.7577242  0.075763029  0.073958092    152.93688   -13101.593   -23024.818 
   11650       0.1165     292.1555    6.7344218 -0.032151427 -0.032764878    151.01848   -13098.211   -22231.685 
   11700        0.117    301.31324    6.7720836 -0.046402816 -0.088074533    155.75222   -13101.444   -22125.354 
   11750       0.1175    295.12397    6.7849096 -0.0091356719 -0.0083171737    152.55292   -13096.783   -22558.189 
   11800        0.118     292.9353    6.8934613  0.075442755   0.07269586    151.42157   -13094.138       -23472 
   11850       0.1185    293.42009    6.8756627  0.024108584  0.053684629    151.67217     -13092.9   -23178.187 
   11900        0.119    297.60617    6.8480185  -0.07550513 -0.049395668      153.836   -13093.547   -22410.392 
   11950       0.1195    290.49431    6.8587747 -0.073985052 -0.054129381     150.1598   -13088.363   -22435.534 
   12000         0.12    294.21227    6.9324996  0.029597071  0.051493613    152.08165   -13088.775   -23378.634 
   12050       0.1205    298.85211    6.9810323  0.076232321  0.057654764    154.48004    -13089.65   -23716.398 
   12100        0.121    292.17489    6.9731107 -0.017840129 -0.034224422    151.02851   -13084.672   -23070.154 
   12150       0.1215    299.17517    7.0175712 -0.0054808258 -0.019448756    154.64703   -13086.744   -23308.805 
   12200        0.122     295.4918    7.0341691  0.015803954 -0.038899441    152.74306   -13083.295   -23370.245 
   12250       0.1225    297.68091    7.0541359  0.010485855 0.0041598156    153.87463   -13082.887   -23562.605 
   12300        0.123    290.86324     7.069642 -0.011340012  0.010227693     150.3505   -13077.815   -23561.766 
   12350       0.1235    294.15497    7.1142558  0.027973172  0.041232647    152.05203   -13077.958   -23944.872 
   12400        0.124    298.82358    7.1862515 -0.0030668171  0.017069976    154.46529    -13078.81   -24000.849 
   12450       0.1245    297.28617    7.1521566  -0.05653832 -0.049788975    153.67059   -13076.438   -23486.098 
   12500        0.125    287.94421    7.1387256 -0.034924326 -0.055774933    148.84162   -13070.056   -23493.421 
   12550       0.1255    296.65781    7.2043746  0.097148616  0.090347389    153.34578   -13072.983   -24639.569 
   12600        0.126    290.39613    7.1942755  0.030246504  0.022993884    150.10905   -13068.186   -24158.386 
   12650       0.1265    297.44905    7.1945769 -0.037901063 -0.058939199    153.75478   -13070.249   -23659.122 
   12700        0.127    292.80448    7.2654553 -0.092795532 -0.048830134    151.35395   -13066.258   -23746.099 
   12750       0.1275     295.5881    7.3269692  0.034522402  0.034231132    152.79284   -13066.099   -24652.409 
   12800        0.128    291.50575    7.3504067  0.048352341  0.064979629    150.68262   -13062.381   -24879.129 
   12850       0.1285    293.04783    7.3445378 0.0088399209  0.043738478    151.47974   -13061.585   -24657.054 
   12900        0.129    291.79695    7.2885679 -0.077746972 -0.088944498    150.83315   -13059.323   -23739.588 
   12950       0.1295     297.0083    7.3744453 -0.0099683697  -0.06581239    153.52695   -13060.409   -24328.882 
   13000         0.13    293.77999    7.4127573  0.061496364  0.027889567     151.8582   -13057.125   -25007.144 
   13050       0.1305    288.70848    7.4496561  0.067853204  0.031933546    149.23668   -13052.881    -25164.81 
   13100        0.131    297.29456    7.4556494  0.014398264  0.017740806    153.67492   -13055.703   -24959.295 
   13150       0.1315    296.03315    7.4191057 -0.063481147 -0.064845889    153.02289   -13053.413   -24302.596 
   13200        0.132    293.40288    7.4982812 -0.074300173 -0.049594416    151.66327   -13050.423   -24581.289 
   13250       0.1325    291.11209    7.5843838  0.043784198  0.094675977    150.47913   -13047.585   -25742.813 
   13300        0.133    292.07061    7.5733514  0.028489648   0.11585679    150.97461   -13046.431   -25725.659 
   13350       0.1335    294.68363    7.5147638 -0.076486874 -0.027550934     152.3253   -13046.159    -24702.42 
   13400        0.134    300.86767     7.543432 -0.038116642 -0.046854906    155.52191   -13047.698   -24861.535 
   13450       0.1345     293.6494    7.6131359  0.033331542 -0.0055173667     151.7907   -13042.312   -25469.834 
   13500        0.135    293.46056    7.6317761  0.074867828  0.060368138    151.69309   -13040.532    -25890.04 
   13550       0.1355    293.56617    7.6205501  0.030987665 -0.038861387    151.74767   -13038.931   -25375.588 
   13600        0.136    294.92099    7.6657403 -0.020138277 -0.018886487      152.448   -13037.949   -25422.385 
   13650       0.1365     292.5936    7.6662979  0.012969351 -0.030640552    151.24495    -13035.07   -25495.422 
   13700        0.137    291.80582    7.7140267   0.01661976 0.0081279374    150.83773   -13032.983   -25795.915 
   13750       0.1375    292.84913    7.7453068  0.041085226  0.022646108    151.37703   -13031.833   -26030.127 
   13800        0.138    287.79419    7.6971213 -0.037187347  -0.02047895    148.76408   -13027.533    -25464.85 
   13850       0.1385    289.86196    7.7225368 -0.021921538 -0.040968313    149.83293    -13026.91   -25532.156 
   13900        0.139    297.11853    7.8339995  0.007267629  0.054247148    153.58393   -13028.949   -26318.381 
   13950       0.1395    292.05419    7.8165082 0.0042335765   0.03438656    150.96611   -13024.616   -26183.761 
   14000         0.14    290.21166     7.766636 -0.010837494 -0.021693571    150.01369   -13021.958    -25780.35 
   14050       0.1405    292.81559    7.7924802 -0.00014241537 -0.025488838    151.35969   -13021.592   -25889.497 
   14100        0.141    292.48112     7.825254 0.0017136547  0.031603541     151.1868   -13019.706   -26195.237 
   14150       0.1415     294.7076     7.905989  0.014126114  0.030791358    152.33769   -13019.126   -26503.021 
   14200        0.142    290.90989    7.8232849 -0.018157528 -0.022503757    150.37462   -13015.441   -25942.079 
   14250       0.1425    295.81925    7.8281011 -0.034842175 -0.014355693    152.91232    -13016.26   -25929.677 
   14300        0.143    284.44796     7.793256  0.011261614 -0.023166934    147.03437   -13008.668   -25937.835 
   14350       0.1435    288.50487     7.841217  0.038553922  0.043380535    149.13143   -13009.042   -26410.505 
   14400        0.144    293.73256    7.8829609  0.020967817  0.020531515    151.83369    -13010.02   -26414.868 
   14450       0.1445    293.16448    7.8490666 -0.031809299 -0.030389469    151.54004   -13007.983   -25956.226 
   14500        0.145    288.45278    7.8759065 -0.053043344 -0.042416727    149.10451   -13003.809   -25934.822 
   14550       0.1455    291.31828    7.9484337  0.022955075   0.04456067    150.58572   -13003.549   -26719.831 
   14600        0.146    289.40398    7.9095411   0.08154163  0.021786151     149.5962   -13000.808   -26709.563 
   14650       0.1465    293.91695    7.8781245 -0.011523618  0.018786454      151.929   -13001.402   -26284.624 
   14700        0.147    291.44531    7.8443001 -0.041554745 -0.061129746    150.65138   -12998.375   -25805.385 
   14750       0.1475    290.14612     7.849565 -0.0088352055 -0.010941962    149.97981   -12995.967   -26099.293 
   14800        0.148    288.48041    7.8526897  0.048523727  0.025983194    149.11879   -12993.361   -26423.989 
   14850       0.1485    291.85789    7.7877602  0.045778306  0.020983649    150.86465   -12993.378   -26181.741 
   14900        0.149    292.43386    7.6711392 -0.015700253 -0.060027119    151.16237   -12991.961   -25318.039 
   14950       0.1495    300.60884    7.4780708  0.017997666 -0.058284166    155.38811   -12994.517   -24792.614 
   15000         0.15     299.6178    7.2786153  0.013536723 -0.0099357826    154.87583   -12992.396   -24274.054 
   15050       0.1505    311.20005     7.063911 0.0099987883  0.096996344    160.86283   -12996.795    -23903.02 
   15100        0.151    315.81851    6.7144545 -0.041726047  0.042537145    163.25016     -12997.7   -22384.219 
   15150       0.1515    329.65822    6.3910209   0.01068003  0.043187457    170.40407    -13003.49   -21482.961 
   15200        0.152    338.21306    5.9717991  0.004925053 -0.011039219    174.82616   -13006.699   -19885.616 
   15250       0.1525    346.60248    5.5591947 -0.083727093 -0.030218773    179.16274   -13009.992   -18150.829 
   15300        0.153     354.6637     5.237291 -0.031822402  0.047916366    183.32968   -13013.331   -17511.283 
   15350       0.1535    357.57389     4.928852  0.039918308  0.097566712    184.83399    -13014.22    -16887.79 
   15400        0.154    363.17523     4.574101  0.076993334  0.053843416    187.72939   -13016.692   -15683.126 
   15450       0.1545    361.99993    4.2214686 -0.0056325688  -0.14636415    187.12186   -13015.785   -13564.906 
   15500        0.155    359.19346    3.8940999  -0.01989363 -0.061665217    185.67117   -13014.175    -12708.47 
   15550       0.1555    355.33274    3.6839141  0.021306134  0.039474264    183.67551   -13012.134   -12482.315 
   15600        0.156    355.12931    3.4790747  0.070141357  0.078591722    183.57036   -13012.043   -12092.693 
   15650       0.1565    357.80429    3.3357623 -0.043427996 -0.0080005355    184.95309   -13013.473   -10947.779 
   15700        0.157    357.99281    3.2313325 -0.058307207  -0.05136666    185.05053   -13013.578   -10405.529 
   15750       0.1575    363.34286    3.2804378  0.066428765 -0.039716801    187.81604   -13016.351   -11023.832 
   15800        0.158    365.20854    3.3457361  0.064824653 -0.0055900699    188.78043    -13017.33   -11349.902 
   15850       0.1585    362.21143    3.3048774  0.055534028 -0.013449494    187.23119   -13015.807    -11156.54 
   15900        0.159    366.94829    3.2544056  0.053505242 -0.045431064    189.67973   -13018.312   -10874.933 
   15950       0.1595    365.13456    3.2350917 0.0054460248 -0.025620214    188.74219   -13017.427   -10716.392 
   16000         0.16    365.57194    3.1969999  0.060453823 -0.014224229    188.96827   -13017.744   -10810.765 
   16050       0.1605    372.22966    3.2077248 -0.054076604  0.032280346    192.40972   -13021.266   -10619.762 
   16100        0.161    371.27244    3.1532194  -0.12101329 -0.026741078    191.91493   -13020.843   -10018.217 
   16150       0.1615    366.52626    3.0777467  0.035449191   0.03130354    189.46157   -13018.528   -10481.665 
   16200        0.162    364.14708    3.0726947   0.10745922  0.018654321    188.23175   -13017.466   -10662.694 
   16250       0.1625    371.13801    3.0100609  0.062382467  0.017986412    191.84544   -13021.316   -10301.433 
   16300        0.163    373.94933    2.8835503 -0.049709005 -0.044316076    193.29864   -13022.997   -9298.4175 
   16350       0.1635    375.88171    2.8081699 -0.085396897 -0.024109968    194.29751   -13024.202   -8995.5434 
   16400        0.164    375.18191    2.7935701 -0.017742056  0.060337105    193.93577   -13024.114   -9453.8838 
   16450       0.1645    371.87314    2.7073739 -0.010560694  0.091104504    192.22543   -13022.713   -9293.0591 
   16500        0.165    380.82222    2.6713287  0.026154167 -0.011469042    196.85132   -13027.674   -8953.3793 
   16550       0.1655    374.68899    2.5404267  0.060935419 -0.0016049115    193.68098   -13024.849   -8665.8573 
   16600        0.166    383.01784     2.493303 0.0053183368 -0.067438888    197.98626    -13029.53   -8103.9415 
   16650       0.1665    377.54895    2.4215572  0.020203438 -0.072541042    195.15932   -13027.091   -7897.3986 
   16700        0.167    384.07843    2.4170129   0.11826618 -0.029045539    198.53449   -13030.923    -8354.112 
   16750       0.1675    379.69422    2.3295956   0.10620873 -0.082620352    196.26824   -13029.198   -7843.9464 
   16800        0.168    380.95894    2.2776862  0.012610523 -0.033790795    196.92199   -13030.388   -7521.6863 
   16850       0.1685    382.50411    2.2632157 -0.017071707  0.025085906    197.72071   -13031.627   -7570.7665 
   16900        0.169    379.70525    2.2286887 -0.022139653   0.10002113    196.27394    -13030.59   -7688.5671 
   16950       0.1695    383.55408    2.1873964 -0.074025381  0.077234594    198.26345   -13033.026   -7302.0187 
   17000         0.17    386.89638    2.1410263 -0.017542658 0.0078884702    199.99112   -13035.254   -7104.5737 
   17050       0.1705    385.38498    2.0852015  0.011100777 -0.019934482    199.20986   -13035.002    -6921.226 
   17100        0.171    389.88514    2.0681303  0.020597073 -0.007537706    201.53604   -13037.867    -6937.299 
   17150       0.1715    385.88728    2.0074917  0.040091226  0.048161094     199.4695    -13036.35   -6985.8135 
   17200        0.172    389.21011    2.0164966  0.067597945 0.0072273092    201.18711   -13038.677    -6971.073 
   17250       0.1725     382.5105    1.8813146 -0.063662852 -0.065460772    197.72401   -13035.795   -5840.6367 
   17300        0.173    389.25382    1.8384065 -0.010072157  0.012631612    201.20971   -13039.878   -6136.5533 
   17350       0.1735    390.26422    1.8495474 -0.048111359  0.093861635    201.73199   -13041.032    -6317.659 
   17400        0.174    381.11459     1.786652  0.086288839 -0.027532191    197.00245   -13036.944    -6151.362 
   17450       0.1745    392.89362    1.7262503  0.034985715 -0.030329612    203.09116   -13043.677   -5769.6881 
   17500        0.175    385.65287    1.6564028   0.01189827  -0.10248316    199.34833   -13040.603   -5219.3932 
   17550       0.1755    393.78402    1.6677698  0.031081494 -0.041177425    203.55142   -13045.507   -5525.5796 
   17600        0.176    395.37732    1.6229466  0.056356263  0.027787557    204.37501   -13047.061   -5690.3014 
   17650       0.1765    390.20727    1.5146257 -0.022272347  0.030722497    201.70256   -13045.075   -5076.9195 
   17700        0.177    399.97827    1.4213002  -0.03713365  0.080613747    206.75329   -13050.827   -4882.6009 
   17750       0.1775    383.67141     1.333516 -0.036083632 -0.0091700325     198.3241   -13043.142   -4294.2079 
   17800        0.178    393.65355    1.4321603 0.0086616366 -0.031813481    203.48398   -13049.052   -4696.6948 
   17850       0.1785    390.85005    1.4560599  0.039664302   0.02407684    202.03481   -13048.373   -5066.0035 
   17900        0.179     392.5426    1.4110985  0.002227162 -0.033100314    202.90971   -13050.014   -4600.7512 
   17950       0.1795    403.12136    1.4554856  0.026617263 -0.0027933642    208.37799   -13056.256   -4931.0317 
   18000         0.18    392.86889    1.4296208 -0.089868979 -0.034261013    203.07838   -13051.738   -4351.6361 
   18050       0.1805     394.8713    1.4182072  0.015165081  0.043709659    204.11345   -13053.544   -4923.6065 
   18100        0.181    399.72559     1.404966   0.11421738   0.05451439    206.62268    -13056.84   -5245.6592 
   18150       0.1815    394.83265     1.246398 -0.025977051 0.0024775988    204.09347   -13055.149   -4076.3286 
   18200        0.182    394.20563    1.2479287  -0.08646911   -0.1301365    203.76935   -13055.612   -3437.7437 
   18250       0.1825    399.31892    1.2836959  0.054121619 0.0018250246    206.41247   -13059.083   -4465.4751 
   18300        0.183     396.2941    1.3458776   0.10650703   0.05249396    204.84891   -13058.374   -5016.2619 
   18350       0.1835    396.41456    1.2386029  0.084061838 -0.0026400592    204.91117   -13059.317   -4400.0822 
   18400        0.184    401.76701    1.1850078 0.00094080665  -0.12376705    207.67792   -13063.013   -3540.6051 
   18450       0.1845    403.41762    1.1240207  -0.10829641 -0.014261008    208.53114   -13064.723   -3338.2108 
   18500        0.185     402.4109     1.182237   -0.0125911  0.035309034    208.01075   -13065.071   -4016.5165 
   18550       0.1855    400.31142    1.2507008 -0.0066820053   0.13038639    206.92551   -13064.836   -4581.3507 
   18600        0.186    401.06614    1.1619368  0.036923206  0.043731497    207.31563   -13066.106   -4141.9715 
   18650       0.1865    397.21529     1.246749 -0.050666674 -0.043592392    205.32508   -13064.978   -3841.6331 
   18700        0.187    412.23048    1.2604677  0.023644744 -0.0090199822     213.0866   -13073.597   -4250.3082 
   18750       0.1875    394.49869    1.1831416 -0.062922246 -0.00050908424    203.92084    -13065.31   -3732.3675 
   18800        0.188    405.97706    1.2084383  0.030397083  0.067156435    209.85414   -13072.141   -4353.3059 
   18850       0.1885    398.97669    1.2887957 0.0068912205  0.031348839    206.23557   -13069.416   -4423.4526 
   18900        0.189    398.75081    1.2803677 -0.034803068  -0.04799426    206.11881   -13070.164   -3991.9014 
   18950       0.1895     395.0445     1.214723 0.0068537944 -0.010536683    204.20297   -13069.104   -4036.8004 
   19000         0.19    403.21708     1.208605   0.11745346 0.0083643492    208.42747   -13074.201   -4448.0759 
   19050       0.1905    397.11224    1.1578257  0.049455748 -0.021142931    205.27181   -13071.936    -3953.795 
   19100        0.191    401.34964    1.1257529 0.0060058535 -0.050112737    207.46217   -13074.999   -3605.4866 
   19150       0.1915     401.5147    1.2207477 -0.046864074 -0.090809396     207.5475   -13075.997   -3610.2475 
   19200        0.192    401.04141    1.2217281  0.042116514  0.072348398    207.30285   -13076.634   -4453.9767 
   19250       0.1925    401.77283    1.2389132  0.011410006  0.046413603    207.68092   -13077.905    -4322.456 
   19300        0.193    400.34339    1.1665638  0.048827831 -0.014769181    206.94203   -13078.081   -4002.0748 
   19350       0.1935    401.45738    1.1689598 0.0051992206 -0.043990534    207.51787   -13079.583   -3767.2284 
   19400        0.194    398.48664    1.1779102 -0.045425028 -0.010942539    205.98225   -13078.939   -3738.4755 
   19450       0.1945    403.08464    1.2141214  0.069591594 -0.0058309672    208.35901   -13082.208   -4259.6067 
   19500        0.195    397.53867    1.1757092  0.044530853 -0.0031706009    205.49224   -13080.254   -4056.8981 
   19550       0.1955    394.44032    1.1628634 -0.0060574221 -0.041906986    203.89066   -13079.564     -3716.33 
   19600        0.196    404.68423    1.1911344 -0.044868456  0.049628511    209.18586   -13085.721   -3986.3149 
   19650       0.1965    395.16695    1.1845477 -0.014727234  0.025741691    204.26627   -13081.678   -3985.2073 
   19700        0.197    400.09669     1.228463 -0.017792663  0.017553169    206.81451    -13085.12   -4094.0784 
   19750       0.1975    404.68014    1.2315778 -0.066655088   0.00423981    209.18375   -13088.373   -3897.2084 
   19800        0.198    411.69701    1.2130081  0.055176539  0.045586085    212.81084   -13092.906   -4379.2358 
   19850       0.1985    409.27818    1.2244617  0.076568626 0.0066454817    211.56052   -13092.582   -4358.9192 
   19900        0.199    399.73791     1.223864 -0.0049981572 -0.087502128    206.62905   -13088.554   -3771.2124 
   19950       0.1995    401.69935    1.1554519  0.045232646  0.030850594    207.64294   -13090.455    -4105.117 
   20000          0.2    406.85092    1.1656179  0.069534916   0.02239157    210.30585   -13094.058   -4191.8147 
Loop time of 542.951 on 4 procs for 20000 steps with 4000 atoms

Pair  time (%) = 380.862 (70.1468)
Neigh time (%) = 0.649259 (0.11958)
Comm  time (%) = 112.768 (20.7696)
Outpt time (%) = 0.742991 (0.136843)
Other time (%) = 47.9274 (8.82722)

Nlocal:    1000 ave 1007 max 993 min
Histogram: 1 0 0 0 1 1 0 0 0 1
Nghost:    3756.5 ave 3764 max 3748 min
Histogram: 1 1 0 0 0 0 0 0 0 2
Neighs:    68824 ave 70901 max 66746 min
Histogram: 1 1 0 0 0 0 0 0 1 1
FullNghs:  0 ave 0 max 0 min
Histogram: 4 0 0 0 0 0 0 0 0 0

Total # of neighbors = 275296
Ave neighs/atom = 68.824
Neighbor list builds = 89
Dangerous builds = 0

######################################
# SIMULATION DONE
print "All done"
All done
