LAMMPS (28 Jun 2014)
# Input file for uniaxial tensile loading of single crystal aluminum
# Mark Tschopp, November 2010

# ------------------------ INITIALIZATION ----------------------------
units 		metal
dimension	3
boundary	p	p	p
atom_style	atomic
variable latparam equal 4.05

# ----------------------- ATOM DEFINITION ----------------------------
lattice		fcc ${latparam}
lattice		fcc 4.05
Lattice spacing in x,y,z = 4.05 4.05 4.05
region		whole block 0 10 0 10 0 10
create_box	1 whole
Created orthogonal box = (0 0 0) to (40.5 40.5 40.5)
  1 by 2 by 2 MPI processor grid
lattice 	fcc ${latparam} orient x 1 0 0 orient y 0 1 0 orient z 0 0 1
lattice 	fcc 4.05 orient x 1 0 0 orient y 0 1 0 orient z 0 0 1
Lattice spacing in x,y,z = 4.05 4.05 4.05
create_atoms	1 region whole
Created 4000 atoms

# ------------------------ FORCE FIELDS ------------------------------
pair_style	eam/alloy
pair_coeff	* * Al99.ZeroFRho.PosRhoR.ZeroPhiR.eam.alloy Al

# ------------------------- SETTINGS ---------------------------------
compute csym all centro/atom fcc
compute peratom all pe/atom

######################################
# EQUILIBRATION
reset_timestep	0
timestep 0.001
velocity all create 300 12345 mom yes rot no
fix 1 all npt temp 300 300 1 iso 0 0 1 drag 1

# Set thermo output
thermo 1000
thermo_style custom step lx ly lz press pxx pyy pzz pe temp

# Run for at least 10 picosecond (assuming 1 fs timestep)
run 20000
Memory usage per processor = 3.04301 Mbytes
Step Lx Ly Lz Press Pxx Pyy Pzz PotEng Temp 
       0         40.5         40.5         40.5    2551.1876    2502.0544    2589.7184    2561.7899       -13440          300 
    1000    40.558502    40.558502    40.558502    866.50904    854.79454    838.86458      905.868   -13361.138    165.23686 
    2000    40.572411    40.572411    40.572411    262.84802    198.98093    288.70579    300.85734   -13356.423    178.72745 
    3000    40.581297    40.581297    40.581297    102.52649    17.320673    199.87094     90.38784   -13350.027     189.3522 
    4000    40.589022    40.589022    40.589022    62.064386    18.439108     35.32858    132.42547   -13340.514    193.94355 
    5000    40.593887    40.593887    40.593887    189.12677    268.63146    248.15822    50.590627   -13334.277    204.62801 
    6000    40.601031    40.601031    40.601031    89.988158    113.74642   -20.475142     176.6932    -13327.37    213.50916 
    7000     40.60863     40.60863     40.60863   -17.352154   -15.923746    70.021035   -106.15375    -13321.84    224.30809 
    8000    40.613063    40.613063    40.613063    81.790358    66.749335    132.42374    46.197999    -13317.71    236.80358 
    9000    40.618877    40.618877    40.618877   -2.3838257   -104.59021    99.871261   -2.4325329   -13315.855    252.51162 
   10000     40.62684     40.62684     40.62684   -31.314501   -23.028685    58.683594   -129.59841   -13306.102    251.51669 
   11000     40.63005     40.63005     40.63005  -0.82746737   -219.11086    91.814427    124.81403   -13303.215    262.24901 
   12000    40.633741    40.633741    40.633741   -88.095258     45.10208   -167.14616   -142.24169   -13301.554    273.67283 
   13000    40.641415    40.641415    40.641415    -257.6659   -331.31646   -420.60175   -21.079483    -13298.15    279.97215 
   14000    40.642741    40.642741    40.642741   -156.62436   -402.74183   -76.715454    9.5841887   -13293.704    282.49612 
   15000    40.641598    40.641598    40.641598    253.41121    415.27143    111.91549    233.04672   -13289.962    284.65743 
   16000     40.64248     40.64248     40.64248    181.20481    208.86298    10.348635    324.40281   -13289.423    291.33764 
   17000    40.648408    40.648408    40.648408   -101.22188   -67.588291    19.369801   -255.44715   -13289.089    296.82626 
   18000    40.649273    40.649273    40.649273    70.813653    160.28964   -77.030587    129.18191   -13285.196    293.94157 
   19000    40.654148    40.654148    40.654148   -205.51698   -320.86265    81.685979   -377.37427   -13285.906    298.49775 
   20000    40.652975    40.652975    40.652975   -135.48188    196.40744   -329.95481   -272.89828   -13285.188    299.00843 
Loop time of 187.997 on 4 procs for 20000 steps with 4000 atoms

Pair  time (%) = 171.561 (91.2571)
Neigh time (%) = 0 (0)
Comm  time (%) = 11.4725 (6.10249)
Outpt time (%) = 0.00225484 (0.0011994)
Other time (%) = 4.96162 (2.6392)

Nlocal:    1000 ave 1000 max 1000 min
Histogram: 4 0 0 0 0 0 0 0 0 0
Nghost:    4235 ave 4235 max 4235 min
Histogram: 4 0 0 0 0 0 0 0 0 0
Neighs:    70000 ave 72653 max 67302 min
Histogram: 1 0 1 0 0 0 0 1 0 1
FullNghs:  0 ave 0 max 0 min
Histogram: 4 0 0 0 0 0 0 0 0 0

Total # of neighbors = 280000
Ave neighs/atom = 70
Neighbor list builds = 0
Dangerous builds = 0
unfix 1

# Store final cell length for strain calculations
variable tmp equal "lx"
variable L0 equal ${tmp}
variable L0 equal 40.6529749649915
print "Initial Length, L0: ${L0}"
Initial Length, L0: 40.6529749649915

######################################
# DEFORMATION
reset_timestep	0

fix		1 all npt temp 300 300 1 y 0 0 1 z 0 0 1 drag 1
variable srate equal 1.0e10
variable srate1 equal "v_srate / 1.0e12"
fix		2 all deform 1 x erate ${srate1} units box remap x
fix		2 all deform 1 x erate 0.01 units box remap x

# Output strain and stress info to file
# for units metal, pressure is in [bars] = 100 [kPa] = 1/10000 [GPa]
# p2, p3, p4 are in GPa
variable strain equal "(lx - v_L0)/v_L0"
variable p1 equal "v_strain"
variable p2 equal "-pxx/10000"
variable p3 equal "-pyy/10000"
variable p4 equal "-pzz/10000"
fix def1 all print 20 "${p1} ${p2} ${p3} ${p4}" file  Al99.ZeroFRho.PosRhoR.ZeroPhiR.eam.alloy.def1.txt screen no

# Use cfg for AtomEye
#dump 		1 all cfg 250 dump.tensile_*.cfg id type xs ys zs c_csym c_peratom fx fy fz
#dump_modify 1 element Al

# Display thermo
thermo 	1000
thermo_style	custom step v_strain temp v_p2 v_p3 v_p4 ke pe press

run		20000
Memory usage per processor = 3.04301 Mbytes
Step strain Temp p2 p3 p4 KinEng PotEng Press 
       0 -1.0486948e-15    299.00843 -0.019640744  0.032995481  0.027289828    154.56084   -13285.188   -135.48188 
    1000         0.01    296.53148   0.65080732 -0.008078705 -0.0018916751    153.28048   -13281.408   -2136.1231 
    2000         0.02    294.99937    1.3043404  0.045012298  0.026761793    152.48851   -13275.238   -4587.0483 
    3000         0.03    298.08506    1.9232489 -0.0037390521 -0.00030425052    154.08354   -13268.722   -6397.3519 
    4000         0.04    300.60768    2.5344139  0.015678442  0.023006406    155.38751   -13259.216   -8576.9959 
    5000         0.05    297.13324    3.1111765 -0.0012458356 -0.0016370982    153.59153   -13244.055   -10360.979 
    6000         0.06    298.78835    3.7290461  0.016784259 0.0076573188    154.44708   -13229.117   -12511.626 
    7000         0.07    298.61516    4.2953015  0.020359657  0.037079596    154.35756   -13210.933   -14509.136 
    8000         0.08    298.24097    4.8011432 -0.034237099 -0.058534846    154.16413   -13190.323   -15694.571 
    9000         0.09    299.00475    5.3763522  0.024391045 -0.024391993    154.55894   -13168.082   -17921.171 
   10000          0.1    298.12049    5.9218055 -0.0031455586 -0.023738431    154.10185   -13142.701   -19649.738 
   11000         0.11    295.61359    6.4630753  0.037909522   0.02348506    152.80601   -13114.228   -21748.233 
   12000         0.12    296.32669    6.9352416 -0.015779136  0.057362825    153.17462   -13085.347   -23256.084 
   13000         0.13    295.25511    7.4097331  0.043055914  0.045522494    152.62071   -13053.407   -24994.372 
   14000         0.14    290.77408    7.7785617   -0.0768553 -0.020475557    150.30441   -13017.823   -25604.103 
   15000         0.15    288.99858    8.0773408  0.052667993  0.064701682    149.38664   -12981.898   -27315.702 
   16000         0.16    352.34035     4.162322  0.009415428 -0.020634046    182.12871   -12989.284   -13837.011 
   17000         0.17    391.17466    2.9002673  0.016652729  0.038179465    202.20261   -13010.181   -9850.3318 
   18000         0.18     413.9492    1.5639951  -0.11015877  0.091407874    213.97503   -13036.287    -5150.814 
   19000         0.19    417.04002    1.3029375   0.05879884  -0.02240261    215.57271   -13058.148   -4464.4458 
   20000          0.2    413.28872    1.3717113  0.017415047 -0.058680931    213.63362   -13076.807    -4434.818 
Loop time of 245.948 on 4 procs for 20000 steps with 4000 atoms

Pair  time (%) = 223.828 (91.0061)
Neigh time (%) = 0.509383 (0.20711)
Comm  time (%) = 15.1137 (6.14508)
Outpt time (%) = 0.00420785 (0.00171087)
Other time (%) = 6.49301 (2.63999)

Nlocal:    1000 ave 1006 max 994 min
Histogram: 1 0 1 0 0 0 0 1 0 1
Nghost:    3788.25 ave 3800 max 3783 min
Histogram: 2 1 0 0 0 0 0 0 0 1
Neighs:    69047 ave 71072 max 67080 min
Histogram: 1 1 0 0 0 0 0 0 1 1
FullNghs:  0 ave 0 max 0 min
Histogram: 4 0 0 0 0 0 0 0 0 0

Total # of neighbors = 276188
Ave neighs/atom = 69.047
Neighbor list builds = 88
Dangerous builds = 0

######################################
# SIMULATION DONE
print "All done"
All done
